version 2
run Join-12-20130429-12:49:30-17679
attr configname Join
attr datetime 20130429-12:49:30
attr experiment "\"Join\""
attr inifile omnetpp.ini
attr iterationvars $0=64
attr iterationvars2 "$0=64, $repetition=2"
attr measurement $0=64
attr network Network
attr processid 17679
attr repetition 2
attr replication #2
attr resultdir results
attr runnumber 12
attr seedset 12

vector 12  Network.dyn_peer[0]  lookupHopsSig:vector  ETV
12	374	20.3	3
12	381	20.9	5
12	386	21.208737126232	2
12	391	21.516744468542	2
12	395	21.72322674821	1
12	418	24.5	5
12	424	25	4
12	428	25.202106076336	1
12	440	26.009968862425	7
12	445	26.313743270229	2
12	450	26.616373152403	2
12	457	27.120401624511	4
12	462	27.423206771786	2
12	467	27.732058548784	2
12	474	28.032289028667	2
12	479	28.334310572111	2
12	484	28.641035202202	2
12	490	29.045225350484	3
12	514	32.7	7
12	521	33.3	5
12	527	33.706711321617	3
12	536	34.210049646452	4
12	542	34.617433275877	3
12	548	35.025218010191	3
12	552	35.231227605319	1
12	559	35.73258195673	4
12	567	36.133112346675	3
12	590	40.5	5
12	594	40.8	2
12	599	41.107868444656	2
12	605	41.512017690326	3
12	612	41.915923350996	3
12	620	42.317018205216	3
12	629	43.022020597215	6
12	650	46.3	3
12	657	46.9	5
12	662	47.206050053879	2
12	666	47.415273559887	1
12	691	50.7	7
12	696	51.1	3
12	700	51.306594759542	1
12	706	51.708546232098	3
12	714	52.109223493718	3
12	724	52.914619109203	7
12	731	53.418173538449	4
12	754	56.5	5
12	759	56.9	3
12	764	57.203133639127	2
12	770	57.603213672555	3
12	775	57.904033570611	2
12	784	58.310268993858	3
12	790	58.716243581923	3
12	797	59.219566171807	4
12	821	62.6	6
12	824	62.8	1
12	829	63.1096861833	2
12	837	63.713821238578	5
12	844	64.022557064141	2
12	853	64.725031818812	6
12	859	65.134159658699	3
12	865	65.542683391644	3
12	871	65.944382374266	3
12	879	66.350116662779	3
12	885	66.753284741749	3
12	893	67.359714074471	5
12	915	70.4	4
12	918	70.6	1
12	924	71.005439434121	3
12	930	71.41136802775	3
12	935	71.71542257164	2
12	946	72.421844397947	6
12	957	73.329268501043	8
12	962	73.540489408231	1
12	986	76.6	6
12	989	76.8	1
12	999	77.600004222332	7
12	1008	78.107470060295	4
12	1015	78.607763641599	4
12	1022	79.11417811754	4
12	1031	79.823324025714	6
12	1052	82.3	3
12	1058	82.8	4
12	1063	83.109886278617	2
12	1067	83.318899264719	1
12	1072	83.62234521408	2
12	1093	86.3	3
12	1098	86.7	3
12	1104	87.104255780247	3
12	1108	87.310439707345	1
12	1113	87.619596016015	2
12	1118	87.919729550219	2
12	1125	88.22960488852	2
12	1130	88.535349216478	2
12	1138	89.141453009949	5
12	1145	89.649229804505	4
12	1165	92.2	2
12	1170	92.6	3
12	1175	92.90097986238	2
12	1182	93.402141919728	4
12	1187	93.707381326181	2
12	1197	94.309847341009	5
12	1217	98.2	2
12	1225	98.9	6
12	1234	99.60224257417	6
12	1242	100.003197276706	3
12	1247	100.30831366826	2
12	1253	100.71221676038	3
12	1260	101.215279250178	4
12	1283	104.5	5
12	1287	104.70969182383	1
12	1297	105.323712861929	5
12	1304	105.738785577406	3
12	1311	106.040430377036	2
12	1317	106.440548576594	3
12	1337	110.2	2
12	1340	110.4	1
12	1346	110.808825707032	3
12	1353	111.310814469285	4
12	1360	111.720681512555	3
12	1364	111.928430914726	1
12	1387	114.5	5
12	1391	114.8	2
12	1396	115.101596231204	2
12	1401	115.407475096089	2
12	1407	115.810474076603	3
12	1415	116.220354974192	3
12	1422	116.723733799498	4
12	1446	120.6	6
12	1452	121.1	4
12	1459	121.607762813284	4
12	1468	122.117501810283	4
12	1477	122.820099985112	6
12	1484	123.329128354463	4
12	1488	123.535517485147	1
12	1493	123.840976219308	2
12	1501	124.249244219116	3
12	1508	124.751009442375	4
12	1514	125.156222494996	3
12	1520	125.559884706301	3
12	1526	125.964129557621	3
12	1545	128.2	2
12	1550	128.6	3
12	1560	129.403624807975	7
12	1567	129.913617544606	4
12	1573	130.119449943463	1
12	1596	134.5	5
12	1600	134.8	2
12	1606	135.209815875582	3
12	1611	135.514056432341	2
12	1617	135.915472016488	3
12	1627	136.520056134862	5
12	1635	137.12031900507	5
12	1649	138.121169957512	9
12	1672	142.5	5
12	1679	143.1	5
12	1684	143.400992047004	2
12	1690	143.804429624569	3
12	1701	144.509648651321	6
12	1705	144.712884242144	1
12	1727	148.4	4
12	1734	149	5
12	1742	149.602484384921	5
12	1746	149.808266556688	1
12	1768	152.4	4
12	1773	152.8	3
12	1780	153.301539186048	4
12	1786	153.709294892344	3
12	1807	156.3	3
12	1813	156.8	4
12	1817	157.006864413714	1
12	1823	157.408801792994	3
12	1845	160.4	4
12	1852	161	5
12	1859	161.505130160227	4
12	1871	162.308445940503	7
12	1878	162.811887982686	4
12	1887	163.516732280268	6
12	1907	166.2	2
12	1914	166.8	5
12	1924	167.602996928987	7
12	1932	168.007634513799	3
12	1941	168.709788092048	6
12	1948	169.217512672798	4
12	1957	169.925395760641	6
12	1965	170.332866666966	3
12	1972	170.840625156384	4
12	1990	174.1	1
12	1998	174.8	6
12	2005	175.307574737172	4
12	2013	175.908856668188	5
12	2025	176.718493048124	7
12	2043	180	0
12	2052	180.8	7
12	2060	181.408258451174	5
12	2064	181.610017431051	1
12	2072	182.010990954824	3
12	2079	182.512769086833	4
12	2086	183.021744205902	4
12	2109	186.5	5
12	2113	186.8	2
12	2117	187.005448582549	1
12	2126	187.710024411989	6
12	2149	190.5	5
12	2153	190.8	2
12	2158	191.105504497506	2
12	2163	191.40914187571	2
12	2170	191.915386694112	4
12	2177	192.21872230578	2
12	2200	196.5	5
12	2208	197.2	6
12	2217	197.902037510578	6
12	2226	198.407229998586	4
12	2230	198.61565232634	1
12	2237	199.11677854916	4
12	2243	199.520932670826	3
12	2248	199.82577192671	2
12	2272	202.6	6
12	2276	202.9	2
12	2283	203.409971593318	4
12	2288	203.71177551316	2
12	2292	203.914910552675	1
12	2300	204.322965473093	3
12	2306	204.728658308638	3
12	2314	205.335265663237	5
12	2336	208.4	4
12	2344	209.1	6
12	2348	209.303738086153	1
12	2354	209.707253501593	3
12	2358	209.914303119402	1
12	2366	210.319034117451	3
12	2387	214.3	3
12	2392	214.7	3
12	2396	214.902698563232	1
12	2401	215.114840234046	1
12	2426	218.7	7
12	2432	219.2	4
12	2437	219.501230116039	2
12	2442	219.808556420041	2
12	2450	220.21175419984	3
12	2456	220.613198498159	3
12	2460	220.817115094405	1
12	2484	224.6	6
12	2491	225.2	5
12	2497	225.607427790551	3
12	2505	226.009134280562	3
12	2510	226.31813318526	2
12	2517	226.825836307374	4
12	2524	227.326648058756	4
12	2532	227.929040044112	5
12	2540	228.336236219973	3
12	2544	228.543707920863	1
12	2562	232	0
12	2569	232.6	5
12	2580	233.500030429041	8
12	2585	233.806575969058	2
12	2595	234.413684121259	5
12	2602	234.916013880679	4
12	2609	235.423350502594	4
12	2615	235.827560250348	3
12	2637	238.4	4
12	2642	238.8	3
12	2647	239.109767775614	2
12	2657	239.915854580657	7
12	2665	240.322513688777	3
12	2673	240.922908523024	5
12	2679	241.324552478359	3
12	2687	241.933606837924	5
12	2698	242.640600895047	6
12	2703	242.949491458839	2
12	2708	243.254573772737	2
12	2728	246.2	2
12	2734	246.7	4
12	2741	247.209076345972	4
12	2748	247.709885007186	4
12	2772	250.6	6
12	2776	250.9	2
12	2783	251.407096122712	4
12	2789	251.812649658049	3
12	2796	252.114258679469	2
12	2800	252.317986058873	1
12	2805	252.626623577099	2
12	2826	256.3	3
12	2831	256.7	3
12	2836	257.002303270734	2
12	2841	257.306062428135	2
12	2850	257.918052071773	5
12	2874	260.6	6
12	2879	261	3
12	2883	261.200966495231	1
12	2889	261.607383050231	3
12	2897	262.012862865444	3
12	2903	262.418253920419	3
12	2923	266.2	2
12	2929	266.7	4
12	2935	267.106936977324	3
12	2944	267.808647534535	6
12	2953	268.311836963926	4
12	2964	269.217101291563	8
12	2987	272.5	5
12	2993	273	4
12	2998	273.306302115693	2
12	3003	273.607466935742	2
12	3012	274.022623539364	3
12	3019	274.531210960517	4
12	3039	278.2	2
12	3043	278.5	2
12	3048	278.809506270678	2
12	3052	279.01735140406	1
12	3058	279.423166697758	3
12	3068	280.030275786595	5
12	3074	280.435422689669	3
12	3093	284.1	1
12	3096	284.3	1
12	3105	284.902653987281	5
12	3109	285.108479439454	1
12	3115	285.512755023046	3
12	3140	288.7	7
12	3145	289.1	3
12	3151	289.508441608105	3
12	3161	290.113532639035	5
12	3169	290.713683600433	5
12	3174	291.018221385607	2
12	3180	291.422669569875	3
12	3190	292.032579682601	5
12	3214	296.6	6
12	3218	296.9	2
12	3223	297.200487738428	2
12	3230	297.706564485921	4
12	3238	298.112109082656	3
12	3242	298.316891125757	1
12	3249	298.821511629461	4
12	3254	299.129797873922	2
12	3258	299.33548794106	1
12	3265	299.844782195548	4
12	3274	300.348503677423	4
12	3281	300.856791328461	4
12	3303	304.4	4
12	3309	304.9	4
12	3316	305.405292130317	4
12	3320	305.606935115123	1
12	3328	306.013798662162	3
12	3353	310.7	7
12	3357	311	2
12	3362	311.308182809327	2
12	3373	312.01662631527	6
12	3379	312.418606846171	3
12	3386	312.922104224422	4
12	3408	316.4	4
12	3415	317	5
12	3424	317.700446987426	6
12	3433	318.209550155009	4
12	3440	318.614678813401	3
12	3446	319.018794649083	3
12	3452	319.426857589388	3
12	3474	322.4	4
12	3481	323	5
12	3487	323.401072177267	3
12	3491	323.607874614991	1
12	3500	324.115984821653	4
12	3508	324.717298716758	5
12	3531	328.5	5
12	3537	329	4
12	3545	329.603604378891	5
12	3554	330.11061867203	4
12	3561	330.610667298886	4
12	3565	330.819718128508	1
12	3572	331.322190337532	4
12	3595	334.5	5
12	3599	334.8	2
12	3605	335.203021506469	3
12	3610	335.503920652365	2
12	3621	336.205685375639	6
12	3643	340.4	4
12	3648	340.8	3
12	3656	341.406561555906	5
12	3662	341.806653698914	3
12	3669	342.115928861627	2
12	3691	346.4	4
12	3697	346.9	4
12	3705	347.509614151434	5
12	3711	347.913629404566	3
12	3718	348.215137227383	2
12	3722	348.417926723997	1
12	3744	352.4	4
12	3750	352.9	4
12	3754	353.104886585478	1
12	3761	353.609975411295	4
12	3765	353.817260408591	1
12	3784	356.1	1
12	3789	356.5	3
12	3795	356.90642163187	3
12	3802	357.413808603395	4
12	3810	357.930270477266	4
12	3816	358.136485859211	1
12	3821	358.440778755109	2
12	3840	362.1	1
12	3843	362.3	1
12	3852	363.007318207412	6
12	3857	363.316034940427	2
12	3864	363.82034063673	4
12	3885	366.3	3
12	3889	366.6	2
12	3895	367.004273451035	3
12	3902	367.513909432845	4
12	3912	368.123746571448	5
12	3933	372.3	3
12	3939	372.8	4
12	3944	373.103624811389	2
12	3949	373.40598299907	2
12	3967	376	0
12	3974	376.6	5
12	3980	377.006147961616	3
12	3984	377.21286030098	1
12	3988	377.414626656802	1
12	4010	380.4	4
12	4018	381.1	6
12	4024	381.500862227471	3
12	4033	382.006476495684	4
12	4052	386.1	1
12	4057	386.5	3
12	4065	387.102873678365	5
12	4069	387.310942494093	1
12	4075	387.712428225575	3
12	4083	388.117288576243	3
12	4104	392.3	3
12	4110	392.8	4
12	4119	393.502116330126	6
12	4123	393.703268783411	1
12	4135	394.512726066652	7
12	4156	398.3	3
12	4163	398.9	5
12	4169	399.308963368625	3
12	4174	399.611731522576	2
12	4184	400.22093405414	5
12	4206	404.4	4
12	4216	405.3	8
12	4222	405.614705495642	2
12	4230	406.016457821038	3
12	4234	406.222202229099	1
12	4244	407.028098112311	7
12	4264	410.2	2
12	4269	410.6	3
12	4275	411.006724506018	3
12	4280	411.314109132759	2
12	4286	411.722363988758	3
12	4310	414.6	6
12	4314	414.9	2
12	4321	415.40834933191	4
12	4325	415.613946228308	1
12	4347	418.4	4
12	4354	419	5
12	4363	419.704116239077	6
12	4372	420.211273648251	4
12	4379	420.717907064958	4
12	4386	421.226065780362	4
12	4408	424.4	4
12	4418	425.3	8
12	4424	425.703862802372	3
12	4431	426.005115025096	2
12	4435	426.208298519422	1
12	4442	426.708835662943	4
12	4446	426.912595007975	1
12	4470	430.6	6
12	4476	431.1	4
12	4484	431.709475383122	5
12	4494	432.313583321807	5
12	4500	432.719451051857	3
12	4504	432.920007994095	1
12	4527	436.5	5
12	4533	437	4
12	4538	437.30641131568	2
12	4549	438.00723716672	6
12	4555	438.408894970237	3
12	4560	438.718546984409	2
12	4580	442.2	2
12	4583	442.4	1
12	4587	442.608973316068	1
12	4593	443.009183891026	3
12	4599	443.416612954308	3
12	4605	443.818843663775	3
12	4614	444.32357869741	4
12	4619	444.629940431904	2
12	4625	445.038745934897	3
12	4650	448.7	7
12	4653	448.9	1
12	4661	449.503115469238	5
12	4666	449.809107275765	2
12	4675	450.310502554859	4
12	4696	454.3	3
12	4704	455	6
12	4710	455.402815902745	3
12	4722	456.204935953095	7
12	4745	460.5	5
12	4748	460.7	1
12	4755	461.20787817503	4
12	4762	461.713214839323	4
12	4770	462.121483942452	3
12	4779	462.824341688233	6
12	4786	463.327372317726	4
12	4794	463.935673772035	5
12	4804	464.537259274391	5
12	4811	465.04103105742	4
12	4815	465.24469555451	1
12	4836	468.3	3
12	4841	468.7	3
12	4846	469.004209581734	2
12	4856	469.812508384715	7
12	4866	470.414409431548	5
12	4886	474.2	2
12	4892	474.7	4
12	4896	474.907979176763	1
12	4900	475.110039202104	1
12	4906	475.514684896041	3
12	4910	475.717184580457	1
12	4920	476.235897586233	4
12	4945	480.7	7
12	4949	481	2
12	4959	481.809055898331	7
12	4967	482.210385944952	3
12	4974	482.717511766982	4
12	4999	486.7	7
12	5004	487.1	3
12	5011	487.603944048248	4
12	5023	488.413386190151	7
12	5046	492.5	5
12	5051	492.9	3
12	5055	493.107946837856	1
12	5062	493.512972009481	3
12	5068	493.921053105719	3
12	5088	496.2	2
12	5092	496.5	2
12	5097	496.801902451203	2
12	5105	497.405324282108	5
12	5110	497.707421472605	2
12	5119	498.213998029384	4
12	5141	502.4	4
12	5148	503	5
12	5154	503.40008116181	3
12	5164	504.00630347036	5
12	5170	504.407599962292	3
12	5192	508.4	4
12	5198	508.9	4
12	5202	509.102243012557	1
12	5207	509.405588386276	2
12	5212	509.707203895785	2
12	5221	510.216285271134	4
12	5242	514.3	3
12	5250	515	6
12	5256	515.401215389831	3
12	5261	515.701401840168	2
12	5270	516.205778826287	4
12	5277	516.714646596045	4
12	5300	520.5	5
12	5305	520.9	3
12	5311	521.301988679703	3
12	5315	521.511672904793	1
12	5326	522.219329104853	6
12	5334	522.822633821262	5
12	5338	523.02329049476	1
12	5360	526.4	4
12	5365	526.8	3
12	5369	527.000681356573	1
12	5377	527.515305652584	4
12	5401	530.6	6
12	5406	531	3
12	5413	531.500025542001	4
12	5422	532.004508400382	4
12	5443	536.3	3
12	5452	537.1	7
12	5460	537.708745874681	5
12	5468	538.112364033204	3
12	5473	538.413481890682	2
12	5478	538.720700026014	2
12	5502	542.6	6
12	5507	543	3
12	5516	543.700393299842	6
12	5528	544.50164812467	7
12	5533	544.803639699424	2
12	5556	548.5	5
12	5560	548.8	2
12	5565	549.005855469523	1
12	5570	549.311013535918	2
12	5576	549.717434224842	3
12	5584	550.124315704132	3
12	5588	550.325236201988	1
12	5592	550.533307541653	1
12	5614	554.4	4
12	5620	554.9	4
12	5628	555.409806515986	4
12	5638	556.016522901339	5
12	5642	556.226042830253	1
12	5649	556.728861378161	4
12	5654	557.031986209645	2
12	5658	557.238779424854	1
12	5665	557.655444821301	3
12	5684	560.1	1
12	5689	560.5	3
12	5694	560.800964306613	2
12	5701	561.308420044322	4
12	5705	561.509287736428	1
12	5709	561.71065794602	1
12	5717	562.116926821062	3
12	5741	566.6	6
12	5750	567.4	7
12	5756	567.802919968143	3
12	5762	568.012503825274	1
12	5787	572.7	7
12	5791	573	2
12	5797	573.408385669563	3
12	5803	573.815263662149	3
12	5810	574.122723171295	2
12	5816	574.527574437538	3
12	5820	574.727842390435	1
12	5826	575.045012286286	2
12	5848	578.4	4
12	5852	578.7	2
12	5859	579.201299863029	4
12	5866	579.705256389521	4
12	5875	580.206587568867	4
12	5880	580.507111611315	2
12	5885	580.816880360227	2
12	5891	581.225706258269	3
12	5896	581.531230152451	2
12	5918	584.4	4
12	5924	584.9	4
12	5929	585.208674816219	2
12	5935	585.615533361255	3
12	5944	586.118124168025	4
12	5949	586.418672553881	2
12	5957	587.021965574575	5
12	5962	587.331624652819	2
12	5969	587.837165344365	4
12	5991	590.4	4
12	5999	591.1	6
12	6004	591.402522914549	2
12	6009	591.71043795844	2
12	6019	592.316356395272	5
12	6024	592.62176817365	2
12	6046	596.4	4
12	6050	596.7	2
12	6057	597.207566496238	4
12	6067	597.917492226945	6
12	6074	598.21830103715	2
12	6079	598.521253758939	2
12	6101	602.4	4
12	6110	603.2	7
12	6116	603.602566201696	3
12	6124	604.009832870736	3
12	6130	604.419830290034	3
12	6152	608.4	4
12	6155	608.6	1
12	6162	609.107496018789	4
12	6167	609.417483141897	2
12	6172	609.721174850363	2
12	6181	610.225209022864	4
12	6189	610.827388028021	5
12	6199	611.631737330668	7
12	6218	614.1	1
12	6222	614.4	2
12	6226	614.604825346833	1
12	6230	614.809236604487	1
12	6239	615.515038719979	6
12	6261	618.4	4
12	6265	618.7	2
12	6274	619.404460456322	6
12	6281	619.904893713066	4
12	6300	622.1	1
12	6304	622.4	2
12	6312	623.006136998359	5
12	6317	623.307569097957	2
12	6337	626.2	2
12	6344	626.8	5
12	6351	627.300742267917	4
12	6357	627.70581782364	3
12	6365	628.110307667271	3
12	6384	632.1	1
12	6387	632.3	1
12	6393	632.703597487404	3
12	6397	632.907574903447	1
12	6403	633.309207342319	3
12	6408	633.615651958992	2
12	6418	634.217423928393	5
12	6424	634.626698821425	3
12	6447	638.5	5
12	6451	638.8	2
12	6458	639.30662420426	4
12	6465	639.809174252794	4
12	6489	642.6	6
12	6494	643	3
12	6499	643.208776935675	1
12	6505	643.611665087014	3
12	6513	644.021142798664	3
12	6518	644.323096012079	2
12	6541	648.5	5
12	6546	648.9	3
12	6551	649.204776642564	2
12	6557	649.606341809022	3
12	6579	652.4	4
12	6583	652.7	2
12	6587	652.902641024943	1
12	6594	653.409890211466	4
12	6600	653.81960698617	3
12	6608	654.224122156147	3
12	6612	654.431999526219	1
12	6635	658.5	5
12	6643	659.2	6
12	6648	659.509375784478	2
12	6654	659.919166027348	3
12	6663	660.419408992066	4
12	6670	660.928379142482	4
12	6692	664.4	4
12	6699	665	5
12	6704	665.30726736315	2
12	6710	665.710232396765	3
12	6714	665.914685012946	1
12	6738	668.6	6
12	6743	669	3
12	6752	669.707259149018	6
12	6764	670.516999286324	7
12	6768	670.720431447412	1
12	6793	674.7	7
12	6799	675.2	4
12	6804	675.501379429958	2
12	6810	675.816690045032	2
12	6833	678.5	5
12	6838	678.9	3
12	6847	679.60219132113	6
12	6856	680.110151027277	4
12	6861	680.413215173579	2
12	6869	681.017159435488	5
12	6875	681.424503517609	3
12	6898	684.5	5
12	6902	684.8	2
12	6910	685.40638387887	5
12	6920	686.009018916829	5
12	6925	686.318126695259	2
12	6930	686.61877431208	2
12	6938	687.226295316677	5
12	6946	687.734049452562	4
12	6967	690.3	3
12	6973	690.8	4
12	6979	691.207650684211	3
12	6983	691.408300186676	1
12	7005	694.4	4
12	7008	694.6	1
12	7015	695.008182646703	3
12	7020	695.309690284403	2
12	7031	696.016814195178	6
12	7056	700.7	7
12	7059	700.9	1
12	7065	701.309633881598	3
12	7069	701.510527498653	1
12	7074	701.814871842016	2
12	7081	702.021779028127	1
12	7086	702.32870732524	2
12	7091	702.629492842371	2
12	7099	703.231466674778	5
12	7118	706.1	1
12	7123	706.5	3
12	7130	707.003217720361	4
12	7137	707.510662720873	4
12	7157	710.2	2
12	7161	710.5	2
12	7166	710.806296094555	2
12	7171	711.106746490238	2
12	7179	711.716636790366	5
12	7186	712.02406255343	2
12	7205	716.1	1
12	7208	716.3	1
12	7213	716.600945302678	2
12	7219	717.005001736066	3
12	7223	717.209929695179	1
12	7243	720.2	2
12	7247	720.5	2
12	7252	720.802988798217	2
12	7258	721.207970696351	3
12	7262	721.408243707351	1
12	7266	721.612436416063	1
12	7272	721.829094630407	1
12	7280	722.235294914603	3
12	7305	726.7	7
12	7311	727.2	4
12	7315	727.406769412874	1
12	7326	728.112000821669	6
12	7333	728.621927577709	4
12	7357	732.6	6
12	7365	733.3	6
12	7371	733.70268162193	3
12	7378	734.010445649882	2
12	7384	734.4143116809	3
12	7390	734.821683960989	3
12	7397	735.327450190804	4
12	7401	735.530849216273	1
12	7425	738.6	6
12	7433	739.3	6
12	7444	740.002432311205	6
12	7450	740.40609059184	3
12	7475	744.7	7
12	7481	745.1016006248	3
12	7486	745.406262229168	2
12	7490	745.61262593374	1
12	7513	748.5	5
12	7516	748.7	1
12	7522	749.104037332958	3
12	7529	749.512681203623	3
12	7535	749.921217063773	3
12	7545	750.526508952475	5
12	7550	750.835117981115	2
12	7572	754.4	4
12	7577	754.8	3
12	7585	755.403980162292	5
12	7590	755.706071645314	2
12	7601	756.409627089667	6
12	7623	760.4	4
12	7629	760.9	4
12	7635	761.309099108944	3
12	7642	761.812755306967	4
12	7649	762.11831589646	2
12	7673	766.6	6
12	7678	767	3
12	7683	767.306044922319	2
12	7688	767.610581612728	2
12	7693	767.918791816808	2
12	7702	768.424912550424	4
12	7722	772.2	2
12	7727	772.6	3
12	7732	772.900000232907	2
12	7738	773.301052840284	3
12	7744	773.703158135276	3
12	7751	774.007377628997	2
12	7757	774.41017945645	3
12	7767	775.219321787875	7
12	7772	775.527275334739	2
12	7778	775.932491921745	3
12	7785	776.23880053091	2
12	7792	776.745610032911	4
12	7817	780.7	7
12	7823	781.2	4
12	7830	781.70080721511	4
12	7834	781.909066378869	1
12	7843	782.31975797259	3
12	7849	782.729057094242	3
12	7869	786.2	2
12	7877	786.9	6
12	7885	787.417498804041	4
12	7891	787.820982577096	3
12	7915	790.6	6
12	7921	791.1	4
12	7928	791.607806187719	4
12	7937	792.116224740468	4
12	7944	792.616898021496	4
12	7950	793.019378947585	3
12	7972	796.4	4
12	7977	796.8	3
12	7986	797.505341923437	6
12	7995	798.009411248522	4
12	8014	802.1	1
12	8018	802.4	2
12	8024	802.80220387784	3
12	8032	803.407859034959	5
12	8037	803.712755161641	2
12	8060	806.5	5
12	8068	807.2	6
12	8074	807.601858954115	3
12	8083	808.106854338294	4
12	8103	812.2	2
12	8109	812.7	4
12	8115	813.103431797737	3
12	8122	813.609917798092	4
12	8134	814.417193058273	7
12	8154	818.2	2
12	8159	818.6	3
12	8165	819.003419572934	3
12	8170	819.309223658041	2
12	8176	819.71662312798	3
12	8183	820.020032645708	2
12	8188	820.325011720128	2
12	8193	820.629884030338	2
12	8201	821.236089426703	5
12	8223	824.4	4
12	8230	825	5
12	8237	825.505081525079	4
12	8243	825.907700228257	3
12	8252	826.416938673314	4
12	8276	830.6	6
12	8281	831	3
12	8287	831.402129307312	3
12	8293	831.811644588813	3
12	8305	832.618232783087	7
12	8326	836.3	3
12	8332	836.8	4
12	8339	837.303842947613	4
12	8345	837.709054546914	3
12	8356	838.418093678819	6
12	8361	838.726443761885	2
12	8383	842.4	4
12	8388	842.8	3
12	8393	843.10117961429	2
12	8399	843.502637318232	3
12	8405	843.903136736623	3
12	8411	844.110401897023	1
12	8416	844.417575584303	2
12	8437	848.6	6
12	8440	848.8	1
12	8450	849.602351714523	7
12	8459	850.005924695675	3
12	8484	854.7	7
12	8492	855.4	6
12	8497	855.701193993415	2
12	8506	856.208065261156	4
12	8512	856.613610347218	3
12	8532	860.2	2
12	8536	860.5	2
12	8540	860.709745574661	1
12	8546	861.118418972138	3
12	8551	861.420665080011	2
12	8557	861.825078778794	3
12	8566	862.328270723836	4
12	8572	862.732867465347	3
12	8579	863.239464257112	4
12	8587	863.847613166688	5
12	8595	864.248844420757	3
12	8602	864.756903991797	4
12	8611	865.463687199729	6
12	8634	868.5	5
12	8637	868.7	1
12	8643	869.107367040161	3
12	8648	869.407782152506	2
12	8653	869.713075023211	2
12	8665	870.520917630876	7
12	8671	870.927954053665	3
12	8676	871.236563278094	2
12	8685	871.946205498354	6
12	8708	874.5	5
12	8716	875.2	6
12	8724	875.80400827988	5
12	8732	876.208622461528	3
12	8739	876.713255205772	4
12	8746	877.222000325588	4
12	8753	877.726767082116	4
12	8764	878.429340432721	6
12	8786	882.6	6
12	8792	883.1	4
12	8798	883.509862002332	3
12	8804	883.912684327501	3
12	8814	884.425550703943	4
12	8821	884.929109446184	4
12	8829	885.529987019285	5
12	8850	888.3	3
12	8854	888.6	2
12	8859	888.906395075274	2
12	8866	889.40869445227	4
12	8873	889.916614413358	4
12	8881	890.319352650792	3
12	8900	894.1	1
12	8907	894.7	5
12	8913	895.006933453357	2
12	8917	895.21588396812	1
12	8924	895.624160718336	3
12	8945	898.3	3
12	8949	898.6	2
12	8955	899.00493353893	3
12	8966	899.908527687647	8
12	8973	900.216826238768	2
12	8980	900.721421494982	4
12	8987	901.222776565109	4
12	8994	901.732281786405	4
12	9001	902.037471223651	2
12	9007	902.439320446756	3
12	9016	903.13971028663	6
12	9036	906.2	2
12	9042	906.7	4
12	9048	907.104681202494	3
12	9057	907.808363744806	6
12	9077	910.2	2
12	9081	910.5	2
12	9090	911.115447899875	5
12	9095	911.421491792617	2
12	9099	911.627257166156	1
12	9109	912.235530275728	5
12	9133	916.6	6
12	9141	917.3	6
12	9149	917.909239633253	5
12	9158	918.413439247535	4
12	9163	918.721277393197	2
12	9187	922.6	6
12	9192	923	3
12	9197	923.302277035773	2
12	9204	923.803007496769	4
12	9211	924.11280685267	2
12	9218	924.612830004976	4
12	9225	925.119130561847	4
12	9241	928.1	1
12	9245	928.4	2
12	9252	928.811058924821	3
12	9257	929.120844496156	2
12	9279	932.4	4
12	9286	933	5
12	9294	933.605520400439	5
12	9304	934.213736551489	5
12	9312	934.815446501899	5
12	9316	935.024862978638	1
12	9339	938.5	5
12	9343	938.8	2
12	9348	939.109026564992	2
12	9354	939.512106389304	3
12	9374	942.2	2
12	9380	942.7	4
12	9385	943.003848945898	2
12	9390	943.213559683084	1
12	9396	943.61443103613	3
12	9406	944.219472578185	5
12	9412	944.621439831173	3
12	9436	948.6	6
12	9443	949.2	5
12	9455	950.000698826683	7
12	9462	950.506544550352	4
12	9481	954.1	1
12	9488	954.7	5
12	9496	955.300288526471	5
12	9502	955.70833724897	3
12	9514	956.514370037025	7
12	9535	960.3	3
12	9543	961	6
12	9550	961.508428469039	4
12	9560	962.114552862261	5
12	9567	962.615947295162	4
12	9574	963.124436774114	4
12	9579	963.433789986567	2
12	9603	966.6	6
12	9607	966.9	2
12	9612	967.20129875686	2
12	9619	967.70426870068	4
12	9627	968.105878720669	3
12	9650	972.5	5
12	9655	972.9	3
12	9662	973.406924892908	4
12	9669	973.912405848328	4
12	9680	974.620681413413	6
12	9689	975.321244735711	6
12	9700	976.027083200244	6
12	9704	976.237024818411	1
12	9725	980.3	3
12	9729	980.6	2
12	9734	980.903971065294	2
12	9741	981.407688633705	4
12	9745	981.614363703484	1
12	9754	982.124329430862	4
12	9759	982.434057960089	2
12	9763	982.636861789203	1
12	9783	986.2	2
12	9789	986.7	4
12	9796	987.204991332327	4
12	9800	987.410489951248	1
12	9820	990.2	2
12	9825	990.6	3
12	9834	991.309545225242	6
12	9839	991.618813414959	2
12	9844	991.919659783319	2
12	9850	992.126869492584	1
12	9856	992.529609748008	3
12	9878	996.4	4
12	9887	997.2	7
12	9892	997.508315887509	2
12	9897	997.815465989042	2
12	9906	998.323383645633	4
12	9926	1002.2	2
12	9929	1002.4	1
12	9938	1003.107120356194	6
12	9943	1003.416208345037	2
12	9966	1006.5	5
12	9974	1007.2	6
12	9980	1007.600557637766	3
12	9984	1007.803705421818	1
12	9992	1008.20944296521	3
12	10014	1012.4	4
12	10018	1012.7	2
12	10025	1013.205992085358	4
12	10034	1013.91472492698	6
12	10053	1016.1	1
12	10060	1016.7	5
12	10066	1017.104631737431	3
12	10070	1017.312778331323	1
12	10078	1017.922720288243	5
12	10101	1020.5	5
12	10105	1020.8	2
12	10110	1021.102048232795	2
12	10117	1021.611681134907	4
12	10138	1024.3	3
12	10146	1025	6
12	10153	1025.50622270391	4
12	10163	1026.112876495385	5
12	10171	1026.722678276341	5
12	10182	1027.626715496781	8
12	10186	1027.834707356689	1
12	10192	1028.036965910068	1
12	10217	1032.7	7
12	10223	1033.2	4
12	10230	1033.705850570923	4
12	10240	1034.308396654153	5
12	10245	1034.609714660994	2
12	10250	1034.9129288612	2
12	10271	1038.3	3
12	10277	1038.701929748302	3
12	10287	1039.506519793625	7
12	10297	1040.115556225894	5
12	10321	1044.6	6
12	10328	1045.2	5
12	10332	1045.403872341013	1
12	10336	1045.613299559652	1
12	10359	1048.5	5
12	10364	1048.9	3
12	10370	1049.308197227113	3
12	10376	1049.709642450592	3
12	10385	1050.210464536169	4
12	10389	1050.414848265134	1
12	10395	1050.815740331661	3
12	10403	1051.424359115362	5
12	10408	1051.726319916851	2
12	10429	1054.3	3
12	10435	1054.8	4
12	10440	1055.109155617931	2
12	10446	1055.510060457055	3
12	10456	1056.118011894494	5
12	10460	1056.323622135576	1
12	10466	1056.731680317095	3
12	10471	1057.036175523207	2
12	10479	1057.640609487246	5
12	10484	1057.945867990569	2
12	10507	1060.5	5
12	10514	1061.1	5
12	10521	1061.601634350416	4
12	10530	1062.11043676586	4
12	10537	1062.617927507864	4
12	10561	1066.6	6
12	10566	1067	3
12	10573	1067.503425631772	4
12	10583	1068.104283222767	5
12	10591	1068.707103093766	5
12	10598	1069.213302753948	4
12	10602	1069.418822796291	1
12	10609	1069.835749536556	3
12	10630	1072.3	3
12	10637	1072.9	5
12	10645	1073.505766267401	5
12	10657	1074.315460606139	7
12	10664	1074.818667158229	4
12	10671	1075.324901342488	4
12	10693	1078.4	4
12	10696	1078.6	1
12	10702	1079.007553302908	3
12	10709	1079.511961140843	4
12	10715	1079.912972987788	3
12	10737	1082.4	4
12	10743	1082.9	4
12	10750	1083.401823357129	4
12	10762	1084.210643702402	7
12	10785	1088.5	5
12	10789	1088.8	2
12	10794	1089.109465170712	2
12	10801	1089.61300911239	4
12	10806	1089.919471987345	2
12	10814	1090.223102229245	2
12	10820	1090.629315648191	3
12	10841	1094.3	3
12	10846	1094.7	3
12	10857	1095.420369687188	6
12	10861	1095.621011847386	1
12	10884	1098.5	5
12	10890	1099	4
12	10895	1099.309345334589	2
12	10901	1099.713797679869	3
12	10905	1099.913834659908	1
12	10914	1100.417391949206	4
12	10936	1104.4	4
12	10941	1104.8	3
12	10948	1105.304676091778	4
12	10962	1106.307958886681	9
12	10969	1106.809212362339	4
12	10974	1107.115977710332	2
12	10982	1107.721473874424	5
12	10989	1108.028760752151	2
12	11015	1112.8	8
12	11023	1113.5	6
12	11034	1114.208967022651	6
12	11042	1114.810065959335	5
12	11049	1115.315063108025	4
12	11053	1115.523048917735	1
12	11077	1118.6	6
12	11084	1119.2	5
12	11092	1119.80183407102	5
12	11099	1120.103161795318	2
12	11118	1124.1	1
12	11123	1124.5	3
12	11128	1124.808560403701	2
12	11134	1125.217588694294	3
12	11141	1125.725726967612	4
12	11148	1126.031613686326	2
12	11154	1126.43808468642	3
12	11160	1126.847920787451	3
12	11167	1127.353924981437	4
12	11185	1130	0
12	11192	1130.6	5
12	11200	1131.204529259759	5
12	11205	1131.504569116653	2
12	11226	1134.3	3
12	11232	1134.8	4
12	11239	1135.305384490659	4
12	11245	1135.709068243912	3
12	11254	1136.215941627531	4
12	11261	1136.716866918106	4
12	11268	1137.225924857274	4
12	11273	1137.526110476407	2
12	11277	1137.73183649332	1
12	11281	1137.936985894059	1
12	11288	1138.240736612814	2
12	11310	1142.4	4
12	11314	1142.7	2
12	11321	1143.20565055048	4
12	11328	1143.708566242876	4
12	11332	1143.909028858661	1
12	11339	1144.218039158205	2
12	11347	1144.827618734847	5
12	11373	1148.8	8
12	11379	1149.3	4
12	11391	1150.10659901302	7
12	11395	1150.314544361833	1
12	11399	1150.522744478903	1
12	11419	1154.2	2
12	11424	1154.6	3
12	11430	1155.0034858444	3
12	11436	1155.40439161532	3
12	11457	1158.3	3
12	11460	1158.5	1
12	11464	1158.701123922187	1
12	11469	1159.010401072121	2
12	11477	1159.615947359272	5
12	11486	1160.118538976242	4
12	11493	1160.620657164822	4
12	11499	1161.022247825865	3
12	11506	1161.526640093218	4
12	11527	1164.3	3
12	11536	1165.1	7
12	11544	1165.702402062888	5
12	11553	1166.210693533987	4
12	11558	1166.517446722067	2
12	11580	1170.4	4
12	11586	1170.9	4
12	11594	1171.500863687233	5
12	11599	1171.802945324222	2
12	11621	1174.4	4
12	11630	1175.2	7
12	11636	1175.602683303463	3
12	11641	1175.904242447628	2
12	11652	1176.51460745869	5
12	11660	1177.115979767837	5
12	11666	1177.520252464487	3