version 2
run Join-1-20130429-12:49:13-17679
attr configname Join
attr datetime 20130429-12:49:13
attr experiment "\"Join\""
attr inifile omnetpp.ini
attr iterationvars $0=32
attr iterationvars2 "$0=32, $repetition=1"
attr measurement $0=32
attr network Network
attr processid 17679
attr repetition 1
attr replication #1
attr resultdir results
attr runnumber 1
attr seedset 1

vector 1  Network.dyn_peer[0]  lookupHopsSig:vector  ETV
1	311	20.330152551229	3
1	319	20.836701103506	4
1	326	21.344625139298	4
1	333	21.854071086883	4
1	341	22.254369100483	3
1	348	22.760234650871	4
1	369	26.3	3
1	372	26.5	1
1	378	26.904479801829	3
1	384	27.305872565262	3
1	392	27.914793923947	5
1	398	28.122867836852	1
1	404	28.526643680303	3
1	424	32.2	2
1	428	32.5	2
1	433	32.809275085786	2
1	438	33.016365354612	1
1	442	33.222075440233	1
1	450	33.829583561258	5
1	457	34.135961926044	2
1	464	34.643221905918	4
1	469	34.944485054725	2
1	477	35.553318115639	5
1	486	36.060220161535	4
1	494	36.666456883596	5
1	500	37.072934377554	3
1	520	40.2	2
1	525	40.6	3
1	532	41.102699278937	4
1	540	41.706264596105	5
1	547	42.015223458258	2
1	552	42.32275134176	2
1	556	42.527032253662	1
1	562	42.935845671951	3
1	569	43.445494072442	4
1	575	43.845610764385	3
1	581	44.052245179367	1
1	586	44.357226270061	2
1	590	44.563443227259	1
1	612	48.4	4
1	616	48.7	2
1	622	49.100640673269	3
1	629	49.6051397946	4
1	637	50.008692898232	3
1	643	50.323895163783	2
1	648	50.627976531824	2
1	669	54.3	3
1	675	54.8	4
1	680	55.107715949953	2
1	685	55.413452744834	2
1	689	55.616466349839	1
1	693	55.816495053086	1
1	702	56.324222444519	4
1	707	56.630393893683	2
1	713	57.031923191907	3
1	718	57.335189640928	2
1	744	60.2	2
1	747	60.4	1
1	752	60.70470640805	2
1	756	60.913791759504	1
1	761	61.221437685208	2
1	765	61.427671286377	1
1	771	61.83234521323	3
1	778	62.132503425638	2
1	782	62.335193436134	1
1	786	62.544487808476	1
1	791	62.85280473437	2
1	796	63.065226952948	1
1	818	66.4	4
1	823	66.8	3
1	828	67.101371357499	2
1	832	67.308799005769	1
1	845	68.218124960417	8
1	850	68.520044521177	2
1	855	68.827012702803	2
1	861	69.231655817878	3
1	865	69.432315819613	1
1	870	69.734619447654	2
1	878	70.142174078172	3
1	899	74.3	3
1	903	74.6	2
1	908	74.900493042457	2
1	915	75.407608290025	4
1	925	76.012796908779	5
1	932	76.514039618402	4
1	937	76.815762401971	2
1	942	77.019924336173	1
1	962	80.2	2
1	967	80.6	3
1	975	81.202462110698	5
1	980	81.503483463022	2
1	989	82.012083742526	4
1	994	82.314970920852	2
1	998	82.520359231513	1
1	1003	82.822676816147	2
1	1007	83.02820503588	1
1	1014	83.446302024069	3
1	1020	83.849085212495	3
1	1026	84.050326945666	1
1	1033	84.455455007748	3
1	1056	88.5	5
1	1060	88.8	2
1	1068	89.404179265382	5
1	1072	89.609789567579	1
1	1081	90.113467999983	4
1	1103	94.4	4
1	1108	94.8	3
1	1114	95.202329742733	3
1	1120	95.609503658752	3
1	1129	96.117574710664	4
1	1136	96.623704191567	4
1	1143	97.127582798022	4
1	1148	97.431851896258	2
1	1152	97.640487314784	1
1	1156	97.848006044477	1
1	1176	100.2	2
1	1181	100.6	3
1	1188	101.101364552271	4
1	1193	101.404983596766	2
1	1199	101.805582773714	3
1	1207	102.207116158554	3
1	1213	102.608329593064	3
1	1218	102.917701496323	2
1	1222	103.11814701507	1
1	1242	106.2	2
1	1245	106.4	1
1	1251	106.713293179271	2
1	1258	107.213653173627	4
1	1264	107.619250343419	3
1	1269	107.925793581134	2
1	1276	108.225919140953	2
1	1280	108.427216837081	1
1	1298	112.2	2
1	1302	112.5	2
1	1307	112.805681004626	2
1	1311	113.008427456158	1
1	1316	113.310460388568	2
1	1321	113.611200078547	2
1	1330	114.113723336013	4
1	1335	114.415244707585	2
1	1357	118.4	4
1	1360	118.6	1
1	1366	119.005813589296	3
1	1371	119.309524928249	2
1	1377	119.719225128143	3
1	1386	120.219725308987	4
1	1390	120.428193596981	1
1	1396	120.835603152553	3
1	1415	124.1	1
1	1418	124.3	1
1	1423	124.606199557119	2
1	1427	124.816017123469	1
1	1434	125.324306932442	4
1	1440	125.733237144559	3
1	1444	125.934805058504	1
1	1451	126.242398546496	2
1	1456	126.54258430848	2
1	1462	126.949095514133	3
1	1484	130.4	4
1	1488	130.7	2
1	1494	131.106063294594	3
1	1501	131.61368902597	4
1	1520	134.1	1
1	1525	134.5	3
1	1529	134.709886161559	1
1	1534	135.010979522196	2
1	1539	135.316776974433	2
1	1544	135.618237301869	2
1	1548	135.822038713627	1
1	1554	136.027126601013	1
1	1559	136.23479258595	1
1	1565	136.551410367282	2
1	1584	140.3	3
1	1591	140.800663348326	4
1	1596	141.108305764451	2
1	1601	141.314133943413	1
1	1607	141.720431118498	3
1	1614	142.021173702839	2
1	1618	142.223275442961	1
1	1622	142.424229635404	1
1	1627	142.731757190987	2
1	1671	146.1	1
1	1676	146.5	3
1	1682	146.909310129284	3
1	1688	147.315704738101	3
1	1692	147.521470580279	1
1	1701	148.026717283344	4
1	1722	152.3	3
1	1726	152.6	2
1	1731	152.903245175003	2
1	1736	153.20390478589	2
1	1741	153.511184902292	2
1	1750	154.018535561948	4
1	1757	154.523762928196	4
1	1762	154.83148470849	2
1	1767	155.138852823113	2
1	1786	158.1	1
1	1791	158.5	3
1	1797	158.900139515704	3
1	1805	159.504407624142	5
1	1809	159.706751245004	1
1	1818	160.21403681897	4
1	1824	160.620204602516	3
1	1830	161.027767956418	3
1	1834	161.23725811963	1
1	1840	161.641234232399	3
1	1858	164.1	1
1	1861	164.3	1
1	1867	164.709156063555	3
1	1873	165.109236090662	3
1	1878	165.415651752729	2
1	1882	165.62491525984	1
1	1902	168.2	2
1	1907	168.6	3
1	1914	169.106043104894	4
1	1921	169.511779600338	3
1	1927	169.916299616403	3
1	1934	170.225561430672	2
1	1939	170.533644818113	2
1	1945	170.942832152469	3
1	1967	174.4	4
1	1971	174.7	2
1	1976	175.000348477242	2
1	1982	175.402088033898	3
1	1987	175.705633806235	2
1	1995	176.106897101439	3
1	2002	176.607682301133	4
1	2008	177.009033092687	3
1	2029	180.3	3
1	2036	180.9	5
1	2041	181.204595452807	2
1	2045	181.414075154915	1
1	2050	181.723688327487	2
1	2054	181.931959482178	1
1	2060	182.135301334383	1
1	2070	182.93545152418	7
1	2074	183.140172358436	1
1	2094	186.2	2
1	2099	186.6	3
1	2106	187.10130996844	4
1	2111	187.410166867049	2
1	2116	187.718261773956	2
1	2125	188.223605547323	4
1	2131	188.62705291387	3
1	2135	188.829867681526	1
1	2140	189.139268756392	2
1	2161	192.3	3
1	2165	192.6	2
1	2170	192.902414891363	2
1	2177	193.410862235815	4
1	2184	193.911101076744	4
1	2191	194.220154999863	2
1	2195	194.429812267912	1
1	2201	194.834411070545	3
1	2222	198.3	3
1	2226	198.6	2
1	2233	199.105770676329	4
1	2238	199.408627864871	2
1	2259	202.3	3
1	2265	202.8	4
1	2273	203.403136108303	5
1	2280	203.903291441041	4
1	2289	204.412819752285	4
1	2296	204.918754566355	4
1	2303	205.420938498705	4
1	2320	208.2	2
1	2323	208.4	1
1	2329	208.803152448062	3
1	2334	209.105505131329	2
1	2339	209.414434018374	2
1	2349	210.022585018946	5
1	2354	210.328363591114	2
1	2362	210.933802563483	5
1	2369	211.435642665536	4
1	2387	214.2	2
1	2394	214.8	5
1	2401	215.300481367954	4
1	2409	215.901020460699	5
1	2417	216.301179190496	3
1	2425	216.905381127301	5
1	2430	217.205878237451	2
1	2437	217.712668925824	4
1	2445	218.116663078737	3
1	2450	218.425849096518	2
1	2455	218.731618136157	2
1	2460	219.031622156387	2
1	2466	219.440297330934	3
1	2470	219.650064922372	1
1	2493	222.5	5
1	2499	223	4
1	2504	223.300822549082	2
1	2508	223.506869710089	1
1	2513	223.808447270052	2
1	2523	224.416735728148	5
1	2544	228.3	3
1	2547	228.5	1
1	2551	228.703476900164	1
1	2556	229.006332662935	2
1	2561	229.313331503237	2
1	2567	229.719199836612	3
1	2571	229.926174931569	1
1	2588	232.2	2
1	2593	232.507550821828	2
1	2597	232.715444820241	1
1	2601	232.92242539273	1
1	2606	233.231430678201	2
1	2612	233.640075472533	3
1	2617	233.940122105661	2
1	2624	234.243348915667	2
1	2630	234.645990948708	3
1	2637	235.057372609665	3
1	2657	238.2	2
1	2661	238.5	2
1	2670	239.20410811353	6
1	2682	240.004339800833	7
1	2688	240.408354596688	3
1	2708	244.2	2
1	2713	244.6	3
1	2721	245.205614589587	5
1	2725	245.409917062354	1
1	2736	246.021333391154	5
1	2740	246.22554413872	1
1	2747	246.732322147604	4
1	2752	247.039169026684	2
1	2760	247.543893728815	4
1	2780	250.2	2
1	2785	250.6	3
1	2789	250.807976388069	1
1	2796	251.30829595026	4
1	2803	251.726444655105	3
1	2807	251.935483074611	1
1	2815	252.343303994807	3
1	2820	252.649931192955	2
1	2826	253.055107132827	3
1	2831	253.357809215478	2
1	2850	256.2	2
1	2855	256.6	3
1	2860	256.905407195389	2
1	2866	257.310684341839	3
1	2870	257.519283177533	1
1	2889	260.1	1
1	2896	260.412964264574	2
1	2901	260.625111183552	1
1	2907	261.025304371067	3
1	2912	261.330992951027	2
1	2917	261.536320370293	1
1	2922	261.844438085429	2
1	2942	264.2	2
1	2948	264.7	4
1	2953	265.003779241766	2
1	2958	265.310836063194	2
1	2963	265.611632324016	2
1	2968	265.914014433167	2
1	2975	266.223842604333	2
1	2982	266.528915081228	2
1	2987	266.837033668159	2
1	3005	270	0
1	3009	270.3	2
1	3013	270.506603318965	1
1	3019	270.912298263078	3
1	3025	271.314172048873	3
1	3029	271.51578176323	1
1	3049	274.2	2
1	3054	274.6	3
1	3059	274.904751527374	2
1	3065	275.307001926909	3
1	3070	275.615472149735	2
1	3075	275.921397268371	2
1	3085	276.529785062458	5
1	3092	277.032907760836	4
1	3099	277.443463616846	3
1	3120	280.3	3
1	3124	280.6	2
1	3129	280.902186829033	2
1	3133	281.103295742061	1
1	3138	281.40770402528	2
1	3143	281.709633652613	2
1	3150	282.014436434443	2
1	3160	282.722765119202	6
1	3180	286.2	2
1	3184	286.5	2
1	3189	286.802480335591	2
1	3196	287.309211808381	4
1	3200	287.517728527163	1
1	3204	287.718283120377	1
1	3211	288.022441607603	2
1	3216	288.324017403885	2
1	3237	292.3	3
1	3240	292.5	1
1	3245	292.801019672588	2
1	3252	293.309924843771	4
1	3256	293.515083413886	1
1	3261	293.727758558958	1
1	3269	294.129933551146	3
1	3273	294.331460267639	1
1	3278	294.633462357591	2
1	3283	294.939680419867	2
1	3288	295.246484820535	2
1	3294	295.651924921734	3
1	3315	298.3	3
1	3319	298.6	2
1	3323	298.809880646776	1
1	3329	299.217395924973	3
1	3333	299.418842844039	1
1	3338	299.721063335433	2
1	3342	299.921546335553	1
1	3350	300.326739853755	3
1	3356	300.735730493752	3
1	3378	304.4	4
1	3382	304.7	2
1	3387	305.003243624623	2
1	3392	305.307173027297	2
1	3397	305.615902251089	2
1	3405	306.016710088385	3
1	3410	306.325157184479	2
1	3419	307.028678397593	6
1	3423	307.234062803521	1
1	3445	310.4	4
1	3450	310.8	3
1	3456	311.202002714057	3
1	3460	311.410266783991	1
1	3467	311.916517899887	4
1	3474	312.225059054334	2
1	3482	312.828273572654	5
1	3489	313.329261006682	4
1	3495	313.729734188971	3
1	3515	316.2	2
1	3518	316.4	1
1	3522	316.606102408166	1
1	3528	317.010165451175	3
1	3535	317.425204954078	3
1	3539	317.625550666295	1
1	3544	317.931404258426	2
1	3550	318.139106645717	1
1	3557	318.648802290784	4
1	3564	319.15611957678	4
1	3585	322.3	3
1	3588	322.5	1
1	3594	322.902264616137	3
1	3599	323.208587649293	2
1	3603	323.415310994887	1
1	3607	323.618763969507	1
1	3615	324.026553191925	3
1	3624	324.734519078697	6
1	3645	328.3	3
1	3650	328.7	3
1	3656	329.10045661167	3
1	3663	329.610361329479	4
1	3671	330.014822324534	3
1	3676	330.317824807908	2
1	3697	334.3	3
1	3703	334.8	4
1	3709	335.205540321534	3
1	3713	335.410955915303	1
1	3734	338.3	3
1	3738	338.6	2
1	3744	339.002030578437	3
1	3751	339.511969708625	4
1	3755	339.721897974299	1
1	3776	342.3	3
1	3781	342.7	3
1	3786	343.001354279029	2
1	3791	343.305935787812	2
1	3796	343.609492839518	2
1	3800	343.818365920047	1
1	3806	344.018628105722	1
1	3825	348.1	1
1	3829	348.4	2
1	3834	348.70917498297	2
1	3839	349.009478979897	2
1	3846	349.512620445151	4
1	3851	349.816285876122	2
1	3859	350.223547260491	3
1	3881	354.4	4
1	3885	354.7	2
1	3889	354.906909421412	1
1	3894	355.211785165138	2
1	3900	355.613671533101	3
1	3906	355.926504676503	2
1	3913	356.232059951874	2
1	3919	356.450472055968	1
1	3925	356.855339483093	3
1	3930	357.157378545352	2
1	3937	357.562614333363	3
1	3943	357.964868238122	3
1	3965	360.4	4
1	3968	360.6	1
1	3974	361.004569753322	3
1	3979	361.306574500933	2
1	3985	361.707143795272	3
1	3989	361.915942326319	1
1	3996	362.221027488718	2
1	4017	366.3	3
1	4021	366.6	2
1	4026	366.903028713208	2
1	4032	367.306002027054	3
1	4036	367.510892100063	1
1	4055	370.1	1
1	4059	370.4	2
1	4064	370.610095300718	1
1	4069	370.913905461965	2
1	4074	371.218935427289	2
1	4078	371.426434010405	1
1	4084	371.834309820477	3
1	4092	372.053866771971	1
1	4101	372.756062012861	6
1	4106	372.973037665712	1
1	4110	373.181077274672	1
1	4128	376	0
1	4131	376.2	1
1	4136	376.501324296339	2
1	4141	376.805974311161	2
1	4148	377.309695187898	4
1	4152	377.519170677361	1
1	4161	378.019999231977	4
1	4168	378.522213559333	4
1	4173	378.82727082154	2
1	4178	379.129941541696	2
1	4184	379.437700349901	2
1	4202	382.2	2
1	4206	382.5	2
1	4211	382.7144979427	1
1	4217	383.022985690255	2
1	4223	383.426863968144	3
1	4229	383.64607931868	1
1	4234	383.953436639856	2
1	4243	384.274416065345	2
1	4248	384.577190120002	2
1	4267	388.1	1
1	4272	388.5	3
1	4277	388.806264961587	2
1	4282	389.10637776476	2
1	4288	389.507811995245	3
1	4294	389.915165532194	3
1	4300	390.115949401194	1
1	4319	394.1	1
1	4327	394.610425436014	4
1	4332	394.916160645803	2
1	4337	395.217294065052	2
1	4343	395.620904239759	3
1	4365	398.4	4
1	4369	398.7	2
1	4374	399.003948504782	2
1	4378	399.207819859056	1
1	4385	399.715289244	4
1	4393	400.123651044056	3
1	4399	400.528175092252	3
1	4421	404.4	4
1	4425	404.7	2
1	4429	404.906709320126	1
1	4433	405.111449359394	1
1	4438	405.412311924837	2
1	4443	405.720343558184	2
1	4447	405.930258063872	1
1	4454	406.234281989031	2
1	4458	406.442076990911	1
1	4464	406.761067500413	2
1	4470	407.161438110846	3
1	4475	407.467975008401	2
1	4494	410.1	1
1	4498	410.4	2
1	4504	410.806185135685	3
1	4508	411.013066296695	1
1	4512	411.213169939279	1
1	4518	411.619258070167	3
1	4523	411.924644343012	2
1	4529	412.125706455865	1
1	4533	412.32573663548	1
1	4554	416.3	3
1	4558	416.6	2
1	4563	416.90890166304	2
1	4568	417.216861332437	2
1	4573	417.521967325504	2
1	4578	417.831120068684	2
1	4587	418.338277148021	4
1	4604	422.2	2
1	4610	422.7	4
1	4617	423.201876316696	4
1	4622	423.510254355372	2
1	4627	423.816479314357	2
1	4634	424.123439368296	2
1	4638	424.332497463277	1
1	4656	428	0
1	4661	428.4	3
1	4668	428.907453215117	4
1	4675	429.41477121926	4
1	4679	429.617416712384	1
1	4699	432.2	2
1	4705	432.7	4
1	4710	433.00249850678	2
1	4714	433.208889096521	1
1	4720	433.610623398199	3
1	4725	433.915520394292	2
1	4731	434.116714964773	1
1	4737	434.525608712256	3
1	4743	434.74394784443	1
1	4765	438.4	4
1	4768	438.6	1
1	4773	438.905855786588	2
1	4777	439.108961659117	1
1	4781	439.311777487011	1
1	4786	439.531518201494	1
1	4797	440.234184588511	6
1	4818	444.3	3
1	4821	444.5	1
1	4825	444.707723153328	1
1	4829	444.916830881686	1
1	4834	445.218073682089	2
1	4839	445.521739248517	2
1	4845	445.930949427133	3
1	4862	448.2	2
1	4867	448.6	3
1	4872	448.90938886478	2
1	4878	449.31781372829	3
1	4883	449.618123218329	2
1	4891	450.021178934469	3
1	4895	450.228347721099	1
1	4900	450.53319093665	2
1	4906	450.942101126158	3
1	4912	451.348601662033	3
1	4916	451.54887453428	1
1	4937	454.3	3
1	4940	454.5	1
1	4947	455.008869204598	4
1	4952	455.317464097791	2
1	4958	455.726332517034	3
1	4965	456.031917682507	2
1	4971	456.437069849111	3
1	4975	456.643972127844	1
1	4980	456.94664300335	2
1	4999	460.3	3
1	5004	460.7	3
1	5008	460.902900968557	1
1	5014	461.306235361199	3
1	5019	461.606328846979	2
1	5041	464.4	4
1	5046	464.8	3
1	5051	465.108196046575	2
1	5058	465.613368722558	4
1	5063	465.921757101071	2
1	5070	466.230921159581	2
1	5074	466.436149119915	1
1	5078	466.640413867792	1
1	5083	466.942033246786	2
1	5090	467.444507207139	4
1	5097	467.953996977298	4
1	5118	470.3	3
1	5123	470.7	3
1	5130	471.209368683791	4
1	5137	471.715112126015	4
1	5144	472.023555425528	2
1	5150	472.427343894458	3
1	5171	476.3	3
1	5174	476.5	1
1	5179	476.800874822121	2
1	5186	477.110779049085	2
1	5192	477.5139228153	3
1	5198	477.91543437568	3
1	5204	478.11718203444	1
1	5208	478.325746765073	1
1	5214	478.731817706747	3
1	5218	478.932837783194	1
1	5225	479.436973647321	4
1	5230	479.746504857362	2
1	5234	479.95466837247	1
1	5241	480.256336510655	2
1	5261	484.2	2
1	5266	484.502403556185	2
1	5273	485.011196273863	4
1	5277	485.216938464736	1
1	5282	485.521722968182	2
1	5287	485.825212844136	2
1	5307	488.2	2
1	5312	488.6	3
1	5321	489.300516412348	6
1	5326	489.607157437963	2
1	5334	490.008544584164	3
1	5340	490.413517085053	3
1	5345	490.72130346911	2
1	5350	491.026493628991	2
1	5355	491.328274162548	2
1	5360	491.630021364014	2
1	5365	491.935855749324	2
1	5384	494.2	2
1	5388	494.5	2
1	5392	494.708168351124	1
1	5396	494.912694794314	1
1	5402	495.318638520605	3
1	5406	495.520198445567	1
1	5410	495.729958336255	1
1	5417	496.03300044451	2
1	5423	496.442016070348	3
1	5443	500.2	2
1	5446	500.4	1
1	5454	500.908046724176	4
1	5460	501.309981329887	3
1	5464	501.510635047057	1
1	5483	504.1	1
1	5487	504.4	2
1	5493	504.712951989422	2
1	5500	505.120676622375	3
1	5505	505.430228724093	2
1	5511	505.839956599997	3
1	5519	506.244114521149	3
1	5526	506.751789269892	4
1	5531	507.053748185515	2
1	5536	507.361990563929	2
1	5543	507.863650848727	4
1	5550	508.169977006915	2
1	5572	512.4	4
1	5575	512.6	1
1	5581	513.003285528246	3
1	5585	513.203416891793	1
1	5589	513.413221010129	1
1	5608	516.1	1
1	5613	516.5	3
1	5617	516.707300912074	1
1	5622	517.013153734167	2
1	5626	517.217840017582	1
1	5630	517.422237898247	1
1	5636	517.82681194742	3
1	5645	518.332947489153	4
1	5652	518.637632718265	2
1	5656	518.838751715849	1
1	5661	519.146334498483	2
1	5665	519.349464644876	1
1	5685	522.2	2
1	5690	522.6	3
1	5694	522.802202342292	1
1	5700	523.206831543151	3
1	5705	523.510218623398	2
1	5725	526.2	2
1	5733	526.9	6
1	5739	527.30253274274	3
1	5744	527.607171320528	2
1	5753	528.115873447122	4
1	5759	528.517121672579	3
1	5765	528.918517985127	3
1	5771	529.321642998957	3
1	5775	529.521823708526	1
1	5795	532.2	2
1	5802	532.8	5
1	5808	533.207701499559	3
1	5816	533.811256582347	5
1	5825	534.312559940175	4
1	5831	534.716527931276	3
1	5837	535.116757082527	3
1	5844	535.625386199746	4
1	5849	535.930577022912	2
1	5855	536.139899594652	1
1	5878	540.5	5
1	5882	540.8	2
1	5891	541.506724698424	6
1	5896	541.81370406964	2
1	5903	542.120572151878	2
1	5908	542.428108256707	2
1	5913	542.732600724244	2
1	5918	543.038378467793	2
1	5923	543.347526354655	2
1	5929	543.74887241618	3
1	5949	546.2	2
1	5952	546.4	1
1	5957	546.704844284439	2
1	5961	546.908199397339	1
1	5965	547.11679257543	1
1	5985	550.2	2
1	5993	550.9	6
1	5998	551.204581009517	2
1	6002	551.411317993707	1
1	6006	551.61944654616	1
1	6015	552.125231541976	4
1	6021	552.527714154225	3
1	6026	552.830455351987	2
1	6034	553.434683009291	5
1	6040	553.840288309136	3
1	6049	554.34834442236	4
1	6054	554.655061720188	2
1	6061	555.160542950667	4
1	6082	558.3	3
1	6086	558.6	2
1	6092	559.001950374911	3
1	6096	559.204419579766	1
1	6102	559.61189278789	3
1	6110	560.014391484525	3
1	6118	560.617287511982	5
1	6125	561.123445145567	4
1	6129	561.331183138436	1
1	6134	561.633802473484	2
1	6142	562.038079846787	3
1	6162	566.2	2
1	6166	566.5	2
1	6172	566.900360896906	3
1	6177	567.202497829228	2
1	6182	567.510933894127	2
1	6191	568.018606739249	4
1	6210	572.1	1
1	6215	572.5	3
1	6219	572.700574472385	1
1	6224	573.008019203915	2
1	6230	573.409650098151	3
1	6234	573.611864065146	1
1	6243	574.015831129432	3
1	6264	578.3	3
1	6270	578.8	4
1	6274	579.004932682672	1
1	6280	579.316042938573	2
1	6285	579.61630921745	2
1	6289	579.81815677166	1
1	6308	582.1	1
1	6311	582.3	1
1	6316	582.607997765371	2
1	6320	582.814898519003	1
1	6328	583.415703814289	5
1	6334	583.817384677597	3
1	6340	584.01970170069	1
1	6344	584.226559236554	1
1	6364	588.2	2
1	6368	588.5	2
1	6373	588.807113145198	2
1	6378	589.112290085667	2
1	6383	589.417828931814	2
1	6388	589.718523777025	2
1	6395	590.02156895688	2
1	6400	590.326307327914	2
1	6404	590.534655868377	1
1	6409	590.839503306223	2
1	6415	591.243856365802	3
1	6431	594	0
1	6436	594.4	3
1	6441	594.700282695025	2
1	6449	595.305063008141	5
1	6454	595.605742694562	2
1	6459	595.907004795601	2
1	6468	596.320524063254	3
1	6473	596.628252407577	2
1	6479	597.029850744052	3
1	6499	600.2	2
1	6504	600.6	3
1	6509	600.905326772772	2
1	6514	601.209368791815	2
1	6518	601.413832895359	1
1	6524	601.718588602762	2
1	6532	602.125881791981	3
1	6538	602.431209894595	2
1	6556	606.2	2
1	6560	606.5	2
1	6564	606.709032311104	1
1	6570	607.111139635012	3
1	6575	607.419953919992	2
1	6581	607.825963462482	3
1	6589	608.234093019964	3
1	6593	608.441582303644	1
1	6614	612.3	3
1	6619	612.7	3
1	6627	613.309282669525	5
1	6633	613.712237492427	3
1	6640	614.012686770583	2
1	6644	614.220002835291	1
1	6653	614.833057246308	5
1	6659	615.233817422119	3
1	6665	615.638073035978	3
1	6670	615.947327297668	2
1	6676	616.155149115815	1
1	6697	620.3	3
1	6701	620.6	2
1	6708	621.10749122367	4
1	6714	621.509413723875	3
1	6720	621.914072028353	3
1	6729	622.418022997042	4
1	6735	622.818846258011	3
1	6754	626.1	1
1	6758	626.4	2
1	6765	626.817970948537	3
1	6771	627.221672490277	3
1	6778	627.634189178184	3
1	6787	628.138666050433	4
1	6806	632.1	1
1	6810	632.4	2
1	6814	632.602064540581	1
1	6820	632.910031607853	2
1	6826	633.318505048173	3
1	6832	633.723584265146	3
1	6852	636.2	2
1	6856	636.5	2
1	6862	636.90900272953	3
1	6867	637.210083382792	2
1	6874	637.719016546179	4
1	6881	638.02689206453	2
1	6885	638.232895862862	1
1	6892	638.733961701606	4
1	6912	642.2	2
1	6916	642.5	2
1	6921	642.809807587715	2
1	6928	643.122845723916	2
1	6935	643.539916359148	3
1	6944	644.040610318786	4
1	6951	644.54250637825	4
1	6967	648.1	1
1	6971	648.4	2
1	6977	648.803866325342	3
1	6981	649.005365640241	1
1	6986	649.307978243913	2
1	6992	649.71348911566	3
1	6999	650.017982271626	2
1	7004	650.320148443701	2
1	7012	650.925624358195	5
1	7034	654.4	4
1	7041	655	5
1	7045	655.201765490323	1
1	7050	655.504378132389	2
1	7055	655.722818353834	1
1	7062	656.023016104825	2
1	7068	656.432296681204	3
1	7072	656.64089905116	1
1	7091	660.1	1
1	7096	660.5	3
1	7100	660.706491344582	1
1	7104	660.914078813918	1
1	7109	661.216166721327	2
1	7115	661.530780726086	2
1	7120	661.840653987782	2
1	7126	662.050431166327	1
1	7145	666.1	1
1	7151	666.509339026121	3
1	7157	666.911952007744	3
1	7161	667.120530978781	1
1	7166	667.330108033585	1
1	7172	667.738422441716	3
1	7179	668.043589329533	2
1	7183	668.248857470473	1
1	7203	672.2	2
1	7208	672.6	3
1	7214	673.003748759427	3
1	7222	673.607982494982	5
1	7231	674.115685720266	4
1	7251	678.2	2
1	7258	678.8	5
1	7266	679.405975979235	5
1	7271	679.709994638498	2
1	7275	679.912750477372	1
1	7284	680.419723557615	4
1	7290	680.820341958409	3
1	7310	684.2	2
1	7316	684.7	4
1	7323	685.20896416604	4
1	7328	685.516196538339	2
1	7332	685.718589695429	1
1	7352	688.2	2
1	7356	688.5	2
1	7360	688.703564538608	1
1	7365	689.006585505925	2
1	7372	689.515685341054	4
1	7376	689.724515626147	1
1	7384	690.126302289919	3
1	7391	690.631733954221	4
1	7412	694.3	3
1	7415	694.5	1
1	7422	694.810419699507	2
1	7426	695.016558410335	1
1	7434	695.429700299728	3
1	7453	698.1	1
1	7458	698.5	3
1	7463	698.808281353616	2
1	7467	699.01421979342	1
1	7475	699.524469079557	4
1	7482	699.93143060995	3
1	7503	702.3	3
1	7506	702.5	1
1	7510	702.704672458204	1
1	7514	702.913721559126	1
1	7519	703.216869215994	2
1	7523	703.420919094999	1
1	7528	703.727187651016	2
1	7546	706.3	3
1	7552	706.8	4
1	7558	707.204501379381	3
1	7564	707.612345953571	3
1	7572	708.016975917938	3
1	7577	708.321545574966	2
1	7598	712.3	3
1	7601	712.5	1
1	7605	712.701254960843	1
1	7610	713.005584775951	2
1	7614	713.206896915064	1
1	7634	716.2	2
1	7639	716.6	3
1	7644	716.90766774584	2
1	7649	717.217538762301	2
1	7655	717.622585768381	3
1	7659	717.831974261829	1
1	7669	718.436954818079	5
1	7677	719.040775173655	5
1	7694	722.1	1
1	7697	722.3	1
1	7701	722.505732722701	1
1	7707	722.913860699848	3
1	7713	723.323288325561	3
1	7718	723.632468716256	2
1	7723	723.937647316761	2
1	7731	724.338523912793	3
1	7737	724.740468570897	3
1	7758	728.3	3
1	7762	728.6	2
1	7770	729.209628711487	5
1	7775	729.516635971877	2
1	7780	729.822307285435	2
1	7788	730.137182048092	2
1	7792	730.346670410927	1
1	7813	734.3	3
1	7817	734.6	2
1	7822	734.901801164615	2
1	7828	735.208073835231	2
1	7834	735.617967235818	3
1	7839	735.92354802125	2
1	7848	736.424325166962	4
1	7856	737.024950258296	5
1	7863	737.528171553401	4
1	7868	737.832562747959	2
1	7889	740.3	3
1	7894	740.7	3
1	7898	740.908227300094	1
1	7906	741.509078898855	5
1	7915	742.01769101526	4
1	7919	742.221978503094	1
1	7923	742.426376811257	1
1	7931	743.032251458561	5
1	7951	746.2	2
1	7956	746.6	3
1	7961	746.904778620013	2
1	7966	747.210102806581	2
1	7971	747.51144619263	2
1	7981	748.119810679396	5
1	8002	752.3	3
1	8005	752.5	1
1	8009	752.704915451495	1
1	8013	752.907362373752	1
1	8019	753.315929398705	3
1	8024	753.622474858591	2
1	8029	753.926660638812	2
1	8035	754.132748466666	1
1	8041	754.344243699703	1
1	8060	758.1	1
1	8065	758.5	3
1	8070	758.808929008929	2
1	8075	759.118578898142	2
1	8083	759.727972210996	5
1	8090	760.030914367883	2
1	8095	760.333095369752	2
1	8099	760.534129965343	1
1	8103	760.739748284391	1
1	8107	760.94119143842	1
1	8112	761.242532973668	2
1	8133	764.3	3
1	8138	764.7	3
1	8143	765.005644983202	2
1	8148	765.305670448555	2
1	8154	765.518827066969	1
1	8160	765.921003177936	3
1	8168	766.328921388326	3
1	8174	766.737969846067	3
1	8181	767.244927488265	4
1	8188	767.653338687808	3
1	8208	770.2	2
1	8212	770.5	2
1	8219	771.006515451308	4
1	8225	771.408313394304	3
1	8230	771.709750461041	2
1	8239	772.212968660693	4
1	8259	776.2	2
1	8265	776.7	4
1	8269	776.909175048607	1
1	8275	777.311589236072	3
1	8279	777.520074709133	1
1	8285	777.924143929105	3
1	8293	778.239148870275	2
1	8299	778.640116610481	3
1	8319	782.2	2
1	8323	782.5	2
1	8329	782.906363061273	3
1	8337	783.511611782966	5
1	8341	783.715362693173	1
1	8361	786.2	2
1	8367	786.7	4
1	8371	786.904569781303	1
1	8378	787.407090112098	4
1	8384	787.811050144244	3
1	8390	788.018978701013	1
1	8410	792.2	2
1	8415	792.6	3
1	8423	793.206137196738	5
1	8428	793.509439966147	2
1	8432	793.709751932047	1
1	8439	794.016725620807	2
1	8445	794.417352722657	3
1	8465	798.2	2
1	8470	798.6	3
1	8476	799.002952887953	3
1	8482	799.403834954955	3
1	8488	799.80927616878	3
1	8495	800.117886600206	2
1	8502	800.622765815176	4
1	8520	804.3	3
1	8524	804.6	2
1	8529	804.908105697627	2
1	8534	805.209949542006	2
1	8538	805.41928102803	1
1	8543	805.725134512624	2
1	8547	805.927604446159	1
1	8554	806.236586496633	2
1	8559	806.542132052691	2
1	8564	806.846593224897	2
1	8569	807.152198019974	2
1	8588	810.3	3
1	8595	810.9	5
1	8602	811.406088311686	4
1	8607	811.715446946639	2
1	8614	812.022271483714	2
1	8635	816.3	3
1	8639	816.502557082257	1
1	8643	816.70672432186	1
1	8651	817.311049845129	5
1	8659	817.920434664039	5
1	8666	818.223376189498	2
1	8686	822.2	2
1	8691	822.6	3
1	8698	823.101747363123	4
1	8705	823.610815281967	4
1	8713	824.014234810319	3
1	8721	824.621951521238	5
1	8730	825.229046174565	5
1	8750	828.2	2
1	8754	828.5	2
1	8762	829.106884973165	5
1	8768	829.514376948205	3
1	8773	829.816910908568	2
1	8779	830.017240516537	1
1	8785	830.424164117782	3
1	8795	831.036475327245	5
1	8815	834.2	2
1	8820	834.6	3
1	8826	835.003553079087	3
1	8831	835.309933855195	2
1	8836	835.610510403294	2
1	8841	835.819188863433	1
1	8848	836.12075696537	2
1	8854	836.527830131374	3
1	8860	836.931716295644	3
1	8880	840.2	2
1	8883	840.4	1
1	8888	840.701699407163	2
1	8895	841.207268783631	4
1	8900	841.508763251578	2
1	8909	842.016867721042	4
1	8914	842.322009471483	2
1	8921	842.8233729226	4
1	8942	846.5	5
1	8949	847.1	5
1	8955	847.504628391172	3
1	8960	847.81405384065	2
1	8967	848.118343164023	2
1	8973	848.521735470724	3
1	8977	848.72670836258	1
1	8983	849.133639233417	3
1	8988	849.435254341072	2
1	9008	852.3	3
1	9011	852.5	1
1	9015	852.708464963661	1
1	9019	852.91691023307	1
1	9024	853.222460689671	2
1	9031	853.730464012101	4
1	9052	856.3	3
1	9059	856.9	5
1	9065	857.300079778886	3
1	9069	857.501534434996	1
1	9091	860.4	4
1	9095	860.7	2
1	9102	861.201905394247	4
1	9106	861.410501903774	1
1	9111	861.719112820486	2
1	9121	862.233966146688	4
1	9127	862.640300886779	3
1	9132	862.947513133507	2
1	9153	866.3	3
1	9157	866.6	2
1	9162	866.909865727741	2
1	9166	867.119693688016	1
1	9175	867.829176679764	6
1	9182	868.135259775987	2
1	9188	868.541710632394	3
1	9209	872.3	3
1	9214	872.605389853678	2
1	9223	873.311046474784	6
1	9229	873.716659737297	3
1	9236	874.021346395642	2
1	9242	874.430567496484	3
1	9247	874.734847871186	2
1	9252	874.947349574751	1
1	9272	878.2	2
1	9277	878.6	3
1	9282	878.90491717719	2
1	9289	879.410710782592	4
1	9293	879.614826253349	1
1	9301	880.024073295194	3
1	9306	880.327251947663	2
1	9310	880.527899347468	1
1	9330	884.2	2
1	9336	884.7	4
1	9341	884.903127921614	1
1	9348	885.316843817064	3
1	9353	885.624362674241	2
1	9373	888.2	2
1	9377	888.5	2
1	9381	888.700479925607	1
1	9387	888.918834440281	1
1	9392	889.219444807089	2
1	9398	889.626090234588	3
1	9409	890.333125427952	6
1	9428	894.1	1
1	9432	894.4	2
1	9437	894.700909879733	2
1	9442	895.002791822363	2
1	9447	895.302830260529	2
1	9451	895.510300308808	1
1	9455	895.719874585668	1
1	9475	898.2	2
1	9480	898.6	3
1	9488	899.204879009372	5
1	9494	899.610336557682	3
1	9502	900.015593252118	3
1	9506	900.220591361139	1
1	9510	900.420876269646	1
1	9527	904.2	2
1	9531	904.5	2
1	9535	904.700648719852	1
1	9542	905.202940770182	4
1	9548	905.507372794559	2
1	9553	905.817093831666	2
1	9560	906.120918506283	2
1	9565	906.422406902775	2
1	9571	906.827104793133	3
1	9576	907.133101715178	2
1	9584	907.647014877991	4
1	9604	910.3	3
1	9607	910.5	1
1	9612	910.805527675903	2
1	9619	911.314737148032	4
1	9623	911.523628458907	1
1	9628	911.830370177861	2
1	9648	914.2	2
1	9652	914.40911019237	1
1	9657	914.714220650254	2
1	9663	915.114655992877	3
1	9668	915.424373193114	2
1	9672	915.633880727445	1
1	9691	918.1	1
1	9696	918.5	3
1	9700	918.708465125744	1
1	9705	919.018415648906	2
1	9709	919.22787044034	1
1	9714	919.528454066804	2
1	9719	919.836114097645	2
1	9726	920.141281161266	2
1	9746	924.2	2
1	9750	924.5	2
1	9756	924.900022968333	3
1	9760	925.101827653457	1
1	9767	925.604356373331	4
1	9776	926.110665965342	4
1	9782	926.513968651421	3
1	9788	926.923777888217	3
1	9793	927.22478440569	2
1	9799	927.539984725454	2
1	9819	930.2	2
1	9822	930.4	1
1	9827	930.7077746875	2
1	9832	931.009938968068	2
1	9840	931.614887398904	5
1	9849	932.024927698209	3
1	9855	932.328670973367	2
1	9863	932.932344599293	5