version 2
run Join-11-20130429-12:49:28-17679
attr configname Join
attr datetime 20130429-12:49:28
attr experiment "\"Join\""
attr inifile omnetpp.ini
attr iterationvars $0=64
attr iterationvars2 "$0=64, $repetition=1"
attr measurement $0=64
attr network Network
attr processid 17679
attr repetition 1
attr replication #1
attr resultdir results
attr runnumber 11
attr seedset 11

vector 11  Network.dyn_peer[0]  lookupHopsSig:vector  ETV
11	393	20.6	6
11	398	21	3
11	405	21.504329359962	4
11	415	22.110581608346	5
11	420	22.415816968112	2
11	426	22.818510003553	3
11	434	23.421561213042	5
11	445	24.128128301107	6
11	451	24.537370646986	3
11	456	24.843640625149	2
11	461	25.151168750471	2
11	482	28.3	3
11	486	28.6	2
11	491	28.909111216629	2
11	495	29.116922528093	1
11	501	29.52107756479	3
11	506	29.825667780684	2
11	516	30.428528227386	5
11	545	34.5	5
11	551	35	4
11	557	35.407239112625	3
11	563	35.72160240196	2
11	570	36.030020407944	2
11	576	36.43499537148	3
11	582	36.836536954929	3
11	601	40.1	1
11	606	40.5	3
11	615	41.205506394712	6
11	621	41.612889884239	3
11	629	42.022601636314	3
11	648	46.1	1
11	652	46.4	2
11	659	46.904294660696	4
11	668	47.605565143247	6
11	677	48.11509237102	4
11	700	52.5	5
11	707	53.1	5
11	711	53.309117954869	1
11	716	53.612119764568	2
11	725	54.115256556136	4
11	730	54.41776151992	2
11	737	54.927069179162	4
11	744	55.431192252312	4
11	751	55.93357571331	4
11	772	58.5	5
11	778	59	4
11	785	59.504909047184	4
11	791	59.910863914072	3
11	798	60.217345818275	2
11	805	60.726667304484	4
11	828	64.5	5
11	837	65.3	7
11	841	65.50080833225	1
11	847	65.907937961481	3
11	868	68.3	3
11	875	68.9	5
11	883	69.502570797305	5
11	888	69.803935642454	2
11	896	70.206699092297	3
11	901	70.508148286847	2
11	908	71.017346346363	4
11	917	71.726642397531	6
11	928	72.430495097805	6
11	938	73.240055680498	7
11	943	73.540417532317	2
11	955	74.350076841282	7
11	962	74.853676691163	4
11	985	78.5	5
11	991	79	4
11	998	79.505539272725	4
11	1004	79.905892766864	3
11	1026	82.4	4
11	1031	82.8	3
11	1036	83.100529328505	2
11	1041	83.407976797085	2
11	1046	83.710305625425	2
11	1066	86.2	2
11	1076	87.000125000611	7
11	1080	87.208589970387	1
11	1085	87.508905834503	2
11	1090	87.818796646127	2
11	1097	88.121944466587	2
11	1119	92.4	4
11	1125	92.9	4
11	1129	93.109796933035	1
11	1135	93.519590737304	3
11	1144	94.027262900174	4
11	1148	94.233318058308	1
11	1168	98.2	2
11	1174	98.7	4
11	1182	99.30915503008	5
11	1189	99.811027998418	4
11	1197	100.214586299158	3
11	1205	100.823318469131	5
11	1209	101.023850267422	1
11	1213	101.231791725637	1
11	1233	104.2	2
11	1237	104.5	2
11	1242	104.806815590462	2
11	1247	105.109306356433	2
11	1254	105.618785856758	4
11	1259	105.921294521641	2
11	1267	106.324900320482	3
11	1287	110.2	2
11	1290	110.4	1
11	1295	110.704308714671	2
11	1300	111.012625314097	2
11	1305	111.318149296212	2
11	1333	114.4	4
11	1339	114.9	4
11	1346	115.40239628005	4
11	1353	115.911511608494	4
11	1360	116.218418793474	2
11	1379	120.1	1
11	1384	120.5	3
11	1389	120.801759034828	2
11	1397	121.408404510195	5
11	1403	121.81801838789	3
11	1410	122.122540558544	2
11	1414	122.325450938262	1
11	1418	122.534191355418	1
11	1440	126.4	4
11	1446	126.802990902322	3
11	1452	127.204758772891	3
11	1458	127.611493674331	3
11	1466	128.020698855531	3
11	1474	128.62318305239	5
11	1480	129.026594622101	3
11	1487	129.534113293791	4
11	1497	130.13614159361	5
11	1503	130.544934154232	3
11	1523	134.2	2
11	1531	134.9	6
11	1535	135.10501534885	1
11	1543	135.705292675415	5
11	1552	136.212476487198	4
11	1558	136.616703086957	3
11	1564	137.021838795235	3
11	1587	140.5	5
11	1592	140.9	3
11	1599	141.406879362468	4
11	1609	142.007518676984	5
11	1615	142.413201735323	3
11	1622	142.917564694011	4
11	1629	143.423601959483	4
11	1639	144.028845367746	5
11	1643	144.234841868793	1
11	1648	144.540710728507	2
11	1670	148.4	4
11	1679	149.2	7
11	1686	149.708613926852	4
11	1694	150.112818259817	3
11	1701	150.616337975728	4
11	1707	151.022881302855	3
11	1727	154.2	2
11	1734	154.707932820685	4
11	1741	155.11081024786	3
11	1745	155.316524273925	1
11	1749	155.52424965144	1
11	1754	155.735805301943	1
11	1766	156.539988665992	7
11	1788	160.4	4
11	1791	160.6	1
11	1798	161.106234966041	4
11	1807	161.811552503599	6
11	1830	164.5	5
11	1833	164.7	1
11	1838	165.002236384754	2
11	1846	165.609632505262	5
11	1855	166.111975390372	4
11	1862	166.619663480823	4
11	1868	167.024487091756	3
11	1873	167.327733654302	2
11	1878	167.63266919796	2
11	1886	168.034261680819	3
11	1906	172.2	2
11	1910	172.5	2
11	1917	173.006681710253	4
11	1924	173.511923807868	4
11	1930	173.916629008324	3
11	1937	174.226470134967	2
11	1959	178.4	4
11	1966	179	5
11	1972	179.404158095517	3
11	1976	179.612862940374	1
11	1988	180.417338988156	7
11	1996	181.019620154126	5
11	2017	184.3	3
11	2023	184.8	4
11	2031	185.409504112626	5
11	2041	186.016824983278	5
11	2047	186.425655050979	3
11	2053	186.828141182142	3
11	2060	187.33754827206	4
11	2079	190.4	4
11	2082	190.6	1
11	2088	191.006105034688	3
11	2093	191.315480076485	2
11	2100	191.821650132609	4
11	2108	192.224656743372	3
11	2113	192.527560519131	2
11	2122	193.233492677704	6
11	2143	196.3	3
11	2154	197.3	9
11	2160	197.702878817631	3
11	2168	198.105382499773	3
11	2172	198.314157982921	1
11	2178	198.71746280398	3
11	2183	199.025429498613	2
11	2188	199.331858691295	2
11	2193	199.641392026158	2
11	2198	199.944232242057	2
11	2207	200.445307355449	4
11	2226	204.1	1
11	2231	204.5	3
11	2237	204.903248058685	3
11	2243	205.312897754385	3
11	2249	205.721183056099	3
11	2260	206.425501159418	6
11	2271	207.330959012732	8
11	2277	207.737442317367	3
11	2281	207.937626016342	1
11	2302	210.3	3
11	2306	210.6	2
11	2314	211.203493010292	5
11	2318	211.411281942589	1
11	2329	212.120283342954	6
11	2334	212.425228979303	2
11	2339	212.730293912258	2
11	2345	213.043226519596	2
11	2350	213.351619403673	2
11	2355	213.657696562152	2
11	2363	214.059430012396	3
11	2369	214.460465019203	3
11	2378	215.163247784848	6
11	2399	218.3	3
11	2402	218.5	1
11	2413	219.409532086534	8
11	2420	219.910684206754	4
11	2429	220.418799457641	4
11	2437	221.022186342282	5
11	2457	224.2	2
11	2465	224.9	6
11	2472	225.405864190843	4
11	2477	225.706916131462	2
11	2496	228.1	1
11	2499	228.3	1
11	2505	228.701193139427	3
11	2510	229.006364583426	2
11	2516	229.409529475273	3
11	2521	229.713338179959	2
11	2529	230.113617692583	3
11	2550	234.6	6
11	2556	235.1	4
11	2562	235.509937764666	3
11	2567	235.818550083927	2
11	2575	236.220302232626	3
11	2580	236.520894720227	2
11	2586	236.92300973198	3
11	2592	237.328997270111	3
11	2599	237.835667611055	4
11	2617	240	0
11	2621	240.3	2
11	2628	240.806934500855	4
11	2636	241.409958956175	5
11	2646	242.01980074843	5
11	2656	242.821891751425	7
11	2663	243.331359931084	4
11	2670	243.832085623568	4
11	2680	244.432827193377	5
11	2687	244.936590515988	4
11	2695	245.544994129806	5
11	2705	246.150618977197	5
11	2726	250.4	4
11	2733	250.806691203272	3
11	2740	251.312173151018	4
11	2745	251.618704602232	2
11	2767	254.4	4
11	2770	254.6	1
11	2776	255.008254688056	3
11	2780	255.209218345093	1
11	2793	256.117151713007	8
11	2800	256.51911879869	3
11	2823	260.5	5
11	2828	260.9	3
11	2835	261.402409929516	4
11	2839	261.607053145288	1
11	2851	262.41369863517	7
11	2856	262.723254011279	2
11	2861	263.024464015922	2
11	2868	263.531826585385	4
11	2874	263.937190717931	3
11	2880	264.141330776137	1
11	2903	268.5	5
11	2910	269.1	5
11	2917	269.606685331745	4
11	2927	270.212403973033	5
11	2933	270.620320117784	3
11	2939	271.028243724301	3
11	2962	274.5	5
11	2968	275	4
11	2977	275.615212051727	5
11	2985	276.015972465442	3
11	2992	276.525765603461	4
11	2996	276.728548432212	1
11	3018	280.4	4
11	3024	280.9	4
11	3030	281.30375421659	3
11	3038	281.904138177506	5
11	3046	282.306795062174	3
11	3052	282.706825703399	3
11	3058	283.112458239447	3
11	3066	283.720137080708	5
11	3070	283.922727971986	1
11	3078	284.32724675471	3
11	3087	285.032884968133	6
11	3109	288.4	4
11	3115	288.9	4
11	3120	289.204479663895	2
11	3125	289.505645886444	2
11	3131	289.912745696106	3
11	3139	290.313916419807	3
11	3145	290.719961692194	3
11	3165	294.2	2
11	3169	294.5	2
11	3176	295.007788967662	4
11	3182	295.416609014151	3
11	3189	295.917979182258	4
11	3197	296.325782026692	3
11	3201	296.528719848007	1
11	3222	300.3	3
11	3231	300.72563820436	3
11	3238	301.136847236022	3
11	3243	301.443153798676	2
11	3249	301.752752264773	2
11	3253	301.961397229016	1
11	3274	304.3	3
11	3279	304.7	3
11	3288	305.402722562821	6
11	3292	305.605160141328	1
11	3301	306.109549904869	4
11	3307	306.517905893966	3
11	3316	307.218890523738	6
11	3321	307.520703943753	2
11	3340	310.1	1
11	3343	310.3	1
11	3348	310.603421978065	2
11	3356	311.212216959837	5
11	3362	311.621780749225	3
11	3382	314.2	2
11	3388	314.7	4
11	3394	315.108012773911	3
11	3400	315.517780082798	3
11	3409	316.019011880868	4
11	3416	316.526112215843	4
11	3423	317.028906987037	4
11	3431	317.633962079808	5
11	3435	317.838125461835	1
11	3457	320.4	4
11	3461	320.7	2
11	3465	320.907215739812	1
11	3471	321.213203990202	2
11	3477	321.613612220958	3
11	3498	324.3	3
11	3502	324.6	2
11	3510	325.205236840357	5
11	3516	325.614795910918	3
11	3528	326.419402772303	7
11	3534	326.823710081892	3
11	3538	327.024884856182	1
11	3544	327.431076464929	3
11	3550	327.744799246241	2
11	3554	327.945916630663	1
11	3561	328.255741965323	2
11	3579	332	0
11	3587	332.7	6
11	3594	333.20281829955	4
11	3599	333.508367497659	2
11	3618	336.1	1
11	3622	336.4	2
11	3626	336.607006614042	1
11	3632	337.014125658757	3
11	3638	337.423678009143	3
11	3650	338.232679994323	7
11	3655	338.534429775024	2
11	3662	339.037302170271	4
11	3667	339.345868586896	2
11	3672	339.649875446439	2
11	3693	342.3	3
11	3700	342.9	5
11	3705	343.205964326073	2
11	3710	343.515350705763	2
11	3715	343.81644362024	2
11	3724	344.317163851803	4
11	3732	344.925083749768	5
11	3754	348.4	4
11	3758	348.7	2
11	3762	348.9045190121	1
11	3768	349.306715599887	3
11	3774	349.61902967616	2
11	3779	349.924976335312	2
11	3788	350.429713489841	4
11	3793	350.736546910132	2
11	3797	350.938853171702	1
11	3803	351.24243161335	2
11	3807	351.446452334924	1
11	3829	354.4	4
11	3832	354.6	1
11	3839	355.107533193381	4
11	3843	355.313544937648	1
11	3847	355.518050621227	1
11	3857	356.123057211384	5
11	3862	356.427128227125	2
11	3867	356.732682258845	2
11	3888	360.3	3
11	3893	360.7	3
11	3900	361.208915261693	4
11	3907	361.711544633495	4
11	3916	362.212696226901	4
11	3924	362.820752560094	5
11	3932	363.426223746117	5
11	3937	363.726527503736	2
11	3947	364.336176955886	5
11	3954	364.836536817306	4
11	3959	365.137928729732	2
11	3983	368.6	6
11	3988	369	3
11	3995	369.500497433438	4
11	4005	370.110455716405	5
11	4010	370.411382361495	2
11	4015	370.714859733619	2
11	4019	370.919745547073	1
11	4040	374.3	3
11	4047	374.9	5
11	4052	375.206245378998	2
11	4064	376.012931955635	7
11	4073	376.721660153094	6
11	4077	376.923831830433	1
11	4083	377.330807585712	3
11	4095	378.132758696161	7
11	4104	378.833127702733	6
11	4125	382.5	5
11	4131	383	4
11	4138	383.509381326313	4
11	4147	384.014069331918	4
11	4154	384.515413764101	4
11	4160	384.919753463324	3
11	4165	385.228012385093	2
11	4180	386.331061586716	10
11	4199	390.1	1
11	4205	390.6	4
11	4212	391.106451001341	4
11	4219	391.610404411055	4
11	4229	392.214333700958	5
11	4236	392.723154759554	4
11	4240	392.932690557993	1
11	4244	393.133122459609	1
11	4266	396.4	4
11	4271	396.8	3
11	4276	397.107338536293	2
11	4281	397.415573717509	2
11	4286	397.721730388602	2
11	4290	397.926310639242	1
11	4297	398.232563184665	2
11	4302	398.539964934026	2
11	4307	398.847299379875	2
11	4317	399.651808258186	7
11	4339	402.4	4
11	4343	402.7	2
11	4348	403.000602117846	2
11	4354	403.407026897886	3
11	4358	403.61513599447	1
11	4368	404.217284164109	5
11	4377	404.925478795216	6
11	4383	405.331443937719	3
11	4389	405.737350563595	3
11	4399	406.33944685876	5
11	4406	406.843181735257	4
11	4414	407.447201104521	5
11	4424	408.054041471235	5
11	4445	412.5	5
11	4450	412.9	3
11	4454	413.101079376528	1
11	4458	413.301411959372	1
11	4464	413.703337628502	3
11	4468	413.905516078407	1
11	4475	414.210098557937	2
11	4495	418.2	2
11	4499	418.5	2
11	4507	419.007674476019	4
11	4513	419.411165560438	3
11	4518	419.719280744793	2
11	4526	420.125613231439	3
11	4549	424.5	5
11	4556	425.1	5
11	4563	425.602796914982	4
11	4568	425.905328742737	2
11	4577	426.405578488135	4
11	4582	426.708356121403	2
11	4590	427.311997431804	5
11	4597	427.819049579117	4
11	4608	428.525404582859	6
11	4612	428.734913354697	1
11	4632	432.2	2
11	4638	432.7	4
11	4644	433.107057667127	3
11	4650	433.510939396255	3
11	4656	433.918463791702	3
11	4681	436.7	7
11	4687	437.2	4
11	4694	437.703771689073	4
11	4703	438.209570516845	4
11	4710	438.7118174877	4
11	4715	439.016253048221	2
11	4737	442.4	4
11	4746	443.2	7
11	4751	443.509597090203	2
11	4761	444.109664317634	5
11	4765	444.318057986382	1
11	4774	445.022993993915	6
11	4782	445.631785913398	5
11	4806	448.6	6
11	4809	448.8	1
11	4814	449.10354287419	2
11	4819	449.411730515805	2
11	4823	449.618145062373	1
11	4845	452.4	4
11	4853	453.1	6
11	4860	453.602715813126	4
11	4871	454.310416255886	6
11	4880	455.012132844784	6
11	4886	455.412666384618	3
11	4891	455.720407523704	2
11	4900	456.229268927448	4
11	4906	456.638277366424	3
11	4925	460.1	1
11	4930	460.5	3
11	4938	461.106917316613	5
11	4945	461.610014041755	4
11	4950	461.91940647094	2
11	4958	462.322129308895	3
11	4980	466.4	4
11	4984	466.7	2
11	4995	467.607020971577	8
11	5006	468.312570470126	6
11	5015	469.02172728933	6
11	5037	472.4	4
11	5041	472.7	2
11	5049	473.30249481074	5
11	5061	474.102719095223	7
11	5068	474.603989168577	4
11	5090	478.4	4
11	5099	479.2	7
11	5107	479.802474544548	5
11	5116	480.302496972981	4
11	5135	484.1	1
11	5140	484.5	3
11	5146	484.901893538993	3
11	5152	485.309824850901	3
11	5160	485.913639848476	5
11	5169	486.416757644679	4
11	5176	486.925088061721	4
11	5185	487.633053802901	6
11	5190	487.934364428051	2
11	5199	488.44346605666	4
11	5207	489.046989834453	5
11	5214	489.554332953076	4
11	5235	492.3	3
11	5241	492.8	4
11	5246	493.108618424164	2
11	5251	493.414368121863	2
11	5272	496.3	3
11	5275	496.5	1
11	5280	496.804348522718	2
11	5284	497.006705650947	1
11	5289	497.308015357764	2
11	5294	497.613219333892	2
11	5298	497.814809120821	1
11	5317	500.1	1
11	5322	500.5	3
11	5327	500.801229892524	2
11	5333	501.201919735294	3
11	5337	501.407884770639	1
11	5343	501.810059824045	3
11	5351	502.210446050303	3
11	5367	506.1	1
11	5371	506.4	2
11	5379	507.002000251745	5
11	5387	507.603922120174	5
11	5395	508.004484401212	3
11	5402	508.507953711482	4
11	5407	508.814494043881	2
11	5427	512.2	2
11	5430	512.4	1
11	5439	513.109352971708	6
11	5443	513.314579067152	1
11	5449	513.72035732331	3
11	5459	514.321775592768	5
11	5481	518.4	4
11	5487	518.9	4
11	5492	519.106210315255	1
11	5500	519.713957972535	5
11	5521	522.3	3
11	5526	522.7	3
11	5532	523.100286054047	3
11	5539	523.609509534287	4
11	5548	524.110503537958	4
11	5554	524.517957388121	3
11	5563	525.219976982758	6
11	5571	525.824523173432	5
11	5580	526.33267010412	4
11	5588	526.941621438959	5
11	5595	527.444024294435	4
11	5600	527.745335135899	2
11	5608	528.148055356006	3
11	5613	528.457752232862	2
11	5617	528.662045912312	1
11	5639	532.4	4
11	5644	532.8	3
11	5651	533.2113119456	3
11	5660	533.917121024359	6
11	5667	534.221870676329	2
11	5675	534.829621935329	5
11	5680	535.134617802668	2
11	5685	535.435013566026	2
11	5696	536.041272016587	5
11	5703	536.549322923315	4
11	5707	536.756877012474	1
11	5712	537.058875972945	2
11	5717	537.362487575097	2
11	5737	540.3	3
11	5741	540.6	2
11	5747	541.008713419828	3
11	5752	541.316443942868	2
11	5757	541.6206935311	2
11	5762	541.922054422989	2
11	5769	542.232034790709	2
11	5791	546.4	4
11	5794	546.6	1
11	5802	547.207162005645	5
11	5809	547.716410436166	4
11	5813	547.923914046591	1
11	5823	548.435275689843	4
11	5831	549.041659693992	5
11	5835	549.251279473255	1
11	5839	549.458931363668	1
11	5861	552.4	4
11	5864	552.6	1
11	5870	553.00230924132	3
11	5874	553.206576027888	1
11	5878	553.413683663771	1
11	5882	553.617269401733	1
11	5890	554.017504419573	3
11	5895	554.320663257981	2
11	5900	554.629123897121	2
11	5922	558.6	6
11	5926	558.9	2
11	5934	559.509815754841	5
11	5944	560.119149673163	5
11	5952	560.723734193161	5
11	5975	564.5	5
11	5978	564.7	1
11	5982	564.903439878514	1
11	5990	565.505336669923	5
11	5999	566.00972381442	4
11	6006	566.512298171437	4
11	6012	566.921114600122	3
11	6016	567.129971082024	1
11	6023	567.636717313513	4
11	6043	570.2	2
11	6047	570.5	2
11	6054	571.003966201124	4
11	6060	571.410934457459	3
11	6064	571.616738813965	1
11	6085	574.3	3
11	6091	574.8	4
11	6097	575.202814747455	3
11	6105	575.803432039228	5
11	6126	578.3	3
11	6136	579.2	8
11	6144	579.704120521991	4
11	6152	580.105006619925	3
11	6158	580.512629505093	3
11	6164	580.913390067028	3
11	6170	581.320243081868	3
11	6177	581.820646518793	4
11	6196	584.3	3
11	6202	584.8	4
11	6206	585.009932551872	1
11	6212	585.411941684155	3
11	6216	585.616741224467	1
11	6225	586.124936927217	4
11	6230	586.433786596215	2
11	6236	586.836994699145	3
11	6240	587.042203608784	1
11	6263	590.5	5
11	6267	590.8	2
11	6272	591.10822132332	2
11	6279	591.615941256629	4
11	6284	591.922587657638	2
11	6292	592.323942116361	3
11	6297	592.535640003524	1
11	6303	592.939229358573	3
11	6324	596.3	3
11	6330	596.8	4
11	6335	597.107556846067	2
11	6339	597.312657930054	1
11	6345	597.716032528464	3
11	6355	598.318555392314	5
11	6360	598.624566314484	2
11	6381	602.3	3
11	6388	602.9	5
11	6394	603.303804172016	3
11	6399	603.612696223416	2
11	6404	603.919847176071	2
11	6413	604.427216105622	4
11	6435	608.4	4
11	6440	608.8	3
11	6446	609.209295674122	3
11	6452	609.615325606853	3
11	6457	609.925059127513	2
11	6476	612.1	1
11	6479	612.3	1
11	6485	612.702960808386	3
11	6492	613.203648386797	4
11	6498	613.612856449693	3
11	6502	613.816219849899	1
11	6510	614.218565189792	3
11	6516	614.618999066779	3
11	6522	615.027012647865	3
11	6530	615.541079213904	4
11	6536	615.944821660184	3
11	6543	616.246710780047	2
11	6548	616.554455037061	2
11	6569	620.3	3
11	6575	620.8	4
11	6580	621.104120120636	2
11	6587	621.610039970017	4
11	6591	621.811114352258	1
11	6598	622.11287111586	2
11	6604	622.52054663009	3
11	6608	622.727164562402	1
11	6614	623.036161454765	2
11	6622	623.638006415155	5
11	6644	626.4	4
11	6650	626.9	4
11	6656	627.30443488558	3
11	6662	627.707357958407	3
11	6669	628.011554399359	2
11	6674	628.319687338546	2
11	6680	628.72595076818	3
11	6686	629.127526206958	3
11	6708	632.6	6
11	6714	633.1	4
11	6721	633.601131367275	4
11	6730	634.105308617541	4
11	6735	634.414627796317	2
11	6741	634.823164395714	3
11	6748	635.326795081825	4
11	6755	635.832498028805	4
11	6777	638.4	4
11	6782	638.8	3
11	6787	639.103428271766	2
11	6791	639.304271670707	1
11	6813	642.4	4
11	6819	642.9	4
11	6824	643.206255999396	2
11	6828	643.41582220534	1
11	6833	643.721968155972	2
11	6837	643.928915466205	1
11	6843	644.133732668685	1
11	6865	648.4	4
11	6869	648.7	2
11	6876	649.110023373688	3
11	6881	649.418764970941	2
11	6887	649.82495451214	3
11	6894	650.134362497783	2
11	6899	650.439809086862	2
11	6903	650.645902686772	1
11	6907	650.846092704505	1
11	6926	654.2	2
11	6932	654.7	4
11	6937	655.00471472484	2
11	6948	655.905428068718	8
11	6957	656.407595321688	4
11	6966	657.11609206114	6
11	6972	657.52274603578	3
11	6992	660.2	2
11	6998	660.7	4
11	7002	660.901116667918	1
11	7009	661.404884182859	4
11	7014	661.707627247566	2
11	7023	662.215676283469	4
11	7029	662.617742016069	3
11	7036	663.117981620568	4
11	7040	663.318509586793	1
11	7063	666.5	5
11	7070	667.1	5
11	7075	667.406625497387	2
11	7080	667.715316797943	2
11	7084	667.924069985373	1
11	7090	668.124109150858	1
11	7095	668.428913893713	2
11	7100	668.731559028582	2
11	7122	672.6	6
11	7125	672.8	1
11	7133	673.405023982168	5
11	7144	674.107389949471	6
11	7148	674.310600924737	1
11	7170	678.4	4
11	7176	678.9	4
11	7183	679.404331095383	4
11	7190	679.910354672369	4
11	7198	680.316069281526	3
11	7205	680.818751496689	4
11	7212	681.319536871942	4
11	7219	681.824924161284	4
11	7241	684.4	4
11	7246	684.701013702533	2
11	7251	685.007981274583	2
11	7258	685.511537852611	4
11	7264	685.828290731358	2
11	7272	686.234378077563	3
11	7295	690.5	5
11	7299	690.8	2
11	7304	691.107550621735	2
11	7309	691.409586712826	2
11	7315	691.812876708759	3
11	7325	692.414579987167	5
11	7335	693.120382840339	6
11	7343	693.726570024473	5
11	7350	694.035529639815	2
11	7370	698.2	2
11	7375	698.6	3
11	7380	698.905691135586	2
11	7385	699.214971830388	2
11	7390	699.523290706106	2
11	7396	699.924369283154	3
11	7405	700.432200986604	4
11	7411	700.834390862924	3
11	7418	701.343941766947	4
11	7426	701.944375630301	5
11	7445	704.2	2
11	7448	704.4	1
11	7458	705.207919318606	7
11	7467	705.912004549465	6
11	7477	706.518243762048	5
11	7484	707.023899190081	4
11	7489	707.331487828597	2
11	7496	707.840175646549	4
11	7520	710.6	6
11	7525	711	3
11	7532	711.506274441105	4
11	7538	711.914487534097	3
11	7545	712.223663083784	2
11	7551	712.623911380035	3
11	7573	716.4	4
11	7579	716.9	4
11	7584	717.209470673371	2
11	7590	717.609804895487	3
11	7594	717.815596989879	1
11	7600	718.017765681011	1
11	7608	718.618261613737	5
11	7613	718.919070455372	2
11	7633	722.2	2
11	7638	722.6	3
11	7643	722.805085579433	1
11	7647	723.007826623189	1
11	7652	723.3139763468	2
11	7657	723.519328987024	1
11	7677	726.2	2
11	7683	726.7	4
11	7691	727.306319697543	5
11	7697	727.710573788056	3
11	7705	728.119221718186	3
11	7713	728.726515523631	5
11	7717	728.93296358919	1
11	7725	729.53578187182	5
11	7734	730.038265107978	4
11	7751	734	0
11	7756	734.4	3
11	7762	734.808384229927	3
11	7767	735.112487549034	2
11	7773	735.513708533506	3
11	7777	735.71657721157	1
11	7781	735.917362589471	1
11	7788	736.221450843131	2
11	7810	740.4	4
11	7814	740.7	2
11	7823	741.406883714541	6
11	7828	741.709047211932	2
11	7850	744.4	4
11	7855	744.8	3
11	7863	745.404971992038	5
11	7869	745.722353649136	2
11	7877	746.130655841511	3
11	7883	746.536691191294	3
11	7887	746.742065593232	1
11	7891	746.943824818688	1
11	7914	750.5	5
11	7917	750.7	1
11	7922	751.002548485894	2
11	7930	751.607035120136	5
11	7934	751.808133646356	1
11	7940	752.014908362402	1
11	7960	756.2	2
11	7966	756.7	4
11	7974	757.309098167743	5
11	7979	757.616078148186	2
11	7987	758.02292184096	3
11	7991	758.224523719976	1
11	7997	758.631149992526	3
11	8018	762.3	3
11	8022	762.6	2
11	8030	763.203461317077	5
11	8037	763.520386452395	2
11	8041	763.729588668131	1
11	8060	766.1	1
11	8064	766.4	2
11	8069	766.709134436962	2
11	8076	767.209677808226	4
11	8081	767.511682459059	2
11	8086	767.81654113958	2
11	8095	768.322982382717	4
11	8100	768.629190095261	2
11	8105	768.935387906672	2
11	8127	772.4	4
11	8132	772.8	3
11	8138	773.204657122157	3
11	8144	773.610481433022	3
11	8152	774.01689272424	3
11	8158	774.420375091366	3
11	8165	774.92725716443	4
11	8187	778.4	4
11	8193	778.9	4
11	8197	779.107030920155	1
11	8203	779.508167393902	3
11	8212	780.017082110357	4
11	8217	780.325623226196	2
11	8221	780.527441658007	1
11	8225	780.736079244056	1
11	8230	781.03836887118	2
11	8236	781.444495320832	3
11	8242	781.850241436771	3
11	8262	784.3	3
11	8271	785.1	7
11	8277	785.503886621322	3
11	8281	785.707934965062	1
11	8288	786.017150596893	2
11	8295	786.523974593782	4
11	8299	786.730552419684	1
11	8303	786.939348859401	1
11	8308	787.243997186082	2
11	8313	787.551521643546	2
11	8317	787.755108989799	1
11	8340	790.5	5
11	8346	791	4
11	8352	791.406329435401	3
11	8359	791.915569834806	4
11	8369	792.522798536498	5
11	8376	793.032055054559	4
11	8381	793.338177506935	2
11	8403	796.4	4
11	8408	796.8	3
11	8414	797.206883724357	3
11	8419	797.514091828977	2
11	8425	797.92322116705	3
11	8436	798.627608966085	6
11	8443	799.134964624555	4
11	8449	799.542790154833	3
11	8458	800.051120738698	4
11	8464	800.459337923467	3
11	8471	800.967340089004	4
11	8475	801.176989084829	1
11	8498	804.5	5
11	8508	805.4	8
11	8518	806.000756123706	5
11	8526	806.607835310913	5
11	8532	807.011681709621	3
11	8541	807.714590730185	6
11	8545	807.922637774685	1
11	8551	808.123828788564	1
11	8571	812.2	2
11	8574	812.4	1
11	8578	812.60626291847	1
11	8584	813.013250241923	3
11	8592	813.617751664855	5
11	8600	814.026901914161	3
11	8620	818.2	2
11	8625	818.6	3
11	8633	819.206660530613	5
11	8640	819.706813674375	4
11	8661	822.3	3
11	8666	822.7	3
11	8671	823.009067988214	2
11	8677	823.410960876499	3
11	8683	823.820290209992	3
11	8693	824.423322440044	5
11	8699	824.826261966564	3
11	8705	825.235066181996	3
11	8710	825.543915569258	2
11	8716	825.946944363114	3
11	8725	826.452177790146	4
11	8731	826.85575916651	3
11	8754	830.6	6
11	8760	831.1	4
11	8766	831.504015204587	3
11	8772	831.913698290187	3
11	8783	832.623185683119	6
11	8789	833.023718473341	3
11	8794	833.333110613783	2
11	8800	833.740153323502	3
11	8808	834.144306272837	3
11	8817	834.845517503219	6
11	8840	838.5	5
11	8845	838.805015321031	2
11	8851	839.20838696798	3
11	8856	839.517863310318	2
11	8867	840.222644870407	6
11	8874	840.722997571465	4
11	8881	841.228014128892	4
11	8902	844.3	3
11	8907	844.7	3
11	8918	845.600039117096	8
11	8923	845.909743990646	2
11	8929	846.114627469211	1
11	8933	846.314963812612	1
11	8938	846.624446654434	2
11	8944	847.027520180524	3
11	8950	847.432107397776	3
11	8971	850.3	3
11	8976	850.7	3
11	8984	851.307098983637	5
11	8989	851.615856241831	2
11	8993	851.823098952675	1
11	9003	852.430696403598	5
11	9009	852.831396246228	3
11	9014	853.133897657977	2
11	9022	853.742342068099	5
11	9030	854.150124457213	3
11	9035	854.451835283161	2
11	9056	858.3	3
11	9062	858.8	4
11	9069	859.30754931658	4
11	9081	860.107593417169	7
11	9088	860.607959084549	4
11	9095	861.113060058461	4
11	9100	861.415115328783	2
11	9104	861.621890053453	1
11	9110	861.925825409427	2
11	9116	862.135096572661	1
11	9135	866.1	1
11	9139	866.4	2
11	9144	866.707032815823	2
11	9149	867.015264481026	2
11	9157	867.615437314756	5
11	9165	868.022660118787	3
11	9188	872.5	5
11	9194	873	4
11	9199	873.300445025484	2
11	9204	873.608069369359	2
11	9226	876.4	4
11	9232	876.9	4
11	9237	877.204203097361	2
11	9242	877.508721866676	2
11	9251	878.012879794326	4
11	9256	878.313170147272	2
11	9260	878.514128207242	1
11	9267	879.022149442358	4
11	9274	879.523266263423	4
11	9296	882.4	4
11	9303	882.908206911368	4
11	9311	883.509759532768	5
11	9316	883.819065837355	2
11	9323	884.125477936272	2
11	9329	884.530743476061	3
11	9335	884.935384367238	3
11	9359	888.6	6
11	9363	888.9	2
11	9371	889.501130487369	5
11	9381	890.101440040776	5
11	9387	890.508702669508	3
11	9392	890.812052702094	2
11	9398	891.213882522341	3
11	9406	891.823086941063	5
11	9415	892.328357725928	4
11	9422	892.82926894485	4
11	9428	893.23093230555	3
11	9450	896.4	4
11	9456	896.9	4
11	9461	897.207715592163	2
11	9469	897.815423304252	5
11	9477	898.222693870034	3
11	9481	898.427139247117	1
11	9487	898.73650228177	2
11	9495	899.339871582447	5
11	9517	902.4	4
11	9525	903.1	6
11	9532	903.605026890086	4
11	9540	904.01201817657	3
11	9547	904.516079669738	4
11	9555	905.120278339997	5
11	9561	905.524426937087	3
11	9574	906.430072043286	8
11	9580	906.833114148219	3
11	9586	907.233356760955	3
11	9611	910.7	7
11	9617	911.2	4
11	9626	911.901540887441	6
11	9634	912.30211900212	3
11	9644	913.111755988638	7
11	9663	916.1	1
11	9669	916.6	4
11	9674	916.903330825245	2
11	9684	917.70416055753	7
11	9692	918.107820059404	3
11	9714	922.4	4
11	9719	922.8	3
11	9725	923.203604567062	3
11	9730	923.510387718255	2
11	9739	924.013731214752	4
11	9745	924.326401061667	2
11	9751	924.731065582516	3
11	9757	925.131105914934	3
11	9763	925.531672525229	3
11	9772	926.034440941251	4
11	9794	930.4	4
11	9805	931.4	9
11	9816	932.101678382516	6
11	9822	932.509575166468	3
11	9828	932.912259213762	3
11	9834	933.318027876737	3
11	9841	933.824211103215	4
11	9861	936.2	2
11	9867	936.7	4
11	9874	937.203153206305	4
11	9881	937.710617181511	4
11	9903	940.4	4
11	9908	940.8	3
11	9913	941.101325196188	2
11	9920	941.607242262512	4
11	9928	942.016794430515	3
11	9935	942.51805568992	4
11	9942	943.019341399351	4
11	9964	946.4	4
11	9970	946.9	4
11	9979	947.606932608245	6
11	9988	948.115516679782	4
11	9994	948.517637535409	3
11	10002	949.123878892644	5
11	10010	949.732332990178	5
11	10018	950.141771698691	3
11	10037	954.1	1
11	10042	954.5	3
11	10048	954.906647303053	3
11	10053	955.21160526168	2
11	10060	955.715195086662	4
11	10069	956.224097084829	4
11	10077	956.833459982594	5
11	10086	957.537548108798	6
11	10090	957.745840649959	1
11	10097	958.055124052891	2
11	10104	958.560532256718	4
11	10113	959.266995667786	6
11	10134	962.3	3
11	10138	962.6	2
11	10144	962.907184412443	2
11	10150	963.307647775978	3
11	10155	963.616664716525	2
11	10159	963.817883827912	1
11	10166	964.12056206816	2
11	10171	964.425596916038	2
11	10176	964.731032688895	2
11	10198	968.4	4
11	10201	968.6	1
11	10205	968.802672316618	1
11	10209	969.003085537564	1
11	10214	969.303243850408	2
11	10225	970.008146381994	6
11	10230	970.317665521608	2
11	10249	974.4	4
11	10253	974.7	2
11	10263	975.404396003391	6
11	10269	975.607360282461	1
11	10278	976.108477993784	4
11	10288	976.912589957713	7
11	10293	977.221570360503	2
11	10315	980.4	4
11	10321	980.9	4
11	10336	982.005352425025	10
11	10344	982.608124738744	5
11	10348	982.813319693993	1
11	10353	983.122432133749	2
11	10361	983.728642534911	5
11	10381	986.2	2
11	10386	986.6	3
11	10393	986.835262750192	1
11	10398	987.138931181054	2
11	10404	987.543600561137	3
11	10413	988.044436138579	4
11	10436	992.5	5
11	10439	992.7	1
11	10445	993.105038548505	3
11	10453	993.713139496924	5
11	10461	994.116315602896	3
11	10469	994.71814109389	5
11	10477	995.319389064212	5
11	10483	995.721236733205	3
11	10491	996.128491282171	3
11	10511	1000.2	2
11	10514	1000.4	1
11	10520	1000.800728874164	3
11	10527	1001.303632151509	4
11	10534	1001.812001245658	4
11	10544	1002.416368854456	5
11	10548	1002.623977895346	1
11	10572	1006.6	6
11	10578	1007.1	4
11	10585	1007.602506114039	4
11	10594	1008.11242043167	4
11	10600	1008.515947806407	3
11	10624	1012.6	6
11	10632	1013.3	6
11	10637	1013.607280489087	2
11	10645	1014.011792385898	3
11	10668	1018.5	5
11	10676	1019.2	6
11	10684	1019.809390135065	5
11	10695	1020.51755558012	6
11	10703	1021.12097097526	5