version 2
run Join-44-20130429-12:50:34-17679
attr configname Join
attr datetime 20130429-12:50:34
attr experiment "\"Join\""
attr inifile omnetpp.ini
attr iterationvars $0=512
attr iterationvars2 "$0=512, $repetition=4"
attr measurement $0=512
attr network Network
attr processid 17679
attr repetition 4
attr replication #4
attr resultdir results
attr runnumber 44
attr seedset 44

vector 44  Network.dyn_peer[0]  lookupHopsSig:vector  ETV
44	1736	22.3	3
44	1763	23.5	11
44	1786	24.709754046236	11
44	1793	25.211874988185	4
44	1828	28.116301300154	28
44	1838	28.923867068957	7
44	1863	32.7	7
44	1874	33.7	9
44	1885	34.407842365091	6
44	1897	35.408563338734	9
44	1911	36.412949973937	9
44	1917	36.820330152221	3
44	1926	37.529944563832	6
44	1936	38.136433528196	5
44	1944	38.740799466276	5
44	1955	39.642634697153	8
44	1965	40.243870765316	5
44	2009	46.6	26
44	2014	47	3
44	2021	47.507629092729	4
44	2030	48.012093980794	4
44	2040	48.815020470246	7
44	2053	49.921729990541	10
44	2069	51.123859584398	11
44	2098	55.1	11
44	2113	56.3	11
44	2124	57.200205490207	8
44	2140	58.408517425758	11
44	2149	59.118087534382	6
44	2170	60.822037709927	16
44	2183	61.923944957883	10
44	2198	63.028990918677	10
44	2229	67.5	15
44	2241	68.4	8
44	2254	69.501419507635	10
44	2260	69.903865345092	3
44	2275	71.007677458603	10
44	2286	71.910886372871	8
44	2297	72.614102220782	6
44	2318	76.6	6
44	2335	78	13
44	2351	79.403728288414	13
44	2367	80.611579813381	11
44	2376	81.316216433373	6
44	2393	82.61760000469	12
44	2411	84.020147273722	13
44	2444	88.1	1
44	2454	89	8
44	2469	90.100578453254	10
44	2480	91.007055086646	8
44	2511	93.707619019936	26
44	2524	94.613659867849	8
44	2536	95.619522181891	9
44	2552	96.820234118476	11
44	2580	101	10
44	2586	101.5	4
44	2601	102.603127292452	10
44	2614	103.712084886652	10
44	2628	104.617936073703	8
44	2643	105.918343093896	12
44	2661	107.226155567925	12
44	2697	111.8	18
44	2708	112.6	7
44	2723	113.900363167757	12
44	2739	115.103019260146	11
44	2757	116.507643455845	13
44	2772	117.811131727249	12
44	2787	118.919097312645	10
44	2808	120.619485867617	16
44	2827	122.122230596248	14
44	2859	127.6	16
44	2866	128	3
44	2875	128.70700212252	6
44	2881	129.113348707574	3
44	2898	130.419004406182	12
44	2908	131.226848313506	7
44	2914	131.632618287019	3
44	2940	135.1	11
44	2955	136.3	11
44	2970	137.600885119817	12
44	2986	138.804506984275	11
44	3019	141.714397054176	28
44	3036	143.022845856753	12
44	3050	144.023899910739	9
44	3064	145.226026657135	11
44	3078	146.228470900149	9
44	3094	147.637954386348	13
44	3112	149.046839041245	13
44	3128	150.251678308116	11
44	3164	153.454332818689	31
44	3197	157.5	15
44	3218	159.3	17
44	3236	160.702140376814	13
44	3246	161.503615833785	7
44	3260	162.504960920243	9
44	3281	164.205872405141	16
44	3298	165.710866709165	14
44	3317	167.220197164253	14
44	3335	168.628664278061	13
44	3355	170.235196918969	15
44	3362	170.743516403243	4
44	3381	172.247713311872	14
44	3397	173.651669831484	13
44	3426	177.1	11
44	3430	177.4	2
44	3444	178.401295316671	9
44	3459	179.710220985223	12
44	3468	180.217279599869	4
44	3474	180.618344999997	3
44	3486	181.623103601935	9
44	3531	184.3	3
44	3550	185.2	8
44	3560	185.503166618191	2
44	3584	186.50798953067	9
44	3606	187.415955817044	8
44	3623	188.221358897149	7
44	3633	189.021691901263	7
44	3648	190.12339089304	10
44	3653	190.43018091104	2
44	3664	191.331649348298	8
44	3677	192.235650627461	8
44	3694	193.737559084893	14
44	3707	194.642786036572	8
44	3749	200.2	22
44	3767	201.9	16
44	3784	203.203669608838	12
44	3791	203.710808118441	4
44	3812	205.417494331576	16
44	3826	206.418536120926	9
44	3835	207.122943829209	6
44	3865	211.5	15
44	3889	213.6	20
44	3907	215.006740505963	13
44	3918	215.909321338273	8
44	3930	216.718889915125	7
44	3948	218.125520896549	13
44	3975	222.9	9
44	3982	223.5	5
44	3995	224.403260241365	8
44	4005	225.204136392073	7
44	4020	226.311656136998	10
44	4037	227.818392895551	14
44	4057	229.420020221641	15
44	4073	230.621315101838	11
44	4078	230.930493762436	2
44	4095	232.238506890222	12
44	4109	233.442734486675	11
44	4116	233.943709966438	4
44	4148	237.4	14
44	4160	238.3	8
44	4173	239.406087332407	10
44	4191	240.807757841727	13
44	4210	242.316348967285	14
44	4222	243.319031835201	9
44	4239	244.620633963339	12
44	4257	246.022090158645	13
44	4283	250.8	8
44	4298	252	11
44	4311	253.101255852163	10
44	4329	254.507283379768	13
44	4351	256.31165041098	17
44	4362	257.219458511412	8
44	4378	258.423996743243	11
44	4394	259.824352097643	13
44	4407	260.729391895147	8
44	4421	261.931662602672	11
44	4432	262.632639547277	6
44	4460	267	10
44	4476	268.3	12
44	4499	270.205496856088	18
44	4514	271.514105921548	12
44	4529	272.623914945867	10
44	4540	273.527007529978	8
44	4558	274.933091178073	13
44	4592	279.9	19
44	4608	281.2	12
44	4622	282.201622407783	9
44	4632	283.006848539523	7
44	4657	285.111882329819	20
44	4673	286.317691812546	11
44	4698	288.420401407476	20
44	4705	288.923859967245	4
44	4736	293.3	13
44	4750	294.4	10
44	4757	294.906409390144	4
44	4774	296.206926496707	12
44	4784	297.013513107386	7
44	4802	298.416912658801	13
44	4814	299.421821603073	9
44	4834	301.026465248466	15
44	4841	301.530960584383	4
44	4877	305.8	18
44	4886	306.4	5
44	4896	307.204033050562	7
44	4912	308.408259686186	11
44	4925	309.509029264066	10
44	4945	311.11516606139	15
44	4961	312.325116146174	11
44	4978	316.2	2
44	4991	317.4	11
44	5005	318.404632146591	9
44	5026	320.105454807295	16
44	5035	320.806160987012	6
44	5043	321.410278847338	5
44	5056	322.313446848007	8
44	5066	323.118456630211	7
44	5074	323.722410447541	5
44	5083	324.22700973495	4
44	5139	328.8	8
44	5174	330.2	13
44	5198	331.206181010259	9
44	5210	331.713009765012	4
44	5225	332.320370691629	5
44	5233	332.923460389506	5
44	5241	333.528610487321	5
44	5263	336.7	7
44	5267	337	2
44	5275	337.604387631837	5
44	5285	338.213960323409	5
44	5295	339.017455572714	7
44	5306	339.926936314722	8
44	5340	342.735253535929	27
44	5346	343.14137494413	3
44	5365	344.641742104993	14
44	5394	349.1	11
44	5408	350.2	10
44	5418	351.007090565585	7
44	5439	352.709830791516	16
44	5452	353.813762142913	10
44	5462	354.4141524931	5
44	5478	355.82227225495	13
44	5524	360.6	26
44	5538	361.9	12
44	5550	362.700369937987	7
44	5560	363.501932282742	7
44	5571	364.207850569487	6
44	5585	365.4167730155	11
44	5601	366.621487450866	11
44	5613	367.624302165783	9
44	5636	370.5	5
44	5644	371.2	6
44	5656	372.006716737721	7
44	5667	372.91074922938	8
44	5677	373.720553206497	7
44	5691	374.724550227216	9
44	5698	375.226716464837	4
44	5741	380.6	26
44	5746	381	3
44	5770	383.004350264298	19
44	5788	384.406047073211	13
44	5805	385.915954490685	14
44	5814	386.417647993794	4
44	5827	387.518225048669	10
44	5846	389.020821571271	14
44	5864	390.428046925193	13
44	5896	395.5	15
44	5901	395.9	3
44	5917	397.106552753499	11
44	5932	398.209508677224	10
44	5944	399.217175690851	9
44	5953	399.919107496589	6
44	5969	401.122993184399	11
44	5979	401.928760440443	7
44	5993	402.937726475482	9
44	6004	403.840913234424	8
44	6027	406.7	7
44	6032	407.1	3
44	6042	407.901571126889	7
44	6053	408.604919382798	6
44	6062	409.305523459269	6
44	6073	410.007520187131	6
44	6089	411.415795094854	13
44	6099	412.021284812659	5
44	6104	412.329067273452	2
44	6136	417.4	14
44	6152	418.7	12
44	6162	419.505641570708	7
44	6173	420.215448508544	6
44	6199	422.416725636277	21
44	6230	427.3	13
44	6240	428	6
44	6252	429.002804348759	9
44	6258	429.409421386531	3
44	6271	430.315450205075	8
44	6288	431.821165920343	14
44	6311	434.5	5
44	6323	435.6	10
44	6340	436.908106212136	12
44	6364	438.917477916914	19
44	6376	439.925159942854	9
44	6392	441.127262940073	11
44	6398	441.531499655983	3
44	6403	441.835976299841	2
44	6417	442.84351899109	9
44	6430	443.947536917495	10
44	6437	444.254994559787	2
44	6443	444.662239498203	3
44	6463	448.3	3
44	6473	449.2	8
44	6481	449.711393062322	4
44	6492	450.418596378058	6
44	6501	451.127982480442	6
44	6508	451.630319315709	4
44	6512	451.836261572702	1
44	6537	453.94293892555	20
44	6547	454.544006270853	5
44	6560	455.650516862262	10
44	6591	459.3	13
44	6597	459.8	4
44	6607	460.40774915301	5
44	6611	460.609597093069	1
44	6621	461.411474921635	7
44	6634	462.321064246524	8
44	6644	463.125855168289	7
44	6653	463.830713975276	6
44	6663	464.438554759647	5
44	6676	465.547208762517	10
44	6715	470	20
44	6723	470.7	6
44	6742	472.209093760782	14
44	6750	472.814771551521	5
44	6755	473.119155599757	2
44	6772	474.422664479737	12
44	6782	475.225074689365	7
44	6800	476.626392071023	13
44	6810	477.430296813356	7
44	6847	481.9	19
44	6876	484.3	23
44	6886	485.109152668158	7
44	6896	485.912364274377	7
44	6904	486.313380168873	3
44	6912	486.918073887649	5
44	6940	491	10
44	6955	492.2	11
44	6972	493.707100819249	14
44	6988	494.912325784391	11
44	7004	496.114996434537	11
44	7016	497.116161249606	9
44	7036	498.718611507311	15
44	7055	500.223489043919	14
44	7087	505.6	16
44	7111	507.7	20
44	7125	508.700084431243	9
44	7137	509.703187332925	9
44	7146	510.210014139331	4
44	7152	510.612677848517	3
44	7159	511.118493509256	4
44	7179	512.721019169151	15
44	7186	513.226420231455	4
44	7210	515.235603210758	19
44	7230	516.835961279598	15
44	7252	520.4	4
44	7257	520.8	3
44	7264	521.30894550122	4
44	7269	521.610458540678	2
44	7279	522.210969558706	5
44	7291	523.220900637326	9
44	7311	524.822982446714	15
44	7319	525.43205328402	5
44	7335	526.635610497401	11
44	7346	527.538419798016	8
44	7361	528.639286245442	10
44	7382	530.342339273778	16
44	7429	536.7	27
44	7441	537.8	10
44	7453	538.600654782555	7
44	7475	540.405094443589	17
44	7486	541.30710811019	8
44	7501	542.415620126764	10
44	7511	543.221399125589	7
44	7525	544.230211268097	9
44	7535	545.031729983656	7
44	7545	545.833948658768	7
44	7559	546.842328834724	9
44	7610	552.7	27
44	7623	553.9	11
44	7640	555.203760729171	12
44	7658	556.61136222449	13
44	7665	557.116370677588	4
44	7684	558.622453919265	14
44	7693	559.329331732515	6
44	7706	560.238314453318	8
44	7730	562.24003906166	19
44	7760	567.2	12
44	7773	568.2	9
44	7779	568.606627015629	3
44	7784	568.912343753207	2
44	7791	569.414465101657	4
44	7808	570.71800860133	12
44	7828	572.319993338326	15
44	7845	573.826698581883	14
44	7861	575.032329716476	11
44	7877	576.237991860535	11
44	7891	577.440807488738	11
44	7896	577.748058838248	2
44	7915	579.254185072181	14
44	7935	580.855428197304	15
44	7944	581.556253921267	6
44	7975	585.3	13
44	7995	587	16
44	8016	588.704578145341	16
44	8037	590.412861546793	16
44	8057	592.020543301883	15
44	8073	593.430390841411	13
44	8090	594.733732724978	12
44	8108	596.143357021672	13
44	8118	596.952689296708	7
44	8159	600.4	4
44	8173	601.7	12
44	8190	603.000492646973	12
44	8201	603.901611669998	8
44	8217	605.107222837822	11
44	8234	606.410480505847	12
44	8248	607.614679281187	11
44	8272	610.9	9
44	8291	612.5	15
44	8300	613.200815596701	6
44	8306	613.601149843786	3
44	8314	614.005981640873	3
44	8322	614.614108688953	5
44	8333	615.517800179378	8
44	8343	616.124123163547	5
44	8352	616.826545919806	6
44	8360	617.431657686496	5
44	8399	622	20
44	8415	623.5	14
44	8428	624.40001266194	8
44	8445	625.905781503924	14
44	8460	627.015770486999	10
44	8482	628.823634821314	17
44	8492	629.63283633999	7
44	8506	630.635411619443	9
44	8526	632.241944161838	15
44	8540	633.447964989457	11
44	8574	637.6	16
44	8578	637.9	2
44	8586	638.306414316266	3
44	8594	638.907241947024	5
44	8599	639.208922325316	2
44	8608	639.913586770721	6
44	8625	641.217814695475	12
44	8630	641.52153291744	2
44	8636	641.922608535793	3
44	8701	645.2	12
44	8730	646.4	11
44	8756	647.501160909354	10
44	8782	648.504978217689	9
44	8800	649.413612669919	8
44	8807	649.915147503245	4
44	8823	651.116846299311	11
44	8828	651.417717382497	2
44	8841	652.320748464445	8
44	8853	653.326919878375	9
44	8868	654.430182476621	10
44	8876	655.03919563485	5
44	8886	655.843802064907	7
44	8973	660.1	21
44	9000	661.2	10
44	9014	661.707562226047	4
44	9036	662.610630175854	8
44	9075	664.312466893734	16
44	9085	665.119257490555	7
44	9090	665.427569454716	2
44	9120	669.2	12
44	9134	670.3	10
44	9142	670.9068479693	5
44	9153	671.812093817272	8
44	9160	672.119856101159	2
44	9177	673.622259849555	14
44	9192	674.728097462326	10
44	9222	679.5	15
44	9241	681.1	15
44	9259	682.50065731829	13
44	9278	684.002465603192	14
44	9302	686.00480523072	19
44	9343	690.9	9
44	9351	691.6	6
44	9367	692.806352341298	11
44	9388	694.514513018207	16
44	9409	696.216029951035	16
44	9418	696.922635446885	6
44	9427	697.629807968859	6
44	9451	700.9	9
44	9457	701.4	4
44	9463	701.800745577532	3
44	9471	702.204330128283	3
44	9483	703.211951643662	9
44	9503	704.818504703741	15
44	9512	705.520392655336	6
44	9530	706.924124049317	13
44	9550	708.533570393382	15
44	9561	709.439727768783	8
44	9577	710.642121863971	11
44	9651	715.9	19
44	9668	717.3	13
44	9687	718.807874593578	14
44	9694	719.309476689162	4
44	9701	719.811889273979	4
44	9719	721.212084593328	13
44	9741	723.019001175134	17
44	9750	723.720318268375	6
44	9759	724.225343698394	4
44	9794	729.7	17
44	9806	730.6	8
44	9814	731.206396777536	5
44	9826	732.006879072535	7
44	9837	732.91635458899	8
44	9862	735.018220872276	20
44	9877	736.12589630919	10
44	9887	736.930324126176	7
44	9897	737.730939180738	7
44	9909	738.531022498327	7
44	9919	739.333981078801	7
44	9926	739.837060283395	4
44	9933	740.144549743361	2
44	10003	745.3	13
44	10012	745.7	3
44	10027	746.500033781377	7
44	10040	747.608831165309	10
44	10055	748.711561725907	10
44	10064	749.419232935734	6
44	10075	750.124839314751	6
44	10088	751.234366496396	10
44	10105	752.543048512071	12
44	10113	753.151500687288	5
44	10126	754.056908837427	8
44	10133	754.558399919893	4
44	10153	758.4	4
44	10166	759.6	11
44	10183	760.90078859864	12
44	10195	761.902481520571	9
44	10211	763.10673436921	11
44	10227	764.313211900861	11
44	10264	767.620420446406	32
44	10279	768.725312190715	10
44	10297	770.13452921489	13
44	10326	775.1	11
44	10339	776.1	9
44	10349	776.905683043466	7
44	10360	777.80762413741	8
44	10396	781.8	18
44	10416	783.5	16
44	10428	784.304839881046	7
44	10436	784.905559244749	5
44	10452	786.108033290835	11
44	10462	786.908297819598	7
44	10478	788.116345335394	11
44	10499	792.3	3
44	10512	793.5	11
44	10524	794.308483398421	7
44	10536	795.317898449876	9
44	10551	796.427043055828	10
44	10556	796.734943404652	2
44	10599	801.4	14
44	10610	802.2	7
44	10627	803.700870189832	14
44	10635	804.108359635563	3
44	10651	805.51366522669	13
44	10663	806.315744951953	7
44	10676	807.419665687532	10
44	10688	808.220696295966	7
44	10734	814.8	28
44	10742	815.5	6
44	10761	817.001470243807	14
44	10783	818.805183334918	17
44	10805	820.614156931696	17
44	10809	820.816484278569	1
44	10832	822.721202625104	18
44	10838	823.128352029954	3
44	10851	824.02871271937	8
44	10891	830	20
44	10902	831	9
44	10910	831.600815088725	5
44	10926	832.8018009318	11
44	10937	833.708098548216	8
44	10970	837.5	15
44	10979	838.1	5
44	10989	838.905170276276	7
44	11006	840.207950922815	12
44	11017	841.111169364064	8
44	11035	842.513025597692	13
44	11057	844.313338041337	17
44	11072	845.615996804503	12
44	11097	848.7	7
44	11108	849.7	9
44	11117	850.204216995793	4
44	11132	851.508689431603	12
44	11149	852.81286097593	12
44	11186	857.9	19
44	11199	858.9	9
44	11204	859.208361588804	2
44	11217	860.111738225323	8
44	11234	861.619545577383	14
44	11248	862.627285361944	9
44	11259	863.53362798914	8
44	11302	868.3	23
44	11316	869.6	12
44	11335	871.107154611095	14
44	11348	872.015163922952	8
44	11362	873.216065696186	11
44	11380	874.625734233743	13
44	11393	875.732256694923	10
44	11411	878.3	3
44	11420	879.1	7
44	11436	880.305019819908	11
44	11459	882.208252606777	18
44	11469	883.009521068661	7
44	11483	884.015464352684	9
44	11493	884.823194268255	7
44	11503	885.631468012724	7
44	11523	887.233731207686	15
44	11542	888.738062277214	14
44	11624	893.1	11
44	11633	893.9	7
44	11652	895.409126232264	14
44	11658	895.814857823159	3
44	11681	897.722251575078	18
44	11693	898.525184371581	7
44	11701	899.13342013641	5
44	11717	900.34106636766	11
44	11751	905.6	16
44	11755	905.9	2
44	11773	907.300569082733	13
44	11788	908.402706299123	10
44	11801	909.507805174911	10
44	11817	910.716597268065	11
44	11829	911.721736932746	9
44	11859	915.5	15
44	11869	916.2	6
44	11887	917.807950331487	15
44	11902	918.909922071229	10
44	11918	920.117330946656	11
44	11929	921.022800273307	8
44	11946	922.331896030694	12
44	11955	923.038029424888	6
44	11976	926.5	5
44	11991	927.9	13
44	12002	928.608175361941	6
44	12015	929.714400926707	10
44	12033	931.116925138814	13
44	12049	932.319866635169	11
44	12064	933.624549872691	12
44	12082	935.027399064094	13
44	12100	936.427430105142	13
44	12133	941.5	15
44	12138	941.9	3
44	12152	942.901684256328	9
44	12164	943.910292746829	9
44	12174	944.519689135252	5
44	12186	945.519800306054	9
44	12195	946.029689203403	4
44	12212	947.537446955118	14
44	12230	948.941754291063	13
44	12238	949.549251827109	5
44	12257	951.055043400875	14
44	12268	951.95660236261	8
44	12286	953.365521355959	13
44	12317	957.4	14
44	12332	958.6	11
44	12350	960.009421229406	13
44	12356	960.412097912297	3
44	12364	961.020285271246	5
44	12375	961.928537825197	8
44	12409	965.6	16
44	12423	966.7	10
44	12431	967.30022797455	5
44	12443	968.104020251547	7
44	12451	968.704894016544	5
44	12460	969.408165772664	6
44	12465	969.717928666486	2
44	12481	970.919612779041	11
44	12515	975.6	16
44	12526	976.4	7
44	12550	978.404712038491	19
44	12570	980.013727878573	15
44	12587	981.521687711203	14
44	12604	982.825302382722	12
44	12617	983.926487951924	10
44	12639	985.73382319188	17
44	12652	986.638045968672	8
44	12675	990.7	7
44	12683	991.4	6
44	12694	992.108595341879	6
44	12699	992.413812528997	2
44	12709	993.219617327984	7
44	12716	993.725532456288	4
44	12724	994.132664703098	3
44	12730	994.540391940725	3
44	12737	995.043760990529	4
44	12744	995.545354884297	4
44	12754	996.151609014861	5
44	12762	996.755942617286	5
44	12779	998.057321501946	12
44	12789	998.866845827553	7
44	12814	1002.7	7
44	12831	1004.1	13
44	12842	1005.002338498395	8
44	12849	1005.505099712998	4
44	12860	1006.206460848619	6
44	12871	1007.109465962029	8
44	12878	1007.616856166429	4
44	12887	1008.126349340432	4
44	12893	1008.534338235619	3
44	12924	1013.3	13
44	12935	1014.1	7
44	12943	1014.701418500321	5
44	12960	1016.002799192121	12
44	12975	1017.309317361818	12
44	12995	1018.916797374937	15
44	13003	1019.526203149415	5
44	13016	1020.435523258359	8
44	13023	1020.945077910104	4
44	13032	1021.64613936288	6
44	13043	1022.35207370717	6
44	13071	1027	10
44	13081	1027.9	8
44	13093	1028.70116269421	7
44	13112	1030.210872790833	14
44	13121	1030.915194777742	6
44	13138	1032.224335769687	12
44	13151	1033.329637212524	10
44	13182	1037.6	16
44	13196	1038.7	10
44	13209	1039.80709984957	10
44	13220	1040.513214777554	6
44	13242	1042.31526604799	17
44	13249	1042.819764450617	4
44	13272	1044.72633955315	18
44	13279	1045.226591573769	4
44	13288	1045.929845679441	6
44	13309	1048.4	4
44	13314	1048.8	3
44	13327	1049.906904365308	10
44	13335	1050.312014562028	3
44	13349	1051.520750970108	11
44	13365	1052.721633199559	11
44	13390	1054.824206156498	20
44	13409	1056.331362702171	14
44	13420	1057.233301021121	8
44	13460	1062	20
44	13470	1062.9	8
44	13480	1063.701940625237	7
44	13493	1064.603850675918	8
44	13504	1065.508772875791	8
44	13518	1066.51632129693	9
44	13530	1067.525324495009	9
44	13539	1068.026558358364	4
44	13555	1069.427383085116	13
44	13568	1070.329805694664	8
44	13585	1071.834372822264	14
44	13603	1073.237264202294	13
44	13619	1074.440201854026	11
44	13639	1076.047059978002	15
44	13669	1081.3	13
44	13681	1082.2	8
44	13693	1083.20505364139	9
44	13706	1084.107798517357	8
44	13718	1085.115130770172	9
44	13724	1085.522332899587	3
44	13779	1088.7	7
44	13788	1089.5	7
44	13801	1090.408127033582	8
44	13821	1092.00995016639	15
44	13828	1092.511285070168	4
44	13836	1093.112450447437	5
44	13844	1093.714995010698	5
44	13856	1094.524596023254	7
44	13862	1094.928549712637	3
44	13882	1098.2	2
44	13895	1099.4	11
44	13911	1100.60395780662	11
44	13918	1101.10929156209	4
44	13934	1102.318052342314	11
44	13949	1103.625572989011	12
44	13953	1103.831953182817	1
44	13966	1104.738104853781	8
44	13972	1105.141796437517	3
44	13988	1106.35057730503	11
44	14011	1110.6	6
44	14024	1111.8	11
44	14043	1113.306290628344	14
44	14060	1114.612052170557	12
44	14078	1116.01877526716	13
44	14090	1117.021718193841	9
44	14113	1118.926110630236	18
44	14125	1119.931815188869	9
44	14157	1123.4	14
44	14166	1124	5
44	14183	1125.502406127473	14
44	14194	1126.211584413292	6
44	14198	1126.41611224019	1
44	14223	1130.7	7
44	14234	1131.7	9
44	14248	1132.702836624258	9
44	14261	1133.810855480672	10
44	14278	1135.120572164794	12
44	14287	1135.823618135756	6
44	14296	1136.331737081034	4
44	14307	1137.240947769785	8
44	14316	1137.941550209419	6
44	14331	1139.043984127707	10
44	14339	1139.649770138658	5
44	14354	1140.753786837014	10
44	14366	1141.758589539371	9
44	14397	1145.3	13
44	14408	1146.1	7
44	14422	1147.301096375307	11
44	14435	1148.20676213778	8
44	14458	1150.114384259585	18
44	14465	1150.621824151457	4
44	14493	1155	10
44	14510	1156.4	13
44	14514	1156.601487145463	1
44	14524	1157.317148377144	6
44	14546	1159.120876525245	17
44	14550	1159.329813648036	1
44	14563	1160.234415523477	8
44	14585	1162.040049248686	17
44	14609	1166.6	6
44	14615	1167.1	4
44	14636	1168.80464780827	16
44	14642	1169.212605509485	3
44	14648	1169.613014882259	3
44	14664	1170.81309106845	11
44	14672	1171.417086938487	5
44	14708	1175.8	18
44	14724	1177.1	12
44	14743	1178.601703365384	14
44	14761	1180.003863762476	13
44	14781	1181.806993509592	17
44	14801	1183.410859507641	15
44	14816	1184.518791611543	10
44	14823	1185.025282502166	4
44	14833	1185.829721073348	7
44	14853	1187.430947119053	15
44	14865	1188.238167576444	7
44	14877	1189.244074018633	9
44	14907	1193.3	13
44	14912	1193.7	3
44	14930	1195.101514938939	13
44	14967	1198.209185545369	30
44	14985	1199.810692113867	15
44	14994	1200.316287875108	4
44	15011	1201.824201327259	14
44	15030	1203.330964757252	14
44	15045	1204.438610242506	10
44	15061	1205.841464853899	13
44	15081	1207.446763614835	15
44	15096	1208.548130248756	10
44	15117	1210.249191775313	16
44	15133	1211.656700076728	13
44	15173	1216.1	21
44	15183	1217	8
44	15193	1217.804181083515	7
44	15205	1218.609787170451	7
44	15230	1220.717033841495	20
44	15317	1226.2	22
44	15356	1227.9	16
44	15372	1228.40362190383	4
44	15388	1229.010341028261	5
44	15404	1230.219576041486	11
44	15426	1232.020092215262	17
44	15435	1232.727320854366	6
44	15445	1233.527744816111	7
44	15459	1234.532217108586	9
44	15501	1240.2	22
44	15510	1241	7
44	15527	1242.309380272105	12
44	15540	1243.4147467171	10
44	15553	1244.316209027356	8
44	15567	1245.517803383619	11
44	15577	1246.120560153611	5
44	15591	1247.327221115243	11
44	15612	1250.5	5
44	15625	1251.7	11
44	15635	1252.213867358867	4
44	15641	1252.616980287955	3
44	15647	1253.020485474544	3
44	15653	1253.422542959602	3
44	15664	1254.124752975375	6
44	15675	1255.025868653944	8
44	15681	1255.43467056276	3
44	15688	1255.938490766088	4
44	15702	1256.938909878746	9
44	15708	1257.344549837376	3
44	15715	1257.85066528074	4
44	15747	1261.5	15
44	15759	1262.4	8
44	15783	1264.407839104153	19
44	15790	1264.911720868476	4
44	15816	1268.8	8
44	15832	1270.1	12
44	15838	1270.501199927632	3
44	15850	1271.510835459334	9
44	15867	1272.81097405695	12
44	15878	1273.711520122679	8
44	15895	1275.019614248436	12
44	15923	1279.3	13
44	15939	1280.6	12
44	15950	1281.502128463753	8
44	15963	1282.407303615242	8
44	15974	1283.308136245554	8
44	15999	1285.409299755873	20
44	16015	1286.618761477723	11
44	16026	1287.521901032439	8
44	16044	1288.929135176056	13
44	16076	1293.5	15
44	16085	1294.1	5
44	16091	1294.500421585272	3
44	16103	1295.509169596448	9
44	16117	1296.509923240424	9
44	16123	1296.91818657703	3
44	16127	1297.121824093977	1
44	16143	1298.328305766225	11
44	16161	1299.935812303904	15
44	16185	1301.94159831417	19
44	16219	1305.6	16
44	16234	1306.8	11
44	16242	1307.405909205283	5
44	16255	1308.308843305969	8
44	16268	1309.410737374402	10
44	16297	1311.916374299056	24
44	16314	1313.226085830489	12
44	16326	1314.033533551913	7
44	16341	1315.342368069257	12
44	16355	1316.344135143708	9
44	16367	1317.351743062315	9
44	16386	1318.857265769943	14
44	16411	1322.8	8
44	16416	1323.2	3
44	16428	1324.007586908829	7
44	16434	1324.408679231712	3
44	16447	1325.513881124609	10
44	16460	1326.416551737114	8
44	16470	1327.221195120193	7
44	16479	1327.924080823243	6
44	16492	1328.824207650052	8
44	16502	1329.628551093285	7
44	16514	1330.429526496986	7
44	16523	1331.136741208441	6
44	16546	1334.6	6
44	16558	1335.7	10
44	16572	1336.70596662346	9
44	16600	1339.11167087512	23
44	16620	1340.714122663754	15
44	16639	1342.217750898722	14
44	16665	1346.8	8
44	16680	1348	11
44	16694	1349.206403991566	11
44	16714	1350.809116835747	15
44	16726	1351.810419263859	9
44	16739	1352.71840889649	8
44	16751	1353.721570898757	9
44	16764	1354.625053469721	8
44	16784	1356.233014503797	15
44	16797	1357.336358378716	10
44	16813	1358.536751354912	11
44	16818	1358.841454643951	2
44	16835	1360.149054962537	12
44	16863	1365	10
44	16880	1366.4	13
44	16900	1368.008038252613	15
44	16914	1369.209202937085	11
44	16932	1370.617616623234	13
44	16945	1371.720960166085	10
44	16962	1373.024277502443	12
44	16981	1374.529464163454	14
44	16987	1374.931607558508	3
44	16993	1375.335758140727	3
44	17008	1376.436813944172	10
44	17032	1380.6	6
44	17044	1381.7	10
44	17055	1382.407820287924	6
44	17063	1383.013133073532	5
44	17078	1384.115587488998	10
44	17093	1385.420855393948	12
44	17110	1386.724833082561	12
44	17123	1387.827758294213	10
44	17137	1388.835621917468	9
44	17169	1393.4	14
44	17185	1394.7	12
44	17198	1395.803261495472	10
44	17204	1396.006980538318	1
44	17233	1401.1	11
44	17263	1403.8	26
44	17277	1404.805830941989	9
44	17286	1405.513051614367	6
44	17303	1406.82053095101	12
44	17384	1411.9	19
44	17403	1412.7	7
44	17439	1414.205925890633	14
44	17469	1415.514975863005	12
44	17495	1416.818038842444	12
44	17503	1417.422781440199	5
44	17519	1418.630434237979	11
44	17532	1419.738697978702	10
44	17550	1421.147011220028	13
44	17578	1425.2	12
44	17597	1426.8	15
44	17606	1427.505956452048	6
44	17627	1429.213108528569	16
44	17632	1429.521208742843	2
44	17703	1433.3	13
44	17730	1434.4	10
44	17742	1435.002444019375	5
44	17761	1436.503257108888	14
44	17767	1436.907067326701	3
44	17788	1438.608359952604	16
44	17797	1439.308892732288	6
44	17805	1439.912491145583	5
44	17821	1441.118718886703	11
44	17830	1441.825249922658	6
44	17851	1443.530946592994	16
44	17895	1448.5	25
44	17905	1449.4	8
44	17919	1450.405663812332	9
44	17929	1451.210219852697	7
44	17943	1452.21588633159	9
44	17949	1452.616387643092	3
44	17962	1453.718898657853	10
44	17971	1454.224974373834	4
44	17988	1455.731645035095	14
44	18014	1458.8	8
44	18037	1460.8	19
44	18066	1463.308846060375	24
44	18070	1463.51292830303	1
44	18080	1464.11814985189	5
44	18085	1464.426192639759	2
44	18097	1465.435335771008	9
44	18114	1466.735819513669	12
44	18153	1471	10
44	18161	1471.7	6
44	18174	1472.601716384561	8
44	18181	1473.105437848837	4
44	18197	1474.310046049003	11
44	18201	1474.512864543018	1
44	18212	1475.420784507514	8
44	18237	1479	10
44	18246	1479.8	7
44	18269	1481.708836229683	18
44	18283	1482.709274402472	9
44	18297	1483.917264299445	11
44	18316	1485.423706328716	14
44	18344	1489	10
44	18351	1489.6	5
44	18360	1490.101033282242	4
44	18367	1490.605951577531	4
44	18386	1492.108826483368	14
44	18404	1493.715967113243	15
44	18408	1493.921666255272	1
44	18416	1494.325845597262	3
44	18444	1499	10
44	18459	1500.2	11
44	18474	1501.504606446363	12
44	18489	1502.605003962379	10
44	18503	1503.8060711249	11
44	18531	1506.014644986043	21
44	18542	1506.922521731503	8
44	18548	1507.331671703263	3
44	18553	1507.640408124384	2
44	18571	1509.04900503943	13
44	18659	1514.5	25
44	18671	1515.6	10
44	18687	1516.808160836878	11
44	18698	1517.717631694169	8
44	18707	1518.221025415756	4
44	18718	1519.126379444258	8
44	18732	1520.134574907418	9
44	18740	1520.742253395021	5
44	18753	1521.847314652537	10
44	18765	1522.654952014693	7
44	18780	1523.961388390668	12
44	18808	1527	10
44	18822	1528.1	10
44	18829	1528.603550546888	4
44	18844	1529.911226339712	12
44	18864	1531.516409759213	15
44	18874	1532.122712055285	5
44	18887	1533.226755946433	10
44	18913	1535.434548658699	21
44	18932	1538.1	1
44	18937	1538.5	3
44	18946	1539.209558356904	6
44	18958	1540.010198893345	7
44	18967	1540.715269129386	6
44	18986	1542.219702411743	14
44	19003	1543.729477264496	14
44	19012	1544.238783439019	4
44	19021	1544.938999379354	6
44	19028	1545.441533017398	4
44	19061	1549.5	15
44	19073	1550.4	8
44	19084	1551.301615574075	8
44	19090	1551.70429924274	3
44	19100	1552.311263425889	5
44	19110	1553.113872708639	7
44	19120	1553.919851383103	7
44	19132	1554.724121240986	7
44	19171	1558.030630559246	32
44	19202	1563.3	13
44	19222	1565	16
44	19230	1565.609583239185	5
44	19239	1566.110136184838	4
44	19247	1566.716118056156	5
44	19257	1567.522448280557	7
44	19274	1568.830221242714	12
44	19297	1570.737556315358	18
44	19326	1575.1	11
44	19338	1576	8
44	19349	1576.909367394985	8
44	19370	1578.617329622832	16
44	19393	1580.525974988729	18
44	19405	1581.526711290191	9
44	19422	1582.836546217187	12
44	19452	1587.5	15
44	19483	1590.1	25
44	19491	1590.708062546567	5
44	19509	1592.117230349033	13
44	19526	1593.621646534645	14
44	19531	1593.922897925882	2
44	19545	1594.92685626293	9
44	19563	1596.329331831069	13
44	19584	1600.5	5
44	19590	1601	4
44	19610	1602.602527501336	15
44	19620	1603.40797146422	7
44	19638	1604.81500031792	13
44	19654	1606.020719416967	11
44	19670	1607.42333604687	13
44	19687	1608.730161861023	12
44	19697	1609.53879973971	7
44	19715	1610.947779286212	13
44	19738	1614.7	7
44	19762	1616.8	20
44	19782	1618.400064275166	15
44	19797	1619.709997154554	12
44	19814	1621.019844863839	12
44	19824	1621.820069501589	7
44	19835	1622.520396638939	6
44	19849	1623.729949220237	11
44	19864	1624.830490198877	10
44	19874	1625.632770526545	7
44	19899	1628.7	7
44	19903	1629	2
44	19909	1629.406156132959	3
44	19920	1630.110483805604	6
44	19928	1630.717731955947	5
44	19959	1633.422391603688	26
44	19971	1634.227394258679	7