version 2
run Join-70-20130429-12:52:25-17679
attr configname Join
attr datetime 20130429-12:52:25
attr experiment "\"Join\""
attr inifile omnetpp.ini
attr iterationvars $0=4096
attr iterationvars2 "$0=4096, $repetition=0"
attr measurement $0=4096
attr network Network
attr processid 17679
attr repetition 0
attr replication #0
attr resultdir results
attr runnumber 70
attr seedset 70

vector 70  Network.dyn_peer[0]  lookupHopsSig:vector  ETV
70	11421	21.426745030195	61
70	11498	29.5	55
70	11554	34.4	48
70	11606	39.007262842212	45
70	11650	42.808602366039	37
70	11706	47.818182178876	49
70	11741	50.725270048066	28
70	11772	53.434778884253	26
70	11831	60	40
70	11846	61.4	13
70	11869	63.30702718337	18
70	11888	64.815909496752	14
70	11908	66.425456925205	15
70	11919	67.325586629955	8
70	11965	71.332257923838	39
70	12011	75.337793943472	39
70	12029	76.742485164801	13
70	12049	78.351334929036	15
70	12071	80.152879519414	17
70	12105	83.156881559216	29
70	12140	86.061153595072	28
70	12231	92.5	25
70	12242	93	4
70	12366	98.705998364875	56
70	12430	101.713622527142	29
70	12529	106.221448808532	44
70	12591	111.823760370619	55
70	12614	113.733187843079	18
70	12645	116.241566999335	24
70	12676	118.94352867727	26
70	12722	122.948180678485	39
70	12760	126.150487185984	31
70	12806	130.160001845685	39
70	12858	134.763911353744	45
70	13018	143.9	59
70	13077	146.5	25
70	13175	150.908554664109	43
70	13227	153.312374971822	23
70	13269	155.217217789821	18
70	13376	161.224177420393	59
70	13412	164.225778578682	29
70	13422	165.031978616986	7
70	13653	176.9	89
70	13694	178.8	18
70	13730	180.205575246193	13
70	13748	181.013286968957	7
70	13832	184.719090525913	36
70	13892	187.52468898524	27
70	13948	190.328947085576	27
70	13978	195.5	15
70	14023	199.5	39
70	14047	201.504930799352	19
70	14066	203.011325073621	14
70	14085	204.516455183126	14
70	14115	207.123186792038	25
70	14182	213.026164703392	58
70	14214	215.828275363426	27
70	14251	218.937120346242	30
70	14297	222.944850998473	39
70	14315	224.352476944705	13
70	14331	225.760187765851	13
70	14385	230.362057260663	45
70	14520	238.6	46
70	14631	243.7	50
70	14719	248.406692695287	46
70	14784	254.10702315293	56
70	14796	255.109617081056	9
70	14870	261.713457273917	65
70	14909	265.022506799592	32
70	14918	265.724298618956	6
70	14950	268.333383460609	25
70	15032	275.7	37
70	15063	278.3	25
70	15109	282.301510916058	39
70	15133	284.310809925265	19
70	15173	287.913616349761	35
70	15215	291.517270887115	35
70	15247	294.12330156761	25
70	15303	299.130763407298	49
70	15317	300.131263187722	9
70	15333	301.53477839974	13
70	15343	302.139274438587	5
70	15349	302.543395169849	3
70	15355	302.952694540893	3
70	15396	306.454374702191	34
70	15442	312.6	26
70	15460	314.1	14
70	15488	316.508256584743	23
70	15504	317.910776917384	13
70	15568	323.520536888517	55
70	15596	325.929879688595	23
70	15623	328.031014443489	20
70	15685	333.633713932377	55
70	15718	337.7	17
70	15742	339.8	20
70	15778	342.804757847862	29
70	15802	344.811549522538	19
70	15823	346.521126974026	16
70	15864	350.022720807845	34
70	15881	351.526663719015	14
70	15947	358.7	47
70	15976	361.3	25
70	16026	365.70401881159	43
70	16046	367.30701484224	15
70	16093	371.407113393951	40
70	16183	376.5	25
70	16237	378.9	23
70	16277	380.707872527411	17
70	16309	382.009836834565	12
70	16405	386.417522801121	43
70	16475	389.622433429404	31
70	16515	391.92456649823	22
70	16556	396.4	24
70	16580	398.5	20
70	16618	401.908421968931	33
70	16631	402.809592776616	8
70	16660	405.316174042605	24
70	16729	411.422252154762	60
70	16746	412.727504707192	12
70	16797	417.231259673581	44
70	16832	420.134363211296	28
70	16855	422.04273686378	18
70	16904	426.343354320889	42
70	16961	430.9	9
70	17000	432.5	15
70	17072	435.802687805853	32
70	17144	438.912186580569	30
70	17218	442.213126496305	32
70	17246	443.620134568212	13
70	17276	446.020728275796	23
70	17289	447.125209078925	10
70	17314	449.23507094656	20
70	17390	457.6	56
70	17423	460.4	27
70	17453	463.003559031679	25
70	17486	465.911399860851	28
70	17517	468.414992585076	24
70	17531	469.621632002555	11
70	17551	471.228841061564	15
70	17598	477	30
70	17639	480.6	35
70	17709	486.80625229492	61
70	17780	493.108046133326	62
70	17851	499.408355544436	62
70	17906	504.1165575737	46
70	17960	508.925886412421	47
70	18027	514.833342330164	58
70	18061	517.835956360589	29
70	18117	522.641378195835	47
70	18165	526.844591722252	41
70	18228	534.1	41
70	18312	541.8	76
70	18331	543.303770187678	14
70	18369	546.510650835197	31
70	18378	547.218692457302	6
70	18398	548.821695310001	15
70	18411	549.922129907352	10
70	18424	550.831062663125	8
70	18469	556.7	27
70	18482	557.9	11
70	18518	560.904432965824	29
70	18557	564.211583617219	32
70	18607	568.621080847388	43
70	18612	568.922508315151	2
70	18620	569.531840607028	5
70	18626	569.936014203596	3
70	18664	573.139651602785	31
70	18695	577.3	13
70	18762	583.3	59
70	18776	584.301201743413	9
70	18827	588.810422557077	44
70	18847	590.418787886783	15
70	18935	598.223535143978	77
70	18960	600.328425448786	20
70	18977	601.837342510053	14
70	19039	607.243628224371	53
70	19085	611.250007811013	39
70	19132	615.358238037702	40
70	19179	619.465031956665	40
70	19235	624.266564205475	47
70	19284	631	30
70	19311	633.4	23
70	19327	634.606092317807	11
70	19357	637.208887874625	25
70	19365	637.808980894141	5
70	19397	640.417635516045	25
70	19410	641.526861670797	10
70	19470	646.727613409887	51
70	19506	649.936467041227	31
70	19538	652.536990751284	25
70	19623	658.2	22
70	19652	659.6	13
70	19736	663.301623818867	36
70	19814	666.905809472153	35
70	19906	671.114042437333	41
70	19918	671.62071900191	4
70	19988	674.722238031828	30
70	20061	682.7	47
70	20090	685.3	25
70	20128	688.500187292941	31
70	20166	691.90143563001	33
70	20201	694.803205557684	28
70	20242	698.30997698733	34
70	20293	705.1	31
70	20309	706.4	12
70	20373	712.000852048282	55
70	20436	717.702758645246	56
70	20472	720.707168860168	29
70	20489	722.00923817964	12
70	20505	723.410329749888	13
70	20552	729	30
70	20562	729.9	8
70	20590	732.105678756036	21
70	20617	734.41236692187	22
70	20627	735.217910309541	7
70	20661	738.027244128931	27
70	20697	741.235575064182	31
70	20713	742.444609530892	11
70	20727	743.648758986399	11
70	20760	746.355102942767	26
70	20815	753.5	35
70	20847	756.2	26
70	20881	759.209321126949	29
70	20965	766.61338960278	73
70	21029	772.217748162235	55
70	21070	775.91981315851	36
70	21134	782.2	42
70	21171	785.6	33
70	21201	788.009180176276	23
70	21252	792.516851509899	44
70	21259	793.02155429405	4
70	21276	794.331322384153	12
70	21293	795.835512493632	14
70	21321	798.043201761613	21
70	21365	804.4	24
70	21397	807.3	28
70	21479	814.500526137715	71
70	21514	817.605750650805	30
70	21544	820.010946448754	23
70	21571	822.315123242727	22
70	21584	823.418272282404	10
70	21594	824.023600630755	5
70	21609	825.329807705287	12
70	21629	826.931030778539	15
70	21724	835.43941803359	84
70	21999	848.7	107
70	22120	854.3	55
70	22152	855.808955594068	14
70	22172	856.809015824133	9
70	22216	860.61541831317	37
70	22228	861.621050255884	9
70	22255	863.923469149091	22
70	22283	866.132055080887	21
70	22337	873.6	36
70	22351	874.7	10
70	22397	878.704488516882	39
70	22454	883.812433240717	50
70	22469	884.920980363661	10
70	22499	887.528306156925	25
70	22537	890.732850676006	31
70	22555	892.138623445308	13
70	22614	897.440877839496	52
70	22642	899.846087498284	23
70	22703	905.15317064141	52
70	22718	906.260084633809	10
70	22739	910.5	5
70	22779	914	34
70	22816	917.302859307762	32
70	22851	920.204406212756	28
70	22868	921.707512588067	14
70	22894	923.9116248015	21
70	22911	925.220839170095	12
70	22928	926.526919226717	12
70	22937	927.231351358993	6
70	22977	930.633232503291	33
70	23030	937.3	33
70	23052	939.2	18
70	23076	941.200588848693	19
70	23104	943.60177195324	23
70	23113	944.106376094186	4
70	23152	947.606379540212	34
70	23199	951.710342598418	40
70	23221	953.515434580508	17
70	23262	957.018120474072	34
70	23295	961.5	15
70	23342	965.7	41
70	23409	971.606108103299	58
70	23476	977.508632669781	58
70	23508	980.112592612022	25
70	23555	984.219014495191	40
70	23618	989.928931271584	56
70	23679	996.2	42
70	23726	1000.4	41
70	23733	1000.90953804963	4
70	23784	1005.413191110794	44
70	23791	1005.919643342128	4
70	23802	1006.623800256115	6
70	23808	1007.030130615823	3
70	23815	1007.530819812439	4
70	23852	1010.631501205834	30
70	23865	1011.734616791005	10
70	23950	1020.2	62
70	23989	1023.8	35
70	24054	1029.508918165406	56
70	24104	1033.910258882175	43
70	24175	1040.013468155026	60
70	24244	1046.121203234375	60
70	24262	1047.724387110464	15
70	24274	1048.529809825077	7
70	24299	1050.637348822591	20
70	24311	1051.638266410716	9
70	24323	1052.439116617951	7
70	24350	1054.741284874782	22
70	24381	1057.443340886109	26
70	24421	1062	20
70	24459	1065.5	34
70	24496	1068.600522223059	30
70	24506	1069.402024354406	7
70	24519	1070.306988567206	8
70	24569	1074.70716624023	43
70	24581	1075.710439628884	9
70	24622	1079.220177419867	34
70	24657	1083.7	17
70	24667	1084.4	6
70	24675	1085.005557653007	5
70	24697	1086.81486831085	17
70	24741	1090.623886246811	37
70	24768	1092.925847451593	22
70	24794	1095.128929481717	21
70	24822	1099.3	13
70	24848	1101.6	22
70	24892	1105.407349966501	37
70	24928	1108.414851259025	29
70	24955	1110.722051371989	22
70	24976	1112.426740326377	16
70	25001	1114.531272886691	20
70	25029	1116.934042668549	23
70	25040	1117.836716463911	8
70	25057	1119.139592753872	12
70	25180	1126	40
70	25209	1127.4	13
70	25255	1129.403851072213	19
70	25281	1130.510547002551	10
70	25334	1132.91947169949	23
70	25370	1134.522023954428	15
70	25406	1136.022491356557	14
70	25484	1141.1	11
70	25523	1142.9	17
70	25583	1145.705325051338	27
70	25601	1146.407083815272	6
70	25714	1152.411208264085	59
70	25772	1157.61232241291	51
70	25825	1162.115922550269	44
70	25859	1165.118293751989	29
70	25872	1166.025290157323	8
70	25907	1169.13068617482	30
70	25979	1177	50
70	25998	1178.6	15
70	26002	1178.806987799529	1
70	26018	1180.009033833653	11
70	26027	1180.714891323532	6
70	26034	1181.219234417305	4
70	26046	1182.023648859952	7
70	26078	1187.7	17
70	26122	1191.6	38
70	26162	1195.003212780074	33
70	26199	1198.109108842603	30
70	26213	1199.312004267995	11
70	26241	1201.720525746925	23
70	26306	1207.420674844488	56
70	26350	1211.229111122387	37
70	26379	1213.738555743629	24
70	26389	1214.344178369438	5
70	26420	1217.049192223394	26
70	26452	1219.856744574281	27
70	26513	1225.161697946116	52
70	26558	1230.5	25
70	26567	1231.3	7
70	26581	1232.304951523069	9
70	26618	1235.606203461013	32
70	26644	1237.811381091965	21
70	26686	1241.415502195288	35
70	26746	1246.624580901679	51
70	26783	1249.92486530152	32
70	26797	1250.929661008921	9
70	26825	1253.339379205774	23
70	26869	1257.140093349263	37
70	26883	1258.144328864461	9
70	26895	1259.146996529614	9
70	26938	1264.4	24
70	26949	1265.4	9
70	26967	1266.807460974405	13
70	26998	1269.508406837688	26
70	27022	1271.513404461031	19
70	27075	1276.019937617447	44
70	27096	1277.92559118396	18
70	27136	1281.332954139703	33
70	27147	1282.04082035725	6
70	27171	1284.049568131931	19
70	27190	1285.759331914055	16
70	27245	1290.461486649994	46
70	27364	1297.9	39
70	27402	1301.2	32
70	27440	1304.40170655627	31
70	27484	1308.209199029942	37
70	27520	1311.410095503748	31
70	27554	1314.210578078807	27
70	27572	1315.818672280642	15
70	27637	1321.525461135534	56
70	27677	1324.934420254681	33
70	27692	1326.037122293774	10
70	27747	1333.5	35
70	27777	1336	24
70	27803	1338.200548857352	21
70	27842	1341.704762077903	34
70	27886	1345.511027130969	37
70	27904	1346.919828445976	13
70	27944	1350.324533074432	33
70	28012	1358.9	49
70	28055	1362.7	37
70	28094	1366.008502064184	32
70	28132	1369.408766796486	33
70	28191	1374.512139160991	50
70	28262	1380.816463484318	62
70	28334	1387.222163318927	63
70	28357	1389.122632462236	18
70	28386	1391.62690045004	24
70	28411	1393.735709407511	20
70	28433	1395.542710309275	17
70	28456	1397.449253690919	18
70	28500	1401.250720340338	37
70	28618	1407.9	39
70	28759	1414.300658849999	63
70	28891	1420.508881507801	61
70	28913	1421.410858986977	8
70	28983	1424.611124362068	31
70	29046	1427.419053615706	27
70	29113	1430.420813471264	29
70	29177	1433.526097444439	30
70	29193	1434.728618275035	11
70	29240	1438.837790883561	40
70	29279	1444.1	21
70	29341	1449.8	56
70	29386	1453.704813185529	38
70	29431	1457.612325082241	38
70	29462	1460.119920636051	24
70	29473	1461.024685410297	8
70	29518	1464.927354907915	38
70	29544	1467.133986063953	21
70	29583	1470.436678035864	32
70	29627	1474.244745877319	37
70	29660	1477.151283411531	28
70	29702	1480.753173507792	35
70	29793	1486.5	25
70	29848	1489.1	25
70	29878	1490.307412303225	11
70	29920	1492.210757093226	18
70	29991	1495.720559649361	34
70	30037	1499.725023645591	39
70	30085	1503.92891356759	41
70	30115	1506.337509724975	23
70	30161	1512.8	28
70	30205	1516.7	38
70	30230	1518.800897054232	20
70	30269	1522.109164012872	32
70	30280	1523.012374910578	8
70	30323	1526.720060785958	36
70	30376	1533.3	33
70	30383	1533.9	5
70	30438	1538.60729566134	46
70	30501	1544.114042405844	54
70	30527	1546.318881421791	21
70	30555	1548.720881353096	23
70	30585	1551.329777285066	25
70	30612	1553.63844926717	22
70	30644	1556.243864525661	25
70	30697	1560.949664130105	46
70	30705	1561.556007236131	5
70	30733	1565	10
70	30754	1566.8	17
70	30764	1567.604126493523	7
70	30799	1570.511584189061	28
70	30850	1575.018504406772	44
70	30899	1579.324546832802	42
70	30938	1582.626051841109	32
70	30997	1590	40
70	31030	1593	29
70	31067	1596.105083762186	30
70	31169	1605.312302507597	91
70	31195	1607.51679204818	21
70	31219	1609.525920876757	19
70	31238	1611.026301109333	14
70	31255	1612.328503046071	12
70	31304	1616.634912047738	42
70	31499	1627.3	73
70	31560	1630.1	27
70	31678	1635.506626297847	53
70	31752	1639.110050458998	35
70	31800	1643.312145023175	41
70	31873	1649.815486194199	64
70	31914	1653.316874008219	34
70	31948	1656.126345457726	27
70	31998	1660.5267151932	43
70	32029	1663.230757142817	26
70	32168	1670.8	48
70	32187	1671.7	8
70	32253	1674.506206375721	27
70	32341	1678.409743122523	38
70	32361	1679.212579789461	7
70	32431	1682.319301579174	30
70	32469	1684.323225426199	19
70	32521	1688.932697259171	45
70	32568	1693.037348352982	40
70	32657	1699.1	31
70	32687	1701.8	26
70	32748	1707.109558102882	52
70	32772	1709.115641759363	19
70	32800	1711.523712114036	23
70	32849	1715.828852097756	42
70	32871	1717.630150018095	17
70	32896	1719.736010654541	20
70	32925	1722.039271664021	22
70	32983	1727.239451184119	51
70	33019	1731.8	18
70	33051	1734.5	26
70	33107	1739.504172904323	49
70	33131	1741.504917713011	19
70	33169	1744.712986454189	31
70	33195	1746.915306302717	21
70	33210	1748.01633611501	10
70	33237	1750.316462352816	22
70	33263	1752.518618656967	21
70	33278	1753.821856834625	12
70	33321	1758.3	23
70	33343	1760.2	18
70	33365	1762.000190967591	17
70	33404	1765.504824527471	34
70	33435	1768.005843963286	24
70	33451	1769.414560736851	13
70	33487	1772.414782464208	29
70	33512	1774.524065438601	20
70	33536	1776.529363343844	19
70	33573	1779.838563432707	32
70	33608	1782.742146335842	28
70	33643	1785.851066970186	30
70	33663	1787.457289349971	15
70	33686	1789.357774672462	18
70	33715	1791.860134826794	24
70	33762	1795.961733494037	40
70	33819	1801.7	37
70	33877	1806.8	50
70	33938	1812.102140735583	52
70	33954	1813.510698292406	13
70	33980	1815.714039494203	21
70	34004	1817.720170582298	19
70	34048	1821.525023540645	37
70	34089	1825.027587961338	34
70	34114	1827.130540666792	20
70	34142	1829.532286832807	23
70	34168	1831.739153739401	21
70	34222	1837.5	35
70	34270	1841.8	42
70	34292	1843.602752218714	17
70	34336	1847.411658327276	37
70	34385	1851.721630438695	42
70	34433	1855.924103716347	41
70	34475	1859.528520517375	35
70	34538	1866.4	44
70	34546	1867.1	6
70	34582	1870.104299582594	29
70	34598	1871.512374956509	13
70	34639	1875.01901528871	34
70	34650	1875.924011653501	8
70	34656	1876.127154055589	1
70	34675	1877.831475461679	16
70	34690	1878.932589463516	10
70	34733	1882.639753624094	36
70	34746	1883.745998882404	10
70	34794	1887.947118211714	41
70	34816	1889.749137630178	17
70	34859	1894.5	25
70	34905	1898.6	40
70	34951	1902.603230408101	39
70	34995	1906.406606942791	37
70	35050	1911.312556978304	48
70	35091	1914.814679224535	34
70	35107	1916.023967321626	11
70	35127	1917.826846915987	17
70	35151	1919.828260267845	19
70	35192	1923.328607246086	34
70	35216	1925.336423987247	19
70	35258	1928.940112703616	35
70	35288	1931.548650056243	25
70	35311	1933.456647907156	18
70	35334	1935.364201966564	18
70	35385	1941.1	31
70	35449	1946.8	56
70	35481	1949.601063025237	27
70	35544	1955.106603175331	54
70	35558	1956.106966721836	9
70	35571	1957.21212263651	10
70	35597	1959.417568269109	21
70	35608	1960.124318297752	6
70	35656	1964.331171507979	41
70	35745	1974	60
70	35780	1977.2	31
70	35807	1979.50047783517	22
70	35827	1981.105385722547	15
70	35840	1982.008921654591	8
70	35848	1982.617270492425	5
70	35856	1983.221133427012	5
70	35869	1984.129647085347	8
70	35895	1986.336506001787	21
70	36074	1996.5	65
70	36129	1999.1	25
70	36157	2000.303102000891	11
70	36222	2004.609602261264	42
70	36276	2009.417971947513	47
70	36291	2010.526321533029	10
70	36327	2013.733900841379	31
70	36350	2015.641328796101	18
70	36368	2017.04755914169	13
70	36400	2019.850201696398	27
70	36498	2028.456957404795	85
70	36567	2032.3	3
70	36600	2033.3	9
70	36712	2036.703902398438	33
70	36901	2042.705810682919	59
70	36951	2044.907701986645	21
70	37005	2047.308263375317	23
70	37104	2053.408901074074	60
70	37196	2063.1	71
70	37240	2067	38
70	37299	2072.107199617254	50
70	37350	2076.609756982766	44
70	37407	2081.717255923037	50
70	37466	2086.823383585323	50
70	37520	2091.628066534787	47
70	37601	2099.9	59
70	37646	2103.9	39
70	37681	2106.808431369964	28
70	37707	2109.015529832941	21
70	37722	2110.123223532306	10
70	37770	2114.327664333614	41
70	37793	2116.228448211752	18
70	37859	2122.037935208444	57
70	37916	2129.7	37
70	37991	2136.3	65
70	38028	2139.603865982294	32
70	38050	2141.405603373723	17
70	38069	2142.912335904477	14
70	38101	2145.712708559973	27
70	38116	2146.821375383884	10
70	38141	2148.928588372106	20
70	38164	2150.837886951354	18
70	38202	2154.047716537595	31
70	38369	2164	60
70	38400	2165.4	13
70	38486	2169.303019908061	38
70	38544	2171.906104706022	25
70	38641	2176.91281852851	49
70	38683	2180.522134258976	35
70	38737	2185.3295590461	47
70	38794	2190.236721066953	48
70	38828	2195.8	18
70	38872	2199.7	38
70	38931	2204.805117699187	50
70	38960	2207.310406921859	24
70	39018	2212.316154193076	49
70	39075	2217.419221765681	50
70	39142	2223.319266675811	58
70	39163	2226.6	6
70	39183	2228.3	16
70	39228	2232.207225173343	38
70	39272	2236.007695430544	37
70	39292	2237.813670905245	17
70	39332	2241.215529506032	33
70	39346	2242.225505735643	9
70	39407	2247.726273493305	54
70	39428	2249.433947777495	16
70	39456	2251.835506704392	23
70	39486	2254.242776869522	23
70	39523	2257.547272120642	32
70	39555	2260.148125248586	25
70	39613	2265	10
70	39727	2270.3	52
70	39769	2272.109282692421	17
70	39814	2274.110139850007	19
70	39877	2277.01691517386	28
70	39971	2281.320004954157	42
70	40065	2285.624500628726	42
70	40106	2287.431465594114	17
70	40351	2299.4	94
70	40392	2301.2	17
70	40462	2304.304498507527	30
70	40517	2307.011313400124	26
70	40570	2311.720693630969	46
70	40595	2313.825982532298	20
70	40628	2316.52865386082	26
70	40695	2322.431487094558	58
70	40746	2326.937053430095	44
70	40806	2334	40
70	40825	2335.8	17
70	40841	2337.000830188449	11
70	40850	2337.706755298948	6
70	40868	2339.114876756371	13
70	40948	2346.122222651381	69
70	41012	2351.925648754653	57
70	41046	2354.730197882584	27
70	41076	2357.333026087183	25
70	41125	2362.9	29
70	41143	2364.4	14
70	41192	2368.702801202367	42
70	41223	2371.406916560436	26
70	41263	2374.812693802435	33
70	41269	2375.218567709536	3
70	41290	2376.928436779528	16
70	41309	2378.428729283287	14
70	41351	2384.2	22
70	41380	2386.8	25
70	41441	2392.107513411107	52
70	41493	2396.713100021515	45
70	41536	2400.422205242939	36
70	41574	2403.831135767172	33
70	41605	2406.33887190171	24
70	41662	2411.445537769423	50
70	41748	2420.4	64
70	41764	2421.9	14
70	41820	2426.705776362346	47
70	41866	2430.70965763561	39
70	41937	2437.017122984379	62
70	41962	2439.119328125097	20
70	42001	2442.427281634589	32
70	42043	2446.027693545664	35
70	42112	2452.136790212948	60
70	42170	2459.9	39
70	42219	2464.1	41
70	42279	2469.507239219876	53
70	42306	2471.808912501329	22
70	42322	2473.013863517596	11
70	42344	2474.815373125887	17
70	42389	2478.724069657628	38
70	42430	2484.1	21
70	42464	2487.2	30
70	42502	2490.409157566316	31
70	42518	2491.81439621682	13
70	42556	2495.023179334715	31
70	42577	2496.731210558399	16
70	42633	2503.6	36
70	42666	2506.4	27
70	42712	2510.403132218013	39
70	42756	2514.2044185259	37
70	42772	2515.612999308411	13
70	42820	2519.817726911347	41
70	42893	2526.122337688064	62
70	42938	2532.8	28
70	42960	2534.7	18
70	42977	2536.005966810628	12
70	42983	2536.409718438901	3
70	42999	2537.812574798734	13
70	43013	2538.813612755254	9
70	43035	2540.620553723304	17
70	43066	2543.321432068997	26
70	43093	2545.628021654507	22
70	43140	2549.735457856945	40
70	43153	2550.636834402495	8
70	43219	2558.4	44
70	43256	2561.8	33
70	43324	2567.800895764711	59
70	43392	2573.807928200347	59
70	43428	2576.812628340692	29
70	43467	2580.119918128856	32
70	43494	2582.424155656083	22
70	43569	2591.6	56
70	43583	2592.7	10
70	43604	2594.409532280361	16
70	43624	2596.016556132663	15
70	43632	2596.62639635264	5
70	43679	2600.726901594198	40
70	43735	2605.736212534152	49
70	43776	2609.244895553658	34
70	43847	2616.9	49
70	43872	2619.1	21
70	43880	2619.70580499791	5
70	43892	2620.506894538893	7
70	43902	2621.316682820745	7
70	43926	2623.323477822743	19
70	43942	2624.52439025345	11
70	43979	2627.825872486501	32
70	44053	2631.8	18
70	44088	2633.4	15
70	44119	2634.604091283553	11
70	44163	2636.510103553617	18
70	44195	2639.310220821608	27
70	44232	2642.418216939129	30
70	44258	2644.618370039724	21
70	44270	2645.618412998037	9
70	44310	2649.028301847635	33
70	44341	2651.73111614895	26
70	44367	2653.936441041742	21
70	44377	2654.545015929623	5
70	44399	2656.354702366455	17
70	44486	2662.8	28
70	44519	2665.8	29
70	44585	2671.6061418853	57
70	44622	2674.71102094537	30
70	44689	2680.618654497951	58
70	44756	2686.519940149072	58
70	44858	2695.728935677823	91
70	44900	2699.337656949143	35
70	44959	2704.446134109633	50
70	45002	2708.147618296314	36
70	45022	2709.956330445061	17
70	45051	2712.258589619569	22
70	45079	2714.659357107566	23
70	45137	2721.8	38
70	45157	2723.5	16
70	45206	2727.806419354174	42
70	45237	2730.316044661975	24
70	45263	2732.516850995544	21
70	45300	2735.823402696935	32
70	45357	2740.728385704793	48
70	45369	2741.73021891711	9
70	45410	2745.238303463633	34
70	45423	2746.146836075013	8
70	45463	2752	20
70	45510	2756.2	41
70	45537	2758.500897401645	22
70	45557	2760.107686985937	15
70	45596	2763.611267354358	34
70	45642	2767.616430162589	39
70	45662	2769.225902501753	15
70	45700	2772.428024588598	31
70	45716	2773.829162413159	13
70	45754	2777.036079301107	31
70	45828	2785.3	53
70	45876	2789.6	42
70	45922	2793.603680225906	39
70	45944	2795.410591729182	17
70	45978	2798.210798745729	27
70	46005	2800.518846027127	22
70	46026	2802.220387894671	16
70	46042	2803.624995254726	13
70	46081	2806.927230600461	32
70	46090	2807.633198509246	6
70	46111	2809.337866770852	16
70	46139	2811.742403336631	23
70	46197	2817.8	38
70	46259	2823.3	54
70	46289	2825.907956241872	25
70	46318	2828.214120668221	22
70	46376	2833.423714912938	51
70	46400	2835.425609938652	19
70	46463	2840.92621848264	54
70	46515	2847.5	35
70	46520	2847.9	3
70	46565	2851.809814118968	38
70	46600	2854.713053682736	28
70	46742	2861.2	32
70	46873	2867.3	60
70	46907	2868.809838271902	14
70	46926	2870.310081485367	14
70	46953	2872.617233532123	22
70	46999	2876.62060082027	39
70	47011	2877.626016987825	9
70	47054	2881.332445689823	36
70	47081	2883.639251532122	22
70	47126	2888.5	25
70	47136	2889.4	8
70	47176	2892.80026946851	33
70	47218	2896.402518205264	35
70	47234	2897.812095354074	13
70	47255	2899.51862269815	16
70	47277	2901.321944046844	17
70	47302	2903.430424825753	20
70	47309	2903.933465797348	4
70	47366	2908.838545500055	48
70	47509	2916.8	48
70	47522	2917.4	5
70	47670	2924.105218006984	66
70	47717	2927.506227695789	33
70	47754	2930.615032195419	30
70	47794	2934.022158942651	33
70	47829	2937.122725085865	30
70	47869	2940.52690358329	33
70	47916	2944.635472811696	40
70	48015	2951	30
70	48030	2951.7	6
70	48108	2955.202176058478	34
70	48116	2955.506985482721	2
70	48160	2957.407958309835	18
70	48261	2962.009100072023	45
70	48307	2966.013574522845	39
70	48336	2968.522620012529	24
70	48362	2970.724821589891	21
70	48387	2972.829679384554	20
70	48403	2974.032894002554	11
70	48435	2976.836033775506	27
70	48453	2978.242626070394	13
70	48492	2981.750420262114	34
70	48535	2986.4	24
70	48579	2990.3	38
70	48623	2994.106703599872	37
70	48648	2996.20796964174	20
70	48656	2996.808900378494	5
70	48709	3001.515476316698	46
70	48733	3003.523278533811	19
70	48780	3007.630026833803	40
70	48825	3011.533595277365	38
70	48866	3015.041262592569	34
70	48903	3018.149167223291	30
70	48967	3023.955026151773	57
70	49029	3030.2	42
70	49067	3033.7	34
70	49122	3038.404754512086	46
70	49144	3040.211248586337	17
70	49185	3043.91945943584	36
70	49239	3048.523036526802	45
70	49249	3049.323622504339	7
70	49294	3053.224345163499	38
70	49319	3055.331710727287	20
70	49368	3059.632086480744	42
70	49413	3063.534750209608	38
70	49437	3065.541856917337	19
70	49608	3074.2	62
70	49633	3075.4	11
70	49661	3076.504060268874	10
70	49687	3077.70429249375	11
70	49797	3082.707476695038	49
70	49829	3084.110548275567	13
70	49899	3087.316647462553	31
70	49921	3088.220139918501	8
70	49952	3089.721771173378	14
70	49971	3091.224976814744	14
70	50006	3094.128284911942	28
70	50045	3100.1	21
70	50086	3103.9	37
70	50114	3106.101813108127	21
70	50137	3108.011460130377	18
70	50154	3109.511720943857	14
70	50195	3113.013996984621	34
70	50199	3113.221355641202	1
70	50267	3120.6	46
70	50285	3122.1	14
70	50298	3123.202645907939	10
70	50363	3128.908899825079	56
70	50429	3134.7123905813	57
70	50455	3136.918901786737	21
70	50497	3142.2	22
70	50522	3144.4	21
70	50534	3145.402616892186	9
70	50553	3146.90353832261	14
70	50658	3153	30
70	50699	3154.8	17
70	50801	3159.50923760513	46
70	50847	3163.01194810402	34
70	50863	3164.216539101406	11
70	50881	3165.816763495191	15
70	50916	3168.726245610639	28
70	50938	3170.532048645137	17
70	51001	3176.034235601582	54
70	51009	3176.635166259141	5
70	51034	3178.744405532806	20
70	51054	3180.352530929039	15
70	51101	3184.457206409934	40
70	51122	3186.162678365653	16
70	51140	3187.77249649658	15
70	51173	3190.474177461572	26
70	51245	3199.1	51
70	51266	3200.9	17
70	51295	3203.409839992038	24
70	51341	3207.417850422588	39
70	51386	3211.319675385387	38
70	51434	3215.523673223735	41
70	51522	3224.4	64
70	51570	3228.7	42
70	51614	3232.507431624482	37
70	51674	3237.915191551557	53
70	51694	3239.519806821263	15
70	51747	3244.022228102412	44
70	51789	3247.825432764271	37
70	51828	3252.2	22
70	51845	3253.8	15
70	51864	3255.303238339989	14
70	51910	3259.304353019892	39
70	51957	3263.410738696217	40
70	51978	3265.119977770027	16
70	52026	3269.322686107473	41
70	52072	3273.323980720336	39
70	52142	3279.532142677555	61
70	52188	3283.535652369534	39
70	52216	3285.939190381044	23
70	52257	3289.446893773938	34
70	52315	3295.8	38
70	52354	3299.2	33
70	52400	3303.20868853368	39
70	52462	3308.614308025419	53
70	52520	3313.814788407977	51
70	52574	3318.416706843488	45
70	52634	3323.822373344576	53
70	52749	3335.2	92
70	52799	3339.7	44
70	52854	3344.402046268072	46
70	52881	3346.707983403754	22
70	52947	3352.511277666947	57
70	53012	3358.212560900042	56
70	53037	3360.315687631298	20
70	53082	3364.220743557404	38
70	53109	3366.521936004998	22
70	53156	3370.631166739533	40
70	53190	3373.640563283399	29
70	53271	3378	20
70	53292	3379	9
70	53346	3381.40826490106	23
70	53409	3385.910047381717	44
70	53427	3387.312094407334	13
70	53484	3392.2132763102	48
70	53513	3394.717276647102	24
70	53536	3396.624709766301	18
70	53590	3403.6	36
70	53626	3406.7	30
70	53683	3411.807789001814	50
70	53757	3418.216810267921	63
70	53763	3418.624791154181	3
70	53803	3422.025725961836	33
70	53855	3426.62798975606	45
70	53904	3430.934247081396	42
70	53978	3437.536972308568	65
70	54045	3443.446920937387	58
70	54195	3451.4	54
70	54232	3453.1	16
70	54292	3456.106156652448	29
70	54311	3457.814033801084	16
70	54341	3460.222953758056	23
70	54367	3462.423043163034	21
70	54428	3467.930700653332	54
70	54481	3472.433914192092	44
70	54517	3475.642798488988	31
70	54569	3480.052424381676	43
70	54662	3486.4	24
70	54701	3488.2	17
70	54782	3491.908298189816	36
70	54806	3492.915591271539	9
70	54826	3493.818207708122	8
70	54898	3497.026693786289	31
70	54980	3500.735150366201	36
70	55091	3507	30
70	55173	3511.8	47
70	55229	3516.609164402824	47
70	55295	3522.414544725617	57
70	55302	3522.920918249838	4
70	55318	3524.125876204798	11
70	55330	3525.130984654285	9
70	55384	3531.7	37
70	55397	3532.7	9
70	55462	3538.403933141236	56
70	55470	3539.010401118944	5
70	55493	3540.920064255622	18
70	55531	3544.129270460562	31
70	55587	3549.138986440774	49
70	55631	3554.7	27
70	55649	3556.2	14
70	55676	3558.500096210441	22
70	55730	3563.303613841242	47
70	55768	3566.508490017263	31
70	55797	3569.018080800233	24
70	55824	3571.323853256883	22
70	55847	3573.223989142008	18
70	55899	3577.830904985061	45
70	55998	3587.5	75
70	56033	3590.5	29
70	56047	3591.701525082124	11
70	56062	3592.803122815789	10
70	56085	3594.711878956033	18
70	56159	3601.320353115702	65
70	56182	3603.228007784602	18
70	56199	3604.532068357942	12
70	56221	3606.341741869807	17
70	56274	3611.044485830349	46
70	56411	3618.5	45
70	56450	3620.3	17
70	56516	3623.306597664351	29
70	56556	3625.010926686655	16
70	56564	3625.215549638561	1
70	56601	3628.316624575251	30
70	56645	3632.118358517029	37
70	56664	3633.8254583794	16
70	56708	3637.632022082647	37
70	56734	3639.833162920046	21