version 2
run Join-71-20130429-12:52:37-17679
attr configname Join
attr datetime 20130429-12:52:37
attr experiment "\"Join\""
attr inifile omnetpp.ini
attr iterationvars $0=4096
attr iterationvars2 "$0=4096, $repetition=1"
attr measurement $0=4096
attr network Network
attr processid 17679
attr repetition 1
attr replication #1
attr resultdir results
attr runnumber 71
attr seedset 71

vector 71  Network.dyn_peer[0]  lookupHopsSig:vector  ETV
71	11460	22.7315266877	43
71	11467	23.239671994683	4
71	11504	26.345597291952	30
71	11535	29.050358122114	26
71	11565	33.2	12
71	11586	35	17
71	11609	36.90939042434	18
71	11631	38.709429877713	17
71	11648	40.015070990808	12
71	11674	42.223925469263	21
71	11692	43.829204944499	15
71	11708	45.036036486752	11
71	11728	46.638972384646	15
71	11761	49.541093195083	28
71	11785	51.550713517521	19
71	11810	53.653363819957	20
71	11831	55.354665022719	16
71	11849	56.761044767965	13
71	11937	66.5	65
71	11960	68.5	19
71	12025	74.200136374114	56
71	12063	77.606178157573	33
71	12078	78.713278602246	10
71	12105	81.018982813643	22
71	12143	84.224540453416	31
71	12171	86.62605900187	23
71	12200	89.129790605571	24
71	12227	91.436012271515	22
71	12282	96.138568381239	46
71	12356	102.9	29
71	12376	104.6	16
71	12400	106.605180595298	19
71	12421	108.310115675888	16
71	12469	112.519326934503	41
71	12527	117.722738010034	51
71	12572	121.630764467884	38
71	12659	130.3	63
71	12690	133.1	27
71	12725	136.009202192705	28
71	12756	138.710945469229	26
71	12782	140.918665227568	21
71	12829	145.024180406275	40
71	12869	148.432212181874	33
71	12915	154.9	29
71	12958	158.7	37
71	12970	159.700898431588	9
71	12982	160.507001219128	7
71	13027	164.407835040482	38
71	13041	165.615185695533	11
71	13071	168.01885600161	23
71	13102	170.719600940262	26
71	13132	173.326984178625	25
71	13160	175.729577942063	23
71	13199	179.033486073942	32
71	13215	180.241161696655	11
71	13249	183.247709592595	29
71	13283	186.04983232148	27
71	13300	187.550404970881	14
71	13379	195.7	57
71	13414	198.7	29
71	13449	201.808968775782	30
71	13472	203.715950123588	18
71	13513	207.22013641344	34
71	13527	208.222132898695	9
71	13581	213.024754806456	47
71	13665	220.433031352473	73
71	13839	227.7	37
71	13983	232.1	43
71	14084	235.209633796697	30
71	14158	238.116565256081	28
71	14272	243.318942016649	51
71	14310	244.927396250974	15
71	14380	248.135527125656	31
71	14441	254.2	22
71	14491	258.7	44
71	14538	262.803330515448	40
71	14562	264.804950061484	19
71	14594	267.61369087732	27
71	14626	270.217142541593	25
71	14662	273.418867828418	31
71	14682	275.024763964498	15
71	14709	277.328375781876	22
71	14729	278.931148297871	15
71	14771	282.538896194086	35
71	14822	289.2	32
71	14856	292.1	28
71	14911	297.008447924689	48
71	14940	299.512353250188	24
71	14987	303.616235451597	40
71	15030	307.317395482539	36
71	15050	308.925202581135	15
71	15087	312.026202181398	30
71	15231	324.6	86
71	15252	326.4	17
71	15290	329.807953252813	33
71	15320	332.214965098297	23
71	15331	333.121238251376	8
71	15348	334.429553229185	12
71	15381	337.335157550294	28
71	15452	341.6	16
71	15539	345.6	39
71	15601	348.204783330408	25
71	15637	349.904942810162	16
71	15661	350.91068470179	9
71	15699	352.510923806199	15
71	15735	354.01419471811	14
71	15896	363.6	56
71	15914	365.1	14
71	15951	368.20342720868	30
71	15997	372.205772831755	39
71	16028	374.907251934731	26
71	16057	377.41503047344	24
71	16081	379.416550445612	19
71	16230	387.2	52
71	16281	389.5	22
71	16329	391.709705723917	21
71	16387	394.115282192907	23
71	16425	395.921632879603	17
71	16470	398.424762525982	24
71	16527	403.524884679727	50
71	16559	406.124905491585	25
71	16575	407.534013011166	13
71	16596	409.239710311541	16
71	16623	411.541639851704	22
71	16643	413.144317897646	15
71	16663	414.745878390035	15
71	16687	416.751279803899	19
71	16729	422.2	22
71	16799	428.5	62
71	16828	431.005511234789	24
71	16859	433.709326377147	26
71	16870	434.415416841524	6
71	16912	438.023543663072	35
71	16949	441.328707889929	32
71	16964	442.434179111726	10
71	17006	446.042530413202	35
71	17034	448.445650955934	23
71	17047	449.555454469685	10
71	17072	452.9	9
71	17110	456.2	32
71	17148	459.609379551478	33
71	17190	463.219233924799	35
71	17233	466.920855216715	36
71	17244	467.828493172522	8
71	17280	470.831584680255	29
71	17325	474.740239604818	38
71	17358	477.646542344313	28
71	17396	480.848456842073	31
71	17420	482.853487377672	19
71	17439	484.358231616639	14
71	17466	486.660904448693	22
71	17485	488.161091254557	14
71	17542	493.270078149212	50
71	17611	499.379610529504	60
71	17647	503.8	18
71	17685	507.1	32
71	17749	512.700201663591	55
71	17769	514.307875745337	15
71	17779	515.109568150845	7
71	17820	518.613531585906	34
71	17840	520.214249098058	15
71	17879	523.720370054388	34
71	17924	528.5	25
71	18000	535.4	68
71	18036	538.40448377296	29
71	18059	540.313211867589	18
71	18069	541.116089489039	7
71	18095	543.324481048095	21
71	18134	546.632736811325	32
71	18169	549.740305872465	30
71	18218	555.1	31
71	18227	555.9	7
71	18261	558.705895178497	27
71	18305	562.515028153531	37
71	18342	565.822241841588	32
71	18402	571.029923231527	51
71	18454	577.2	32
71	18469	578.4	11
71	18506	581.707444930609	32
71	18523	583.014261575482	12
71	18550	585.320162329898	22
71	18557	585.827848828507	4
71	18580	587.729136413393	18
71	18610	590.13049474937	23
71	18657	594.237659958413	40
71	18671	595.439461550254	11
71	18700	597.94093327369	24
71	18710	598.548354500752	5
71	18722	599.5541592465	9
71	18749	601.85743187673	22
71	18769	603.466533306195	15
71	18925	611.4	54
71	18966	615	35
71	18997	617.70564446228	26
71	19015	619.112911662619	13
71	19044	621.61878987237	24
71	19085	625.120328839536	34
71	19140	631.5	35
71	19158	633	14
71	19164	633.409036058827	3
71	19209	637.318400404738	38
71	19246	640.423770356414	30
71	19276	643.029108138741	25
71	19302	645.237213671016	21
71	19332	647.844198960915	25
71	19377	651.748594643843	38
71	19436	657.9	39
71	19477	661.5	35
71	19495	662.902435820049	13
71	19580	670.409333668425	74
71	19602	672.211751819801	17
71	19621	673.921545392727	16
71	19641	675.528031122934	15
71	19685	679.330358374701	37
71	19826	686.9	49
71	19901	690.3	33
71	19951	693.708595802108	33
71	19988	696.810487929123	30
71	20027	700.118514751993	32
71	20064	703.422323370159	32
71	20110	707.425216972294	39
71	20135	711	10
71	20173	714.3	32
71	20207	717.309699621738	29
71	20232	719.415296131262	20
71	20271	722.715334998412	32
71	20294	724.616239286396	18
71	20301	725.117721955832	4
71	20325	727.124968803501	19
71	20332	727.62691596965	4
71	20387	730.8	8
71	20436	732.9	20
71	20512	736.309183225536	33
71	20582	739.517011336851	31
71	20684	744.717507585852	51
71	20706	746.51751803377	17
71	20737	749.222428713075	26
71	20765	751.625136175946	23
71	20900	759.1	51
71	20914	760.2	10
71	20952	763.608770828472	33
71	20974	765.411108983223	17
71	21023	769.717170877022	42
71	21033	770.319713920118	5
71	21049	771.728716423561	13
71	21089	775.138461337115	33
71	21134	779.040879327105	38
71	21155	780.750002808421	16
71	21196	784.255203964632	34
71	21225	786.756112897355	24
71	21271	790.765371617708	39
71	21293	792.570338004907	17
71	21312	794.079492004467	14
71	21414	801	30
71	21539	806.6	55
71	21617	810.208328822806	35
71	21669	812.614221796932	23
71	21685	813.320543854176	6
71	21727	815.023082238442	16
71	21809	818.825449386447	37
71	21842	820.834984480636	19
71	21876	823.836048804099	29
71	21926	828.038548163335	41
71	21957	830.746966846581	26
71	22018	838.1	41
71	22035	839.7	15
71	22061	841.900256604184	21
71	22079	843.305224015721	13
71	22109	845.907348843728	25
71	22145	848.909275068269	29
71	22194	853.214863594107	42
71	22203	853.919537037571	6
71	22259	858.720766379083	47
71	22287	861.128173834005	23
71	22300	862.033452438093	8
71	22372	868.437507250516	63
71	22459	874.1	21
71	22488	875.5	13
71	22512	876.505141437449	9
71	22542	877.809660215181	12
71	22580	879.416764856158	15
71	22614	881.819677273954	23
71	22637	883.725011172771	18
71	22683	887.729284085183	39
71	22780	892.5	25
71	22843	895.3	27
71	22887	899.103174837932	37
71	22924	902.212636510971	30
71	22963	905.714538879237	34
71	23038	912.222047853892	64
71	23087	916.530016290902	42
71	23146	921.838886403402	52
71	23187	925.346931353844	34
71	23211	927.34730854235	19
71	23252	930.853571396545	34
71	23293	934.355427151029	34
71	23332	937.857012976866	34
71	23373	941.365234914509	34
71	23430	946.268620598598	48
71	23467	949.576598698387	32
71	23574	955.2	32
71	23632	958.8	35
71	23655	960.705261237078	18
71	23728	967.212826476268	64
71	23788	972.416282506753	51
71	23826	975.824647666802	33
71	23857	978.325662809374	24
71	23866	979.02590327496	6
71	23893	981.326160306831	22
71	23930	984.432667414399	30
71	23960	987.038857838171	25
71	23996	990.04829652029	29
71	24034	993.45037233363	33
71	24070	996.458872579909	29
71	24087	997.967931093226	14
71	24111	999.976989354206	19
71	24266	1007.4	54
71	24280	1008.5	10
71	24304	1010.502755408801	19
71	24374	1016.703432923871	61
71	24415	1020.208032134109	34
71	24442	1022.516868716644	22
71	24450	1023.120118652426	5
71	24496	1027.122201425975	39
71	24525	1029.631701527744	24
71	24540	1030.74031939602	10
71	24566	1032.942629696827	21
71	24609	1038.4	24
71	24654	1042.4	39
71	24693	1045.907042777023	34
71	24776	1053.21180480674	72
71	24800	1055.219048197819	19
71	24848	1059.426304592923	41
71	24894	1063.434796519917	39
71	24926	1066.043620765842	25
71	24957	1068.745260192315	26
71	25006	1073.050619981671	42
71	25026	1076.4	4
71	25041	1077.8	13
71	25062	1079.506608463234	16
71	25084	1081.313286214181	17
71	25118	1084.119171365607	27
71	25157	1087.623465100636	34
71	25238	1094.72544253685	70
71	25263	1096.833675309987	20
71	25286	1098.742522318995	18
71	25351	1106.3	43
71	25385	1109.4	30
71	25398	1110.307739220515	8
71	25421	1112.213158810827	18
71	25456	1115.320547551616	30
71	25475	1116.82811679665	14
71	25486	1117.734007832985	8
71	25519	1120.43558576553	26
71	25535	1121.84181344091	13
71	25660	1130.5	65
71	25704	1134.4	38
71	25738	1137.401337929011	29
71	25783	1141.302648831172	38
71	25806	1143.209431323657	18
71	25891	1150.713517209234	74
71	25901	1151.523444611456	7
71	25936	1155.7	17
71	25960	1157.8	20
71	25985	1159.909809244479	20
71	26027	1163.516849249865	35
71	26065	1166.718940944795	31
71	26100	1169.820075647963	30
71	26111	1170.529986389201	6
71	26160	1174.836101505896	42
71	26198	1178.044697287881	31
71	26213	1179.353144173875	12
71	26252	1182.659109192489	32
71	26270	1184.065294120782	13
71	26306	1187.270133018742	31
71	26344	1190.471777409998	31
71	26373	1192.979256217119	24
71	26382	1193.681373992606	6
71	26433	1199.2	32
71	26451	1200.7	14
71	26507	1205.700768543395	49
71	26536	1208.003606763588	22
71	26568	1210.805449568169	27
71	26593	1214.7	7
71	26622	1217.3	25
71	26647	1219.403080880618	20
71	26669	1221.203414042114	17
71	26688	1222.711661404968	14
71	26714	1224.916614280085	21
71	26722	1225.526071441192	5
71	26783	1232.2	42
71	26808	1234.4	21
71	26904	1243.004515801279	85
71	26948	1246.812947114077	37
71	26982	1249.813130571594	29
71	27014	1252.415566485688	25
71	27029	1253.717685638536	12
71	27068	1257.021429382395	32
71	27089	1258.721469196665	16
71	27094	1259.026647259904	2
71	27220	1266.1	41
71	27255	1267.7	15
71	27281	1268.807738171175	10
71	27312	1270.013334384338	11
71	27375	1273.718020458408	36
71	27392	1275.019592143823	12
71	27411	1276.523623148544	14
71	27445	1279.530954443531	29
71	27476	1282.039637653367	24
71	27535	1287.343068889277	52
71	27602	1291.4	14
71	27635	1292.9	14
71	27681	1294.805023311055	18
71	27746	1297.912145145651	30
71	27805	1303.021007406105	50
71	27820	1304.122463150644	10
71	27897	1313.5	55
71	27907	1314.2	6
71	27936	1316.705359127507	24
71	27955	1318.210644781516	14
71	28014	1323.517477308156	52
71	28062	1327.721724519948	41
71	28099	1330.830834107996	30
71	28142	1336.3	23
71	28159	1337.9	15
71	28175	1339.105967098886	11
71	28185	1339.908393549939	7
71	28203	1341.312732239464	13
71	28249	1345.318260448352	39
71	28270	1347.02006155953	16
71	28289	1348.52375333443	14
71	28310	1352.3	3
71	28349	1355.9	35
71	28377	1358.106305234206	21
71	28444	1364.010809899731	58
71	28478	1367.018154107669	29
71	28492	1368.027955251856	9
71	28518	1372.8	8
71	28528	1373.7	8
71	28568	1377.109132526272	33
71	28619	1381.609941264499	44
71	28661	1385.217047156638	35
71	28668	1385.724251926292	4
71	28710	1389.332241581522	35
71	28731	1391.032423217268	16
71	28820	1396.3	23
71	28839	1397.2	8
71	28893	1399.609323460566	23
71	28957	1402.314556268278	26
71	28977	1403.215407873216	8
71	29030	1405.619845501669	23
71	29076	1407.920919685305	22
71	29095	1410.4	4
71	29130	1413.6	31
71	29173	1417.302270917068	36
71	29190	1418.60790646136	12
71	29210	1420.213810485936	15
71	29232	1422.021084897263	17
71	29249	1423.527729993589	14
71	29275	1425.737005843446	21
71	29316	1429.245448799692	34
71	29361	1433.147912764453	38
71	29386	1435.248660457759	20
71	29426	1438.65413879467	33
71	29505	1447.8	58
71	29538	1450.6	27
71	29573	1453.701841419674	30
71	29605	1456.311062750133	25
71	29644	1459.815289117152	34
71	29694	1464.020296023279	41
71	29741	1470.7	27
71	29769	1473.2	24
71	29789	1474.803580248807	15
71	29836	1478.906523279977	40
71	29868	1481.715225290647	27
71	29890	1483.517030023723	17
71	29909	1485.024987075796	14
71	29971	1492.3	43
71	29997	1494.6	22
71	30023	1496.803090668697	21
71	30067	1500.606524865654	37
71	30094	1502.909520820522	22
71	30145	1507.418721076583	44
71	30183	1510.622808870277	31
71	30226	1514.32759242633	36
71	30258	1517.128679048368	27
71	30326	1524.6	46
71	30357	1527.4	27
71	30393	1530.405341955053	29
71	30448	1535.31441129324	48
71	30493	1539.22278451082	38
71	30529	1542.232743125776	29
71	30584	1547.138163082291	48
71	30648	1552.739930579081	55
71	30684	1555.943912681157	31
71	30737	1560.447692408717	44
71	30781	1566.6	26
71	30828	1570.8	41
71	30858	1573.403431259491	25
71	30890	1576.007601343586	25
71	30902	1577.011243782902	9
71	30932	1579.612226758512	25
71	30969	1583.9	19
71	31008	1587.3	33
71	31015	1587.809321652785	4
71	31025	1588.415933428964	5
71	31050	1590.522743649083	20
71	31083	1593.427211739721	28
71	31117	1596.227377551153	27
71	31188	1605.2	52
71	31201	1606.2	9
71	31240	1609.709820715126	34
71	31269	1612.014482094016	22
71	31304	1615.120177769525	30
71	31321	1616.423547036649	12
71	31348	1618.732708614865	22
71	31368	1620.341598538391	15
71	31390	1622.144544544287	17
71	31532	1630.9	49
71	31620	1635.7	47
71	31651	1638.206364104256	24
71	31734	1645.713345014571	74
71	31771	1648.822466823115	30
71	31815	1652.625401351732	37
71	31994	1662.4	64
71	32035	1664.3	18
71	32083	1666.304436101154	19
71	32117	1667.808294065992	14
71	32145	1669.016045465505	11
71	32229	1672.724863831683	36
71	32273	1674.728330805926	19
71	32331	1677.334423451596	25
71	32417	1685.7	57
71	32455	1689	32
71	32483	1691.405147223374	23
71	32509	1693.606208904186	21
71	32526	1694.907447095232	12
71	32544	1696.315896144663	13
71	32575	1699.023164891032	26
71	32623	1703.226510998503	41
71	32658	1706.132387346579	28
71	32691	1709.038033415195	28
71	32711	1710.643265459816	15
71	32739	1713.044322371181	23
71	32810	1721	50
71	32849	1724.4	33
71	32859	1725.206540718635	7
71	32864	1725.514816583807	2
71	32906	1729.12023549382	35
71	32914	1729.72301911786	5
71	32929	1730.830999473259	10
71	32970	1736.4	24
71	32998	1738.9	24
71	33021	1740.806642765391	18
71	33091	1747.006736361654	61
71	33155	1752.610057757286	55
71	33287	1764.41699298461	117
71	33440	1773.3	53
71	33475	1774.9	15
71	33581	1781.604786938007	66
71	33604	1783.513227886529	18
71	33642	1786.715193020121	31
71	33669	1789.022524008829	22
71	33697	1791.431526265022	23
71	33717	1793.036042717465	15
71	33762	1796.938923448876	38
71	33785	1798.841495163843	18
71	33825	1802.246510053981	33
71	33831	1802.652707021931	3
71	33874	1806.358657161852	36
71	33971	1812.7	27
71	34082	1817.7	49
71	34143	1821.908785657992	41
71	34222	1828.813562183026	68
71	34275	1835.3	33
71	34289	1836.4	10
71	34300	1837.30894993647	8
71	34311	1838.013646241065	6
71	34320	1838.72132312101	6
71	34342	1840.531066270718	17
71	34354	1841.537130155324	9
71	34386	1845.7	17
71	34405	1847.3	15
71	34448	1851.007231348254	36
71	34530	1858.211362559342	71
71	34552	1860.015290441378	17
71	34593	1863.71857929778	36
71	34618	1865.827180807124	20
71	34641	1867.733692205144	18
71	34666	1869.843487637968	20
71	34697	1872.344200940174	24
71	34722	1876.9	9
71	34741	1878.5	15
71	34756	1879.808241203902	12
71	34791	1882.710756063111	28
71	34836	1886.616318386966	38
71	34862	1888.824266104964	21
71	34911	1893.126894256573	42
71	34982	1901.2	52
71	35002	1902.9	16
71	35024	1904.703280560639	17
71	35047	1906.608337426508	18
71	35075	1909.018129133199	23
71	35099	1911.026155050777	19
71	35115	1912.22893157217	11
71	35131	1913.630912699157	13
71	35153	1915.44052284724	17
71	35175	1917.249309971303	17
71	35205	1919.857716081375	25
71	35224	1921.361431599496	14
71	35258	1924.170387732921	27
71	35268	1924.976029855344	7
71	35309	1928.478698328277	34
71	35434	1936.1	41
71	35483	1938.3	21
71	35613	1944.208975773081	58
71	35685	1947.516784324347	32
71	35765	1951.222668711884	36
71	35790	1952.430260337566	11
71	35826	1955.632575781005	31
71	35881	1960.338389656976	46
71	35927	1964.341348026836	39
71	35956	1969.3	13
71	35982	1971.6	22
71	35987	1971.900271057086	2
71	36029	1975.507809457986	35
71	36075	1979.514467172839	39
71	36098	1981.420203687094	18
71	36141	1985.124636850859	36
71	36168	1987.427440062313	22
71	36193	1989.537116268785	20
71	36261	1996.6	46
71	36291	1999.3	26
71	36330	2002.604199842724	32
71	36371	2006.110114407238	34
71	36405	2009.119874599125	29
71	36455	2013.520081438204	43
71	36490	2016.422169647359	28
71	36528	2019.83022896039	33
71	36575	2023.933689124404	40
71	36618	2027.638898922553	36
71	36675	2033.7	37
71	36721	2037.8	40
71	36738	2039.102018551824	12
71	36795	2044.006631686307	48
71	36842	2048.112736754826	40
71	36884	2051.917100223734	37
71	36903	2053.425422112076	14
71	36960	2058.333769874205	48
71	37016	2063.336637227882	49
71	37082	2070.6	46
71	37122	2074.1	34
71	37159	2077.401315170479	32
71	37193	2080.205033199152	27
71	37231	2083.606610137054	33
71	37264	2086.31201881943	26
71	37296	2089.112875293495	27
71	37320	2091.113368819939	19
71	37362	2094.716614553887	35
71	37402	2098.124461854338	33
71	37416	2099.334022132556	11
71	37474	2103	10
71	37506	2104.4	13
71	37551	2106.407120397279	19
71	37559	2106.708451123511	2
71	37581	2107.717803106315	9
71	37629	2109.827105172737	20
71	37671	2111.734219754179	18
71	37708	2114.5	5
71	37717	2115.3	7
71	37722	2115.608077951963	2
71	37749	2117.912921178284	22
71	37758	2118.422763257027	4
71	37794	2121.623358493622	31
71	37814	2123.225495804641	15
71	37844	2125.828686195546	25
71	37865	2127.534381661749	16
71	38010	2135	50
71	38041	2136.4	13
71	38053	2136.903360644413	4
71	38091	2138.507074118826	15
71	38107	2139.210581661841	6
71	38135	2140.414454069543	11
71	38255	2145.923659077538	54
71	38311	2149.130525310721	31
71	38339	2153	10
71	38352	2154	9
71	38371	2155.705887232832	16
71	38434	2161.209174066783	54
71	38482	2165.416634231802	41
71	38501	2166.917834645938	14
71	38517	2168.120901004199	11
71	38545	2170.52836049613	23
71	38575	2175.2	12
71	38602	2177.6	23
71	38648	2181.604303854668	39
71	38722	2188.012152032096	63
71	38737	2189.321546143808	12
71	38756	2190.824381757183	14
71	38783	2193.132593095728	22
71	38807	2195.13854696174	19
71	38824	2196.442215139279	12
71	38853	2198.949456181162	24
71	38937	2208.1	61
71	38962	2210.3	21
71	38987	2212.408505036102	20
71	39003	2213.814297907631	13
71	39035	2216.42390445371	25
71	39073	2219.825533450477	33
71	39160	2227.534320050157	76
71	39255	2237.1	71
71	39302	2241.3	41
71	39330	2243.705438662371	23
71	39364	2246.5144276686	27
71	39397	2249.416381182583	28
71	39435	2252.620063934077	31
71	39455	2254.229582730787	15
71	39518	2262.4	44
71	39533	2263.8	13
71	39545	2264.600956442181	7
71	39573	2267.004407914189	23
71	39624	2271.512859372546	44
71	39665	2275.018357514143	34
71	39688	2276.922911387793	18
71	39700	2277.926454349466	9
71	39738	2281.128603610937	31
71	39763	2283.2289149054	20
71	39803	2288.2	22
71	39816	2289.4	11
71	39831	2290.504742567664	10
71	39944	2300.607959724607	100
71	39950	2301.010642060542	3
71	39956	2301.410981041882	3
71	39975	2302.916189987703	14
71	40007	2305.720043202209	27
71	40028	2307.42121663807	16
71	40045	2308.724959803049	12
71	40077	2311.534784123571	27
71	40256	2316.5	25
71	40329	2318.7	21
71	40495	2323.903556354194	51
71	40555	2326.108575321761	21
71	40575	2327.910497884216	17
71	40597	2329.711086409207	17
71	40621	2331.719610577843	19
71	40632	2332.426282291366	6
71	40645	2333.531029866812	10
71	40780	2340.4	44
71	40857	2343.9	34
71	40923	2347.202366879358	32
71	40962	2350.50639857161	32
71	40986	2352.506534534105	19
71	40996	2353.310666233826	7
71	41001	2353.611074523032	2
71	41006	2353.913907636353	2
71	41014	2354.322914228732	3
71	41023	2355.027732266925	6
71	41031	2355.635161526614	5
71	41120	2364.7	67
71	41148	2367.2	24
71	41188	2370.608676868232	33
71	41220	2373.417025199513	27
71	41255	2376.323569601098	28
71	41283	2378.732474310518	23
71	41337	2383.537691112925	47
71	41470	2396.5	105
71	41506	2399.8	32
71	41543	2402.901549414908	30
71	41565	2404.706819308183	17
71	41599	2407.707567638847	29
71	41628	2410.012606785957	22
71	41676	2414.215582993112	41
71	41692	2415.619175297338	13
71	41727	2418.528961842781	28
71	41750	2420.433391931566	18
71	41783	2423.337709162693	28
71	41818	2426.247118914992	28
71	41866	2430.449317051291	41
71	41888	2434.5	5
71	41930	2438.2	36
71	41963	2441.104884271379	28
71	41989	2443.313644703919	21
71	42008	2444.81735107696	14
71	42061	2449.526628327936	46
71	42070	2450.02672703207	4
71	42103	2452.935155621387	28
71	42137	2455.942027810734	29
71	42166	2458.250396547106	22
71	42237	2466.9	49
71	42286	2471.3	43
71	42326	2474.703178376879	33
71	42351	2476.811987106825	20
71	42361	2477.618634606594	7
71	42392	2480.123385670463	24
71	42430	2483.52461979012	33
71	42496	2490.7	47
71	42515	2492.3	15
71	42522	2492.805854330253	4
71	42561	2496.107685505944	32
71	42589	2498.508274853584	23
71	42623	2501.513085663805	29
71	42662	2504.819710441524	32
71	42682	2506.427447062506	15
71	42719	2509.730724076054	32
71	42781	2516.2	42
71	42835	2521.1	48
71	42878	2524.802378556148	36
71	42909	2527.50910186466	26
71	42935	2529.713378871911	21
71	42995	2534.918753873434	51
71	43018	2538.5	5
71	43061	2542.3	37
71	43096	2545.402320958725	30
71	43102	2545.805446883928	3
71	43121	2547.314647597243	14
71	43140	2548.820879798318	14
71	43170	2551.428299077726	25
71	43189	2552.937609363172	14
71	43200	2553.8381159919	8
71	43216	2555.040751249607	11
71	43256	2560.2	22
71	43305	2564.6	43
71	43327	2566.406244349377	17
71	43378	2570.914318869032	44
71	43449	2577.214660806075	62
71	43480	2579.919597920068	26
71	43544	2586.2	42
71	43558	2587.5	12
71	43583	2589.604851609731	20
71	43603	2591.205296151798	15
71	43664	2596.511161698919	52
71	43685	2598.212084477335	16
71	43726	2601.914262214604	36
71	43746	2603.517121966675	15
71	43768	2605.32573818828	17
71	43788	2606.926137908161	15
71	43839	2611.430358291712	44
71	43864	2613.537337510687	20
71	43888	2615.53800873705	19
71	43959	2623	50
71	43985	2625.3	22
71	44004	2626.803428254981	14
71	44017	2627.90403696542	10
71	44036	2629.409286455545	14
71	44053	2630.712936077302	12
71	44077	2632.721719702605	19
71	44114	2637.9	19
71	44135	2639.7	17
71	44164	2642.002261274298	22
71	44198	2645.005738772753	29
71	44226	2647.408672378485	23
71	44470	2656.1	61
71	44525	2658.6	24
71	44560	2660.600963629074	19
71	44629	2666.706691917467	60
71	44659	2669.315831810095	25
71	44689	2671.925159671198	25
71	44738	2676.026123549966	40
71	44768	2678.630935929142	25
71	44831	2684.136266103989	54
71	44884	2691.3	33
71	44913	2693.9	25
71	44947	2696.700276307938	27
71	44978	2699.407777839581	26
71	45011	2702.117054544345	26
71	45042	2704.825429743812	26
71	45067	2706.930273888448	20
71	45114	2713	30
71	45141	2715.4	23
71	45162	2717.10890236563	16
71	45200	2720.316935971043	31
71	45229	2722.823257645644	24
71	45290	2728.123851957258	52
71	45373	2734.1	21
71	45410	2735.9	17
71	45528	2741.102898257607	51
71	45566	2742.704156939614	15
71	45604	2744.412027658469	16
71	45635	2746.11892577922	16
71	45683	2750.326752120342	41
71	45708	2752.433476192398	20
71	45730	2754.234180861041	17
71	45791	2762	40
71	45837	2766.1	40
71	45905	2772.104599564713	59
71	45936	2774.806868676824	26
71	45963	2777.112671387979	22
71	46008	2782.5	25
71	46044	2785.8	32
71	46082	2789.006321880265	31
71	46119	2792.113457775487	30
71	46154	2795.214754915662	30
71	46179	2797.320832613337	20
71	46206	2799.628962011379	22
71	46241	2802.530147345617	28
71	46257	2803.934277110138	13
71	46299	2807.541126432401	35
71	46320	2809.246624349682	16
71	46358	2812.447618646445	31
71	46399	2818.1	21
71	46414	2819.5	13
71	46452	2822.70995899111	31
71	46493	2826.216690683529	34
71	46534	2829.926193648817	36
71	46561	2832.026823126734	20
71	46615	2836.828952000024	47
71	46634	2838.338846434933	14
71	46657	2840.243168810678	18
71	46688	2842.951911628849	26
71	46722	2845.957139779515	29
71	46765	2849.659399655477	36
71	46803	2852.867508789579	31
71	46853	2859.1	31
71	46889	2862.2	30
71	46933	2866.009892142824	37
71	46968	2869.116734566112	30
71	46977	2869.824045888847	6
71	47020	2873.524482421006	36
71	47048	2875.932892578846	23
71	47073	2879	10
71	47095	2880.9	18
71	47125	2883.500065386597	25
71	47200	2890.00893106731	64
71	47235	2893.109896527883	30
71	47277	2896.712533816907	35
71	47330	2901.415812894615	46
71	47376	2905.417549533382	39
71	47432	2910.220877261714	47
71	47468	2913.421851784552	31
71	47506	2916.62608083951	31
71	47554	2920.828991004006	41
71	47755	2931.6	76
71	47786	2933.4	17
71	47798	2934.20431158378	7
71	47856	2939.410362251761	51
71	47888	2942.01751460157	25
71	47935	2946.125217718376	40
71	47987	2950.732455745447	45
71	48028	2954.236511645736	34
71	48077	2958.541964997877	42
71	48118	2962.046911086688	34
71	48158	2965.656681781107	35
71	48317	2973.7	57
71	48346	2975	12
71	48420	2978.30366697794	32
71	48436	2979.010247303579	6
71	48486	2981.316479883655	22
71	48548	2984.016593511258	26
71	48612	2987.019487152511	29
71	48642	2988.223113017998	11
71	48661	2989.823910654187	15
71	48693	2992.431973998278	25
71	48723	2995.036655097488	25
71	48755	2997.837308358962	27
71	48768	2998.738045147845	8
71	48793	3000.846163597313	20
71	48846	3007.3	33
71	48886	3010.8	34
71	48920	3013.801018394597	29
71	48978	3018.801252247739	49
71	49021	3022.509672691041	36
71	49057	3025.711106357459	31
71	49099	3029.311887996339	35
71	49148	3033.614870461854	42
71	49179	3036.11996223116	24
71	49225	3040.125543511851	39
71	49273	3044.32993144153	41
71	49295	3046.134229334612	17
71	49344	3050.435328156247	42
71	49382	3053.84261621331	33
71	49431	3058.9	29
71	49460	3061.5	25
71	49480	3063.101872225084	15
71	49517	3066.204283850278	30
71	49550	3069.108158338029	28
71	49560	3069.915233976893	7
71	49594	3072.721201500495	27
71	49633	3076.031063838231	32
71	49640	3076.53897938587	4
71	49696	3083.6	36
71	49736	3087.1	34
71	49832	3095.707441434606	85
71	49879	3099.816474288275	40
71	49924	3103.724031103953	38
71	49963	3107.033058373749	32
71	50012	3111.337936929287	42
71	50040	3113.746126006594	23
71	50069	3116.05447037496	22
71	50087	3117.662708256545	15
71	50176	3122.4	24
71	50203	3123.6	11
71	50331	3129.305026805049	56
71	50369	3131.411225348475	20
71	50430	3136.714219360881	52
71	50471	3142.1	21
71	50494	3144.1	19
71	50530	3147.302503404144	31
71	50544	3148.308634132905	9
71	50591	3152.411949658411	40
71	50651	3157.1	11
71	50656	3157.3	1
71	50690	3159.902790789245	25
71	50748	3164.90323380883	49
71	50797	3169.208227359679	42
71	50863	3175.011880867104	57
71	50931	3182.6	46
71	50985	3187.5	48
71	51019	3190.302232622182	27
71	51114	3198.809493945824	84
71	51134	3200.409659816551	15
71	51181	3204.510400610929	40
71	51205	3206.518479355403	19
71	51235	3209.118708275201	25
71	51270	3212.027382143031	28
71	51329	3219.9	39
71	51371	3223.6	36
71	51480	3233.305294108223	96
71	51510	3235.914255807029	25
71	51544	3238.722137484994	27
71	51628	3246.127620632526	73
71	51663	3249.234722631013	30
71	51702	3252.537387273458	32
71	51751	3256.838564263956	42
71	51813	3264	40
71	51841	3266.5	24
71	51856	3267.800105948145	12
71	51891	3270.70817666317	28
71	51908	3272.00841757719	12
71	51957	3276.316227997958	42
71	52051	3287	70
71	52076	3289.2	21
71	52136	3294.400783877123	51
71	52171	3297.501676247829	30
71	52205	3300.306375181827	27
71	52238	3303.210396803762	28
71	52260	3305.011006732261	17
71	52279	3306.516921223634	14
71	52291	3307.521527510594	9
71	52341	3313.2	32
71	52368	3315.6	23
71	52395	3317.902927445427	22
71	52414	3319.410841249946	14
71	52443	3321.917470092507	24
71	52474	3324.424446430952	24
71	52499	3326.533165707402	20
71	52545	3330.540735671864	39
71	52600	3335.445162901176	48
71	52660	3340.649101361875	51
71	52703	3346.3	23
71	52709	3346.8	4
71	52741	3349.603763838442	27
71	52768	3351.908701612375	22
71	52779	3352.613083988941	6
71	52792	3353.720909298042	10
71	52823	3356.225304581996	24
71	52865	3362.5	25
71	52896	3365.3	27
71	52933	3368.400812267286	30
71	52962	3370.904334179281	24
71	53005	3374.611371585372	36
71	53018	3375.713303027492	10
71	53044	3377.914321035359	21
71	53058	3378.833122398964	8
71	53083	3380.940974798434	20
71	53094	3381.848710011831	8
71	53109	3382.954931638485	10
71	53171	3388.359292807543	53
71	53210	3391.865873313775	34
71	53225	3392.966970748936	10
71	53252	3395.275558011331	22
71	53438	3405	70
71	53469	3406.4	13
71	53497	3407.609589608393	11
71	53542	3409.611750912947	19
71	53583	3413.11761561157	34
71	53622	3416.419627155443	32
71	53688	3422.229461029672	57
71	53725	3425.535781187524	32
71	53781	3430.335867043486	47
71	53818	3433.639336450525	32
71	53873	3438.342142676013	46
71	53897	3440.343120979702	19
71	53921	3442.349756980755	19
71	53931	3443.15703553691	7
71	53984	3447.860079442394	46
71	54009	3449.961989173657	20
71	54036	3452.9	9
71	54084	3457.2	42
71	54108	3459.20993727738	19
71	54134	3461.418695119763	21
71	54152	3462.824431843307	13