file 189740 1367232561                                          
version 2
run Join-5-20130429-12:49:19-17679
attr configname Join
attr datetime 20130429-12:49:19
attr experiment "\"Join\""
attr inifile omnetpp.ini
attr iterationvars $0=32
attr iterationvars2 "$0=32, $repetition=5"
attr measurement $0=32
attr network Network
attr processid 17679
attr repetition 5
attr replication #5
attr resultdir results
attr runnumber 5
attr seedset 5
vector 5  Network.dyn_peer[0]  lookupHopsSig:vector  ETV
5	434 189306 300 56846 22.2 5530.325469080312 7650 0 7 17806 51080
