file 276283 1367233446                                          
version 2
run Join-92-20130429-13:02:32-17679
attr configname Join
attr datetime 20130429-13:02:32
attr experiment "\"Join\""
attr inifile omnetpp.ini
attr iterationvars $0=16384
attr iterationvars2 "$0=16384, $repetition=2"
attr measurement $0=16384
attr network Network
attr processid 17679
attr repetition 2
attr replication #2
attr resultdir results
attr runnumber 92
attr seedset 92
vector 92  Network.dyn_peer[0]  lookupHopsSig:vector  ETV
92	447 275836 43539 744578 25.136504638262 55018.321456374082 9410 0 258 511214 37394194
