version 2
run Join-91-20130429-13:00:50-17679
attr configname Join
attr datetime 20130429-13:00:50
attr experiment "\"Join\""
attr inifile omnetpp.ini
attr iterationvars $0=16384
attr iterationvars2 "$0=16384, $repetition=1"
attr measurement $0=16384
attr network Network
attr processid 17679
attr repetition 1
attr replication #1
attr resultdir results
attr runnumber 91
attr seedset 91

vector 91  Network.dyn_peer[0]  lookupHopsSig:vector  ETV
91	43694	30.718090606375	108
91	43727	33.624628562551	28
91	43801	40.032745082234	63
91	43962	57.4	134
91	44139	73.4	159
91	44248	83.10514062399	96
91	44264	84.305512474714	11
91	44302	87.715212839354	33
91	44343	91.223957079056	34
91	44402	96.328857043998	50
91	44461	101.632196597259	52
91	44589	114.2	102
91	44621	117.1	28
91	44656	120.003380480618	28
91	44672	121.406279006108	13
91	44759	129.109066255412	76
91	44821	134.513866273793	53
91	44928	146.1	81
91	45000	152.6	64
91	45054	157.403467850452	47
91	45090	160.410508713465	29
91	45127	163.71447575419	32
91	45172	167.615396171419	38
91	45225	172.121820604989	44
91	45264	175.631062885058	34
91	45317	180.139960597749	44
91	45377	185.540008696045	53
91	45588	196.1	81
91	45775	204.8	86
91	45893	210.200951350943	53
91	45987	214.905043050464	46
91	46042	219.810594718562	48
91	46085	223.514543438191	36
91	46129	227.322541396066	37
91	46171	230.92638023857	35
91	46330	239.9	59
91	46429	244.3	43
91	46488	247.009586562889	26
91	46556	250.113654397444	30
91	46688	256.217286526122	60
91	46740	258.523464111784	22
91	46771	259.923690429814	13
91	46996	271	90
91	47058	276.5	54
91	47103	280.404882887541	38
91	47162	285.711056354515	52
91	47203	289.217005042725	34
91	47298	297.719964434539	84
91	47355	302.620798771988	48
91	47418	308.125263140766	54
91	47477	313.428638666687	52
91	47538	318.730023467806	52
91	47704	333.733019633441	149
91	47868	342	60
91	48000	350	79
91	48116	360.404612775037	103
91	48230	370.611471102567	101
91	48296	376.41286722302	57
91	48400	385.822594285679	93
91	48509	395.526565731996	96
91	48535	397.732949210497	21
91	48605	403.937936019975	61
91	48676	410.041736489868	60
91	48714	413.450574146868	33
91	48837	420	40
91	49016	428.4	83
91	49084	431.601776972664	31
91	49318	442.406514152567	107
91	49428	447.51221552695	50
91	49550	453.817940411133	62
91	49647	462.3209395823	84
91	49676	467.4	14
91	49724	471.7	42
91	49819	480.009400127641	82
91	49845	482.215036000419	21
91	49873	484.622939621478	23
91	50018	497.732741714464	130
91	50154	510.8	108
91	50217	516.4	55
91	50288	522.702471828677	62
91	50396	532.307559354367	95
91	50440	536.114655090301	37
91	50565	547.422572904276	112
91	50599	550.226070441371	27
91	50632	553.130555621308	28
91	50716	560.535992364347	73
91	50746	563.136461741678	25
91	50796	567.542590695592	43
91	50827	570.048333038238	24
91	50907	579.9	59
91	50939	582.6	26
91	50964	584.705582909388	20
91	51006	588.311521036107	35
91	51111	597.815199863239	94
91	51146	600.717253046111	28
91	51242	609.325007481135	85
91	51424	627.3	153
91	51478	632	46
91	51606	643.6052566281	115
91	51666	648.805647744752	51
91	51700	651.813638226957	29
91	51751	656.117089749222	42
91	51768	657.621271236803	14
91	51798	660.027564102917	23
91	51901	669.331454581495	92
91	51937	672.33490045635	29
91	52004	677.5	15
91	52074	680.7	31
91	52208	686.805277294695	60
91	52340	692.912710529609	60
91	52476	699.113169375007	61
91	52612	705.418451744875	62
91	52738	711.323965230214	58
91	52786	713.525868077948	21
91	52832	715.534206274493	19
91	52968	721.834764146766	62
91	53097	728.138966777085	62
91	53188	736.241536263146	80
91	53244	743.6	36
91	53303	748.8	51
91	53379	755.60524234683	67
91	53416	758.71206506849	30
91	53443	761.021342516485	22
91	53466	762.926295575561	18
91	53508	766.533343568459	35
91	53563	771.442998099327	48
91	53585	773.246225357411	17
91	53634	777.554791846348	42
91	53655	779.263570086879	16
91	53749	789.2	72
91	53807	794.3	50
91	53888	801.608548263318	72
91	53969	808.708617589231	70
91	54065	817.311706933637	85
91	54072	817.821361453977	4
91	54092	819.42193098253	15
91	54117	821.526580179497	20
91	54131	822.5297164213	9
91	54145	823.734261596388	11
91	54205	828.943590953078	51
91	54279	837.2	52
91	54417	849.7	124
91	54516	858.406724545636	86
91	54585	864.512581498114	60
91	54670	872.020099030757	74
91	54724	876.821002449433	47
91	54786	882.225335350858	53
91	54876	890.231979214515	79
91	54971	898.732629734371	84
91	55167	908.5	65
91	55248	912.3	37
91	55448	921.609035043928	92
91	55555	926.511271532585	48
91	55784	937.9	79
91	55876	946	80
91	56029	959.901674780249	138
91	56086	964.80184655669	48
91	56124	968.006169802566	31
91	56148	970.007038223935	19
91	56221	976.507187593263	64
91	56290	982.608278969894	60
91	56331	986.112738543532	34
91	56558	999	90
91	56727	1008.2	91
91	56768	1011.90257174951	36
91	56825	1016.806636867939	48
91	56926	1025.907851919745	90
91	57036	1035.709409220306	97
91	57078	1039.310142670482	35
91	57117	1042.616379119738	32
91	57171	1047.423155104341	47
91	57240	1053.532644751179	60
91	57333	1061.840811467794	82
91	57393	1067.0481034496	51
91	57767	1086	160
91	57928	1093.5	74
91	57972	1095.508569342135	19
91	58100	1101.312306855506	57
91	58290	1110.121955241012	87
91	58336	1112.127107676556	19
91	58386	1114.436373927909	22
91	58424	1116.436609766284	19
91	58460	1119.641839657273	31
91	58499	1122.946753239287	32
91	58520	1124.654880725585	16
91	58633	1134.755048982207	100
91	58735	1145.8	78
91	58767	1148.5	26
91	58786	1150.000337722755	14
91	58848	1155.601382592049	55
91	58940	1163.805680162784	81
91	58982	1167.406548909708	35
91	58998	1168.613873713614	11
91	59183	1178.9	69
91	59268	1182.8	38
91	59370	1187.400602989643	45
91	59447	1190.804704928693	33
91	59541	1199.209128497151	83
91	59691	1212.613522754012	133
91	59744	1217.313880388001	46
91	59764	1218.915013762428	15
91	59834	1225.117449103015	61
91	59866	1227.925089463375	27
91	59928	1233.329136078758	53
91	59973	1237.23252441761	38
91	60090	1249.1	91
91	60131	1252.7	35
91	60216	1260.209807457837	74
91	60301	1267.914293157685	76
91	60358	1272.818617277926	48
91	60447	1280.720580452162	78
91	60537	1288.72424109174	79
91	60576	1292.025548603125	32
91	60667	1300.126916270193	80
91	60704	1303.427292066078	32
91	60793	1311.330571541193	78
91	60910	1323.3	93
91	61012	1332.4	90
91	61134	1343.408568839994	109
91	61189	1348.10987307598	46
91	61248	1353.418360840027	52
91	61291	1357.12253207292	36
91	61343	1361.730622312753	45
91	61402	1366.836287642629	50
91	61475	1373.344030890467	64
91	61615	1382.5	65
91	61649	1385.6	30
91	61725	1392.207963494465	65
91	61829	1401.610808379137	93
91	61947	1412.016903846775	103
91	62083	1424.220025687605	121
91	62124	1427.927897078218	36
91	62198	1434.328051690214	63
91	62290	1442.531756736521	81
91	62360	1448.733209423452	61
91	62447	1456.441743235736	76
91	62552	1465.943984311501	94
91	62686	1477.945268324484	119
91	62762	1484.545931741027	65
91	62833	1490.853736425461	62
91	62897	1496.454729910106	55
91	62989	1504.663113760929	81
91	63107	1511.9	39
91	63140	1513.4	14
91	63336	1522.407524150011	89
91	63438	1527.111309658155	46
91	63535	1531.615206226821	44
91	63601	1534.623785102914	29
91	63749	1541.429414806055	67
91	64046	1551.5	75
91	64119	1553.7	21
91	64304	1560.709515993548	69
91	64478	1573.610823863667	128
91	64628	1587.013958359832	133
91	64665	1590.117619485499	30
91	64700	1593.220719447373	30
91	64718	1594.625009153519	13
91	64783	1600.327224974104	56
91	64810	1602.634593464315	22
91	64845	1605.74434665457	30
91	64901	1611.7	37
91	64948	1615.9	41
91	65021	1622.206351850174	62
91	65068	1626.312956911864	40
91	65106	1629.714059866809	33
91	65149	1633.418476884127	36
91	65209	1638.621924495582	51
91	65263	1642.8	8
91	65523	1654.8	119
91	65649	1660.605175391891	57
91	65788	1667.109766994629	64
91	65869	1674.21256392376	70
91	65922	1678.913134550912	46
91	65989	1684.819461001945	58
91	66051	1690.224064559061	53
91	66077	1692.426730092526	21
91	66148	1698.732469145427	62
91	66177	1703.2	12
91	66244	1709.2	59
91	66294	1713.609234750003	43
91	66357	1719.112573482636	54
91	66410	1723.817482955893	46
91	66465	1728.522286947166	46
91	66563	1737.331942442521	87
91	66626	1742.836781272767	54
91	66727	1751.940023024589	90
91	66836	1761.64234051026	96
91	66901	1767.350602427062	56
91	66930	1769.858568546138	24
91	67013	1777.161493483322	72
91	67113	1787.8	78
91	67133	1789.5	16
91	67205	1795.903283404274	63
91	67284	1802.806443809758	68
91	67354	1809.015918786111	61
91	67440	1816.620805035235	75
91	67482	1820.227888860389	35
91	67491	1820.933012502136	6
91	67518	1823.233474373778	22
91	67649	1834.937993733403	116
91	67726	1843.5	55
91	67826	1852.4	88
91	67904	1859.403759574987	69
91	67952	1863.607280642785	41
91	68032	1870.617147990634	69
91	68064	1873.418301101181	27
91	68104	1876.820965189163	33
91	68275	1894.2	142
91	68307	1897.1	28
91	68342	1900.006669454879	28
91	68469	1911.510747125408	114
91	68510	1915.012023833832	34
91	68583	1921.5184083388	64
91	68668	1929.024831927213	74
91	68705	1932.130494220274	30
91	68768	1937.831984541673	56
91	68846	1944.638566169888	67
91	68908	1950.045130654436	53
91	69032	1961.252859098822	111
91	69093	1966.553244508394	52
91	69147	1971.356320403538	47
91	69306	1985.658239693691	142
91	69760	2000.6	126
91	69846	2003.3	26
91	69958	2006.707598649116	33
91	70188	2013.90899694811	71
91	70260	2016.114161089785	21
91	70414	2020.916674291831	47
91	70508	2024.417948370012	34
91	70598	2029.023977177845	45
91	70615	2030.332287263952	12
91	70629	2031.540992041051	11
91	70649	2033.144835098995	15
91	70654	2033.445004627179	2
91	70669	2034.55145178291	10
91	70849	2052.9	149
91	70901	2057.6	46
91	70928	2059.906990087111	22
91	70981	2064.408465315964	44
91	71018	2067.717826236862	32
91	71121	2076.822118051253	90
91	71230	2086.52292478306	96
91	71272	2090.123820662393	35
91	71336	2095.925868586461	57
91	71432	2104.327077859687	83
91	71562	2118.2	102
91	71623	2123.8	55
91	71721	2132.403873081421	85
91	71797	2139.208730363575	67
91	71893	2147.80977074429	85
91	72052	2162.9	129
91	72072	2164.6	16
91	72092	2166.206924635586	15
91	72114	2168.011810544158	17
91	72134	2169.81384761806	17
91	72149	2170.919437706709	10
91	72172	2172.828557411361	18
91	72221	2179.2	32
91	72261	2182.7	34
91	72323	2188.108853627268	53
91	72386	2193.818174725295	56
91	72453	2199.719378358711	58
91	72497	2203.521493472555	37
91	72547	2207.925148715242	43
91	72686	2221.4	114
91	72717	2224	25
91	72779	2229.604573106674	55
91	72878	2238.31135175621	86
91	73000	2249.317767813839	109
91	73128	2260.723574697519	113
91	73243	2271.032110446374	102
91	73304	2276.336850551112	52
91	73338	2279.342818233232	29
91	73448	2289.150641181709	97
91	73547	2299.5	75
91	73651	2308.8	92
91	73751	2317.809097229703	89
91	73773	2319.613157510053	17
91	73914	2332.117704060614	124
91	74005	2340.224408319663	80
91	74204	2351.6	76
91	74251	2353.7	20
91	74297	2355.80748394893	20
91	74317	2356.608222341714	7
91	74591	2369.412993942813	127
91	74708	2375.122734969944	56
91	74715	2375.625668914733	4
91	74750	2378.530024445157	28
91	74769	2380.033126920999	14
91	74830	2385.540722768392	54
91	74890	2390.741511417791	51
91	75047	2399.7	57
91	75203	2407.6	78
91	75238	2410.502413736381	28
91	75247	2411.207498016808	6
91	75283	2414.21581332953	29
91	75334	2418.722011414932	44
91	75380	2422.72497166441	39
91	75403	2424.625664748364	18
91	75445	2430.4	24
91	75525	2437.7	72
91	75571	2441.705361538659	39
91	75645	2448.113891452915	63
91	75665	2449.917459675465	17
91	75728	2455.420134718702	54
91	75784	2460.226251353397	47
91	75954	2478.1	141
91	76065	2488.1	99
91	76090	2490.206170296794	20
91	76125	2493.306372693008	30
91	76302	2509.214750405169	158
91	76347	2513.115770631244	38
91	76397	2517.517312344973	43
91	76444	2521.620758000248	40
91	76550	2531.024203853941	93
91	76821	2545	110
91	76968	2551.8	67
91	77028	2554.403121599128	25
91	77128	2563.007934943466	85
91	77175	2567.108276470751	40
91	77221	2571.117860851199	39
91	77269	2575.323118503144	41
91	77328	2580.429143934656	50
91	77353	2582.533540554825	20
91	77381	2584.943285336569	23
91	77628	2597.9	99
91	77685	2600.5	25
91	77744	2603.209191399035	26
91	77870	2608.919017268421	56
91	77935	2611.819151563222	28
91	78004	2614.929081957467	30
91	78155	2627.93152369588	129
91	78223	2633.937074160322	59
91	78245	2635.738332649567	17
91	78285	2639.139035455309	33
91	78355	2645.345162756521	61
91	78469	2656.8	88
91	78497	2659.3	24
91	78587	2667.307418917575	79
91	78675	2675.113266408158	77
91	78718	2678.820785703713	36
91	78815	2687.528078349249	86
91	78914	2696.229429771816	86
91	78964	2703.3	33
91	79008	2707.2	38
91	79064	2712.009092438321	47
91	79099	2715.117290348864	30
91	79144	2719.024786569368	38
91	79187	2722.733871409333	36
91	79218	2725.44231564587	26
91	79274	2730.249135643725	47
91	79322	2734.45582271706	41
91	79352	2739.4	14
91	79462	2749.3	98
91	79557	2757.801624349323	84
91	79669	2767.807342571453	99
91	79781	2777.816506961867	99
91	79798	2779.122866098174	12
91	79866	2785.130642941897	59
91	79906	2788.532344192755	33
91	79970	2794.138129988463	55
91	80017	2798.238702800775	40
91	80100	2805.747381611192	74
91	80177	2812.451801219862	66
91	80286	2824.5	85
91	80322	2827.8	32
91	80410	2835.603145337735	77
91	80514	2844.803193069884	91
91	80581	2850.704859279439	58
91	80633	2855.307918645751	45
91	80680	2859.408172263875	40
91	80712	2863.7	17
91	80728	2865	12
91	80792	2870.604205647907	55
91	80859	2876.504761187173	58
91	80932	2883.010869165395	64
91	80992	2888.213057260435	51
91	81044	2892.81728350105	45
91	81202	2909.1	131
91	81230	2911.6	24
91	81331	2920.502168347898	88
91	81360	2923.004375888316	24
91	81386	2925.208948227862	21
91	81407	2926.909739699115	16
91	81545	2939.310645648427	123
91	81591	2943.315235415915	39
91	81642	2947.820364365411	44
91	81752	2957.621930424932	97
91	81817	2963.329956265438	56
91	81863	2967.331616200084	39
91	81930	2973.235102981872	58
91	81978	2977.438292426001	41
91	82012	2980.239483339904	27
91	82065	2984.94565030535	46
91	82115	2989.353363323561	43
91	82230	2999.654582691832	102
91	82547	3015.1	131
91	82750	3024.5	93
91	82766	3025.209620403631	6
91	82814	3027.410314776091	21
91	82866	3029.810806657438	23
91	82938	3033.013092378153	31
91	83018	3036.715269990128	36
91	83086	3039.821552470962	30
91	83195	3046.8	48
91	83280	3054.4	75
91	83308	3056.804319710426	23
91	83340	3059.606699340454	27
91	83370	3062.016178242053	23
91	83453	3069.525414680783	74
91	83481	3071.926789083606	23
91	83598	3083.4	94
91	83699	3092.4	89
91	83812	3102.507621619144	100
91	83920	3112.116199115779	95
91	84021	3121.216994962828	90
91	84140	3131.918966645037	106
91	84248	3141.527333697967	95
91	84515	3167	230
91	84543	3169.5	24
91	84646	3178.60789266559	90
91	84741	3187.116801137311	84
91	84759	3188.521481250172	13
91	84853	3196.930885151681	83
91	84944	3205.031503216028	80
91	85030	3214.5	65
91	85071	3218.1	35
91	85134	3223.80033974938	56
91	85193	3228.90454239417	50
91	85286	3237.21060995367	82
91	85327	3240.718097853617	34
91	85379	3245.321458525576	45
91	85471	3253.525837442832	81
91	85533	3258.932520615396	53
91	85575	3262.541295000084	35
91	85616	3266.04471823021	34
91	85676	3271.449979016957	53
91	85775	3280.154520364468	86
91	85850	3286.857809285006	66
91	85898	3292.9	29
91	85986	3300.8	78
91	86072	3308.405890328402	75
91	86130	3313.606491006691	51
91	86190	3318.815905907064	51
91	86281	3326.918562506251	80
91	86371	3334.924317404942	79
91	86430	3340.030308689144	50
91	86603	3355.738957334153	156
91	86753	3363.4	54
91	86887	3373.4	99
91	86929	3377.008585404655	35
91	86971	3380.616207891084	35
91	86989	3382.021088554512	13
91	87013	3384.028801051319	19
91	87029	3385.429636603185	13
91	87039	3386.031510510338	5
91	87049	3386.834828070516	7
91	87313	3400.7	107
91	87334	3401.7	9
91	87370	3403.309590584917	15
91	87518	3410.111456505083	67
91	87550	3411.611483992703	14
91	87678	3417.521245396553	58
91	87696	3418.221545515466	6
91	87877	3428	60
91	87950	3431.5	34
91	88088	3442.5016820601	109
91	88179	3450.609462439748	80
91	88212	3453.513469931298	28
91	88311	3462.22073364883	86
91	88457	3477.8	118
91	88498	3481.4	35
91	88514	3482.601109398214	11
91	88528	3483.80384096875	11
91	88553	3485.913024318827	20
91	88569	3487.113791440747	11
91	88638	3493.222269870714	60
91	88735	3503.6	76
91	88775	3507.1	34
91	88822	3511.207113771392	40
91	88863	3514.708238637398	34
91	88918	3519.616757473721	48
91	88987	3525.721290540326	60
91	89060	3532.024706300714	62
91	89106	3536.030214119689	39
91	89176	3542.231354716432	61
91	89265	3550.139594698227	78
91	89512	3563.9	99
91	89573	3566.6	26
91	89671	3571.208269967443	45
91	89713	3573.118190637267	18
91	89751	3575.623479049982	24
91	89820	3581.731199798275	60
91	89874	3586.340416464494	45
91	89908	3589.343666347403	29
91	89970	3594.743726263766	53
91	90011	3598.249851781942	34
91	90178	3615.9	139
91	90227	3620.1	41
91	90284	3625.207793177543	50
91	90362	3632.011645398158	67
91	90397	3635.11358925287	30
91	90449	3639.713876603847	45
91	90481	3642.317119733621	25
91	90644	3659.6	136
91	90745	3668.6	89
91	90788	3672.301990530798	36
91	90843	3677.206154340882	48
91	90864	3678.915564149219	16
91	90897	3681.825476355924	28
91	90925	3684.031744224125	21
91	90950	3686.137925414427	20
91	91010	3691.546583920046	53
91	91072	3696.946754251852	53
91	91121	3702.9	29
91	91138	3704.3	13
91	91153	3705.601889095411	12
91	91211	3710.603050505406	49
91	91246	3713.709344524176	30
91	91283	3716.809782048727	30
91	91330	3720.913373372857	40
91	91346	3722.118240333799	11
91	91364	3723.720460751749	15
91	91394	3726.126057711786	23
91	91403	3726.834974502557	6
91	91442	3730.144809577883	32
91	91534	3741	70
91	91575	3744.6	35
91	91619	3748.403632574242	37
91	91662	3752.113190555625	36
91	91695	3755.019976358384	28
91	91741	3759.020801228576	39
91	91784	3762.726957679649	36
91	91911	3776.2	102
91	91919	3776.9	6
91	91966	3781.008679773015	40
91	91974	3781.610353499757	5
91	92020	3785.617122518624	39
91	92047	3787.923217758993	22
91	92109	3793.328670506254	53
91	92195	3800.937421396237	75
91	92316	3810.7	67
91	92359	3814.5	37
91	92389	3817.103642961655	25
91	92447	3822.112764977009	49
91	92540	3830.420311298742	82
91	92601	3835.92891568997	54
91	92660	3841.032644097789	50
91	92721	3846.335694397499	52
91	92757	3849.543642831421	31
91	92796	3852.847619108829	32
91	92847	3857.353654954732	44
91	92919	3865.2	52
91	92947	3867.7	24
91	93020	3874.003519789131	62
91	93081	3879.508625734661	54
91	93119	3882.713032368757	31
91	93183	3888.319584150163	55
91	93236	3893.021648406265	46
91	93288	3897.624068598441	45
91	93353	3903.327052370054	56
91	93411	3908.333019430919	49
91	93462	3912.838419188978	44
91	93554	3922.9	69
91	93629	3929.7	67
91	93640	3930.403720962074	6
91	93661	3932.105950501425	16
91	93716	3937.014485304794	48
91	93769	3941.716510031535	46
91	93826	3946.621205398814	48
91	93912	3954.228613197518	75
91	94029	3967.3	93
91	94080	3971.9	45
91	94117	3975.008805554062	30
91	94158	3978.515596401884	34
91	94244	3986.12381357198	75
91	94352	3995.929814934077	97
91	94416	4001.532434266773	55
91	94518	4010.537749766311	89
91	94547	4013.043918907995	24
91	94591	4016.844164552189	37
91	94615	4018.844264867988	19
91	94679	4024.450329089649	55
91	94730	4028.954288945589	44
91	94789	4034.055483687526	50
91	94859	4040.259141139871	61
91	94981	4053.6	96
91	95073	4061.9	82
91	95115	4065.506035055019	35
91	95163	4069.712787361444	41
91	95288	4080.821575335414	110
91	95329	4084.322767394877	34
91	95411	4091.725213674691	73
91	95491	4098.731855120407	69
91	95544	4103.434541757022	46
91	95589	4107.343301511689	38
91	95669	4114.343304561281	69
91	95793	4122.1	41
91	95960	4129.9	77
91	96088	4135.807156452699	58
91	96202	4141.109719679178	52
91	96265	4144.010487148321	28
91	96363	4152.814024046835	87
91	96420	4157.921468491126	50
91	96519	4166.628155012356	86
91	96574	4173.7	37
91	96617	4177.5	37
91	96666	4181.805071794101	42
91	96751	4189.306352257096	74
91	96833	4196.516245909522	71
91	96935	4205.722795321226	91
91	96974	4209.028200304617	32
91	97069	4217.537773051	84
91	97149	4224.542605099022	69
91	97256	4236.3	83
91	97301	4240.3	39
91	97339	4243.706817841045	33
91	97358	4245.209547766534	14
91	97437	4252.116802097869	68
91	97515	4259.12398625229	69
91	97564	4263.429601567575	42
91	97621	4268.336987740573	48
91	97658	4271.646143498444	32
91	97800	4284.253640407754	125
91	98034	4307.8	198
91	98105	4314	61
91	98170	4319.909987335398	58
91	98300	4331.518617864786	115
91	98369	4337.627725196608	60
91	98446	4344.329483914635	66
91	98521	4351.033829881221	66
91	98562	4354.535555588885	34
91	98642	4361.738417864346	71
91	98852	4381.6	176
91	98954	4390.7	90
91	99009	4395.608255084105	48
91	99028	4397.115431178835	14
91	99092	4402.723886111396	55
91	99132	4406.127507174849	33
91	99172	4409.734733586982	35
91	99214	4413.338144297676	35
91	99261	4417.439353719162	40
91	99305	4421.239404848009	37
91	99357	4425.844664116951	45
91	99503	4433.2	52
91	99576	4436.6	33
91	99669	4440.90323794739	42
91	99742	4447.40785439764	64
91	99846	4456.616184795851	91
91	99916	4462.823495081712	61
91	99981	4468.528236565368	56
91	100044	4474.029212360523	54
91	100137	4482.337590244299	82
91	100208	4488.640700686479	62
91	100276	4494.642731794564	59
91	100347	4500.947686807783	62
91	100516	4510.2	62
91	100601	4514.2	39
91	100711	4519.30815775732	50
91	100887	4527.409046387613	80
91	101003	4532.813497965551	53
91	101091	4539.320853623744	64
91	101140	4543.621009710583	42
91	101214	4550.024704679896	63
91	101238	4552.031068037981	19
91	101270	4554.831949859086	27
91	101316	4558.840857350306	39
91	101362	4562.841933561546	39
91	101569	4574	80
91	101644	4577.6	35
91	101660	4578.200607686412	5
91	101673	4578.704999508786	4
91	101709	4580.205463352823	14
91	101717	4580.508932536954	2
91	101988	4593.309985101485	127
91	102246	4606.1	101
91	102442	4616	98
91	102475	4618.907212250246	28
91	102505	4621.513680943061	25
91	102591	4629.118517333836	75
91	102656	4634.821592887429	56
91	102691	4637.923329350022	30
91	102723	4640.525742124752	25
91	102754	4643.233315317146	26
91	102792	4646.438341896784	31
91	102826	4649.440302380058	29
91	102860	4652.244718111113	27
91	103040	4670.9	149
91	103088	4675.2	42
91	103101	4676.106126164712	8
91	103146	4680.007548971808	38
91	103182	4683.217546958567	31
91	103277	4691.727459682291	84
91	103334	4696.629639452353	48
91	103370	4699.829679347643	31
91	103472	4708.833344615014	89
91	103542	4715.035203509121	61
91	103696	4730.6	126
91	103813	4741.2	105
91	103893	4748.200486832556	69
91	103954	4753.709133173659	54
91	104088	4765.714114978123	119
91	104106	4767.114944409323	13
91	104176	4773.318698731875	61
91	104276	4782.121451185648	87
91	104390	4792.328592265927	101
91	104491	4801.435552565309	90
91	104554	4806.942178872123	54
91	104747	4814.3	43
91	104983	4825	106
91	105109	4830.904781089399	58
91	105191	4834.706585628562	37
91	105272	4838.512322201337	37
91	105623	4856.8	148
91	105644	4857.7	8
91	105698	4860.106856704382	23
91	105934	4871.016431707953	108
91	105953	4872.517884264508	14
91	105998	4876.424191539963	38
91	106030	4879.229132149981	27
91	106047	4880.537687039098	12
91	106066	4882.041702275029	14
91	106103	4885.348886771606	32
91	106181	4892.154784754157	67
91	106234	4896.856741853746	46
91	106362	4908.262530072353	113
91	106461	4915	30
91	106526	4918	29
91	106592	4921.009023516073	29
91	106638	4923.11789174399	20
91	106764	4928.924262770506	57
91	106814	4931.124289093833	21
91	106862	4933.327847931723	21
91	106904	4935.229428866419	18
91	106963	4938.7	7
91	107056	4943	42
91	107104	4945.207343496636	21
91	107191	4951.312642282401	60
91	107243	4955.917797408785	45
91	107271	4958.126539042614	21
91	107296	4960.232617366449	20
91	107461	4977.8	138
91	107497	4980.9	30
91	107587	4988.909144567719	79
91	107660	4995.415835432917	64
91	107699	4998.724967975734	32
91	107788	5006.627531541866	78
91	107828	5010.030605515191	33
91	107863	5013.133183215421	30
91	107925	5018.540037519507	53
91	107962	5021.848105891788	32
91	108047	5030.1	61
91	108098	5034.7	45
91	108149	5039.201569057751	44
91	108191	5042.81024533609	35
91	108251	5048.015839875196	51
91	108303	5052.621329629348	45
91	108400	5061.322891462751	86
91	108449	5065.627772038465	42
91	108530	5073.9	59
91	108542	5074.8	8
91	108576	5077.808016684111	29
91	108628	5082.20932272637	43
91	108668	5085.818835147011	35
91	108703	5088.723399097038	28
91	108722	5090.230147975067	14
91	108792	5099.1	51
91	108838	5103.2	40
91	108945	5112.708830190175	94
91	108995	5117.116773020874	43
91	109025	5119.719999997413	25
91	109109	5127.123600125277	73
91	109149	5130.530408851743	33
91	109215	5136.336257078103	57
91	109262	5140.436415790599	40
91	109319	5147.9	39
91	109423	5157.2	92
91	109523	5166.005355954386	87
91	109637	5176.215223412987	101
91	109707	5182.415722774987	61
91	109810	5191.722631150132	92
91	109880	5197.927522224261	61
91	109991	5207.837011994985	98
91	110049	5212.842661881698	49
91	110087	5216.042830435859	31
91	110158	5222.347900145018	62
91	110250	5230.548478960407	81
91	110364	5240.749006556286	101
91	110478	5250.957906893805	101
91	110521	5256.3	23
91	110550	5258.9	25
91	110579	5261.405314430552	24
91	110677	5270.008560059493	85
91	110738	5275.509329552304	54
91	110759	5277.21525748465	16
91	110801	5280.821137824671	35
91	110842	5284.330532394989	34
91	110924	5291.740424517226	73
91	111079	5305.643529209383	138
91	111248	5314.1	61
91	111485	5325.2	110
91	111559	5328.604956653933	33
91	111633	5332.005966704545	33
91	111737	5337.515329673056	54
91	111790	5342.022321657127	44
91	111823	5344.922417267799	28
91	111868	5348.829593771533	38
91	111915	5352.933032575216	40
91	111962	5357.041754746682	40
91	112012	5361.442105743771	43
91	112129	5371.944132774043	104
91	112223	5380.145498519026	81
91	112254	5382.847190529362	26
91	112416	5399.3	133
91	112462	5403.4	40
91	112570	5413.000740690715	95
91	112645	5419.702194903827	66
91	112728	5427.009060763489	72
91	112791	5432.514914962419	54
91	112861	5438.722099537064	61
91	112952	5448.7	67
91	113014	5454.2	54
91	113082	5460.207454560038	59
91	113140	5465.41689201252	51
91	113218	5472.222873885325	67
91	113257	5475.72339114243	34
91	113268	5476.424404309858	6
91	113291	5478.327164596855	18
91	113380	5486.227302256056	78
91	113441	5491.733947770548	54
91	113539	5501.6	76
91	113618	5508.6	69
91	113697	5515.704423227093	70
91	113741	5519.511667793343	37
91	113772	5522.013344917354	24
91	113852	5529.219858247803	71
91	113892	5532.6213138408	33
91	113984	5543.1	71
91	114026	5546.8	36
91	114067	5550.309477495357	34
91	114111	5554.109594884595	37
91	114280	5569.417871470466	152
91	114336	5574.223304578494	47
91	114441	5583.729284713768	94
91	114511	5589.930503176331	61
91	114617	5599.339837123422	93
91	114697	5606.340358202651	69
91	114924	5624.8	148
91	114992	5630.9	60
91	115092	5639.909470824387	89
91	115166	5646.3112363181	63
91	115269	5655.616766482942	92
91	115321	5660.020675454352	43
91	115383	5665.627322618805	55
91	115457	5672.035615603804	63
91	115521	5677.836844776446	57
91	115596	5685.5	55
91	115620	5687.6	20
91	115734	5697.800678678064	101
91	115851	5708.109270370416	102
91	115941	5716.111037948552	79
91	116074	5728.014678764344	118
91	116144	5734.224322268768	61
91	116239	5745.1	71
91	116282	5748.9	37
91	116326	5752.701527934256	37
91	116404	5759.702909944374	69
91	116430	5761.910041449558	21
91	116472	5765.519325334023	35
91	116516	5769.327770173752	37
91	116553	5772.43560964825	30
91	116582	5774.943067669324	24
91	116637	5779.843889039948	48
91	116667	5782.250836340137	23
91	116711	5786.054990382314	37
91	116834	5797.159531203294	110
91	116929	5807.1	71
91	117048	5817.9	107
91	117101	5822.404886176446	44
91	117139	5825.811387510636	33
91	117168	5828.114330666636	22
91	117231	5833.819376266929	56
91	117271	5837.229171604637	33
91	117360	5846.8	68
91	117404	5850.7	38
91	117470	5856.509113866207	57
91	117538	5862.517429240862	59
91	117572	5865.52675371752	29
91	117639	5871.429685085798	58
91	117777	5883.837154432258	123
91	117872	5893.4	74
91	117908	5896.5	30
91	117931	5898.402895458228	18
91	117981	5902.803332986232	43
91	118015	5905.809983353254	29
91	118052	5908.911044982532	30
91	118124	5915.320215359155	63
91	118164	5918.724735748823	33
91	118219	5923.630044093094	48
91	118307	5931.435832815714	77
91	118434	5942.740635704923	112
91	118654	5961.9	159
91	118687	5964.7	27
91	118778	5972.808761958805	80
91	118833	5977.711400146995	48
91	118932	5986.412415950131	86
91	119009	5993.315001694076	68
91	119060	5997.819677546525	44
91	119213	6012.6	126
91	119226	6013.8	11
91	119326	6022.600024843057	87
91	119356	6025.20893582007	25
91	119400	6029.016710771269	37
91	119439	6032.318853941557	32
91	119485	6036.326170158248	39
91	119534	6043.2	32
91	119593	6048.4	51
91	119651	6053.602597061989	51
91	119683	6056.202853652438	25
91	119716	6059.105589371981	28
91	119739	6061.011645088238	18
91	119812	6067.51345751638	64
91	119855	6071.216004621944	36
91	119908	6075.918092104702	46
91	119941	6078.6246773766	26
91	120032	6088.9	69
91	120103	6095.3	63
91	120148	6099.206289592031	38
91	120236	6107.007660104815	77
91	120264	6109.414455544726	23
91	120303	6112.721822808751	32
91	120336	6115.623629734695	28
91	120372	6118.630618123646	29
91	120467	6127.136752667176	84
91	120513	6131.137464414239	39
91	120712	6141.6	76
91	120801	6145.6	39
91	120893	6150.904636003398	52
91	120923	6153.506131492799	25
91	120983	6158.710058441326	51
91	121025	6162.316181721213	35
91	121071	6166.31846016536	39
91	121118	6170.420299013371	40
91	121230	6182.8	88
91	121275	6186.8	39
91	121309	6189.803486240822	29
91	121331	6191.609517725896	17
91	121427	6200.010319611466	83
91	121525	6208.819059261543	87
91	121549	6210.822076877021	19
91	121620	6217.13198091523	62
91	121645	6219.237151668553	20
91	121727	6226.437619841708	71
91	121797	6232.640245194953	61
91	122065	6250.3	143
91	122146	6257.7	73
91	122194	6261.901051819876	41
91	122262	6267.902628966909	59
91	122370	6277.509513057562	95
91	122448	6284.315086331116	67
91	122455	6284.818754627413	4
91	122525	6291.026351224055	61
91	122574	6295.327630801747	42
91	122624	6299.732936385468	43
91	122687	6305.242618760607	54