version 2
run Join-60-20130429-12:51:27-17679
attr configname Join
attr datetime 20130429-12:51:27
attr experiment "\"Join\""
attr inifile omnetpp.ini
attr iterationvars $0=2048
attr iterationvars2 "$0=2048, $repetition=0"
attr measurement $0=2048
attr network Network
attr processid 17679
attr repetition 0
attr replication #0
attr resultdir results
attr runnumber 60
attr seedset 60

vector 60  Network.dyn_peer[0]  lookupHopsSig:vector  ETV
60	5918	20.247106817521	20
60	5948	22.856118805897	25
60	5970	24.656340392978	17
60	6004	27.66247435974	29
60	6016	28.469842961952	7
60	6044	33	10
60	6066	34.9	18
60	6073	35.403987984857	4
60	6109	38.406905730566	29
60	6154	42.312869888294	38
60	6160	42.71347816635	3
60	6214	47.522250836413	47
60	6253	50.828009070582	32
60	6273	52.436999676414	15
60	6299	54.646468207391	21
60	6311	55.647993504411	9
60	6354	59.355091592037	36
60	6368	60.35804348778	9
60	6550	67.8	38
60	6630	70.3	24
60	6672	72.109545361783	17
60	6699	73.311741866182	11
60	6755	75.814435626465	24
60	6828	79.6	16
60	6885	82.1	24
60	6907	83.109262414111	9
60	7039	89.117118442593	59
60	7073	90.620524651509	14
60	7098	92.426953419591	17
60	7120	94.230825609231	17
60	7139	95.931233166799	16
60	7160	97.641202706541	16
60	7181	99.349310952094	16
60	7189	99.955309476498	5
60	7224	103.7	17
60	7238	104.8	10
60	7261	106.704631834127	18
60	7278	108.012583855815	12
60	7292	109.218297630921	11
60	7312	110.826883761617	15
60	7338	113.031238471406	21
60	7374	116.031278840062	29
60	7383	116.736641548022	6
60	7417	119.746597885668	29
60	7429	120.556077114815	7
60	7466	123.860988304832	32
60	7503	126.966336376155	30
60	7526	128.86745290348	18
60	7547	130.574700898387	16
60	7585	134	0
60	7639	136.5	24
60	7677	138.101425424546	15
60	7708	139.904603884138	17
60	7729	141.610363697243	16
60	7740	142.32007658474	6
60	7765	144.421965779397	20
60	7791	146.623610244482	21
60	7798	147.131545390268	4
60	7814	148.339655335392	11
60	7841	150.642285322065	22
60	7928	160.3	63
60	7953	162.5	21
60	7975	164.307203453003	17
60	8000	166.412207647519	20
60	8006	166.818346005849	3
60	8040	169.819241219983	29
60	8070	172.22744980996	23
60	8082	173.236188210972	9
60	8102	174.839019980178	15
60	8118	176.043005225012	11
60	8139	177.94858062547	18
60	8156	179.253571274581	12
60	8198	182.857077718798	35
60	8223	184.964357240134	20
60	8299	193.5	55
60	8342	197.3	37
60	8355	198.20016138436	8
60	8368	199.308662323138	10
60	8390	201.114004431295	17
60	8470	208.11721748912	69
60	8502	210.924501700561	27
60	8546	214.728683753585	37
60	8579	217.637411266736	28
60	8598	219.140765808295	14
60	8611	220.041287548433	8
60	8649	223.448410228549	33
60	8664	224.555752922296	10
60	8675	225.462264936761	8
60	8727	228.7	7
60	8749	230.6	18
60	8762	231.70829085573	10
60	8781	233.209841922665	14
60	8798	234.518873615175	12
60	8813	235.819716856219	12
60	8828	236.920078474427	10
60	8861	239.82313484871	28
60	8874	240.729656413941	8
60	8885	241.630482105743	8
60	8899	242.630656893623	9
60	8910	243.539548478312	8
60	8923	244.444632940196	8
60	8943	246.04895074969	15
60	8961	247.652741372576	15
60	8980	249.159896588698	14
60	9022	252.762655536008	35
60	9076	259.4	34
60	9089	260.4	9
60	9112	262.302204696754	18
60	9127	263.60611869363	12
60	9146	265.107018309427	14
60	9153	265.611953774635	4
60	9166	266.51229794603	8
60	9192	268.719923945811	21
60	9204	269.728271313657	9
60	9223	271.229986208302	14
60	9272	276.9	29
60	9296	279	20
60	9319	280.904390216623	18
60	9340	282.613554790783	16
60	9349	283.323543608029	6
60	9387	286.525424790544	31
60	9425	289.927524585836	33
60	9439	290.93126546188	9
60	9562	298	40
60	9616	302.2	41
60	9639	304.103002383699	18
60	9653	305.303269085061	11
60	9678	307.403329830832	20
60	9694	308.605005572003	11
60	9716	310.405481288561	17
60	9786	319.1	51
60	9800	320.2	10
60	9819	321.903173175449	16
60	9853	324.712063399964	27
60	9876	326.613988685608	18
60	9900	328.623209156873	19
60	9930	331.232715726247	25
60	9979	336.9	29
60	10002	338.9	19
60	10042	342.305609573067	33
60	10058	343.712604467626	13
60	10094	346.72070598473	29
60	10126	349.529996084456	27
60	10153	351.831602612358	22
60	10223	359.1	51
60	10244	360.9	17
60	10272	363.305722786958	23
60	10309	366.406164536386	30
60	10336	368.715382778517	22
60	10361	370.820587280369	20
60	10384	372.723236785288	18
60	10406	374.52348945611	17
60	10444	377.928960968033	33
60	10457	378.836060781672	8
60	10489	383.4	14
60	10509	385.1	16
60	10519	385.90390970339	7
60	10557	389.105547786684	31
60	10580	391.008029919532	18
60	10599	392.509437774733	14
60	10631	395.312163815085	27
60	10651	396.914556680306	15
60	10677	399.116258478358	21
60	10695	400.516558480132	13
60	10704	401.219796878948	6
60	10745	406.1	21
60	10771	408.4	22
60	10781	409.203051852418	7
60	10807	411.412533700079	21
60	10831	413.416944544989	19
60	10864	416.123806791629	26
60	10881	417.626490793286	14
60	10897	418.82809944576	11
60	10907	419.631662793572	7
60	10947	423.037858218504	33
60	10957	423.844057082701	7
60	10987	427.4	14
60	11007	429.1	16
60	11023	430.305561089881	11
60	11031	430.908032812874	5
60	11059	433.312851243223	23
60	11072	434.219650424347	8
60	11083	435.125961083083	8
60	11102	436.628107258505	14
60	11129	438.93371295042	22
60	11144	440.035303195977	10
60	11247	447.7	37
60	11267	449.4	16
60	11282	450.504054827671	10
60	11291	451.207661816121	6
60	11300	451.912203403913	6
60	11309	452.419205824231	4
60	11329	454.02161215344	15
60	11336	454.528597823262	4
60	11370	457.534326817921	29
60	11429	463.9	39
60	11446	465.3	13
60	11475	467.800412628189	24
60	11485	468.404941388135	5
60	11501	469.810157635995	13
60	11514	470.718410694001	8
60	11548	473.725122712822	29
60	11560	474.52568198078	7
60	11598	477.928702300942	33
60	11615	479.233007004618	12
60	11641	481.435321280621	21
60	11685	485.236658698255	37
60	11700	486.342974449444	10
60	11712	487.351693311742	9
60	11734	489.156816471473	17
60	11807	497.1	51
60	11843	500.2	30
60	11876	503.102815501361	28
60	11906	505.704485716504	25
60	11928	507.506279947278	17
60	11964	510.507766240627	29
60	11984	512.117145551756	15
60	12058	521.5	55
60	12072	522.6	10
60	12084	523.609960853494	9
60	12089	523.914270996846	2
60	12135	527.923274831926	39
60	12157	529.732311919127	17
60	12170	530.632419867625	8
60	12177	531.134392939428	4
60	12193	532.339305520974	11
60	12216	534.247841762645	18
60	12243	538.9	9
60	12279	542	30
60	12304	544.103883505307	20
60	12316	545.111995596875	9
60	12331	546.221494181941	10
60	12368	549.528051975732	32
60	12382	550.533217567148	9
60	12393	551.436769989627	8
60	12414	553.144420071896	16
60	12480	560.4	44
60	12515	563.6	31
60	12595	570.609267434724	69
60	12613	572.014878908392	13
60	12630	573.515368512583	14
60	12636	573.920626351465	3
60	12678	577.523261141862	35
60	12713	580.432397143732	28
60	12760	584.539514215293	40
60	12820	589.9	19
60	12832	590.8	8
60	12857	592.902044418151	20
60	12868	593.807019057459	8
60	12893	595.915925389103	20
60	12920	598.016273170861	20
60	12950	600.624551796868	25
60	12979	605.4	14
60	12998	607	15
60	13016	608.408142352406	13
60	13030	609.611008073516	11
60	13060	612.01267724521	23
60	13065	612.314963358715	2
60	13092	614.61613470334	22
60	13128	617.82377449059	31
60	13143	618.928673704947	10
60	13169	621.130497203299	21
60	13201	623.936102439574	27
60	13244	627.642541117108	36
60	13282	630.847222674243	31
60	13304	632.651409859879	17
60	13329	634.754623391705	20
60	13375	640.7	27
60	13391	642	12
60	13426	645.109650327283	30
60	13434	645.715120169975	5
60	13441	646.024251920786	2
60	13477	649.232292691855	31
60	13494	650.541386569621	12
60	13516	652.348779588808	17
60	13631	659.5	35
60	13696	662.3	27
60	13732	664.70309181794	23
60	13752	666.312209011818	15
60	13783	669.01851174271	26
60	13813	671.622749824046	25
60	13818	671.925062503378	2
60	13845	674.031577682498	20
60	13855	674.836236010969	7
60	13868	675.943290236859	10
60	13914	679.950332883609	39
60	13969	684.65959484797	46
60	14025	691.6	36
60	14064	695	33
60	14119	699.907348681793	48
60	14132	700.816493948148	8
60	14173	704.322025142702	34
60	14210	707.628212821428	32
60	14225	708.731361634214	10
60	14235	709.540075006514	7
60	14300	716.3	43
60	14339	719.9	35
60	14363	721.901467081666	19
60	14416	726.403671801366	44
60	14506	736.6	66
60	14535	739.2	25
60	14564	741.708133946172	24
60	14588	743.708482840686	19
60	14620	746.312331890324	25
60	14637	747.818961660493	14
60	14668	750.324030300377	24
60	14695	755.2	12
60	14715	756.9	16
60	14742	759.206363481951	22
60	14772	761.814264436354	25
60	14792	763.420585167472	15
60	14807	764.527476760776	10
60	14834	766.837216727992	22
60	14847	767.945957718584	10
60	14878	771.5	15
60	14903	773.7	21
60	14926	775.607624543698	18
60	14936	776.211756776224	5
60	14952	777.615345160045	13
60	14960	778.016961600465	3
60	14986	780.225935947584	21
60	15031	786.8	28
60	15054	788.8	19
60	15082	791.206840665559	23
60	15108	793.415338326801	21
60	15119	794.121334802195	6
60	15150	796.824233318284	26
60	15177	799.126860512346	22
60	15199	800.928176324057	17
60	15247	805.132405770073	41
60	15273	808.8	8
60	15296	810.8	19
60	15317	812.50476475937	16
60	15350	815.413502138452	28
60	15390	818.819377771785	33
60	15431	822.32751862293	34
60	15446	823.636362164517	12
60	15477	826.141218988223	24
60	15522	830.044300126838	38
60	15548	832.247156197751	21
60	15573	834.352132806839	20
60	15611	837.758985902132	33
60	15646	840.662440576034	28
60	15688	846.4	24
60	15734	850.5	40
60	15744	851.303512320064	7
60	15766	853.108649672846	17
60	15808	856.71467102055	35
60	15820	857.717441363234	9
60	15844	859.719564295599	19
60	15866	861.523236257056	17
60	15886	863.13115067273	15
60	15894	863.736740850336	5
60	15928	866.544661539793	27
60	15968	872	20
60	15976	872.7	6
60	15983	873.209458294881	4
60	16002	874.717137454813	14
60	16023	876.417750565101	16
60	16038	877.720011044799	12
60	16067	880.02266875535	22
60	16122	884.931262029676	48
60	16165	890.3	23
60	16196	893.1	27
60	16245	897.402074572527	42
60	16272	899.703054369098	22
60	16292	901.309235483646	15
60	16309	902.619005145377	12
60	16317	903.222683627516	5
60	16360	908.6	26
60	16384	910.7	20
60	16396	911.708586450705	9
60	16415	913.212274408549	14
60	16439	915.219302589324	19
60	16470	917.922770433801	26
60	16497	920.024348882774	20
60	16518	921.927998008706	18
60	16560	925.530143537676	35
60	16618	931.8	38
60	16642	933.9	20
60	16670	936.10867773114	21
60	16710	939.71364584804	35
60	16773	945.215631978951	54
60	16831	951.8	38
60	16863	954.5	26
60	16893	957.107662234776	25
60	16922	959.614371927268	24
60	16954	962.222075307442	25
60	16979	964.32636632097	20
60	17002	966.229451734249	18
60	17021	970.4	4
60	17062	974	35
60	17088	976.208554917061	21
60	17118	978.81804094812	25
60	17161	982.525905884379	36
60	17189	984.933931406138	23
60	17215	987.140200076599	21
60	17259	990.944914667818	37
60	17288	993.452555099637	24
60	17313	995.560430100408	20
60	17345	998.16664044462	25
60	17364	999.8712378256	16
60	17382	1001.271627847377	13
60	17471	1006.4	24
60	17518	1008.6	21
60	17531	1009.409192277891	7
60	17554	1011.310197614118	18
60	17588	1014.118943309088	27
60	17614	1016.326880343789	21
60	17628	1017.536257606334	11
60	17648	1019.139713251526	15
60	17663	1020.248650229478	10
60	17679	1021.6492918663	13
60	17704	1023.750079462911	20
60	17737	1026.455971744731	26
60	17746	1027.160138935758	6
60	17774	1029.564225560609	23
60	17795	1031.273695736502	16
60	17823	1035	10
60	17862	1038.4	33
60	17913	1042.900771419813	44
60	17936	1044.80300096671	18
60	17959	1046.709070093661	18
60	17976	1048.017836033398	12
60	17991	1049.327775700675	12
60	18012	1051.032529665702	16
60	18029	1052.336380328768	12
60	18059	1057.4	14
60	18095	1060.5	30
60	18130	1063.602971654948	30
60	18154	1065.603082086196	19
60	18177	1067.507922169308	18
60	18213	1070.516242353311	29
60	18218	1070.824649752332	2
60	18270	1077.2	32
60	18286	1078.5	12
60	18328	1082.10390204922	35
60	18355	1084.404563933496	22
60	18365	1085.209843379228	7
60	18374	1085.914686278546	6
60	18401	1088.9	9
60	18417	1090.2	12
60	18445	1092.605691796932	23
60	18464	1094.114079761146	14
60	18483	1095.817218900122	16
60	18520	1098.918329059723	30
60	18529	1099.627296476849	6
60	18544	1100.733326128186	10
60	18551	1101.238638436848	4
60	18556	1101.53894739914	2
60	18574	1102.947939642947	13
60	18589	1104.050699792539	10
60	18632	1110.4	24
60	18663	1113.2	27
60	18681	1114.609951858858	13
60	18709	1117.019111923109	23
60	18732	1118.920427404941	18
60	18743	1119.822680705234	8
60	18758	1120.924611837193	10
60	18770	1121.926430159418	9
60	18785	1123.026813902128	10
60	18826	1126.526913094894	34
60	18836	1127.329080950807	7
60	18859	1129.232597122139	18
60	18873	1130.234898306827	9
60	18940	1138.6	46
60	18976	1141.9	32
60	19034	1146.90488330784	49
60	19074	1150.308576738547	33
60	19089	1151.614827838678	12
60	19107	1153.020864574881	13
60	19129	1154.829103116518	17
60	19170	1158.329686394174	34
60	19196	1160.539685319455	21
60	19217	1162.247643319256	16
60	19266	1168.9	29
60	19290	1171	20
60	19307	1172.304155483888	12
60	19345	1175.70866552686	33
60	19360	1176.813668705186	10
60	19367	1177.319993466374	4
60	19390	1179.224498929521	18
60	19402	1180.02574117345	7
60	19417	1181.331267457662	12
60	19446	1183.837058324124	24
60	19466	1185.437580173899	15
60	19489	1187.338289148114	18
60	19508	1188.84208386231	14
60	19528	1190.450497931505	15
60	19539	1191.357006246221	8
60	19576	1194.460186219042	30
60	19608	1199.4	14
60	19625	1200.8	13
60	19650	1202.907332377997	20
60	19662	1203.9135475252	9
60	19692	1206.319357879705	23
60	19723	1209.021639269546	26
60	19746	1210.921851057903	18
60	19775	1213.428985335369	24
60	19797	1215.230474030751	17
60	19833	1218.236264842707	29
60	19867	1221.243185509194	29
60	19978	1227.5	35
60	20045	1230.5	29
60	20097	1232.802309184754	22
60	20165	1235.907214018648	30
60	20193	1237.509158002335	15
60	20211	1238.910406767047	13
60	20243	1241.716374877145	27
60	20272	1244.024317087923	22
60	20288	1245.428902161126	13
60	20314	1247.638464771483	21
60	20333	1249.145266428379	14
60	20351	1250.549434597805	13
60	20367	1251.950830681636	13
60	20423	1257.7	37
60	20435	1258.6	8
60	20446	1259.506602867939	8
60	20479	1262.215925062621	26
60	20505	1264.421341160923	21
60	20535	1267.025902910428	25
60	20566	1269.735889447217	26
60	20604	1274.1	21
60	20640	1277.4	32
60	20665	1279.509863004698	20
60	20696	1282.017441583456	24
60	20748	1286.618822324817	45
60	20792	1290.419041751984	37
60	20808	1291.828877717396	13
60	20872	1298.2	42
60	20877	1298.6	3
60	20896	1300.105990317086	14
60	20908	1301.109019290208	9
60	20915	1301.618100316656	4
60	20924	1302.123627642159	4
60	20963	1305.62484713452	34
60	20988	1309	10
60	21009	1310.8	17
60	21030	1312.507972523146	16
60	21071	1316.016806336992	34
60	21108	1319.321385913422	32
60	21149	1322.82614184144	34
60	21179	1325.432379550883	25
60	21245	1332.4	44
60	21261	1333.9	14
60	21285	1335.900464863069	19
60	21294	1336.405470829768	4
60	21306	1337.412324936777	9
60	21338	1340.021132390034	25
60	21375	1343.324605122779	32
60	21399	1345.325757478955	19
60	21410	1346.028914457836	6
60	21442	1348.833313071305	27
60	21479	1353.9	19
60	21494	1355.1	11
60	21519	1357.201151754122	20
60	21539	1358.804258438995	15
60	21586	1362.906398404705	40
60	21590	1363.108071098275	1
60	21622	1365.910281597081	27
60	21657	1368.817700710795	28
60	21683	1371.024876143057	21
60	21705	1372.825127942827	17
60	21727	1374.634219009889	17
60	21756	1379.3	13
60	21792	1382.4	30
60	21817	1384.50692492638	20
60	21836	1386.007515547601	14
60	21860	1388.013780881366	19
60	21894	1391.01460301441	29
60	21916	1392.817912250681	17
60	21933	1394.123019940434	12
60	21970	1397.42453366822	32
60	22011	1400.4	4
60	22045	1403.5	30
60	22058	1404.403006598772	8
60	22072	1405.607129174114	11
60	22090	1407.007697141544	13
60	22109	1408.517115295455	14
60	22129	1410.12336270954	15
60	22159	1412.728484081071	25
60	22205	1416.735949499596	39
60	22228	1418.638743844898	18
60	22241	1419.738952922008	10
60	22275	1423.6	16
60	22297	1425.5	18
60	22330	1428.203330821257	26
60	22340	1429.01153978371	7
60	22360	1430.619149936865	15
60	22373	1431.71946138162	10
60	22393	1433.327709111031	15
60	22413	1434.931473018028	15
60	22458	1440.5	25
60	22478	1442.2	16
60	22507	1444.704093064612	24
60	22534	1447.008060182172	22
60	22553	1448.513155060168	14
60	22569	1449.916362923257	13
60	22592	1451.817806147659	18
60	22602	1452.421993019178	5
60	22610	1453.027134303869	5
60	22661	1459.1	31
60	22679	1460.6	14
60	22697	1462.008214374803	13
60	22714	1463.515954706088	14
60	22735	1465.225665742195	16
60	22758	1467.135287686594	18
60	22790	1469.94452930551	27
60	22804	1470.95043741435	9
60	22822	1472.354888822449	13
60	22839	1473.861777507894	14
60	22858	1475.363660600253	14
60	22870	1476.169978172192	7
60	22888	1477.773910816118	15
60	22928	1482.2	22
60	22941	1483.4	11
60	22964	1485.309291842835	18
60	22981	1486.616034473331	12
60	23013	1489.419269181765	27
60	23038	1491.522071950123	20
60	23086	1496.8	28
60	23109	1498.8	19
60	23132	1500.702399556536	18
60	23180	1504.907968254561	41
60	23201	1506.611886120139	16
60	23220	1508.118373492917	14
60	23265	1512.02169004227	38
60	23294	1517.4	14
60	23311	1518.8	13
60	23328	1520.10859912395	12
60	23340	1521.115512772432	9
60	23348	1521.723398337034	5
60	23358	1522.327866245157	5
60	23369	1523.234742213345	8
60	23393	1525.241534314941	19
60	23432	1530.1	21
60	23459	1532.5	23
60	23487	1534.907716975403	23
60	23518	1537.614300135974	26
60	23528	1538.217041929254	5
60	23536	1538.821353372984	5
60	23553	1540.129931112044	12
60	23590	1545.9	19
60	23631	1549.5	35
60	23650	1551.009116943993	14
60	23671	1552.7140720004	16
60	23682	1553.621779667501	8
60	23718	1556.625474749008	29
60	23791	1561.7	17
60	23823	1564.3	25
60	23838	1565.607491408514	12
60	23863	1567.712739996572	20
60	23893	1570.114803242028	23
60	23913	1571.923227785347	17
60	23924	1572.631198954522	6
60	23942	1574.032830669549	13
60	23968	1576.241173587841	21
60	23985	1577.743602600641	14
60	24008	1579.650032001727	18
60	24046	1582.855617043217	31
60	24096	1587.259977559404	43
60	24205	1594.8	48
60	24223	1596.3	14
60	24241	1597.900605137918	15
60	24269	1600.102215451634	21
60	24306	1603.40633960529	32
60	24327	1605.1066338553	16
60	24354	1607.413978191998	22
60	24420	1614.7	47
60	24458	1618	32
60	24487	1620.50996477914	24
60	24511	1622.514686656938	19
60	24557	1626.515412569971	39
60	24577	1628.118293795472	15
60	24597	1629.926184978427	17
60	24613	1631.127691689669	11
60	24633	1632.734383561939	15
60	24668	1635.837644691613	30
60	24698	1638.245481058448	23
60	24728	1643.4	14
60	24771	1647.2	37
60	24796	1649.304825663957	20
60	24811	1650.407356386332	10
60	24842	1653.114202872468	26
60	24848	1653.515076526093	3
60	24865	1654.815908548176	12
60	24873	1655.422934838219	5
60	24906	1659.5	15
60	24929	1661.5	19
60	24948	1663.009012235002	14
60	25007	1668.118809344332	50
60	25026	1669.819907040827	16
60	25129	1676.4	44
60	25137	1677.1	6
60	25151	1678.109385670146	9
60	25165	1679.31515999918	11
60	25176	1680.018886729098	6
60	25191	1681.328787278617	12
60	25205	1682.332585260421	9
60	25228	1686.8	8
60	25243	1688	11
60	25259	1689.405678863688	13
60	25297	1692.613061962299	31
60	25318	1694.322744123217	16
60	25327	1695.032327787534	6
60	25356	1697.53759526723	24
60	25383	1701.2	12
60	25391	1701.9	6
60	25409	1703.307351367652	13
60	25430	1705.010506611907	16
60	25468	1708.211220858742	31
60	25481	1709.319831300801	10
60	25510	1711.820163996465	24
60	25520	1712.421346269036	5
60	25542	1714.230406835663	17
60	25560	1718	0
60	25583	1720	19
60	25598	1721.303070832751	12
60	25606	1721.912597766375	5
60	25614	1722.322161469998	3
60	25632	1723.928520784383	15
60	25650	1725.337329434724	13
60	25706	1731.9	39
60	25748	1735.6	36
60	25757	1736.107472669889	4
60	25770	1737.207743301654	10
60	25789	1738.71455542443	14
60	25814	1740.819169039597	20
60	25831	1742.126337099237	12
60	25856	1744.227727703646	20
60	25862	1744.632369511295	3
60	25887	1746.73396103627	20
60	25927	1752.1	21
60	25937	1753	8
60	25974	1756.109096629824	30
60	25985	1757.014119415024	8
60	26015	1759.61976156091	25
60	26025	1760.228583883772	5
60	26077	1767.2	32
60	26137	1772.5	52
60	26181	1776.301872625688	37
60	26208	1778.605323593862	22
60	26242	1781.614947464564	29
60	26275	1784.324869256026	26
60	26311	1787.527408973858	31
60	26346	1790.430368253522	28
60	26357	1791.334011883312	8
60	26389	1795.4	14
60	26417	1797.9	24
60	26448	1800.409067029606	24
60	26503	1805.30962956961	48
60	26529	1807.519020018817	21
60	26560	1810.025448728848	24
60	26616	1815.031264651442	49
60	26639	1816.93786979219	18
60	26666	1819.241265668061	22
60	26737	1826.9	49
60	26762	1829.1	21
60	26786	1831.107717511933	19
60	26809	1833.00959014781	18
60	26832	1834.917780173527	18
60	26862	1837.522495667446	25
60	26876	1838.530242661696	9
60	26938	1846.3	43
60	26963	1848.5	21
60	27010	1852.609248589053	40
60	27034	1854.617934680999	19
60	27076	1858.218931158453	35
60	27112	1861.424963227734	31
60	27151	1864.726304946262	32
60	27187	1867.933843145866	31
60	27223	1870.934971769451	29
60	27265	1874.540463011289	35
60	27389	1882	40
60	27440	1884.3	22
60	27516	1888.502172102569	41
60	27532	1889.907371587904	13
60	27574	1893.510850448696	35
60	27613	1896.818621590436	32
60	27633	1898.423607285847	15
60	27677	1902.227303024777	37
60	27752	1907.8	18
60	27759	1908	1
60	27774	1908.608577058759	5
60	27810	1910.112909876544	14
60	27826	1910.814195374967	6
60	27859	1912.223305144819	13
60	27886	1914.52372767083	22
60	27912	1919.1	11
60	27948	1922.2	30
60	27966	1923.805433122662	15
60	28048	1931.006390176661	71
60	28071	1932.909869103053	18
60	28109	1936.117470755794	31
60	28132	1938.018602461407	18
60	28153	1939.924883072764	18
60	28164	1940.62933220673	6
60	28186	1942.438708676466	17
60	28206	1946.3	3
60	28223	1947.9	15
60	28246	1949.809214610455	18
60	28274	1952.014106079228	21
60	28302	1954.415212783817	23
60	28330	1956.816173551146	23
60	28363	1959.716766370768	28
60	28379	1960.92630105183	11
60	28419	1964.330162951815	33
60	28464	1968.234788505457	38
60	28501	1971.543875312177	32
60	28532	1974.048405644589	24
60	28542	1974.857600731007	7
60	28582	1980.1	21
60	28613	1982.9	27
60	28645	1985.702524659389	27
60	28660	1986.805237899534	10
60	28699	1990.108618040612	32
60	28727	1992.515034367897	23
60	28738	1993.419016130462	8
60	28750	1994.219828258149	7
60	28764	1995.426206556434	11
60	28811	1998.5	5
60	28856	2000.5	19
60	28896	2002.207088408845	16
60	28950	2004.612373339445	23
60	29048	2009.01496453714	43
60	29122	2012.221957464138	31
60	29339	2020.4	44
60	29446	2024.8	43
60	29482	2026.30280947176	14
60	29530	2028.408463152781	20
60	29583	2032.01774796181	35
60	29616	2034.921651818655	28
60	29664	2040.8	28
60	29697	2043.8	29
60	29730	2046.509235523228	26
60	29742	2047.509628979606	9
60	29781	2050.815617983707	32
60	29798	2052.120813669206	12
60	29831	2055.024163233796	28
60	29864	2059.8	18
60	29875	2060.6	7
60	29937	2066.003071364178	53
60	29957	2067.808679074889	17
60	30022	2073.515898883246	56
60	30032	2074.118500121676	5
60	30047	2075.419184723256	12
60	30054	2075.923137638896	4
60	30072	2077.323381610953	13
60	30095	2079.227409511651	18
60	30153	2085.8	38
60	30171	2087.3	14
60	30188	2088.608531378542	12
60	30220	2091.40873383311	27
60	30244	2093.416937390446	19
60	30268	2095.42553087435	19
60	30302	2098.226051569222	27
60	30340	2101.630059917473	33
60	30351	2102.334676901452	6
60	30373	2104.134964676306	17
60	30385	2105.140106147255	9
60	30440	2111.5	35
60	30464	2113.6	20
60	30487	2115.508627057708	18
60	30501	2116.516090832174	9
60	30566	2122.219090775421	56
60	30591	2124.324274603388	20
60	30612	2126.031885137202	16
60	30626	2127.232934237416	11
60	30680	2133.4	34
60	30748	2139.5	60
60	30757	2140.008802870598	4
60	30764	2140.51244906113	4
60	30785	2142.217512024766	16
60	30792	2142.723839049166	4
60	30797	2143.028602235223	2
60	30833	2146.03356732139	29
60	30870	2149.336799171975	32
60	30926	2155.6	36
60	30950	2157.7	20
60	30980	2160.103765006845	23
60	31010	2162.703901981259	25
60	31061	2167.209726935971	44
60	31084	2169.118761497094	18
60	31112	2171.524755415549	23
60	31162	2175.927729124764	43
60	31190	2178.12997981086	21
60	31219	2180.638528763422	24
60	31249	2183.241673272492	25
60	31279	2185.844653999577	25
60	31309	2188.253248817699	23
60	31324	2189.561208281602	12
60	31380	2195.7	37
60	31401	2197.5	17
60	31473	2203.906139320833	63
60	31507	2206.716084378985	27
60	31554	2212.7	27
60	31600	2216.8	40
60	31678	2223.809070555828	69
60	31707	2226.110511425109	22
60	31736	2228.614162186567	24
60	31779	2232.319616868315	36
60	31801	2234.123695997261	17
60	31825	2236.128380254805	19
60	31874	2240.437417949933	42
60	31898	2244.8	8
60	31922	2246.9	20
60	31948	2249.101103047318	21
60	31970	2250.905671361164	17
60	31997	2253.206726994857	22
60	32005	2253.811357378182	5
60	32033	2256.012527295171	21
60	32045	2257.021659446504	9
60	32054	2257.727104894384	6
60	32064	2258.327350519835	5
60	32121	2263.429646954883	50
60	32194	2267.5	15
60	32227	2269.3	17
60	32246	2270.809454240044	14
60	32265	2272.318452468616	14
60	32288	2274.220084149743	18
60	32312	2276.220679771046	19
60	32344	2279.028202255016	27
60	32366	2280.83748964413	17
60	32390	2282.844264496701	19
60	32407	2284.148107523814	12
60	32420	2285.249125438728	10
60	32444	2287.251125002589	19
60	32464	2288.856736751261	15
60	32483	2292.3	3
60	32494	2293.3	9
60	32520	2295.501291657336	21
60	32570	2299.901929407949	43
60	32607	2303.004387875099	30
60	32628	2304.706825500335	16
60	32652	2306.713822923902	19
60	32684	2309.517442865514	27
60	32710	2311.724419736319	21
60	32732	2313.528127656494	17
60	32755	2315.432527044637	18
60	32805	2318.9	9
60	32821	2320.2	12
60	32829	2320.800699314828	5
60	32841	2321.808388102416	9
60	32870	2324.116843580422	22
60	32916	2330.6	26
60	32939	2332.6	19
60	32954	2333.9056148152	12
60	32964	2334.512887177119	5
60	32990	2336.719042550514	21
60	33009	2338.221561513117	14
60	33025	2339.621756934286	13
60	33051	2341.824395284305	21
60	33090	2346.1	21
60	33097	2346.7	5
60	33110	2347.808972265936	10
60	33139	2350.1159887893	22
60	33170	2352.81883448504	26
60	33253	2358	20
60	33290	2359.7	16
60	33302	2360.007386611865	2
60	33350	2362.113293349442	20
60	33376	2364.315454871481	21
60	33405	2366.817911843595	24
60	33467	2372.225544937381	53
60	33491	2374.226914926459	19
60	33505	2375.435536662874	11
60	33572	2382.5	45
60	33595	2384.5	19
60	33632	2387.806309671271	32
60	33657	2389.906513198129	20
60	33692	2392.813901317123	28
60	33712	2394.418412857229	15
60	33729	2395.9197993577	14
60	33767	2399.126214574599	31
60	33798	2403.5	15
60	33834	2406.6	30
60	33842	2407.200229911166	5
60	33855	2408.106171067126	8
60	33879	2410.113035099272	19
60	33908	2415.1	11
60	33927	2416.7	15
60	33947	2418.308180040474	15
60	33965	2419.908695827356	15
60	33988	2421.814424327338	18
60	34007	2423.31603290465	14
60	34015	2423.923526956763	5
60	34036	2426.6	6
60	34065	2429.2	25
60	34087	2431.000260389642	17
60	34106	2432.503236275635	14
60	34136	2435.109646380942	25
60	34168	2437.912879849388	27
60	34188	2439.521376877771	15
60	34213	2443	10
60	34240	2445.4	23
60	34247	2445.909599285773	4
60	34263	2447.119485946907	11
60	34281	2448.521644866319	13
60	34310	2451.029737809665	24
60	34339	2453.53714808645	24
60	34379	2456.940022266984	33
60	34388	2457.647529027328	6
60	34427	2460.951424363689	32
60	34549	2468.4	44
60	34597	2472.7	42
60	34631	2475.706778777509	29
60	34655	2477.71640710754	19
60	34693	2480.920344115206	31
60	34732	2484.224054851386	32
60	34762	2486.824207408903	25
60	34794	2489.62802685243	27
60	34869	2493.9	19
60	34912	2495.8	18
60	34957	2497.809106109626	19
60	34979	2498.711095115315	8
60	35102	2504.315682086929	55
60	35123	2505.22020199456	8
60	35183	2507.923036272383	26
60	35213	2509.723711468371	17
60	35234	2511.432632935061	16
60	35260	2513.640958533314	21
60	35284	2515.648958613205	19
60	35318	2519.8	18
60	35352	2522.7	28
60	35379	2525.003490299526	22
60	35405	2527.206068127625	21
60	35421	2528.412925676495	11
60	35459	2531.820126159911	33
60	35525	2538.4	44
60	35556	2541.2	27
60	35584	2543.6092497493	23
60	35608	2545.614264585776	19
60	35622	2546.621156246058	9
60	35652	2549.224055143081	25
60	35683	2551.926261187448	26
60	35721	2555.12896453013	31
60	35762	2558.638282368886	34
60	35792	2561.241908635501	25
60	35823	2563.950013736359	26
60	35851	2566.153904754766	21
60	35867	2567.559131559508	13
60	35950	2571.8	18
60	36001	2575.3	34
60	36016	2576.401389633447	10
60	36053	2579.703223903521	32
60	36091	2582.910781616516	31
60	36113	2584.718662450442	17
60	36125	2585.723087554118	9
60	36140	2586.826630687029	10
60	36151	2587.732190998105	8
60	36164	2588.639605776955	8
60	36217	2595.4	34
60	36230	2596.4	9
60	36243	2597.507805780291	10
60	36283	2600.910583890278	33
60	36315	2605.4	14
60	36351	2608.5	30
60	36376	2610.605422304423	20
60	36387	2611.511475732905	8
60	36424	2614.617221984361	30
60	36447	2616.517667067466	18
60	36471	2618.526103899486	19
60	36546	2627.3	53
60	36580	2630.2	28
60	36606	2632.406386779805	21
60	36636	2635.009764257592	25
60	36709	2641.510280980718	64
60	36759	2647	30
60	36788	2649.6	25
60	36799	2650.30703360324	6
60	36821	2652.114061416564	17
60	36844	2654.014326277111	18
60	36884	2657.620626681222	35
60	36910	2659.821741337229	21
60	36944	2662.630729476741	27
60	36962	2664.038746693848	13
60	37038	2673.6	56
60	37058	2675.3	16
60	37063	2675.608957162129	2
60	37102	2678.914507611219	32
60	37129	2681.222892432585	22
60	37160	2683.932521700993	26
60	37198	2687.139888896109	31
60	37229	2689.843450870141	26
60	37242	2690.752267518951	8
60	37272	2693.35696238584	25
60	37317	2697.265487331832	38
60	37378	2701.1	11
60	37474	2706.1	49
60	37507	2709.008784883699	28
60	37533	2711.217762508172	21
60	37581	2715.421590486085	41
60	37610	2717.929919700284	24
60	37644	2720.737444397196	27
60	37669	2722.839972942514	20
60	37691	2724.648353909985	17
60	37714	2726.55147972417	18
60	37744	2729.151915257269	25
60	37786	2732.75322464661	35
60	37873	2738.3	23
60	37938	2741.3	29
60	37958	2742.508904404041	11
60	37971	2743.612690524264	10
60	37981	2744.220679529424	5