version 2
run Join-95-20130429-13:07:36-17679
attr configname Join
attr datetime 20130429-13:07:36
attr experiment "\"Join\""
attr inifile omnetpp.ini
attr iterationvars $0=16384
attr iterationvars2 "$0=16384, $repetition=5"
attr measurement $0=16384
attr network Network
attr processid 17679
attr repetition 5
attr replication #5
attr resultdir results
attr runnumber 95
attr seedset 95

vector 95  Network.dyn_peer[0]  lookupHopsSig:vector  ETV
95	43531	25.101230474177	78
95	43567	28.102891792938	29
95	43623	33.103543374297	49
95	43695	39.511908216533	63
95	43720	41.61653856775	20
95	43753	44.322512973029	26
95	43806	49.029270522325	46
95	43872	54.83523957731	57
95	43918	58.842733827657	39
95	43992	65.449119480817	65
95	44069	72.156144652633	66
95	44099	74.756978462229	25
95	44230	88.3	103
95	44288	93.6	52
95	44374	101.200471845723	75
95	44440	107.002548908123	57
95	44501	112.309080350389	52
95	44558	117.416876973108	50
95	44656	126.025297790736	85
95	44711	130.93493827821	48
95	44755	134.736473994806	37
95	44769	135.940517743785	11
95	44885	147.1	91
95	44906	148.9	17
95	44970	154.509328464232	55
95	44986	155.913910813699	13
95	45023	159.018172173252	30
95	45078	163.925586536208	48
95	45099	165.628958938508	16
95	45210	176.8	88
95	45292	184.1	72
95	45329	187.407273804598	32
95	45354	189.512336410024	20
95	45507	203.214720687103	136
95	45534	205.520353757457	22
95	45697	221.3	133
95	45761	227	56
95	45800	230.302828713059	32
95	45857	235.405710207381	50
95	45949	243.61259952294	81
95	45994	247.514751110554	38
95	46034	250.92114772503	33
95	46104	259.1	51
95	46166	264.6	54
95	46218	269.208405384263	45
95	46271	273.913725987961	46
95	46333	279.316346761853	53
95	46376	283.020378512843	36
95	46422	287.023131436743	39
95	46428	287.426846599204	3
95	46468	290.827037577386	33
95	46535	296.731835867193	58
95	46578	300.436770082014	36
95	46634	305.440122357469	49
95	46690	310.244836073871	47
95	46720	312.853419585816	25
95	46773	317.55904449212	46
95	46831	322.565433806247	49
95	47007	332.6	66
95	47062	335.2	25
95	47134	338.403618712627	31
95	47212	341.911413552788	34
95	47374	349.415121597011	74
95	47427	352.919593523916	34
95	47501	359.52733744653	65
95	47561	366.1	41
95	47593	369	28
95	47669	375.80231522669	67
95	47714	379.704228046842	38
95	47769	384.405474797336	46
95	47795	386.614409258528	21
95	47805	387.418940761451	7
95	47831	391.1	11
95	47878	395.3	41
95	47936	400.301033490502	49
95	47985	404.610717018099	42
95	48099	414.817079698426	101
95	48182	422.122884165317	72
95	48231	426.428699147487	42
95	48286	431.329064120808	48
95	48363	438.030320795468	66
95	48489	444.2	22
95	48516	445	7
95	48604	447.801155169859	27
95	48638	448.802693137444	9
95	48675	449.907438948127	10
95	48997	459.909607342426	99
95	49122	463.817352984252	38
95	49207	466.924355877251	30
95	49278	472.724773893393	57
95	49332	477.524917848263	47
95	49547	488.3	83
95	49650	493.1	47
95	49832	501.403780070908	82
95	49898	504.41165755038	29
95	49950	506.717158990582	22
95	50008	509.226935094758	24
95	50106	513.828187369389	45
95	50192	517.837514332331	39
95	50239	521.938160684363	40
95	50268	524.240834977315	22
95	50321	528.945387367929	46
95	50504	538.8	68
95	50585	542.5	36
95	50617	543.906277825774	13
95	50687	547.010501801869	30
95	50733	549.110722598085	20
95	50855	555.211583592582	60
95	50890	558.116207198677	28
95	50949	563.425832279677	52
95	51007	568.425843389861	49
95	51056	572.72989142504	42
95	51154	583.4	74
95	51217	589	55
95	51244	591.309711374405	22
95	51308	596.915106745711	55
95	51368	602.122631336205	51
95	51483	612.431761659215	102
95	51536	617.137794628449	46
95	51573	620.246865879013	30
95	51687	630.45085797873	101
95	51742	635.355141103504	48
95	51759	636.655666063447	12
95	51904	649.762876357625	130
95	52142	662.2	102
95	52178	665.5	32
95	52210	668.109573398726	25
95	52240	670.714602170982	25
95	52253	671.824565677214	10
95	52318	677.532201900749	56
95	52354	680.540744459802	29
95	52378	682.548068366391	19
95	52430	687.151479287047	45
95	52517	696.3	63
95	52534	697.9	15
95	52631	706.405083373924	84
95	52668	709.706843430611	32
95	52714	713.715175661837	39
95	52782	719.722175677203	59
95	52817	722.627564583558	28
95	52876	727.935889399784	52
95	52984	737.545167258802	95
95	53090	743.3	33
95	53174	749.3	59
95	53210	752.305795448743	29
95	53244	755.312185240522	29
95	53282	758.51599692273	31
95	53363	765.825464016567	72
95	53424	771.127695837256	52
95	53499	777.834980183078	66
95	53531	780.435995497831	25
95	53605	787.040534050165	65
95	53675	793.241800222548	61
95	53761	802.2	62
95	53791	804.9	26
95	53831	808.300243001976	33
95	53866	811.409805529336	30
95	53927	816.71875862026	52
95	53938	817.62821496076	8
95	53954	818.838047305972	11
95	53979	820.945981471643	20
95	54029	825.346527976609	43
95	54059	827.94661275971	25
95	54100	831.451836096171	34
95	54132	834.060498785161	25
95	54148	835.460936773601	13
95	54180	838.066863049829	25
95	54197	839.57155538896	14
95	54228	842.078960202675	24
95	54269	845.779520660644	36
95	54696	866.3	183
95	54775	870	36
95	54854	873.707041583894	36
95	54927	878.013811080366	42
95	54984	883.117704784384	50
95	55013	885.619576455282	24
95	55079	891.424112362216	57
95	55118	894.728163918158	32
95	55189	901.029100309274	62
95	55383	920.2	162
95	55439	925.3	50
95	55501	930.706500955417	53
95	55564	936.212218303829	54
95	55601	939.515121303514	32
95	55666	945.222338328791	56
95	55735	951.323387023435	60
95	55830	961.4	74
95	55862	964.1	26
95	55918	969.107863739093	49
95	55982	974.710391436498	55
95	56009	977.010564049761	22
95	56024	978.117610797748	10
95	56030	978.521414932074	3
95	56097	984.426007313861	58
95	56185	992.235025844091	77
95	56281	1000.843408942137	85
95	56338	1005.945494076388	50
95	56415	1012.651065580686	66
95	56492	1016.6	6
95	56641	1021.3	46
95	56782	1025.703591175093	43
95	56953	1031.1057971603	53
95	57067	1034.60912465851	34
95	57204	1038.915578172993	42
95	57311	1043.424372346914	44
95	57393	1047.231249193915	37
95	57459	1050.133426026194	28
95	57573	1055.435662599834	52
95	57675	1060.135923618636	46
95	57820	1066.2	22
95	58139	1076.2	99
95	58208	1078.309835639372	20
95	58336	1082.317214170719	39
95	58408	1084.521030166164	21
95	58547	1090.126083776311	55
95	58611	1093.034311990584	28
95	58675	1095.934963751563	28
95	58785	1106.6	86
95	58827	1110.3	36
95	58872	1114.209399298497	38
95	58883	1115.110766501254	8
95	59009	1126.314904813521	111
95	59052	1130.021751483743	36
95	59062	1130.826574832516	7
95	59166	1140.028816369162	91
95	59259	1150.9	69
95	59295	1154	30
95	59323	1156.404815878658	23
95	59359	1159.605328352602	31
95	59382	1161.511409088016	18
95	59407	1163.619530163448	20
95	59448	1167.129000747314	34
95	59535	1174.83271520624	76
95	59645	1184.636291409186	97
95	59681	1187.845744735835	31
95	59759	1194.650134635706	67
95	59983	1206.8	88
95	60199	1218.5	116
95	60347	1231.905543551107	133
95	60452	1241.207948894772	92
95	60753	1251.8	78
95	60847	1254.8	29
95	60913	1257.90196197177	30
95	61039	1263.606418501079	56
95	61195	1270.709448344438	70
95	61399	1280.009719542158	92
95	61637	1292.317529155684	122
95	61691	1297.126842923969	47
95	61729	1300.327353602851	31
95	61762	1303.227459221354	28
95	61800	1306.429964598947	31
95	61835	1309.531254064928	30
95	61885	1313.935497197758	43
95	62007	1325.8	98
95	62045	1329.1	32
95	62074	1331.607923850119	24
95	62123	1335.909583595625	42
95	62194	1342.013182361905	60
95	62237	1345.918461300778	38
95	62267	1348.326260794224	23
95	62292	1353	10
95	62354	1358.5	54
95	62466	1368.508055797265	99
95	62542	1375.311715043863	67
95	62605	1380.812732515521	54
95	62680	1387.519248461175	66
95	62724	1391.326982686413	37
95	62742	1392.736321656585	13
95	62818	1399.539317766027	67
95	63075	1412.4	104
95	63198	1418	55
95	63276	1421.602186570826	35
95	63401	1432.710789354522	110
95	63463	1438.110854171697	53
95	63506	1444.3	23
95	63578	1450.8	64
95	63635	1455.909893953169	50
95	63708	1462.21875283644	62
95	63735	1464.523080729303	22
95	63787	1469.124154118374	45
95	63848	1474.427439328967	52
95	63887	1480.2	22
95	63940	1485	47
95	63955	1486.10330401503	10
95	64002	1490.212001199624	40
95	64040	1493.616036728075	33
95	64066	1495.822067614145	21
95	64119	1500.327645578585	44
95	64172	1505.036830732995	46
95	64223	1509.546048426574	44
95	64263	1512.954021808117	33
95	64346	1520.255626703047	72
95	64491	1533.361339667053	130
95	64631	1547.2	112
95	64731	1556.1	88
95	64761	1558.708163646843	25
95	64829	1564.712620240237	59
95	64964	1572.5	45
95	64979	1573.2	6
95	65105	1579.006499579893	57
95	65124	1579.81449835552	7
95	65140	1580.421744538155	5
95	65156	1581.124269427145	6
95	65314	1588.426707443583	72
95	65541	1604.5	125
95	65603	1610	54
95	65633	1612.608568823391	25
95	65686	1617.312827633677	46
95	65748	1622.720550018234	53
95	65826	1629.726152878114	69
95	65931	1639.034961512185	92
95	65977	1644.9	29
95	66025	1649.2	42
95	66077	1653.803717981795	45
95	66112	1656.711230795717	28
95	66134	1658.516388092081	17
95	66154	1660.12375430193	15
95	66261	1669.831444771722	96
95	66323	1676.3	43
95	66360	1679.7	33
95	66417	1684.605338350404	48
95	66465	1688.808094542131	41
95	66521	1693.809214169985	49
95	66586	1699.512256032762	56
95	66649	1705.013702070964	54
95	66702	1709.720847455493	46
95	66717	1710.829036164872	10
95	66728	1711.735862339743	8
95	66858	1723.339950720454	115
95	67141	1731	50
95	67293	1734.6	35
95	67486	1739.208805902295	45
95	67554	1740.718135377547	14
95	67706	1744.319993630748	35
95	67858	1747.920549157827	35
95	68284	1758.023253635048	100
95	68436	1762.931657798803	48
95	68516	1766.532162382877	35
95	68595	1770.141034979456	35
95	68696	1780.5	65
95	68795	1789.5	89
95	68818	1791.405370442096	18
95	68850	1794.011317186569	25
95	68881	1796.715655796154	26
95	68916	1799.824122009168	30
95	68937	1801.525866253937	16
95	69056	1813.6	96
95	69137	1820.8	71
95	69163	1823.002997103908	21
95	69221	1828.009354359723	49
95	69251	1830.61013370073	25
95	69313	1836.018601951352	53
95	69366	1840.718904853618	46
95	69478	1852.9	89
95	69529	1857.5	45
95	69573	1861.302741088417	37
95	69599	1863.511331199339	21
95	69631	1866.115841303981	25
95	69649	1867.720890616051	15
95	69714	1873.427594557491	56
95	69786	1879.829677108452	63
95	69839	1884.336952652118	44
95	69890	1888.845888519286	44
95	69965	1895.550982201326	66
95	70133	1911.8	138
95	70191	1916.9	50
95	70263	1923.309652987576	63
95	70337	1929.911719008443	65
95	70398	1935.217866266023	52
95	70427	1937.71972800838	24
95	70439	1938.527193685792	7
95	70521	1948.1	61
95	70593	1954.6	64
95	70627	1957.609978944095	29
95	70693	1963.419752439275	57
95	70766	1969.925942701309	64
95	70805	1973.228624830518	32
95	70849	1977.030125066353	37
95	70949	1987.6	76
95	70980	1990.2	25
95	71025	1994.106968768842	38
95	71078	1998.814728163464	46
95	71227	2012.115507688845	132
95	71241	2013.323519259278	11
95	71271	2015.923790234631	25
95	71288	2017.225106230353	12
95	71305	2018.52729319284	12
95	71338	2021.435508102248	28
95	71385	2025.537741697253	40
95	71395	2026.143614923601	5
95	71433	2029.553304062032	33
95	71507	2037.3	53
95	71539	2040	26
95	71580	2043.706947616725	36
95	71619	2047.01184878698	32
95	71695	2053.814139080475	67
95	71756	2059.115246881711	52
95	71824	2065.119745112651	59
95	71853	2067.620515797406	24
95	71916	2073.120789192223	54
95	71996	2080.13028812624	69
95	72050	2084.939624678452	47
95	72140	2094.6	66
95	72188	2098.9	42
95	72209	2100.601886164783	16
95	72257	2104.809959221733	41
95	72296	2108.113206852396	32
95	72360	2113.919228892802	57
95	72382	2115.720945393485	17
95	72405	2117.622775119971	18
95	72438	2120.322984059336	26
95	72486	2124.523063109558	41
95	72546	2129.928835003544	53
95	72609	2135.438559679238	54
95	72646	2138.543186346961	30
95	72711	2144.24371769011	56
95	72800	2154.6	66
95	72834	2157.7	30
95	72899	2163.405155054803	56
95	72946	2167.505609420819	40
95	72987	2171.006852434621	34
95	73027	2174.412094123024	33
95	73060	2177.320001627661	28
95	73102	2182.5	25
95	73240	2195	124
95	73307	2200.905756627065	58
95	73372	2206.615138828509	56
95	73451	2213.723414667836	70
95	73537	2221.329721218215	75
95	73592	2227.5	35
95	73653	2232.9	53
95	73687	2235.906762586967	29
95	73787	2244.711325232272	87
95	73835	2248.920172321723	41
95	73878	2252.629211380364	36
95	73911	2255.533028384008	28
95	73973	2260.940988884329	53
95	73998	2263.045487789293	20
95	74061	2268.548255054399	54
95	74095	2273.7	17
95	74154	2278.9	51
95	74181	2281.200094265225	22
95	74253	2287.608337986983	63
95	74339	2295.209977818912	75
95	74392	2299.914054971421	46
95	74472	2306.922671293169	69
95	74564	2315.124585164077	81
95	74616	2318.7	7
95	74763	2325.7	69
95	74900	2334.806113217032	90
95	74950	2339.208833084331	43
95	75061	2349.115018498255	98
95	75144	2356.415791054626	72
95	75195	2360.923753707704	44
95	75247	2365.523896003551	45
95	75331	2372.924801492827	73
95	75379	2377.130280226847	41
95	75431	2381.7385496859	45
95	75479	2387	30
95	75585	2396.5	94
95	75659	2403.109812878477	65
95	75700	2406.617563398242	34
95	75742	2410.219287105313	35
95	75782	2413.82443749907	35
95	75828	2417.832950387529	39
95	75921	2427.2	72
95	75980	2432.4	51
95	75997	2433.901133153259	14
95	76040	2437.607087712955	36
95	76066	2439.81386336831	21
95	76195	2451.315950019309	114
95	76218	2453.223675178562	18
95	76345	2464.524723971288	112
95	76389	2468.331612499228	37
95	76451	2473.2	12
95	76504	2475.7	24
95	76544	2477.405510064112	16
95	76604	2480.113799617425	26
95	76660	2482.613832432871	24
95	76704	2484.621152298882	19
95	76830	2490.42215360188	57
95	76870	2492.23155924984	17
95	76906	2493.93191594605	16
95	76976	2497.136541348967	31
95	77106	2503.043438439326	58
95	77194	2507.15327186331	40
95	77299	2512.358382903594	51
95	77361	2520	40
95	77463	2529.3	92
95	77493	2531.904943469283	25
95	77523	2534.307603657613	23
95	77566	2538.009586692859	36
95	77619	2542.712537404344	46
95	77699	2549.914404287034	71
95	77751	2554.32126860064	43
95	77807	2561.8	38
95	77834	2564	21
95	77894	2569.408618270254	53
95	77953	2574.515883950057	50
95	77983	2577.117348324269	25
95	78032	2581.425330518476	42
95	78069	2584.52833971826	30
95	78127	2589.73381190318	51
95	78164	2592.841503073324	30
95	78198	2595.849237188408	29
95	78249	2601.3	33
95	78274	2603.5	21
95	78349	2610.002887776719	64
95	78402	2614.702966935736	46
95	78504	2623.907364422838	91
95	78580	2630.508746483005	65
95	78595	2631.812659986198	12
95	78852	2648.7	147
95	78913	2654.1	53
95	78926	2655.20775157259	10
95	78994	2661.217532998478	59
95	79116	2672.018427991579	107
95	79186	2678.220192601418	61
95	79387	2696.325630719263	180
95	79403	2697.734075327671	13
95	79498	2706.038274085097	82
95	79545	2710.145431572556	40
95	79572	2712.454240719988	22
95	79854	2727.6	116
95	79887	2729.1	14
95	79959	2732.405792612445	32
95	80007	2734.615287850845	21
95	80032	2735.720377974376	10
95	80097	2738.622582782971	28
95	80166	2741.829115176457	31
95	80244	2747.033567797031	51
95	80324	2754.034827226837	69
95	80386	2759.634861012898	55
95	80413	2761.943081060974	22
95	80496	2769.246040116201	72
95	80650	2784.4	124
95	80699	2788.8	43
95	80756	2793.906407287241	50
95	80864	2803.514539864104	95
95	80909	2807.424502322877	38
95	80974	2813.13293920195	56
95	81013	2816.439789241946	32
95	81061	2820.647653012629	41
95	81231	2838	140
95	81311	2845.3	72
95	81404	2853.602425308406	82
95	81437	2856.312180787664	26
95	81497	2861.713685292062	53
95	81557	2866.920154468988	51
95	81729	2882.330128305675	153
95	81782	2887.037209946112	46
95	81819	2890.144111918347	30
95	81829	2890.951865777749	7
95	81881	2895.552624451083	45
95	81922	2899.058759527118	34
95	81947	2901.167309959847	20
95	82102	2909.6	56
95	82351	2921.2	115
95	82446	2925.801528016114	45
95	82501	2930.501573381777	46
95	82655	2939.1	51
95	82769	2949.4	102
95	82906	2961.704947330213	122
95	82960	2966.307080159209	45
95	82986	2968.507249578203	21
95	83005	2970.009576150607	14
95	83039	2973.015443407927	29
95	83100	2978.323751821079	52
95	83177	2985.230833408028	68
95	83327	2993.4	54
95	83478	3000.3	68
95	83532	3002.805506883668	24
95	83656	3008.409716285026	55
95	83716	3011.11546533319	26
95	83809	3020.9	69
95	83874	3026.7	57
95	83922	3030.903863909582	41
95	84000	3037.908903166488	69
95	84050	3042.110212491181	41
95	84098	3046.315083285806	41
95	84122	3048.321345177128	19
95	84169	3052.423684125841	40
95	84266	3061.124681774266	86
95	84292	3063.330081582635	21
95	84318	3065.532524111636	21
95	84366	3069.737438398943	41
95	84414	3073.939979350125	41
95	84447	3076.644796199698	26
95	84476	3079.152973559717	24
95	84555	3087.8	58
95	84597	3091.5	36
95	84623	3093.703667589372	21
95	84652	3096.011672530506	22
95	84736	3103.614374767983	75
95	84854	3114.01536247691	103
95	84888	3117.016013513406	29
95	84915	3119.325731121029	22
95	85017	3128.333802423514	89
95	85128	3138.236023541369	98
95	85224	3146.84118842458	85
95	85274	3151.251093939578	43
95	85307	3155.5	15
95	85362	3160.3	47
95	85463	3169.406755554014	90
95	85530	3175.313205407319	58
95	85544	3176.313624947007	9
95	85592	3180.517082478696	41
95	85642	3184.926172815047	43
95	85715	3191.43301571557	64
95	85740	3193.540074960572	20
95	85793	3198.040462679237	44
95	85810	3199.54830812959	14
95	85877	3206.5	45
95	85947	3212.8	62
95	85974	3215.100868134486	22
95	86011	3218.201039556347	30
95	86119	3230.2	82
95	86151	3233.1	28
95	86204	3237.808603548947	46
95	86306	3246.809250702845	89
95	86398	3255.009548169668	81
95	86467	3261.114989028643	60
95	86502	3264.019653197983	28
95	86544	3267.821649142049	37
95	86646	3276.829925209003	89
95	86699	3281.531707022984	46
95	86842	3288.7	47
95	86907	3291.8	30
95	86963	3294.30051635103	24
95	87072	3299.710220948291	53
95	87118	3303.718504789381	39
95	87138	3305.326375177784	15
95	87187	3309.632132641642	42
95	87205	3311.035785253871	13
95	87249	3314.843670327028	37
95	87279	3317.447546097154	25
95	87320	3320.951948811376	34
95	87363	3324.656979710018	36
95	87490	3338.1	101
95	87513	3340.1	19
95	87612	3349.007759844355	88
95	87651	3352.310944428166	32
95	87700	3356.619147161463	42
95	87807	3366.122027843788	94
95	87876	3372.230399504609	60
95	87920	3376.036140700648	37
95	88016	3384.638099096514	85
95	88074	3389.1	11
95	88120	3391.2	20
95	88174	3393.707514253098	24
95	88242	3396.708477739309	29
95	88320	3400.314557648807	35
95	88377	3402.919164090657	25
95	88429	3405.328109523223	23
95	88558	3412.1	41
95	88696	3419.6	74
95	88727	3422.106864758373	24
95	88773	3426.11294657285	39
95	88879	3435.714565330104	95
95	88917	3438.919994792524	31
95	89021	3448.121271859237	91
95	89068	3452.223949458309	40
95	89109	3456.2	2
95	89138	3457.6	13
95	89303	3465.703704107408	80
95	89364	3471.009644629754	52
95	89472	3480.616550336975	95
95	89531	3485.923542119934	52
95	89540	3486.426544625725	4
95	89573	3489.330613784064	28
95	89632	3494.439704361141	50
95	89742	3504.242640311915	97
95	89863	3517.5	95
95	89910	3521.7	41
95	89976	3527.509909258249	57
95	90045	3533.610918224383	60
95	90107	3539.017666814419	53
95	90196	3546.918788014895	78
95	90260	3552.519301007306	55
95	90326	3560.7	47
95	90401	3567.5	67
95	90462	3572.809556102319	52
95	90510	3577.017425097985	41
95	90575	3582.717771393124	56
95	90593	3584.125922783415	13
95	90656	3589.826814675591	56
95	90737	3598	60
95	90878	3610.8	127
95	90912	3613.809021419417	29
95	90944	3616.410132464945	25
95	91033	3624.312315558622	78
95	91086	3629.018871773538	46
95	91122	3632.022432314132	29
95	91157	3635.127405095335	30
95	91267	3646.6	86
95	91307	3650.1	34
95	91357	3654.509375221196	43
95	91404	3658.617357276221	40
95	91457	3663.318196723434	46
95	91485	3665.722949671422	23
95	91509	3667.729288856832	19
95	91631	3679.9	99
95	91707	3686.6	66
95	91730	3688.502193849529	18
95	91785	3693.407073970353	48
95	91851	3699.21605561149	57
95	91925	3705.816152087917	65
95	91978	3710.32352465225	44
95	92032	3715.126149877133	47
95	92062	3717.730220271696	25
95	92117	3722.431433878012	46
95	92160	3726.134197047492	36
95	92244	3733.743166443237	75
95	92306	3740	40
95	92387	3747.4	73
95	92458	3753.704177884443	62
95	92562	3762.905459454071	91
95	92585	3764.808354839707	18
95	92608	3766.712918118288	18
95	92724	3777.118374989154	103
95	92752	3779.522544636456	23
95	92802	3783.928359527804	43
95	92851	3788.031350925822	40
95	92889	3791.43833081561	33
95	92909	3794.2	2
95	92925	3795.7	14
95	92949	3797.709204145183	19
95	92978	3800.016493949091	22
95	92991	3801.125449980154	10
95	93015	3803.132606671598	19
95	93084	3809.233464819701	60
95	93150	3816.7	47
95	93175	3818.9	21
95	93224	3823.204608437689	42
95	93271	3827.311749124738	40
95	93321	3831.719535383401	43
95	93361	3835.122851096741	33
95	93390	3837.632641841061	24
95	93552	3853.5	135
95	93582	3856	24
95	93611	3858.507216680787	24
95	93653	3862.114989893663	35
95	93679	3864.324160224081	21
95	93738	3869.62864024159	52
95	93784	3873.62999743357	39
95	93830	3877.630066643086	39
95	93865	3880.537525313181	28
95	93901	3883.744616290418	31
95	93931	3886.149613561014	23
95	93972	3889.853683622317	36
95	94034	3896.1	41
95	94085	3900.7	45
95	94219	3912.700517303089	119
95	94238	3914.208066954184	14
95	94334	3922.81594793152	85
95	94374	3926.223885896016	33
95	94456	3933.630978817281	73
95	94530	3940.033341229586	63
95	94577	3944.134298884933	40
95	94697	3957.5	95
95	94750	3962.1	45
95	94802	3966.703456277127	45
95	94827	3968.808247224808	20
95	94855	3971.209762288518	23
95	94880	3973.310757079121	20
95	94901	3975.015505221266	16
95	95020	3985.724007830825	106
95	95055	3988.627090722304	28
95	95097	3992.231323434047	35
95	95151	3997.035181088966	47
95	95187	4000.035927772593	29
95	95368	4018.9	149
95	95432	4024.6	56
95	95497	4030.302252561338	56
95	95580	4037.806276273024	74
95	95679	4046.509122982353	86
95	95725	4050.515856024082	39
95	95769	4054.316380696936	37
95	95823	4059.122924304279	47
95	95880	4064.030913376782	48
95	95931	4068.531669375739	44
95	95978	4072.640369279751	40
95	96163	4083.1	71
95	96284	4088.6	54
95	96346	4091.404370926674	27
95	96412	4094.312026504554	28
95	96520	4099.421991357387	50
95	96575	4104.122714292176	46
95	96636	4109.629873221085	54
95	96732	4119.5	75
95	96789	4124.5	49
95	96815	4126.701198636305	21
95	96892	4133.602460160499	68
95	96906	4134.607717213445	9
95	96957	4139.110927612826	44
95	96999	4142.71598049809	35
95	97062	4148.222398085661	54
95	97089	4150.522994486463	22
95	97143	4155.324258159237	47
95	97206	4160.829364369116	54
95	97282	4169.4	54
95	97309	4171.8	23
95	97350	4175.306565763847	34
95	97385	4178.21238799411	28
95	97418	4181.119428451917	28
95	97514	4189.729425240984	85
95	97569	4194.43260121288	46
95	97685	4207	90
95	97724	4210.4	33
95	97730	4210.802495928814	3
95	97753	4212.709512400713	18
95	97764	4213.610004012516	8
95	97825	4218.91483484248	52
95	97832	4219.422608192447	4
95	97982	4234.3	123
95	98097	4244.7	103
95	98218	4255.604481886874	108
95	98250	4258.208095089897	25
95	98308	4263.410299668201	51
95	98378	4269.612728344826	61
95	98437	4274.716995816519	50
95	98554	4287.4	94
95	98648	4295.9	84
95	98697	4300.003179494456	40
95	98823	4311.404634151632	113
95	98848	4313.51389230718	20
95	98874	4315.721728758447	21
95	98916	4319.330191454403	35
95	98942	4321.537671409775	21
95	98969	4323.842324388338	22
95	98998	4326.151529863054	22
95	99036	4332	20
95	99071	4335.2	31
95	99171	4344.001517833406	87
95	99190	4345.709418959214	16
95	99225	4348.6143519523	28
95	99310	4356.117310203083	74
95	99445	4364.6	46
95	99518	4368	33
95	99590	4371.401586699034	33
95	99637	4375.107688068938	36
95	99695	4380.107690051965	49
95	99770	4386.81222340741	66
95	99812	4390.415101858585	35
95	99834	4392.220459895283	17
95	99895	4397.722162215162	54
95	99961	4403.528971901346	57
95	99986	4405.630005833668	20
95	100035	4409.930769975598	42
95	100114	4416.833214812996	68
95	100343	4439.3	193
95	100407	4445	56
95	100469	4450.404840321824	53
95	100567	4459.212537107818	87
95	100640	4465.720206638813	64
95	100697	4470.620383694028	48
95	100828	4482.320934086549	116
95	100901	4488.829666790526	64
95	101059	4503.0395317679	141
95	101114	4507.948680111994	48
95	101236	4518.753587450229	107
95	101270	4523.6	16
95	101295	4525.8	21
95	101327	4528.403491103544	25
95	101379	4533.009959626844	45
95	101402	4534.91840283864	18
95	101472	4541.127925974508	61
95	101497	4543.229582580984	20
95	101544	4549	30
95	101627	4556.4	73
95	101672	4560.303899564254	38
95	101716	4564.108454376254	37
95	101755	4567.609254423808	34
95	101825	4573.817364685285	61
95	101919	4582.027077122748	81
95	101963	4588.7	27
95	101993	4591.4	26
95	102054	4596.701820535154	52
95	102096	4600.30192515849	35
95	102149	4605.011569922946	46
95	102207	4610.01687911174	49
95	102310	4619.319232837764	92
95	102369	4624.428875973407	50
95	102440	4630.73798169558	62
95	102520	4637.945702899986	71
95	102573	4642.454561905602	44
95	102634	4647.961206794564	54
95	102744	4657.769124510426	97
95	102851	4668.1	81
95	102883	4671	28
95	102906	4672.904459751108	18
95	102925	4674.409485983612	14
95	102951	4676.613049774345	21
95	103000	4680.921153118645	42
95	103064	4686.526589991768	55
95	103130	4694.7	47
95	103221	4702.9	81
95	103253	4705.700906012642	27
95	103274	4707.401426308079	16
95	103347	4713.904361589868	64
95	103418	4720.01360567372	60
95	103591	4735.722960546796	156
95	103735	4748.532735485515	127
95	103866	4762.3	103
95	103909	4766.1	37
95	103981	4772.500282021195	63
95	104002	4774.208520278362	16
95	104068	4780.011201273444	57
95	104111	4783.911369931715	38
95	104155	4787.711407663001	37
95	104181	4791.1	11
95	104250	4797.3	61
95	104320	4803.504462892983	61
95	104351	4806.007181557958	24
95	104420	4812.117076439187	60
95	104469	4816.417955650112	42
95	104492	4818.318836560228	18
95	104515	4820.219743410574	18
95	104643	4831.822588226657	115
95	104972	4847.6	136
95	105050	4852.9	52
95	105188	4865.308187278048	123
95	105231	4869.016383201542	36
95	105311	4876.022933524212	69
95	105352	4879.729831647838	36
95	105391	4883.037661271919	32
95	105433	4886.640237660633	35
95	105502	4892.743945882715	60
95	105589	4898.4	24
95	105798	4908.1	96
95	105954	4915.602725485295	74
95	105996	4919.204203181862	35
95	106126	4930.808162936825	115
95	106217	4938.908783106723	80
95	106246	4941.418424726576	24
95	106331	4948.924709931265	74
95	106534	4959.9	79
95	106571	4961.6	16
95	106668	4966.005899859375	43
95	106687	4967.706804986294	16
95	106857	4982.915323152081	151
95	106901	4986.717024724727	37
95	106936	4989.818437674689	30
95	106978	4993.420203474942	35
95	107060	5000.6214218226	71
95	107341	5011.1	71
95	107479	5015.4	42
95	107612	5019.502784672551	40
95	107804	5025.508354910071	59
95	107935	5031.112973836899	55
95	108016	5036.422539594004	52
95	108121	5045.924918899173	94
95	108182	5051.234356882476	52
95	108263	5058.340272933316	70
95	108314	5062.848858639876	44
95	108368	5067.656379697223	47
95	108429	5072.964779752374	52
95	108466	5076.069333508538	30
95	108606	5084.8	48
95	108645	5086.6	17
95	108731	5090.502871446129	38
95	108811	5094.112682007731	35
95	108869	5096.813705382848	26
95	109021	5103.820496768884	69
95	109119	5110.123693199523	62
95	109143	5112.129588836789	19
95	109167	5114.132419084099	19
95	109193	5116.335434127585	21
95	109315	5127.339593537508	109
95	109443	5140	100
95	109454	5141	9
95	109495	5144.50434945492	34
95	109515	5146.109430859386	15
95	109520	5146.41070874181	2
95	109556	5149.611230923669	31
95	109570	5150.619538731235	9
95	109635	5158.6	46
95	109743	5168.3	96
95	109949	5186.902731807737	185
95	110047	5195.707928386027	87
95	110154	5205.210980242184	94
95	110255	5214.115485008978	88
95	110344	5222.025379608731	78
95	110395	5226.533851671713	44
95	110454	5231.838375372903	52
95	110536	5240	60
95	110578	5243.9	38
95	110709	5255.600630214659	116
95	110787	5262.408831152215	67
95	110882	5268.7	27
95	110923	5270.4	16
95	111007	5274.208573779878	37
95	111133	5280.010162142598	57
95	111157	5281.119892943202	10
95	111199	5284.329445458865	31
95	111259	5289.735272028176	53
95	111326	5295.643676342246	58
95	111404	5303.8	58
95	111434	5306.3	24
95	111470	5309.508597426416	31
95	111524	5314.115738540842	45
95	111569	5318.01649577559	38
95	111610	5321.723245963056	36
95	111673	5327.227770516183	54
95	111743	5335.1	51
95	111773	5337.8	26
95	111824	5342.101506282687	42
95	111880	5347.101594489535	49
95	112008	5358.506388715034	113
95	112097	5366.407152274559	78
95	112352	5380.1	101
95	112404	5384.3	41
95	112465	5389.808492199305	54
95	112508	5393.518458219032	36
95	112593	5401.028092270026	74
95	112701	5410.632975270599	95
95	112835	5422.642815212302	119
95	112900	5430.3	43
95	112959	5435.7	53
95	113023	5441.306754769021	55
95	113073	5445.707531957225	43
95	113149	5452.309419093168	65
95	113225	5459.117531483335	67
95	113301	5465.920033149519	67
95	113429	5478.3	103
95	113484	5483.3	49
95	113520	5486.309901451736	29
95	113572	5490.917312203857	45
95	113677	5500.217684245777	92
95	113762	5507.922842453417	76
95	113839	5514.62488507592	66
95	113874	5517.730067941596	30
95	113971	5526.233064310469	84
95	114048	5533.133432040363	68
95	114075	5535.434470693671	22
95	114091	5536.639194728587	11
95	114116	5538.744789242219	20
95	114142	5540.954627320715	21
95	114227	5548.462402697019	74
95	114368	5561.164336317407	126
95	114577	5572	80
95	114676	5576.6	45
95	114782	5581.405909854148	47
95	115002	5591.707298325635	102
95	115088	5595.714462121924	39
95	115152	5598.517264518752	27
95	115316	5606.11767428545	75
95	115535	5616.620934377922	104
95	115706	5622.1	21
95	115849	5625.4	32
95	115909	5626.803222099398	13
95	115964	5628.007421313728	11
95	116118	5631.612206889245	35
95	116198	5633.520847658096	18
95	116345	5636.924586782988	33
95	116421	5638.725679906925	17
95	116684	5646.131881397233	73
95	116771	5652.937661614969	67
95	116790	5654.44638161199	14
95	116953	5669.146852884984	146
95	117106	5677.3	53
95	117233	5683.3	59
95	117327	5687.603739553638	42
95	117443	5693.008357928022	53
95	117538	5697.3178785032	42
95	117594	5699.923346033081	25
95	117721	5706.629506642803	66
95	117785	5712.238692510878	55
95	117838	5716.948631743483	46
95	117876	5720.150434820816	31
95	117933	5725.25199907509	50
95	118096	5741.3	133
95	118182	5749	76
95	118269	5756.704119576055	76