file 157025 1367232567                                          
version 2
run Join-9-20130429-12:49:25-17679
attr configname Join
attr datetime 20130429-12:49:25
attr experiment "\"Join\""
attr inifile omnetpp.ini
attr iterationvars $0=32
attr iterationvars2 "$0=32, $repetition=9"
attr measurement $0=32
attr network Network
attr processid 17679
attr repetition 9
attr replication #9
attr resultdir results
attr runnumber 9
attr seedset 9
vector 9  Network.dyn_peer[0]  lookupHopsSig:vector  ETV
9	434 156591 288 52416 20.211027129735 5235.143631411073 6466 0 7 16982 56794
