file 183368 1367232581                                          
version 2
run Join-18-20130429-12:49:39-17679
attr configname Join
attr datetime 20130429-12:49:39
attr experiment "\"Join\""
attr inifile omnetpp.ini
attr iterationvars $0=64
attr iterationvars2 "$0=64, $repetition=8"
attr measurement $0=64
attr network Network
attr processid 17679
attr repetition 8
attr replication #8
attr resultdir results
attr runnumber 18
attr seedset 18
vector 18  Network.dyn_peer[0]  lookupHopsSig:vector  ETV
18	438 182930 401 64120 20.324008883985 6273.613937564722 7163 0 10 25852 118880
