version 2
run Join-90-20130429-12:59:10-17679
attr configname Join
attr datetime 20130429-12:59:10
attr experiment "\"Join\""
attr inifile omnetpp.ini
attr iterationvars $0=16384
attr iterationvars2 "$0=16384, $repetition=0"
attr measurement $0=16384
attr network Network
attr processid 17679
attr repetition 0
attr replication #0
attr resultdir results
attr runnumber 90
attr seedset 90

vector 90  Network.dyn_peer[0]  lookupHopsSig:vector  ETV
90	43466	22.7	45
90	43565	31.607232703086	88
90	43661	40.009391561051	83
90	43739	47.014207684528	69
90	43776	50.119248050725	30
90	43790	51.325009241016	11
90	43810	52.92674534322	15
90	43857	57.035186150032	40
90	43942	64.544636091643	74
90	43969	68.9	9
90	43999	71.6	26
90	44026	73.901480635798	22
90	44065	77.203419956441	32
90	44100	80.107856720259	28
90	44142	83.914602549408	37
90	44160	85.315837197654	13
90	44210	91.3	33
90	44243	94.1	27
90	44289	98.107356248588	39
90	44334	102.017019619309	38
90	44443	111.923021687435	98
90	44548	121.226083626044	92
90	44662	131.427760057896	101
90	44712	135.834966209521	43
90	44722	136.44131483398	5
90	44960	160	200
90	45030	166.3	62
90	45085	171.209862568506	48
90	45151	177.017940703262	57
90	45336	193.7272697546	166
90	45359	195.634428848544	18
90	45514	209.537894747577	138
90	45958	224	120
90	46152	230.1	60
90	46501	241.009950067247	108
90	46707	248.211074675537	71
90	46755	252.417279962572	41
90	46784	254.926383304137	24
90	46795	255.829343019183	8
90	46854	262	40
90	46957	271.4	93
90	47008	275.905569398051	44
90	47062	280.513303706447	45
90	47112	284.916845356674	43
90	47181	291.023412875978	60
90	47210	293.525789003537	24
90	47241	296.030605691878	24
90	47283	299.837402196726	37
90	47316	302.543591463204	26
90	47326	303.352680473496	7
90	47355	305.854427778584	24
90	47394	310	20
90	47447	314.8	47
90	47497	319.209746442576	43
90	47532	322.118704664943	28
90	47582	326.520652574171	43
90	47641	331.822844272382	52
90	47677	334.830012103855	29
90	47737	340.034014868701	51
90	47775	343.442332299188	33
90	47801	345.650400188657	21
90	47875	353.2	52
90	47954	360.2	69
90	48070	370.605242509243	103
90	48096	372.805995011382	21
90	48122	375.012659457299	21
90	48183	380.318097545428	52
90	48296	390.423461911611	100
90	48357	395.928158252628	54
90	48399	399.533053092237	35
90	48417	400.935201906452	13
90	48445	403.343016384196	23
90	48491	407.35214360558	39
90	48506	408.458425333076	10
90	48620	415.6	36
90	48667	417.8	21
90	48734	420.806474481313	29
90	48822	428.015098720748	71
90	48850	430.416395726144	23
90	48914	436.016396054179	55
90	48973	441.320924713304	52
90	49025	447.5	35
90	49156	459.3	117
90	49219	464.807853924781	54
90	49261	468.412031633141	35
90	49331	474.613648062427	61
90	49400	480.720876445862	60
90	49442	484.330636338012	35
90	49487	488.239684382484	38
90	49533	492.247171521394	39
90	49588	499.5	35
90	49642	504.2	46
90	49758	514.601908091462	103
90	49871	524.708307189507	100
90	49969	533.509008025507	87
90	50056	541.209893343288	76
90	50165	547.4	34
90	50218	549.9	24
90	50358	556.305669373257	63
90	50440	560.010973981799	36
90	50501	562.813458704939	27
90	50627	568.617644067434	57
90	50733	574.121758304251	54
90	50865	588.7	107
90	50935	595	62
90	50976	598.504132112921	34
90	51023	602.60888262506	40
90	51087	608.21337055849	55
90	51149	613.821603327741	55
90	51214	619.522737794269	56
90	51234	621.126116816415	15
90	51308	629.2	52
90	51338	631.9	26
90	51387	636.000188278772	40
90	51444	641.109670071585	50
90	51501	646.017569728225	48
90	51560	651.322569239881	52
90	51581	653.030398757349	16
90	51645	660.5	45
90	51690	664.5	39
90	51746	669.504203258545	49
90	51809	675.010596108885	54
90	51834	677.112203234698	20
90	51894	682.321037923261	51
90	51977	689.822474292118	74
90	52019	694.5	25
90	52105	702.2	76
90	52175	708.405220649221	61
90	52251	715.208626921826	67
90	52391	727.812896924237	125
90	52488	736.313111749591	84
90	52598	746.11597679725	97
90	52667	752.220527485835	60
90	53003	766.4	104
90	53124	772	55
90	53228	776.802144902478	47
90	53350	782.407084446036	55
90	53410	785.210280710601	27
90	53467	787.817793289683	25
90	53524	792.725076651095	48
90	53548	796.9	9
90	53621	803.5	65
90	53643	805.302165617933	17
90	53685	808.911683944861	35
90	53718	811.819340774877	28
90	53776	816.82145689518	49
90	53802	819.02281116138	21
90	53886	826.426949428476	73
90	53920	829.430450972172	29
90	53957	832.540167202861	30
90	53981	834.54758095018	19
90	54117	846.752716340263	121
90	54151	849.75976029984	29
90	54189	852.965112234023	31
90	54227	856.166129331327	31
90	54266	859.672664596439	34
90	54456	870.2	82
90	54532	877.1	68
90	54612	884.100633120096	69
90	54690	891.10802932233	69
90	54722	893.913122455288	27
90	54824	902.919387118112	89
90	54878	907.721654884264	47
90	54912	910.521733231612	27
90	55028	920.922163038514	103
90	55092	928.2	42
90	55150	933.5	52
90	55192	937.106095881978	35
90	55234	940.706789453685	35
90	55335	949.811077619407	90
90	55499	964.419002293555	145
90	55557	969.627247060285	51
90	55603	973.632899335912	39
90	55656	978.133995422884	44
90	55694	981.53927858114	33
90	55850	996.6	126
90	55891	1000.2	35
90	55961	1006.401049856869	61
90	56041	1013.605194795841	71
90	56054	1014.50523344007	8
90	56113	1019.809582511092	52
90	56176	1025.317253530338	54
90	56266	1033.317763036769	79
90	56390	1044.318413712047	109
90	56416	1046.52071548898	21
90	56476	1051.930286184116	53
90	56871	1070.8	168
90	56954	1074.6	37
90	57116	1082.10933038593	74
90	57311	1091.613517321028	94
90	57365	1096.218990130888	45
90	57433	1102.225531095354	59
90	57530	1110.930905941907	86
90	57646	1123.3	93
90	57692	1127.4	40
90	57743	1131.908390779998	44
90	57782	1135.212554773476	32
90	57827	1139.115289578539	38
90	57876	1143.417716488313	42
90	57927	1147.919904635775	44
90	57965	1152.1	21
90	57993	1154.6	24
90	58000	1155.10451761041	4
90	58081	1162.207225018508	70
90	58089	1162.812802980683	5
90	58129	1166.218109320941	33
90	58227	1175.021124359449	87
90	58273	1179.027056478052	39
90	58338	1184.733502254723	56
90	58417	1191.841071442299	70
90	58472	1196.545740328152	46
90	58572	1205.54637953296	89
90	58683	1211.6	36
90	58712	1212.9	12
90	58812	1220.206780174828	72
90	58950	1232.612613199815	123
90	59006	1237.615222484554	49
90	59114	1247.22168826659	95
90	59139	1249.323298044109	20
90	59175	1253.8	18
90	59265	1261.9	80
90	59320	1266.605837144809	46
90	59361	1270.114687415265	34
90	59450	1278.020898957828	78
90	59520	1284.222085290318	61
90	59542	1286.028740743971	17
90	59572	1288.632058324163	25
90	59625	1293.337950362133	46
90	59689	1298.942248489675	55
90	59778	1306.851158032987	78
90	59864	1314.451525300249	75
90	59947	1321.956414645599	74
90	60010	1327.462686414933	54
90	60169	1342.9	129
90	60276	1352.5	95
90	60379	1361.804129501262	92
90	60481	1370.804247912668	89
90	60582	1379.904987422261	90
90	60626	1383.706724233069	37
90	60688	1389.112515231282	53
90	60794	1400.3	83
90	60852	1405.6	52
90	60885	1408.305915474263	26
90	60934	1412.612589717688	42
90	60984	1417.013575442672	43
90	61026	1420.622942802439	35
90	61073	1424.725836249935	40
90	61138	1430.433556988446	56
90	61169	1433.140610931969	26
90	61238	1439.242676855755	60
90	61282	1443.047371154591	37
90	61334	1447.656912894938	45
90	61364	1450.061545494564	23
90	61397	1452.966824763961	28
90	61571	1462.5	65
90	61740	1470.4	78
90	61878	1476.90186081042	64
90	62014	1483.107051807322	61
90	62152	1489.610436494703	64
90	62379	1501.914713016337	122
90	62452	1508.216422595901	62
90	62538	1518.5	65
90	62550	1519.6	10
90	62607	1524.504805690234	48
90	62651	1528.307206413177	37
90	62705	1533.109880734632	47
90	62774	1539.210298243662	60
90	62837	1544.7188035135	54
90	62949	1554.725488485997	99
90	63099	1570.2	122
90	63137	1573.7	34
90	63177	1577.108055128403	33
90	63262	1584.611855767636	74
90	63336	1591.217080429321	65
90	63410	1597.818810789435	65
90	63487	1604.522505481826	66
90	63673	1621.327073071564	167
90	63739	1627.134405972645	57
90	63774	1630.035205566668	28
90	63870	1638.638751532988	85
90	63936	1644.44554138524	57
90	64135	1655.6	76
90	64264	1661.6	59
90	64416	1668.609753368468	69
90	64576	1676.012504088414	73
90	64710	1682.217623171281	61
90	64766	1684.726550275544	24
90	64812	1686.833048788642	20
90	64921	1694.842976163316	79
90	65091	1712	140
90	65194	1721.4	93
90	65309	1731.7050035612	102
90	65452	1744.412694879641	126
90	65486	1747.416852356012	29
90	65543	1752.319810332751	48
90	65580	1755.626227744356	32
90	65620	1759.033372305866	33
90	65670	1763.442663328977	43
90	65740	1769.645664314842	61
90	65845	1780.1	81
90	65896	1784.7	45
90	65952	1789.70370230318	49
90	66056	1798.912077450679	91
90	66087	1801.62082230745	26
90	66205	1812.024509382903	103
90	66245	1815.628593774136	35
90	66365	1827.4	94
90	66437	1833.9	64
90	66503	1839.700690704921	57
90	66554	1844.008528989634	42
90	66600	1848.011441145077	39
90	66686	1855.815904117637	77
90	66805	1866.325548917896	104
90	66908	1875.630475156817	92
90	67113	1885.9	79
90	67172	1888.6	26
90	67340	1896.304103470246	76
90	67383	1899.209315681438	28
90	67470	1906.912368281133	76
90	67561	1915.018953477098	80
90	67666	1924.321665809844	92
90	67777	1936.5	85
90	67825	1940.8	42
90	67885	1946.009329897575	51
90	67936	1950.512977526041	44
90	67960	1952.514490536523	19
90	68004	1956.322241665652	37
90	68027	1958.229349614063	18
90	68109	1968.1	61
90	68149	1971.8	36
90	68224	1978.304775827929	64
90	68341	1988.810960216435	104
90	68354	1989.913508999483	10
90	68471	2000.215284562555	102
90	68700	2020.91885951161	206
90	68711	2021.819508129841	8
90	68754	2025.527869283059	36
90	68770	2026.731169300962	11
90	68857	2034.435947329879	76
90	68873	2035.842604972228	13
90	68888	2036.951851414802	10
90	68974	2044.553775194582	75
90	69173	2052.4	44
90	69304	2056.5	40
90	69488	2062.207129603254	56
90	69563	2064.516197174135	22
90	69769	2071.11799682544	65
90	69827	2072.924464640649	17
90	70108	2081.824803945057	88
90	70193	2085.327122936214	34
90	70259	2088.231268546255	28
90	70348	2093.734134402023	54
90	70707	2110.9	149
90	70733	2112	10
90	70816	2119.507276725107	74
90	70935	2130.011592793137	104
90	71025	2138.017955907961	79
90	71119	2146.42783529606	83
90	71143	2148.431997500868	19
90	71211	2154.438625024185	59
90	71301	2162.442394597724	79
90	71391	2170.443670114989	79
90	71482	2178.548534700602	80
90	71573	2186.653136527886	80
90	71685	2198.7	87
90	71784	2207.7	89
90	71815	2210.206701253931	24
90	71829	2211.412825718593	11
90	71876	2215.517998010342	40
90	71919	2219.227529666708	36
90	71967	2223.428751102532	41
90	72025	2228.435091773119	49
90	72067	2232.03872246279	35
90	72088	2233.945198210876	18
90	72208	2245.4	94
90	72258	2249.9	44
90	72332	2256.309178792268	63
90	72438	2265.91791226833	95
90	72484	2269.926284128368	39
90	72741	2282.3	103
90	72822	2286.1	37
90	72906	2292.900160952724	67
90	72958	2297.501649536817	45
90	73008	2301.908054362466	43
90	73093	2309.408495739079	74
90	73438	2326.5	145
90	73495	2329.1	25
90	73545	2331.408857813661	22
90	73711	2339.111863518734	76
90	73883	2347.113829005187	79
90	73989	2352.022531161318	48
90	74050	2356.923046958905	48
90	74143	2365.22492854834	82
90	74280	2377.525905593323	122
90	74704	2391.6	116
90	74769	2393.6	19
90	74833	2396.50978188497	28
90	74995	2409.215366058368	126
90	75119	2416.1	41
90	75257	2422.6	64
90	75341	2426.501439708084	38
90	75429	2430.50325973519	39
90	75517	2434.61145075697	40
90	75624	2439.519125141913	48
90	75832	2449.227323450084	96
90	75940	2455.1	31
90	75947	2455.4	2
90	75975	2456.606135893422	11
90	76112	2465.407932902388	87
90	76219	2474.912314222231	94
90	76247	2477.313252815892	23
90	76297	2481.723158029084	43
90	76417	2492.329370611481	105
90	76445	2494.730225027791	23
90	76481	2497.939362374712	31
90	76508	2500.040925354073	20
90	76557	2504.345658679451	42
90	76583	2506.553176204769	21
90	76597	2507.756095463384	11
90	76644	2512.8	28
90	76681	2516	31
90	76730	2520.309380266151	42
90	76744	2521.517889381357	11
90	76778	2524.322995067717	27
90	76834	2529.332382489473	49
90	76884	2533.735312309679	43
90	77017	2546.8	108
90	77123	2556.3	94
90	77243	2567.105172201402	107
90	77280	2570.206158030587	30
90	77361	2577.51277468065	72
90	77443	2584.717480419142	71
90	77553	2594.523164053714	97
90	77668	2606.9	89
90	77773	2616.3	93
90	77799	2618.506341122116	21
90	77887	2626.311992414702	77
90	77900	2627.413970844171	10
90	77964	2633.023385969673	55
90	77993	2635.526105152392	24
90	78049	2640.334964612757	47
90	78116	2646.239051890042	58
90	78185	2652.345399939829	60
90	78254	2658.449336329413	60
90	78377	2671.8	98
90	78470	2680	81
90	78553	2687.500017939833	74
90	78598	2691.408983057922	38
90	78664	2697.210973060904	57
90	78737	2703.719020364966	64
90	79054	2719.1	131
90	79173	2724.7	55
90	79271	2729.708724762066	49
90	79323	2734.112817409799	43
90	79509	2750.915644558355	167
90	79579	2757.117543335045	61
90	79647	2763.126587473186	59
90	79715	2769.129983589168	59
90	79755	2772.536426241591	33
90	80412	2793.9	179
90	80459	2797.4	34
90	80502	2801.103504674846	36
90	80532	2803.704382584345	25
90	80683	2817.209361171523	134
90	80723	2820.610731425758	33
90	80760	2823.915882732942	32
90	80800	2827.316505058528	33
90	80974	2842.922108354856	155
90	81098	2855.8	98
90	81117	2857.4	15
90	81176	2862.506613633937	50
90	81183	2863.010437246753	4
90	81228	2866.915380637807	38
90	81331	2876.015440482253	90
90	81385	2883.4	34
90	81439	2888.1	46
90	81502	2893.807203961682	56
90	81524	2895.616425991667	17
90	81581	2900.518861815799	48
90	81638	2905.622076209506	50
90	81729	2913.727888233863	80
90	81742	2914.629148392066	8
90	81797	2919.535561294694	48
90	81912	2929.841392136759	102
90	82003	2937.94167474309	80
90	82054	2942.249606807055	42
90	82345	2953.5	75
90	82532	2959.3	57
90	82650	2962.908019190481	35
90	82792	2967.314065981161	43
90	82876	2971.122514805715	37
90	82940	2975.226409587099	40
90	82984	2979.028958787301	37
90	83062	2987.9	59
90	83115	2992.5	45
90	83163	2996.700637353404	41
90	83207	3000.503775130556	37
90	83260	3005.211506429872	46
90	83351	3013.315572979858	80
90	83430	3020.220128757763	68
90	83524	3031.3	73
90	83583	3036.5	51
90	83599	3037.909989541152	13
90	83755	3051.912027174879	139
90	83886	3063.619002813689	116
90	83987	3072.51969287335	88
90	84025	3075.92272294194	33
90	84132	3085.42381478227	94
90	84383	3094.3	63
90	84424	3096.2	18
90	84463	3099.001153610774	27
90	84473	3099.809698330992	7
90	84549	3106.410486676722	65
90	84602	3111.113643283938	46
90	84731	3118.2	42
90	84796	3121.2	29
90	84866	3124.406780742974	31
90	85044	3132.715062547765	82
90	85122	3136.219697074451	34
90	85208	3140.122999721116	38
90	85274	3143.132974611776	29
90	85614	3159.9	139
90	85712	3167.4	74
90	85766	3172.004224203773	45
90	85849	3179.504485709913	74
90	85929	3186.505696486766	69
90	86015	3194.11346079136	75
90	86112	3202.814571518208	86
90	86217	3214.2	82
90	86277	3219.7	54
90	86351	3226.108636455542	63
90	86399	3230.311850645713	41
90	86451	3234.920753874884	45
90	86533	3242.129382278207	71
90	86600	3248.032085157002	58
90	86770	3263.437585316775	153
90	86826	3269.6	36
90	86874	3273.9	42
90	86927	3278.407702107848	44
90	87001	3285.01445999165	65
90	87052	3289.51886234528	44
90	87133	3296.619072211464	70
90	87169	3299.826775553764	31
90	87253	3308.3	63
90	87364	3318.3	99
90	87399	3321.407437706019	30
90	87458	3326.509723592726	50
90	87570	3336.515540779227	99
90	87724	3350.318686464683	137
90	87834	3360.12788273737	97
90	87888	3364.936574519692	47
90	87951	3370.437893301093	54
90	88202	3380.2	62
90	88366	3385.4	51
90	88542	3390.801871364377	53
90	88755	3397.507285737189	66
90	88969	3405.616499309803	80
90	89147	3413.918670430395	82
90	89311	3421.624368313462	76
90	89428	3431.134276166168	94
90	89536	3440.738860755279	95
90	89672	3455	110
90	89760	3462.9	78
90	89829	3469.008876909699	60
90	89851	3470.809899602606	17
90	89942	3478.912882623783	80
90	90020	3485.915532975491	69
90	90064	3489.718894833506	37
90	90107	3493.423853141379	36
90	90125	3494.824569778116	13
90	90177	3499.428780862474	45
90	90259	3506.637862996346	71
90	90306	3510.744651631411	40
90	90354	3514.945642552753	41
90	90510	3530.7	127
90	90583	3537.3	65
90	90639	3542.106398043078	47
90	90730	3550.21060379733	80
90	90814	3557.813453129696	75
90	90913	3566.51608028912	86
90	90971	3571.720377943797	51
90	91070	3580.423428111008	86
90	91152	3587.828934707931	73
90	91269	3599.3	93
90	91323	3604	46
90	91338	3605.303749408323	12
90	91385	3609.411161221551	40
90	91389	3609.61537912495	1
90	91451	3615.02145139406	53
90	91513	3620.424865372639	53
90	91568	3625.330787748193	48
90	91609	3628.838842347829	34
90	91673	3634.442718961361	55
90	91728	3641.6	36
90	91801	3648	63
90	91850	3652.309338858642	42
90	91895	3656.211608161432	38
90	91977	3663.611943201438	73
90	92034	3668.519521148338	48
90	92093	3673.824132021687	52
90	92134	3677.326668763712	34
90	92202	3683.331325060901	59
90	92231	3685.838651173823	24
90	92289	3690.842036144633	49
90	92314	3692.951968343818	20
90	92373	3698.053147309696	50
90	92555	3717.2	152
90	92598	3721	37
90	92667	3727.103515523169	60
90	92693	3729.309632836789	21
90	92704	3730.016065444677	6
90	92714	3730.825854867294	7
90	92743	3733.331638776571	24
90	92789	3737.334983034519	39
90	92838	3741.640699709293	42
90	93101	3754.7	107
90	93158	3757.4	26
90	93290	3764.108255047793	66
90	93327	3767.416141972303	32
90	93372	3771.318443212249	38
90	93467	3779.826459032658	84
90	93551	3787.22716725602	73
90	93586	3790.132939545702	28
90	93638	3794.740686417756	45
90	93669	3797.447330657414	26
90	93702	3800.155373513792	26
90	93785	3807.662346559532	74
90	93865	3814.671648692362	69
90	93944	3821.778802063983	70
90	93978	3824.582601560001	27
90	94056	3831.582714244786	69
90	94186	3838.4	44
90	94500	3853.2	147
90	94596	3857.606889276858	43
90	94810	3867.507998885006	98
90	95218	3883.8	138
90	95285	3886.8	29
90	95483	3896.004005827035	91
90	95549	3899.106920493496	30
90	95687	3905.60955268562	64
90	95766	3911.114700925181	54
90	95881	3921.417620253992	102
90	95926	3925.320410184125	38
90	95988	3930.72183792427	53
90	96075	3938.431666828608	76
90	96200	3949.738505790056	112
90	96311	3959.638695302586	98
90	96420	3969.343718250234	96
90	96536	3979.752949847768	103
90	96605	3985.856420946496	60
90	96638	3988.564950295933	26
90	96755	3995.9	39
90	96833	3999.5	35
90	96919	4003.402510152396	38
90	97015	4007.908746777523	44
90	97183	4015.716574758974	77
90	97275	4019.918570531341	41
90	97399	4025.62422842425	56
90	97496	4030.130855099972	44
90	97537	4033.831423080685	36
90	97576	4037.139489205778	32
90	97666	4045.144242798914	79
90	97841	4054.6	66
90	97918	4058.2	35
90	98020	4062.900333513757	46
90	98118	4067.408816105639	44
90	98206	4071.311706443477	38
90	98302	4075.719866117128	43
90	98456	4084.926910501526	91
90	98512	4089.931240749187	49
90	98565	4094.436529168745	44
90	98656	4102.544345311899	80
90	98675	4104.04490485604	14
90	98760	4111.74598845036	76
90	99086	4127.8	138
90	99205	4133.3	54
90	99343	4139.705231031251	63
90	99465	4145.409614196775	56
90	99583	4150.70975859504	52
90	99694	4157.811885901734	70
90	99755	4163.121644477097	52
90	99800	4167.031214565886	38
90	99838	4170.240979270078	31
90	99906	4176.247065146309	59
90	100017	4183.5	35
90	100220	4193	94
90	100384	4200.604415450773	75
90	100488	4205.507369974622	48
90	100574	4209.412784277122	38
90	100666	4213.613830406684	41
90	100809	4222.222536105659	85
90	100869	4227.629600131044	53
90	100940	4233.937502016707	62
90	101013	4241.1	51
90	101038	4243.3	21
90	101137	4252.002553009756	86
90	101223	4259.805240425604	77
90	101392	4274.914247745561	150
90	101507	4285.218406279656	102
90	101592	4292.720746664077	74
90	101647	4297.630110704843	48
90	101665	4299.033241894736	13
90	101747	4306.24229154349	71
90	101830	4313.747369579432	74
90	101927	4318.9	29
90	101964	4320.6	16
90	102093	4326.605112843853	59
90	102183	4330.71218910589	40
90	102257	4334.012974182408	32
90	102339	4337.916043837083	38
90	102503	4345.62187436462	76
90	102611	4354.7	67
90	102685	4361.4	66
90	102740	4366.107807703218	46
90	102820	4373.309397524429	71
90	102875	4378.016351603622	46
90	102926	4382.523452027121	44
90	103023	4391.230055147481	86
90	103158	4405	110
90	103243	4412.6	75
90	103330	4420.300004962489	76
90	103373	4424.001164387082	36
90	103438	4429.903101510314	58
90	103586	4443.112278589957	131
90	103645	4448.219938777865	50
90	103681	4451.421429605756	31
90	103758	4459.5	55
90	103850	4467.8	82
90	103930	4474.803302912772	69
90	104014	4482.204031579815	73
90	104112	4491.006236267096	87
90	104207	4499.511901702367	84
90	104289	4506.71991999524	71
90	104371	4516.1	61
90	104522	4529.9	137
90	104577	4534.601253399446	46
90	104614	4537.908503546649	32
90	104690	4544.515728517895	65
90	104836	4557.716900596808	131
90	104912	4564.322646066386	65
90	104958	4568.330159736569	39
90	105004	4572.337771850582	39
90	105029	4574.441607726276	20
90	105068	4577.946897473981	34
90	105111	4581.655983178348	36
90	105221	4592.5	85
90	105288	4598.5	59
90	105388	4607.506729062271	89
90	105490	4616.508992391176	89
90	105547	4621.618378203861	50
90	105611	4627.227107528453	55
90	105683	4633.633262813603	63
90	105743	4638.840151473425	51
90	105821	4645.841732537023	69
90	105845	4647.847962327369	19
90	105920	4654.357675142339	64
90	105965	4658.259708478643	38
90	105989	4660.268380311014	19
90	106055	4666.071735238566	57
90	106249	4677.5	75
90	106326	4681	34
90	106539	4690.906235901624	98
90	106594	4695.810515450613	48
90	106671	4702.515145651524	66
90	106751	4709.721387807026	71
90	106865	4719.929613337607	101
90	106940	4726.433795825179	64
90	107013	4735.1	51
90	107064	4739.7	45
90	107100	4742.708847323744	29
90	107118	4744.116166159035	13
90	107221	4753.41637710651	92
90	107281	4758.616706838424	51
90	107302	4760.32594941982	16
90	107354	4767.5	35
90	107389	4770.5	29
90	107420	4773.20916338053	26
90	107459	4776.512224858106	32
90	107558	4785.413886989805	88
90	107599	4788.923566326669	34
90	107638	4792.231012597743	32
90	107695	4797.336565865934	50
90	107817	4808.146556009672	107
90	107969	4824.2	122
90	108039	4830.5	62
90	108074	4833.60086987748	30
90	108135	4838.901911228016	52
90	108196	4844.2107443633	52
90	108223	4846.516111646837	22
90	108280	4851.616985999694	50
90	108342	4857.024319125531	53
90	108365	4858.931338353369	18
90	108476	4868.837025930394	98
90	108500	4870.838059777693	19
90	108557	4875.939658294814	50
90	108612	4880.647386848973	46
90	108666	4885.455044218152	47
90	108794	4896.863710797302	113
90	108857	4902.368183599043	54
90	109088	4911.6	56
90	109299	4918.2	65
90	109410	4921.70368424467	34
90	109523	4925.204728381402	34
90	109606	4927.810530866951	25
90	109882	4939.217807183874	113
90	109930	4943.424534418997	41
90	109969	4946.731925801653	32
90	110071	4955.940539499329	91
90	110120	4960.048882799855	40
90	110158	4963.449944113552	33
90	110198	4966.853007054462	33
90	110246	4971.055712756312	41
90	110313	4978.5	45
90	110355	4982.2	36
90	110417	4987.80176186505	55
90	110497	4994.802646228636	69
90	110552	4999.702933913585	48
90	110608	5004.507540542529	47
90	110762	5020.4	124
90	110840	5027.5	70
90	110924	5034.901960733139	73
90	111007	5042.20359665868	72
90	111036	5044.713406571116	24
90	111089	5049.418098308375	46
90	111171	5056.621265032082	71
90	111242	5065.2	52
90	111268	5067.5	22
90	111318	5071.902075214169	43
90	111351	5074.608822634929	26
90	111383	5077.416920913144	27
90	111412	5079.917215558102	24
90	111427	5081.020180937538	10
90	111518	5089.128270854255	80
90	111553	5092.031480645163	28
90	111585	5094.840823533137	27
90	111610	5096.947959615949	20
90	111643	5099.854295302759	28
90	111743	5108.65736403551	87
90	111794	5115.1	31
90	111818	5117.2	20
90	111842	5119.208475585258	19
90	111880	5122.415335890687	31
90	111950	5128.619118649453	61
90	111972	5130.422823809507	17
90	112010	5133.825943140136	33
90	112041	5136.335046710965	24
90	112175	5147.4	74
90	112302	5158.8	113
90	112325	5160.703723404183	18
90	112446	5171.604662027462	108
90	112470	5173.60812053666	19
90	112554	5181.014233181427	73
90	112636	5188.214739765433	71
90	112689	5192.919672403886	46
90	112749	5198.123285649529	51
90	112805	5203.13055338433	49
90	112848	5206.833143067734	36
90	112902	5213.4	34
90	112939	5216.6	31
90	112965	5218.805736281913	21
90	112996	5221.50780141502	26
90	113084	5229.311963463596	77
90	113163	5236.214767338792	68
90	113246	5243.715339829041	74
90	113348	5252.724958049025	89
90	113392	5256.528181257386	37
90	113476	5266	60
90	113568	5274.3	82
90	113645	5281.201868675015	68
90	113741	5289.810534786238	85
90	113841	5298.61402203941	87
90	113933	5306.817739439643	81
90	114024	5314.926586287083	80
90	114091	5322.5	45
90	114175	5330	74
90	114212	5333.306819299748	32
90	114280	5339.307225261188	59
90	114340	5344.516059072489	51
90	114378	5347.925571356959	33
90	114421	5351.633985643604	36
90	114473	5356.034454000914	43
90	114506	5358.942654797556	28
90	114548	5362.543038028502	35
90	114586	5365.950088431472	33
90	114703	5377.2	92
90	114773	5383.5	62
90	114856	5390.800378282712	72
90	114964	5400.407168651564	95
90	115002	5403.810022263099	33
90	115058	5408.617974704341	47
90	115132	5415.221664969418	65
90	115199	5421.130044208734	58
90	115296	5429.834477710592	86
90	115379	5437.136667458965	72
90	115590	5448.3	83
90	115657	5451.4	30
90	115895	5462.4064156175	109
90	115925	5463.70728574789	12
90	116049	5469.50818029567	57
90	116073	5470.516525034919	9
90	116115	5472.421515777581	18
90	116266	5486	100
90	116322	5491.1	50
90	116403	5498.204047495082	70
90	116565	5512.809564017736	145
90	116614	5517.115085578214	42
90	116654	5520.517308531932	33
90	116695	5524.020892305499	34
90	116729	5527.023677935734	29
90	116831	5536.032666263932	89
90	116956	5544.1	41
90	117019	5547	28
90	117107	5551.107137810674	40
90	117313	5560.616155741941	94
90	117411	5565.124612039618	44
90	117498	5569.133525882202	39
90	117644	5575.94348718308	67
90	117733	5583.349171059477	73
90	117781	5587.549610048835	41
90	117961	5603.751660011408	161
90	118006	5608.5	25
90	118102	5617.2	86
90	118170	5623.201374344879	59
90	118206	5626.209804338172	29
90	118305	5635.113471994851	88
90	118327	5636.922074938567	17
90	118396	5643.027531431286	60
90	118482	5650.635030918816	75
90	118507	5652.739032968185	20
90	118540	5655.645372255165	28
90	118573	5658.349392019761	26
90	118611	5661.757818919431	33
90	118653	5665.364255060073	35
90	118671	5666.765185494058	13
90	118866	5677.4	74
90	119120	5689.9	124
90	119195	5696.409988791404	64
90	119243	5700.613805626578	41
90	119406	5715.320060396735	146
90	119434	5717.729572704635	23
90	119523	5725.63497915606	78
90	119728	5735.9	79
90	119835	5740.8	48
90	119961	5746.607714047555	57
90	120183	5757.012358394993	103
90	120349	5769.519414480956	124
90	120403	5774.120851594031	45
90	120436	5777.026981751293	28
90	120487	5781.529417074998	44
90	120587	5790.333675623568	87
90	120725	5802.739079056905	123
90	121244	5820.5	145
90	121411	5831.3	107
90	121482	5837.60156902549	62
90	121513	5840.103368676811	24
90	121538	5842.206862471425	20
90	121571	5845.115579288296	28
90	121612	5848.619267648664	34
90	121883	5863	110
90	121936	5865.5	24
90	122002	5868.802807927611	32
90	122056	5873.608180949331	47
90	122115	5878.713194316769	50
90	122125	5879.517414712055	7
90	122173	5883.71793088649	41
90	122281	5893.320400099713	95
90	122308	5895.620547094303	22
90	122391	5904.1	61
90	122417	5906.4	22
90	122434	5907.901849477931	14
90	122491	5912.803769746461	48
90	122583	5921.011438687046	81
90	122646	5926.515964812259	54
90	122681	5929.616296403119	30
90	122781	5939.9	79
90	122854	5946.3	63
90	122919	5952.003887723966	56
90	123003	5959.607821320563	75
90	123100	5968.114687130767	84
90	123218	5978.723113077484	105
90	123239	5980.432898793824	16
90	123278	5983.938010663991	34
90	123388	5993.746301608635	97
90	123501	6003.85546189848	100
90	123583	6011.0562379179	71
90	123751	6027.8	138
90	123771	6029.5	16
90	123851	6036.505089212004	69
90	123925	6043.111702540516	65
90	123975	6047.51418858182	43
90	124053	6054.324041552767	67
90	124130	6061.227389116131	68
90	124252	6073.9	99
90	124293	6077.5	35
90	124375	6084.704756116885	71
90	124393	6086.105589996959	13
90	124493	6095.112432780201	89
90	124745	6104.2	62
90	125012	6112.6	83
90	125304	6121.806838771675	91
90	125467	6126.908774189725	50
90	125727	6135.116040007492	81
90	125997	6143.52051624273	83
90	126071	6146.92587546513	33
90	126181	6151.3	13
90	126337	6156.1	47
90	126470	6160.203197087866	40
90	126691	6167.104310499859	68
90	126840	6171.809213631258	46
90	126949	6175.110059883	32
90	127338	6190.015570862113	148
90	127400	6192.915619952964	28
90	127421	6194.61989611086	16
90	127462	6198.129689304747	34
90	127486	6200.135171971593	19
90	127515	6202.638149223941	24
90	127541	6204.842477953078	21
90	127717	6222.5	145
90	127749	6225.4	28
90	127761	6226.200100800062	7
90	127843	6233.6080030664	73
90	127925	6240.813542049041	71
90	127977	6245.417847752026	45
90	128010	6248.123824925459	26
90	128041	6250.829034328282	26
90	128069	6253.230512459769	23
90	128104	6256.135504621339	28
90	128160	6261.136280484117	49
90	128196	6265.8	18
90	128295	6274.6	87
90	128393	6283.40501160975	87
90	128481	6291.21433938627	77
90	128566	6298.719390388439	74
90	128643	6305.628119108412	68
90	128676	6308.335809313767	26
90	128782	6317.940288300097	95
90	128819	6321.042877645198	30
90	128869	6325.448818442191	43
90	128999	6338.2	102
90	129080	6345.6	73
90	129185	6354.901329128213	92
90	129250	6360.603279401219	56
90	129345	6369.103974852416	84
90	129425	6376.106416318682	69
90	129522	6384.80915797207	86
90	129621	6393.716560626038	88
90	129674	6398.222856642705	44
90	129751	6405.123975376026	68
90	129876	6417.9	99
90	129960	6425.4	74
90	130060	6434.204675714222	87
90	130085	6436.309810671242	20
90	130117	6439.111477979932	27
90	130158	6442.612933370192	34
90	130207	6446.917834834081	42
90	130253	6450.92069968033	39
90	130296	6454.624315237825	36
90	130349	6459.326512953215	46
90	130393	6463.12782983123	37
90	130454	6468.433443854878	52
90	130598	6483.6	116
90	130636	6486.9	32
90	130675	6490.205112717957	32
90	130723	6494.406329540819	41
90	130738	6495.710248747667	12
90	130929	6505.3	73
90	131072	6512	66