file 250832 1367232687                                          
version 2
run Join-59-20130429-12:51:23-17679
attr configname Join
attr datetime 20130429-12:51:23
attr experiment "\"Join\""
attr inifile omnetpp.ini
attr iterationvars $0=1024
attr iterationvars2 "$0=1024, $repetition=9"
attr measurement $0=1024
attr network Network
attr processid 17679
attr repetition 9
attr replication #9
attr resultdir results
attr runnumber 59
attr seedset 59
vector 59  Network.dyn_peer[0]  lookupHopsSig:vector  ETV
59	444 250388 3085 181192 21 15838.942084539483 9000 0 49 119748 2088574
