file 226219 1367232604                                          
version 2
run Join-30-20130429-12:50:01-17679
attr configname Join
attr datetime 20130429-12:50:01
attr experiment "\"Join\""
attr inifile omnetpp.ini
attr iterationvars $0=256
attr iterationvars2 "$0=256, $repetition=0"
attr measurement $0=256
attr network Network
attr processid 17679
attr repetition 0
attr replication #0
attr resultdir results
attr runnumber 30
attr seedset 30
vector 30  Network.dyn_peer[0]  lookupHopsSig:vector  ETV
30	441 225778 980 106445 23.3 9805.820022372866 8552 0 27 59817 538981
