file 205972 1367232600                                          
version 2
run Join-28-20130429-12:49:58-17679
attr configname Join
attr datetime 20130429-12:49:58
attr experiment "\"Join\""
attr inifile omnetpp.ini
attr iterationvars $0=128
attr iterationvars2 "$0=128, $repetition=8"
attr measurement $0=128
attr network Network
attr processid 17679
attr repetition 8
attr replication #8
attr resultdir results
attr runnumber 28
attr seedset 28
vector 28  Network.dyn_peer[0]  lookupHopsSig:vector  ETV
28	441 205531 593 83042 20.512077745654 7862.031803755683 7922 0 18 40957 272703
