version 2
run Join-10-20130429-12:49:27-17679
attr configname Join
attr datetime 20130429-12:49:27
attr experiment "\"Join\""
attr inifile omnetpp.ini
attr iterationvars $0=64
attr iterationvars2 "$0=64, $repetition=0"
attr measurement $0=64
attr network Network
attr processid 17679
attr repetition 0
attr replication #0
attr resultdir results
attr runnumber 10
attr seedset 10

vector 10  Network.dyn_peer[0]  lookupHopsSig:vector  ETV
10	377	22.2	2
10	384	22.5136317289	2
10	389	22.819263635795	2
10	396	23.320297446528	4
10	417	26.3	3
10	421	26.6	2
10	432	27.506734669238	8
10	438	27.912683278745	3
10	445	28.214275216065	2
10	469	32.6	6
10	474	33	3
10	481	33.508441258759	4
10	490	34.009521896545	4
10	494	34.210137560313	1
10	502	34.811926588382	5
10	507	35.116918895226	2
10	512	35.42577716622	2
10	517	35.728261835979	2
10	527	36.331915485673	5
10	550	40.5	5
10	561	41.5	9
10	567	41.902954421411	3
10	576	42.404023217195	4
10	585	43.113892108392	6
10	593	43.721338140837	5
10	602	44.223721467995	4
10	631	48.1	1
10	637	48.6	4
10	642	48.901840348208	2
10	648	49.308782617949	3
10	653	49.615233339242	2
10	657	49.817340300202	1
10	664	50.117826580256	2
10	668	50.323005020941	1
10	694	54.8	8
10	701	55.4	5
10	705	55.602267733411	1
10	709	55.811314380773	1
10	717	56.215128496143	3
10	726	56.921607420396	6
10	746	60.2	2
10	751	60.6	3
10	758	61.105667499282	4
10	763	61.407873777944	2
10	787	64.6	6
10	794	65.2	5
10	803	65.909778992638	6
10	814	66.613245899227	6
10	821	67.118976188266	4
10	827	67.524752830789	3
10	838	68.232670400767	6
10	843	68.534353930086	2
10	848	68.839969503758	2
10	872	72.6	6
10	876	72.9	2
10	883	73.408124648525	4
10	890	73.915213146786	4
10	899	74.41709750339	4
10	906	74.918582837931	4
10	911	75.222313461892	2
10	917	75.626597969261	3
10	937	78.4	4
10	943	78.9	4
10	951	79.504137978074	5
10	957	79.908534030434	3
10	964	80.210844083646	2
10	971	80.712506105083	4
10	976	81.019042334368	2
10	996	84.2	2
10	1002	84.7	4
10	1008	85.100901067354	3
10	1012	85.303023195831	1
10	1016	85.511023883294	1
10	1022	85.920643549296	3
10	1029	86.226294812878	2
10	1036	86.728906216278	4
10	1041	87.03479969339	2
10	1059	90	0
10	1066	90.6	5
10	1073	91.103709022141	4
10	1080	91.606668059738	4
10	1089	92.11338739008	4
10	1097	92.71376296683	5
10	1116	96.1	1
10	1122	96.6	4
10	1132	97.406724491047	7
10	1136	97.614173131836	1
10	1146	98.214943684473	5
10	1154	98.82051663854	5
10	1162	99.423015500871	5
10	1167	99.726866636889	2
10	1187	102.2	2
10	1193	102.7	4
10	1199	103.109351290196	3
10	1206	103.615341808173	4
10	1214	104.017437785247	3
10	1219	104.325264933458	2
10	1227	104.931032663215	5
10	1235	105.539517755044	5
10	1245	106.145328228346	5
10	1252	106.651359858154	4
10	1275	110.5	5
10	1285	111.4	8
10	1295	112.005470433246	5
10	1301	112.405682085146	3
10	1309	113.014400208237	5
10	1317	113.621904854284	5
10	1325	114.031545214602	3
10	1329	114.233305635941	1
10	1335	114.634921741713	3
10	1340	114.939506883843	2
10	1360	118.2	2
10	1366	118.7	4
10	1375	119.40198835035	6
10	1386	120.110432208249	6
10	1394	120.719417668731	5
10	1399	121.021165807676	2
10	1405	121.429024366054	3
10	1415	122.029170714791	5
10	1423	122.636029934486	5
10	1428	122.9445175752	2
10	1448	126.2	2
10	1454	126.7	4
10	1459	127.005738732705	2
10	1467	127.609907716842	5
10	1472	127.90991758352	2
10	1478	128.111084878582	1
10	1486	128.718583403963	5
10	1490	128.921970195299	1
10	1516	132.8	8
10	1523	133.4	5
10	1528	133.703729385086	2
10	1536	134.104500239086	3
10	1551	135.412927057824	12
10	1561	136.014986560416	5
10	1583	140.4	4
10	1591	141.1	6
10	1599	141.707541563285	5
10	1608	142.214098830667	4
10	1616	142.820058769953	5
10	1623	143.328094453375	4
10	1627	143.537362542099	1
10	1631	143.740874677132	1
10	1650	146.1	1
10	1655	146.5	3
10	1659	146.708961532323	1
10	1665	147.116810199518	3
10	1670	147.423909678358	2
10	1676	147.82784386945	3
10	1682	148.032073925913	1
10	1688	148.440718717901	3
10	1708	152.2	2
10	1714	152.7	4
10	1719	153.009284958878	2
10	1724	153.317578978118	2
10	1732	153.920359475653	5
10	1740	154.32772330273	3
10	1745	154.632200391381	2
10	1767	158.4	4
10	1771	158.7	2
10	1777	159.102131865664	3
10	1782	159.406584321883	2
10	1789	159.915541411366	4
10	1795	160.115984012526	1
10	1801	160.525643475085	3
10	1823	164.4	4
10	1829	164.9	4
10	1836	165.311932010524	3
10	1848	166.113741216537	7
10	1855	166.613993855969	4
10	1867	167.617555600793	9
10	1892	170.7	7
10	1900	171.4	6
10	1910	172.000690333407	5
10	1919	172.703371490381	6
10	1924	173.005946244652	2
10	1932	173.609398202689	5
10	1936	173.818534019989	1
10	1946	174.326649733417	4
10	1971	178.2	2
10	1976	178.6	3
10	1983	179.10403469844	4
10	1988	179.407093072682	2
10	1994	179.80733739918	3
10	2002	180.208324108104	3
10	2006	180.41689241849	1
10	2011	180.725106099561	2
10	2030	184.1	1
10	2035	184.5	3
10	2039	184.703557723418	1
10	2045	185.108948015377	3
10	2050	185.416891105989	2
10	2055	185.722972795496	2
10	2076	188.3	3
10	2082	188.8	4
10	2093	189.705590865148	8
10	2102	190.215461665933	4
10	2109	190.716686765759	4
10	2114	191.020345292545	2
10	2118	191.224121711761	1
10	2124	191.627207452325	3
10	2132	192.03149492563	3
10	2156	196.6	6
10	2164	197.3	6
10	2171	197.800522099907	4
10	2182	198.503524206074	6
10	2188	198.905620595079	3
10	2195	199.40958501392	4
10	2201	199.812256182133	3
10	2209	200.220188914473	3
10	2216	200.720390723765	4
10	2222	201.124513484554	3
10	2242	204.2	2
10	2246	204.5	2
10	2251	204.80723481636	2
10	2258	205.312927530321	4
10	2264	205.721760398579	3
10	2271	206.022360900669	2
10	2292	210.3	3
10	2301	211.009689067529	6
10	2307	211.415836084637	3
10	2311	211.618975149475	1
10	2315	211.82265541624	1
10	2322	212.132106581392	2
10	2330	212.740134340777	5
10	2335	213.042831683369	2
10	2359	216.6	6
10	2366	217.2	5
10	2372	217.602882531415	3
10	2377	217.906658130904	2
10	2384	218.209406082256	2
10	2390	218.611684506647	3
10	2397	219.11769502561	4
10	2404	219.620074114139	4
10	2413	220.129459256095	4
10	2419	220.531911068296	3
10	2441	224.5	5
10	2448	225.1	5
10	2453	225.401223359196	2
10	2463	226.005071791328	5
10	2470	226.509659033607	4
10	2477	227.017863181536	4
10	2482	227.327611306523	2
10	2505	230.5	5
10	2510	230.9	3
10	2514	231.108750090468	1
10	2519	231.409217482741	2
10	2524	231.717998266118	2
10	2536	232.527524705471	7
10	2555	236.1	1
10	2562	236.7	5
10	2570	237.302529579326	5
10	2576	237.712168584581	3
10	2602	240.8	8
10	2609	241.4	5
10	2615	241.804467061632	3
10	2621	242.005934749734	1
10	2628	242.513872196482	4
10	2633	242.815011799515	2
10	2637	243.022244132505	1
10	2642	243.32596442158	2
10	2649	243.825965484787	4
10	2669	246.2	2
10	2675	246.7	4
10	2681	247.106380350848	3
10	2686	247.406404060767	2
10	2712	250.8	8
10	2716	251.1	2
10	2722	251.503377546456	3
10	2727	251.80664126269	2
10	2733	252.015621505779	1
10	2738	252.31984702831	2
10	2742	252.529254098668	1
10	2749	253.033442366673	4
10	2753	253.237283585141	1
10	2758	253.545969093329	2
10	2768	254.149930271293	5
10	2774	254.551013578591	3
10	2780	254.959986378052	3
10	2800	258.2	2
10	2804	258.5	2
10	2810	258.900712734484	3
10	2815	259.202014489935	2
10	2822	259.705061017493	4
10	2830	260.105930711549	3
10	2853	264.5	5
10	2858	264.9	3
10	2864	265.307639600064	3
10	2868	265.513480158774	1
10	2891	268.5	5
10	2900	269.3	7
10	2907	269.8021598771	4
10	2914	270.108169419173	2
10	2921	270.611454977503	4
10	2926	270.917907254978	2
10	2932	271.318589982458	3
10	2937	271.619156264446	2
10	2963	274.8	8
10	2967	275.1	2
10	2973	275.501170049426	3
10	2978	275.803060343947	2
10	2990	276.60993400894	7
10	2998	277.217964084354	5
10	3004	277.619414270506	3
10	3026	280.4	4
10	3034	281.1	6
10	3040	281.501777887486	3
10	3046	281.910811387865	3
10	3054	282.31163759078	3
10	3060	282.71948138306	3
10	3064	282.924302102768	1
10	3070	283.329388971466	3
10	3078	283.934677510303	5
10	3100	286.4	4
10	3108	287.1	6
10	3113	287.406167458682	2
10	3124	288.112881181987	6
10	3133	288.820570618586	6
10	3141	289.428503311852	5
10	3152	290.034294740375	5
10	3172	294.5	5
10	3176	294.8	2
10	3187	295.704067513092	8
10	3195	296.109574120947	3
10	3218	300.5	5
10	3224	301	4
10	3230	301.40557271948	3
10	3240	302.005777019112	5
10	3245	302.315746916698	2
10	3256	303.223755434819	8
10	3278	306.4	4
10	3282	306.7	2
10	3287	307.005439887586	2
10	3292	307.312438827458	2
10	3298	307.716882662068	3
10	3307	308.217462160156	4
10	3315	308.72303533881	4
10	3321	309.129136143238	3
10	3325	309.334239461037	1
10	3331	309.740722775882	3
10	3341	310.350675363669	5
10	3360	314.1	1
10	3366	314.6	4
10	3371	314.901517196476	2
10	3379	315.507531600235	5
10	3385	315.915718816003	3
10	3407	318.4	4
10	3413	318.9	4
10	3420	319.407207999017	4
10	3434	320.408974349474	9
10	3438	320.614482410092	1
10	3446	321.219324396672	5
10	3452	321.627710166783	3
10	3460	322.034845712387	3
10	3467	322.540649025891	4
10	3490	326.5	5
10	3498	327.2	6
10	3505	327.707307873885	4
10	3517	328.424300383635	6
10	3525	329.029468276382	5
10	3529	329.236706481587	1
10	3537	329.842967918286	5
10	3544	330.149685241243	2
10	3565	334.3	3
10	3571	334.8	4
10	3575	335.004133046562	1
10	3581	335.412550038485	3
10	3587	335.817904725681	3
10	3596	336.226488673444	3
10	3605	336.934769568209	6
10	3626	340.3	3
10	3636	341.2	8
10	3641	341.509356699972	2
10	3650	342.017612815559	4
10	3657	342.52374010736	4
10	3663	342.930518270331	3
10	3684	346.3	3
10	3690	346.8	4
10	3694	347.009031717369	1
10	3699	347.318035291334	2
10	3723	350.6	6
10	3728	350.901320551305	2
10	3734	351.302852520578	3
10	3739	351.611927950017	2
10	3747	352.01536604891	3
10	3753	352.424468355275	3
10	3759	352.824553024403	3
10	3784	356.7	7
10	3789	357.1	3
10	3798	357.801168794345	6
10	3809	358.509464684505	6
10	3829	362.2	2
10	3832	362.4	1
10	3843	363.300871283609	8
10	3847	363.501989832091	1
10	3853	363.905564464103	3
10	3861	364.30851711212	3
10	3883	368.4	4
10	3886	368.6	1
10	3894	369.205378324324	5
10	3898	369.408544231219	1
10	3905	369.916091466919	4
10	3915	370.519361853502	5
10	3935	374.2	2
10	3941	374.7	4
10	3947	375.10476684971	3
10	3951	375.312180218726	1
10	3955	375.517746425607	1
10	3961	375.924853948048	3
10	3967	376.129261318639	1
10	3972	376.434176178025	2
10	3983	377.341113551619	8
10	4006	380.5	5
10	4011	380.9	3
10	4018	381.40576030096	4
10	4028	382.006133521089	5
10	4032	382.208672495769	1
10	4036	382.415460849737	1
10	4041	382.72203039193	2
10	4046	383.026802599923	2
10	4051	383.333324632881	2
10	4056	383.634326346797	2
10	4076	386.2	2
10	4080	386.5	2
10	4088	387.106516784781	5
10	4093	387.413855725186	2
10	4103	388.017128875918	5
10	4109	388.420344531732	3
10	4118	389.129490414567	6
10	4140	392.4	4
10	4146	392.9	4
10	4152	393.305591252988	3
10	4158	393.715240106155	3
10	4168	394.316848633085	5
10	4190	398.4	4
10	4195	398.8	3
10	4201	399.202552744904	3
10	4209	399.802746219499	5
10	4217	400.206155339378	3
10	4222	400.507672203661	2
10	4231	401.210179582513	6
10	4236	401.510518607639	2
10	4241	401.813380033741	2
10	4249	402.223198382276	3
10	4257	402.832435956733	5
10	4280	406.5	5
10	4285	406.9	3
10	4293	407.504122374122	5
10	4303	408.107800581112	5
10	4323	412.2	2
10	4328	412.6	3
10	4332	412.807731156048	1
10	4337	413.109893945796	2
10	4344	413.523709253233	3
10	4350	413.930772562066	3
10	4359	414.345582739763	3
10	4363	414.547475909794	1
10	4370	415.052696405447	4
10	4374	415.260337536782	1
10	4383	415.964765233304	6
10	4406	418.5	5
10	4412	419	4
10	4418	419.402207725096	3
10	4425	419.910093263859	4
10	4432	420.214469903328	2
10	4438	420.623392597874	3
10	4446	421.229092581238	5
10	4454	421.832183632823	5
10	4465	422.533293453685	6
10	4470	422.834649551372	2
10	4476	423.2399323859	3
10	4483	423.747441652431	4
10	4491	424.148493390725	3
10	4500	424.853761722959	6
10	4505	425.154057992779	2
10	4530	428.7	7
10	4534	429	2
10	4540	429.408388465868	3
10	4544	429.609688870049	1
10	4548	429.815062410343	1
10	4556	430.121806787694	2
10	4561	430.425249190485	2
10	4568	430.925838130601	4
10	4574	431.329921997254	3
10	4579	431.630841490132	2
10	4598	434.1	1
10	4605	434.7	5
10	4613	435.30951415969	5
10	4620	435.817623501933	4
10	4629	436.320093715335	4
10	4648	440.1	1
10	4651	440.3	1
10	4657	440.702911544307	3
10	4663	441.103534084546	3
10	4669	441.510051948248	3
10	4675	441.919670328944	3
10	4685	442.526049536007	5
10	4707	446.4	4
10	4712	446.8	3
10	4719	447.307549876051	4
10	4731	448.115616787548	7
10	4742	449.018601068432	8
10	4762	452.2	2
10	4767	452.6	3
10	4774	453.109820039176	4
10	4778	453.31520677046	1
10	4784	453.72235664995	3
10	4793	454.232165890029	4
10	4802	454.932252482702	6
10	4822	458.2	2
10	4829	458.8	5
10	4834	459.10152144598	2
10	4839	459.40595321684	2
10	4843	459.613177905251	1
10	4851	460.014908402462	3
10	4858	460.522068982548	4
10	4877	464.1	1
10	4880	464.3	1
10	4885	464.606489051552	2
10	4889	464.807634313632	1
10	4897	465.412651773615	5
10	4904	465.921695593905	4
10	4911	466.224551995985	2
10	4917	466.632295677079	3
10	4921	466.838662635329	1
10	4925	467.043926504881	1
10	4930	467.347609923936	2
10	4953	470.5	5
10	4957	470.8	2
10	4966	471.507459648419	6
10	4976	472.115858523244	5
10	4995	476.1	1
10	5003	476.8	6
10	5009	477.200518562605	3
10	5013	477.40697344921	1
10	5020	477.914606264393	4
10	5042	480.4	4
10	5046	480.7	2
10	5052	481.109670457534	3
10	5058	481.518376317684	3
10	5068	482.126454982972	5
10	5074	482.532675754176	3
10	5079	482.835416430066	2
10	5084	483.13704445127	2
10	5091	483.639835347277	4
10	5100	484.050738478458	3
10	5107	484.553613604599	4
10	5113	484.95842048724	3
10	5138	488.7	7
10	5143	489.1	3
10	5152	489.803715056681	6
10	5160	490.20615380763	3
10	5183	494.5	5
10	5189	495	4
10	5196	495.503628001178	4
10	5202	495.906384197519	3
10	5209	496.206529090603	2
10	5216	496.715907585058	4
10	5222	497.117499189247	3
10	5228	497.525189310778	3
10	5250	500.4	4
10	5255	500.8	3
10	5263	501.408539459803	5
10	5270	501.910004169409	4
10	5282	502.713658206992	7
10	5291	503.421550094902	6
10	5298	503.922334005024	4
10	5324	506.8	8
10	5328	507.1	2
10	5336	507.707120311884	5
10	5346	508.308140606498	5
10	5353	508.811214400718	4
10	5359	509.213114996382	3
10	5385	512.8	8
10	5391	513.3	4
10	5399	513.900898116382	5
10	5408	514.402328338264	4
10	5416	515.004273119973	5
10	5420	515.211304039122	1
10	5425	515.517462117823	2
10	5430	515.826624933702	2
10	5436	516.035945770456	1
10	5459	520.5	5
10	5465	521	4
10	5473	521.608201551868	5
10	5482	522.110839109781	4
10	5487	522.416910152255	2
10	5492	522.722181621029	2
10	5497	523.028928289441	2
10	5517	526.2	2
10	5522	526.6	3
10	5527	526.901833385506	2
10	5532	527.208942478929	2
10	5538	527.609139803458	3
10	5548	528.217968109691	5
10	5575	532.9	9
10	5586	533.9	9
10	5595	534.404336796638	4
10	5600	534.712831417114	2
10	5605	535.021152264735	2
10	5613	535.622820459001	5
10	5623	536.222955044586	5
10	5632	536.924394970372	6
10	5654	540.4	4
10	5660	540.9	4
10	5665	541.200296549384	2
10	5670	541.508075005378	2
10	5681	542.20818929059	6
10	5700	546.1	1
10	5704	546.307989921106	1
10	5710	546.713971656178	3
10	5714	546.915982953145	1
10	5718	547.124842155641	1
10	5723	547.431012060684	2
10	5747	550.6	6
10	5752	551	3
10	5760	551.600808424053	5
10	5764	551.808437029295	1
10	5772	552.209256174661	3
10	5781	552.82492898819	5
10	5787	553.231558427991	3
10	5793	553.639565368014	3
10	5815	556.4	4
10	5824	557.2	7
10	5832	557.804717466081	5
10	5839	558.1138304683	2
10	5846	558.620215227337	4
10	5852	559.024223994154	3
10	5859	559.532423033893	4
10	5865	559.935291940839	3
10	5873	560.342444145955	3
10	5881	560.950874594802	5
10	5885	561.151895925882	1
10	5893	561.758066371371	5
10	5914	564.3	3
10	5921	564.9	5
10	5928	565.407401958787	4
10	5933	565.715816938438	2
10	5940	566.023894381477	2
10	5946	566.432337966196	3
10	5952	566.841656151651	3
10	5962	567.643857611596	7
10	5967	567.94445613524	2
10	5973	568.152567511629	1
10	5996	572.5	5
10	6003	573.1	5
10	6010	573.605289861096	4
10	6019	574.110528559928	4
10	6024	574.415336910671	2
10	6030	574.821733202199	3
10	6036	575.222469692603	3
10	6044	575.822521256073	5
10	6070	578.8	8
10	6077	579.4	5
10	6082	579.706971274889	2
10	6092	580.308687205132	5
10	6114	584.4	4
10	6119	584.8	3
10	6124	585.108119139824	2
10	6133	585.808670199037	6
10	6140	586.113536861081	2
10	6145	586.419359090138	2
10	6155	587.221105685223	7
10	6176	590.3	3
10	6182	590.8	4
10	6189	591.309669893877	4
10	6193	591.516049978164	1
10	6202	592.017999324788	4
10	6208	592.426155600013	3
10	6227	596.1	1
10	6232	596.5	3
10	6241	597.204017818551	6
10	6250	597.907925389422	6
10	6258	598.308853865825	3
10	6264	598.718591531655	3
10	6285	602.3	3
10	6289	602.6	2
10	6294	602.900052905103	2
10	6298	603.101259682562	1
10	6302	603.302161294298	1
10	6325	606.5	5
10	6330	606.9	3
10	6336	607.303491355378	3
10	6344	607.913347213928	5
10	6351	608.217636006857	2
10	6357	608.622837753745	3
10	6366	609.327518125057	6
10	6377	610.02950229932	6
10	6383	610.435377218855	3
10	6405	614.4	4
10	6410	614.8	3
10	6417	615.211447690905	3
10	6423	615.616559847644	3
10	6428	615.925571822551	2
10	6434	616.133453941455	1
10	6438	616.337231136088	1
10	6443	616.640579103403	2
10	6447	616.847251366662	1
10	6469	620.4	4
10	6477	621.1	6
10	6484	621.600042239134	4
10	6494	622.200785908212	5
10	6503	622.901520946956	6
10	6511	623.510063173443	5
10	6521	624.111386087127	5
10	6544	628.5	5
10	6549	628.9	3
10	6555	629.302312376392	3
10	6559	629.504445506906	1
10	6563	629.705267187039	1
10	6572	630.207823812515	4
10	6578	630.617156958131	3
10	6601	634.5	5
10	6607	635	4
10	6613	635.407310276394	3
10	6620	635.917247707421	4
10	6627	636.223729806759	2
10	6633	636.631481341344	3
10	6640	637.043374291996	3
10	6647	637.545648681186	4
10	6653	637.948542699932	3
10	6664	638.653500861517	6
10	6688	642.6	6
10	6696	643.3	6
10	6703	643.80351301359	4
10	6715	644.611057938339	7
10	6721	645.018810781456	3
10	6728	645.523182013394	4
10	6737	646.029062657503	4
10	6741	646.233064778433	1
10	6763	650.4	4
10	6769	650.9	4
10	6775	651.307073084427	3
10	6780	651.612599064744	2
10	6790	652.213973755251	5
10	6797	652.714778391403	4
10	6802	653.023861827397	2
10	6808	653.429804583085	3
10	6832	656.6	6
10	6838	657.1	4
10	6847	657.801942027718	6
10	6858	658.504930299664	6
10	6863	658.808923623067	2
10	6867	659.016498989906	1
10	6888	662.3	3
10	6893	662.7	3
10	6897	662.900874051013	1
10	6901	663.102271853821	1
10	6905	663.309604884158	1
10	6910	663.61256252119	2
10	6932	666.4	4
10	6937	666.8	3
10	6944	667.300592829387	4
10	6955	668.002692751053	6
10	6962	668.512365506314	4
10	6967	668.820150428029	2
10	6991	672.6	6
10	6998	673.2	5
10	7003	673.509299468495	2
10	7009	673.910976431587	3
10	7017	674.314755211596	3
10	7025	674.924002037681	5
10	7033	675.526009867027	5
10	7038	675.833183266514	2
10	7063	678.7	7
10	7067	679	2
10	7071	679.204775265573	1
10	7076	679.506639364847	2
10	7082	679.822144977832	2
10	7089	680.131635849741	2
10	7093	680.333602267338	1
10	7100	680.840656022564	4
10	7105	681.15026902923	2
10	7126	684.3	3
10	7132	684.8	4
10	7138	685.200104754075	3
10	7145	685.702232021036	4
10	7157	686.503089697	7
10	7166	687.209369576626	6
10	7171	687.514624994719	2
10	7196	690.7	7
10	7206	691.6	8
10	7210	691.80816367746	1
10	7217	692.116289207198	2
10	7221	692.32047977438	1
10	7228	692.825080501961	4
10	7233	693.04279990584	1
10	7241	693.64545205755	5
10	7263	696.4	4
10	7271	697.1	6
10	7281	697.905297196966	7
10	7293	698.709782442853	7
10	7299	699.113149402513	3
10	7306	699.616503247564	4
10	7330	702.6	6
10	7335	703	3
10	7350	704.109954532387	10
10	7355	704.416764027694	2
10	7361	704.817818440449	3
10	7384	708.5	5
10	7388	708.8	2
10	7393	709.100131395426	2
10	7398	709.409386471085	2
10	7409	710.116004577296	6
10	7413	710.319307610716	1
10	7419	710.720382734162	3
10	7423	710.926753942314	1
10	7427	711.129853518723	1
10	7434	711.631090706094	4
10	7439	711.934170180543	2
10	7446	712.242704107219	2
10	7452	712.643878829516	3
10	7474	716.5	5
10	7479	716.9	3
10	7483	717.108870750428	1
10	7490	717.617915542993	4
10	7498	718.023226347219	3
10	7506	718.631188148672	5
10	7512	719.038587123302	3
10	7517	719.339241417511	2
10	7537	722.2	2
10	7544	722.8	5
10	7552	723.406605196348	5
10	7558	723.808120033447	3
10	7564	724.015932238308	1
10	7583	728.1	1
10	7588	728.5	3
10	7595	729.007535208747	4
10	7606	729.912623977213	8
10	7613	730.2215213067	2
10	7620	730.727030976795	4
10	7642	734.4	4
10	7645	734.6	1
10	7650	734.90828491087	2
10	7655	735.217941687441	2
10	7659	735.419067663386	1
10	7669	736.021464003255	5
10	7675	736.42171096063	3
10	7681	736.830051579	3
10	7686	737.138195114321	2
10	7707	740.3	3
10	7714	740.9	5
10	7720	741.308906768916	3
10	7728	741.910489136883	5
10	7746	744	0
10	7756	744.9	8
10	7760	745.105529925781	1
10	7765	745.408114143835	2
10	7771	745.813984605978	3
10	7777	746.017654076449	1
10	7783	746.420531311475	3
10	7804	750.3	3
10	7810	750.8	4
10	7816	751.203033672044	3
10	7821	751.503384785111	2
10	7826	751.806536057986	2
10	7836	752.410319894909	5
10	7840	752.613022146667	1
10	7847	753.116601560019	4
10	7854	753.625604506254	4
10	7865	754.237869985878	5
10	7872	754.743877002772	4
10	7877	755.052843988196	2
10	7884	755.560094976434	4
10	7890	755.963827730267	3
10	7912	758.5	5
10	7919	759.1	5
10	7926	759.608754050096	4
10	7934	760.016853771153	3
10	7955	764.3	3
10	7962	764.9	5
10	7968	765.302563439384	3
10	7975	765.803677791093	4
10	7983	766.210844916167	3
10	7991	766.818960897572	5
10	7995	767.027835688908	1
10	8014	770.1	1
10	8021	770.7	5
10	8028	771.203224210557	4
10	8036	771.803575129238	5
10	8042	772.004646783514	1
10	8049	772.512329581311	4
10	8059	773.313942078932	7
10	8066	773.814552810669	4
10	8074	774.22128067424	3
10	8078	774.42993000457	1
10	8085	774.937071503549	4
10	8104	778.2	2
10	8109	778.6	3
10	8115	779.006075157136	3
10	8119	779.215258120116	1
10	8125	779.6219341128	3
10	8133	780.031780331312	3
10	8139	780.433166862922	3
10	8146	780.943137334359	4
10	8153	781.448272624595	4
10	8159	781.85343186418	3
10	8168	782.361641281502	4
10	8176	782.968642124571	5
10	8182	783.371752617817	3
10	8186	783.572518205553	1
10	8205	786.1	1
10	8209	786.4	2
10	8215	786.804355605174	3
10	8222	787.307946222314	4
10	8230	787.911589024352	5
10	8236	788.121346061726	1
10	8258	792.4	4
10	8262	792.7	2
10	8266	792.907652993756	1
10	8271	793.207839738283	2
10	8275	793.417544740786	1
10	8280	793.72298613624	2
10	8291	794.425236395642	6
10	8311	798.2	2
10	8316	798.6	3
10	8322	799.003683045157	3
10	8327	799.305245212642	2
10	8339	800.109448417739	7
10	8345	800.515484492494	3
10	8350	800.81953853208	2
10	8356	801.225553203058	3
10	8382	804.8	8
10	8386	805.1	2
10	8395	805.804369589053	6
10	8403	806.211361891277	3
10	8408	806.514064217811	2
10	8415	807.022992958336	4
10	8421	807.432682592645	3
10	8428	807.942437381059	4
10	8436	808.348335471445	3
10	8441	808.653396589228	2
10	8446	808.960438453443	2
10	8452	809.369804724061	3
10	8457	809.676304090793	2
10	8466	810.18118674874	4
10	8488	814.4	4
10	8491	814.6	1
10	8501	815.402530527384	7
10	8508	815.903814812152	4
10	8531	818.5	5
10	8535	818.8	2
10	8539	819.002361641614	1
10	8547	819.602836065242	5
10	8552	819.910145928241	2
10	8559	820.214526169202	2
10	8580	824.3	3
10	8584	824.6	2
10	8590	825.001859147285	3
10	8595	825.307882465749	2
10	8601	825.711010222857	3
10	8624	828.5	5
10	8627	828.7	1
10	8633	829.10114058861	3
10	8639	829.50873297803	3
10	8644	829.813974678126	2
10	8669	832.7	7
10	8675	833.2	4
10	8680	833.50583831066	2
10	8685	833.807038973203	2
10	8693	834.209704982001	3
10	8699	834.617122668235	3
10	8719	838.2	2
10	8725	838.7	4
10	8732	839.206502313709	4
10	8736	839.41127056647	1
10	8741	839.716297254829	2
10	8767	842.8	8
10	8774	843.4	5
10	8780	843.80641824932	3
10	8786	844.006541857786	1
10	8793	844.508602532901	4
10	8801	845.109405476654	5
10	8805	845.31531653598	1
10	8813	845.921080265467	5
10	8820	846.131270385791	1
10	8842	850.4	4
10	8849	851	5
10	8856	851.500984319343	4
10	8865	852.003190127598	4
10	8874	852.614394657498	5
10	8880	853.019818831866	3
10	8886	853.42187383892	3
10	8893	853.82987073939	3
10	8903	854.432220587424	5
10	8924	858.3	3
10	8930	858.8	4
10	8936	859.208209913433	3
10	8942	859.515949362692	2
10	8948	859.923616633097	3
10	8969	862.3	3
10	8975	862.8	4
10	8979	863.009497097542	1
10	8989	863.817016132136	7
10	8998	864.322513169275	4
10	9004	864.731260243683	3
10	9025	868.3	3
10	9031	868.8	4
10	9041	869.606467258203	7
10	9046	869.908672788538	2
10	9055	870.411965096217	4
10	9064	871.12095787861	6
10	9086	874.4	4
10	9090	874.7	2
10	9100	875.408083315284	6
10	9104	875.616413981411	1
10	9114	876.222082468077	5
10	9124	876.930247236448	6
10	9151	880.9	9
10	9155	881.2	2
10	9164	881.907143751466	6
10	9173	882.414911805933	4
10	9178	882.719730806112	2
10	9202	886.6	6
10	9208	887.1	4
10	9213	887.409353569042	2
10	9220	887.909602963504	4
10	9244	890.6	6
10	9250	891.1	4
10	9257	891.601380683768	4
10	9261	891.805251377297	1
10	9268	892.106456099657	2
10	9273	892.412319309543	2
10	9280	892.913169024187	4
10	9302	896.4	4
10	9306	896.7	2
10	9312	897.105887823291	3
10	9320	897.712704218909	5
10	9324	897.914694997769	1
10	9345	900.3	3
10	9349	900.6	2
10	9356	901.108195103604	4
10	9363	901.61163631393	4
10	9372	902.114679240534	4
10	9379	902.621249650899	4
10	9386	903.034330668351	3
10	9394	903.644150563584	5
10	9402	904.049741327076	3
10	9409	904.554982902163	4
10	9416	905.061153952963	4
10	9422	905.465428062222	3
10	9445	908.5	5
10	9451	909	4
10	9458	909.509334737067	4
10	9462	909.7133208338	1
10	9466	909.91360338796	1
10	9477	910.616147874515	6
10	9497	914.2	2
10	9503	914.7	4
10	9507	914.901557623501	1
10	9513	915.302405639685	3
10	9520	915.805362086629	4
10	9528	916.206151551455	3
10	9532	916.413324053419	1
10	9536	916.617873070753	1
10	9543	917.122743166057	4
10	9547	917.327294128342	1
10	9568	920.3	3
10	9574	920.706957540027	3
10	9579	921.009561489593	2
10	9589	921.812328684039	7
10	9596	922.121691020445	2
10	9622	926.8	8
10	9629	927.4	5
10	9639	928.007043004264	5
10	9646	928.512786030964	4
10	9652	928.91753432223	3
10	9657	929.222056458635	2
10	9664	929.730011092103	4
10	9687	932.5	5
10	9691	932.8	2
10	9697	933.208413891752	3
10	9701	933.418076191541	1
10	9708	933.924787068526	4
10	9732	936.6	6
10	9735	936.8	1
10	9742	937.302295584233	4
10	9749	937.803023849419	4
10	9773	940.6	6
10	9781	941.3	6
10	9787	941.703309705187	3
10	9795	942.105839957843	3
10	9800	942.411877458518	2
10	9806	942.814634602685	3
10	9813	943.315581466446	4
10	9836	946.5	5
10	9842	947	4
10	9849	947.508072458615	4
10	9859	948.117601405864	5
10	9866	948.621154322624	4
10	9870	948.824954336769	1
10	9877	949.329903599029	4
10	9883	949.739779358518	3
10	9892	950.248646937925	4
10	9912	954.2	2
10	9917	954.6	3
10	9923	955.003318044836	3
10	9930	955.417908142934	3
10	9935	955.725237845776	2
10	9942	956.031287069809	2
10	9946	956.240513764316	1
10	9965	960.1	1
10	9972	960.603504948578	4
10	9980	961.213337775516	5
10	9985	961.517629735365	2
10	9989	961.723491029266	1
10	10001	962.531517512173	7
10	10022	966.3	3
10	10026	966.6	2
10	10031	966.906871860369	2
10	10035	967.110758423776	1
10	10041	967.516889395526	3
10	10051	968.126105326887	5
10	10056	968.429212198169	2
10	10061	968.730738436889	2
10	10082	972.3	3
10	10091	973.1	7
10	10097	973.506663324765	3
10	10106	974.009171094952	4
10	10110	974.211809525943	1
10	10115	974.513383918494	2
10	10119	974.720437463427	1
10	10142	978.5	5
10	10150	979.10270413178	5
10	10158	979.704761542056	5
10	10166	980.109506418232	3
10	10172	980.516415390057	3
10	10178	980.922001428051	3
10	10184	981.326081760661	3
10	10191	981.734219271595	3
10	10200	982.242653848536	4
10	10221	986.5	5
10	10227	987	4
10	10233	987.400016275034	3
10	10239	987.800840644105	3
10	10248	988.301368011815	4
10	10253	988.609005623309	2
10	10263	989.416398700431	7
10	10270	989.920032632324	4
10	10281	990.628292962278	6
10	10286	990.834369129475	1
10	10304	994	0
10	10310	994.5	4
10	10318	995.104487736218	5
10	10324	995.504556664153	3
10	10345	998.3	3
10	10348	998.5	1
10	10352	998.704688812929	1
10	10359	999.213416910848	4
10	10363	999.421727360497	1
10	10367	999.623282367957	1
10	10372	999.929961282259	2
10	10380	1000.335303121232	3
10	10384	1000.537920261746	1
10	10393	1001.240504092342	6
10	10413	1004.2	2
10	10419	1004.7	4
10	10428	1005.408821012405	6
10	10432	1005.609228166012	1
10	10441	1006.118804445921	4
10	10445	1006.323370472553	1
10	10454	1007.025582425381	6
10	10477	1010.5	5
10	10482	1010.804990815015	2
10	10486	1011.009770494501	1
10	10491	1011.319027038076	2
10	10496	1011.621601260159	2
10	10501	1011.923191060839	2
10	10511	1012.532655479131	5
10	10536	1016.7	7
10	10540	1017	2
10	10550	1017.80619640947	7
10	10557	1018.116158732123	2
10	10579	1022.4	4
10	10582	1022.6	1
10	10587	1022.903749102496	2
10	10592	1023.20390011829	2
10	10597	1023.512258496516	2
10	10602	1023.816975460337	2
10	10609	1024.030524236713	1
10	10614	1024.338489116697	2
10	10636	1028.4	4
10	10642	1028.9	4
10	10647	1029.207349374715	2
10	10654	1029.713941991018	4
10	10663	1030.221073269665	4
10	10670	1030.729622238504	4
10	10674	1030.939226112947	1
10	10678	1031.142749532225	1
10	10683	1031.450062852132	2
10	10703	1034.4	4
10	10710	1035	5
10	10716	1035.407719443214	3
10	10723	1035.914539366813	4
10	10731	1036.321368486645	3
10	10752	1040.3	3
10	10756	1040.6	2
10	10762	1041.003818892289	3
10	10769	1041.507037347843	4
10	10779	1042.111025106663	5
10	10801	1046.4	4
10	10806	1046.8	3
10	10811	1047.108890488559	2
10	10816	1047.413124335151	2
10	10821	1047.719699086506	2
10	10843	1050.4	4
10	10848	1050.8	3
10	10853	1051.100688363108	2
10	10860	1051.51110229654	3
10	10870	1052.115164918741	5
10	10875	1052.423012414411	2
10	10881	1052.832256455432	3
10	10887	1053.237049820228	3
10	10892	1053.538695880149	2
10	10902	1054.14167127839	5
10	10910	1054.74441918386	5
10	10917	1055.249252119088	4
10	10924	1055.752745067521	4
10	10932	1056.15667397804	3
10	10953	1060.3	3
10	10960	1060.9	5
10	10967	1061.401889696675	4
10	10977	1062.002835861071	5
10	10984	1062.507202783114	4
10	10991	1063.012247878737	4
10	10995	1063.219511951974	1
10	11001	1063.62128961998	3
10	11010	1064.124442348612	4
10	11034	1068.6	6
10	11039	1069	3
10	11046	1069.508851907893	4
10	11059	1070.409681575653	8