version 2
run Join-81-20130429-12:54:48-17679
attr configname Join
attr datetime 20130429-12:54:48
attr experiment "\"Join\""
attr inifile omnetpp.ini
attr iterationvars $0=8192
attr iterationvars2 "$0=8192, $repetition=1"
attr measurement $0=8192
attr network Network
attr processid 17679
attr repetition 1
attr replication #1
attr resultdir results
attr runnumber 81
attr seedset 81

vector 81  Network.dyn_peer[0]  lookupHopsSig:vector  ETV
81	22251	20.205926566526	7
81	22267	21.610859479195	13
81	22335	27.619833593923	59
81	22350	28.725067260631	10
81	22428	35.734091122611	69
81	22436	36.138537444071	3
81	22480	42.6	26
81	22501	44.4	17
81	22597	53.008107021669	85
81	22674	59.911441745247	68
81	22724	64.111899536907	41
81	22747	66.01385431838	18
81	22789	69.818300721426	37
81	22835	73.826170027474	39
81	22867	76.428659373486	25
81	22908	82.3	23
81	22962	87.2	48
81	22980	88.607030064649	13
81	23044	94.208716580899	55
81	23077	97.11685620182	28
81	23140	102.62490029885	54
81	23175	105.725320415022	30
81	23203	109.3	13
81	23242	112.7	33
81	23294	117.307434752434	45
81	23353	122.415886908771	50
81	23403	126.822313373059	43
81	23435	129.625660298308	27
81	23468	132.334891613719	26
81	23500	135.141646775309	27
81	23550	139.543876669818	43
81	23634	146.945836292141	73
81	23689	151.852561361795	48
81	23702	152.756746188479	8
81	23753	157.263775933494	44
81	23831	164.071454661483	67
81	23899	170.078038532146	59
81	24015	183	90
81	24052	186.2	31
81	24126	192.805123018294	65
81	24161	195.912769416661	30
81	24179	197.320296436368	13
81	24193	198.3259720456	9
81	24243	202.732701994099	43
81	24309	210.7	47
81	24362	215.5	47
81	24426	221.102761440554	55
81	24475	225.410380398791	42
81	24523	229.620056747702	41
81	24567	233.420072418747	37
81	24632	239.123353018574	56
81	24642	239.927811041748	7
81	24693	244.233372798283	42
81	24761	250.239397383584	59
81	24811	254.644740399865	43
81	24860	258.951048520572	42
81	24915	263.856566947429	48
81	25047	270.5	45
81	25213	278.3	77
81	25245	279.800670504372	14
81	25267	280.601012238152	7
81	25303	282.205022313899	15
81	25367	287.011442821278	47
81	25388	288.716225868359	16
81	25408	290.321440611952	15
81	25470	298	40
81	25524	302.9	48
81	25575	307.401780844926	44
81	25625	311.810077194701	43
81	25677	316.210692943736	43
81	25706	318.717871719483	24
81	25720	319.920737936741	11
81	25793	327.4	54
81	25807	328.5	10
81	25857	332.904829322567	43
81	25913	337.909815835609	49
81	25965	342.312307973297	43
81	26015	346.719701697016	43
81	26060	350.622904746448	38
81	26153	361.2	72
81	26177	363.3	20
81	26195	364.703605574353	13
81	26249	369.513265657441	47
81	26267	370.916626413929	13
81	26288	372.61893878124	16
81	26293	372.923371569873	2
81	26311	374.326874578655	13
81	26363	378.928079778267	45
81	26416	383.632591004952	46
81	26443	385.934970812525	22
81	26462	387.441898471179	14
81	26560	396.048245520555	85
81	26657	407.3	73
81	26733	414	66
81	26798	419.906136263739	58
81	26841	423.610945520773	36
81	26881	427.012455872361	33
81	26947	432.819075629763	57
81	26989	436.422105204817	35
81	27027	439.823057274296	33
81	27149	451.8	98
81	27195	455.9	40
81	27241	459.907754340777	39
81	27302	465.21451784755	52
81	27351	469.523755664209	42
81	27423	475.924802164971	63
81	27459	478.93241667865	29
81	27501	484.2	22
81	27537	487.5	32
81	27564	489.808681544477	22
81	27620	494.611800394039	47
81	27665	498.519556264203	38
81	27702	501.819888923334	32
81	27739	504.921191564808	30
81	27789	509.325601082109	43
81	27852	514.827541465526	54
81	27900	519.030978899346	41
81	28020	529.833710449323	107
81	28082	536	40
81	28186	545.5	94
81	28217	548.002879011898	24
81	28267	552.410513126253	43
81	28304	555.717674507118	32
81	28356	560.123002887711	43
81	28379	562.02337499893	18
81	28414	565.124195514898	30
81	28452	568.327577214694	31
81	28490	571.727761890489	33
81	28579	579.634425495321	78
81	28611	583.4	14
81	28638	585.8	23
81	28763	596.908182979163	110
81	28797	599.90940434155	29
81	28885	607.714669797066	77
81	28929	611.517244984593	37
81	28979	615.922590002803	43
81	29000	617.630680230263	16
81	29047	621.736186177044	40
81	29089	625.345955648124	35
81	29132	629.051386026134	36
81	29194	636.1	41
81	29228	639.2	30
81	29279	643.702732014469	44
81	29335	648.505854964919	47
81	29356	650.211009343442	16
81	29393	653.514247384028	32
81	29435	657.116984276367	35
81	29529	665.518378614129	83
81	29607	672.325720122279	67
81	29691	682.1	61
81	29760	688.3	61
81	29813	693.000929216914	46
81	29828	694.109263773184	10
81	29896	700.113798599385	59
81	29953	705.218326639288	50
81	30000	709.320786265606	40
81	30068	715.322693256461	59
81	30115	719.424467436987	40
81	30132	720.727034533239	12
81	30327	731.4	74
81	30534	741	95
81	30638	745.807884098393	47
81	30752	751.011075824947	51
81	30860	756.7	27
81	30875	757.4	6
81	30907	758.807811436865	13
81	30989	762.613927153239	37
81	31036	765.919221685584	32
81	31059	767.820588480203	18
81	31142	775.125555243698	72
81	31184	778.731397669656	35
81	31230	782.734238504621	39
81	31241	783.640394043901	8
81	31487	791.8	58
81	31614	795.8	39
81	31721	800.109269163638	42
81	31775	802.509949649385	23
81	31869	806.810350813319	42
81	32069	816.018960970754	91
81	32193	821.82678092813	57
81	32279	826.1	21
81	32306	827.4	12
81	32350	830.90259579631	34
81	32389	834.212176973428	32
81	32458	840.315020638293	60
81	32488	842.917534861719	25
81	32528	846.325326051603	33
81	32534	846.728525808209	3
81	32551	848.036734936726	12
81	32658	857.739536453741	96
81	32718	862.943905804864	51
81	32781	870.1	41
81	32812	872.9	27
81	32858	876.905466768257	39
81	32909	881.406180595922	44
81	32937	883.808440371077	23
81	32961	885.809612483345	19
81	33014	890.317621742012	44
81	33064	894.720538710602	43
81	33210	907.5	95
81	33263	912.1	45
81	33313	916.508563808079	43
81	33423	926.317705310471	97
81	33450	928.618700086322	22
81	33478	931.025747610294	23
81	33515	934.132589880349	30
81	33529	935.339058492372	11
81	33576	939.441348942429	40
81	33631	944.14755647766	46
81	33651	945.95641755614	17
81	33671	947.561323396712	15
81	33695	949.568238253229	19
81	33865	958.1	61
81	33898	959.7	15
81	33936	961.302038673486	15
81	34044	966.202187944012	48
81	34120	972.206540091824	59
81	34164	976.009538305978	37
81	34211	980.114470314938	40
81	34300	990.8	68
81	34406	1000.3	94
81	34455	1004.606301481318	42
81	34496	1008.113391937051	34
81	34530	1011.115318914159	29
81	34580	1015.516046101041	43
81	34648	1021.525437496416	59
81	34688	1024.933904218	33
81	34733	1028.834525804244	38
81	34772	1032.138122160301	32
81	34803	1034.842539836861	26
81	34855	1039.442541453574	45
81	34891	1042.446632701562	29
81	34949	1047.648502782469	51
81	35098	1062	120
81	35111	1063.2	11
81	35118	1063.708395673118	4
81	35195	1070.41213615559	66
81	35221	1072.614857392033	21
81	35264	1076.323137185311	36
81	35297	1079.224011584013	28
81	35375	1086.02440650718	67
81	35407	1088.831617297355	27
81	35452	1094.5	25
81	35471	1096.1	15
81	35543	1102.506386997101	63
81	35606	1108.010781069625	54
81	35652	1112.013411941827	39
81	35667	1113.317563615798	12
81	35738	1119.622156556731	62
81	35804	1125.43138361752	57
81	35898	1135.2	72
81	35935	1138.4	31
81	35967	1141.201670235176	27
81	36019	1145.809080997243	45
81	36097	1152.612913078759	67
81	36116	1154.121434553323	14
81	36168	1158.72147909121	45
81	36238	1164.927483927247	61
81	36269	1167.633694428617	26
81	36316	1171.740248882159	40
81	36363	1175.844047309473	40
81	36403	1179.248743274117	33
81	36455	1183.84903022375	45
81	36484	1186.158315674777	22
81	36517	1189.059726004412	28
81	36700	1198.9	69
81	36783	1202.7	37
81	36844	1205.503496550761	27
81	36888	1207.408294355046	18
81	36976	1211.516651445432	40
81	37063	1215.417461168859	38
81	37183	1220.919120301331	54
81	37278	1225.224680181419	42
81	37348	1228.42587879465	31
81	37480	1234.534003328369	60
81	37549	1238.834298727288	42
81	37581	1241.639146055652	27
81	37630	1245.946114216463	42
81	37689	1251.054991690118	50
81	37833	1259.1	51
81	37891	1261.8	26
81	37987	1269.705394832401	78
81	38051	1275.311866130921	55
81	38106	1280.0125355565	46
81	38166	1285.416654160151	53
81	38239	1291.924983102132	64
81	38270	1294.433128130948	24
81	38282	1295.44247808217	9
81	38328	1300.6	26
81	38355	1303	23
81	38384	1305.509583307078	24
81	38399	1306.616544183038	10
81	38417	1308.019528203072	13
81	38499	1315.423310184942	73
81	38587	1323.224820502649	77
81	38672	1330.729452278306	74
81	38752	1337.934814175888	71
81	38817	1343.639425845068	56
81	38930	1354.7	87
81	38969	1358.1	33
81	39018	1362.409236409603	42
81	39087	1368.514070397759	60
81	39169	1375.917720455517	73
81	39201	1378.523316591057	25
81	39269	1384.529117124777	59
81	39333	1389.3	13
81	39360	1390.5	11
81	39444	1394.405480109641	38
81	39496	1396.711124995494	22
81	39608	1401.921039722777	51
81	39634	1403.022318300063	10
81	39722	1408.22243490818	51
81	39794	1414.63157076102	63
81	39838	1418.437975383885	37
81	39888	1425.2	32
81	39928	1428.7	34
81	39986	1433.900433067507	51
81	40029	1437.604311003347	36
81	40075	1441.607580918105	39
81	40134	1446.711980620768	50
81	40179	1450.614505619784	38
81	40243	1458.5	45
81	40278	1461.7	31
81	40293	1462.805615170705	10
81	40355	1468.213905497491	53
81	40378	1470.113942438009	18
81	40419	1473.822948902366	36
81	40483	1479.431331598102	55
81	40522	1482.734180194521	32
81	40576	1487.535260625707	47
81	40631	1492.23705500241	46
81	40676	1496.143140995224	38
81	40724	1500.34611588016	41
81	40761	1503.651357858989	32
81	40799	1506.853934380014	31
81	40906	1516.356882351944	94
81	41024	1523.9	39
81	41039	1524.5	5
81	41120	1528.101253379974	35
81	41224	1532.904021057155	47
81	41304	1536.505456054859	35
81	41368	1539.511458779004	29
81	41410	1541.416072619709	18
81	41515	1547.6	36
81	41534	1549.2	15
81	41570	1552.201502802353	29
81	41592	1554.001598756296	17
81	41625	1556.904205352688	28
81	41706	1564.009516797392	70
81	41756	1568.417486206081	43
81	41801	1572.323967369606	38
81	41859	1577.528578730686	51
81	41907	1581.731345943901	41
81	41991	1589.137757254763	73
81	42049	1594.141772570478	49
81	42145	1605.2	72
81	42180	1608.2	29
81	42210	1610.801104466845	25
81	42257	1614.901503912401	40
81	42312	1619.808313167045	48
81	42356	1623.615432227511	37
81	42386	1626.022022369833	23
81	42420	1629.027207110352	29
81	42490	1637	50
81	42505	1638.2	11
81	42522	1639.708602668652	14
81	42547	1641.812300961715	20
81	42589	1645.422217335874	35
81	42601	1646.22285427894	7
81	42662	1651.730457785185	54
81	42719	1656.634578502156	48
81	42768	1660.938389847498	42
81	42852	1668.347480607361	73
81	42899	1672.454719211172	40
81	42974	1681.5	55
81	43027	1686.1	45
81	43063	1689.300819044839	31
81	43141	1696.106852559926	67
81	43170	1698.607985731928	24
81	43218	1702.81113208684	41
81	43262	1706.615477128961	37
81	43291	1709.11785668301	24
81	43382	1717.218389560741	80
81	43441	1722.31901336638	50
81	43612	1732.3	63
81	43641	1733.7	13
81	43675	1735.205353731128	14
81	43713	1736.809655746281	15
81	43760	1738.919548069626	20
81	43786	1740.028918656223	10
81	43814	1741.234407567659	11
81	43962	1749	50
81	44014	1753.7	46
81	44059	1757.603132578635	38
81	44111	1762.007314957	43
81	44192	1769.30912906143	72
81	44226	1772.112780389314	27
81	44277	1776.618523926903	44
81	44329	1781.226084418059	45
81	44364	1784.128136788326	28
81	44390	1786.331483469401	21
81	44438	1790.533149958278	41
81	44491	1797.4	34
81	44501	1798.1	6
81	44530	1800.601645394363	24
81	44540	1801.404591909099	7
81	44639	1810.104883260018	86
81	44658	1811.812174555118	16
81	44725	1817.713324731701	58
81	44763	1820.92110200696	31
81	44769	1821.323848882905	3
81	44795	1823.532620935869	21
81	44835	1826.942030175941	33
81	44926	1836.9	69
81	44936	1837.8	8
81	44966	1840.201433074399	23
81	44979	1841.303370855244	10
81	45000	1843.005031555013	16
81	45023	1844.907424011425	18
81	45071	1849.115264542613	41
81	45190	1861.6	96
81	45255	1867.4	57
81	45362	1876.903408854347	94
81	45413	1881.410174639424	44
81	45483	1887.617828088981	61
81	45551	1893.61870507574	59
81	45625	1900.021077143364	63
81	45673	1904.221922067795	41
81	45733	1909.624946088828	53
81	45851	1921.4	94
81	45894	1925.2	37
81	45967	1931.709337381143	64
81	45998	1934.217864842319	24
81	46011	1935.325058042497	10
81	46046	1938.227412942586	28
81	46128	1945.634470514215	73
81	46166	1948.84124508962	31
81	46245	1955.942987304774	70
81	46272	1958.04662056713	20
81	46280	1958.64703001096	5
81	46304	1960.653151551802	19
81	46381	1967.561245236164	68
81	46456	1974.0706997829	64
81	46525	1982.8	48
81	46574	1987.2	43
81	46622	1991.403915249598	41
81	46642	1993.011874272054	15
81	46666	1995.017824675397	19
81	46699	1997.926004090623	28
81	46819	2009.4	94
81	46927	2019.1	96
81	47051	2030.104453828327	109
81	47156	2039.613167221577	94
81	47220	2045.214582181345	55
81	47326	2056	80
81	47372	2060.1	40
81	47427	2065.003223260957	48
81	47464	2068.10485726508	30
81	47524	2073.506912967936	53
81	47581	2078.412355840283	48
81	47630	2082.716691512488	42
81	47654	2084.722860338736	19
81	47680	2086.922986539757	21
81	47706	2089.129273253382	21
81	47733	2091.435541759571	22
81	47757	2093.445287930979	19
81	47776	2094.947526616372	14
81	47847	2103.1	51
81	47907	2108.4	52
81	48003	2117.000568013219	85
81	48054	2121.503419546312	44
81	48074	2123.103958404508	15
81	48187	2129.6	36
81	48296	2134.7	50
81	48363	2137.80966066597	30
81	48416	2142.316442456806	44
81	48486	2148.517822162554	61
81	48532	2152.52189327643	39
81	48597	2160.3	43
81	48630	2163.3	29
81	48645	2164.404595048604	10
81	48678	2167.308639168915	28
81	48703	2169.412993137327	20
81	48723	2171.014546933244	15
81	48739	2172.219019349569	11
81	48823	2182.3	63
81	48878	2187.3	49
81	48913	2190.201768104201	28
81	48941	2192.610098422642	23
81	48963	2194.415955680599	17
81	49006	2198.122640975801	36
81	49058	2202.732033252549	45
81	49183	2216	100
81	49202	2217.8	17
81	49235	2220.502984079709	26
81	49290	2225.408922372802	48
81	49319	2227.913932473449	24
81	49338	2229.421776277724	14
81	49439	2238.328612802667	88
81	49470	2241.037674575196	26
81	49476	2241.439434055438	3
81	49499	2243.341641267369	18
81	49528	2245.843767694699	24
81	49553	2247.94742649921	20
81	49564	2248.653080668107	6
81	49634	2256.9	49
81	49650	2258.2	12
81	49675	2260.305306645249	20
81	49700	2262.406352597716	20
81	49735	2265.51043692374	30
81	49746	2266.216029931298	6
81	49819	2272.725879029445	64
81	49828	2273.429722681787	6
81	49887	2278.538040722374	50
81	50005	2291.2	92
81	50013	2291.9	6
81	50056	2295.608109778813	36
81	50087	2298.116921497327	24
81	50117	2300.719051306401	25
81	50141	2302.720788984936	19
81	50206	2308.424516930905	56
81	50276	2314.627026393982	61
81	50344	2320.628318727626	59
81	50417	2327.131105079871	64
81	50449	2329.939650517314	27
81	50506	2334.842446494003	48
81	50579	2341.346937170117	64
81	50687	2347.4	34
81	50718	2348.8	13
81	50816	2353.308553928581	44
81	50941	2359.015516753878	56
81	51043	2363.72249655193	46
81	51118	2368.527192986333	47
81	51209	2376.633062588845	80
81	51223	2377.840400113845	11
81	51282	2382.94573271163	50
81	51303	2384.651817015085	16
81	51376	2391.16070177972	64
81	51449	2397.667384762083	64
81	51567	2406.5	65
81	51630	2412.1	55
81	51668	2415.508572747637	33
81	51726	2420.513231362683	49
81	51780	2425.322843293721	47
81	51815	2428.227589170938	28
81	51853	2431.628885671941	33
81	51897	2435.435340255622	37
81	51912	2436.54230072831	10
81	51954	2440.143223985086	35
81	51987	2443.048230747489	28
81	52055	2449.056439565247	59
81	52113	2454.05714401025	49
81	52185	2460.463904066103	63
81	52298	2472.7	87
81	52341	2476.5	37
81	52384	2480.203962633183	36
81	52421	2483.509269860157	32
81	52513	2491.71915001815	81
81	52530	2493.027086204044	12
81	52536	2493.436327489011	3
81	52575	2496.736579764831	32
81	52619	2500.545048473278	37
81	52628	2501.253999892602	6
81	52645	2502.555366847657	12
81	52707	2510.1	41
81	52743	2513.4	32
81	52769	2515.60466746211	21
81	52833	2521.206840316364	55
81	52900	2527.107352958528	58
81	53004	2536.307610501115	91
81	53063	2541.611443757641	52
81	53131	2547.617119278444	59
81	53219	2555.423007714834	77
81	53290	2561.73088747759	62
81	53343	2566.230983341472	44
81	53410	2572.133291767359	58
81	53449	2575.635628145461	34
81	53546	2584.140475744985	84
81	53654	2593.4	54
81	53735	2600.6	71
81	53780	2604.504103180796	38
81	53852	2610.91025804904	63
81	53872	2612.51497714887	15
81	53905	2615.418033220452	28
81	53977	2621.822758002442	63
81	54026	2627.2	32
81	54059	2630	27
81	54080	2631.905898064188	18
81	54102	2633.708889324298	17
81	54138	2636.715919368	29
81	54180	2640.322053747005	35
81	54229	2644.62762191772	42
81	54272	2648.328564655575	36
81	54322	2652.73001185567	43
81	54366	2656.539341297288	37
81	54398	2659.341869512757	27
81	54444	2663.350651286938	39
81	54552	2669.4	34
81	54629	2672.8	33
81	54797	2680.501207343968	76
81	54879	2684.210463312097	36
81	55033	2691.41823105719	71
81	55115	2695.121089610898	36
81	55178	2698.922224704935	37
81	55218	2702.323813064975	33
81	55462	2711.9	59
81	55591	2717.8	58
81	55747	2725.002979373433	71
81	55873	2730.812643845523	57
81	55953	2734.522467866476	36
81	56039	2738.332416423113	37
81	56195	2745.538656044039	71
81	56239	2747.54679143988	19
81	56311	2751.252572212463	36
81	56444	2758.5	45
81	56509	2761.6	30
81	56571	2765.602176535327	39
81	56612	2769.111909132923	34
81	56691	2776.013065406984	68
81	56717	2778.217624137363	21
81	56795	2785.222868563254	69
81	56933	2799.3	113
81	56973	2802.8	34
81	57015	2806.403852847574	35
81	57053	2809.812450641555	33
81	57091	2813.02028582806	31
81	57134	2816.726018099877	36
81	57164	2819.327368273817	25
81	57211	2823.427811736255	40
81	57246	2826.328197531858	28
81	57273	2828.632798768614	22
81	57284	2829.541243857426	8
81	57356	2835.948429571491	63
81	57447	2844.7	67
81	57481	2847.8	30
81	57506	2849.905984304591	20
81	57550	2853.708852601334	37
81	57570	2855.313850025258	15
81	57662	2863.521703144752	81
81	57710	2867.729476623258	41
81	57770	2874.1	41
81	57816	2878.2	40
81	57840	2880.20442943064	19
81	57880	2883.807973120326	35
81	57966	2891.413840214136	75
81	58043	2898.120276153873	66
81	58114	2904.423690736068	62
81	58123	2905.131043306498	6
81	58198	2913.3	53
81	58261	2918.9	55
81	58320	2924.006892058888	50
81	58363	2927.911315895525	38
81	58438	2934.411375629421	64
81	58454	2935.819637511741	13
81	58515	2941.12567843741	52
81	58578	2948.4	44
81	58585	2949	5
81	58613	2951.4002877878	23
81	58671	2956.400689098904	49
81	58680	2957.110033937836	6
81	58737	2962.015240807406	48
81	58798	2967.523594280759	54
81	58812	2968.524361432251	9
81	58863	2973.02776635072	44
81	58930	2980.5	45
81	58954	2982.6	20
81	58975	2984.305919353759	16
81	59074	2993.214470132828	88
81	59122	2997.418795127338	41
81	59214	3005.623971471095	81
81	59252	3008.82904361231	31
81	59327	3015.538734560238	66
81	59488	3025.7	77
81	59534	3029.8	40
81	59636	3038.802896649192	89
81	59681	3042.705374607392	38
81	59709	3045.112768151535	23
81	59760	3049.618312662244	44
81	59803	3053.326128749172	36
81	59848	3057.23025188747	38
81	59899	3061.732291141547	44
81	59933	3064.536548848046	27
81	60159	3081	130
81	60177	3082.5	14
81	60199	3084.304660708797	17
81	60253	3089.109197339007	47
81	60288	3092.01696922862	28
81	60336	3096.21793947228	41
81	60344	3096.822379667174	5
81	60440	3107.5	75
81	60471	3110.1	25
81	60494	3112.004677469504	18
81	60502	3112.611836025202	5
81	60510	3113.219122924277	5
81	60519	3113.927325651092	6
81	60552	3116.628386156182	26
81	60599	3120.735972226956	40
81	60607	3121.341077302056	5
81	60614	3121.846898446618	4
81	60650	3124.853431427713	29
81	60655	3125.159371870869	2
81	60690	3128.064709906649	28
81	60721	3133.3	13
81	60771	3137.8	44
81	60808	3140.906737792249	30
81	60890	3148.116515285525	71
81	60937	3152.22092222295	40
81	60978	3155.922393785291	36
81	61016	3159.13116611839	31
81	61042	3161.336204498784	21
81	61084	3164.942873658725	35
81	61132	3169.14901496399	41
81	61214	3178	60
81	61243	3180.6	25
81	61293	3185.000224432968	43
81	61408	3195.301924022766	102
81	61448	3198.706965022256	33
81	61498	3203.109347677748	43
81	61538	3206.513701061688	33
81	61700	3221.115926189546	145
81	61812	3232.6	86
81	61855	3236.4	37
81	61909	3241.205092887247	47
81	62003	3249.612793068049	83
81	62079	3256.216734595055	65
81	62150	3262.517959585942	62
81	62206	3267.522688498268	49
81	62251	3272.8	28
81	62303	3277.5	46
81	62367	3283.105873759142	55
81	62380	3284.008168621584	8
81	62397	3285.508368680767	14
81	62432	3288.409173889794	28
81	62467	3291.510055872549	30
81	62478	3292.218834201283	6
81	62530	3296.82177764783	45
81	62663	3304.5	45
81	62732	3307.7	31
81	62846	3312.802850851723	50
81	62938	3317.011199237498	41
81	63006	3320.116607062652	30
81	63082	3323.625220314097	34
81	63160	3327.228688622508	35
81	63321	3334.637961022089	73
81	63426	3339.447124026279	47
81	63516	3343.65119563022	41
81	63643	3350.159752539431	64
81	63808	3363.5	95
81	63862	3368.2	46
81	63896	3371.202050812828	29
81	63939	3374.903148206338	36
81	63981	3378.506408106827	35
81	64037	3383.512093585883	49
81	64123	3391.113666413647	75
81	64208	3398.618949074297	74
81	64285	3407.5	55
81	64319	3410.4	28
81	64368	3414.703330234191	42
81	64447	3421.80857055575	70
81	64554	3431.315710459226	94
81	64637	3438.617719748665	72
81	64717	3445.818960899782	71
81	64776	3450.927805119202	50
81	64851	3457.628672770008	66
81	65000	3472.1	121
81	65011	3473.1	9
81	65041	3475.701157464866	25
81	65056	3476.805965337261	10
81	65085	3479.314505373231	24
81	65137	3483.924391480577	45
81	65204	3489.826473783401	58
81	65234	3492.233150126384	23
81	65285	3496.735802104328	44
81	65334	3501.0449374544	42
81	65359	3503.15079862956	20
81	65404	3507.052052413288	38
81	65651	3516	60
81	65899	3524	79
81	66015	3529.404888184317	53
81	66135	3536.713370633509	72
81	66177	3540.316519357	35
81	66251	3546.923378998748	65
81	66281	3549.530774411467	25
81	66349	3555.537363664469	59
81	66425	3562.13739365621	65
81	66448	3564.04036893336	18
81	66531	3571.549426776456	74
81	66563	3574.151666556677	25
81	66653	3582.152602832816	79
81	66683	3584.760228219486	25
81	66731	3590.8	28
81	66740	3591.6	7
81	66752	3592.400767779904	7
81	66816	3598.004885283477	55
81	66890	3604.609950704885	65
81	66938	3608.809956921083	41
81	67031	3617.110253200938	82
81	67074	3620.810674374345	36
81	67193	3631.519214629302	106
81	67262	3637.622398570698	60
81	67364	3646.625505084515	89
81	67463	3655.526498480519	88
81	67519	3661.7	37
81	67578	3666.9	51
81	67601	3668.806828529986	18
81	67611	3669.61247146683	7
81	67679	3675.616263863991	59
81	67727	3679.818025558515	41
81	67795	3685.827457450403	59
81	67845	3690.030483962959	41
81	67897	3694.634311602071	45
81	67967	3700.840368042245	61
81	68037	3709	50
81	68075	3712.3	32
81	68121	3716.301651328033	39
81	68159	3719.709880210006	33
81	68211	3724.119338262673	43
81	68284	3730.62670807516	64
81	68337	3735.336632996187	46
81	68387	3739.743827081152	43
81	68438	3744.05268469477	42
81	68454	3745.458142958312	13
81	68567	3756.9	89
81	68609	3760.6	36
81	68680	3766.909337239817	62
81	68721	3770.411506909518	34
81	68765	3774.218891644072	37
81	68865	3783.221923186682	89
81	68965	3792.031697826318	87
81	69050	3799.734887416686	76
81	69149	3808.437117808947	86
81	69218	3814.542045486026	60
81	69369	3821	30
81	69450	3823.6	25
81	69489	3824.701194840923	10
81	69558	3826.810147425378	20
81	69643	3829.415339030639	25
81	69738	3833.521742062977	40
81	69804	3836.425769405181	28
81	69978	3845.9	59
81	70098	3852	60
81	70151	3856.707624382763	46
81	70197	3860.7153795183	39
81	70243	3864.725294749968	39
81	70298	3869.626561951223	48
81	70388	3877.630324754652	79
81	70450	3883.038231966916	53
81	70486	3886.045399475429	29
81	70535	3890.351074925156	42
81	70586	3894.858437274908	44
81	70660	3901.463969811742	65
81	70698	3904.672371200079	31
81	70776	3911.67437838691	69
81	70792	3912.880434712287	11
81	70908	3920.1	41
81	70949	3923.9	37
81	70977	3926.108759221974	21
81	70993	3927.516719676297	13
81	71020	3929.82449573865	22
81	71035	3930.927502110112	10
81	71139	3940.128902702618	91
81	71166	3942.429048337347	22
81	71227	3947.929360863014	54
81	71317	3952.5	25
81	71340	3953.6	10
81	71420	3957.200162750931	35
81	71611	3966.001804718553	87
81	71646	3969.102394486925	30
81	71663	3970.403204285407	12
81	71707	3974.207044513151	37
81	71782	3980.915940627518	66
81	71855	3987.418022811044	64
81	71934	3994.319554935529	68
81	72039	4003.822049475429	94
81	72133	4012.02837669112	81
81	72223	4020.038224799893	79
81	72280	4027.8	38
81	72313	4030.6	27
81	72354	4034.109176472944	34
81	72372	4035.71586491807	15
81	72434	4041.122827533093	53
81	72466	4043.923046258183	27
81	72546	4050.932321392351	69
81	72580	4053.936810235755	29
81	72618	4057.138094667134	31
81	72681	4062.647052560344	54
81	72747	4068.454095872738	57
81	72762	4069.764077326629	12
81	72837	4076.269829714134	64
81	72881	4082.4	24
81	72945	4088.1	56
81	72979	4091.109287258035	29
81	73028	4095.419138825025	42
81	73087	4100.523356669688	50
81	73131	4104.329405778535	37
81	73169	4107.734388875484	33
81	73220	4112.040311463123	42
81	73256	4115.242659755048	31
81	73298	4118.844587923911	35
81	73353	4123.753598063984	48
81	73440	4131.454570994079	76
81	73562	4138	40
81	73667	4142.9	48
81	73835	4150.707688387702	77
81	73921	4154.61208103415	38
81	73975	4157.015679253327	23
81	74026	4161.122622946287	40
81	74089	4166.626826798459	54
81	74125	4169.835834998867	31
81	74284	4177.7	57
81	74375	4181.9	41
81	74411	4183.401465903755	14
81	74445	4184.909896262978	14
81	74575	4190.91514927153	59
81	74615	4192.618010710375	16
81	74651	4194.218343693669	15
81	74780	4207	90
81	74795	4208.2	11
81	74836	4211.909269800933	36
81	74875	4215.216996938932	32
81	74916	4218.718946094574	34
81	74957	4222.225089482919	34
81	74991	4225.227292560751	29
81	75050	4232	40
81	75057	4232.6	5
81	75107	4237.003314864598	43
81	75179	4243.405247217111	63
81	75229	4247.813103599235	43
81	75253	4249.814519074886	19
81	75288	4252.719244027166	28
81	75334	4258.6	26
81	75429	4267.2	85
81	75464	4270.107390064366	28
81	75584	4280.916088563624	107
81	75666	4288.121990169499	71
81	75757	4294.5	25
81	75872	4299.9	53
81	75938	4302.809108494748	28
81	76100	4310.314487379532	74
81	76149	4314.623852710203	42
81	76207	4319.825126469459	51
81	76261	4324.426511755683	45
81	76304	4328.131564656705	36
81	76346	4331.931893562184	37
81	76414	4337.935825027456	59
81	76448	4340.741936819004	27
81	76504	4345.747858222893	49
81	76528	4347.749598987379	19
81	76639	4357.655274524848	98
81	76665	4360.8	8
81	76748	4368.2	73
81	76780	4371.004954070725	27
81	76802	4372.814499163698	17
81	76888	4380.42430370253	75
81	76925	4383.729241967242	32
81	76945	4385.331621806697	15
81	76991	4389.341223255964	39
81	77019	4391.749259114291	23
81	77051	4394.349373943922	25
81	77161	4401.5	35
81	77331	4409.4	78
81	77367	4411.00441083807	15
81	77485	4416.30972534046	52
81	77549	4419.314994541985	29
81	77681	4428.219259531447	88
81	77700	4429.923550515156	16
81	77774	4436.332726364552	63
81	77875	4445.441380379145	90
81	77945	4451.651216928633	61
81	77970	4453.760433664463	20
81	78023	4459.3	33
81	78088	4465.1	57
81	78156	4471.107591437909	59
81	78223	4477.010738668893	58
81	78264	4480.518834381703	34
81	78330	4486.321474929578	57
81	78378	4490.524201620391	41
81	78424	4496.6	26
81	78455	4499.4	27
81	78531	4506.009155951498	65
81	78562	4508.709895745615	26
81	78575	4509.810204464296	10
81	78607	4512.414889797508	25
81	78639	4515.218658752956	27
81	78666	4517.522481248902	22
81	78700	4520.328713734289	27
81	78715	4521.63213629376	12
81	78767	4527.2	32
81	78877	4537.1	98
81	78907	4539.706767415921	25
81	78953	4543.71511820801	39
81	78992	4547.017073877576	32
81	79045	4551.720801720189	46
81	79101	4556.530648163699	47
81	79134	4559.439283210833	28
81	79191	4564.339566417541	48
81	79235	4568.144075140172	37
81	79283	4574.9	29
81	79314	4577.7	27
81	79346	4580.302681716103	25
81	79371	4582.406424612081	20
81	79415	4586.211072663897	37
81	79460	4590.114362775568	38
81	79508	4594.315430949173	41
81	79607	4605.8	78
81	79627	4607.5	16
81	79662	4610.406474147196	28
81	79718	4615.410181625265	49
81	79758	4618.81819662394	33
81	79801	4622.52140604068	36
81	79826	4624.622393904036	20
81	79858	4627.427963596099	27
81	79900	4631.035526619051	35
81	79944	4634.838546323976	37
81	79967	4636.747688738209	18
81	80072	4643.3	33
81	80234	4650.7	73
81	80304	4653.902573187197	31
81	80340	4655.403533384724	14
81	80406	4659.31091879587	38
81	80492	4666.911760570868	75
81	80531	4670.215380361119	32
81	80566	4673.324496154768	30
81	80638	4679.727388102739	63
81	80669	4682.229802728703	24
81	80677	4682.839100517039	5
81	80743	4688.639333675231	57
81	80794	4693.140501744059	44
81	80857	4698.650204874219	54
81	80933	4705.457237960014	67
81	81070	4718.9	109
81	81114	4722.8	38
81	81205	4730.90169621638	80
81	81227	4732.701760575361	17
81	81298	4739.008255914782	62
81	81341	4742.713513792552	36
81	81385	4746.520909805308	37
81	81428	4750.229451278022	36
81	81540	4758.6	46
81	81565	4760.8	21
81	81681	4771.20069108911	103
81	81727	4775.210173540603	39
81	81774	4779.312393828009	40
81	81808	4782.120104814176	27
81	81883	4788.82734263925	66
81	81932	4793.135994660322	42
81	82012	4800.136209946329	69
81	82085	4809.1	51
81	82159	4815.8	66
81	82172	4816.709439331067	8
81	82243	4823.01406570106	62
81	82302	4828.120361222023	50
81	82364	4833.721677919888	55
81	82404	4837.12351248815	33
81	82456	4841.725758424962	45
81	82511	4847.7	37
81	82561	4852	42
81	82619	4857.203559700353	51
81	82682	4862.709989113944	54
81	82765	4870.011168217792	72
81	82801	4873.217615214444	31
81	82846	4877.121134550845	38
81	82886	4880.52734338306	33
81	82930	4884.328482016018	37
81	83031	4895.7	77
81	83055	4897.8	20
81	83066	4898.509425894513	6
81	83087	4900.211993467525	16
81	83106	4901.915167779327	16
81	83138	4904.51803692003	25
81	83198	4909.91816315243	53
81	83239	4914.1	21
81	83276	4917.5	33
81	83315	4920.804600573817	32
81	83364	4925.109895053786	42
81	83395	4927.817771831798	26
81	83420	4929.924617108263	20
81	83464	4933.726985457542	37
81	83513	4939.2	32
81	83530	4940.6	13
81	83544	4941.804797272025	11
81	83565	4943.511966044536	16