file 253242 1369674126                                          
version 2
run Join-54-20130429-12:51:05-17679
attr configname Join
attr datetime 20130429-12:51:05
attr experiment "\"Join\""
attr inifile omnetpp.ini
attr iterationvars $0=1024
attr iterationvars2 "$0=1024, $repetition=4"
attr measurement $0=1024
attr network Network
attr processid 17679
attr repetition 4
attr replication #4
attr resultdir results
attr runnumber 54
attr seedset 54
vector 54  Network.dyn_peer[0]  lookupHopsSig:vector  ETV
54	444 252798 3093 182652 20.803269403974 15831.126820922024 9075 1 48 119832 2067032
