version 2
run Join-26-20130429-12:49:54-17679
attr configname Join
attr datetime 20130429-12:49:54
attr experiment "\"Join\""
attr inifile omnetpp.ini
attr iterationvars $0=128
attr iterationvars2 "$0=128, $repetition=6"
attr measurement $0=128
attr network Network
attr processid 17679
attr repetition 6
attr replication #6
attr resultdir results
attr runnumber 26
attr seedset 26

vector 26  Network.dyn_peer[0]  lookupHopsSig:vector  ETV
26	579	20.6	6
26	585	21.1	4
26	592	21.601491931066	4
26	602	22.210924791047	5
26	614	23.2109851446	9
26	618	23.412923320687	1
26	630	24.213924811306	7
26	636	24.618490854171	3
26	640	24.823647095214	1
26	645	25.123685915744	2
26	662	26.429196144681	12
26	681	30.1	1
26	690	30.9	7
26	697	31.403046330709	4
26	711	32.411992656411	9
26	716	32.715738218335	2
26	723	33.216472130507	4
26	735	34.025052501988	7
26	744	34.728897512699	6
26	756	35.738360929493	9
26	769	36.641673185731	8
26	781	37.643578995935	9
26	786	37.951517130239	2
26	796	38.553956372663	5
26	802	38.956791853999	3
26	824	42.4	4
26	829	42.8	3
26	835	43.20882371915	3
26	844	43.908880332361	6
26	852	44.310487308792	3
26	856	44.519765246648	1
26	863	45.028478924112	4
26	868	45.330631632261	2
26	899	49.3	13
26	906	49.9	5
26	913	50.20686638239	2
26	918	50.514685857521	2
26	929	51.416443078323	8
26	943	52.418720609828	9
26	948	52.727594248361	2
26	957	53.427688782328	6
26	972	54.53142910576	10
26	980	55.139618542821	5
26	990	55.946838323239	7
26	1019	58	0
26	1028	58.8	7
26	1034	59.204220204302	3
26	1041	59.707193217498	4
26	1054	60.614076858255	8
26	1065	61.521901752305	8
26	1075	62.123215020623	5
26	1096	66.6	6
26	1104	67.3	6
26	1112	67.908520756096	5
26	1121	68.4183752077	4
26	1129	69.027436887349	5
26	1134	69.329795899174	2
26	1139	69.638513034807	2
26	1144	69.947917835171	2
26	1154	70.553206480663	5
26	1163	71.259911534945	6
26	1169	71.661711181733	3
26	1178	72.162964689519	4
26	1186	72.770291812011	5
26	1211	76.7	7
26	1218	77.3	5
26	1229	78.004652662372	6
26	1241	79.005420005241	9
26	1249	79.611603131416	5
26	1263	80.614712599025	9
26	1271	81.219302099342	5
26	1283	82.026945695874	7
26	1291	82.634319474142	5
26	1300	83.340605623066	6
26	1307	83.847938221977	4
26	1360	86.5	5
26	1377	87.2	6
26	1399	88.000197030778	7
26	1409	88.802212462834	7
26	1420	89.711486264696	8
26	1433	90.615958974096	8
26	1444	91.522253719102	8
26	1449	91.82542423088	2
26	1462	92.730529425897	8
26	1468	93.137002808478	3
26	1498	97.2	12
26	1502	97.5	2
26	1508	97.904726841824	3
26	1522	98.911915222925	9
26	1528	99.3191791973	3
26	1533	99.621926743566	2
26	1548	100.729903607651	10
26	1554	101.136009518411	3
26	1562	101.737168200407	5
26	1583	104.3	3
26	1595	105.4	10
26	1602	105.904713480644	4
26	1610	106.313787394134	3
26	1616	106.716048036178	3
26	1637	110.3	3
26	1643	110.8	4
26	1651	111.407829698151	5
26	1657	111.81390488298	3
26	1663	112.02250387548	1
26	1685	116.4	4
26	1692	117	5
26	1709	118.300535856126	12
26	1719	119.107068130387	7
26	1726	119.607334539703	4
26	1735	120.108052793593	4
26	1754	124.1	1
26	1762	124.8	6
26	1770	125.408463788628	5
26	1780	126.012060274106	5
26	1785	126.312689049534	2
26	1795	127.112977096109	7
26	1815	130.2	2
26	1819	130.5	2
26	1824	130.801999217392	2
26	1831	131.308117879376	4
26	1836	131.521580344562	1
26	1848	132.330505659463	7
26	1867	136.1	1
26	1871	136.4	2
26	1876	136.706525816454	2
26	1883	137.212425948653	4
26	1891	137.821620175935	5
26	1902	138.527861593657	6
26	1917	139.832360219827	12
26	1940	142.5	5
26	1943	142.7	1
26	1950	143.203414367414	4
26	1955	143.509290511135	2
26	1979	146.6	6
26	1985	147.1	4
26	1994	147.808218649507	6
26	2005	148.513318637402	6
26	2014	149.214000069296	6
26	2019	149.515486019639	2
26	2024	149.821359575575	2
26	2042	152.3	3
26	2048	152.8	4
26	2053	153.108068228967	2
26	2063	153.813322368049	6
26	2071	154.219884104401	3
26	2079	154.827235694933	5
26	2085	155.234137659853	3
26	2110	158.7	7
26	2118	159.4	6
26	2130	160.20362175645	7
26	2147	161.709955432567	14
26	2155	162.118937249486	3
26	2161	162.521076523135	3
26	2168	163.030639787083	4
26	2173	163.339447785475	2
26	2179	163.642683517057	2
26	2191	164.447214240582	7
26	2214	168.5	5
26	2223	169.3	7
26	2236	170.200098752232	8
26	2251	171.506067657835	12
26	2261	172.11022233452	5
26	2268	172.612380835526	4
26	2278	173.419178861982	7
26	2290	174.227290592882	7
26	2312	178.4	4
26	2315	178.6	1
26	2320	178.905334529846	2
26	2327	179.410061049914	4
26	2353	182.8	8
26	2362	183.6	7
26	2372	184.201073513869	5
26	2382	185.008813652666	7
26	2407	188.7	7
26	2418	189.7	9
26	2429	190.408294062693	6
26	2434	190.714039428417	2
26	2441	191.217051635302	4
26	2448	191.71841281541	4
26	2468	194.2	2
26	2479	195.2	9
26	2484	195.509705883392	2
26	2488	195.716834809902	1
26	2497	196.226817559325	4
26	2505	196.8323534176	5
26	2510	197.136327050157	2
26	2514	197.340849354459	1
26	2535	200.3	3
26	2540	200.605155607173	2
26	2544	200.805956410865	1
26	2552	201.410663221184	5
26	2563	202.117591497212	6
26	2574	203.020623581449	8
26	2583	203.726932857374	6
26	2607	206.6	6
26	2614	207.2	5
26	2628	208.204511123348	9
26	2636	208.81073494149	5
26	2640	209.01082661436	1
26	2662	212.4	4
26	2667	212.8	3
26	2676	213.501671372959	6
26	2681	213.808178578121	2
26	2693	214.613573541456	7
26	2702	215.313776032869	6
26	2709	215.819936114717	4
26	2732	218.5	5
26	2746	219.8	12
26	2758	220.603023483301	7
26	2764	221.012572863352	3
26	2769	221.316175577683	2
26	2775	221.721815348971	3
26	2790	222.825838901871	10
26	2813	226.5	5
26	2819	227	4
26	2833	228.004353062384	9
26	2843	228.804938411059	7
26	2855	229.813126199001	9
26	2866	230.515321395841	6
26	2878	231.522975643096	9
26	2884	231.92495034995	3
26	2895	232.633701303428	6
26	2902	233.136875668928	4
26	2947	236.3	3
26	2952	236.7	3
26	2959	237.203014882176	4
26	2964	237.507054267413	2
26	2973	238.008754026011	4
26	2996	242.5	5
26	3001	242.9	3
26	3008	243.404989550726	4
26	3020	244.208438598082	7
26	3027	244.715361559071	4
26	3033	245.116786444635	3
26	3037	245.320320222224	1
26	3048	246.022795742114	6
26	3058	246.831596275905	7
26	3080	250.6	6
26	3090	251.5	8
26	3101	252.202482998811	6
26	3117	253.609153022083	13
26	3121	253.815068777682	1
26	3133	254.62454205778	7
26	3143	255.426146032372	7
26	3150	255.928363436678	4
26	3182	259.4	14
26	3192	260.1	6
26	3203	261.004816416346	8
26	3212	261.706266409216	6
26	3219	262.014552970467	2
26	3225	262.423054141801	3
26	3230	262.72421382342	2
26	3240	263.527501585048	7
26	3253	264.427934122453	8
26	3283	268.2	2
26	3291	268.9	6
26	3300	269.604416715847	6
26	3315	270.711948977471	10
26	3321	271.117012595429	3
26	3344	274.5	5
26	3347	274.7	1
26	3354	275.206191345867	4
26	3366	276.014778896136	7
26	3375	276.716396086433	6
26	3385	277.519672649771	7
26	3397	278.324117399331	7
26	3402	278.632795243731	2
26	3408	279.039605045048	3
26	3419	279.941109932276	8
26	3442	282.5	5
26	3450	283.2	6
26	3463	284.101905373488	8
26	3473	284.905653991577	7
26	3481	285.511492565959	5
26	3494	286.420075406963	8
26	3499	286.7223172276	2
26	3511	287.730498309735	9
26	3524	288.634045242714	8
26	3533	289.33860798595	6
26	3541	289.946804749043	5
26	3551	290.548267662775	5
26	3558	291.057266266644	4
26	3582	294.6	6
26	3586	294.9	2
26	3593	295.405961082307	4
26	3599	295.815672209369	3
26	3609	296.420643224617	5
26	3622	297.521760460958	10
26	3627	297.830006165085	2
26	3658	301.3	13
26	3661	301.5	1
26	3667	301.907421035782	3
26	3674	302.209439394631	2
26	3681	302.713422711648	4
26	3686	303.021634580854	2
26	3691	303.323874016604	2
26	3707	304.524262068464	11
26	3731	308.6	6
26	3738	309.100970556268	4
26	3746	309.710398447867	5
26	3758	310.51298953147	7
26	3764	310.915287968396	3
26	3785	314.3	3
26	3790	314.7	3
26	3801	315.609498820321	8
26	3812	316.313763866943	6
26	3836	320.6	6
26	3842	321.1	4
26	3847	321.407801036548	2
26	3852	321.712742965656	2
26	3862	322.31423003191	5
26	3870	322.915496110207	5
26	3876	323.321796081674	3
26	3900	326.9	9
26	3909	327.7	7
26	3918	328.200276854441	4
26	3925	328.701796525195	4
26	3939	329.9068317993	11
26	3967	333	10
26	3977	333.9	8
26	3986	334.405902808695	4
26	3991	334.712022206764	2
26	3996	335.019758328021	2
26	4019	338.5	5
26	4023	338.8	2
26	4033	339.60088684	7
26	4044	340.307180814446	6
26	4052	340.913942430208	5
26	4060	341.51599469348	5
26	4069	342.017948477432	4
26	4101	347.4	14
26	4114	348.4	9
26	4120	348.809682968785	3
26	4131	349.716259446626	8
26	4139	350.118065145371	3
26	4151	351.125361301693	9
26	4159	351.728484577379	5
26	4177	354.3	3
26	4183	354.8	4
26	4192	355.41327774776	5
26	4197	355.721802337096	2
26	4204	356.029507517813	2
26	4222	360	0
26	4226	360.3	2
26	4232	360.703329681125	3
26	4244	361.703776173297	9
26	4257	362.607101089056	8
26	4266	363.316786173743	6
26	4277	364.025391637799	6
26	4298	368.3	3
26	4304	368.8	4
26	4308	369.006239106273	1
26	4316	369.614548440116	5
26	4321	369.918898577984	2
26	4329	370.321873413785	3
26	4361	375.4	14
26	4372	376.2	7
26	4382	377.009241550923	7
26	4401	378.511876727	14
26	4408	379.012507215379	4
26	4417	379.721563261513	6
26	4430	380.621986433117	8
26	4442	381.631732638739	9
26	4453	382.338362281976	6
26	4463	383.14167603046	7
26	4492	387.1	11
26	4501	387.9	7
26	4509	388.306608026386	3
26	4514	388.608034336345	2
26	4518	388.81651869506	1
26	4547	393.1	11
26	4562	394.3	11
26	4574	395.300738771164	9
26	4582	395.907386902412	5
26	4591	396.415715832607	4
26	4616	400.7	7
26	4626	401.6	8
26	4637	402.306947865185	6
26	4647	403.112441936676	7
26	4654	403.618578966549	4
26	4666	404.424294168965	7
26	4675	405.130102126795	6
26	4704	409.4	14
26	4715	410.2	7
26	4725	411.001465527277	7
26	4735	411.807586382396	7
26	4747	412.616410968223	7
26	4768	416.3	3
26	4783	417.605507623213	12
26	4801	419.0147741104	13
26	4810	419.715131785409	6
26	4818	420.124110009926	3
26	4824	420.525743034279	3
26	4844	424.2	2
26	4850	424.7	4
26	4862	425.70330682842	9
26	4870	426.111604838074	3
26	4884	427.32085473164	11
26	4906	430.4	4
26	4911	430.8	3
26	4916	431.104772543364	2
26	4926	431.906665766874	7
26	4933	432.216630394285	2
26	4939	432.618148563998	3
26	4948	433.323806912314	6
26	4955	433.827101024581	4
26	4967	434.630680179277	7
26	4972	434.939668907851	2
26	4996	438.8	8
26	5003	439.4	5
26	5007	439.607657331288	1
26	5015	440.010816122451	3
26	5024	440.713093720464	6
26	5037	441.817585297801	10
26	5060	444.5	5
26	5071	445.5	9
26	5082	446.203787750317	6
26	5092	447.006693035964	7
26	5106	448.008741734457	9
26	5110	448.21377206482	1
26	5134	452.6	6
26	5144	453.5	8
26	5148	453.702432434214	1
26	5152	453.908895946046	1
26	5158	454.116652501422	1
26	5162	454.323601074606	1
26	5171	455.031803756289	6
26	5178	455.533921071773	4
26	5191	456.439558470724	8
26	5212	460.3	3
26	5216	460.6	2
26	5224	461.20595142188	5
26	5232	461.809857529897	5
26	5241	462.316671818475	4
26	5249	462.917976893217	5
26	5254	463.226097693306	2
26	5285	467.3	13
26	5291	467.8	4
26	5299	468.201061579817	3
26	5310	469.10184947701	8
26	5317	469.609135226174	4
26	5321	469.818562717069	1
26	5329	470.22355691451	3
26	5346	474.2	2
26	5350	474.5	2
26	5360	475.303345914285	7
26	5367	475.810230818292	4
26	5375	476.218604576744	3
26	5383	476.824834474348	5
26	5391	477.425934770814	5
26	5403	478.235664991705	7
26	5409	478.641060488334	3
26	5413	478.845730134635	1
26	5421	479.446635511868	5
26	5432	480.154761360701	6
26	5437	480.46035999951	2
26	5442	480.761011946113	2
26	5463	484.3	3
26	5466	484.5	1
26	5475	485.201490557969	6
26	5483	485.810009205408	5
26	5495	486.618968637528	7
26	5508	487.728136861259	10
26	5518	488.333579415699	5
26	5526	488.936954122722	5
26	5557	493.3	13
26	5562	493.7	3
26	5569	494.005626381728	2
26	5574	494.306069586467	2
26	5579	494.613483818302	2
26	5590	495.522331967857	8
26	5595	495.825223786207	2
26	5602	496.129497053031	2
26	5608	496.533322508508	3
26	5613	496.840413293028	2
26	5619	497.246461709867	3
26	5642	500.5	5
26	5649	501.1	5
26	5654	501.40317052548	2
26	5658	501.603619406581	1
26	5673	502.709510864609	10
26	5682	503.414528168372	6
26	5689	503.915730471696	4
26	5695	504.117799127384	1
26	5704	504.825950161316	6
26	5714	505.631314686724	7
26	5742	509	10
26	5760	510.5	14
26	5774	511.707176323607	11
26	5782	512.116672961797	3
26	5791	512.817116651336	6
26	5797	513.21933582644	3
26	5804	513.720175630424	4
26	5822	516.3	3
26	5830	517	6
26	5841	517.904346015183	8
26	5852	518.604523172136	6
26	5862	519.409840291165	7
26	5873	520.117882212683	6
26	5882	520.820784102569	6
26	5900	524.3	3
26	5906	524.8	4
26	5914	525.401625067959	5
26	5920	525.80179809644	3
26	5932	526.609671876322	7
26	5941	527.318946955698	6
26	5947	527.722120477371	3
26	5969	530.4	4
26	5978	531.2	7
26	5985	531.704961100474	4
26	5996	532.409753512374	6
26	6003	532.918546822885	4
26	6008	533.219724867617	2
26	6013	533.528466909786	2
26	6038	536.7	7
26	6051	537.9	11
26	6060	538.404916769945	4
26	6067	538.911232632416	4
26	6073	539.311622291795	3
26	6095	542.4	4
26	6100	542.8	3
26	6105	543.104040889646	2
26	6115	543.912819640661	7
26	6121	544.119849306583	1
26	6143	548.4	4
26	6150	549	5
26	6154	549.204042788117	1
26	6167	550.112713344215	8
26	6171	550.32102670536	1
26	6179	550.925207512519	5
26	6183	551.129058371715	1
26	6190	551.636220586565	4
26	6194	551.838875399334	1
26	6207	552.743007933636	8
26	6214	553.244488193377	4
26	6239	556.7	7
26	6244	557.1	3
26	6252	557.709599006869	5
26	6260	558.11164243528	3
26	6268	558.718947767809	5
26	6276	559.32597814447	5
26	6284	559.931430960658	5
26	6292	560.337849935239	3
26	6304	561.34004946482	9
26	6312	561.948411318383	5
26	6333	564.3	3
26	6340	564.9	5
26	6350	565.705877116862	7
26	6360	566.315086625117	5
26	6370	567.118642827387	7
26	6378	567.727441415743	5
26	6386	568.134286399528	3
26	6391	568.436996793432	2
26	6415	572.6	6
26	6422	573.2	5
26	6431	573.900625794103	6
26	6442	574.610601073784	6
26	6453	575.516506087047	8
26	6466	576.41780843134	8
26	6473	576.922000728014	4
26	6492	580.4	4
26	6498	580.9	4
26	6507	581.600654440242	6
26	6520	582.504868524085	8
26	6525	582.813950766328	2
26	6533	583.415117202618	5
26	6543	584.015581938352	5
26	6567	588.6	6
26	6572	589	3
26	6583	589.907429825533	8
26	6596	590.808074958838	8
26	6602	591.214898738401	3
26	6609	591.724141510916	4
26	6613	591.928696988467	1
26	6625	592.73580412182	7
26	6634	593.439691994841	6
26	6655	596.3	3
26	6659	596.6	2
26	6664	596.901705933029	2
26	6669	597.202157356405	2
26	6674	597.503881658279	2
26	6686	598.306784618357	7
26	6695	599.009187250966	6
26	6700	599.31459732664	2
26	6706	599.722929839421	3
26	6715	600.224497507548	4
26	6720	600.528567417641	2
26	6743	604.5	5
26	6750	605.000593889572	4
26	6755	605.307350571783	2
26	6766	606.010797429367	6
26	6776	606.815677291218	7
26	6803	610.9	9
26	6814	611.9	9
26	6822	612.308669885327	3
26	6829	612.812574987343	4
26	6840	613.717251311229	8
26	6851	614.423611119129	6
26	6859	615.031081116139	5
26	6866	615.53534814727	4
26	6886	618.4	4
26	6895	619.2	7
26	6903	619.809328352094	5
26	6911	620.214639263893	3
26	6920	620.916093058913	6
26	6928	621.51662518722	5
26	6934	621.918361681292	3
26	6940	622.124125243636	1
26	6962	626.4	4
26	6969	627	5
26	6978	627.702620278364	6
26	6987	628.205407269957	4
26	7008	632.3	3
26	7022	633.6	12
26	7026	633.80462729721	1
26	7039	634.70973234464	8
26	7046	635.211612114187	4
26	7068	638.4	4
26	7075	639	5
26	7083	639.604603892161	5
26	7091	640.009434072625	3
26	7097	640.416563851773	3
26	7104	640.925162028635	4
26	7115	641.825555340903	8
26	7125	642.425568708802	5
26	7129	642.634186459136	1
26	7151	646.4	4
26	7161	647.3	8
26	7169	647.900785581143	5
26	7179	648.508795339555	5
26	7186	649.011624260497	4
26	7193	649.516182943986	4
26	7197	649.717602639352	1
26	7221	652.6	6
26	7230	653.4	7
26	7237	653.901196401878	4
26	7250	654.80227051095	8
26	7259	655.508742125065	6
26	7263	655.715418671563	1
26	7270	656.022677370771	2
26	7297	660.9	9
26	7312	662.1	11
26	7322	662.902599446354	7
26	7327	663.203802395285	2
26	7335	663.81191134956	5
26	7343	664.221527583294	3
26	7355	665.229420426781	9
26	7361	665.630214633545	3
26	7366	665.938377493595	2
26	7386	668.2	2
26	7391	668.6	3
26	7397	669.002175709421	3
26	7404	669.507442886545	4
26	7414	670.108334837918	5
26	7424	670.91102478793	7
26	7430	671.31708908507	3
26	7441	672.025966408654	6
26	7446	672.334445853508	2
26	7452	672.740655076762	3
26	7459	673.24535848434	4
26	7477	674.654415141173	13
26	7503	678.8	8
26	7510	679.302848954699	4
26	7518	679.910866848551	5
26	7528	680.5142587373	5
26	7539	681.423157978133	8
26	7550	682.129159966123	6
26	7556	682.537247438847	3
26	7583	686.9	9
26	7597	688	10
26	7604	688.500005920452	4
26	7615	689.401584072599	8
26	7638	692.5	5
26	7642	692.8	2
26	7651	693.508198911687	6
26	7662	694.213255534909	6
26	7668	694.619269168997	3
26	7674	695.02560150265	3
26	7684	695.829780686048	7
26	7694	696.43509562455	5
26	7700	696.841775844191	3
26	7722	700.4	4
26	7730	701.1	6
26	7736	701.501671418573	3
26	7741	701.802565620951	2
26	7749	702.205484602097	3
26	7759	703.011002652348	7
26	7774	704.014339347689	9
26	7796	708.4	4
26	7804	709.1	6
26	7813	709.801264434976	6
26	7819	710.00416841001	1
26	7834	711.312366434258	12
26	7845	712.01472346617	6
26	7850	712.3239797546	2
26	7872	716.4	4
26	7881	717.2	7
26	7896	718.308854740306	10
26	7906	719.112240127834	7
26	7912	719.514988048867	3
26	7921	720.024974893034	4
26	7935	721.229925851845	11
26	7956	724.3	3
26	7966	725.2	8
26	7972	725.602141667564	3
26	7983	726.311260852817	6
26	7991	726.919109914331	5
26	8001	727.721069414573	7
26	8015	728.726043424261	9
26	8022	729.233246684145	4
26	8031	729.93763884234	6
26	8055	732.6	6
26	8059	732.9	2
26	8066	733.312144093526	3
26	8073	733.820054557168	4
26	8079	734.026754982583	1
26	8083	734.230535427422	1
26	8105	738.4	4
26	8110	738.8	3
26	8115	739.10804837147	2
26	8128	740.017774993854	8
26	8132	740.224326661743	1
26	8137	740.53034104236	2
26	8142	740.830409657145	2
26	8150	741.431719825638	5
26	8157	741.849546953101	3
26	8163	742.053878093023	1
26	8182	746.2	2
26	8191	747	7
26	8196	747.308690615436	2
26	8207	748.017100335664	6
26	8219	749.026916908267	9
26	8225	749.431904890217	3
26	8232	749.935663261319	4
26	8254	752.4	4
26	8264	753.3	8
26	8272	753.903649250187	5
26	8282	754.508202799299	5
26	8289	755.00942982589	4
26	8295	755.414908599763	3
26	8306	756.120196586707	6
26	8312	756.525371561424	3
26	8336	760.8	8
26	8345	761.6	7
26	8357	762.402970247983	7
26	8367	763.203913326651	7
26	8380	764.110107281032	8
26	8388	764.712422677163	5
26	8393	765.015924570868	2
26	8402	765.719501659532	6
26	8412	766.323360630657	5
26	8422	767.129934619461	7
26	8428	767.532583021701	3
26	8434	767.939667264262	3
26	8457	770.5	5
26	8469	771.6	10
26	8484	772.706624144362	10
26	8494	773.50804237469	7
26	8504	774.110848998987	5
26	8515	775.015908730903	8
26	8524	775.719324563706	6
26	8534	776.323609687624	5
26	8565	781.3	13
26	8570	781.7	3
26	8579	782.202352228886	4
26	8585	782.607781679927	3
26	8592	783.114876919906	4
26	8596	783.315771727993	1
26	8607	784.020005348525	6
26	8618	784.929231106541	8
26	8623	785.233160750097	2
26	8654	789.3	13
26	8658	789.6	2
26	8668	790.201315371841	5
26	8679	791.10954555795	8
26	8693	792.116916331201	9
26	8700	792.624256515232	4
26	8710	793.424884836863	7
26	8731	796.3	3
26	8735	796.6	2
26	8742	797.104855511339	4
26	8750	797.712028440531	5
26	8758	798.118975520178	3
26	8762	798.323672359266	1
26	8768	798.727493176357	3
26	8772	798.927949208427	1
26	8789	800.236250364406	12
26	8811	804.4	4
26	8818	805	5
26	8825	805.503970720523	4
26	8836	806.206654918505	6
26	8842	806.607270873497	3
26	8847	806.90954689933	2
26	8857	807.714529783181	7
26	8866	808.219004007412	4
26	8875	808.923423750285	6
26	8886	809.829436678416	8
26	8893	810.134069155321	2
26	8899	810.535718133693	3
26	8905	810.940040225783	3
26	8910	811.246631825347	2
26	8935	814.7	7
26	8941	815.10708081986	3
26	8946	815.40999515636	2
26	8957	816.11624836718	6
26	8965	816.725778018297	5
26	8977	817.639742142984	8
26	8982	817.849547273162	1
26	8995	818.75357983892	8
26	9018	822.5	5
26	9023	822.9	3
26	9028	823.206702504041	2
26	9041	824.109016312511	8
26	9047	824.517942905916	3
26	9054	825.019726112534	4
26	9063	825.726175701983	6
26	9074	826.433856861697	6
26	9082	827.035309021669	5
26	9090	827.641686595422	5
26	9103	828.546172644598	8
26	9114	829.450158036453	8
26	9120	829.859365750264	3
26	9139	832.2	2
26	9144	832.6	3
26	9151	833.107048628958	4
26	9157	833.513618051106	3
26	9167	834.119953173255	5
26	9173	834.523416067688	3
26	9178	834.826711964362	2
26	9188	835.634354340701	7
26	9196	836.040409559164	3
26	9205	836.746111230439	6
26	9230	840.7	7
26	9238	841.4	6
26	9243	841.609545832063	1
26	9254	842.317417787379	6
26	9262	842.918229018838	5
26	9266	843.120639071959	1
26	9273	843.627855544309	4
26	9282	844.135353201881	4
26	9300	848.2	2
26	9307	848.8	5
26	9314	849.307543631787	4
26	9322	849.913049970231	5
26	9335	850.81913419112	8
26	9343	851.326769013095	4
26	9360	852.635387407927	12
26	9367	853.137873472326	4
26	9390	856.5	5
26	9396	857	4
26	9404	857.609269443992	5
26	9418	858.521628145466	8
26	9423	858.823260214207	2
26	9453	863.2	12
26	9459	863.7	4
26	9466	864.002793787755	2
26	9472	864.412646645682	3
26	9477	864.713804701438	2
26	9483	865.115198598298	3
26	9490	865.618417156926	4
26	9502	866.424699750852	7
26	9507	866.728986562129	2
26	9520	867.738095231439	9
26	9534	868.742855606603	9
26	9557	872.5	5
26	9561	872.8	2
26	9570	873.509254328832	6
26	9580	874.109648297235	5
26	9587	874.614938042768	4
26	9598	875.521368045156	8
26	9613	876.626903522588	10
26	9636	880.5	5
26	9643	881.1	5
26	9649	881.506334881181	3
26	9655	881.911532656819	3
26	9662	882.217898795605	2
26	9669	882.724188254433	4
26	9679	883.528498147841	7
26	9685	883.932200100026	3
26	9697	884.740693404031	7
26	9707	885.547514526465	7
26	9730	888.5	5
26	9739	889.3	7
26	9751	890.101283289045	7
26	9763	891.101962131522	9
26	9770	891.60502510619	4
26	9780	892.214172705531	5
26	9786	892.614238932563	3
26	9791	892.921437296047	2
26	9799	893.524161739888	5
26	9823	896.6	6
26	9829	897.1	4
26	9833	897.302999145272	1
26	9839	897.711817759941	3
26	9847	898.114581586168	3
26	9858	899.021214634074	8
26	9862	899.228435739663	1
26	9881	900.735440324603	14
26	9886	901.038039512396	2
26	9906	904.2	2
26	9913	904.8	5
26	9924	905.70420772959	8
26	9938	906.713021512417	9
26	9947	907.413494416951	6
26	9951	907.622924484001	1
26	9973	910.4	4
26	9978	910.8	3
26	9991	911.900012624985	10
26	9999	912.302858563018	3
26	10008	913.004544980899	6
26	10016	913.608262194009	5
26	10025	914.111586152057	4
26	10048	918.8	8
26	10056	919.5	6
26	10062	919.908786052931	3
26	10071	920.413874066967	4
26	10079	921.019374109349	5
26	10086	921.524771845616	4
26	10096	922.131724468502	5
26	10115	926.4	4
26	10120	926.8	3
26	10130	927.607924446417	7
26	10139	928.111406220416	4
26	10146	928.613310338374	4
26	10151	928.920117310081	2
26	10157	929.328111060324	3
26	10162	929.636079718821	2
26	10166	929.836190320422	1
26	10173	930.145356933615	2
26	10195	934.6	6
26	10198	934.8	1
26	10209	935.707459342405	8
26	10224	936.808092402671	10
26	10244	938.416516015103	15
26	10252	939.016612278832	5
26	10261	939.72121201637	6
26	10268	940.021414138095	2
26	10274	940.426905920417	3
26	10279	940.72705254863	2
26	10290	941.630676060446	8
26	10300	942.234053585241	5
26	10321	946.3	3
26	10325	946.6	2
26	10332	947.103362983374	4
26	10338	947.510252720303	3
26	10347	948.011994747327	4
26	10352	948.321523216339	2
26	10359	948.826714016013	4
26	10382	952.8	8
26	10390	953.5	6
26	10400	954.104800532937	5
26	10406	954.50838484147	3
26	10415	955.217858811764	6
26	10422	955.720663084201	4
26	10434	956.522078966518	7
26	10442	957.12994511498	5
26	10447	957.436862462217	2
26	10468	960.5	5
26	10474	961	4
26	10481	961.501620139249	4
26	10500	963.010726776993	14
26	10506	963.41435692659	3
26	10520	964.417570845087	9
26	10528	965.026467757982	5
26	10548	968.2	2
26	10555	968.8	5
26	10563	969.408030806079	5
26	10569	969.808943640496	3
26	10575	970.011873856242	1
26	10581	970.418826507343	3
26	10587	970.825563513021	3
26	10608	974.6	6
26	10617	975.4	7
26	10627	976.003559869423	5
26	10639	977.012649214032	9
26	10662	980.5	5
26	10669	981.1	5
26	10682	982.008346898485	8
26	10688	982.410950812025	3
26	10697	983.118168257161	6
26	10703	983.522808480146	3
26	10718	984.6317568551	10
26	10726	985.235505397852	5
26	10730	985.443116328666	1
26	10740	986.050438866092	5
26	10749	986.757154366397	6
26	10758	987.466573178944	6
26	10764	987.870589397662	3
26	10785	990.3	3
26	10789	990.6	2
26	10793	990.803907198179	1
26	10797	991.006981225041	1
26	10804	991.516715842212	4
26	10813	992.018390253357	4
26	10823	992.825879667048	7
26	10845	996.4	4
26	10852	997	5
26	10859	997.508003670484	4
26	10865	997.915389271964	3
26	10876	998.623056447446	6
26	10884	999.232920331175	5
26	10892	999.834347424991	5
26	10899	1000.143526902293	2
26	10906	1000.648239996017	4
26	10918	1001.653965278342	9
26	10927	1002.161605301671	4
26	10949	1006.4	4
26	10954	1006.8	3
26	10959	1007.104927700427	2
26	10965	1007.514525777606	3
26	10989	1010.6	6
26	11001	1011.7	10
26	11011	1012.307834257679	5
26	11017	1012.711883763077	3
26	11023	1013.117043762032	3
26	11054	1017.3	13
26	11057	1017.5	1
26	11066	1018.001795148309	4
26	11071	1018.30665817782	2
26	11076	1018.615980882341	2
26	11080	1018.816783944518	1
26	11087	1019.320713023211	4
26	11095	1019.925526956942	5
26	11110	1021.03243921346	10
26	11135	1024.7	7
26	11142	1025.3	5
26	11146	1025.508100668541	1
26	11157	1026.217859040926	6
26	11164	1026.724577142266	4
26	11169	1027.032688572591	2
26	11173	1027.242310110582	1
26	11177	1027.444631615818	1
26	11187	1028.053300696831	5
26	11191	1028.258365215808	1
26	11196	1028.558397170814	2
26	11200	1028.764744727275	1
26	11205	1029.070962732444	2
26	11209	1029.27727779764	1
26	11217	1029.877985732064	5
26	11234	1032	0
26	11243	1032.8	7
26	11251	1033.402930653812	5
26	11257	1033.805917712337	3
26	11267	1034.409058276152	5
26	11276	1035.113586137427	6
26	11285	1035.815215400552	6
26	11296	1036.519000025998	6
26	11328	1041.4	14
26	11337	1042	5
26	11347	1042.807308534933	7
26	11354	1043.315739537749	4
26	11362	1043.92212468041	5
26	11375	1044.828723329972	8
26	11380	1045.13402864689	2
26	11386	1045.539604823666	3
26	11391	1045.843884654743	2
26	11403	1046.65006318292	7
26	11411	1047.259685077761	5
26	11418	1047.767853952549	4
26	11430	1048.571416008738	7
26	11437	1049.074039262246	4
26	11459	1052.4	4
26	11468	1053.2	7
26	11477	1053.905269452033	6
26	11489	1054.708671694628	7
26	11499	1055.515684115858	7
26	11503	1055.718122678524	1
26	11527	1058.6	6
26	11534	1059.2	5
26	11540	1059.606670982509	3
26	11551	1060.316239651611	6
26	11557	1060.72242266344	3
26	11567	1061.528717537965	7
26	11576	1062.035656943358	4
26	11586	1062.844607530147	7
26	11595	1063.546112773804	6
26	11604	1064.051643182119	4
26	11614	1064.855105960842	7
26	11639	1068.7	7
26	11643	1069	2
26	11651	1069.515479713037	4
26	11661	1070.124445651796	5
26	11667	1070.532110934758	3
26	11676	1071.239185670434	6
26	11690	1072.240712941187	9
26	11700	1073.049914937357	7
26	11722	1076.4	4
26	11728	1076.9	4
26	11733	1077.204766185081	2
26	11741	1077.814710970462	5
26	11747	1078.017492149983	1
26	11754	1078.526827600866	4
26	11762	1079.134232779366	5
26	11770	1079.73989129763	5
26	11778	1080.148190929844	3
26	11785	1080.657429902184	4
26	11793	1081.265631263538	5
26	11821	1085.1	11
26	11828	1085.7	5
26	11836	1086.105051697811	3
26	11847	1087.009706761943	8
26	11853	1087.410208747416	3
26	11860	1087.919895850621	4
26	11869	1088.421697327029	4
26	11874	1088.730127467096	2
26	11881	1089.231615664474	4
26	11887	1089.639394636207	3
26	11898	1090.341450222562	6
26	11921	1094.7	7
26	11927	1095.2	4
26	11940	1096.10226892126	8
26	11950	1096.911690947659	7
26	11961	1097.818157341283	8
26	11972	1098.522068918923	6
26	11976	1098.727310338188	1
26	12005	1103.1	11
26	12012	1103.7	5
26	12027	1104.807096480731	10
26	12033	1105.215999050544	3
26	12041	1105.820252996942	5
26	12053	1106.622089103467	7
26	12075	1110.4	4
26	12083	1111.1	6
26	12092	1111.805756032005	6
26	12100	1112.211822070881	3
26	12107	1112.616813649093	3
26	12115	1113.221765498162	5
26	12123	1113.82805223636	5
26	12143	1116.2	2
26	12150	1116.8	5
26	12163	1117.903073736503	10
26	12177	1118.908748051872	9
26	12192	1120.011272057884	10
26	12201	1120.715998123001	6
26	12211	1121.520621219532	7
26	12216	1121.822857388824	2
26	12226	1122.432071455712	5
26	12258	1126.1	1
26	12265	1126.7	5
26	12284	1128.205123711868	14
26	12293	1128.907714791846	6
26	12302	1129.609899447954	6
26	12313	1130.31744503919	6
26	12322	1131.026232371641	6
26	12332	1131.828859871741	7
26	12342	1132.429748359605	5
26	12347	1132.733702656818	2
26	12355	1133.342646302569	5
26	12359	1133.543011558654	1
26	12380	1136.3	3
26	12390	1137.2	8
26	12398	1137.807545212917	5
26	12409	1138.511357365772	6
26	12417	1139.119377033118	5
26	12430	1140.023197084694	8
26	12442	1141.026569976839	9
26	12461	1144.4	4
26	12467	1144.9	4
26	12474	1145.402857080614	4
26	12489	1146.510888162851	10
26	12498	1147.220499611128	6
26	12504	1147.623556222828	3
26	12525	1150.3	3
26	12535	1151.2	8
26	12540	1151.505670482798	2
26	12550	1152.110638708933	5
26	12559	1152.81104969717	6
26	12568	1153.520122408656	6
26	12574	1153.925237867975	3
26	12598	1156.6	6
26	12605	1157.2	5
26	12613	1157.800232093697	5
26	12622	1158.30345466555	4
26	12643	1162.3	3
26	12648	1162.7	3
26	12657	1163.403648611491	6
26	12662	1163.703694812995	2
26	12669	1164.01018212153	2
26	12674	1164.318791232357	2
26	12683	1165.019954147943	6
26	12705	1168.4	4
26	12712	1169	5
26	12726	1170.000712606285	9
26	12732	1170.404750662946	3
26	12743	1171.310348625422	8
26	12758	1172.412659825849	10
26	12781	1176.5	5
26	12788	1177.1	5
26	12797	1177.805350507011	6
26	12804	1178.108602181705	2
26	12812	1178.711088968284	5
26	12818	1179.119647946752	3
26	12831	1180.02832039011	8
26	12853	1184.4	4
26	12865	1185.5	10
26	12874	1186.002808316543	4
26	12884	1186.812202584	7
26	12890	1187.221841274387	3
26	12898	1187.831063000223	5
26	12906	1188.232115945767	3
26	12929	1192.5	5
26	12936	1193.1	5
26	12949	1194.002261822207	8
26	12957	1194.602964065826	5
26	12968	1195.506013251693	8
26	12979	1196.206217607602	6
26	12989	1197.013624353925	7