version 2
run Join-4-20130429-12:49:17-17679
attr configname Join
attr datetime 20130429-12:49:17
attr experiment "\"Join\""
attr inifile omnetpp.ini
attr iterationvars $0=32
attr iterationvars2 "$0=32, $repetition=4"
attr measurement $0=32
attr network Network
attr processid 17679
attr repetition 4
attr replication #4
attr resultdir results
attr runnumber 4
attr seedset 4

vector 4  Network.dyn_peer[0]  lookupHopsSig:vector  ETV
4	272	20.316657743946	4
4	279	20.819969488997	4
4	284	21.123733683703	2
4	290	21.529455071412	3
4	294	21.737922294129	1
4	314	24.2	2
4	318	24.5	2
4	323	24.805956881172	2
4	329	25.212651979913	3
4	335	25.613498596035	3
4	340	25.914298388434	2
4	346	26.120271054503	1
4	350	26.320717532787	1
4	355	26.623172069891	2
4	359	26.824124050664	1
4	363	27.031449985184	1
4	383	30.4	4
4	387	30.7	2
4	392	31.001003804269	2
4	397	31.30703943937	2
4	420	34.5	5
4	423	34.7	1
4	431	35.301628717218	5
4	437	35.70292058504	3
4	446	36.208839321497	4
4	452	36.614984949912	3
4	458	37.024488496511	3
4	464	37.428125000007	3
4	470	37.739470277106	2
4	477	38.039686464062	2
4	481	38.240171805459	1
4	502	42.3	3
4	505	42.5	1
4	509	42.708331485511	1
4	515	43.113478022459	3
4	519	43.322771708461	1
4	523	43.528488122221	1
4	528	43.829777475559	2
4	535	44.138214545439	2
4	540	44.446525899766	2
4	558	48.2	2
4	563	48.6	3
4	568	48.905102436316	2
4	572	49.111606847408	1
4	578	49.520874054277	3
4	597	52.1	1
4	603	52.6	4
4	611	53.204814599433	5
4	616	53.50846013114	2
4	620	53.717734217244	1
4	626	53.931668898383	1
4	635	54.433199180903	4
4	656	58.3	3
4	662	58.8	4
4	670	59.403927811717	5
4	676	59.718975081878	2
4	683	60.024428851018	2
4	703	64.2	2
4	710	64.8	5
4	715	65.104124722129	2
4	719	65.305249825485	1
4	738	68.1	1
4	741	68.3	1
4	745	68.509796162631	1
4	750	68.809825428586	2
4	771	72.3	3
4	776	72.7	3
4	780	72.907329987159	1
4	785	73.212356467886	2
4	791	73.61914332191	3
4	795	73.826618270045	1
4	801	74.034878498746	1
4	809	74.63976020967	5
4	814	74.943234723046	2
4	834	78.3	3
4	839	78.7	3
4	846	79.201454623274	4
4	852	79.50578271513	2
4	872	82.2	2
4	875	82.4	1
4	881	82.804086267827	3
4	887	83.213261385913	3
4	893	83.622699360965	3
4	915	86.4	4
4	920	86.8	3
4	926	87.201953047101	3
4	933	87.706607943867	4
4	941	88.112222628507	3
4	949	88.719852564988	5
4	955	89.119956831707	3
4	961	89.527485033707	3
4	966	89.829784002707	2
4	985	92.1	1
4	990	92.400400911215	2
4	995	92.707023935566	2
4	1000	93.007183648325	2
4	1004	93.21301908364	1
4	1010	93.426059393187	1
4	1033	96.5	5
4	1036	96.7	1
4	1044	97.30896691855	5
4	1049	97.615632502531	2
4	1057	98.020671512362	3
4	1061	98.225084919399	1
4	1065	98.431233113888	1
4	1070	98.7339578285	2
4	1089	102.1	1
4	1093	102.4	2
4	1101	103.006345694942	5
4	1105	103.206408934343	1
4	1110	103.511326810718	2
4	1115	103.812320088325	2
4	1122	104.121634231	2
4	1140	108.3	3
4	1145	108.7	3
4	1150	109.004076216763	2
4	1155	109.308172571654	2
4	1160	109.615987882883	2
4	1169	110.124096254039	4
4	1175	110.527637709394	3
4	1194	114.1	1
4	1198	114.4	2
4	1204	114.808703921413	3
4	1208	115.014223185772	1
4	1212	115.223204103548	1
4	1216	115.425013751925	1
4	1220	115.626405569919	1
4	1226	115.937797029696	2
4	1233	116.245425847598	2
4	1239	116.651079291204	3
4	1245	117.060987259374	3
4	1250	117.369897136768	2
4	1270	120.2	2
4	1273	120.4	1
4	1282	121.107400447351	6
4	1290	121.710192766754	5
4	1298	122.118530580481	3
4	1304	122.51972634736	3
4	1311	122.922883886158	3
4	1332	126.3	3
4	1340	127	6
4	1349	127.706882212706	6
4	1358	128.213389463551	4
4	1367	128.916788727758	6
4	1375	129.519862893883	5
4	1380	129.824308300493	2
4	1388	130.234282340372	3
4	1409	134.3	3
4	1412	134.5	1
4	1417	134.70592582651	1
4	1423	135.10915157631	3
4	1428	135.413375235772	2
4	1433	135.72272814433	2
4	1455	138.4	4
4	1460	138.8	3
4	1467	139.302805125005	4
4	1473	139.710880614492	3
4	1481	140.118373034636	3
4	1486	140.419242190762	2
4	1491	140.726519477475	2
4	1512	144.3	3
4	1517	144.7	3
4	1521	144.908561837684	1
4	1526	145.213405879017	2
4	1531	145.522247857645	2
4	1540	146.026299993286	4
4	1561	150.3	3
4	1565	150.6	2
4	1570	150.901518856026	2
4	1574	151.104652522287	1
4	1578	151.306868331529	1
4	1583	151.616769500729	2
4	1592	152.12009445237	4
4	1597	152.428934876238	2
4	1601	152.631502925461	1
4	1605	152.831702349058	1
4	1611	153.234824399398	3
4	1634	156.5	5
4	1638	156.8	2
4	1642	157.002657973261	1
4	1649	157.502955713241	4
4	1655	157.904905190117	3
4	1662	158.210283006812	2
4	1683	162.3	3
4	1691	163	6
4	1699	163.600881105656	5
4	1707	164.007122638082	3
4	1711	164.210901088242	1
4	1715	164.417019211768	1
4	1734	168.1	1
4	1741	168.7	5
4	1746	169.004675324715	2
4	1752	169.412923533958	3
4	1756	169.622830171095	1
4	1764	170.026188665175	3
4	1769	170.333661149605	2
4	1790	174.3	3
4	1794	174.6	2
4	1798	174.80407982269	1
4	1803	175.10603213427	2
4	1825	178.4	4
4	1831	178.9	4
4	1837	179.308861342302	3
4	1843	179.711215123004	3
4	1851	180.119821681655	3
4	1857	180.523879273794	3
4	1877	184.2	2
4	1881	184.5	2
4	1886	184.703376794727	1
4	1892	185.111964003224	3
4	1898	185.514668643964	3
4	1903	185.818060893016	2
4	1924	188.3	3
4	1929	188.7	3
4	1934	189.007556492891	2
4	1938	189.208788771808	1
4	1943	189.511303756469	2
4	1948	189.815873148833	2
4	1955	190.124506620057	2
4	1960	190.426853790546	2
4	1979	194.1	1
4	1982	194.3	1
4	1986	194.500254017014	1
4	1994	194.821678758902	2
4	1999	195.125397096013	2
4	2004	195.428015518223	2
4	2011	195.93755770916	4
4	2017	196.139402322872	1
4	2023	196.539974382075	3
4	2044	200.3	3
4	2049	200.7	3
4	2055	201.105275144053	3
4	2060	201.414892677236	2
4	2066	201.816935790972	3
4	2076	202.426187642264	5
4	2082	202.829116249867	3
4	2086	203.034225311095	1
4	2093	203.451072043635	3
4	2112	206.1	1
4	2116	206.4	2
4	2120	206.601005502308	1
4	2127	207.110545062049	4
4	2135	207.714906772096	5
4	2157	210.4	4
4	2161	210.7	2
4	2166	211.006598942342	2
4	2170	211.210489445651	1
4	2174	211.412287942009	1
4	2181	211.817776919911	3
4	2189	212.22327967216	3
4	2211	216.4	4
4	2218	217	5
4	2223	217.302794536	2
4	2229	217.711153281374	3
4	2237	218.112381173864	3
4	2243	218.517671897691	3
4	2262	222.1	1
4	2266	222.4	2
4	2271	222.702337804299	2
4	2278	223.204298048233	4
4	2300	226.4	4
4	2305	226.8	3
4	2312	227.308387107006	4
4	2316	227.510222306882	1
4	2320	227.714260409483	1
4	2327	228.02295466866	2
4	2332	228.328628358334	2
4	2336	228.532152437463	1
4	2342	228.938513777605	3
4	2346	229.140165395354	1
4	2350	229.34149381542	1
4	2355	229.644402213952	2
4	2377	232.4	4
4	2382	232.8	3
4	2388	233.209862247244	3
4	2394	233.6164901299	3
4	2399	233.917535282312	2
4	2410	234.524965488029	5
4	2417	235.030014086555	4
4	2439	238.4	4
4	2444	238.8	3
4	2450	239.200175336678	3
4	2454	239.405525538343	1
4	2459	239.714412564171	2
4	2468	240.217356994991	4
4	2490	244.4	4
4	2494	244.7	2
4	2499	245.003371798314	2
4	2504	245.311352738746	2
4	2510	245.717294220096	3
4	2514	245.920850436676	1
4	2520	246.12122788849	1
4	2526	246.524301937363	3
4	2531	246.830735022631	2
4	2551	250.2	2
4	2557	250.7	4
4	2562	251.004067558262	2
4	2568	251.408327735802	3
4	2574	251.816978680363	3
4	2595	254.3	3
4	2601	254.8	4
4	2606	255.105839198706	2
4	2610	255.313990862601	1
4	2615	255.61844443304	2
4	2623	256.025097000775	3
4	2631	256.633517567311	5
4	2652	260.3	3
4	2660	261	6
4	2669	261.700689694341	6
4	2676	262.007364239631	2
4	2680	262.216356483375	1
4	2686	262.617039829646	3
4	2690	262.824885937003	1
4	2695	263.12843930331	2
4	2700	263.428478029686	2
4	2704	263.63533839265	1
4	2709	263.94467381894	2
4	2730	266.3	3
4	2734	266.6	2
4	2743	267.305773636961	6
4	2749	267.714587652912	3
4	2769	270.2	2
4	2774	270.6	3
4	2780	271.008598812769	3
4	2787	271.513508174372	4
4	2793	271.921847943287	3
4	2800	272.229254344411	2
4	2820	276.2	2
4	2823	276.4	1
4	2827	276.606388631085	1
4	2833	277.008458261326	3
4	2837	277.212739811131	1
4	2841	277.421150354166	1
4	2846	277.726208424822	2
4	2850	277.934670353815	1
4	2859	278.350930668903	3
4	2864	278.562511741006	1
4	2888	282.6	6
4	2892	282.9	2
4	2897	283.118479445809	1
4	2901	283.325250119147	1
4	2905	283.526242112097	1
4	2910	283.829436364007	2
4	2930	286.2	2
4	2935	286.6	3
4	2940	286.901133569052	2
4	2944	287.106743894695	1
4	2949	287.407237142448	2
4	2972	290.5	5
4	2975	290.7	1
4	2983	291.303619821167	5
4	2991	291.908542980442	5
4	2999	292.312900327825	3
4	3004	292.622704703199	2
4	3010	293.023281954204	3
4	3016	293.429872309475	3
4	3021	293.737109634562	2
4	3031	294.339834079726	5
4	3051	298.2	2
4	3055	298.5	2
4	3061	298.90948057807	3
4	3065	299.115909972062	1
4	3069	299.32458965541	1
4	3091	302.4	4
4	3094	302.6	1
4	3100	303.005309268673	3
4	3106	303.411021610711	3
4	3112	303.712229988589	2
4	3116	303.917624470519	1
4	3138	306.4	4
4	3141	306.6	1
4	3146	306.901156286539	2
4	3150	307.103293417126	1
4	3157	307.610365415564	4
4	3161	307.819453640418	1
4	3167	308.02460272274	1
4	3171	308.233045012376	1
4	3177	308.633316016399	3
4	3182	308.935764009143	2
4	3187	309.241391845271	2
4	3193	309.558141496618	2
4	3214	312.3	3
4	3220	312.704119163346	3
4	3225	313.006620582413	2
4	3230	313.316524872399	2
4	3236	313.720877635503	3
4	3243	314.022252913965	2
4	3249	314.422974588163	3
4	3271	318.4	4
4	3276	318.8	3
4	3283	319.301004774374	4
4	3290	319.80405293146	4
4	3299	320.311505923542	4
4	3303	320.512141297283	1
4	3307	320.718722064427	1
4	3312	321.027204327736	2
4	3333	324.3	3
4	3338	324.7	3
4	3343	325.004317562116	2
4	3348	325.313402656923	2
4	3352	325.522085102701	1
4	3356	325.731171506831	1
4	3364	326.138611201724	3
4	3383	330.1	1
4	3387	330.4	2
4	3392	330.701620042333	2
4	3396	330.903629865366	1
4	3400	331.11208525631	1
4	3405	331.422015168384	2
4	3409	331.626171591637	1
4	3432	334.5	5
4	3437	334.9	3
4	3445	335.502884177174	5
4	3451	335.911459109533	3
4	3470	338.1	1
4	3476	338.6	4
4	3484	339.007055156503	3
4	3490	339.310484079254	2
4	3495	339.617454593643	2
4	3518	342.5	5
4	3523	342.9	3
4	3532	343.607959128057	6
4	3541	344.110495253314	4
4	3549	344.710503062258	5
4	3555	345.027428884984	2
4	3559	345.228906155068	1
4	3563	345.437615655558	1
4	3568	345.738231946464	2
4	3576	346.054377316912	2
4	3597	350.3	3
4	3601	350.6	2
4	3610	351.30128709495	6
4	3621	352.002026919391	6
4	3628	352.511208752404	4
4	3633	352.816005630622	2
4	3639	353.218921068178	3
4	3645	353.624982510369	3
4	3650	353.926125845801	2
4	3660	354.535950964497	5
4	3665	354.842443949988	2
4	3672	355.342658648835	4
4	3677	355.650189304279	2
4	3682	355.955356771905	2
4	3704	358.4	4
4	3709	358.8	3
4	3713	359.008426084984	1
4	3718	359.316957819294	2
4	3742	362.6	6
4	3747	363	3
4	3752	363.303872915562	2
4	3757	363.608898460762	2
4	3766	364.11462812466	4
4	3770	364.322592545032	1
4	3791	368.3	3
4	3795	368.6	2
4	3802	369.101696178305	4
4	3809	369.608940148353	4
4	3813	369.812009600491	1
4	3820	370.118557159951	2
4	3841	374.3	3
4	3848	374.9	5
4	3853	375.204911075781	2
4	3858	375.511861612561	2
4	3862	375.715802500624	1
4	3866	375.920721233274	1
4	3888	378.4	4
4	3893	378.8	3
4	3899	379.2046741836	3
4	3905	379.611075884529	3
4	3914	380.115200553326	4
4	3921	380.621549464589	4
4	3925	380.824278389752	1
4	3933	381.428084788635	5
4	3956	384.5	5
4	3960	384.8	2
4	3964	385.003037806458	1
4	3968	385.206132716214	1
4	3976	385.814943088573	5
4	3983	386.118207206316	2
4	3987	386.321353042768	1
4	3993	386.628478240039	2
4	4016	390.5	5
4	4023	391.1	5
4	4027	391.302880990665	1
4	4034	391.811200504621	4
4	4042	392.218171290202	3
4	4049	392.720339481214	4
4	4070	396.3	3
4	4073	396.5	1
4	4077	396.70626237537	1
4	4081	396.906813145396	1
4	4085	397.112164188092	1
4	4090	397.418983580152	2
4	4095	397.728596618153	2
4	4103	398.134178373474	3
4	4107	398.342285007506	1
4	4127	402.2	2
4	4130	402.4	1
4	4135	402.702653949654	2
4	4139	402.91067109055	1
4	4146	403.416746158121	4
4	4151	403.724259992624	2
4	4155	403.932608452269	1
4	4176	406.3	3
4	4183	406.9	5
4	4191	407.408392453877	4
4	4195	407.608511667129	1
4	4205	408.214160238181	5
4	4212	408.714838319835	4
4	4219	409.216029768797	4
4	4227	409.825646514726	5
4	4238	410.430596401254	5
4	4258	414.2	2
4	4264	414.606598582493	3
4	4270	414.824027416326	1
4	4274	415.026394840264	1
4	4297	418.5	5
4	4302	418.9	3
4	4306	419.103339025578	1
4	4313	419.603961752515	4
4	4317	419.810969824839	1
4	4325	420.213124427133	3
4	4329	420.4150013543	1
4	4333	420.617318349586	1
4	4338	420.920646265624	2
4	4359	424.3	3
4	4364	424.7	3
4	4369	425.006555010664	2
4	4374	425.311951527182	2
4	4379	425.620353917317	2
4	4383	425.824748659192	1
4	4405	428.4	4
4	4409	428.7	2
4	4414	429.002877607597	2
4	4419	429.306842254816	2
4	4423	429.51542944352	1
4	4445	432.4	4
4	4450	432.8	3
4	4455	433.106372521109	2
4	4460	433.414474307886	2
4	4465	433.721849124644	2
4	4473	434.122005719589	3
4	4479	434.52369845523	3
4	4485	434.828087559514	2
4	4490	435.044347357621	1
4	4494	435.246526889495	1
4	4513	438.2	2
4	4517	438.5	2
4	4522	438.800828235282	2
4	4527	439.101796739506	2
4	4532	439.411434233923	2
4	4538	439.724627106459	2
4	4560	442.4	4
4	4564	442.7	2
4	4570	443.103953849382	3
4	4575	443.411429068171	2
4	4579	443.613902093548	1
4	4583	443.814986560001	1
4	4589	444.023209689423	1
4	4593	444.225878712395	1
4	4599	444.634630486676	3
4	4622	448.5	5
4	4625	448.7	1
4	4632	449.203436202739	4
4	4639	449.70377047134	4
4	4649	450.305060309184	5
4	4655	450.706109523857	3
4	4662	451.211058221037	4
4	4684	454.4	4
4	4688	454.7	2
4	4693	455.001207110844	2
4	4697	455.20315109993	1
4	4703	455.606623174046	3
4	4711	456.009666589331	3
4	4715	456.216811600208	1
4	4720	456.524385364099	2
4	4740	460.2	2
4	4743	460.4	1
4	4749	460.800493421554	3
4	4754	461.102253556376	2
4	4760	461.512095975772	3
4	4781	464.3	3
4	4785	464.6	2
4	4791	465.008874623454	3
4	4795	465.209503857297	1
4	4799	465.412487127253	1
4	4803	465.618381591018	1
4	4808	465.927503144447	2
4	4815	466.23391342892	2
4	4821	466.63977026268	3
4	4826	466.94693201636	2
4	4846	470.2	2
4	4850	470.5	2
4	4856	470.906646709658	3
4	4861	471.214387281443	2
4	4866	471.5238812964	2
4	4872	471.933513048038	3
4	4881	472.24606855862	2
4	4886	472.548488156145	2
4	4890	472.75178577748	1
4	4913	476.5	5
4	4920	477.1	5
4	4926	477.50799586408	3
4	4932	477.912301329168	3
4	4939	478.218368214022	2
4	4961	482.4	4
4	4965	482.7	2
4	4972	483.202217157105	4
4	4977	483.511317763781	2
4	4982	483.814225217025	2
4	4990	484.217225835437	3
4	4996	484.625326658095	3
4	5002	485.029170461961	3
4	5023	488.3	3
4	5030	488.9	5
4	5037	489.404820978485	4
4	5042	489.711865942056	2
4	5049	490.020901019095	2
4	5054	490.321591368239	2
4	5059	490.628725542545	2
4	5064	490.938441262983	2
4	5070	491.244952184286	2
4	5075	491.554533372205	2
4	5080	491.856755879463	2
4	5087	492.165610458496	2
4	5105	496.1	1
4	5110	496.402881228101	2
4	5115	496.711241797056	2
4	5120	497.014982090632	2
4	5125	497.323958326505	2
4	5129	497.529056003488	1
4	5133	497.735775567605	1
4	5140	498.039695348371	2
4	5145	498.347749233561	2
4	5151	498.649080220325	2
4	5156	498.958379413156	2
4	5177	502.3	3
4	5183	502.8	4
4	5190	503.302858567703	4
4	5194	503.512389746689	1
4	5198	503.713943463066	1
4	5207	504.223259574068	4
4	5212	504.532164152409	2
4	5217	504.749816164015	1
4	5241	508.6	6
4	5247	509.1	4
4	5251	509.30323761316	1
4	5262	510.005516788144	6
4	5267	510.308522310628	2
4	5272	510.611835452952	2
4	5292	514.2	2
4	5295	514.4	1
4	5299	514.607816748213	1
4	5303	514.816612932557	1
4	5308	515.126323397833	2
4	5312	515.332912388484	1
4	5317	515.637635929014	2
4	5325	516.045630192148	3
4	5331	516.446032015172	3
4	5351	520.2	2
4	5356	520.6	3
4	5362	521.009808596351	3
4	5368	521.321568335674	2
4	5390	524.4	4
4	5396	524.9	4
4	5402	525.309262161834	3
4	5407	525.613812990842	2
4	5412	525.921956608229	2
4	5434	528.4	4
4	5437	528.6	1
4	5442	528.905854873268	2
4	5448	529.314275272148	3
4	5454	529.714678853037	3
4	5462	530.123744471363	3
4	5467	530.426443529162	2
4	5474	530.930257579023	4
4	5478	531.136102085818	1
4	5497	534.1	1
4	5501	534.4	2
4	5506	534.611486909617	1
4	5511	534.820442042554	1
4	5532	538.3	3
4	5536	538.6	2
4	5543	539.10790353466	4
4	5551	539.712625876038	5
4	5558	540.018377317466	2
4	5580	544.4	4
4	5585	544.8	3
4	5591	545.202509361945	3
4	5597	545.604943155014	3
4	5602	545.905017045981	2
4	5610	546.312766292351	3
4	5616	546.717191888927	3
4	5634	550.3	3
4	5638	550.6	2
4	5642	550.808260527784	1
4	5646	551.009592408789	1
4	5652	551.414535075707	3
4	5657	551.715226048693	2
4	5664	552.022496866668	2
4	5685	556.3	3
4	5688	556.5	1
4	5695	557.009148823192	4
4	5700	557.316840225771	2
4	5704	557.524745047004	1
4	5709	557.831769358387	2
4	5718	558.340133124395	4
4	5723	558.648471243575	2
4	5743	562.4	4
4	5749	562.801760951871	3
4	5754	563.101899911925	2
4	5759	563.402335731033	2
4	5764	563.712217595237	2
4	5774	564.312226661988	5
4	5796	568.4	4
4	5801	568.8	3
4	5807	569.208447291934	3
4	5811	569.414002594751	1
4	5817	569.816864296392	3
4	5823	570.018344152191	1
4	5846	574.5	5
4	5849	574.7	1
4	5853	574.904562433916	1
4	5857	575.113739847375	1
4	5861	575.315708128229	1
4	5866	575.621555751544	2
4	5870	575.830136879564	1
4	5876	576.037359957643	1
4	5896	580.2	2
4	5900	580.5	2
4	5906	580.906140933458	3
4	5912	581.315924147814	3
4	5918	581.719609151663	3
4	5940	584.4	4
4	5945	584.8	3
4	5950	585.100779094737	2
4	5956	585.504404586673	3
4	5960	585.710945955368	1
4	5980	588.2	2
4	5984	588.5	2
4	5989	588.808933479622	2
4	5993	589.017764085241	1
4	6012	592.1	1
4	6015	592.3	1
4	6020	592.600305717645	2
4	6024	592.802515006243	1
4	6028	593.004902452775	1
4	6032	593.214809130942	1
4	6037	593.515538946897	2
4	6046	594.024735449046	4
4	6066	598.2	2
4	6070	598.5	2
4	6076	598.905813138189	3
4	6084	599.513711662708	5
4	6107	602.5	5
4	6111	602.8	2
4	6116	603.107078212401	2
4	6121	603.414760834375	2
4	6128	603.915390904993	4
4	6136	604.321761415677	3
4	6143	604.829342699907	4
4	6148	605.130463488038	2
4	6155	605.637746941432	4
4	6160	605.944950889231	2
4	6169	606.445304566794	4
4	6174	606.746479243405	2
4	6178	606.946690977899	1
4	6200	610.4	4
4	6203	610.6	1
4	6207	610.805733726993	1
4	6212	611.112975651011	2
4	6216	611.318605437406	1
4	6221	611.625884000946	2
4	6225	611.832868281009	1
4	6247	614.4	4
4	6252	614.8	3
4	6258	615.203233762793	3
4	6264	615.603879985839	3
4	6272	616.004178988315	3
4	6276	616.204580966782	1
4	6283	616.705541418241	4
4	6289	617.106317009923	3
4	6296	617.610780346134	4
4	6316	620.2	2
4	6319	620.4	1
4	6324	620.70375564919	2
4	6331	621.20538839151	4
4	6337	621.513147470609	2
4	6342	621.814360075958	2
4	6349	622.120459287629	2
4	6354	622.42434718425	2
4	6358	622.6341214184	1
4	6363	622.937082127004	2
4	6367	623.139309349855	1
4	6372	623.446057630107	2
4	6377	623.755175978129	2
4	6384	624.056741704859	2
4	6403	628.2	2
4	6408	628.6	3
4	6414	628.910857095857	2
4	6421	629.41265554763	4
4	6442	632.3	3
4	6450	633	6
4	6455	633.30258308781	2
4	6461	633.708535799681	3
4	6468	634.015405434948	2
4	6491	638.5	5
4	6496	638.9	3
4	6504	639.502177956942	5
4	6509	639.805158087943	2
4	6516	640.108343652229	2
4	6536	644.2	2
4	6540	644.5	2
4	6546	644.808197904761	2
4	6552	645.212254533654	3
4	6558	645.615159351898	3
4	6566	646.018391539848	3
4	6573	646.519505261399	4
4	6578	646.82021264126	2
4	6583	647.12510688858	2
4	6607	650.6	6
4	6613	651.1	4
4	6620	651.609551013689	4
4	6624	651.809725963081	1
4	6634	652.416722306894	5
4	6656	656.4	4
4	6659	656.6	1
4	6663	656.80063997562	1
4	6669	657.207450708262	3
4	6673	657.409928385249	1
4	6680	657.910702696702	4
4	6688	658.315422106707	3
4	6708	662.2	2
4	6712	662.5	2
4	6716	662.704709473752	1
4	6720	662.90485414602	1
4	6725	663.21030738063	2
4	6729	663.413992217304	1
4	6735	663.822622188827	3
4	6744	664.230137650022	3
4	6765	668.3	3
4	6769	668.6	2
4	6773	668.808044669975	1
4	6778	669.112185533249	2
4	6783	669.418718770986	2
4	6787	669.621761433434	1
4	6793	669.935904735825	2
4	6801	670.337365852917	3
4	6806	670.64090627008	2
4	6827	674.4	4
4	6830	674.6	1
4	6835	674.903726478705	2
4	6840	675.20664592669	2
4	6846	675.608187502835	3
4	6851	675.909733236819	2
4	6858	676.218684672958	2
4	6881	680.5	5
4	6884	680.7	1
4	6889	681.001254865995	2
4	6894	681.307735794691	2
4	6898	681.509696253993	1
4	6908	682.10994691686	5
4	6916	682.710177400987	5
4	6934	686.3	3
4	6937	686.5	1
4	6941	686.706138543379	1
4	6945	686.908872857251	1
4	6950	687.210196525856	2
4	6954	687.41576540218	1
4	6959	687.722260618112	2
4	6968	688.130418215908	3
4	6973	688.431637351856	2
4	6978	688.733739664224	2
4	6998	692.2	2
4	7002	692.5	2
4	7007	692.800461357664	2
4	7012	693.107537072964	2
4	7019	693.517433089004	3
4	7023	693.721133923388	1
4	7027	693.925803783435	1
4	7047	696.2	2
4	7050	696.4	1
4	7056	696.80077255571	3
4	7062	697.201374426148	3
4	7067	697.508221001882	2
4	7090	700.5	5
4	7096	701	4
4	7101	701.306316525381	2
4	7105	701.511098466463	1
4	7110	701.817822938362	2
4	7117	702.126348687641	2
4	7137	706.2	2
4	7141	706.5	2
4	7148	707.00297019117	4
4	7156	707.608991012996	5
4	7167	708.21652778304	5
4	7173	708.621989670927	3
4	7179	709.025043737101	3
4	7187	709.527284577725	4
4	7197	710.129536930626	5
4	7205	710.736526971259	5
4	7215	711.44550367956	6
4	7221	711.855224211697	3
4	7242	714.3	3
4	7249	714.9	5
4	7257	715.507978655342	5
4	7266	716.016355055631	4
4	7275	716.718176500762	6
4	7283	717.327624614198	5
4	7291	717.931055786086	5
4	7309	720.3	3
4	7315	720.700171645209	3
4	7320	721.003442660814	2
4	7324	721.20677534555	1
4	7328	721.413205176747	1
4	7333	721.720916933479	2
4	7343	722.329262793647	5
4	7362	726.1	1
4	7365	726.3	1
4	7370	726.60719737102	2
4	7378	727.120243655831	4
4	7382	727.327297769551	1
4	7389	727.828296213335	4
4	7398	728.240360642832	3
4	7404	728.641740126146	3
4	7422	732	0
4	7426	732.3	2
4	7430	732.508588421915	1
4	7435	732.811341560964	2
4	7440	733.11686850627	2
4	7445	733.328674577735	1
4	7452	733.741665366698	3
4	7459	734.050950327544	2
4	7465	734.359254057843	2
4	7473	734.964129701683	5
4	7493	738.2	2
4	7497	738.5	2
4	7502	738.805735299172	2
4	7508	739.118151722993	2
4	7514	739.521315470685	3
4	7518	739.723142311303	1
4	7526	740.124572050401	3
4	7547	744.3	3
4	7550	744.5	1
4	7555	744.801291935327	2
4	7560	745.107116348146	2
4	7582	748.4	4
4	7587	748.8	3
4	7596	749.50043205497	6
4	7606	750.108866058424	5
4	7614	750.715344516293	5
4	7620	751.116715623669	3
4	7641	754.3	3
4	7649	755	6
4	7659	755.8015158814	7
4	7671	756.60304947385	7
4	7676	756.906005396513	2
4	7684	757.515235733881	5
4	7689	757.817679718935	2
4	7695	758.026935247117	1
4	7717	762.4	4
4	7721	762.7	2
4	7727	763.106113360705	3
4	7733	763.511455796679	3
4	7738	763.821302317347	2
4	7747	764.131414261588	2
4	7753	764.443749431771	2
4	7757	764.647710259364	1
4	7763	765.05081165567	3
4	7769	765.366084446803	2
4	7773	765.569698469267	1
4	7794	768.3	3
4	7798	768.6	2
4	7802	768.808204148975	1
4	7808	769.215126944025	3
4	7812	769.416039268496	1
4	7816	769.618140671039	1
4	7838	772.4	4
4	7843	772.8	3
4	7848	773.101560693613	2
4	7853	773.403929234409	2
4	7858	773.712649457509	2
4	7881	776.5	5
4	7886	776.9	3
4	7891	777.20713031897	2
4	7896	777.419974857788	1
4	7901	777.72548935804	2
4	7908	778.0308625094	2
4	7912	778.232037061144	1
4	7922	778.852618197405	5
4	7941	782.1	1
4	7945	782.304832477548	1
4	7949	782.505570608404	1
4	7954	782.717523632075	1
4	7958	782.920351782443	1
4	7963	783.225284531362	2
4	7968	783.527684197783	2
4	7989	786.3	3
4	7993	786.503575153127	1
4	7997	786.713019532039	1
4	8004	787.219869433722	4
4	8009	787.524013277382	2
4	8014	787.827121099288	2
4	8021	788.137096937572	2
4	8027	788.446960786432	2
4	8032	788.750267004047	2
4	8037	789.052978972431	2
4	8059	792.4	4
4	8062	792.6	1
4	8067	792.908491222409	2
4	8071	793.112878824858	1
4	8077	793.51924528261	3
4	8082	793.819628622963	2
4	8089	794.120352321961	2
4	8111	798.4	4
4	8117	798.9	4
4	8122	799.209609248952	2
4	8126	799.415768473003	1
4	8131	799.72377177548	2
4	8138	800.027698931883	2
4	8156	804	0
4	8161	804.4	3
4	8166	804.701827871354	2
4	8171	805.001858331143	2
4	8179	805.422167587822	3
4	8185	805.828837297383	3
4	8193	806.132307101418	2
4	8198	806.439737723942	2
4	8216	810.2	2
4	8221	810.6	3
4	8229	811.10927115182	4
4	8235	811.419458932564	2
4	8246	812.127754756721	6
4	8251	812.43586184088	2
4	8258	812.941890275022	4
4	8262	813.151853891422	1
4	8266	813.355816257961	1
4	8272	813.759964457265	3
4	8295	816.5	5
4	8300	816.9	3
4	8304	817.10604610579	1
4	8312	817.715808687577	5
4	8316	817.922676437205	1
4	8325	818.429956002434	4
4	8345	822.2	2
4	8349	822.5	2
4	8353	822.707698851742	1
4	8357	822.913553786836	1
4	8361	823.114462946617	1
4	8367	823.421352289258	2
4	8372	823.728001549681	2
4	8380	824.134159327432	3
4	8400	828.2	2
4	8405	828.6	3
4	8409	828.806618938054	1
4	8414	829.108698060506	2
4	8421	829.618518455732	4
4	8430	830.120253940562	4
4	8449	834.1	1
4	8455	834.6	4
4	8460	834.81140664199	1
4	8464	835.011649620627	1
4	8468	835.21250283045	1
4	8473	835.51456052771	2
4	8479	835.91850905123	3
4	8501	838.4	4
4	8506	838.8	3
4	8513	839.309518423045	4
4	8517	839.512636512398	1
4	8538	842.3	3
4	8544	842.8	4
4	8549	843.108271948699	2
4	8555	843.515263886984	3
4	8561	843.924866435487	3
4	8568	844.225592035901	2
4	8574	844.627292276274	3
4	8578	844.837264927015	1
4	8600	848.4	4
4	8605	848.8	3
4	8610	849.103014632014	2
4	8616	849.510251798056	3
4	8622	849.912685969221	3
4	8629	850.216810323952	2
4	8650	854.3	3
4	8653	854.5	1
4	8657	854.705447731586	1
4	8661	854.914753345856	1
4	8665	855.117567890353	1
4	8673	855.626045361459	4
4	8678	855.932496539535	2
4	8686	856.34071079329	3
4	8691	856.645049731744	2
4	8696	856.853599264037	1
4	8703	857.258949732409	3
4	8723	860.2	2
4	8727	860.5	2
4	8732	860.708760546598	1
4	8739	861.217201656853	4
4	8746	861.628368923556	3
4	8750	861.837807299009	1
4	8756	862.040497955026	1
4	8762	862.444607519989	3
4	8784	866.4	4
4	8790	866.9	4
4	8797	867.405200112112	4
4	8807	868.007765160868	5
4	8811	868.20889612137	1
4	8818	868.617224818938	3
4	8825	869.126762698932	4
4	8831	869.533949012138	3
4	8853	872.4	4
4	8857	872.7	2
4	8861	872.901182700516	1
4	8866	873.20393075521	2
4	8870	873.408001687311	1
4	8874	873.609941822626	1
4	8878	873.813511708476	1
4	8886	874.214936467457	3
4	8906	878.2	2
4	8912	878.7	4
4	8917	879.007667229727	2
4	8922	879.314660041981	2
4	8926	879.520143717414	1
4	8932	879.928143055788	3
4	8941	880.434546595606	4
4	8961	884.2	2
4	8964	884.4	1
4	8970	884.70887488952	2
4	8976	885.114836512793	3
4	8996	888.2	2
4	9001	888.6	3
4	9006	888.902322617524	2
4	9011	889.208856393645	2
4	9017	889.520428349895	2
4	9026	890.026913598959	4
4	9032	890.427545617019	3
4	9038	890.831347648337	3
4	9046	891.440757546185	5
4	9052	891.850474326284	3
4	9072	894.2	2
4	9079	894.8	5
4	9085	895.206850005937	3
4	9093	895.809553733143	5
4	9099	896.018007799879	1
4	9103	896.226779498211	1
4	9110	896.735789578908	4
4	9115	897.040905818936	2
4	9121	897.447953163389	3
4	9126	897.756832056163	2
4	9130	897.958480315374	1
4	9150	900.2	2
4	9155	900.6	3
4	9161	901.007642317165	3
4	9167	901.411442077553	3
4	9172	901.717723919592	2
4	9179	902.022563506987	2
4	9185	902.427401879383	3
4	9191	902.831444887555	3
4	9212	906.3	3
4	9216	906.6	2
4	9222	907.009450393952	3
4	9227	907.310572000734	2
4	9233	907.718053754532	3
4	9237	907.918448845379	1
4	9257	910.2	2
4	9260	910.4	1
4	9265	910.703291951706	2
4	9272	911.209346319496	4
4	9294	914.4	4
4	9301	915	5
4	9308	915.506676888542	4
4	9313	915.814957983555	2
4	9321	916.222391165041	3
4	9325	916.42863455771	1
4	9330	916.733307519501	2
4	9337	917.236236641671	4
4	9346	917.945798701256	6
4	9367	920.3	3
4	9371	920.6	2
4	9376	920.902174597235	2
4	9381	921.206724843407	2
4	9386	921.516655286802	2
4	9390	921.717072051386	1
4	9394	921.923668353778	1
4	9400	922.130873926276	1
4	9408	922.636467306916	4
4	9429	926.3	3
4	9432	926.5	1
4	9438	926.909797065302	3
4	9443	927.218334014848	2
4	9448	927.52442613721	2
4	9453	927.824733093037	2
4	9460	928.125644333093	2
4	9466	928.530869316792	3
4	9489	932.5	5
4	9493	932.8	2
4	9499	933.207138985567	3
4	9505	933.610729176198	3
4	9509	933.816576906552	1
4	9530	936.3	3
4	9534	936.6	2
4	9539	936.904605023441	2
4	9545	937.309894676789	3
4	9549	937.51472649131	1
4	9553	937.72332834752	1
4	9557	937.928598363059	1
4	9564	938.232765874883	2
4	9569	938.437958683959	1
4	9591	942.4	4
4	9596	942.8	3
4	9600	943.006068268835	1
4	9605	943.313045291104	2
4	9610	943.618924710268	2
4	9621	944.225835412509	5
4	9640	948.1	1
4	9644	948.30275717426	1
4	9651	948.715214003463	3
4	9656	949.01542374258	2
4	9678	952.4	4
4	9683	952.8	3
4	9687	953.002113741193	1
4	9694	953.419135337358	3
4	9700	953.826269815152	3
4	9708	954.228892469226	3
4	9712	954.434200487231	1
4	9718	954.843283060089	3
4	9723	955.15107651151	2
4	9731	955.753034892927	5
4	9752	958.3	3
4	9755	958.5	1
4	9759	958.703419942066	1
4	9765	959.106114229503	3
4	9769	959.310597154152	1
4	9775	959.620605551647	2
4	9797	962.4	4
4	9802	962.8	3
4	9807	963.104987972511	2
4	9814	963.610174869636	4
4	9819	963.914995221539	2
4	9828	964.416768053371	4
4	9833	964.72281135372	2
4	9838	965.026508750271	2
4	9844	965.433650113479	3
4	9866	968.4	4
4	9870	968.7	2
4	9875	968.9123851065	1
4	9881	969.31950518037	3
4	9885	969.519947232054	1
4	9890	969.827864443149	2
4	9912	972.4	4
4	9916	972.7	2
4	9921	973.007849573341	2
4	9926	973.314673771142	2
4	9930	973.521046596081	1
4	9934	973.729749665725	1
4	9957	976.5	5
4	9962	976.9	3
4	9969	977.409163271773	4
4	9975	977.816672333059	3
4	9982	978.120851127702	2
4	10006	982.6	6
4	10010	982.9	2
4	10014	983.100946013056	1
4	10020	983.510609704234	3
4	10024	983.719212365424	1
4	10031	984.026299849027	2
4	10037	984.430968179353	3
4	10059	988.4	4
4	10063	988.7	2
4	10070	989.201558311514	4
4	10075	989.509679251087	2
4	10079	989.71488805402	1
4	10087	990.122954993379	3
4	10109	994.4	4
4	10113	994.7	2
4	10117	994.902637883117	1
4	10125	995.509819950717	5
4	10145	998.2	2
4	10150	998.6	3
4	10155	998.902791814068	2
4	10159	999.103899595646	1
4	10164	999.409084549154	2
4	10171	999.915060798466	4
4	10190	1002.1	1
4	10197	1002.609780572298	4
4	10204	1003.116802415416	4
4	10209	1003.419666396669	2
4	10213	1003.627978346143	1
4	10236	1006.5	5
4	10241	1006.9	3
4	10247	1007.30247719174	3
4	10255	1007.905419791021	5
4	10263	1008.305881141933	3
4	10268	1008.614061963901	2
4	10290	1012.4	4
4	10294	1012.7	2
4	10299	1013.00639084408	2