version 2
run Join-96-20130429-13:09:26-17679
attr configname Join
attr datetime 20130429-13:09:26
attr experiment "\"Join\""
attr inifile omnetpp.ini
attr iterationvars $0=16384
attr iterationvars2 "$0=16384, $repetition=6"
attr measurement $0=16384
attr network Network
attr processid 17679
attr repetition 6
attr replication #6
attr resultdir results
attr runnumber 96
attr seedset 96

vector 96  Network.dyn_peer[0]  lookupHopsSig:vector  ETV
96	43535	22.513724215629	33
96	43605	28.716123304944	61
96	43649	32.525264801289	37
96	43692	36.228204277431	36
96	43742	40.6329563465	43
96	43800	45.835316622891	51
96	44014	66	180
96	44038	68.1	20
96	44071	71.007987765842	28
96	44103	73.812201689579	27
96	44124	75.517377781352	16
96	44144	77.121475405891	15
96	44182	80.327641547385	31
96	44268	90.5	65
96	44331	96.1	55
96	44453	107.104195270948	109
96	44567	117.310958594384	101
96	44654	122.3	23
96	44913	134.3	119
96	44991	137.907677795363	35
96	45071	143.211790868963	52
96	45171	152.018446386039	87
96	45304	160.7	47
96	45400	169.4	86
96	45462	174.80000622861	53
96	45525	180.300637815384	54
96	45591	186.101210179835	57
96	45641	190.505648561246	43
96	45679	193.91347566203	33
96	45699	196.5	5
96	45753	201.4	48
96	45798	205.305018879899	38
96	45863	211.005523597055	56
96	45945	218.20631682862	71
96	46030	225.913176703268	76
96	46076	229.919493851935	39
96	46140	235.523204639098	55
96	46197	240.428026606729	48
96	46241	244.229378513919	37
96	46296	249.131905157977	48
96	46353	254.035864478772	48
96	46609	268.3	103
96	46632	269.4	10
96	46687	272.903005178121	34
96	46732	276.803838930972	38
96	46853	287.711624608753	108
96	46907	292.31859399596	45
96	46953	296.323190251679	39
96	47004	300.823561215975	44
96	47056	305.433143468812	45
96	47094	308.63642961819	31
96	47153	313.940418490288	52
96	47258	323.247583049296	92
96	47468	343.6	176
96	47554	351.3	76
96	47579	353.40151399783	20
96	47595	354.6081973262	11
96	47624	357.111849855786	24
96	47651	359.411908522067	22
96	47685	362.218598437984	27
96	47740	369.8	38
96	47777	373	31
96	47827	377.408641862017	43
96	47863	380.412915122357	29
96	47890	382.719636028217	22
96	47939	387.02437930181	42
96	48016	393.927047145947	68
96	48109	403.2	72
96	48177	409.3	60
96	48250	415.809477048907	64
96	48278	418.019274231302	21
96	48336	423.222446951995	51
96	48389	427.931653958627	46
96	48447	432.931710195099	49
96	48510	438.435442945009	54
96	48561	442.941816725078	44
96	48652	451.044461222206	80
96	48676	453.054184997592	19
96	48722	457.063575302854	39
96	48767	460.965252969484	38
96	48810	464.670499382701	36
96	48935	477.9	99
96	49024	485.9	79
96	49066	489.509216543389	35
96	49147	496.616338793341	70
96	49232	504.120173777573	74
96	49270	507.524949820403	33
96	49307	510.626559164321	30
96	49373	516.428923793746	57
96	49400	518.729258009003	22
96	49641	542.3	203
96	49663	544.2	18
96	49692	546.709157927124	24
96	49742	551.111864254252	43
96	49796	555.915516788345	47
96	49952	569.916606213096	139
96	50016	575.524305888134	55
96	50032	576.72626154505	11
96	50073	580.231325336033	34
96	50118	584.135734504207	38
96	50158	587.741894312307	35
96	50193	590.643251569943	28
96	50369	600.5	65
96	50414	602.6	20
96	50466	605.004265410001	23
96	50508	606.908958805487	18
96	50552	608.812372855215	18
96	50586	610.320209408739	14
96	50629	612.227822432775	18
96	50947	628.5	125
96	51022	633.9	53
96	51057	636.802245003886	28
96	51110	641.506833181867	46
96	51208	650.114287696547	85
96	51286	657.121224298485	69
96	51373	664.829115110252	76
96	51412	668.136370209933	32
96	51506	676.54149887359	83
96	51532	678.74382681407	21
96	51646	691	90
96	51689	694.8	37
96	51753	700.400683101557	55
96	51799	704.406978877006	39
96	51841	708.016811142925	35
96	51893	712.625673890514	45
96	51960	718.527944597992	58
96	51980	720.133810845633	15
96	52043	725.843026667159	56
96	52071	728.051936460759	21
96	52091	729.861621968043	17
96	52116	731.9690170394	20
96	52130	732.975104531389	9
96	52199	739.080068748671	60
96	52307	748.687512151471	95
96	52338	751.388163293635	26
96	52381	755.090608765115	36
96	52436	759.994375531899	48
96	52507	768.8	48
96	52607	777.9	90
96	52672	783.609449380268	56
96	52714	787.219139674908	35
96	52765	791.721028129096	44
96	52916	805.228447294941	134
96	52988	811.631420187347	63
96	53027	814.931982495994	32
96	53071	818.739177425433	37
96	53147	825.541110411646	67
96	53210	831.050395651099	54
96	53251	834.552412545171	34
96	53318	842.6	46
96	53375	847.8	51
96	53474	856.504752571173	86
96	53560	864.109580310066	75
96	53710	877.71672493698	135
96	53757	881.824171693496	40
96	53856	890.531338154907	86
96	54213	909	150
96	54300	913	39
96	54358	915.709775629846	26
96	54430	918.91751965369	31
96	54556	926.322176815642	73
96	54605	930.625780486017	42
96	54629	932.625899585894	19
96	54683	939.7	37
96	54743	945	52
96	54820	951.900488503668	68
96	54936	962.105053987055	101
96	54982	966.106058926863	39
96	55079	974.810516526509	86
96	55125	978.813135079306	39
96	55202	985.713469958642	68
96	55314	996.6	86
96	55368	1001.5	48
96	55424	1006.303994300072	47
96	55480	1011.307135447075	49
96	55530	1015.711524634379	43
96	55574	1019.512804632784	37
96	55614	1022.918166189525	33
96	55678	1028.524213480016	55
96	55715	1031.832393354042	32
96	55774	1036.940847010672	50
96	55957	1055.1	151
96	55975	1056.6	14
96	56033	1061.80205026824	51
96	56049	1063.004972751403	11
96	56092	1066.714192080334	36
96	56167	1073.417791567162	66
96	56187	1075.021244653811	15
96	56237	1081.3	33
96	56297	1086.6	52
96	56341	1090.408138611803	37
96	56394	1095.110627946108	46
96	56455	1100.419030267213	52
96	56490	1103.525113561226	30
96	56557	1109.425886056919	58
96	56568	1110.128358992317	6
96	56658	1118.132459152019	79
96	56714	1123.139953659516	49
96	56754	1126.540007824317	33
96	56784	1129.14349110927	25
96	56821	1132.24507400261	30
96	56865	1136.049105749549	37
96	56879	1137.251271287453	11
96	56940	1144	40
96	57059	1154.8	107
96	57091	1157.601246638349	27
96	57177	1165.201561361655	75
96	57259	1172.408841084103	71
96	57329	1178.613520399591	61
96	57369	1182.017092791593	33
96	57449	1189.221178762868	71
96	57529	1196.223111286095	69
96	57605	1203.029636723812	67
96	57715	1209.5	35
96	57818	1214.3	47
96	57926	1219.400504261609	50
96	58015	1223.507978901688	40
96	58119	1228.317667458301	47
96	58236	1233.720600075853	53
96	58325	1241.629293119801	78
96	58368	1245.329965271226	36
96	58408	1248.738647720187	33
96	58505	1257.444326753115	86
96	58550	1261.349771856397	38
96	58632	1268.552988669983	71
96	58657	1270.655553977562	20
96	58746	1280.6	66
96	58787	1284.2	35
96	58799	1285.201623973008	9
96	58846	1289.307027813675	40
96	58895	1293.612082308932	42
96	58949	1298.214558398926	45
96	58984	1301.316966969293	30
96	59034	1305.716988561313	43
96	59076	1310.4	24
96	59152	1317.3	68
96	59237	1324.80013255978	74
96	59304	1330.704297871931	58
96	59369	1336.406691570153	56
96	59435	1342.214015930801	57
96	59540	1351.723042690116	94
96	59613	1358.031599248449	62
96	59656	1361.932199982294	38
96	59723	1367.842183325068	58
96	59787	1373.442204548035	55
96	59846	1378.547383021559	50
96	59901	1383.452575443152	48
96	60056	1398.6	126
96	60088	1401.5	28
96	60141	1406.005512757163	44
96	60190	1410.311741216088	42
96	60241	1414.81470756006	44
96	60271	1417.418317505775	25
96	60355	1424.820764321395	73
96	60486	1436.529490777064	116
96	60524	1439.932676671772	33
96	60557	1442.641579138809	26
96	60776	1454.4	84
96	60889	1459.5	50
96	60931	1463.105395246935	35
96	61033	1472.114038271235	89
96	61071	1475.517744832135	33
96	61102	1478.02587231268	24
96	61204	1487.231134663671	91
96	61225	1488.938996417477	16
96	61309	1496.340345989576	73
96	61412	1505.645364873307	92
96	61436	1508.7	7
96	61481	1512.7	39
96	61558	1519.606250439407	68
96	61623	1525.315582255688	56
96	61723	1534.12360544949	87
96	61763	1537.725938554007	35
96	61825	1543.134753473837	53
96	61914	1551.043443488304	78
96	62114	1570.6	166
96	62145	1573.4	27
96	62182	1576.507029294318	30
96	62216	1579.509031924281	29
96	62323	1589.017672299716	94
96	62347	1591.022977869253	19
96	62417	1597.229634400157	61
96	62578	1611.735634859742	144
96	62724	1617.1	31
96	62791	1620.2	30
96	62885	1624.605497571669	43
96	62933	1628.006204535543	33
96	62969	1631.212546596155	31
96	63000	1633.919547378358	26
96	63030	1636.325156518113	23
96	63142	1648.9	89
96	63201	1654.1	51
96	63227	1656.305665378987	21
96	63251	1658.307110652043	19
96	63278	1660.616297806791	22
96	63327	1664.918315741176	42
96	63358	1667.622633133405	26
96	63442	1675.025454330854	73
96	63479	1678.130727078735	30
96	63496	1679.630823197448	14
96	63644	1692.836627210315	131
96	63742	1698.9	29
96	63787	1701	20
96	63901	1706.205025729185	51
96	64027	1712.008897660048	57
96	64137	1717.117830106575	50
96	64273	1723.524016074581	63
96	64415	1735.92718336728	123
96	64442	1738.035408007454	20
96	64558	1748.435964677536	103
96	64589	1751.143688864777	26
96	64611	1752.952808512231	17
96	64699	1760.762731100549	77
96	64717	1762.170295213023	13
96	64791	1768.771911149504	65
96	64840	1774.9	29
96	64932	1783.2	82
96	65003	1789.508270360152	62
96	65115	1799.514432649092	99
96	65230	1809.817407272154	102
96	65292	1815.225925040222	53
96	65389	1823.931985608155	86
96	65428	1827.24173990393	32
96	65534	1836.643116408611	93
96	65640	1846.047216063534	93
96	65683	1849.948197174334	38
96	65760	1856.653672313099	66
96	65832	1865.2	52
96	65892	1870.5	52
96	65908	1871.908677111566	13
96	65926	1873.308713657541	13
96	65999	1879.816169295682	64
96	66066	1885.725460820273	58
96	66106	1889.130055336635	33
96	66137	1891.830866876455	26
96	66215	1898.635722084502	67
96	66267	1903.240590972909	45
96	66287	1904.843920118356	15
96	66373	1912.4513763052	75
96	66469	1923.2	72
96	66519	1927.7	44
96	66597	1934.507392604402	67
96	66618	1936.20959576619	16
96	66679	1941.718186759472	54
96	66737	1946.727444467254	49
96	66783	1950.728150075746	39
96	66840	1955.837221675715	50
96	66898	1960.845672208393	49
96	66916	1962.251954907747	13
96	67012	1970.858952343806	85
96	67082	1977.065824184205	61
96	67112	1979.674796712455	25
96	67212	1985	30
96	67364	1992.1	70
96	67514	1999.000516327386	68
96	67620	2003.90626519627	48
96	67672	2006.215394103546	22
96	67786	2011.521344434575	52
96	67856	2014.630632830937	30
96	67908	2017.034607151597	23
96	67951	2018.941596317295	18
96	68104	2026.943327174299	79
96	68126	2028.748335916819	17
96	68298	2046.2	142
96	68386	2054.1	78
96	68445	2059.401161662002	52
96	68531	2067.004720027874	75
96	68550	2068.514591605904	14
96	68635	2076.021564806998	74
96	68725	2084.031382465469	79
96	68828	2096	80
96	68876	2100.3	42
96	68908	2103.101302812462	27
96	68954	2107.103103007429	39
96	68985	2109.81083812887	26
96	69027	2113.411881766411	35
96	69053	2115.621282216984	21
96	69182	2128.4	104
96	69239	2133.6	51
96	69303	2139.20036833828	55
96	69416	2149.300556433234	100
96	69561	2162.202886624611	128
96	69599	2165.610031559166	33
96	69612	2166.516456710315	8
96	69667	2171.420953698808	48
96	69712	2175.33047473462	38
96	69773	2180.640177549488	52
96	69830	2185.745630461337	50
96	70089	2194.3	63
96	70129	2195.6	12
96	70255	2199.509003298182	38
96	70399	2204.013475847471	44
96	70500	2207.718230132333	36
96	70668	2216.018761304945	82
96	70682	2217.220895257841	11
96	70711	2219.730820556627	24
96	70740	2222.031591885575	22
96	70811	2228.337817932677	62
96	70894	2235.844900086598	74
96	71006	2245.854686370383	99
96	71019	2246.763672297904	8
96	71052	2249.668675135264	28
96	71093	2253.169393683363	34
96	71140	2257.269580371059	40
96	71206	2263.075443572169	57
96	71256	2269.1	31
96	71286	2271.8	26
96	71316	2274.207032816072	23
96	71460	2287.214695613309	129
96	71503	2290.917804168424	36
96	71584	2298.025030126016	70
96	71614	2300.631546459489	25
96	71628	2301.837794252447	11
96	71641	2302.746559115505	8
96	71658	2304.047365193971	12
96	71699	2307.748686934268	36
96	71719	2309.358435733333	15
96	71999	2319.1	71
96	72175	2324.6	54
96	72330	2331.001400866054	63
96	72478	2337.909258563117	68
96	72574	2342.210867433023	42
96	72710	2348.517804806359	62
96	72826	2353.921522671641	53
96	72912	2357.925934172559	39
96	72961	2361.631019416928	36
96	73133	2378.1	141
96	73203	2384.4	62
96	73323	2395.201166362182	107
96	73386	2400.705644349396	54
96	73411	2402.809666161996	20
96	73436	2404.917340168967	20
96	73495	2410.02030609339	50
96	73563	2416.029856629152	59
96	73639	2422.832720796241	67
96	73649	2423.633412937534	7
96	73701	2428.036330332551	43
96	73800	2439.5	75
96	73863	2445.1	55
96	73912	2449.407025924664	42
96	73950	2452.613069750137	31
96	74001	2457.113958413774	44
96	74018	2458.420679944002	12
96	74033	2459.729592195344	12
96	74053	2461.339487328124	15
96	74104	2465.846070889711	44
96	74215	2475.752824765256	98
96	74271	2480.557481842886	47
96	74313	2484.15946041099	35
96	74361	2488.363866245113	41
96	74384	2490.269820369158	18
96	74435	2494.775819834551	44
96	74452	2496.084362296188	12
96	74477	2498.18785916681	20
96	74492	2499.49059451283	12
96	74720	2521.3	193
96	74754	2524.2	28
96	74794	2527.802520345014	35
96	74834	2531.207955725358	33
96	74940	2540.613860439052	93
96	74998	2545.820948220318	51
96	75054	2550.625228749447	47
96	75096	2556.5	25
96	75149	2561.3	47
96	75189	2564.70592956186	33
96	75225	2567.911164788326	31
96	75261	2570.920911185368	29
96	75281	2572.525684171404	15
96	75308	2574.833338042328	22
96	75363	2579.737468278217	48
96	75444	2586.838743787964	70
96	75522	2593.845356661658	69
96	75660	2607.2	112
96	75679	2608.8	15
96	75735	2613.803570210991	49
96	75821	2621.410401185424	75
96	75849	2623.816233941657	23
96	75869	2625.425112353845	15
96	75914	2629.332488559952	38
96	75978	2636.5	45
96	76078	2645.6	90
96	76210	2657.400808752267	117
96	76308	2666.0052740045	85
96	76354	2670.011631577142	39
96	76381	2672.314300078625	22
96	76472	2680.42173360457	80
96	76520	2684.622007422866	41
96	76570	2689.024789195717	43
96	76593	2690.928137715267	18
96	76683	2698.933114100328	79
96	76748	2704.637683013352	56
96	76794	2708.641327980803	39
96	76888	2719.1	71
96	76985	2727.9	87
96	77057	2734.10582826856	61
96	77140	2741.607047281406	74
96	77192	2746.010855731771	43
96	77279	2753.913821078229	78
96	77298	2755.422346631695	14
96	77387	2763.32440694043	78
96	77531	2776.128872682368	127
96	77668	2784.7	47
96	77843	2792.8	80
96	77931	2797.201533116451	43
96	77975	2801.006769494199	37
96	78018	2804.713651272569	36
96	78081	2810.217827797115	54
96	78122	2813.918329443572	36
96	78229	2824.4	84
96	78293	2830.1	56
96	78384	2838.2018719085	80
96	78458	2844.809672632778	65
96	78520	2850.219140630764	53
96	78646	2861.623827278925	113
96	78711	2867.325428547422	56
96	78802	2875.43016348165	80
96	78888	2883.037513992693	75
96	78915	2885.345581779896	22
96	78980	2891.054402176869	56
96	79016	2894.061006304976	29
96	79193	2912.7	147
96	79261	2918.8	60
96	79325	2924.406876360541	55
96	79390	2930.107474322134	56
96	79457	2936.016272511218	58
96	79517	2941.41818192784	53
96	79586	2947.520375914983	60
96	79758	2964.3	143
96	79828	2970.6	62
96	79900	2977.009343992443	63
96	79964	2982.613721340165	55
96	80018	2987.415937245165	47
96	80082	2993.017825369819	55
96	80157	2999.72382409441	66
96	80218	3005.031845314183	52
96	80283	3010.739525594587	56
96	80332	3015.043926904864	42
96	80426	3023.44944610329	83
96	80506	3031.8	58
96	80544	3035.1	32
96	80550	3035.504696379823	3
96	80556	3035.907355211512	3
96	80569	3036.816574820321	8
96	80574	3037.121545106721	2
96	80580	3037.529985846128	3
96	80702	3048.330949969166	107
96	80732	3050.934797544593	25
96	80759	3053.242676942415	22
96	80854	3063.1	71
96	80892	3066.4	32
96	80921	3068.905657571018	24
96	80965	3072.707253008039	37
96	80993	3075.113489270961	23
96	81038	3079.020245020947	38
96	81069	3081.728626332749	26
96	81146	3088.436165135002	66
96	81192	3092.438414278952	39
96	81237	3096.341525249818	38
96	81308	3102.643867034231	62
96	81343	3107.7	17
96	81415	3114	62
96	81439	3116.000047584893	19
96	81491	3120.600107776704	45
96	81538	3124.705144493004	40
96	81579	3128.210134338274	34
96	81606	3130.510546925811	22
96	81759	3146.6	126
96	81844	3154.2	75
96	81948	3163.607703513845	93
96	82014	3169.409564378526	57
96	82359	3186.4	144
96	82422	3189.3	28
96	82532	3194.307538783808	49
96	82644	3199.612165836686	52
96	82712	3202.617771807642	29
96	82773	3206.225923803651	35
96	82844	3212.527564222658	62
96	82871	3214.830449811794	22
96	82901	3217.439423551539	25
96	82938	3220.542182781447	30
96	82980	3224.151978370954	35
96	83159	3234.7	67
96	83298	3241.2	64
96	83456	3248.403089010594	71
96	83604	3255.408743225172	69
96	83631	3257.415883866528	19
96	83716	3264.920986931266	74
96	83739	3266.825730241509	18
96	83764	3268.92922109951	20
96	83809	3272.830438135759	38
96	83850	3276.339468040716	34
96	83924	3282.947449132716	65
96	84143	3294.5	85
96	84230	3298.5	39
96	84380	3305.401771139251	68
96	84438	3310.005899415945	45
96	84468	3312.614715601035	25
96	84537	3318.718113635628	60
96	84598	3324.024084432812	52
96	84657	3329.328945550657	52
96	84738	3336.431427101794	70
96	84813	3343.132141764174	66
96	84873	3348.334611097158	51
96	84907	3353.6	16
96	84916	3354.2	5
96	84979	3359.905576140107	56
96	85031	3364.310284499911	43
96	85111	3371.510724166087	71
96	85195	3378.914615791887	73
96	85242	3383.017892172404	40
96	85309	3390.8	48
96	85416	3400.4	95
96	85483	3406.302949919719	58
96	85609	3417.706743055565	113
96	85678	3423.808879073736	60
96	85725	3427.915699776381	40
96	85804	3434.823336824686	68
96	85840	3439.8	18
96	85902	3445.3	54
96	85947	3449.202104059411	38
96	85967	3450.804787102625	15
96	86022	3455.707937543964	48
96	86075	3460.208763563012	44
96	86151	3467.008770256622	67
96	86223	3473.418383580546	63
96	86246	3476.5	5
96	86271	3478.7	21
96	86311	3482.108616858008	33
96	86331	3483.909466225865	17
96	86343	3484.711236310977	7
96	86373	3487.318239961621	25
96	86463	3495.328120952116	79
96	86490	3497.635581589336	22
96	86614	3508.639213997672	109
96	86633	3510.146496866831	14
96	86702	3516.25403837517	60
96	86929	3529	90
96	86990	3531.9	28
96	87035	3534.507129999275	25
96	87064	3537.011040429602	24
96	87083	3538.519174573308	14
96	87125	3542.119574542099	35
96	87173	3546.321489434451	41
96	87232	3554	40
96	87267	3557.2	31
96	87320	3561.90795284708	46
96	87380	3567.108555532234	51
96	87390	3567.90880239046	7
96	87458	3573.908908218665	59
96	87544	3581.518798136646	75
96	87550	3581.924945574577	3
96	87728	3597.9347876856	159
96	87815	3606.3	63
96	88007	3623.8	174
96	88050	3627.502879261178	36
96	88135	3635.007465274831	74
96	88167	3637.807673689188	27
96	88350	3646.8	68
96	88553	3656.3	94
96	88699	3663.208020405364	68
96	88889	3671.909979938254	86
96	89049	3679.310924824852	73
96	89121	3682.514023583585	31
96	89191	3685.816863561798	32
96	89271	3689.52308089448	36
96	89349	3693.030757175023	34
96	89425	3697.93405969433	48
96	89464	3701.237467410471	32
96	89494	3705.4	14
96	89555	3710.8	53
96	89596	3714.307648452292	34
96	89620	3716.316434975093	19
96	89686	3722.118058871513	57
96	89735	3726.42026512509	42
96	89785	3730.821536926275	43
96	89819	3733.822105679585	29
96	89854	3736.731223421402	28
96	89921	3742.640144069828	58
96	89988	3750.7	47
96	90100	3760.8	100
96	90135	3763.900971473942	30
96	90169	3766.710035896936	27
96	90199	3769.312407181145	25
96	90235	3772.320604727669	29
96	90256	3774.028365906272	16
96	90302	3778.030903752793	39
96	90334	3780.832451006905	27
96	90388	3785.641831116599	47
96	90421	3788.346018703598	26
96	90444	3790.247978166145	18
96	90558	3800.44978386341	101
96	90808	3814	100
96	90991	3822.4	83
96	91064	3827.205690186026	47
96	91160	3835.805940302917	85
96	91244	3843.209833915118	73
96	91269	3845.310776817908	20
96	91318	3849.613806848481	42
96	91365	3853.723786005991	40
96	91402	3856.82718472617	30
96	91451	3861.129396100335	42
96	91494	3864.837946328811	36
96	91541	3868.941313822394	40
96	91571	3871.543479463775	25
96	91609	3874.752680223032	31
96	91656	3878.860053080697	40
96	91743	3888.3	63
96	91800	3893.5	51
96	91838	3896.700874052783	31
96	91890	3901.304820089844	45
96	91935	3905.213694271914	38
96	92006	3911.52191307995	62
96	92012	3911.924963091323	3
96	92039	3914.031440673547	20
96	92050	3914.939746994494	8
96	92139	3922.847206192972	78
96	92163	3924.855400646164	19
96	92228	3930.558395614843	56
96	92281	3937.3	33
96	92335	3942	46
96	92420	3949.704618079774	76
96	92456	3952.707070936206	29
96	92500	3956.515963874977	37
96	92575	3963.225339338782	66
96	92593	3964.63303794149	13
96	92784	3975.2	72
96	92915	3981.3	60
96	93045	3987.102694214417	57
96	93111	3990.104512007702	29
96	93408	4005.514486587159	153
96	93918	4022.2	142
96	93977	4024	17
96	94094	4027.702666396542	36
96	94248	4037.705081596832	99
96	94292	4041.510912806465	37
96	94357	4047.217124587151	56
96	94438	4054.317368583807	70
96	94486	4058.521358184613	41
96	94549	4064.026714849452	54
96	94574	4066.127162098706	20
96	94619	4070.03359774523	38
96	94687	4078.6	46
96	94718	4081.4	27
96	94754	4084.402482067456	29
96	94814	4089.80667371816	53
96	94848	4092.615358468401	27
96	94918	4098.819546121614	61
96	94959	4102.32546131895	34
96	95066	4114.4	84
96	95133	4120.4	59
96	95200	4126.309608654179	58
96	95288	4134.118163236304	77
96	95344	4139.123696363325	49
96	95365	4140.830111978234	16
96	95458	4149.136023857633	82
96	95524	4154.941991733987	57
96	95594	4161.142445436659	61
96	95661	4167.050734900018	58
96	95809	4182	120
96	95845	4185.3	32
96	95864	4186.803602889112	14
96	95943	4193.908209304662	70
96	95995	4198.314898717004	43
96	96043	4202.516831185469	41
96	96159	4212.92364273791	103
96	96212	4217.625427985415	46
96	96282	4224.8	48
96	96353	4231.2	63
96	96455	4240.206903200256	89
96	96503	4244.411855386355	41
96	96548	4248.319708170286	38
96	96597	4252.628574327498	42
96	96622	4254.735250486037	20
96	96668	4258.743582816996	39
96	96731	4264.252090908024	54
96	96874	4273	50
96	96889	4273.7	6
96	96913	4274.706935858181	9
96	96945	4276.014702936177	12
96	96985	4277.915192428826	18
96	97099	4283.116960020734	51
96	97135	4284.719222572923	15
96	97163	4285.924230339869	11
96	97205	4287.826007718599	18
96	97284	4291.632043938507	37
96	97341	4296.535984689901	48
96	97472	4308.243966694248	116
96	97495	4310.145931077056	18
96	97513	4311.746701066672	15
96	97534	4313.45398187442	16
96	97612	4320.257145453584	67
96	97813	4331.7	77
96	97846	4333.2	14
96	98020	4341.201510309793	79
96	98186	4348.911268225535	76
96	98374	4357.518639584287	85
96	98462	4361.524952927421	39
96	98536	4364.931728834808	33
96	98774	4385.9	179
96	98824	4390.2	42
96	98849	4392.305380422079	20
96	98887	4395.706580551927	33
96	98951	4401.308240865291	55
96	99053	4410.313652770159	89
96	99128	4419.3	53
96	99172	4423.2	38
96	99191	4424.700653659538	14
96	99212	4426.401911985014	16
96	99227	4427.709385458153	12
96	99240	4428.613683756896	8
96	99272	4431.418038741116	27
96	99406	4444.9	109
96	99442	4448	30
96	99499	4453.107122567342	50
96	99569	4459.307242595822	61
96	99664	4467.807451738734	84
96	99706	4471.414210924699	35
96	99782	4478.019413801175	65
96	99851	4484.123396081125	60
96	99884	4487.03087915849	28
96	99937	4493.5	35
96	99991	4498.2	46
96	100022	4500.909602441447	26
96	100152	4512.511913307673	115
96	100181	4515.020881930655	24
96	100305	4526.023018381267	109
96	100337	4528.827573514361	27
96	100428	4539	70
96	100523	4547.6	85
96	100609	4555.203939000561	75
96	100668	4560.304022375964	50
96	100737	4566.413099584252	60
96	100808	4572.715077224807	62
96	100853	4576.624314208163	38
96	100945	4584.833831668297	81
96	101016	4591.141735323612	62
96	101107	4599.249475786821	80
96	101172	4604.958108240861	56
96	101214	4608.559899928645	35
96	101285	4614.867718482195	62
96	101356	4621.168825716001	62
96	101416	4625.1	11
96	101473	4627.8	26
96	101591	4633.201071791083	53
96	101685	4637.601878285617	43
96	101791	4642.405788463635	47
96	101915	4648.114975818529	56
96	101985	4651.318965321037	31
96	102059	4654.619564688506	32
96	102171	4661.6	36
96	102275	4666.3	46
96	102327	4668.701595962783	23
96	102378	4670.911576300998	21
96	102462	4674.717699173361	37
96	102530	4677.827027483084	30
96	102638	4682.730011024069	48
96	102743	4689.1	31
96	102808	4694.9	57
96	102864	4699.905162083483	49
96	102914	4704.106248319036	41
96	102941	4706.407819547351	22
96	103052	4716.314648219098	98
96	103125	4722.823969281362	64
96	103201	4729.633028728065	67
96	103300	4738.335958972509	86
96	103384	4745.940237033796	75
96	103459	4752.444767507003	64
96	103562	4761.749800357318	92
96	103670	4771.352185129283	95
96	103773	4780.456174084741	90
96	103867	4788.864758201331	83
96	103894	4793	10
96	103969	4799.8	67
96	104066	4808.303203732192	84
96	104117	4812.81055908991	44
96	104204	4820.513513965517	76
96	104278	4825.8	18
96	104353	4830.7	48
96	104409	4835.70330320877	49
96	104513	4844.90867618346	91
96	104584	4851.209366910188	62
96	104630	4855.217436102547	39
96	104739	4864.91879922195	96
96	104814	4871.619517967557	66
96	104855	4875.129302153243	34
96	104943	4882.938943253569	77
96	104952	4883.644794664622	6
96	105129	4900.5	145
96	105169	4904	34
96	105206	4907.302234314773	32
96	105294	4915.110841733254	77
96	105330	4918.1112183972	29
96	105370	4921.720867963786	35
96	105388	4923.128328796088	13
96	105475	4932.6	66
96	105507	4935.5	28
96	105542	4938.405170667036	28
96	105606	4944.011119169175	55
96	105623	4945.512075634371	14
96	105698	4952.012522603737	64
96	105749	4956.515446651862	44
96	105798	4960.821840692518	42
96	105830	4963.629753098324	27
96	105863	4966.329925738988	26
96	105897	4969.337685346648	29
96	105921	4971.346996090589	19
96	106000	4978.251113218017	68
96	106038	4981.659388920209	33
96	106108	4985.6	16
96	106145	4987.3	16
96	106278	4993.405700278107	60
96	106438	5000.908487125699	74
96	106596	5008.021527648096	70
96	106722	5013.92236238413	58
96	106754	5015.527111583056	15
96	106773	5017.029077910498	14
96	106788	5018.129154931363	10
96	106806	5019.733193809658	15
96	106818	5020.535682431294	7
96	106830	5021.541478795441	9
96	106847	5022.841659770029	12
96	106964	5033.346208519412	104
96	107018	5039.4	34
96	107082	5045.1	56
96	107215	5057.002371715118	118
96	107282	5062.912229729259	58
96	107569	5088.820066046453	258
96	107665	5099.2	72
96	107705	5102.7	34
96	107756	5107.204867995167	44
96	107848	5115.413820589263	81
96	107875	5117.720683271702	22
96	107927	5122.121816992036	43
96	107980	5126.831131354463	46
96	108035	5131.737581644211	48
96	108094	5136.83917171846	50
96	108102	5137.449111947606	5
96	108167	5144.5	45
96	108234	5150.5	59
96	108320	5158.103562793766	75
96	108389	5164.212072373756	60
96	108419	5166.819881541386	25
96	108466	5170.929456313531	40
96	108526	5176.139302054538	51
96	108589	5181.843003253116	56
96	108652	5187.352646191375	54
96	108698	5192.6	26
96	108747	5197	43
96	108815	5203.004426905408	59
96	108884	5209.109945532642	60
96	108923	5212.41180287064	32
96	108959	5215.615439776475	31
96	109065	5225.021154260916	93
96	109216	5233.4	54
96	109423	5243	95
96	109545	5248.701025408471	56
96	109667	5254.4083626825	56
96	109764	5260.112089835285	56
96	109835	5266.41902753704	62
96	109900	5272.125997091503	56
96	109963	5277.83312888926	56
96	110057	5286.035873038467	81
96	110181	5297.238845147666	111
96	110352	5306.3	63
96	110661	5320.6	142
96	110839	5329.005266323105	83
96	110979	5340.711836062745	116
96	111002	5342.619148720231	18
96	111043	5346.122288667157	34
96	111278	5367.424944555841	212
96	111449	5376.3	63
96	111598	5383.2	68
96	111804	5398.407915165349	151
96	111876	5404.813377916229	63
96	111984	5414.414686285877	95
96	112034	5418.818037824465	43
96	112096	5424.225922603017	53
96	112114	5425.835319796229	15
96	112201	5433.538097362659	76
96	112301	5439	30
96	112413	5444.1	50
96	112503	5448.309431381914	41
96	112529	5449.510424976613	11
96	112708	5457.719120224154	81
96	112794	5461.627064905127	38
96	112878	5465.53443120294	38
96	112924	5467.636898737116	20
96	112957	5469.141249438882	14
96	113088	5476.4	44
96	113201	5481.6	51
96	113311	5486.60162695792	49
96	113389	5490.105497939181	34
96	113547	5497.512432525057	73
96	113627	5501.01975384855	34
96	113747	5507.419849887998	63
96	113831	5516.3	63
96	113898	5522.3	59
96	113944	5526.302893739202	39
96	113997	5531.006812774382	46
96	114051	5535.81239641602	47
96	114128	5542.522318966701	66
96	114218	5550.526331555154	79
96	114282	5556.128401561791	55
96	114315	5559.030005817769	28
96	114408	5567.33924330556	82
96	114478	5573.542154939532	61
96	114536	5578.545787399482	49
96	114667	5590.247238830443	116
96	115142	5614.5	205
96	115237	5618.9	43
96	115313	5625.404012707916	64
96	115416	5634.504551118781	90
96	115463	5638.605951477108	40
96	115514	5643.109795342018	44
96	115561	5648.7	27
96	115599	5652	32
96	115618	5653.70143413603	16
96	115676	5658.706916518313	49
96	115737	5664.009392434776	52
96	115765	5666.414091975591	23
96	115831	5672.214611339657	57
96	115881	5679.3	33
96	115930	5683.7	43
96	115988	5688.706088100203	49
96	116050	5694.10769673339	53
96	116110	5699.516884654806	53
96	116196	5707.12332006818	75
96	116233	5710.223380949363	30
96	116294	5715.733234972742	54
96	116351	5720.641854126085	48
96	116398	5724.748381204802	40
96	116487	5730.5	25
96	116572	5734.5	39
96	116718	5741.209771449416	66
96	116869	5748.115425291265	68
96	116994	5754.7157188457	65
96	117066	5761.124786191294	63
96	117141	5767.826258632242	66
96	117226	5776.4	64
96	117278	5781.1	46
96	117345	5787.008470605537	58
96	117462	5797.513162584034	104
96	117537	5804.01682222915	64
96	117572	5807.125144583558	30
96	117669	5815.830091317792	86
96	117715	5819.830706967127	39
96	117783	5825.834804618027	59
96	117835	5830.238214580269	43
96	117920	5837.942344585057	76
96	117975	5843.5	35
96	118055	5850.6	70
96	118083	5853.008647299651	23
96	118175	5861.216053662549	81
96	118192	5862.523105954443	12
96	118264	5868.928388209225	63
96	118340	5875.731994311146	67
96	118379	5879.038808743204	32
96	118439	5884.243019572261	51
96	118480	5887.952315176494	36
96	118703	5898.8	88
96	118744	5900.7	18
96	118765	5901.508714527087	7
96	118964	5912.312077365501	107
96	119087	5923.420663647721	110
96	119354	5936.9	109
96	119455	5941.6	46
96	119535	5945.202273380365	35
96	119611	5948.711462494157	34