file 269820 1367232812                                          
version 2
run Join-75-20130429-12:53:21-17679
attr configname Join
attr datetime 20130429-12:53:21
attr experiment "\"Join\""
attr inifile omnetpp.ini
attr iterationvars $0=4096
attr iterationvars2 "$0=4096, $repetition=5"
attr measurement $0=4096
attr network Network
attr processid 17679
attr repetition 5
attr replication #5
attr resultdir results
attr runnumber 75
attr seedset 75
vector 75  Network.dyn_peer[0]  lookupHopsSig:vector  ETV
75	444 269376 11398 368259 20.328435932332 29476.923370071169 9350 0 133 255808 9299856
