file 160342 1369674127                                          
version 2
run Join-8-20130429-12:49:24-17679
attr configname Join
attr datetime 20130429-12:49:24
attr experiment "\"Join\""
attr inifile omnetpp.ini
attr iterationvars $0=32
attr iterationvars2 "$0=32, $repetition=8"
attr measurement $0=32
attr network Network
attr processid 17679
attr repetition 8
attr replication #8
attr resultdir results
attr runnumber 8
attr seedset 8
vector 8  Network.dyn_peer[0]  lookupHopsSig:vector  ETV
8	434 159908 282 51319 22.1 5135.812541203904 6591 0 8 15744 46634
