file 226858 1367232601                                          
version 2
run Join-29-20130429-12:50:00-17679
attr configname Join
attr datetime 20130429-12:50:00
attr experiment "\"Join\""
attr inifile omnetpp.ini
attr iterationvars $0=128
attr iterationvars2 "$0=128, $repetition=9"
attr measurement $0=128
attr network Network
attr processid 17679
attr repetition 9
attr replication #9
attr resultdir results
attr runnumber 29
attr seedset 29
vector 29  Network.dyn_peer[0]  lookupHopsSig:vector  ETV
29	441 226417 612 88766 20.112536598447 8277.260460622977 8647 0 20 44418 295128
