version 2
run Join-3-20130429-12:49:16-17679
attr configname Join
attr datetime 20130429-12:49:16
attr experiment "\"Join\""
attr inifile omnetpp.ini
attr iterationvars $0=32
attr iterationvars2 "$0=32, $repetition=3"
attr measurement $0=32
attr network Network
attr processid 17679
attr repetition 3
attr replication #3
attr resultdir results
attr runnumber 3
attr seedset 3

vector 3  Network.dyn_peer[0]  lookupHopsSig:vector  ETV
3	301	22.1	1
3	305	22.4	2
3	310	22.705216043367	2
3	317	23.209667493886	4
3	323	23.611093487349	3
3	332	24.111708776637	4
3	338	24.514731412772	3
3	357	28.1	1
3	363	28.502305842067	3
3	370	29.002518099469	4
3	377	29.509432874565	4
3	388	30.21425733259	6
3	416	34.2	2
3	422	34.7	4
3	428	35.105966637774	3
3	434	35.50803629913	3
3	438	35.708705993356	1
3	446	36.1179633212	3
3	454	36.718688942573	5
3	474	40.2	2
3	479	40.6	3
3	485	41.009903011885	3
3	490	41.310904055325	2
3	512	44.4	4
3	515	44.6	1
3	520	44.901162165903	2
3	524	45.103040314152	1
3	531	45.603900321305	4
3	539	46.013421333755	3
3	546	46.52007757983	4
3	552	46.926893697644	3
3	556	47.130189411223	1
3	562	47.43921611413	2
3	581	50.1	1
3	585	50.4	2
3	591	50.717465064133	2
3	595	50.925856994733	1
3	600	51.231569842181	2
3	620	54.2	2
3	624	54.408421031879	1
3	630	54.811920284097	3
3	635	55.119367807329	2
3	642	55.627095194164	4
3	647	55.933698453189	2
3	654	56.242663419768	2
3	675	60.3	3
3	680	60.7	3
3	685	61.003659405848	2
3	692	61.418006936062	3
3	699	61.92346076223	4
3	705	62.125424568007	1
3	710	62.433704789177	2
3	732	66.4	4
3	737	66.8	3
3	741	67.007849366993	1
3	746	67.317432729329	2
3	751	67.627153712936	2
3	755	67.834815240496	1
3	776	70.3	3
3	779	70.5	1
3	783	70.700897908676	1
3	787	70.905923210838	1
3	792	71.210811943331	2
3	799	71.712535572325	4
3	807	72.121814935824	3
3	828	76.3	3
3	833	76.7	3
3	837	76.908868981273	1
3	843	77.31342177485	3
3	847	77.518454327752	1
3	852	77.820634185444	2
3	860	78.226356561642	3
3	865	78.528128695489	2
3	884	82.1	1
3	887	82.3	1
3	895	82.901206173675	5
3	900	83.207607939906	2
3	904	83.407997120883	1
3	924	86.2	2
3	929	86.6	3
3	934	86.90049108925	2
3	938	87.10306315303	1
3	944	87.505156886525	3
3	953	88.007923301992	4
3	962	88.715230383254	6
3	983	92.3	3
3	988	92.7	3
3	993	93.008352463105	2
3	997	93.211100268221	1
3	1018	96.3	3
3	1025	96.9	5
3	1029	97.103557290912	1
3	1034	97.407912496432	2
3	1054	100.2	2
3	1057	100.4	1
3	1062	100.70129658384	2
3	1066	100.902125293987	1
3	1077	101.810725828616	8
3	1096	104.1	1
3	1100	104.4	2
3	1107	104.90837462428	4
3	1114	105.418357455525	4
3	1120	105.820057790928	3
3	1127	106.129970748137	2
3	1133	106.532574198875	3
3	1139	106.934150896428	3
3	1144	107.241070671518	2
3	1149	107.54577733133	2
3	1168	110.1	1
3	1171	110.3	1
3	1177	110.700646731932	3
3	1182	111.007614231809	2
3	1188	111.416255428505	3
3	1193	111.723739505701	2
3	1201	112.126648230156	3
3	1207	112.534818583765	3
3	1227	116.2	2
3	1231	116.5	2
3	1240	117.110026471665	5
3	1245	117.324050530514	1
3	1249	117.531322051235	1
3	1254	117.840520655391	2
3	1274	120.2	2
3	1280	120.7	4
3	1287	121.201394671269	4
3	1291	121.406779308186	1
3	1298	121.909917499306	4
3	1317	124.1	1
3	1323	124.6	4
3	1328	124.908413537717	2
3	1333	125.209950939782	2
3	1338	125.514917589327	2
3	1362	128.6	6
3	1365	128.8	1
3	1370	129.109716242952	2
3	1377	129.615950279088	4
3	1398	132.3	3
3	1401	132.5	1
3	1406	132.802405703146	2
3	1412	133.210601123982	3
3	1416	133.418879752024	1
3	1422	133.821904734938	3
3	1443	136.3	3
3	1448	136.7	3
3	1452	136.904824970385	1
3	1456	137.111961015825	1
3	1461	137.414831513472	2
3	1468	137.825552755291	3
3	1488	140.2	2
3	1491	140.4	1
3	1496	140.709284988464	2
3	1502	141.111444483151	3
3	1508	141.515075245947	3
3	1513	141.823392856845	2
3	1521	142.139876469075	2
3	1541	146.2	2
3	1544	146.4	1
3	1549	146.606622760493	1
3	1554	146.911058637282	2
3	1558	147.116453102297	1
3	1563	147.422883852085	2
3	1569	147.731663360027	2
3	1579	148.340032481366	5
3	1600	152.3	3
3	1606	152.8	4
3	1611	153.104079169982	2
3	1616	153.40638753266	2
3	1622	153.807444124705	3
3	1640	156	0
3	1644	156.3	2
3	1649	156.603430938585	2
3	1654	156.91312523028	2
3	1658	157.122610506761	1
3	1677	160.1	1
3	1683	160.6	4
3	1687	160.801391765133	1
3	1691	161.001846738206	1
3	1713	164.4	4
3	1717	164.7	2
3	1722	165.003567456884	2
3	1726	165.206614321164	1
3	1731	165.514441896468	2
3	1735	165.719609740141	1
3	1744	166.224103752073	4
3	1765	170.3	3
3	1770	170.7	3
3	1777	171.205027510477	4
3	1782	171.508712313128	2
3	1788	171.9170023239	3
3	1797	172.419626597379	4
3	1802	172.72036697533	2
3	1806	172.928395255031	1
3	1810	173.13318440949	1
3	1814	173.34219211754	1
3	1818	173.542814912328	1
3	1822	173.746425750078	1
3	1842	176.2	2
3	1847	176.6	3
3	1852	176.900685499224	2
3	1856	177.103522393721	1
3	1862	177.504287356528	3
3	1868	177.906416299884	3
3	1874	178.111804226504	1
3	1881	178.616006891461	4
3	1903	182.4	4
3	1910	183	5
3	1915	183.304363570867	2
3	1920	183.60869891378	2
3	1924	183.813676742104	1
3	1931	184.119843794971	2
3	1936	184.425676914062	2
3	1941	184.73546768661	2
3	1961	188.2	2
3	1965	188.5	2
3	1971	188.810168734947	2
3	1977	189.211741181479	3
3	1983	189.619627072841	3
3	1991	190.022382157581	3
3	1995	190.228556699402	1
3	2014	194.1	1
3	2019	194.402233229777	2
3	2025	194.80254252174	3
3	2031	195.204972303573	3
3	2052	198.3	3
3	2056	198.6	2
3	2065	199.302746374695	6
3	2070	199.603049488271	2
3	2074	199.812468631906	1
3	2082	200.119851792605	2
3	2102	204.2	2
3	2106	204.5	2
3	2111	204.807952045851	2
3	2117	205.217812309357	3
3	2121	205.423593942982	1
3	2125	205.627820187157	1
3	2149	208.6	6
3	2153	208.9	2
3	2158	209.200462962056	2
3	2164	209.602270365345	3
3	2169	209.90666458062	2
3	2177	210.314102874732	3
3	2198	214.3	3
3	2201	214.5	1
3	2207	214.901342181686	3
3	2212	215.209275408467	2
3	2216	215.411552537447	1
3	2236	218.2	2
3	2241	218.6	3
3	2245	218.806380528814	1
3	2251	219.117035069993	2
3	2256	219.426394791785	2
3	2260	219.62639957994	1
3	2281	222.3	3
3	2287	222.8	4
3	2291	223.007020201254	1
3	2296	223.314711538168	2
3	2317	226.3	3
3	2323	226.8	4
3	2329	227.200420308539	3
3	2334	227.503682948592	2
3	2353	230.1	1
3	2359	230.407484588107	2
3	2365	230.722555112266	2
3	2369	230.923170519457	1
3	2373	231.12387421705	1
3	2381	231.635210186053	4
3	2388	231.961706297583	2
3	2394	232.162947873421	1
3	2412	236	0
3	2416	236.3	2
3	2421	236.606326557695	2
3	2427	237.012500003957	3
3	2434	237.517156934648	4
3	2455	240.3	3
3	2460	240.7	3
3	2465	241.008442756319	2
3	2470	241.220789847419	1
3	2490	244.2	2
3	2494	244.5	2
3	2498	244.70675996589	1
3	2502	244.907817380879	1
3	2509	245.412276521983	4
3	2514	245.719430312678	2
3	2522	246.126146015164	3
3	2543	250.3	3
3	2547	250.6	2
3	2553	251.00340332475	3
3	2558	251.304537765609	2
3	2565	251.806450598521	4
3	2574	252.311532172834	4
3	2578	252.517195987588	1
3	2584	252.925910883041	3
3	2593	253.626181201788	6
3	2612	256.1	1
3	2618	256.6	4
3	2624	257.00251930301	3
3	2630	257.410751638586	3
3	2637	257.919791763323	4
3	2647	258.520021993064	5
3	2654	259.023477166448	4
3	2660	259.425346676401	3
3	2665	259.725915402123	2
3	2684	262.1	1
3	2690	262.6	4
3	2696	263.007159156994	3
3	2702	263.414512398824	3
3	2709	263.922402841387	4
3	2715	264.127173757777	1
3	2734	268.1	1
3	2739	268.5	3
3	2744	268.809143804388	2
3	2753	269.5120486533	6
3	2757	269.71969019573	1
3	2761	269.92869730446	1
3	2781	272.2	2
3	2784	272.4	1
3	2788	272.608964089865	1
3	2794	272.925352520835	2
3	2816	276.4	4
3	2824	277.1	6
3	2830	277.508626050846	3
3	2836	277.918356905122	3
3	2843	278.223417757764	2
3	2850	278.72398475914	4
3	2854	278.929663780869	1
3	2875	282.3	3
3	2880	282.7	3
3	2886	283.105924739614	3
3	2893	283.516627625752	3
3	2912	286.1	1
3	2916	286.4	2
3	2923	286.900729170895	4
3	2928	287.207058776227	2
3	2935	287.713149050645	4
3	2944	288.221060958133	4
3	2964	292.2	2
3	2969	292.6	3
3	2973	292.807908541816	1
3	2980	293.314196963333	4
3	2986	293.724023838256	3
3	2994	294.129992884377	3
3	3001	294.540661738849	3
3	3007	294.946973859964	3
3	3030	298.5	5
3	3033	298.7	1
3	3040	299.207099567125	4
3	3044	299.412531361653	1
3	3048	299.61574600868	1
3	3071	302.5	5
3	3076	302.9	3
3	3080	303.104520116215	1
3	3085	303.406310120706	2
3	3105	306.2	2
3	3109	306.5	2
3	3113	306.700894949953	1
3	3117	306.905019260616	1
3	3137	310.2	2
3	3142	310.6	3
3	3146	310.801378098928	1
3	3151	311.108602520953	2
3	3157	311.50862377656	3
3	3162	311.814904031412	2
3	3172	312.417001095808	5
3	3193	316.3	3
3	3197	316.6	2
3	3202	316.903638255652	2
3	3206	317.109340338089	1
3	3213	317.611910764059	4
3	3221	318.020150375818	3
3	3226	318.32622381316	2
3	3245	322.1	1
3	3248	322.3	1
3	3253	322.603950607897	2
3	3262	323.310205691833	6
3	3267	323.617651806279	2
3	3272	323.924356467349	2
3	3279	324.229884039906	2
3	3299	328.2	2
3	3303	328.5	2
3	3308	328.804910613112	2
3	3314	329.214286563184	3
3	3319	329.521784767654	2
3	3324	329.829481314831	2
3	3330	330.031879552421	1
3	3335	330.333335502724	2
3	3357	334.4	4
3	3362	334.8	3
3	3367	335.105051844688	2
3	3371	335.305542407978	1
3	3376	335.610470921196	2
3	3381	335.913499119539	2
3	3388	336.21988542297	2
3	3392	336.427293556689	1
3	3398	336.833042637226	3
3	3402	337.033436251708	1
3	3424	340.5	5
3	3428	340.8	2
3	3433	341.103862722935	2
3	3438	341.4111797797	2
3	3443	341.714566236724	2
3	3450	342.020074562713	2
3	3457	342.525343601646	4
3	3461	342.73473763644	1
3	3468	343.240066424792	4
3	3474	343.643530441783	3
3	3494	346.2	2
3	3500	346.7	4
3	3506	347.009630060651	2
3	3510	347.21563804647	1
3	3529	350.1	1
3	3533	350.4	2
3	3537	350.609456073178	1
3	3541	350.818600870549	1
3	3548	351.319983664698	4
3	3552	351.528897901436	1
3	3561	352.029314057831	4
3	3565	352.237869539846	1
3	3585	356.2	2
3	3589	356.5	2
3	3598	356.821538075967	2
3	3602	357.022047730176	1
3	3622	360.2	2
3	3627	360.6	3
3	3632	360.903924719141	2
3	3637	361.209322226586	2
3	3656	364.1	1
3	3659	364.3	1
3	3663	364.505728607103	1
3	3668	364.806556527358	2
3	3674	365.208521157018	3
3	3678	365.410727893553	1
3	3697	368.1	1
3	3702	368.5	3
3	3706	368.706193272701	1
3	3714	369.311004910121	5
3	3718	369.513035986708	1
3	3723	369.815308031088	2
3	3743	372.2	2
3	3753	373.1	8
3	3757	373.30394751874	1
3	3761	373.505638535134	1
3	3768	373.908889449558	3
3	3774	374.115492920121	1
3	3798	378.6	6
3	3804	379.1	4
3	3811	379.512552376996	3
3	3816	379.816805921526	2
3	3822	380.023784969	1
3	3827	380.328050621622	2
3	3849	384.4	4
3	3856	385	5
3	3860	385.207555294749	1
3	3864	385.415824566285	1
3	3885	388.3	3
3	3888	388.5	1
3	3893	388.809052649009	2
3	3897	389.011932395609	1
3	3916	392.1	1
3	3919	392.3	1
3	3925	392.607531507983	2
3	3930	392.911349758381	2
3	3949	396.1	1
3	3954	396.5	3
3	3960	396.908888140269	3
3	3964	397.116046960011	1
3	3984	400.2	2
3	3988	400.5	2
3	3993	400.801559994309	2
3	3998	401.108754899361	2
3	4004	401.509970872415	3
3	4009	401.81477779026	2
3	4015	402.021898334583	1
3	4038	406.5	5
3	4042	406.8	2
3	4050	407.404906066982	5
3	4057	407.914212282106	4
3	4065	408.317050923909	3
3	4070	408.62468512324	2
3	4080	409.430031528299	7
3	4101	412.3	3
3	4107	412.8	4
3	4111	413.005124235919	1
3	4116	413.310404287883	2
3	4138	416.4	4
3	4142	416.7	2
3	4150	417.209856790599	4
3	4156	417.611400095146	3
3	4177	420.3	3
3	4183	420.8	4
3	4189	421.20873507102	3
3	4193	421.414246480762	1
3	4198	421.717874359981	2
3	4202	421.925007072492	1
3	4208	422.13238740077	1
3	4213	422.439992819738	2
3	4219	422.849933492089	3
3	4241	426.4	4
3	4244	426.6	1
3	4250	427.005289360722	3
3	4254	427.208340474583	1
3	4259	427.509672901252	2
3	4264	427.815896027652	2
3	4271	428.116791952269	2
3	4295	432.6	6
3	4300	433	3
3	4304	433.203414766329	1
3	4311	433.613511072929	3
3	4319	434.020271107841	3
3	4324	434.321089015235	2
3	4329	434.628078309139	2
3	4350	438.3	3
3	4354	438.6	2
3	4359	438.906664807281	2
3	4365	439.22072354094	2
3	4372	439.532507604742	2
3	4377	439.832790545457	2
3	4397	442.2	2
3	4401	442.5	2
3	4406	442.801548999387	2
3	4412	443.20660866216	3
3	4417	443.408163923734	1
3	4440	446.5	5
3	4443	446.7	1
3	4449	447.103140009278	3
3	4457	447.709192115522	5
3	4466	448.212457051288	4
3	4473	448.720991163511	4
3	4493	452.2	2
3	4497	452.5	2
3	4503	452.905564000862	3
3	4508	453.211766485964	2
3	4513	453.515360579996	2
3	4519	453.919837354109	3
3	4539	456.2	2
3	4544	456.6	3
3	4550	457.005459154506	3
3	4555	457.315233096768	2
3	4560	457.620246705528	2
3	4564	457.82648308364	1
3	4587	460.5	5
3	4591	460.8	2
3	4595	461.001706107736	1
3	4601	461.411363670264	3
3	4608	461.917975994925	4
3	4615	462.226924488787	2
3	4622	462.732712116621	4
3	4641	466.1	1
3	4645	466.4	2
3	4649	466.608055463356	1
3	4655	467.012541999101	3
3	4660	467.32186061245	2
3	4668	467.930520498122	5
3	4674	468.137859787962	1
3	4695	472.3	3
3	4698	472.5	1
3	4703	472.802965954199	2
3	4707	473.010412001799	1
3	4711	473.216769576804	1
3	4723	474.017848087765	7
3	4728	474.320065706853	2
3	4734	474.727912665296	3
3	4740	475.135836728254	3
3	4745	475.440824780468	2
3	4750	475.742079853649	2
3	4774	478.6	6
3	4778	478.9	2
3	4783	479.203917074792	2
3	4788	479.51038220616	2
3	4793	479.811449855535	2
3	4802	480.31242042869	4
3	4822	484.2	2
3	4827	484.6	3
3	4833	484.910317738686	2
3	4838	485.218160243345	2
3	4846	485.82480751653	5
3	4852	486.032848677574	1
3	4857	486.234041144297	1
3	4863	486.547777394321	2
3	4868	486.758624898378	1
3	4886	490	0
3	4891	490.4	3
3	4897	490.806018807524	3
3	4902	491.109816020062	2
3	4909	491.614333669907	4
3	4914	491.920616814094	2
3	4933	494.1	1
3	4938	494.5	3
3	4943	494.802692591168	2
3	4947	495.011086163962	1
3	4953	495.420694806146	3
3	4957	495.626353149477	1
3	4961	495.834440269903	1
3	4968	496.137671154399	2
3	4972	496.340152124538	1
3	4993	500.3	3
3	4998	500.7	3
3	5003	501.001284090767	2
3	5008	501.306489856222	2
3	5012	501.511594584574	1
3	5018	501.918942001479	3
3	5025	502.130719579077	1
3	5030	502.434135362643	2
3	5049	506.1	1
3	5053	506.4	2
3	5059	506.708917818953	2
3	5065	507.113477122205	3
3	5072	507.615841597887	4
3	5082	508.219810594541	5
3	5086	508.421455343807	1
3	5105	512.1	1
3	5109	512.4	2
3	5115	512.80867008232	3
3	5120	513.117109557229	2
3	5125	513.4265280162	2
3	5130	513.735555508752	2
3	5137	514.038379628137	2
3	5143	514.443253284732	3
3	5147	514.651701419464	1
3	5152	514.955915183039	2
3	5157	515.260840157394	2
3	5162	515.5695218297	2
3	5167	515.872211597543	2
3	5190	518.5	5
3	5193	518.7	1
3	5198	519.006493119185	2
3	5203	519.310546675482	2
3	5209	519.711342802764	3
3	5214	519.928064713737	1
3	5222	520.332419092664	3
3	5227	520.633476523037	2
3	5233	521.041846809558	3
3	5242	521.747170024983	6
3	5264	524.4	4
3	5267	524.6	1
3	5271	524.807753136402	1
3	5276	525.111175214885	2
3	5280	525.313939997962	1
3	5286	525.721206306629	3
3	5294	526.031742529041	2
3	5298	526.240132042724	1
3	5317	530.1	1
3	5322	530.408788085959	2
3	5326	530.613057071892	1
3	5330	530.813236846415	1
3	5337	531.320009578977	4
3	5356	534.1	1
3	5361	534.5	3
3	5368	534.910186115425	3
3	5374	535.315467766708	3
3	5381	535.822773672363	4
3	5402	538.3	3
3	5405	538.5	1
3	5409	538.702451975846	1
3	5414	539.009547911777	2
3	5418	539.210213611658	1
3	5423	539.516913835004	2
3	5428	539.818503860098	2
3	5438	540.324065829135	4
3	5459	544.3	3
3	5463	544.6	2
3	5471	545.209791290045	5
3	5478	545.716728134711	4
3	5486	546.123324690281	3
3	5491	546.430950714511	2
3	5511	550.2	2
3	5515	550.5	2
3	5520	550.804894621286	2
3	5525	551.106384184397	2
3	5531	551.513902243307	3
3	5536	551.819445379279	2
3	5557	554.3	3
3	5563	554.8	4
3	5571	555.402267206597	5
3	5576	555.710701375048	2
3	5583	556.020461230246	2
3	5588	556.325184101439	2
3	5593	556.631682818019	2
3	5598	556.934638677783	2
3	5605	557.436853434032	4
3	5612	557.939599984056	4
3	5632	560.2	2
3	5636	560.5	2
3	5641	560.808720305911	2
3	5646	561.118463266577	2
3	5650	561.319580889687	1
3	5655	561.627064720087	2
3	5659	561.836061625766	1
3	5680	564.3	3
3	5683	564.5	1
3	5689	564.902842401852	3
3	5696	565.406390144547	4
3	5701	565.710740964986	2
3	5724	568.5	5
3	5728	568.8	2
3	5732	569.006587792544	1
3	5736	569.213369043052	1
3	5740	569.418308069225	1
3	5744	569.623186950263	1
3	5756	570.232493519175	5
3	5776	574.2	2
3	5782	574.7	4
3	5788	575.109793843436	3
3	5792	575.315835338251	1
3	5797	575.617109575741	2
3	5802	575.91718575066	2
3	5810	576.326989106978	3
3	5814	576.531876223021	1
3	5834	580.2	2
3	5840	580.7	4
3	5845	581.000072921277	2
3	5849	581.201393046032	1
3	5853	581.405843053955	1
3	5858	581.709031375054	2
3	5865	582.011520792819	2
3	5870	582.312894824231	2
3	5876	582.719840076202	3
3	5881	583.026546327119	2
3	5885	583.233176594596	1
3	5908	586.5	5
3	5912	586.8	2
3	5918	587.200216027139	3
3	5922	587.409998643327	1
3	5927	587.712264432076	2
3	5934	588.013196907895	2
3	5939	588.315250326149	2
3	5944	588.620877086749	2
3	5949	588.920919633112	2
3	5970	592.3	3
3	5974	592.6	2
3	5979	592.90262252303	2
3	5984	593.210719292007	2
3	5989	593.519468829921	2
3	5995	593.826149511511	2
3	6003	594.228518385113	3
3	6008	594.536968000502	2
3	6019	595.446201607539	8
3	6025	595.753815636334	2
3	6032	596.055246561511	2
3	6037	596.364990950125	2
3	6056	600.1	1
3	6063	600.7	5
3	6070	601.20794989627	4
3	6078	601.815757859453	5
3	6087	602.321757981629	4
3	6095	602.928020982026	5
3	6102	603.341393323229	3
3	6107	603.649425368395	2
3	6111	603.853428093637	1
3	6136	606.7	7
3	6139	606.9	1
3	6144	607.202661914916	2
3	6151	607.711790893289	4
3	6160	608.211804118602	4
3	6166	608.617234095298	3
3	6172	609.023768127786	3
3	6178	609.427933308311	3
3	6182	609.628788432319	1
3	6203	612.3	3
3	6207	612.6	2
3	6213	613.009454608084	3
3	6220	613.513515632927	4
3	6226	613.918740639539	3
3	6234	614.325608638994	3
3	6241	614.831664472751	4
3	6245	615.036109148403	1
3	6251	615.442832880263	3
3	6256	615.7478705859	2
3	6275	618.1	1
3	6282	618.7	5
3	6286	618.904370312176	1
3	6292	619.3064369976	3
3	6298	619.711703599718	3
3	6302	619.919094975221	1
3	6308	620.123598676133	1
3	6314	620.523775202282	3
3	6337	624.5	5
3	6343	625	4
3	6347	625.205642841171	1
3	6352	625.510689271396	2
3	6372	628.2	2
3	6377	628.6	3
3	6383	629.008561611492	3
3	6387	629.210939867684	1
3	6394	629.717399826009	4
3	6401	630.020077497834	2
3	6423	634.4	4
3	6427	634.7	2
3	6432	635.006090543351	2
3	6437	635.314002155835	2
3	6442	635.621141510041	2
3	6463	638.3	3
3	6468	638.7	3
3	6474	639.103466617367	3
3	6480	639.512539777327	3
3	6485	639.821958311581	2
3	6491	640.026542067137	1
3	6510	644.1	1
3	6515	644.5	3
3	6521	644.907294992194	3
3	6528	645.415645875636	4
3	6534	645.818238926605	3
3	6543	646.325210216763	4
3	6548	646.633438070875	2
3	6552	646.840200538984	1
3	6557	647.147605328091	2
3	6562	647.454350990936	2
3	6584	650.4	4
3	6588	650.607150973172	1
3	6592	650.815335796242	1
3	6599	651.32201595087	4
3	6620	654.3	3
3	6623	654.5	1
3	6627	654.705091142375	1
3	6633	655.108335072379	3
3	6653	658.2	2
3	6656	658.4	1
3	6662	658.800925271557	3
3	6669	659.308103873035	4
3	6675	659.713477141686	3
3	6683	660.120318301835	3
3	6687	660.329249725533	1
3	6694	660.832806242252	4
3	6700	661.234335348223	3
3	6723	664.6	6
3	6727	664.9	2
3	6734	665.403555833457	4
3	6740	665.813052289059	3
3	6747	666.118701937132	2
3	6752	666.424920959464	2
3	6759	666.926170911249	4
3	6778	670.1	1
3	6782	670.4	2
3	6787	670.703859614159	2
3	6791	670.91055340253	1
3	6800	671.614907074514	6
3	6808	672.016081721295	3
3	6815	672.520476243064	4
3	6835	676.2	2
3	6840	676.6	3
3	6844	676.806726228778	1
3	6850	677.213776301824	3
3	6870	680.2	2
3	6875	680.6	3
3	6881	681.001002670119	3
3	6886	681.303282497625	2
3	6893	681.806573794188	4
3	6912	684.1	1
3	6916	684.4	2
3	6921	684.705320758451	2
3	6926	685.012932002015	2
3	6932	685.413575060729	3
3	6939	685.916386031476	4
3	6948	686.326015282366	3
3	6955	686.832008266436	4
3	6962	687.336538113226	4
3	6966	687.538498973828	1
3	6975	688.040118025993	4
3	6993	692.2	2
3	6998	692.6	3
3	7006	693.209639181229	5
3	7013	693.71294147639	4
3	7020	694.020463632884	2
3	7026	694.425627485477	3
3	7032	694.833455520638	3
3	7037	695.143366244975	2
3	7058	698.3	3
3	7063	698.7	3
3	7068	699.003721124918	2
3	7074	699.412995523034	3
3	7079	699.717060747094	2
3	7087	700.028426244733	2
3	7093	700.432507665426	3
3	7097	700.633660651863	1
3	7104	701.043877904675	3
3	7111	701.553734871585	4
3	7117	701.962359057246	3
3	7125	702.362404240975	3
3	7131	702.763521689637	3
3	7151	706.2	2
3	7160	707	7
3	7169	707.701559344262	6
3	7173	707.904738973062	1
3	7180	708.211155754399	2
3	7201	712.3	3
3	7205	712.6	2
3	7212	713.107968846177	4
3	7219	713.608745100306	4
3	7224	713.916975492186	2
3	7248	716.6	6
3	7253	717	3
3	7258	717.308525967649	2
3	7262	717.513602651497	1
3	7266	717.719223604481	1
3	7274	718.121801261009	3
3	7278	718.32260058502	1
3	7301	722.5	5
3	7305	722.8	2
3	7309	723.005378787433	1
3	7314	723.309893061226	2
3	7322	723.919502218771	5
3	7330	724.325886803074	3
3	7350	728.2	2
3	7355	728.6	3
3	7361	729.002023390033	3
3	7369	729.520795944339	4
3	7374	729.823673997999	2
3	7394	732.2	2
3	7398	732.5	2
3	7402	732.701756567473	1
3	7406	732.908930520471	1
3	7412	733.312720681363	3
3	7417	733.62181522268	2
3	7427	734.226310590688	5
3	7434	734.634544004577	3
3	7454	738.2	2
3	7459	738.6	3
3	7465	739.003847352298	3
3	7471	739.412044082534	3
3	7478	739.914961320451	4
3	7500	742.4	4
3	7505	742.8	3
3	7510	743.100062501369	2
3	7518	743.606694483527	4
3	7526	744.007352444581	3
3	7530	744.216651077023	1
3	7552	748.4	4
3	7557	748.8	3
3	7563	749.203922852044	3
3	7568	749.510517014026	2
3	7574	749.82098888699	2
3	7581	750.121482534364	2
3	7587	750.525110313051	3
3	7612	754.7	7
3	7617	755.1	3
3	7621	755.309323904053	1
3	7626	755.615155667601	2
3	7645	758.1	1
3	7651	758.500185391861	3
3	7656	758.80142892054	2
3	7661	759.103158592597	2
3	7665	759.308050948194	1
3	7670	759.608189309049	2
3	7690	762.2	2
3	7694	762.5	2
3	7699	762.80490295567	2
3	7705	763.115053312123	2
3	7725	766.2	2
3	7730	766.6	3
3	7736	767.009263432472	3
3	7740	767.213988730946	1
3	7745	767.522878326814	2
3	7751	767.929355115658	3
3	7759	768.332750786836	3
3	7766	768.84012339889	4
3	7771	769.14665885639	2
3	7776	769.449648907339	2
3	7796	772.2	2
3	7799	772.4	1
3	7804	772.70684785963	2
3	7812	773.308088654789	5
3	7818	773.713776865545	3
3	7825	774.016066009001	2
3	7844	778.1	1
3	7849	778.5	3
3	7854	778.807710019489	2
3	7859	779.113964719373	2
3	7864	779.323695322622	1
3	7871	779.830181080559	4
3	7891	782.2	2
3	7895	782.5	2
3	7901	782.901419183481	3
3	7905	783.107188593169	1
3	7910	783.408077989689	2
3	7929	786.1	1
3	7936	786.7	5
3	7940	786.906208021957	1
3	7945	787.118610477371	1
3	7950	787.424050789522	2
3	7955	787.729911504881	2
3	7959	787.939629917074	1
3	7968	788.442581588578	4
3	7989	792.3	3
3	7994	792.7	3
3	7998	792.905036531824	1
3	8004	793.311450221778	3
3	8010	793.714842571103	3
3	8019	794.11920431431	3
3	8039	798.2	2
3	8043	798.5	2
3	8047	798.705075106394	1
3	8052	799.005136744188	2
3	8056	799.214255980987	1
3	8061	799.514743461404	2
3	8066	799.821852148233	2
3	8073	800.130897076993	2
3	8077	800.333935393995	1
3	8082	800.635420986815	2
3	8086	800.841872511287	1
3	8109	804.5	5
3	8113	804.8	2
3	8118	805.106050785621	2
3	8123	805.412065199729	2
3	8128	805.713541552581	2
3	8137	806.219686411324	4
3	8141	806.42317228996	1
3	8147	806.82478355014	3
3	8152	807.134634597948	2
3	8173	810.3	3
3	8179	810.8	4
3	8186	811.117483459148	2
3	8192	811.517810372598	3
3	8197	811.825140509546	2
3	8203	812.028606530778	1
3	8209	812.438109147796	3
3	8215	812.848052609274	3
3	8220	813.153909118911	2
3	8240	816.2	2
3	8245	816.6	3
3	8251	816.914634044879	2
3	8255	817.121920558294	1
3	8259	817.324694720882	1
3	8277	820	0
3	8281	820.3	2
3	8287	820.700653289344	3
3	8293	821.10173627715	3
3	8300	821.609292199035	4
3	8309	822.114888828208	4
3	8315	822.519621674881	3
3	8321	822.82736659698	2
3	8325	823.036627773289	1
3	8347	826.4	4
3	8352	826.8	3
3	8359	827.307158996036	4
3	8364	827.614485238161	2
3	8374	828.218859299648	5
3	8378	828.425456225768	1
3	8385	828.841408844448	3
3	8391	829.243868340523	3
3	8411	832.2	2
3	8416	832.6	3
3	8421	832.80815983388	1
3	8433	833.53531289003	6
3	8454	836.3	3
3	8458	836.6	2
3	8463	836.908204654955	2
3	8468	837.210034590199	2
3	8476	837.816920004764	5
3	8496	840.2	2
3	8501	840.6	3
3	8507	841.005853740873	3
3	8512	841.312908210402	2
3	8531	844.1	1
3	8538	844.7	5
3	8546	845.308053998132	5
3	8553	845.712781610472	3
3	8560	846.01613594764	2
3	8566	846.421830709021	3
3	8571	846.722861766152	2
3	8575	846.929001416718	1
3	8595	850.2	2
3	8599	850.5	2
3	8605	850.906993795025	3
3	8614	851.615095983687	6
3	8624	852.21929377695	5
3	8644	856.2	2
3	8648	856.5	2
3	8653	856.805870969677	2
3	8661	857.413137974922	5
3	8665	857.616714431914	1
3	8670	857.926430688295	2
3	8677	858.228284463437	2
3	8682	858.531313922923	2
3	8687	858.838682489063	2
3	8692	859.140622734025	2
3	8696	859.349488430039	1
3	8715	862.2	2
3	8719	862.5	2
3	8726	863.007854924604	4
3	8732	863.319384840979	2
3	8737	863.628114788614	2
3	8741	863.835295473758	1
3	8761	866.2	2
3	8764	866.4	1
3	8770	866.801498426727	3
3	8776	867.204453677648	3
3	8781	867.511341721172	2
3	8785	867.712012681675	1
3	8807	870.4	4
3	8812	870.8	3
3	8817	871.105035665754	2
3	8822	871.407523724913	2
3	8828	871.816492350251	3
3	8849	874.3	3
3	8852	874.5	1
3	8857	874.802894810943	2
3	8863	875.209493025212	3
3	8867	875.415495545769	1
3	8873	875.817577707975	3
3	8881	876.226405568314	3
3	8887	876.634079953856	3
3	8891	876.83991705059	1
3	8895	877.044582560999	1
3	8900	877.348101212122	2
3	8921	880.3	3
3	8926	880.7	3
3	8932	881.104609556789	3
3	8938	881.510802277917	3
3	8944	881.920131783719	3
3	8952	882.327701192217	3
3	8958	882.732306996437	3
3	8969	883.444649231217	6
3	8992	886.5	5
3	8998	887	4
3	9004	887.405941957079	3
3	9010	887.808508044646	3
3	9017	888.113124458095	2
3	9022	888.421086864544	2
3	9026	888.628038867952	1
3	9047	892.3	3
3	9052	892.7	3
3	9057	893.001733811011	2
3	9062	893.30947388573	2
3	9067	893.616617157153	2
3	9075	894.022723492918	3
3	9081	894.431273234946	3
3	9088	894.936827107566	4
3	9094	895.345539679157	3
3	9099	895.654149554392	2
3	9104	895.959349806277	2
3	9112	896.36931557369	3
3	9133	900.3	3
3	9140	900.9	5
3	9145	901.208566285208	2
3	9149	901.4149966014	1
3	9154	901.722619423061	2
3	9158	901.928726063855	1
3	9178	904.2	2
3	9182	904.5	2
3	9188	904.909194595806	3
3	9193	905.21309438147	2
3	9197	905.418703276953	1
3	9203	905.819210643836	3
3	9210	906.120149112639	2
3	9231	910.3	3
3	9236	910.7	3
3	9243	911.208398767206	4
3	9247	911.413657079578	1
3	9253	911.819654404934	3
3	9262	912.325218017637	4
3	9283	916.3	3
3	9287	916.6	2
3	9292	916.903352087256	2
3	9300	917.511384458932	5
3	9305	917.81232446197	2
3	9311	918.016139879066	1
3	9316	918.316404193125	2
3	9338	922.4	4
3	9343	922.8	3
3	9350	923.301337040849	4
3	9356	923.705432584297	3
3	9364	924.115064753186	3
3	9370	924.515174799886	3
3	9374	924.724768936388	1
3	9382	925.331898261036	5
3	9402	928.2	2
3	9406	928.5	2
3	9413	929.003861767244	4
3	9421	929.605021794817	5
3	9426	929.914839614561	2
3	9434	930.318115132666	3
3	9458	934.6	6
3	9461	934.8	1
3	9465	935.003416970695	1
3	9469	935.208399750189	1
3	9475	935.613353077477	3
3	9480	935.91979655403	2
3	9488	936.328084641283	3
3	9508	940.2	2
3	9513	940.6	3
3	9520	941.102083275706	4
3	9525	941.406649742428	2
3	9529	941.613694906976	1
3	9534	941.919936020468	2
3	9540	942.123811190589	1
3	9561	946.3	3
3	9565	946.6	2
3	9571	946.906802717248	2
3	9578	947.414208648706	4
3	9584	947.71830900991	2
3	9591	948.023813293379	2
3	9598	948.435211408101	3
3	9617	952.1	1
3	9623	952.6	4
3	9628	952.909914378989	2
3	9632	953.112495048269	1
3	9654	956.4	4
3	9657	956.6	1
3	9662	956.904434052999	2
3	9670	957.510477752315	5
3	9676	957.919307079119	3
3	9684	958.231947013511	2
3	9688	958.435314871404	1
3	9695	958.944320807415	4
3	9699	959.150734499294	1
3	9720	962.3	3
3	9724	962.6	2
3	9730	963.008839354612	3
3	9735	963.220894293876	1
3	9739	963.427848125898	1
3	9743	963.629536241371	1
3	9765	966.4	4
3	9769	966.7	2
3	9775	967.102576576196	3
3	9781	967.509199494949	3
3	9786	967.814917658335	2
3	9792	968.017389102403	1
3	9797	968.321485734106	2
3	9821	972.6	6
3	9824	972.8	1
3	9829	973.109240885565	2
3	9835	973.510423109814	3
3	9842	973.917464562633	3
3	9850	974.326847711405	3
3	9854	974.534087961287	1
3	9860	974.936415641909	3
3	9865	975.2385341976	2
3	9870	975.544284125377	2
3	9875	975.844814263108	2
3	9882	976.154748279203	2
3	9887	976.463329136322	2
3	9904	980	0
3	9907	980.2	1
3	9911	980.405869776501	1
3	9916	980.70793506665	2
3	9920	980.914211809554	1
3	9926	981.314966448548	3
3	9931	981.618889669592	2
3	9950	984.1	1
3	9953	984.3	1
3	9957	984.507379383444	1
3	9965	985.113230188553	5
3	9969	985.322270025062	1
3	9974	985.625858410564	2
3	9983	986.035996482277	3
3	10004	990.3	3
3	10009	990.7	3
3	10015	991.014539053937	2
3	10021	991.318919746806	2
3	10028	991.827803671644	4
3	10036	992.230972304467	3
3	10041	992.536638828112	2
3	10062	996.3	3
3	10066	996.6	2
3	10071	996.909491360313	2
3	10076	997.217246713703	2
3	10082	997.621396878873	3
3	10087	997.930228583143	2
3	10095	998.338503074542	3
3	10100	998.639818453212	2
3	10107	999.148057605857	4
3	10115	999.754265717191	5
3	10138	1002.5	5
3	10142	1002.8	2
3	10149	1003.306547070534	4
3	10154	1003.611123133317	2
3	10159	1003.915588741247	2
3	10167	1004.136769638521	1
3	10171	1004.341958449632	1
3	10176	1004.642373911696	2
3	10200	1008.6	6
3	10205	1009	3
3	10210	1009.206694862022	1
3	10215	1009.508848937315	2
3	10221	1009.91510791525	3
3	10228	1010.216772689479	2
3	10233	1010.52115227247	2
3	10240	1011.027379842946	4
3	10246	1011.431587394145	3
3	10267	1014.4	4
3	10272	1014.706569418858	2
3	10277	1015.006690953459	2
3	10284	1015.512687895848	4
3	10288	1015.715428440094	1
3	10295	1016.022904905702	2
3	10315	1020.2	2
3	10325	1021.000003954642	7
3	10329	1021.202875123831	1
3	10335	1021.605030090661	3
3	10341	1021.917798366861	2
3	10365	1024.6	6
3	10370	1024.902786055735	2
3	10376	1025.303958806902	3
3	10384	1025.907737213951	5
3	10392	1026.218857955809	2
3	10413	1030.3	3
3	10418	1030.7	3
3	10424	1031.1070043903	3
3	10431	1031.614434746058	4
3	10439	1032.023025262708	3
3	10444	1032.330954712224	2
3	10449	1032.542359966844	1
3	10469	1036.2	2
3	10473	1036.5	2
3	10477	1036.70928484294	1
3	10482	1037.014956966949	2