file 250420 1369674126                                          
version 2
run Join-58-20130429-12:51:19-17679
attr configname Join
attr datetime 20130429-12:51:19
attr experiment "\"Join\""
attr inifile omnetpp.ini
attr iterationvars $0=1024
attr iterationvars2 "$0=1024, $repetition=8"
attr measurement $0=1024
attr network Network
attr processid 17679
attr repetition 8
attr replication #8
attr resultdir results
attr runnumber 58
attr seedset 58
vector 58  Network.dyn_peer[0]  lookupHopsSig:vector  ETV
58	444 249976 3113 178772 20.2 15719.646529685104 8987 0 50 118513 1994523
