file 269988 1369674127                                          
version 2
run Join-95-20130429-13:07:36-17679
attr configname Join
attr datetime 20130429-13:07:36
attr experiment "\"Join\""
attr inifile omnetpp.ini
attr iterationvars $0=16384
attr iterationvars2 "$0=16384, $repetition=5"
attr measurement $0=16384
attr network Network
attr processid 17679
attr repetition 5
attr replication #5
attr resultdir results
attr runnumber 95
attr seedset 95
vector 95  Network.dyn_peer[0]  lookupHopsSig:vector  ETV
95	447 269541 43531 707863 25.101230474177 51654.939092684509 9224 1 244 477647 33289687
