version 2
run Join-40-20130429-12:50:23-17679
attr configname Join
attr datetime 20130429-12:50:23
attr experiment "\"Join\""
attr inifile omnetpp.ini
attr iterationvars $0=512
attr iterationvars2 "$0=512, $repetition=0"
attr measurement $0=512
attr network Network
attr processid 17679
attr repetition 0
attr replication #0
attr resultdir results
attr runnumber 40
attr seedset 40

vector 40  Network.dyn_peer[0]  lookupHopsSig:vector  ETV
40	1654	21.8	18
40	1670	23.1	12
40	1675	23.402285087201	2
40	1693	24.804261540255	13
40	1706	25.905989621692	10
40	1717	26.608519986335	6
40	1730	27.715699797969	10
40	1745	28.821481434814	10
40	1761	30.026097706024	11
40	1775	31.230968358352	11
40	1815	36	20
40	1826	37	9
40	1842	38.202938609884	11
40	1854	39.208664291093	9
40	1867	40.117777261284	8
40	1880	41.219061034535	10
40	1896	42.420957087829	11
40	1914	46.3	3
40	1924	47.2	8
40	1932	47.808436329576	5
40	1944	48.611909610581	7
40	1953	49.31855352259	6
40	1975	51.123554559741	17
40	2002	54.9	9
40	2011	55.7	7
40	2029	57.103830114626	13
40	2046	58.405711876605	12
40	2053	58.909196921262	4
40	2063	59.710712055376	7
40	2072	60.211095594086	4
40	2088	61.616237665056	13
40	2111	63.523170818742	18
40	2120	64.026676047856	4
40	2124	64.227806249595	1
40	2131	64.730442294786	4
40	2139	65.334583481021	5
40	2151	66.139535415653	7
40	2170	67.844451832865	16
40	2257	72	20
40	2294	73.7	16
40	2311	74.708014522178	9
40	2320	75.415559722363	6
40	2335	76.520631118054	10
40	2344	77.229824332697	6
40	2358	78.237350265248	9
40	2376	79.847161127402	15
40	2384	80.247963102095	3
40	2393	80.952864691203	6
40	2411	82.362485406203	13
40	2416	82.669891370255	2
40	2439	86.5	5
40	2447	87.2	6
40	2464	88.504320726636	12
40	2478	89.709333231473	11
40	2488	90.317245358187	5
40	2500	91.319507101078	9
40	2514	92.324308186853	9
40	2532	93.93361209131	15
40	2550	95.337074861618	13
40	2557	95.838091236567	4
40	2575	97.247674863841	13
40	2616	102.3	23
40	2632	103.8	14
40	2649	105.108190757054	12
40	2666	106.408506259505	12
40	2678	107.410161260297	9
40	2689	108.119068395723	6
40	2706	109.625827201727	14
40	2723	112.2	2
40	2729	112.7	4
40	2748	114.205855608736	14
40	2755	114.708596125119	4
40	2764	115.41222875669	6
40	2777	116.313877135595	8
40	2800	118.216599019196	18
40	2809	118.925441369864	6
40	2813	119.130308571949	1
40	2839	122.8	8
40	2857	124.3	14
40	2888	127.007882865583	26
40	2904	128.209800668579	11
40	2919	129.512599321018	12
40	2935	130.718134870383	11
40	2952	132.018355037172	12
40	2966	133.227667274635	11
40	2982	134.430999097041	11
40	3025	139.9	19
40	3039	141	10
40	3050	141.905002009109	8
40	3062	142.707684814102	7
40	3075	143.814586117166	10
40	3095	145.418844494431	15
40	3102	145.922457892035	4
40	3133	148.428788680126	24
40	3158	152.7	7
40	3163	153.1	3
40	3184	154.807043231171	16
40	3206	156.61076257663	17
40	3214	157.216599735314	5
40	3222	157.816671877542	5
40	3233	158.525487847969	6
40	3263	161.130416651536	25
40	3269	161.536979981323	3
40	3280	162.244142951168	6
40	3286	162.64869248493	3
40	3295	163.354105339926	6
40	3301	163.762225625429	3
40	3344	166.8	8
40	3354	167.7	8
40	3364	168.306909831406	5
40	3377	169.415248334517	10
40	3392	170.516853485458	10
40	3407	171.819052808258	12
40	3422	172.927244470628	10
40	3434	173.928678863738	9
40	3451	175.229592888576	12
40	3486	179.9	19
40	3497	180.7	7
40	3522	182.806982795207	20
40	3534	183.81253719594	9
40	3546	184.620802425766	7
40	3569	186.525033749999	18
40	3580	187.432257152323	8
40	3596	188.641811301223	11
40	3601	188.945251218659	2
40	3607	189.347974926469	3
40	3623	190.556467022093	11
40	3629	190.965892353025	3
40	3634	191.275248904176	2
40	3638	191.477149274727	1
40	3657	194.1	1
40	3661	194.4	2
40	3669	195.009021623956	5
40	3674	195.313000831019	2
40	3685	196.019016180354	6
40	3698	197.128301741824	10
40	3712	198.136580698651	9
40	3724	199.140242165238	9
40	3737	200.047924117012	8
40	3748	200.949839914731	8
40	3775	203.252645696558	22
40	3783	203.852708916624	5
40	3823	208	20
40	3833	208.9	8
40	3855	210.700943029106	17
40	3863	211.309812776509	5
40	3905	216.2	22
40	3914	217	7
40	3942	219.409761689074	23
40	3954	220.212462131785	7
40	3968	221.419573053926	11
40	3982	222.4269201399	9
40	3996	223.630732813203	11
40	4005	224.132360643539	4
40	4010	224.436392986061	2
40	4039	229.2	12
40	4051	230.1	8
40	4062	231.004054937707	8
40	4072	231.805616510528	7
40	4086	232.811936835617	9
40	4096	233.618022423242	7
40	4120	235.619554628168	19
40	4142	238.7	7
40	4161	240.3	15
40	4175	241.505546621144	11
40	4190	242.611040687998	10
40	4200	243.416691221261	7
40	4218	244.825117108227	13
40	4229	245.733216069162	8
40	4240	246.435103335192	6
40	4256	247.835384304309	13
40	4262	248.040585828085	1
40	4287	250.1494804655	20
40	4320	255.5	15
40	4332	256.4	8
40	4341	257.101999313323	6
40	4349	257.708569656747	5
40	4370	259.414161424035	16
40	4380	260.015117654843	5
40	4390	260.821112225389	7
40	4398	261.426316103788	5
40	4415	262.736214443093	12
40	4425	263.541099568283	7
40	4445	265.14295395813	15
40	4475	269.4	14
40	4501	271.7	22
40	4513	272.506268106023	7
40	4522	273.206490810119	6
40	4528	273.607758721694	3
40	4548	275.215224816921	15
40	4561	276.115878341634	8
40	4571	276.920601275647	7
40	4591	278.524011291563	15
40	4627	282.7	7
40	4633	283.2	4
40	4645	284.002389135209	7
40	4654	284.705742575174	6
40	4668	285.91432214358	11
40	4678	286.518784026281	5
40	4686	287.123197471919	5
40	4705	290.4	4
40	4720	291.8	13
40	4741	293.50757388466	16
40	4763	295.31012937185	17
40	4781	296.712860124119	13
40	4785	296.922270126511	1
40	4795	297.727739707406	7
40	4807	298.535317853591	7
40	4819	299.538423137738	9
40	4825	299.942105600297	3
40	4844	301.445843591772	14
40	4878	305.6	16
40	4890	306.5	8
40	4900	307.306391575678	7
40	4921	309.014632751344	16
40	4930	309.72250571352	6
40	4942	310.5266497041	7
40	4948	310.92919262844	3
40	4958	311.731105730704	7
40	4967	312.23393839146	4
40	4982	313.535486809939	12
40	4991	314.040492912195	4
40	5002	314.94499052494	8
40	5008	315.351952925628	3
40	5020	316.156267634002	7
40	5108	322.1	21
40	5129	322.9	7
40	5149	323.708621189484	7
40	5167	324.317538755311	5
40	5196	326.024564832892	16
40	5207	326.932437508765	8
40	5218	327.837405237539	8
40	5227	328.343710897015	4
40	5234	328.851375240527	4
40	5241	329.351746750901	4
40	5255	330.35782588457	9
40	5266	331.266335519943	8
40	5273	331.776318646801	4
40	5288	332.883068309266	10
40	5294	333.28419367742	3
40	5330	337.8	18
40	5348	339.3	14
40	5360	340.105929133016	7
40	5376	341.50774674022	13
40	5390	342.515259911742	9
40	5399	343.22249354857	6
40	5419	344.829401110375	15
40	5463	349.4	14
40	5469	349.9	4
40	5486	351.204491995407	12
40	5504	352.607513609483	13
40	5526	354.416988011341	17
40	5531	354.724176677189	2
40	5565	359.6	16
40	5575	360.3	6
40	5587	361.303717709754	9
40	5594	361.812334562442	4
40	5608	362.817325526613	9
40	5620	363.825071576367	9
40	5631	364.532007184432	6
40	5654	366.435289464542	18
40	5677	368.343351225233	18
40	5690	369.451663724723	10
40	5711	371.159669076061	16
40	5738	374.9	9
40	5744	375.4	4
40	5750	375.808098780433	3
40	5764	376.812760638584	9
40	5786	380.4	4
40	5789	380.6	1
40	5811	382.406166696371	17
40	5816	382.716060048166	2
40	5822	383.120401644167	3
40	5832	383.926129218577	7
40	5840	384.329298099071	3
40	5848	384.930240248054	5
40	5854	385.339886435914	3
40	5880	388.8	8
40	5889	389.6	7
40	5897	390.000467211152	3
40	5904	390.508572832035	4
40	5917	391.616121873803	10
40	5926	392.119505304345	4
40	5949	396.5	5
40	5968	398.1	15
40	5983	399.409863081001	12
40	5996	400.317393226464	8
40	6006	401.123588122798	7
40	6020	402.126453443139	9
40	6082	407.1	11
40	6099	408.5	13
40	6114	409.80212010724	12
40	6133	411.311935999018	14
40	6150	412.620401524055	12
40	6165	413.926223483282	12
40	6180	415.034667391153	10
40	6202	418.7	7
40	6214	419.8	10
40	6228	420.803064184524	9
40	6258	423.409124965281	25
40	6273	424.517696646707	10
40	6282	425.220237799665	6
40	6290	425.826283285083	5
40	6325	429.7	17
40	6341	431	12
40	6350	431.70556962439	6
40	6361	432.407791973572	6
40	6372	433.310361905063	8
40	6378	433.713971589019	3
40	6386	434.115841336746	3
40	6393	434.618280581433	4
40	6402	435.320265061617	6
40	6421	436.82799616031	14
40	6425	437.028941230532	1
40	6466	442.1	21
40	6472	442.6	4
40	6481	443.303974419494	6
40	6498	444.605879105759	12
40	6534	447.807896142891	31
40	6542	448.217845962813	3
40	6554	449.220386078985	9
40	6561	449.728192538487	4
40	6585	451.737842700796	19
40	6622	455.9	19
40	6631	456.5	5
40	6646	457.801417462846	12
40	6660	458.808292447427	9
40	6672	459.809922576593	9
40	6682	460.415081344539	5
40	6688	460.818316414627	3
40	6700	461.819188615759	9
40	6714	462.822477298369	9
40	6722	463.42512148017	5
40	6779	466.8	8
40	6804	467.9	10
40	6828	468.808521535135	8
40	6848	469.610476161911	7
40	6872	470.61154276203	9
40	6880	470.915595494984	2
40	6914	472.416086379629	14
40	6934	474.02114919166	15
40	6947	475.026449849902	9
40	6961	476.033807029892	9
40	6970	476.742636238415	6
40	6978	477.349319554804	5
40	7005	480.9	9
40	7023	482.4	14
40	7035	483.401975212183	9
40	7049	484.409314828838	9
40	7056	484.910783584198	4
40	7075	486.418552578516	14
40	7097	488.219755300407	17
40	7119	490.028860090463	17
40	7136	491.529236581334	14
40	7150	492.536577979525	9
40	7170	496.2	2
40	7176	496.7	4
40	7206	499.303862658494	25
40	7222	500.510981748808	11
40	7235	501.611549026857	10
40	7253	503.020643068638	13
40	7271	504.42665282726	13
40	7281	505.236427016844	7
40	7307	508.8	8
40	7315	509.5	6
40	7350	512.406114613385	28
40	7370	514.011562458729	15
40	7388	515.619853908341	15
40	7405	516.927352660403	12
40	7412	517.429818579724	4
40	7441	521.1	11
40	7449	521.8	6
40	7461	522.600323366876	7
40	7471	523.41007971781	7
40	7493	525.210617128295	17
40	7513	528.2	2
40	7518	528.6	3
40	7524	529.0037759943	3
40	7541	530.309264748938	12
40	7555	531.320027811107	9
40	7581	533.433847248881	20
40	7646	537.3	13
40	7658	538.2	8
40	7667	538.904519453737	6
40	7698	541.613617552485	26
40	7716	543.020792189539	13
40	7720	543.221373121592	1
40	7737	544.528406629041	12
40	7756	546.033726712418	14
40	7769	547.13380531408	10
40	7794	550.7	7
40	7799	551.1	3
40	7822	553.000264147119	18
40	7828	553.402429626944	3
40	7838	554.002738811002	5
40	7844	554.409103385911	3
40	7852	555.010379719722	5
40	7858	555.415747211344	3
40	7928	558.2	2
40	7993	560.8	25
40	8021	562.302667047614	14
40	8051	566.3	3
40	8067	567.8	14
40	8084	569.102671919167	12
40	8089	569.40955652578	2
40	8101	570.211606036582	7
40	8108	570.713998849558	4
40	8126	572.122307270109	13
40	8141	573.426602096339	12
40	8151	574.0365554481	5
40	8169	575.641123539255	15
40	8187	577.047970626348	13
40	8228	582.3	23
40	8237	583.1	7
40	8251	584.109470469963	9
40	8265	585.319380448839	11
40	8277	586.12784367662	7
40	8291	587.331784379464	11
40	8298	587.836588989699	4
40	8318	590.5	5
40	8347	593.1	25
40	8366	594.60229353554	14
40	8385	596.109728196467	14
40	8391	596.513482300766	3
40	8411	598.122443086599	15
40	8420	598.822949823051	6
40	8431	599.727572432284	8
40	8439	600.130862719896	3
40	8514	605.5	15
40	8553	607.1	15
40	8579	608.107175163473	9
40	8607	609.407998642423	12
40	8629	610.416505208394	9
40	8652	612.320463561812	18
40	8662	613.129845967302	7
40	8675	614.03935075286	8
40	8690	615.349219268338	12
40	8702	616.154797646437	7
40	8725	620.5	5
40	8729	620.8	2
40	8734	621.104560191447	2
40	8740	621.505272704499	3
40	8762	623.314849042069	17
40	8770	623.922806516257	5
40	8789	625.425914195764	14
40	8795	625.8343587492	3
40	8806	626.538995889943	6
40	8812	626.940494664081	3
40	8817	627.243632411635	2
40	8847	629.850324275246	25
40	8858	630.556945945214	6
40	8865	631.060748703566	4
40	8873	631.669829116773	5
40	8884	632.373732701015	6
40	8906	634.17562703434	17
40	8934	639	10
40	8953	640.6	15
40	8965	641.600072428055	9
40	8984	643.103754008947	14
40	9002	644.507093504549	13
40	9025	646.407597595367	18
40	9030	646.712540850511	2
40	9060	649.32238346113	25
40	9086	652.8	8
40	9094	653.5	6
40	9110	654.707935316606	11
40	9127	656.010081279241	12
40	9138	656.910547774639	8
40	9153	658.011421642503	10
40	9163	658.815058941374	7
40	9182	662.1	1
40	9190	662.8	6
40	9196	663.204163019272	3
40	9204	663.807528729048	5
40	9224	665.415873226782	15
40	9229	665.723241226039	2
40	9242	666.627451486637	8
40	9256	667.832571941563	11
40	9279	669.734047565388	18
40	9330	672.6	6
40	9363	674	13
40	9382	675.407250422548	13
40	9389	675.915730280768	4
40	9413	677.922216988239	19
40	9434	679.622808373366	16
40	9448	680.626768304042	9
40	9469	684.6	6
40	9478	685.4	7
40	9489	686.101221418066	6
40	9519	688.704860117944	25
40	9531	689.705254134916	9
40	9538	690.009948215394	2
40	9552	691.219587565045	11
40	9566	692.224203480844	9
40	9579	693.328862012227	10
40	9596	694.632522790318	12
40	9618	698.6	6
40	9642	700.7	20
40	9655	701.805026931469	10
40	9672	703.112213575457	12
40	9689	704.416539059366	12
40	9704	705.717433324037	12
40	9713	706.223817080997	4
40	9755	712.2	22
40	9761	712.7	4
40	9783	714.508595775824	17
40	9789	714.914932097957	3
40	9796	715.415752806012	4
40	9807	716.122564081773	6
40	9815	716.725084512005	5
40	9821	717.128102797935	3
40	9830	717.830347220747	6
40	9837	718.134090683488	2
40	9882	722.5	5
40	9903	724.3	17
40	9912	725.005102920443	6
40	9930	726.410810250606	13
40	9950	728.020732184167	15
40	9965	729.321300595163	12
40	9976	730.022293367444	6
40	9990	731.228025997409	11
40	10023	735.7	17
40	10046	737.7	19
40	10062	738.903999193494	11
40	10069	739.413816835439	4
40	10086	740.723809055023	12
40	10094	741.324807247412	5
40	10106	742.128664788046	7
40	10113	742.634978958292	4
40	10121	743.238183736159	5
40	10126	743.54570051732	2
40	10154	747	10
40	10163	747.8	7
40	10204	751.307083417689	34
40	10215	752.010270389194	6
40	10236	753.918378565482	18
40	10249	754.826832311428	8
40	10276	758.9	9
40	10293	760.3	13
40	10303	761.107971816936	7
40	10321	762.510371595355	13
40	10332	763.417727205941	8
40	10344	764.224154489488	7
40	10354	765.029425831763	7
40	10378	767.035050881479	19
40	10418	772.2	22
40	10429	773.2	9
40	10436	773.708502688396	4
40	10445	774.209053457858	4
40	10460	775.516289055257	12
40	10536	778.7	7
40	10568	780.1	13
40	10581	781.209779487908	10
40	10587	781.616986480014	3
40	10595	782.025554324852	3
40	10602	782.526074774288	4
40	10612	783.3327496901	7
40	10624	784.140154077015	7
40	10649	788.7	7
40	10658	789.5	7
40	10663	789.807135293397	2
40	10674	790.515419421088	6
40	10684	791.323328766065	7
40	10704	792.924887018672	15
40	10715	793.829357819189	8
40	10725	794.434191797964	5
40	10734	795.142300446107	6
40	10744	795.942686919631	7
40	10755	796.643226119301	6
40	10784	801.2	12
40	10790	801.7	4
40	10801	802.408818218242	6
40	10818	803.918441007262	14
40	10828	804.527165731355	5
40	10837	805.236694471182	6
40	10850	806.14072007271	8
40	10869	807.841201092558	16
40	10886	809.147130625882	12
40	10904	810.547731759926	13
40	10923	812.056509927351	14
40	10951	817	10
40	10968	818.4	13
40	10981	819.50339223924	10
40	10997	820.709124745362	11
40	11007	821.514996055866	7
40	11013	821.918134203027	3
40	11045	824.527404160534	25
40	11059	825.729322575095	11
40	11108	828.3	3
40	11119	828.8	4
40	11161	830.809782248775	19
40	11166	831.119536873467	2
40	11171	831.427284618955	2
40	11181	832.036678142567	5
40	11187	832.438755418405	3
40	11218	835.147685695656	26
40	11235	836.447695626937	12
40	11263	841	10
40	11283	842.7	16
40	11287	842.903117462976	1
40	11296	843.606484046005	6
40	11300	843.81102891035	1
40	11310	844.413805995572	5
40	11318	845.019551666281	5
40	11326	845.627226436028	5
40	11344	847.032092841071	13
40	11372	851.2	12
40	11384	852.1	8
40	11396	853.103281949053	9
40	11409	854.004984758326	8
40	11420	854.91176657177	8
40	11436	856.11193111922	11
40	11448	857.118162978821	9
40	11458	857.922830196743	7
40	11471	858.832048137758	8
40	11483	859.834448115909	9
40	11495	860.634783377106	7
40	11506	861.53596371319	8
40	11517	862.239956318019	6
40	11526	862.949509941735	6
40	11533	863.45775411247	4
40	11545	864.26103635427	7
40	11570	866.367917892338	20
40	11605	871.7	17
40	11614	872.3	5
40	11622	872.905256498584	5
40	11629	873.411893750466	4
40	11639	874.011927774026	5
40	11650	874.92029269562	8
40	11669	876.424000928014	14
40	11681	877.433472583578	9
40	11697	878.639264217987	11
40	11709	879.645851692887	9
40	11730	881.355565577653	16
40	11756	884.8	8
40	11778	886.7	18
40	11791	887.808686371839	10
40	11806	888.910492497819	10
40	11816	889.718107248569	7
40	11827	890.427051633995	6
40	11835	891.030617775677	5
40	11854	892.535868023505	14
40	11864	893.345826846187	7
40	11882	894.751114261171	13
40	11895	895.851345589891	10
40	11907	896.656437558193	7
40	11930	900.6	6
40	11942	901.7	10
40	11954	902.504352664742	7
40	11965	903.41245275173	8
40	11969	903.621985923043	1
40	11984	904.727018898237	10
40	12006	906.53490688697	17
40	12016	907.337850759232	7
40	12022	907.741918370113	3
40	12075	910.7	7
40	12096	911.6	8
40	12119	912.600056652273	9
40	12133	913.80629386092	11
40	12141	914.214791105582	3
40	12154	915.32337932383	10
40	12169	916.432669727332	10
40	12194	921	10
40	12209	922.2	11
40	12215	922.609745439989	3
40	12238	924.512614361971	18
40	12243	924.818005569983	2
40	12260	926.127030657577	12
40	12269	926.831880648232	6
40	12281	927.836686076703	9
40	12292	928.542501171261	6
40	12305	929.649288104003	10
40	12327	932.4	4
40	12342	933.8	13
40	12348	934.005869666112	1
40	12355	934.514567392654	4
40	12368	935.614845799104	10
40	12383	936.718630258148	10
40	12389	937.119702769895	3
40	12399	937.927372144122	7
40	12452	940.7	7
40	12485	942	12
40	12513	943.200580697453	11
40	12539	944.204070404658	9
40	12559	945.108462113104	8
40	12575	946.01046767231	8
40	12583	946.612204956351	5
40	12589	947.015954918222	3
40	12604	948.118027089329	10
40	12622	949.727040285957	15
40	12669	952.3	3
40	12686	953.1	7
40	12695	953.407009108907	2
40	12742	955.410054202736	19
40	12759	956.311398023159	8
40	12766	956.817773004275	4
40	12774	957.418324323967	5
40	12795	959.128278059302	16
40	12819	961.13731962615	19
40	12827	961.738903986439	5
40	12851	964.6	6
40	12863	965.7	10
40	12876	966.601068726363	8
40	12894	968.004520983571	13
40	12902	968.614046398076	5
40	12910	969.21816571641	5
40	12936	971.423958407691	21
40	12958	973.232021527343	17
40	12966	973.837684209229	5
40	12974	974.241118303095	3
40	13001	976.542655142066	22
40	13024	980.5	5
40	13035	981.5	9
40	13048	982.405668966616	8
40	13060	983.413959773096	9
40	13076	984.617509464367	11
40	13088	985.621980256451	9
40	13104	986.824042082248	11
40	13115	987.727851462623	8
40	13140	989.83639656346	20
40	13148	990.238803698089	3
40	13219	995.4	14
40	13239	996.6	11
40	13258	998.10603827822	14
40	13282	1000.111792109831	19
40	13298	1001.520101221752	13
40	13319	1003.221465603554	16
40	13340	1004.923384779159	16
40	13351	1005.829991140852	8
40	13370	1007.334040128516	14
40	13384	1008.341818234431	9
40	13429	1014.6	26
40	13435	1015.1	4
40	13456	1016.805577078941	16
40	13463	1017.311132731428	4
40	13478	1018.420276898322	10
40	13488	1019.226248028207	7
40	13501	1020.128045097436	8
40	13512	1021.028432386934	8
40	13517	1021.333550180149	2
40	13550	1024.2	2
40	13560	1025.1	8
40	13578	1026.505162235114	13
40	13588	1027.314286198229	7
40	13603	1028.414821978434	10
40	13612	1029.124530871551	6
40	13626	1030.126731889381	9
40	13634	1030.735797307177	5
40	13643	1031.438970830072	6
40	13658	1032.545166580762	10
40	13667	1033.247727671888	6
40	13685	1034.655305847735	13
40	13695	1035.457320074117	7
40	13718	1038.6	6
40	13743	1040.8	21
40	13763	1042.400087195211	15
40	13784	1044.109152066022	16
40	13809	1046.216381754739	20
40	13828	1047.922522469266	16
40	13837	1048.422691019504	4
40	13850	1049.529438646478	10
40	13871	1051.237407716464	16
40	13891	1052.838989112938	15
40	13899	1053.443239000902	5
40	13926	1056.9	9
40	13932	1057.4	4
40	13942	1058.006247863206	5
40	13952	1058.809247917181	7
40	13960	1059.419074973575	5
40	13975	1060.520647674663	10
40	13986	1061.430604607296	8
40	14007	1064.6	6
40	14016	1065.4	7
40	14030	1066.408828552833	9
40	14040	1067.213073475456	7
40	14068	1069.614012993331	23
40	14078	1070.222587004561	5
40	14090	1071.230604449066	9
40	14095	1071.533612525737	2
40	14101	1071.935064915033	3
40	14127	1074.8	8
40	14136	1075.6	7
40	14152	1076.805586266294	11
40	14161	1077.508749973517	6
40	14173	1078.310405071055	7
40	14184	1079.21129977041	8
40	14196	1080.019506893831	7
40	14213	1084.2	2
40	14231	1085.9	16
40	14245	1086.90478125228	9
40	14255	1087.708238659346	7
40	14285	1090.111038201524	23
40	14297	1091.117766609665	9
40	14332	1095.7	17
40	14354	1097.6	18
40	14363	1098.107107676663	4
40	14368	1098.412828733305	2
40	14377	1099.122162295185	6
40	14390	1100.022309507761	8
40	14410	1101.827807604806	17
40	14421	1102.53561352276	6
40	14437	1103.945579616112	13
40	14446	1104.447891128497	4
40	14456	1105.252908261763	7
40	14464	1105.853987056086	5
40	14473	1106.363032537805	4
40	14500	1108.669196150732	22
40	14528	1113	10
40	14542	1114.1	10
40	14556	1115.301065370074	11
40	14563	1115.801151490652	4
40	14570	1116.101561031716	2
40	14580	1116.905427546528	7
40	14584	1117.111782145911	1
40	14597	1118.02094562542	8
40	14639	1124.2	22
40	14650	1125.2	9
40	14658	1125.802925219011	5
40	14669	1126.511620730647	6
40	14688	1128.014810172315	14
40	14697	1128.721313044238	6
40	14710	1129.82461284138	10
40	14723	1130.731368600036	8
40	14732	1131.440115714086	6
40	14742	1132.040945262963	5
40	14746	1132.24205416702	1
40	14777	1137.4	14
40	14792	1138.6	11
40	14806	1139.800787184075	11
40	14821	1140.910036939058	10
40	14842	1142.617689718647	16
40	14849	1143.124542818415	4
40	14862	1144.031540347322	8
40	14884	1148.4	4
40	14894	1149.3	8
40	14901	1149.803721242106	4
40	14910	1150.305277949046	4
40	14917	1150.813481846186	4
40	14926	1151.518224390172	6
40	14938	1152.32201503032	7
40	14944	1152.725178560655	3
40	14950	1153.132317850956	3
40	14959	1153.835106924102	6
40	14965	1154.03591170693	1
40	14990	1158.7	7
40	14998	1159.4	6
40	15014	1160.60474249415	11
40	15027	1161.705037430158	10
40	15040	1162.61348939685	8
40	15075	1165.722464912481	30
40	15091	1166.925350267235	11
40	15108	1170.2	2
40	15115	1170.8	5
40	15125	1171.608721481144	7
40	15137	1172.417679789943	7
40	15151	1173.623936648009	11
40	15165	1174.630655257432	9
40	15175	1175.435117707995	7
40	15182	1175.936127783842	4
40	15199	1177.243899749388	12
40	15233	1181.6	16
40	15255	1183.5	18
40	15265	1184.109760893681	5
40	15285	1185.916207072071	17
40	15299	1186.925737287737	9
40	15310	1187.835082598819	8
40	15323	1188.744403282079	8
40	15333	1189.545488872729	7
40	15377	1194.4	24
40	15383	1194.9	4
40	15393	1195.70618972087	7
40	15404	1196.408927361641	6
40	15427	1198.318031749345	18
40	15444	1199.822817905453	14
40	15455	1200.527934902001	6
40	15468	1201.628085882631	10
40	15479	1202.331206087786	6
40	15490	1203.23491571253	8
40	15512	1205.037343071113	17
40	15553	1210.1	21
40	15567	1211.4	12
40	15572	1211.707212103202	2
40	15586	1212.70992229595	9
40	15596	1213.516575679235	7
40	15609	1214.417801173528	8
40	15619	1215.220687113584	7
40	15642	1218.5	5
40	15677	1221.7	31
40	15685	1222.109483537266	3
40	15694	1222.819378180317	6
40	15701	1223.323126131882	4
40	15712	1224.028301107468	6
40	15718	1224.431807533201	3
40	15726	1225.041685190572	5
40	15742	1226.243680255204	11
40	15750	1226.846101678903	5
40	15756	1227.255866036696	3
40	15773	1228.561745405028	12
40	15780	1229.067021125267	4
40	15802	1232.5	5
40	15814	1233.6	10
40	15818	1233.808342838373	1
40	15833	1234.913527970369	10
40	15840	1235.417989190762	4
40	15847	1235.925454623893	4
40	15859	1236.730330483741	7
40	15868	1237.4337660592	6
40	15878	1238.036390436649	5
40	15892	1239.24490919641	11
40	15914	1242.5	5
40	15928	1243.8	12
40	15948	1245.403789546082	15
40	15970	1247.209377441566	17
40	15986	1248.417652549307	11
40	15999	1249.525814122214	10
40	16016	1250.830259560307	12
40	16042	1255.1	11
40	16054	1256	8
40	16080	1258.207136335652	21
40	16104	1260.214211499842	19
40	16127	1262.115675850431	18
40	16151	1264.120503992433	19
40	16174	1266.028940666142	18
40	16195	1267.936981334412	18
40	16204	1268.439826600116	4
40	16216	1269.446689697266	9
40	16296	1274	20
40	16308	1275.1	10
40	16324	1276.301508745888	11
40	16329	1276.605187756895	2
40	16344	1277.905216541097	12
40	16358	1278.910152755626	9
40	16366	1279.516805068046	5
40	16397	1283.3	13
40	16411	1284.4	10
40	16425	1285.602846736339	11
40	16440	1286.704811932099	10
40	16448	1287.305565684178	5
40	16466	1288.708930653066	13
40	16476	1289.517419464008	7
40	16491	1290.624583098068	10
40	16500	1291.331732608735	6
40	16518	1292.735129080902	13
40	16530	1293.742041586263	9
40	16551	1296.4	4
40	16562	1297.4	9
40	16580	1298.800391952039	13
40	16592	1299.808766116909	9
40	16622	1302.210066232624	23
40	16635	1303.315498690941	10
40	16648	1304.219026255913	8
40	16661	1305.329014917188	10
40	16680	1306.837871955462	14
40	16690	1307.642974203937	7
40	16733	1312.3	23
40	16736	1312.5	1
40	16746	1313.306045496824	7
40	16760	1314.307911289291	9
40	16770	1315.109224861749	7
40	16786	1316.311593418489	11
40	16800	1317.517100282651	11
40	16812	1318.325991667264	7
40	16827	1319.633019350855	12
40	16851	1322.8	8
40	16863	1323.9	10
40	16875	1324.701080196639	7
40	16885	1325.510464577595	7
40	16917	1329.4	14
40	16922	1329.8	3
40	16942	1331.407013842235	15
40	16949	1331.912070967864	4
40	16973	1334.6	6
40	16986	1335.8	11
40	16996	1336.402876940197	5
40	17007	1337.312824682176	8
40	17020	1338.217388495292	8
40	17031	1339.125637214734	8
40	17044	1340.028847318196	8
40	17058	1341.235501580179	11
40	17072	1342.244089412189	9
40	17107	1347.9	19
40	17138	1350.5	25
40	17144	1350.901206009874	3
40	17160	1352.106430669873	11
40	17171	1353.011037755086	8
40	17181	1353.817996758503	7
40	17204	1355.726046982888	18
40	17231	1358.9	9
40	17242	1359.9	9
40	17248	1360.10977207646	1
40	17264	1361.510108806232	13
40	17273	1362.016280400668	4
40	17294	1363.924992220591	18
40	17305	1364.62875132133	6
40	17320	1365.937215771821	12
40	17340	1367.542815290055	15
40	17371	1371.3	13
40	17390	1372.9	15
40	17396	1373.307631377845	3
40	17411	1374.410558939496	10
40	17416	1374.714905936956	2
40	17423	1375.215121405823	4
40	17428	1375.517126962267	2
40	17444	1376.724653373606	11
40	17503	1381.4	14
40	17516	1382.4	9
40	17524	1383.001028431998	5
40	17539	1384.109595214882	10
40	17552	1385.218364561141	10
40	17571	1386.722738378249	14
40	17602	1389.428478997408	26
40	17614	1390.229949407151	7
40	17626	1391.236809925192	9
40	17640	1392.239311999128	9
40	17656	1393.645957168642	13
40	17668	1394.455238211013	7
40	17690	1396.264917840261	17
40	17709	1400.2	2
40	17719	1401.1	8
40	17733	1402.10574813001	9
40	17746	1403.206387697566	10
40	17760	1404.207620636588	9
40	17777	1405.712942908422	14
40	17793	1406.918421693047	11
40	17798	1407.22266318108	2
40	17815	1408.532031355451	12
40	17852	1413.9	19
40	17866	1415	10
40	17876	1415.80979479274	7
40	17900	1417.813480369357	19
40	17911	1418.517871517133	6
40	17925	1419.717998158779	11
40	17937	1420.524031671624	7
40	17952	1421.831819332482	12
40	17964	1422.632057283492	7
40	17975	1423.537996297068	8
40	17993	1424.947851163974	13
40	18013	1426.553823777815	15
40	18047	1431.7	17
40	18054	1432.1	3
40	18065	1433.008774228917	8
40	18072	1433.517986648063	4
40	18094	1435.321798640083	17
40	18116	1437.130877125829	17
40	18138	1438.940864415403	17
40	18149	1439.843342129391	8
40	18164	1440.952651318766	10
40	18194	1445.2	12
40	18201	1445.8	5
40	18214	1446.703589639512	8
40	18223	1447.413527843718	6
40	18242	1448.921728032372	14
40	18259	1450.230828911651	12
40	18268	1450.930987664161	6
40	18276	1451.540866468188	5
40	18289	1452.441124382442	8
40	18317	1454.842719996775	23
40	18348	1459.3	13
40	18354	1459.8	4
40	18371	1461.109802604808	12
40	18387	1462.317835528018	11
40	18403	1463.718284504151	13
40	18437	1467.6	16
40	18449	1468.5	8
40	18456	1469.006450945755	4
40	18467	1469.908136639403	8
40	18480	1470.809274743952	8
40	18486	1471.213939630669	3
40	18522	1475	10
40	18536	1476.1	10
40	18546	1476.908818200863	7
40	18553	1477.408863201254	4
40	18568	1478.511216133053	10
40	18649	1483.9	19
40	18670	1484.8	8
40	18716	1486.709537408947	18
40	18732	1487.4176062678	6
40	18754	1488.220242826034	7
40	18775	1489.228542885443	9
40	18783	1489.832309150495	5
40	18799	1491.035259388374	11
40	18809	1491.842621160127	7
40	18821	1492.651614026993	7
40	18829	1493.258118842304	5
40	18844	1494.367891490202	10
40	18853	1495.072462743461	6
40	18862	1495.782380570418	6
40	18894	1499.5	15
40	18912	1501	14
40	18932	1502.604721817504	15
40	18944	1503.607920931001	9
40	18955	1504.314373323922	6
40	18961	1504.715132832841	3
40	18983	1506.522599840173	17
40	19009	1508.728184108663	21
40	19020	1509.633600394759	8
40	19043	1511.534402950369	18
40	19057	1512.541023003615	9
40	19086	1517.1	11
40	19092	1517.6	4
40	19102	1518.205462450904	5
40	19115	1519.312345235328	10
40	19121	1519.714950340868	3
40	19138	1521.021272303371	12
40	19155	1522.330588848027	12
40	19182	1526.9	9
40	19190	1527.6	6
40	19202	1528.405499108775	7
40	19209	1528.911735902173	4
40	19220	1529.817078187084	8
40	19231	1530.524279516849	6
40	19244	1531.626770958539	10
40	19258	1532.633995306349	9
40	19270	1533.640233280685	9
40	19283	1534.546327032417	8
40	19295	1535.55003034519	9
40	19308	1536.456720941729	8
40	19316	1537.060003086655	5
40	19346	1541.4	14
40	19351	1541.8	3
40	19367	1543.006782028975	11
40	19378	1543.910968851737	8
40	19391	1544.818525792172	8
40	19402	1545.728124023371	8
40	19415	1546.628860035352	8
40	19420	1546.931791564626	2
40	19432	1547.940050051365	9
40	19448	1549.147966074949	11
40	19458	1549.954450708668	7
40	19472	1550.959464499257	9
40	19484	1551.960887243005	9
40	19498	1552.968834234979	9
40	19509	1553.877484568771	8
40	19522	1554.779656295908	8
40	19529	1555.289195134261	4
40	19568	1560	20
40	19583	1561.4	13
40	19604	1563.109770445628	16
40	19621	1564.413245482421	12
40	19636	1565.715798546571	12
40	19653	1567.024522284245	12
40	19667	1568.031888591047	9
40	19678	1568.937106336195	8
40	19701	1570.83915937088	18
40	19712	1571.742609054551	8
40	19726	1572.749421335426	9
40	19745	1574.249839347328	14