version 2
run Join-22-20130429-12:49:46-17679
attr configname Join
attr datetime 20130429-12:49:46
attr experiment "\"Join\""
attr inifile omnetpp.ini
attr iterationvars $0=128
attr iterationvars2 "$0=128, $repetition=2"
attr measurement $0=128
attr network Network
attr processid 17679
attr repetition 2
attr replication #2
attr resultdir results
attr runnumber 22
attr seedset 22

vector 22  Network.dyn_peer[0]  lookupHopsSig:vector  ETV
22	648	20.514088015863	8
22	653	20.818569525018	2
22	660	21.32027236922	4
22	667	21.824225549682	4
22	682	22.933143357534	10
22	691	23.639446262274	6
22	700	24.142858925416	4
22	724	28.6	6
22	729	29	3
22	739	29.800855555592	7
22	752	30.70349941821	8
22	761	31.413476261381	6
22	771	32.021975245697	5
22	779	32.630046890259	5
22	784	32.933230394951	2
22	792	33.537763580497	5
22	798	33.944298720134	3
22	808	34.546104294355	5
22	832	38.6	6
22	840	39.3	6
22	851	40.00195566154	6
22	860	40.615581472231	5
22	870	41.425141136754	7
22	882	42.228794230258	7
22	892	43.034127779994	7
22	899	43.540032935251	4
22	909	44.141372507628	5
22	932	48.5	5
22	935	48.7	1
22	939	48.906873795683	1
22	943	49.111964776408	1
22	957	50.025961425714	8
22	962	50.329140678124	2
22	966	50.533499765513	1
22	970	50.738991738236	1
22	974	50.943682789899	1
22	979	51.247973760793	2
22	985	51.657152669202	3
22	1010	54.7	7
22	1018	55.4	6
22	1031	56.308432812478	8
22	1040	57.009175430698	6
22	1048	57.615852224476	5
22	1059	58.323290623159	6
22	1066	58.826491760285	4
22	1085	62.4	4
22	1091	62.9	4
22	1100	63.606155817366	6
22	1109	64.106838817311	4
22	1118	64.811234664352	6
22	1123	65.121196914022	2
22	1137	66.12742191717	9
22	1161	70.6	6
22	1166	71	3
22	1173	71.506762153336	4
22	1188	72.61615425382	10
22	1193	72.922993774564	2
22	1203	73.728393743155	7
22	1210	74.03089174357	2
22	1219	74.736283266402	6
22	1226	75.242244869356	4
22	1233	75.744642015553	4
22	1255	78.4	4
22	1261	78.9	4
22	1268	79.40491083095	4
22	1278	80.014502233629	5
22	1287	80.723258194691	6
22	1296	81.425960904288	6
22	1301	81.729064591147	2
22	1309	82.134860809177	3
22	1316	82.639258417409	4
22	1340	86.6	6
22	1343	86.8	1
22	1352	87.507658140901	6
22	1364	88.314573300855	7
22	1376	89.320464126255	9
22	1383	89.821269554737	4
22	1390	90.122469141016	2
22	1394	90.327451942195	1
22	1404	91.134150239268	7
22	1423	94.1	1
22	1430	94.7	5
22	1435	95.006256435101	2
22	1441	95.414449596416	3
22	1462	98.3	3
22	1467	98.7	3
22	1479	99.706332588579	9
22	1487	100.109764459507	3
22	1496	100.816893884806	6
22	1503	101.322624424759	4
22	1507	101.524060838362	1
22	1530	104.5	5
22	1534	104.8	2
22	1543	105.504616634971	6
22	1554	106.20539101059	6
22	1566	107.212674319901	9
22	1572	107.619390672453	3
22	1594	110.4	4
22	1600	110.9	4
22	1606	111.301084814632	3
22	1614	111.909084179682	5
22	1622	112.3134941491	3
22	1628	112.714956603777	3
22	1634	113.117288658118	3
22	1661	117.2	12
22	1673	118.1	8
22	1679	118.509537708603	3
22	1688	119.21052770493	6
22	1700	120.015204318935	7
22	1705	120.315964039937	2
22	1713	120.922124750507	5
22	1722	121.622972193779	6
22	1735	122.526164459005	8
22	1757	126.6	6
22	1764	127.2	5
22	1776	128.000835364293	7
22	1782	128.403243068905	3
22	1789	128.909733984059	4
22	1795	129.311380000322	3
22	1808	130.217247511034	8
22	1828	134.2	2
22	1832	134.5	2
22	1842	135.303255533708	7
22	1855	136.204205906632	8
22	1860	136.509959373728	2
22	1869	137.215944251136	6
22	1891	140.4	4
22	1896	140.8	3
22	1904	141.404795393487	5
22	1911	141.913641485992	4
22	1917	142.121416651987	1
22	1949	147.4	14
22	1955	147.9	4
22	1968	148.804091300119	8
22	1979	149.711920293278	8
22	1989	150.313336121474	5
22	2012	154.5	5
22	2017	154.9	3
22	2025	155.506256249453	5
22	2030	155.811882820012	2
22	2038	156.216238775645	3
22	2047	156.916587768749	6
22	2057	157.719258517939	7
22	2075	160.3	3
22	2088	161.5	11
22	2099	162.201773831096	6
22	2103	162.411233665488	1
22	2117	163.614096410566	11
22	2128	164.321199382329	6
22	2132	164.527136712686	1
22	2145	165.63294485876	10
22	2157	166.440462456318	7
22	2169	167.350906296556	8
22	2189	170.4	4
22	2197	171.1	6
22	2203	171.500303303105	3
22	2215	172.305041169723	7
22	2225	173.10658234098	7
22	2234	173.812512288615	6
22	2246	174.619219781509	7
22	2257	175.522730310735	8
22	2273	176.726845596955	11
22	2283	177.535422850035	7
22	2295	178.344612446169	7
22	2309	179.552660030848	11
22	2324	180.657042793563	10
22	2337	181.760136414644	10
22	2360	184.5	5
22	2367	185.1	5
22	2377	185.902135718199	7
22	2385	186.303811766777	3
22	2393	186.912400881153	5
22	2402	187.622013100703	6
22	2413	188.328522707401	6
22	2421	188.9384325429	5
22	2428	189.441386128088	4
22	2434	189.841742962446	3
22	2443	190.347163466092	4
22	2448	190.647997232484	2
22	2475	194.9	9
22	2481	195.4	4
22	2495	196.409522889219	9
22	2503	196.913247852941	4
22	2523	200.2	2
22	2532	201	7
22	2541	201.703592722662	6
22	2553	202.50549958536	7
22	2565	203.508919491943	9
22	2580	204.61844493442	10
22	2588	205.219065688769	5
22	2596	205.820915502886	5
22	2604	206.224046311996	3
22	2615	207.126651080376	8
22	2623	207.733059696245	5
22	2630	208.041055814784	2
22	2651	212.3	3
22	2657	212.8	4
22	2662	213.103954998112	2
22	2670	213.71010442301	5
22	2681	214.415469318486	6
22	2694	215.517263356146	10
22	2704	216.119094488957	5
22	2714	216.926181548601	7
22	2749	221	10
22	2755	221.5	4
22	2765	222.100540809244	5
22	2774	222.804843848879	6
22	2778	223.007226424676	1
22	2786	223.616956483265	5
22	2798	224.42571406017	7
22	2806	225.025838045598	5
22	2828	228.4	4
22	2833	228.8	3
22	2840	229.300600203336	4
22	2844	229.507029708402	1
22	2850	229.908904008203	3
22	2858	230.314371499955	3
22	2863	230.616205500318	2
22	2871	231.221368590803	5
22	2877	231.62620951449	3
22	2888	232.332000032048	6
22	2908	236.2	2
22	2919	237.2	9
22	2928	237.907124192535	6
22	2936	238.31164436466	3
22	2945	239.020482897587	6
22	2959	240.024798979073	9
22	2964	240.327288001957	2
22	2973	241.030911970927	6
22	2984	241.934956041238	8
22	2995	242.640919649227	6
22	3004	243.345972335509	6
22	3015	244.049676326218	6
22	3024	244.750615996169	6
22	3028	244.952690112385	1
22	3037	245.657332482402	6
22	3058	248.3	3
22	3065	248.9	5
22	3072	249.403235326625	4
22	3078	249.813171225084	3
22	3089	250.515073893695	6
22	3099	251.317297119831	7
22	3106	251.823353661673	4
22	3116	252.424685820929	5
22	3124	253.031752474181	5
22	3129	253.340595421673	2
22	3134	253.641361908962	2
22	3144	254.244940958081	5
22	3169	258.8	8
22	3175	259.3	4
22	3179	259.507311118796	1
22	3183	259.715008569002	1
22	3192	260.216573938811	4
22	3204	261.221912877047	9
22	3209	261.522724982236	2
22	3218	262.026471211478	4
22	3225	262.528998144602	4
22	3230	262.834453083803	2
22	3234	263.037636626639	1
22	3239	263.347557367721	2
22	3259	266.2	2
22	3270	267.2	9
22	3284	268.205046968129	9
22	3292	268.81413355003	5
22	3297	269.114794062698	2
22	3304	269.615547812998	4
22	3323	272.1	1
22	3328	272.5	3
22	3342	273.705469455597	11
22	3356	274.710512309008	9
22	3362	275.117813741901	3
22	3368	275.521414883428	3
22	3386	276.930587830301	13
22	3398	277.936244808416	9
22	3407	278.440415043944	4
22	3431	282.6	6
22	3443	283.7	10
22	3460	285.008305121699	12
22	3475	286.113050454996	10
22	3490	287.415904273478	12
22	3504	288.420366752921	9
22	3519	289.729051112882	12
22	3536	292.2	2
22	3539	292.4	1
22	3550	293.309815384529	8
22	3562	294.118899374359	7
22	3570	294.719929801501	5
22	3578	295.326937865059	5
22	3586	295.935853193677	5
22	3611	298.7	7
22	3615	299	2
22	3624	299.700174378962	6
22	3628	299.907667265413	1
22	3637	300.411456788866	4
22	3652	301.720326234758	12
22	3676	304.6	6
22	3687	305.6	9
22	3701	306.608243445265	9
22	3705	306.811479709329	1
22	3712	307.316698622558	4
22	3737	310.7	7
22	3744	311.3	5
22	3758	312.305975536571	9
22	3767	313.008659582258	6
22	3787	316.2	2
22	3794	316.8	5
22	3800	317.208975762082	3
22	3807	317.718973865953	4
22	3817	318.327951090477	5
22	3826	319.033804743081	6
22	3849	322.5	5
22	3853	322.8	2
22	3858	323.104562941247	2
22	3862	323.306921535893	1
22	3867	323.61375003908	2
22	3876	324.12183777426	4
22	3881	324.422240749912	2
22	3888	324.923353934306	4
22	3895	325.424882337292	4
22	3900	325.727372868602	2
22	3909	326.22797990714	4
22	3916	326.732048846353	4
22	3946	331.2	12
22	3953	331.8	5
22	3962	332.300083561919	4
22	3973	333.202485854262	8
22	3988	334.312157801999	10
22	3993	334.620577703972	2
22	3998	334.923825123493	2
22	4010	335.933726728874	9
22	4023	336.83389899921	8
22	4034	337.741185299978	8
22	4048	338.742812116872	9
22	4059	339.651305151425	8
22	4084	342.7	7
22	4088	343	2
22	4097	343.702796587937	6
22	4109	344.506525604564	7
22	4117	345.111153673834	5
22	4137	348.2	2
22	4144	348.8	5
22	4149	349.103393420651	2
22	4157	349.703727830205	5
22	4171	350.710981353618	9
22	4176	351.019274677567	2
22	4185	351.728353146431	6
22	4204	354.4	4
22	4212	355.1	6
22	4221	355.807554905221	6
22	4234	356.713991105982	8
22	4243	357.422571607685	6
22	4248	357.728838092699	2
22	4262	358.640330034122	8
22	4272	359.445877726853	7
22	4278	359.851845234653	3
22	4284	360.060668567062	1
22	4294	360.862748868033	7
22	4299	361.172598698198	2
22	4306	361.67380910669	4
22	4331	364.8	8
22	4341	365.7	8
22	4354	366.603708520715	8
22	4362	367.209053552131	5
22	4367	367.513468671747	2
22	4372	367.822402678738	2
22	4391	370.1	1
22	4403	371.2	10
22	4418	372.306361219156	10
22	4430	373.309615592029	9
22	4441	374.018442202614	6
22	4450	374.725419539484	6
22	4454	374.927045341267	1
22	4460	375.330019061048	3
22	4472	376.138158593479	7
22	4479	376.64719934356	4
22	4486	377.156447905884	4
22	4495	377.865023113386	6
22	4502	378.170749200951	2
22	4509	378.680462891918	4
22	4515	379.0878951501	3
22	4523	379.689371250594	5
22	4541	382.1	1
22	4544	382.3	1
22	4550	382.700322661839	3
22	4559	383.407387015923	6
22	4565	383.814957828303	3
22	4589	386.6	6
22	4598	387.4	7
22	4613	388.50925575715	10
22	4621	389.109918344896	5
22	4635	390.118127338622	9
22	4642	390.625842452818	4
22	4652	391.434969929382	7
22	4664	392.237420927281	7
22	4679	393.45338754132	11
22	4684	393.758222719743	2
22	4706	396.4	4
22	4712	396.9	4
22	4718	397.308306326065	3
22	4723	397.60836135151	2
22	4732	398.110768415931	4
22	4738	398.515929801367	3
22	4747	399.217875821165	6
22	4771	402.6	6
22	4780	403.4	7
22	4792	404.207039152737	7
22	4800	404.816003122859	5
22	4808	405.424149758243	5
22	4818	406.031884459287	5
22	4824	406.433617859317	3
22	4843	410.1	1
22	4854	411.1	9
22	4864	411.906543147645	7
22	4874	412.515960847276	5
22	4881	413.025677249191	4
22	4887	413.432715380489	3
22	4909	416.4	4
22	4915	416.9	4
22	4922	417.409946857085	4
22	4932	418.011944041526	5
22	4956	422.6	6
22	4967	423.6	9
22	4976	424.108678248252	4
22	4985	424.809976750919	6
22	4994	425.51016712281	6
22	5005	426.210616776499	6
22	5015	427.017552728544	7
22	5026	427.91863185039	8
22	5036	428.522790841415	5
22	5044	429.124237211962	5
22	5070	433	10
22	5074	433.3	2
22	5087	434.205646972705	8
22	5095	434.708267440483	4
22	5113	438	0
22	5117	438.3	2
22	5127	439.101101460242	7
22	5136	439.803076199769	6
22	5144	440.204929973502	3
22	5149	440.50600783234	2
22	5173	444.6	6
22	5179	445.1	4
22	5184	445.401908689567	2
22	5189	445.711250977608	2
22	5200	446.414553858729	6
22	5206	446.815863916895	3
22	5212	447.222430211128	3
22	5217	447.528092255207	2
22	5226	448.037668435015	4
22	5235	448.743214087293	6
22	5260	452.7	7
22	5266	453.2	4
22	5273	453.610367863196	3
22	5281	454.019030976692	3
22	5289	454.61934924739	5
22	5295	455.028901100967	3
22	5299	455.236614527127	1
22	5307	455.846330672898	5
22	5333	458.2	2
22	5343	459.1	8
22	5349	459.500517037741	3
22	5354	459.810339933847	2
22	5366	460.619280928945	7
22	5389	464.5	5
22	5399	465.4	8
22	5411	466.207451443844	7
22	5419	466.816257045149	5
22	5431	467.825280377211	9
22	5447	469.028899550179	11
22	5454	469.535420217802	4
22	5460	469.938042201953	3
22	5469	470.43884684678	4
22	5474	470.744319393865	2
22	5481	471.247774781959	4
22	5488	471.748562224562	4
22	5512	474.6	6
22	5519	475.2	5
22	5527	475.806933471034	5
22	5536	476.308138535781	4
22	5545	477.013130664508	6
22	5550	477.313535579546	2
22	5562	478.114681813074	7
22	5581	482.1	1
22	5590	482.9	7
22	5597	483.408399580055	4
22	5604	483.917005195311	4
22	5617	484.82364612211	8
22	5625	485.427869097965	5
22	5636	486.039685220351	5
22	5652	487.446792368218	13
22	5657	487.754883962066	2
22	5682	490.7	7
22	5691	491.5	7
22	5696	491.805590217642	2
22	5712	493.011337232622	11
22	5722	493.816788578848	7
22	5738	495.025626082762	11
22	5755	496.331302137749	12
22	5774	500.4	4
22	5781	501	5
22	5790	501.704672877267	6
22	5805	502.808750424764	10
22	5818	503.916072455578	10
22	5833	505.01638892825	10
22	5843	505.817319202835	7
22	5851	506.226616984726	3
22	5861	507.031792551613	7
22	5875	508.039225352756	9
22	5900	512.7	7
22	5909	513.5	7
22	5919	514.106216336674	5
22	5931	515.111615251616	9
22	5952	518.3	3
22	5956	518.6	2
22	5962	519.000173869126	3
22	5970	519.603442755884	5
22	5983	520.51038494622	8
22	5988	520.817581674842	2
22	5996	521.417926309044	5
22	6006	522.021774893061	5
22	6016	522.828100465974	7
22	6024	523.43366746752	5
22	6043	526.3	3
22	6049	526.8	4
22	6055	527.203664453509	3
22	6060	527.504640555397	2
22	6065	527.811389877047	2
22	6073	528.220120856811	3
22	6081	528.82432571016	5
22	6089	529.433489982185	5
22	6096	529.940932045101	4
22	6104	530.342282198305	3
22	6114	531.143875552712	7
22	6134	534.2	2
22	6146	535.3	10
22	6159	536.209323083213	8
22	6167	536.810840602565	5
22	6172	537.114470681093	2
22	6180	537.718419138438	5
22	6184	537.926482906104	1
22	6210	540.8	8
22	6217	541.4	5
22	6222	541.705012008813	2
22	6229	542.011772067907	2
22	6234	542.319496463108	2
22	6239	542.619727108137	2
22	6244	542.926207802892	2
22	6269	546.7	7
22	6277	547.4	6
22	6284	547.909700740939	4
22	6293	548.410955507196	4
22	6300	548.912316233191	4
22	6321	552.3	3
22	6330	553.1	7
22	6339	553.806841554588	6
22	6351	554.607950674048	7
22	6360	555.31260347197	6
22	6365	555.619550104776	2
22	6373	556.019883494893	3
22	6384	556.923275959334	8
22	6390	557.331979165021	3
22	6413	560.5	5
22	6421	561.2	6
22	6426	561.504035470262	2
22	6431	561.810024905481	2
22	6456	564.7	7
22	6460	565	2
22	6465	565.309954089808	2
22	6471	565.718226445083	3
22	6478	566.020434347089	2
22	6484	566.422988473228	3
22	6489	566.730404888016	2
22	6510	570.6	6
22	6518	571.209773898024	5
22	6523	571.515429586101	2
22	6532	572.0211872958	4
22	6538	572.429244017121	3
22	6545	572.929520735295	4
22	6557	573.837784874172	8
22	6580	576.8	8
22	6591	577.8	9
22	6604	578.703915460298	8
22	6612	579.311361415809	5
22	6629	580.613324090118	12
22	6638	581.318894491816	6
22	6650	582.124345468102	7
22	6658	582.727692323502	5
22	6667	583.430163373423	6
22	6679	584.230599475837	7
22	6689	585.031620693775	7
22	6713	588.7	7
22	6717	589	2
22	6723	589.404220846462	3
22	6728	589.708298075242	2
22	6736	590.111507426245	3
22	6742	590.515647155466	3
22	6750	591.116145832865	5
22	6770	594.2	2
22	6774	594.5	2
22	6782	595.101843732888	5
22	6796	596.111186303921	9
22	6808	597.113494131358	9
22	6816	597.714696330384	5
22	6828	598.518504321889	7
22	6836	599.120154753073	5
22	6861	602.7	7
22	6869	603.4	6
22	6880	604.100223987	6
22	6886	604.50702839161	3
22	6898	605.508404791671	9
22	6909	606.209015926166	6
22	6915	606.618820609307	3
22	6921	607.028606572412	3
22	6942	610.3	3
22	6947	610.7	3
22	6956	611.400617032018	6
22	6968	612.202795618054	7
22	6977	612.907803315048	6
22	6985	613.510842395949	5
22	6999	614.516205850697	9
22	7012	615.617126557039	10
22	7023	616.319179737159	6
22	7033	617.119809409704	7
22	7058	620.7	7
22	7065	621.3	5
22	7077	622.010449501019	6
22	7087	622.814455244202	7
22	7092	623.121316026533	2
22	7113	626.3	3
22	7120	626.9	5
22	7128	627.50763792586	5
22	7139	628.214497195325	6
22	7148	628.921638061542	6
22	7158	629.722816827588	7
22	7177	632.1	1
22	7185	632.8	6
22	7194	633.50783801652	6
22	7210	634.615739287335	10
22	7223	635.718994184086	10
22	7236	636.619625428622	8
22	7250	637.826357399796	11
22	7274	640.6	6
22	7279	641	3
22	7287	641.60433163715	5
22	7299	642.407188719307	7
22	7309	643.210426959801	7
22	7317	643.811636374809	5
22	7332	644.920024166449	10
22	7364	649.4	14
22	7368	649.7	2
22	7380	650.500439052553	7
22	7385	650.804702608367	2
22	7389	651.008349435611	1
22	7397	651.613010690507	5
22	7417	654.2	2
22	7425	654.9	6
22	7434	655.606183189684	6
22	7446	656.411441287428	7
22	7454	657.016981886892	5
22	7477	660.5	5
22	7484	661.1	5
22	7492	661.700762653702	5
22	7501	662.205435185941	4
22	7506	662.507733875949	2
22	7512	662.913576512886	3
22	7535	666.5	5
22	7543	667.2	6
22	7549	667.601475474603	3
22	7557	668.002949265482	3
22	7565	668.608562829918	5
22	7572	669.114774864807	4
22	7596	672.6	6
22	7601	673	3
22	7615	674.000418701062	9
22	7629	675.207737908344	11
22	7638	675.909832718376	6
22	7644	676.118346711589	1
22	7666	680.4	4
22	7672	680.9	4
22	7677	681.201641485188	2
22	7685	681.806484837089	5
22	7695	682.409718774968	5
22	7705	683.209897830743	7
22	7714	683.913050935513	6
22	7724	684.522122340493	5
22	7729	684.825776223805	2
22	7752	688.5	5
22	7755	688.7	1
22	7761	689.100199790282	3
22	7767	689.503351419029	3
22	7772	689.803970715355	2
22	7783	690.513941299605	6
22	7790	691.014196758108	4
22	7801	691.918295191706	8
22	7809	692.323075621098	3
22	7813	692.529948348391	1
22	7837	696.6	6
22	7845	697.3	6
22	7860	698.401021536239	10
22	7869	699.110226961227	6
22	7884	700.21436125189	10
22	7888	700.414995982688	1
22	7896	701.019100994704	5
22	7915	704.1	1
22	7921	704.6	4
22	7926	704.908882265859	2
22	7935	705.613070018074	6
22	7959	708.6	6
22	7962	708.8	1
22	7968	709.208089002133	3
22	7976	709.809282653329	5
22	7998	712.4	4
22	8005	713	5
22	8010	713.307863673795	2
22	8016	713.707932328673	3
22	8023	714.01788918904	2
22	8037	715.223401119762	11
22	8043	715.623748319772	3
22	8051	716.027159976245	3
22	8056	716.329883407916	2
22	8065	717.037592459417	6
22	8076	717.942758885361	8
22	8090	718.949771324104	9
22	8111	722.3	3
22	8117	722.8	4
22	8129	723.809498737244	9
22	8140	724.511730851253	6
22	8146	724.916600307628	3
22	8152	725.319408627323	3
22	8159	725.822776504678	4
22	8168	726.323713511924	4
22	8177	726.935683971586	5
22	8187	727.739596958081	7
22	8198	728.441353568304	6
22	8203	728.748451415223	2
22	8211	729.349684584992	5
22	8218	729.851006499418	4
22	8230	730.660970225623	7
22	8253	734.5	5
22	8256	734.7	1
22	8262	735.10301802814	3
22	8270	735.70445192469	5
22	8293	738.5	5
22	8304	739.5	9
22	8310	739.90984150384	3
22	8316	740.117206465878	1
22	8320	740.321838685058	1
22	8328	740.921995264306	5
22	8335	741.423534498717	4
22	8362	744.9	9
22	8370	745.506867840613	5
22	8380	746.116107819717	5
22	8386	746.524364572727	3
22	8396	747.328968486749	7
22	8417	750.3	3
22	8421	750.6	2
22	8429	751.205644450634	5
22	8437	751.807330641962	5
22	8447	752.41316357096	5
22	8457	753.21768683342	7
22	8469	754.023413293021	7
22	8477	754.632822212524	5
22	8485	755.238762026269	5
22	8497	756.041830158082	7
22	8506	756.74941943515	6
22	8538	761.4	14
22	8548	762.1	6
22	8560	763.102460547694	9
22	8570	763.910075042875	7
22	8581	764.616032678439	6
22	8592	765.518781440312	8
22	8605	766.427278503354	8
22	8614	767.13630944366	6
22	8622	767.745615041145	5
22	8644	770.4	4
22	8651	771	5
22	8656	771.308350328805	2
22	8667	772.013670627721	6
22	8680	773.123117080514	10
22	8703	776.5	5
22	8710	777.1	5
22	8715	777.409011116088	2
22	8721	777.811357222541	3
22	8732	778.512081726451	6
22	8737	778.813456526665	2
22	8760	782.5	5
22	8767	783.1	5
22	8774	783.608892528309	4
22	8784	784.213014937752	5
22	8789	784.522010615457	2
22	8796	785.029137066254	4
22	8801	785.333638494641	2
22	8808	785.838624936114	4
22	8819	786.542743349445	6
22	8877	790.5	5
22	8884	790.8	2
22	8895	791.205070103132	3
22	8901	791.605705853539	3
22	8913	792.415615939164	7
22	8924	793.320625522647	8
22	8932	793.921179333278	5
22	8943	794.627974554516	6
22	8951	795.237796254743	5
22	8963	796.047424738056	7
22	8984	800.3	3
22	8996	801.4	10
22	9000	801.609033554159	1
22	9008	802.010627136467	3
22	9015	802.519595453032	4
22	9022	803.019853403617	4
22	9031	803.725363677693	6
22	9035	803.930202480514	1
22	9046	804.6368285216	6
22	9052	805.046455383329	3
22	9056	805.249840936262	1
22	9070	806.250905298347	9
22	9099	811.1	11
22	9105	811.6	4
22	9116	812.305347989453	6
22	9126	813.106635425563	7
22	9133	813.613349697324	4
22	9147	814.613361329368	9
22	9167	818.2	2
22	9175	818.9	6
22	9183	819.506161416138	5
22	9192	820.011628135486	4
22	9199	820.518629867729	4
22	9208	821.222586529754	6
22	9221	822.124379208573	8
22	9227	822.531764140777	3
22	9252	826.7	7
22	9256	827	2
22	9262	827.214888932187	1
22	9271	827.921475738514	6
22	9281	828.338232558238	3
22	9293	829.250535641884	8
22	9318	832.7	7
22	9323	833.1	3
22	9330	833.60904193931	4
22	9335	833.91116198325	2
22	9344	834.416060000622	4
22	9348	834.622766695827	1
22	9355	835.127116104207	4
22	9360	835.436563069737	2
22	9367	835.941178804708	4
22	9377	836.548899985146	5
22	9399	840.5	5
22	9408	841.3	7
22	9413	841.607526269331	2
22	9423	842.216737935616	5
22	9430	842.722598611762	4
22	9442	843.628853772906	8
22	9465	846.5	5
22	9479	847.8	12
22	9489	848.409979014166	5
22	9498	849.11918833354	6
22	9505	849.627559993357	4
22	9530	852.7	7
22	9538	853.4	6
22	9548	854.003372740005	5
22	9554	854.412788546646	3
22	9559	854.716963172854	2
22	9569	855.521434860426	7
22	9592	858.5	5
22	9599	859.1	5
22	9607	859.703025480259	5
22	9616	860.203807490877	4
22	9624	860.807708422256	5
22	9632	861.414771167038	5
22	9643	862.12340919045	6
22	9655	863.124444580445	9
22	9668	864.032118104269	8
22	9717	868.4	4
22	9723	868.9	4
22	9729	869.304346260647	3
22	9737	869.909388874151	5
22	9745	870.312041134341	3
22	9756	871.215500323432	8
22	9762	871.622840396922	3
22	9770	872.030416275259	3
22	9776	872.433131908221	3
22	9801	876.7	7
22	9807	877.2	4
22	9812	877.501555120535	2
22	9818	877.905796404373	3
22	9825	878.211694886103	2
22	9846	882.3	3
22	9850	882.6	2
22	9862	883.600158986686	9
22	9873	884.307524584144	6
22	9881	884.909094951009	5
22	9886	885.21495236971	2
22	9891	885.524173561886	2
22	9913	888.4	4
22	9916	888.6	1
22	9927	889.413795946181	7
22	9937	890.019005279227	5
22	9941	890.22317097407	1
22	9948	890.728757816731	4
22	9954	891.135565352515	3
22	9958	891.339606252285	1
22	9984	894.8	8
22	9987	895	1
22	9991	895.207835105333	1
22	10007	896.409282195711	11
22	10015	897.012048343232	5
22	10029	898.016154618212	9
22	10050	902.3	3
22	10057	902.9	5
22	10061	903.106486419569	1
22	10071	903.916188460317	7
22	10078	904.220055800197	2
22	10083	904.521792505535	2
22	10092	905.229306803795	6
22	10116	908.6	6
22	10120	908.9	2
22	10130	909.616796220342	6
22	10134	909.818989791987	1
22	10148	910.821329335386	9
22	10156	911.426638502722	5
22	10179	914.5	5
22	10185	915	4
22	10192	915.501460860704	4
22	10208	916.711420063122	11
22	10222	917.920896737551	11
22	10237	919.030682512336	10
22	10246	919.733726883554	6
22	10261	920.841427068673	10
22	10268	921.344472032017	4
22	10292	924.8	8
22	10304	925.9	10
22	10315	926.601345562452	6
22	10324	927.305946208244	6
22	10335	928.008123888397	6
22	10342	928.516716394685	4
22	10361	932.1	1
22	10371	933	8
22	10377	933.4065070468	3
22	10381	933.611023963452	1
22	10389	934.01833749151	3
22	10394	934.326896116099	2
22	10398	934.529380870611	1
22	10406	935.137409688011	5
22	10428	938.4	4
22	10441	939.6	11
22	10457	940.806271894029	11
22	10466	941.514454699402	6
22	10477	942.220858532957	6
22	10481	942.429512660979	1
22	10500	946.1	1
22	10505	946.5	3
22	10511	946.902998180449	3
22	10518	947.404173030694	4
22	10531	948.313607792452	8
22	10541	949.116254566677	7
22	10546	949.425560657265	2
22	10566	952.2	2
22	10576	953.1	8
22	10581	953.400903431291	2
22	10596	954.506135440028	10
22	10605	955.212882809046	6
22	10617	956.020470515099	7
22	10629	957.022372827334	9
22	10635	957.43118797732	3
22	10656	960.3	3
22	10662	960.8	4
22	10669	961.302586467228	4
22	10676	961.811188310905	4
22	10689	962.715597988803	8
22	10693	962.918002495861	1
22	10698	963.21941067906	2
22	10705	963.723466284465	4
22	10726	966.3	3
22	10735	967.009890380206	6
22	10742	967.51733749554	4
22	10754	968.318609663867	7
22	10767	969.425617744421	10
22	10800	973.5	15
22	10810	974.2	6
22	10814	974.408938073478	1
22	10821	974.91049131421	4
22	10828	975.417184685639	4
22	10839	976.126711333117	6
22	10845	976.528399362727	3
22	10851	976.930485467065	3
22	10857	977.337266531618	3
22	10876	980.2	2
22	10882	980.7	4
22	10887	981.001271793949	2
22	10894	981.505240360304	4
22	10900	981.913114181294	3
22	10909	982.418924967756	4
22	10920	983.327857253712	8
22	10941	986.6	6
22	10948	987.2	5
22	10960	988.008203377574	7
22	10971	988.81627934035	7
22	10975	989.018929539281	1
22	10983	989.628771058481	5
22	11001	992	0
22	11008	992.6	5
22	11015	993.101110425398	4
22	11022	993.605499455367	4
22	11038	994.814642989953	11
22	11049	995.715776493464	8
22	11073	998.6	6
22	11081	999.3	6
22	11086	999.600357405024	2
22	11096	1000.206739669034	5
22	11101	1000.510526004397	2
22	11110	1001.215641463134	6
22	11139	1005.1	11
22	11142	1005.3	1
22	11158	1006.500657679666	11
22	11163	1006.801880714235	2
22	11171	1007.407384998014	5
22	11183	1008.217046055512	7
22	11187	1008.419330875913	1
22	11191	1008.623546031606	1
22	11203	1009.627538154224	9
22	11226	1012.5	5
22	11231	1012.9	3
22	11239	1013.500895037243	5
22	11243	1013.707131526301	1
22	11250	1014.014565739078	2
22	11261	1014.922951296843	8
22	11271	1015.72837594982	7
22	11281	1016.33273285283	5
22	11290	1017.033192546253	6
22	11299	1017.740946178102	6
22	11323	1020.6	6
22	11333	1021.5	8
22	11350	1022.807599061757	12
22	11360	1023.610283284077	7
22	11375	1024.71495513646	10
22	11383	1025.316562820056	5
22	11396	1026.22206036325	8
22	11401	1026.525997901774	2
22	11405	1026.731449149917	1
22	11409	1026.932624088293	1
22	11418	1027.634982716841	6
22	11439	1030.3	3
22	11445	1030.8	4
22	11452	1031.30327474412	4
22	11458	1031.710068829548	3
22	11468	1032.312654954883	5
22	11476	1032.825138481134	4
22	11487	1033.728236286733	8
22	11495	1034.128843325727	3
22	11501	1034.535244601779	3
22	11524	1038.5	5
22	11531	1039.1	5
22	11536	1039.40944038535	2
22	11547	1040.11939976246	6
22	11555	1040.721247315068	5
22	11563	1041.325954614045	5
22	11571	1041.930571436882	5
22	11578	1042.231746896882	2
22	11586	1042.833955171773	5
22	11594	1043.441852399768	5
22	11607	1044.348611338404	8
22	11627	1048.3	3
22	11635	1049	6
22	11643	1049.606223624208	5
22	11651	1050.013465995391	3
22	11660	1050.722040031313	6
22	11665	1051.023846943351	2
22	11672	1051.528188802665	4
22	11681	1052.03237763263	4
22	11690	1052.739557062673	6
22	11695	1053.047683313737	2
22	11702	1053.552017008686	4
22	11712	1054.153426296997	5
22	11736	1058.6	6
22	11739	1058.8	1
22	11751	1059.809632134435	9
22	11768	1061.118476290637	12
22	11785	1062.418703259799	12
22	11796	1063.32488443707	8
22	11802	1063.733785142448	3
22	11806	1063.940782147726	1
22	11814	1064.342535286623	3
22	11820	1064.743527118566	3
22	11839	1066.249994565469	14
22	11860	1070.3	3
22	11866	1070.8	4
22	11871	1071.106890688887	2
22	11884	1072.008809716896	8
22	11890	1072.417474162477	3
22	11898	1073.024205147697	5
22	11907	1073.727789208747	6
22	11917	1074.336452077364	5
22	11922	1074.638596416276	2
22	11945	1078.5	5
22	11951	1079	4
22	11960	1079.709611396561	6
22	11975	1080.810408374515	10
22	11985	1081.617847589975	7
22	11994	1082.122198105062	4
22	11999	1082.423251618958	2
22	12006	1082.924027424041	4
22	12011	1083.22438754895	2
22	12035	1086.6	6
22	12041	1087.1	4
22	12047	1087.502698987654	3
22	12053	1087.90453476607	3
22	12061	1088.311710733695	3
22	12067	1088.713106687074	3
22	12075	1089.314677661895	5
22	12082	1089.818597525665	4
22	12092	1090.420047483718	5
22	12098	1090.826330502781	3
22	12105	1091.328661811254	4
22	12112	1091.836109471092	4
22	12121	1092.33909088031	4
22	12127	1092.744786101261	3
22	12133	1093.153328206204	3
22	12139	1093.559355363221	3
22	12159	1096.2	2
22	12170	1097.2	9
22	12185	1098.304161228772	10
22	12193	1098.913475534836	5
22	12199	1099.313713606369	3
22	12210	1100.019718997905	6
22	12219	1100.724188395466	6
22	12228	1101.427319307501	6
22	12234	1101.828863017427	3
22	12246	1102.636069678627	7
22	12256	1103.441531819414	7
22	12268	1104.247327672251	7
22	12272	1104.449504649088	1
22	12279	1104.956800720242	4
22	12304	1108.8	8
22	12309	1109.2	3
22	12317	1109.808865066303	5
22	12324	1110.111510241585	2
22	12331	1110.614291357141	4
22	12339	1111.214491107351	5
22	12344	1111.515777823278	2
22	12354	1112.125244420948	5
22	12359	1112.433474385416	2
22	12382	1116.5	5
22	12390	1117.2	6
22	12404	1118.113464126495	8
22	12415	1119.020722084114	8
22	12426	1119.830679011829	7
22	12433	1120.131900708912	2
22	12444	1121.033922892076	8
22	12451	1121.538607150728	4
22	12471	1124.2	2
22	12476	1124.6	3
22	12482	1125.004791330886	3
22	12489	1125.51152839126	4
22	12504	1126.62112941875	10
22	12515	1127.521782937046	8
22	12536	1130.3	3
22	12547	1131.3	9
22	12559	1132.106091337793	7
22	12563	1132.310624736358	1
22	12568	1132.616743744343	2
22	12576	1133.223957422207	5
22	12582	1133.628780331552	3
22	12603	1136.3	3
22	12610	1136.9	5
22	12620	1137.705239993894	7
22	12631	1138.41221095224	6
22	12640	1139.115484379752	6
22	12655	1140.217676958831	10
22	12664	1140.927092164759	6
22	12671	1141.427759483337	4
22	12683	1142.233573437253	7
22	12708	1146.7	7
22	12714	1147.2	4
22	12726	1148.001673938953	7
22	12738	1149.005485390105	9
22	12749	1149.911147968495	8
22	12759	1150.518510153161	5
22	12768	1151.219334138443	6
22	12791	1154.5	5
22	12797	1155	4
22	12802	1155.308075115333	2
22	12808	1155.712370253074	3
22	12816	1156.120661545429	3
22	12824	1156.723825121343	5
22	12835	1157.626666314932	8
22	12855	1160.2	2
22	12858	1160.4	1
22	12867	1161.10406077526	6
22	12873	1161.409526076995	2
22	12883	1162.010850048429	5
22	12891	1162.616109483487	5
22	12900	1163.32327306838	6
22	12904	1163.532485979478	1
22	12915	1164.233418127311	6
22	12923	1164.842318015995	5
22	12933	1165.651793882849	7
22	12950	1168.1	1
22	12953	1168.3	1
22	12963	1169.102683178363	7
22	12968	1169.406574082425	2
22	12975	1169.912037188028	4
22	12986	1170.62198242925	6
22	12996	1171.429451714354	7
22	13011	1172.530341737696	10