version 2
run Join-78-20130429-12:53:54-17679
attr configname Join
attr datetime 20130429-12:53:54
attr experiment "\"Join\""
attr inifile omnetpp.ini
attr iterationvars $0=4096
attr iterationvars2 "$0=4096, $repetition=8"
attr measurement $0=4096
attr network Network
attr processid 17679
attr repetition 8
attr replication #8
attr resultdir results
attr runnumber 78
attr seedset 78

vector 78  Network.dyn_peer[0]  lookupHopsSig:vector  ETV
78	11421	20.61646819308	40
78	11456	23.717439970926	30
78	11489	27.8	18
78	11526	31	31
78	11567	34.501559559914	34
78	11610	38.206684569357	36
78	11661	42.707670221593	44
78	11706	46.613106363395	38
78	11736	49.219155280222	25
78	11762	51.424199511362	21
78	11778	52.625932176003	11
78	11802	54.626132184638	19
78	11844	58.234188710088	35
78	11890	62.23819818726	39
78	11902	63.243321173458	9
78	11945	66.952722976102	36
78	12018	75.1	51
78	12030	76	8
78	12048	77.607900934054	15
78	12065	78.917440384707	12
78	12089	80.924665314568	19
78	12104	82.029865524986	10
78	12146	85.82994053212	37
78	12184	90.1	21
78	12232	94.4	42
78	12249	95.906866805045	14
78	12281	98.516150984625	25
78	12291	99.325716335496	7
78	12309	100.729843490125	13
78	12378	105.3	13
78	12449	108.5	31
78	12517	111.604288777178	30
78	12553	114.606178620217	29
78	12575	116.408337716003	17
78	12620	120.308724126756	38
78	12654	123.311982985174	29
78	12696	128.5	25
78	12720	130.6	20
78	12778	135.801581356208	51
78	12803	137.902251937351	20
78	12835	140.509925430348	25
78	12865	143.112676645711	25
78	12889	145.117532140731	19
78	12897	145.723887371855	5
78	12938	149.229125227458	34
78	12962	151.231252956986	19
78	12992	153.84040488097	25
78	13064	161	50
78	13077	162	9
78	13096	163.708220068232	16
78	13115	165.212091146567	14
78	13154	168.517870629023	32
78	13188	171.524824674868	29
78	13193	171.825904349487	2
78	13234	175.33416537597	34
78	13245	176.03963019522	6
78	13259	177.245824705253	11
78	13280	178.954931525846	16
78	13322	184.4	24
78	13346	186.5	20
78	13362	187.901163156498	13
78	13378	189.107292103238	11
78	13414	192.110548824813	29
78	13477	197.816782183282	56
78	13514	200.918687171561	30
78	13552	204.128520986784	31
78	13567	205.431188462918	12
78	13596	207.938542422909	24
78	13625	210.244430742888	22
78	13664	213.747533511237	34
78	13681	215.055740572872	12
78	13722	220.1	21
78	13760	223.6	34
78	13782	225.408511020711	17
78	13824	229.017236600436	35
78	13867	232.721698502783	36
78	13879	233.726420994853	9
78	13914	236.626890378955	28
78	13941	240.9	9
78	13948	241.5	5
78	13957	242.006675119001	4
78	13985	244.409074735838	23
78	14014	246.911830459573	24
78	14032	248.319439561879	13
78	14048	249.726298724689	13
78	14071	251.632773032792	18
78	14119	255.841823950298	41
78	14173	260.442122555805	45
78	14183	261.248842449885	7
78	14225	264.857117292383	35
78	14284	271.9	39
78	14298	273	10
78	14320	274.803466260242	17
78	14326	275.20458995446	3
78	14346	276.810089072509	15
78	14352	277.217996298094	3
78	14364	278.023441677932	7
78	14438	284.62980300921	65
78	14444	285.038465630863	3
78	14499	289.941475166572	48
78	14535	292.941735293772	29
78	14577	296.54465977383	35
78	14624	302.7	27
78	14681	307.9	51
78	14695	308.902895375753	9
78	14714	310.410872018551	14
78	14766	315.020451729818	45
78	14797	317.729349587772	26
78	14844	321.837272972532	40
78	14886	325.43934070317	35
78	14904	326.84806923265	13
78	14936	329.652674960628	27
78	14980	334.4	24
78	14994	335.7	12
78	15030	338.702314958821	29
78	15096	344.507827512288	57
78	15107	345.409090230321	8
78	15135	347.818439615539	23
78	15172	350.925058112063	30
78	15221	355.231529628955	42
78	15237	356.431574356606	11
78	15248	357.336571920382	8
78	15273	359.440752930392	20
78	15323	363.846263347966	43
78	15340	365.150768688474	12
78	15430	370.5	25
78	15565	376.8	62
78	15697	382.805877268528	59
78	15725	384.012209195852	11
78	15751	385.218609974667	11
78	15802	387.42750011765	21
78	15838	389.028468839256	15
78	15885	392.136237090472	30
78	15961	398.941323109606	67
78	15979	400.350756779733	13
78	16025	404.352801735341	39
78	16129	409.5	15
78	16285	414.3	47
78	16344	416.700846130796	23
78	16440	421.102269401347	43
78	16510	424.303112962941	31
78	16534	425.406964724707	10
78	16587	428.007185576281	25
78	16620	430.916391610717	28
78	16647	433.225052637389	22
78	16686	436.530387182299	32
78	16715	439.034401970429	24
78	16764	444.9	29
78	16771	445.5	5
78	16807	448.506055521122	29
78	16811	448.710576614392	1
78	16833	450.51134927285	17
78	16881	454.720818932788	41
78	16889	455.326156201013	5
78	16957	462.9	49
78	17031	469.6	66
78	17100	475.702865012998	60
78	17168	481.706918885607	59
78	17187	483.211589523879	14
78	17250	488.718329082242	54
78	17323	495.221134361318	64
78	17388	502.3	43
78	17427	505.9	35
78	17470	509.609740258066	36
78	17519	513.91297768193	42
78	17532	514.814054717993	8
78	17549	516.122628818255	12
78	17560	517.032448414825	8
78	17629	523.141145341282	60
78	17650	524.841343740662	16
78	17685	529.7	17
78	17750	535.5	57
78	17793	539.203577353931	36
78	17820	541.506913599199	22
78	17845	543.615326913357	20
78	17878	546.316879628507	26
78	17902	548.320371299019	19
78	17947	552.22771839985	38
78	18020	557.7	17
78	18052	560	22
78	18083	562.708996791695	26
78	18105	564.517102104909	17
78	18121	565.918351283617	13
78	18214	571.2	32
78	18275	576.6	53
78	18311	579.800295255787	31
78	18326	580.907275767118	10
78	18353	583.21458583633	22
78	18377	585.222567311227	19
78	18399	587.026402003215	17
78	18421	588.835155941298	17
78	18486	593.4	14
78	18513	594.6	11
78	18538	595.708020139101	10
78	18639	600.216182133601	44
78	18647	600.520351677123	2
78	18679	601.93094125135	13
78	18731	604.239733801538	22
78	18775	606.142010088654	18
78	18870	613.1	31
78	18900	615.8	26
78	18943	619.501032733561	36
78	19009	625.303634325971	57
78	19037	627.712142079625	23
78	19078	631.219072407671	34
78	19122	635.027618167445	37
78	19169	640.7	27
78	19189	642.4	16
78	19213	644.407609087871	19
78	19245	647.210743384656	27
78	19279	650.019269220078	27
78	19309	652.621099075494	25
78	19358	656.930211748444	42
78	19422	664.2	42
78	19460	667.7	34
78	19495	670.607864571758	28
78	19545	675.010697806775	43
78	19575	677.610943821574	25
78	19588	678.518188559541	8
78	19632	682.327036542636	37
78	19665	685.22727427269	28
78	19680	686.335834866672	10
78	19709	688.840288096566	24
78	19786	697.5	55
78	19820	700.4	28
78	19848	702.805886167404	23
78	19913	708.509693504264	56
78	19950	711.810658655044	32
78	19988	715.016802113478	31
78	20012	717.024724142873	19
78	20050	720.227171905241	31
78	20074	722.229629941277	19
78	20123	726.538998274565	42
78	20165	730.147954275716	35
78	20197	732.955668227966	27
78	20212	734.065326707337	10
78	20243	739.4	14
78	20304	744.8	53
78	20335	747.505358372072	26
78	20371	750.508439780787	29
78	20415	754.308609468391	37
78	20445	756.918320173997	25
78	20482	760.019458162105	30
78	20494	761.027825788993	9
78	20518	763.030104829799	19
78	20556	766.238569249666	31
78	20588	769.045539887847	27
78	20613	772.8	8
78	20661	777.1	42
78	20692	779.80600498103	26
78	20729	782.914986694615	30
78	20741	783.91652068809	9
78	20769	786.121217394052	21
78	20852	793.62668223818	74
78	20889	797.9	19
78	20919	800.4	24
78	20974	805.309601918824	48
78	21039	811.015251600567	56
78	21058	812.521874267788	14
78	21072	813.722448701598	11
78	21093	815.431033532368	16
78	21153	820.639065455433	51
78	21201	824.843152295418	41
78	21234	827.748060744448	28
78	21389	835.4	54
78	21417	837.9	24
78	21452	840.801336458234	28
78	21475	842.703338267886	18
78	21481	843.113242116674	3
78	21510	845.619246364816	24
78	21522	846.426966454866	7
78	21558	849.633607191419	31
78	21583	851.737152476363	20
78	21625	855.342242598979	35
78	21651	857.549123240647	21
78	21671	859.15583967498	15
78	21697	861.362759250572	21
78	21719	863.168955699444	17
78	21825	869.1	31
78	21892	872.1	29
78	21986	876.306072550725	41
78	22036	878.612640126579	22
78	22105	881.818501933096	31
78	22128	883.721122764213	18
78	22234	894	80
78	22266	896.9	28
78	22293	899.205786551758	22
78	22329	902.215164281692	29
78	22365	905.416160968147	31
78	22413	909.623819919706	41
78	22451	912.833570964613	31
78	22501	919.3	33
78	22528	921.7	23
78	22554	923.90193239313	21
78	22595	927.402469106164	34
78	22641	931.403113423277	39
78	22675	934.207736399402	27
78	22724	938.51384880135	42
78	22756	941.314295228334	27
78	22808	945.917479221507	45
78	22845	949.022166315636	30
78	22876	951.729823231403	26
78	22910	954.536323666108	27
78	22941	957.239764486093	26
78	22980	962	20
78	23011	964.8	27
78	23046	967.900996079861	30
78	23086	971.309502947818	33
78	23114	973.710402575608	23
78	23129	974.817338836076	10
78	23172	978.518709920509	36
78	23201	981.028691100992	24
78	23344	989	50
78	23399	991.5	24
78	23473	994.801641812571	32
78	23553	1001.40781876652	65
78	23589	1004.412179652086	29
78	23648	1009.721592367742	52
78	23703	1014.426439938457	46
78	23737	1017.431460525072	29
78	23810	1025.1	51
78	23840	1027.8	26
78	23872	1030.408357838022	25
78	23903	1033.115061112542	26
78	23954	1037.622285929613	44
78	23975	1039.328998473758	16
78	24002	1042.9	9
78	24050	1047.2	42
78	24055	1047.505536866721	2
78	24094	1050.81025074637	32
78	24115	1052.519804948353	16
78	24162	1056.627419208743	40
78	24184	1058.434695151151	17
78	24241	1063.535199695914	50
78	24271	1067.2	12
78	24295	1069.3	20
78	24347	1073.90446062762	45
78	24379	1076.514017203736	25
78	24433	1081.314347939004	47
78	24530	1086.8	28
78	24549	1087.7	8
78	24587	1089.303810272291	15
78	24613	1090.404707477928	10
78	24663	1092.609417447111	21
78	24753	1096.711143066844	40
78	24801	1099.6156422412	28
78	24862	1106.2	42
78	24923	1111.8	55
78	24944	1113.502512470169	16
78	24966	1115.31025250995	17
78	25003	1118.414561576544	30
78	25059	1123.415536181736	49
78	25096	1126.521485306692	30
78	25124	1128.922913028885	23
78	25167	1132.624953986071	36
78	25256	1138.4	24
78	25335	1142.1	36
78	25365	1143.407706853905	12
78	25398	1144.816939543056	13
78	25422	1145.921720780926	10
78	25476	1148.2294051018	22
78	25538	1151.033397031576	27
78	25700	1161.6	76
78	25733	1164.4	27
78	25756	1166.301477837683	18
78	25837	1173.605667070315	72
78	25858	1175.310014299905	16
78	25870	1176.119276320669	7
78	25903	1179.023422542761	28
78	25978	1185.729168088819	66
78	26008	1189.2	12
78	26016	1189.9	6
78	26032	1191.104421681025	11
78	26056	1193.112981363312	19
78	26096	1196.516109134527	33
78	26131	1199.622519510344	30
78	26154	1201.531188646287	18
78	26216	1206.936327557193	53
78	26266	1211.337660569401	43
78	26321	1217.7	37
78	26335	1218.8	10
78	26406	1225.101722681275	62
78	26420	1226.106672922637	9
78	26432	1227.113326281547	9
78	26449	1228.42100230024	12
78	26473	1230.427317321454	19
78	26516	1236.6	26
78	26529	1237.8	11
78	26547	1239.202112382012	13
78	26562	1240.306399560726	10
78	26594	1243.106403086673	27
78	26675	1250.21406632355	70
78	26715	1253.815156840354	35
78	26770	1258.515261288543	46
78	26802	1263.4	14
78	26828	1265.7	22
78	26841	1266.608098906879	8
78	26851	1267.408295080407	7
78	26886	1270.316918554679	28
78	26946	1275.721513910401	53
78	26964	1277.124097136261	13
78	27002	1280.332874247179	31
78	27069	1286.233774841619	58
78	27106	1289.539794392818	32
78	27144	1292.740544135942	31
78	27206	1300	40
78	27233	1302.4	23
78	27259	1304.607013207573	21
78	27289	1307.212812003462	25
78	27333	1311.013187773405	37
78	27353	1312.616696744319	15
78	27398	1316.522280470072	38
78	27422	1318.5240105878	19
78	27457	1323.9	19
78	27516	1329.1	51
78	27531	1330.201768150383	10
78	27582	1334.707423064168	44
78	27611	1337.208960445874	24
78	27656	1341.114787306174	38
78	27679	1343.017396189631	18
78	27724	1346.922553393472	38
78	27836	1353.6	36
78	27937	1359.6	59
78	27954	1360.900516281311	12
78	28018	1366.50605475216	55
78	28044	1368.708382082458	21
78	28078	1371.709420934605	29
78	28145	1377.611530436295	58
78	28197	1382.017362009576	43
78	28236	1385.526115011373	34
78	28289	1391.5	35
78	28327	1394.8	32
78	28366	1398.105927662826	32
78	28386	1399.913175586336	17
78	28440	1404.51639366859	45
78	28454	1405.72617983824	11
78	28603	1413.2	52
78	28642	1414.8	15
78	28696	1417.305774045255	24
78	28742	1419.314454035222	19
78	28827	1423.1225419691	37
78	28851	1424.125661767614	9
78	28885	1425.730629927262	15
78	29006	1434.5	65
78	29053	1438.7	41
78	29092	1442.004172069891	32
78	29147	1446.911641300785	48
78	29188	1450.414921631413	34
78	29222	1453.422701187311	29
78	29241	1454.930083277754	14
78	29275	1457.934625731375	29
78	29304	1461.1	11
78	29327	1463.1	19
78	29370	1466.807336654607	36
78	29414	1470.616855322909	37
78	29442	1473.018599976004	23
78	29461	1474.526027273066	14
78	29477	1475.92893653278	13
78	29515	1479.131071383005	31
78	29558	1482.835051031056	36
78	29600	1486.442136115214	35
78	29671	1492.748962195032	62
78	29695	1494.753849111153	19
78	29713	1496.156782536194	13
78	29749	1501.8	18
78	29780	1504.4	25
78	29801	1506.107755920384	16
78	29827	1508.311649689176	21
78	29860	1511.211680001802	28
78	29890	1513.816554567398	25
78	29925	1516.723276699013	28
78	29955	1521.5	15
78	29994	1524.9	33
78	30035	1528.400004560137	34
78	30063	1530.805646781595	23
78	30102	1534.1133185449	32
78	30122	1535.918771665404	17
78	30157	1538.823049313091	28
78	30184	1541.124375489841	22
78	30209	1543.227544722922	20
78	30253	1548.4	24
78	30276	1550.4	19
78	30329	1555.107994197821	46
78	30344	1556.212305015292	10
78	30381	1559.512535985677	32
78	30396	1560.618569812522	10
78	30418	1562.420420585061	17
78	30491	1568.923631532933	64
78	30514	1570.829994258904	18
78	30547	1573.730582426563	28
78	30586	1578	20
78	30613	1580.4	23
78	30661	1584.605253156493	41
78	30676	1585.906945030509	12
78	30707	1588.413138331856	24
78	30718	1589.318810336139	8
78	30725	1589.826011982125	4
78	30770	1594.8	28
78	30787	1596.2	13
78	30834	1600.300220826612	40
78	30870	1603.502140467312	31
78	30895	1605.607129006062	20
78	30910	1606.708395784054	10
78	30928	1608.115239926901	13
78	30958	1610.723345937159	25
78	31031	1617.227078810516	64
78	31073	1620.83326378803	35
78	31085	1621.837258303055	9
78	31100	1622.945953380618	10
78	31223	1630	40
78	31278	1632.4	23
78	31406	1638.101254912787	56
78	31438	1640.306521432618	21
78	31465	1642.60913449349	22
78	31495	1645.211208694715	25
78	31516	1646.915704986784	16
78	31534	1648.319945631288	13
78	31561	1650.625524993601	22
78	31676	1660.92941110981	102
78	31692	1662.138129199206	11
78	31704	1663.146261172048	9
78	31733	1665.653549744046	24
78	31791	1670.662783264479	49
78	31801	1671.467969194525	7
78	31813	1672.274753051777	7
78	31853	1678.1	21
78	31865	1679.2	10
78	31889	1681.201316873179	19
78	31911	1683.005405898319	17
78	31929	1684.413221528135	13
78	31977	1688.619071469552	41
78	32025	1692.82539812197	41
78	32074	1697.12934701506	42
78	32125	1701.629471549915	44
78	32173	1705.834420429823	41
78	32225	1710.23812476032	43
78	32271	1716.8	28
78	32278	1717.4	5
78	32334	1722.206300953284	47
78	32375	1725.91336844982	36
78	32435	1731.116237010381	51
78	32493	1736.117890519385	49
78	32522	1738.623625178164	24
78	32555	1743.8	18
78	32584	1746.2	23
78	32612	1748.603459431135	23
78	32644	1751.411638559342	27
78	32660	1752.620695427396	11
78	32681	1754.326827894165	16
78	32703	1756.136579582032	17
78	32741	1759.544002955066	33
78	32783	1763.149245683915	35
78	32825	1766.757984565797	35
78	32853	1769.161254379856	23
78	32982	1776.3	43
78	33109	1782.1	57
78	33179	1785.309367597298	31
78	33297	1791.011307296344	56
78	33357	1796.219545569837	51
78	33418	1801.727203858446	54
78	33454	1804.72787597002	29
78	33492	1810.1	21
78	33517	1812.3	21
78	33539	1814.106826207926	17
78	33580	1817.807702441496	36
78	33599	1819.315188103489	14
78	33611	1820.123839393223	7
78	33634	1822.030870055374	18
78	33651	1823.536762088448	14
78	33670	1825.04301570034	14
78	33702	1827.847705629951	27
78	33769	1834.6	46
78	33802	1837.6	29
78	33819	1838.903436830942	12
78	33856	1842.005524283125	30
78	33884	1844.414574144642	23
78	33936	1849.021272593896	45
78	33983	1853.122826371112	40
78	34086	1859.1	31
78	34169	1862.8	36
78	34221	1865.103113662346	22
78	34287	1868.106015824539	29
78	34405	1873.510967169777	53
78	34531	1879.215120070137	56
78	34618	1883.824263829356	45
78	34642	1885.824594637912	19
78	34687	1889.730655928307	38
78	34732	1893.637129855935	38
78	34774	1898.2	22
78	34828	1903.1	48
78	34844	1904.303983855338	11
78	34902	1909.507685552001	51
78	34938	1912.51665869112	29
78	34982	1916.324081365413	37
78	35038	1921.332789368953	49
78	35101	1926.836628174257	54
78	35124	1928.742576587613	18
78	35216	1936.951410417231	81
78	35264	1942.8	28
78	35290	1945.1	22
78	35328	1948.303383424242	31
78	35371	1952.012346373325	36
78	35398	1954.312809677905	22
78	35432	1957.313616023737	29
78	35438	1957.723502920123	3
78	35476	1962.1	21
78	35525	1966.5	43
78	35576	1971.003728114105	44
78	35623	1975.108617148186	40
78	35669	1979.118024516553	39
78	35730	1984.421456535714	52
78	35758	1986.822225858442	23
78	35843	1996.1	61
78	35865	1998	18
78	35892	2000.309946612187	22
78	35923	2003.019854082581	26
78	35985	2010	40
78	36004	2011.8	17
78	36032	2014.003674015519	21
78	36060	2016.409343829874	23
78	36105	2020.314488088406	38
78	36122	2021.820684053568	14
78	36156	2024.623732093105	27
78	36222	2032.7	47
78	36299	2039.7	69
78	36360	2045.009121528451	52
78	36424	2050.610197415164	55
78	36445	2052.312658141358	16
78	36478	2055.218670299917	28
78	36538	2060.426799385289	51
78	36613	2067.130519665668	66
78	36663	2071.540139147683	43
78	36729	2078.5	45
78	36748	2080.1	15
78	36802	2084.901181535206	47
78	36826	2086.911171833823	19
78	36860	2089.91399702944	29
78	36893	2092.620755143849	26
78	36947	2097.425125972278	47
78	36983	2101.8	18
78	37035	2106.3	44
78	37075	2109.902241106429	35
78	37113	2113.110651807202	31
78	37151	2116.317970078202	31
78	37187	2119.519759401842	31
78	37224	2122.621541526208	30
78	37261	2128	20
78	37279	2129.7	16
78	37299	2131.301108073156	15
78	37323	2133.309179880653	19
78	37340	2134.61316383459	12
78	37360	2136.218355080917	15
78	37374	2137.42757881091	11
78	37395	2139.136181188742	16
78	37470	2145	30
78	37488	2146.5	14
78	37507	2148.008930765057	14
78	37527	2149.81647709876	17
78	37547	2151.420671814218	15
78	37568	2153.12545133245	16
78	37615	2157.227993163699	40
78	37661	2162.6	26
78	37702	2166.2	35
78	37717	2167.50172096644	12
78	37735	2168.908498303735	13
78	37783	2173.115360834445	41
78	37843	2178.317618804285	51
78	37900	2183.426024780627	50
78	37974	2187.8	18
78	37985	2188.2	3
78	37998	2188.708393128041	4
78	38025	2189.915660602514	11
78	38052	2191.818262578058	18
78	38086	2194.626787794222	27
78	38166	2201.834961369413	71
78	38178	2202.642000206115	7
78	38221	2206.34853682517	36
78	38252	2209.05295346375	26
78	38276	2211.055414887917	19
78	38321	2214.965299546328	38
78	38367	2220.6	26
78	38393	2222.9	22
78	38455	2228.307448053606	53
78	38521	2234.107555689855	57
78	38569	2238.315301668277	41
78	38630	2243.825225453405	54
78	38691	2249.134564637171	52
78	38735	2252.935511182813	37
78	38763	2255.337407785135	23
78	38823	2260.543654957036	51
78	38849	2262.751765731886	21
78	38926	2271.7	57
78	38988	2277.2	54
78	38996	2277.803488469135	5
78	39032	2280.810306884222	29
78	39101	2286.920288962078	60
78	39128	2289.228217484893	22
78	39176	2293.436660384526	41
78	39204	2295.837220316638	23
78	39222	2297.242288740802	13
78	39251	2299.749746251766	24
78	39282	2303.5	15
78	39339	2308.5	49
78	39371	2311.300794375287	27
78	39426	2316.008021376996	46
78	39465	2319.510682134019	34
78	39508	2323.217426516027	36
78	39538	2325.817511430233	25
78	39566	2329	10
78	39613	2333.2	41
78	39653	2336.600892763847	33
78	39688	2339.703295979992	30
78	39734	2343.708637221416	39
78	39782	2347.911282421469	41
78	39841	2353.0187399286	50
78	39877	2356.019510128292	29
78	39923	2360.025908564213	39
78	39953	2362.626519785127	25
78	40002	2366.93471986465	42
78	40018	2368.136266986106	11
78	40069	2372.640119573983	44
78	40085	2376	0
78	40113	2378.5	24
78	40166	2383.202928670325	46
78	40202	2386.203623660678	29
78	40227	2388.310825202207	20
78	40248	2390.017328594858	16
78	40301	2394.725309553393	46
78	40336	2399.7	17
78	40360	2401.8	20
78	40391	2404.309668343747	24
78	40421	2406.915860169031	25
78	40446	2409.018300107241	20
78	40473	2411.32264878385	22
78	40502	2413.830033826648	24
78	40541	2417.139009916381	32
78	40606	2422.847820222672	56
78	40619	2423.953793090685	10
78	40664	2427.861772140507	38
78	40691	2430.9	9
78	40773	2438.2	72
78	40803	2440.807601795166	25
78	40838	2443.914375231645	30
78	40879	2447.420825732629	34
78	40905	2449.629839981476	21
78	40927	2451.430150083397	17
78	40966	2454.732319279881	32
78	41000	2457.735836685038	29
78	41030	2460.13801404679	23
78	41060	2462.742677933755	25
78	41138	2471.7	57
78	41152	2472.8	10
78	41186	2475.800757125366	29
78	41200	2476.805323367264	9
78	41212	2477.805343622451	9
78	41272	2483.007205639867	51
78	41294	2484.808241646211	17
78	41305	2485.718008421054	8
78	41322	2487.024542428792	12
78	41338	2488.232357619608	11
78	41363	2490.336896095681	20
78	41424	2495.844343310219	54
78	41474	2500.046147182541	41
78	41506	2505.4	14
78	41538	2508.1	26
78	41572	2511.100740303404	29
78	41626	2515.910167712941	47
78	41639	2516.814502788401	8
78	41701	2522.215442605771	53
78	41728	2524.51691081265	22
78	41869	2532.9	49
78	41878	2533.3	3
78	41887	2533.604898741035	2
78	41915	2534.811099616765	11
78	41923	2535.116114376798	2
78	41941	2535.817557665494	6
78	42025	2539.524052936299	36
78	42146	2547.1	51
78	42160	2548.2	10
78	42206	2552.200687698016	39
78	42247	2555.904541371971	36
78	42269	2557.708284582086	17
78	42315	2561.709828505741	39
78	42359	2565.514686519833	37
78	42403	2569.315023936323	37
78	42458	2574.021316231057	46
78	42472	2575.229571718609	11
78	42502	2577.839097363018	25
78	42524	2579.639312884531	17
78	42548	2581.646674348814	19
78	42571	2583.548825768844	18
78	42596	2585.650817468058	20
78	42708	2591.5	35
78	42801	2595.8	42
78	42867	2598.707185714631	28
78	42931	2601.709128641842	29
78	43037	2606.511875409015	47
78	43062	2608.618116232614	20
78	43067	2608.921431305127	2
78	43079	2609.92312308683	9
78	43129	2614.130971819788	41
78	43219	2624.6	66
78	43270	2629.2	45
78	43300	2631.809802295744	25
78	43331	2634.312086498319	24
78	43392	2639.821690145191	54
78	43449	2644.724304290944	48
78	43462	2645.829592483552	10
78	43519	2650.732314293194	48
78	43551	2653.540088709048	27
78	43619	2659.541567602262	59
78	43676	2664.450078663129	48
78	43704	2666.852485559109	23
78	43776	2673.260061819806	63
78	43799	2676.6	6
78	43845	2680.7	40
78	43879	2683.70211748539	29
78	43935	2688.503477509124	47
78	44002	2694.404490360996	58
78	44039	2697.710364600563	32
78	44104	2703.414023469093	56
78	44153	2707.72260568693	42
78	44194	2711.226602049136	34
78	44236	2714.831960978502	35
78	44286	2719.237414417831	43
78	44295	2719.939248355751	6
78	44465	2726.7	47
78	44542	2733.7	69
78	44549	2734.000921383113	2
78	44582	2736.907305982824	28
78	44653	2743.210496693962	62
78	44678	2745.311445904821	20
78	44712	2748.119836104556	27
78	44758	2752.127159607188	39
78	44830	2761.2	52
78	44866	2764.3	30
78	44905	2767.804469373628	34
78	44943	2771.007616453928	31
78	44947	2771.209746600951	1
78	44974	2773.515989172917	22
78	45014	2776.917817181259	33
78	45038	2780.9	9
78	45060	2782.8	18
78	45073	2783.901312010409	10
78	45094	2785.606992710681	16
78	45130	2788.613284928408	29
78	45195	2794.316869579381	56
78	45262	2800.22450055902	58
78	45286	2802.230170484142	19
78	45349	2807.935817214205	56
78	45416	2813.840903411608	58
78	45466	2819.2	32
78	45525	2824.4	51
78	45561	2827.607155276397	31
78	45594	2830.30963400148	26
78	45651	2835.417050328095	50
78	45710	2840.520063783257	50
78	45769	2845.829651439483	52
78	45822	2850.330683314006	44
78	45846	2852.333579751795	19
78	45890	2858.6	26
78	45907	2860	13
78	45938	2862.704594370012	26
78	45969	2865.413913191509	26
78	46014	2869.318680967815	38
78	46052	2872.521886152388	31
78	46083	2875.22970771386	26
78	46131	2879.430135559923	41
78	46242	2885.5	35
78	46269	2886.6	10
78	46364	2891.606405339841	49
78	46427	2897.110205179321	54
78	46475	2901.317432689781	41
78	46566	2909.419606792803	80
78	46621	2914.126199892847	46
78	46652	2916.835655243703	26
78	46687	2919.938209590729	30
78	46701	2920.944172135336	9
78	46735	2923.946699597715	29
78	46795	2929.152789226188	51
78	46864	2933.6	16
78	46883	2934.4	7
78	47004	2939.905183024466	54
78	47134	2945.608408476141	56
78	47250	2951.110918622972	54
78	47265	2952.218859682726	10
78	47324	2957.523551569101	52
78	47342	2960.3	3
78	47352	2961.2	8
78	47387	2964.10588708647	28
78	47424	2967.414373479042	32
78	47462	2970.621659867948	31
78	47502	2974.022859147359	33
78	47552	2978.428831626419	43
78	47573	2980.136320826376	16
78	47598	2982.236923210688	20
78	47620	2984.045706463935	17
78	47727	2991.2	32
78	47784	2993.7	24
78	47873	2998.404839664027	46
78	47893	3000.008861882823	15
78	47897	3000.210419835065	1
78	47926	3002.712102614972	24
78	47955	3005.213037690359	24
78	48019	3012.2	42
78	48066	3016.4	41
78	48081	3017.700555185987	12
78	48101	3019.303291181672	15
78	48148	3023.409225258924	40
78	48173	3025.509343198189	20
78	48220	3029.617877616924	40
78	48310	3034.5	25
78	48394	3038.4	38
78	48414	3039.20591180098	7
78	48506	3043.214959012602	39
78	48572	3046.11653100076	28
78	48655	3050.016854355326	38
78	48701	3054.022946039536	39
78	48722	3055.928271249101	18
78	48746	3057.934825854524	19
78	48795	3062.04271277679	40
78	48877	3069.452477498155	73
78	48893	3070.659449826763	11
78	48935	3074.267768109908	35
78	49003	3082.6	46
78	49055	3087.3	46
78	49071	3088.502738386515	11
78	49095	3090.507685136067	19
78	49146	3095.008933842636	44
78	49185	3098.312603661254	32
78	49201	3099.720216562674	13
78	49282	3108	60
78	49324	3111.9	38
78	49368	3115.704533097748	37
78	49390	3117.509018815825	17
78	49428	3120.7094733377	31
78	49467	3124.018679255702	32
78	49486	3125.727967849141	16
78	49512	3127.928349733944	21
78	49555	3131.629011644096	36
78	49560	3131.932138930264	2
78	49580	3133.533113294898	15
78	49623	3137.23696767217	36
78	49768	3145	50
78	49789	3145.9	8
78	49821	3148.500703502339	25
78	49835	3149.707104646006	11
78	49852	3151.015989318426	12
78	49869	3152.324443416591	12
78	49883	3153.524702206845	11
78	49900	3154.830263524632	12
78	49950	3159.231674623621	43
78	49999	3165.1	31
78	50023	3167.2	20
78	50071	3171.400807513922	41
78	50097	3173.609003223543	21
78	50118	3175.315197947725	16
78	50155	3178.41942309928	30
78	50199	3182.223080178376	37
78	50255	3187.228629835874	49
78	50284	3189.728698071899	24
78	50347	3195.23376343739	54
78	50386	3198.534417116711	32
78	50406	3200.142655938359	15
78	50446	3203.742688613881	35
78	50469	3205.647281156792	18
78	50514	3209.551512391054	38
78	50561	3213.651550614723	40
78	50608	3217.75890676877	40
78	50734	3225.2	52
78	50757	3227.2	19
78	50777	3228.808138486871	15
78	50820	3232.517105913651	36
78	50844	3234.518728304102	19
78	50907	3240.026977804286	54
78	50953	3244.028240027906	39
78	51015	3252.3	43
78	51052	3255.7	33
78	51149	3264.201870754421	84
78	51174	3266.303473339291	20
78	51214	3269.908373292599	35
78	51271	3275.7	37
78	51305	3278.6	28
78	51337	3281.405152378529	27
78	51382	3285.31065423201	38
78	51417	3288.216475603249	28
78	51471	3293.026436656517	47
78	51493	3294.830287914698	17
78	51550	3299.93574480959	50
78	51574	3302.8	8
78	51585	3303.8	9
78	51619	3306.603860404484	27
78	51656	3309.906782667203	32
78	51693	3313.013504487559	30
78	51757	3318.623380398562	55
78	51781	3320.630046127497	19
78	51804	3322.533551002624	18
78	51829	3324.641679795784	20
78	51854	3326.745701859641	20
78	51928	3335.4	54
78	51969	3339	35
78	52034	3344.701661177964	56
78	52059	3346.803164766958	20
78	52150	3354.91184031521	80
78	52188	3358.120916720601	31
78	52228	3361.72427882696	35
78	52270	3365.331569427158	35
78	52287	3366.641492111444	12
78	52307	3368.242608312939	15
78	52355	3372.443563743825	41
78	52402	3376.550351071513	40
78	52438	3381.8	18
78	52470	3384.5	26
78	52486	3385.903024118368	13
78	52502	3387.104803606877	11
78	52522	3388.709228196255	15
78	52580	3393.909281098434	51
78	52611	3396.40958491542	24
78	52627	3397.809833521017	13
78	52678	3402.119590171147	42
78	52707	3404.62065956399	24
78	52752	3410.5	25
78	52780	3413	24
78	52816	3416.009024417193	29
78	52837	3417.918171672655	18
78	52848	3418.624658080348	6
78	52877	3421.131469028353	24
78	52912	3424.036697199349	28
78	52925	3425.136780401593	10
78	52966	3428.643456463563	34
78	53012	3432.647965101027	39
78	53094	3442	60
78	53121	3444.4	23
78	53149	3446.800321649501	23
78	53176	3449.101044855559	22
78	53234	3454.102844589127	49
78	53250	3455.505827502387	13
78	53274	3457.508675082628	19
78	53297	3459.414845837789	18
78	53315	3460.816405197818	13
78	53383	3468.6	46
78	53430	3472.8	41
78	53517	3480.509701935562	76
78	53530	3481.616124583905	10
78	53571	3485.12165781444	34
78	53600	3487.62720137585	24
78	53624	3489.634821141125	19
78	53644	3491.237461096279	15
78	53694	3495.640270593394	43
78	53746	3500.041015790274	43
78	53865	3507.9	39
78	53924	3510.4	24
78	53970	3512.409936222077	19
78	54003	3515.319539799158	28
78	54043	3518.729284986239	33
78	54093	3523.131760546632	43
78	54111	3524.53461243363	13
78	54137	3526.743916554985	21
78	54172	3529.844394456679	30
78	54235	3535.352691348313	54
78	54281	3539.362368425865	39
78	54294	3540.270407006031	8
78	54332	3543.672488318437	33
78	54398	3547.2	12
78	54419	3548.1	8
78	54483	3551.103811155867	29
78	54545	3555.413525291261	42
78	54565	3557.013588663769	15
78	54596	3561.3	13
78	54629	3564.1	27
78	54664	3567.202723055887	30
78	54687	3569.106747121573	18
78	54747	3574.310961698239	51
78	54796	3578.620177919442	42
78	54840	3582.423931535229	37
78	54915	3591.3	53
78	54974	3596.5	51
78	54993	3598.000004615287	14
78	55002	3598.703650868881	6
78	55019	3600.006935473989	12
78	55071	3604.614689212843	45
78	55116	3608.523412603422	38
78	55196	3615.731053297405	71
78	55237	3619.233060199687	34
78	55289	3623.836398888454	45
78	55319	3626.240714399188	23
78	55360	3629.943792464211	36
78	55401	3633.444458294172	34
78	55465	3636.2	2
78	55499	3637.3	10
78	55572	3639.604987778032	22
78	55645	3642.8120494956	31