version 2
run Join-79-20130429-12:54:06-17679
attr configname Join
attr datetime 20130429-12:54:06
attr experiment "\"Join\""
attr inifile omnetpp.ini
attr iterationvars $0=4096
attr iterationvars2 "$0=4096, $repetition=9"
attr measurement $0=4096
attr network Network
attr processid 17679
attr repetition 9
attr replication #9
attr resultdir results
attr runnumber 79
attr seedset 79

vector 79  Network.dyn_peer[0]  lookupHopsSig:vector  ETV
79	11418	22.40875963624	63
79	11447	24.914796335859	24
79	11481	27.915108161527	29
79	11551	35.1	51
79	11570	36.7	15
79	11579	37.405929749254	6
79	11595	38.614124653229	11
79	11637	42.223250292708	35
79	11669	45.028046005131	27
79	11689	46.628144867779	15
79	11704	47.928530018732	12
79	11766	53.338420459946	53
79	11871	59.2	32
79	11922	61.6	23
79	11961	63.306204174072	16
79	11987	65.013591173591	16
79	12015	67.422181898813	23
79	12034	68.923589611322	14
79	12056	70.726139205813	17
79	12147	78.827882748134	80
79	12168	80.535695448494	16
79	12184	81.945399160587	13
79	12200	83.150498641346	11
79	12220	84.759395442945	15
79	12226	85.165088568597	3
79	12268	88.774666402241	35
79	12329	96	40
79	12356	98.4	23
79	12373	99.903798611187	14
79	12407	102.711109265572	27
79	12427	104.314409316816	15
79	12445	105.916095653605	15
79	12502	110.824780852159	48
79	12518	112.031549083164	11
79	12538	113.83630736909	17
79	12596	119.8	38
79	12653	124.8	49
79	12693	128.205536052726	33
79	12724	130.911652553818	26
79	12765	134.420021577974	34
79	12815	138.828204252902	43
79	12868	143.531091015742	46
79	12889	145.233410493685	16
79	12909	146.842641751004	15
79	12930	148.549231885528	16
79	12949	150.057569223061	14
79	13001	154.665852647189	45
79	13066	162.3	43
79	13101	165.5	31
79	13159	170.502034018726	49
79	13195	173.709654737254	31
79	13234	177.01956874268	32
79	13275	180.5292984584	34
79	13318	184.232645805317	36
79	13332	185.436328625157	11
79	13371	188.740170051962	32
79	13526	197.7	57
79	13573	199.8	20
79	13663	203.800742659834	39
79	13727	206.610101324037	27
79	13795	209.812825354143	31
79	13858	214.218934625471	43
79	13902	218.02538256745	37
79	14023	225.9	39
79	14083	230.6	46
79	14135	235.209861644594	45
79	14183	239.416724971157	41
79	14210	241.723458804896	22
79	14227	243.029658750428	12
79	14294	248.931273799298	58
79	14349	253.839955403864	48
79	14399	258.045622373389	41
79	14449	262.452570740513	43
79	14466	263.961984976259	14
79	14501	266.862396582166	28
79	14570	274.7	47
79	14580	275.6	8
79	14626	279.607150881951	39
79	14656	282.012514373666	23
79	14688	284.822357255009	27
79	14769	290	20
79	14786	290.8	7
79	14848	293.701809328556	28
79	14918	296.805528104141	30
79	14936	297.508055076104	6
79	14976	299.310053867842	17
79	15016	301.01156795263	16
79	15100	304.815144364016	37
79	15138	307.615767851918	27
79	15232	317	70
79	15281	321.4	43
79	15310	323.901898319236	24
79	15337	326.006666856975	20
79	15379	329.810447905863	37
79	15426	333.919392934689	40
79	15467	337.423822461027	34
79	15502	340.327917892921	28
79	15542	343.936104587791	35
79	15603	349.245925305794	52
79	15618	350.353589953448	10
79	15665	354.463082836408	40
79	15691	358.9	9
79	15727	362	30
79	15743	363.404596723169	13
79	15765	365.210146482307	17
79	15777	366.011693038192	7
79	15834	371.113864702115	50
79	15875	374.621272965318	34
79	15930	379.523417165265	48
79	15992	383.2	12
79	16046	386.9	36
79	16087	390.402999295108	34
79	16130	394.108775887712	36
79	16172	397.916552969605	37
79	16194	399.72113942151	17
79	16254	404.923049149604	51
79	16306	409.523312244266	45
79	16349	413.223503614016	36
79	16413	418.826139000965	55
79	16544	426.3	43
79	16571	427.9	15
79	16611	431.309054916333	33
79	16656	435.216227054385	38
79	16696	438.616405232151	33
79	16762	444.418385095177	57
79	16775	445.519435338254	10
79	16788	446.428585662955	8
79	16842	451.232097676227	47
79	16907	458.3	43
79	16953	462.4	40
79	17011	467.606585588962	51
79	17048	470.713670847878	30
79	17080	473.514465441604	27
79	17118	476.720204907653	31
79	17142	478.725354914813	19
79	17166	480.73130125728	19
79	17198	483.533455745862	27
79	17242	487.337346563146	37
79	17265	489.24474837104	18
79	17304	492.544927349657	32
79	17351	496.653158587038	40
79	17385	499.658842991974	29
79	17396	500.361197549253	6
79	17432	505.8	18
79	17456	507.9	20
79	17516	513.109222093976	51
79	17529	514.019185335563	8
79	17566	517.319496173734	32
79	17594	519.721211763414	23
79	17611	521.030396648143	12
79	17673	528	40
79	17685	529.1	10
79	17694	529.802452656421	6
79	17723	532.104565624861	22
79	17731	532.708320768648	5
79	17774	536.411933209358	36
79	17839	542.112801414048	56
79	17865	544.322691079999	21
79	17910	548.23166589971	38
79	17938	550.632181563792	23
79	17981	554.337754544101	36
79	18012	559.3	13
79	18028	560.6	12
79	18053	562.702987877612	20
79	18072	564.20849309089	14
79	18095	566.113174194948	18
79	18120	568.214012140986	20
79	18145	570.321259137434	20
79	18161	571.728821320231	13
79	18205	575.530937983593	37
79	18224	577.036383900662	14
79	18265	582.2	22
79	18298	585.2	29
79	18345	589.307478934316	40
79	18364	590.812366416299	14
79	18381	592.120322843036	12
79	18389	592.721407238752	5
79	18423	595.723562800154	29
79	18467	599.529511446825	37
79	18510	603.235844999628	36
79	18551	606.745436429872	34
79	18579	609.148665567731	23
79	18611	611.951675014625	27
79	18698	620.3	63
79	18745	624.5	41
79	18786	628.002024662082	34
79	18834	632.209674599281	41
79	18847	633.312673618901	10
79	18902	638.019856922047	46
79	18960	643.220699043702	51
79	19005	647.121283696819	38
79	19065	652.32232211138	51
79	19139	661.4	54
79	19159	663.1	16
79	19201	666.706851740037	35
79	19245	670.511736250298	37
79	19287	674.117655134533	35
79	19315	676.526998456233	23
79	19357	680.128427532071	35
79	19399	686.5	25
79	19426	688.9	23
79	19460	691.905482740546	29
79	19498	695.11079371028	31
79	19525	697.4121021157	22
79	19546	699.119808694495	16
79	19570	701.1200810739	19
79	19580	701.926136727223	7
79	19620	706	20
79	19652	708.9	28
79	19705	713.601374733992	46
79	19741	716.609337585625	29
79	19762	718.312409411394	16
79	19795	721.212450728518	28
79	19823	723.613681042712	23
79	19849	725.818086342358	21
79	19893	729.619814633715	37
79	19915	731.425879499404	17
79	19953	734.629581946129	31
79	19983	737.229721075051	25
79	20043	742.437510956389	51
79	20067	744.446679337453	19
79	20122	751.5	35
79	20153	754.1	25
79	20169	755.508247081711	13
79	20195	757.717984563353	21
79	20215	759.324888663539	15
79	20244	761.832537402147	24
79	20273	764.141893469895	22
79	20346	773.4	54
79	20351	773.8	3
79	20381	776.207511354375	23
79	20457	783.013669923157	67
79	20497	786.418258744	33
79	20524	788.723472476831	22
79	20544	790.325644484915	15
79	20568	792.328600195218	19
79	20591	794.231263600166	18
79	20637	800.6	26
79	20687	805.1	44
79	20728	808.60757187399	34
79	20763	811.713683719359	30
79	20804	815.219311941849	34
79	20867	822.1	41
79	20879	823.2	10
79	20945	829.003408609146	57
79	20987	832.610355208038	35
79	21023	835.81741570572	31
79	21040	837.118705894251	12
79	21082	840.723053019032	35
79	21109	843.023346282652	22
79	21124	844.130409101548	10
79	21180	849	10
79	21217	852.2	31
79	21228	853.103050817926	8
79	21260	855.907911737658	27
79	21304	859.716108144567	37
79	21343	863.016201532202	32
79	21375	865.822232827249	27
79	21429	870.429141898032	45
79	21466	873.735222183822	32
79	21486	875.343127156875	15
79	21512	877.549281153736	21
79	21596	886	60
79	21620	888.1	20
79	21658	891.504242808411	33
79	21686	893.910383690269	23
79	21722	896.91140017216	29
79	21748	899.112370883968	21
79	21790	902.716152759267	35
79	21817	905.0174957878	22
79	21860	910.5	25
79	21894	913.6	30
79	21938	917.407623933041	37
79	21985	921.514743223357	40
79	22072	929.217531842758	76
79	22102	931.823941779654	25
79	22122	933.431230817118	15
79	22165	937.132410821143	36
79	22255	945.140458665247	79
79	22283	947.548991920157	23
79	22330	951.651306601891	40
79	22378	956.8	28
79	22394	958.1	12
79	22408	959.30255826126	11
79	22425	960.605678217547	12
79	22492	966.513815659248	58
79	22574	973.915071419727	73
79	22603	976.217507700275	22
79	22635	979.020948752863	27
79	22720	986.530060519717	74
79	22756	989.734119600245	31
79	22820	995.339611117622	55
79	22886	999.5	15
79	22953	1002.6	30
79	22971	1003.305249785401	6
79	23102	1009.406890836888	60
79	23154	1011.709229242635	22
79	23208	1014.117038270405	23
79	23392	1021.4	34
79	23554	1026.3	48
79	23656	1030.403307146497	40
79	23752	1034.805692019489	43
79	23838	1038.809700358177	39
79	23922	1042.512561440532	36
79	23984	1045.314229465782	27
79	24033	1048.223501881901	28
79	24059	1050.430535401287	21
79	24097	1053.836908267007	33
79	24138	1057.338242672194	34
79	24183	1061.238521597975	38
79	24225	1066.2	22
79	24271	1070.3	40
79	24322	1074.806556959298	44
79	24372	1079.214161357378	43
79	24425	1083.915469075435	46
79	24483	1088.915888539921	49
79	24534	1093.419191715927	44
79	24599	1099.123429569709	56
79	24650	1103.63338846367	44
79	24704	1108.238967284806	45
79	24737	1111.145408942223	28
79	24762	1113.252946642358	20
79	24829	1117.4	14
79	24856	1118.6	11
79	24906	1120.809842658517	21
79	24945	1123.218292391199	23
79	24964	1124.722454628908	14
79	24982	1126.124045102706	13
79	25011	1128.632618831815	24
79	25049	1134.1	21
79	25072	1136.1	19
79	25106	1139.100542582375	29
79	25153	1143.207676920414	40
79	25195	1146.815899849234	35
79	25215	1148.424265891653	15
79	25259	1152.234091472571	37
79	25311	1159.5	35
79	25338	1161.9	23
79	25357	1163.407263184145	14
79	25381	1165.409947749766	19
79	25415	1168.218334667832	27
79	25430	1169.526771928433	12
79	25444	1170.527282301259	9
79	25472	1172.928660331488	23
79	25506	1175.936217809453	29
79	25544	1179.140614832426	31
79	25570	1181.344358984383	21
79	25603	1185.5	15
79	25621	1187	14
79	25657	1190.008250496902	29
79	25670	1191.110307674957	10
79	25683	1192.011355056638	8
79	25694	1192.913407974095	8
79	25790	1198.8	28
79	25814	1200.2	13
79	25828	1201.402700840428	11
79	25855	1203.706374492221	22
79	25894	1207.01539985815	32
79	25940	1211.023211467493	39
79	25982	1214.631239325968	35
79	26019	1217.940584645481	32
79	26046	1220.045651498115	20
79	26072	1222.252643258424	21
79	26111	1225.753332647235	34
79	26150	1229.06201119548	32
79	26225	1233.8	18
79	26242	1234.5	6
79	26276	1236.00697484737	14
79	26336	1238.813949250299	27
79	26364	1241.221910296426	23
79	26449	1246.2	22
79	26544	1250.6	43
79	26638	1255.00772565511	43
79	26736	1259.410348545219	43
79	26870	1265.518013063791	60
79	26888	1266.126868712749	5
79	26968	1271.02890183585	48
79	27018	1275.432111682069	43
79	27072	1280.033468513729	45
79	27121	1284.336286183838	42
79	27172	1288.836744345219	44
79	27222	1293.238526117831	43
79	27283	1300	40
79	27296	1301.2	11
79	27331	1304.102617938951	28
79	27365	1307.109503933255	29
79	27375	1307.911453679898	7
79	27383	1308.31274790873	3
79	27388	1308.619733235646	2
79	27412	1310.622793509958	19
79	27459	1314.732622922195	40
79	27530	1319.7	17
79	27577	1321.8	20
79	27677	1326.305123762045	44
79	27721	1329.0125589776	26
79	27757	1332.013081567753	29
79	27789	1334.823022940498	27
79	27842	1339.53060057751	46
79	27878	1342.537418699489	29
79	27960	1352	60
79	27989	1354.6	25
79	28030	1358.108803916412	34
79	28039	1358.816276252876	6
79	28083	1362.626185924013	37
79	28120	1365.92900298174	32
79	28198	1372.732974915679	67
79	28253	1377.2	12
79	28287	1380.1	28
79	28317	1382.709643701082	25
79	28348	1385.411068466168	26
79	28385	1388.514044562955	30
79	28399	1389.714281483012	11
79	28429	1392.115065576302	23
79	28447	1393.719936253524	15
79	28496	1399.1	31
79	28525	1401.7	25
79	28539	1402.704887702045	9
79	28551	1403.712983993102	9
79	28574	1405.615202400426	18
79	28661	1411.6	36
79	28691	1414.1	24
79	28701	1414.901363771846	7
79	28752	1419.404136940373	44
79	28830	1426.20763164715	67
79	28855	1428.313500491858	20
79	28908	1433.019454959535	46
79	28940	1435.828591222264	27
79	29009	1442.9	49
79	29040	1445.7	27
79	29056	1446.900778185925	11
79	29081	1449.010143604517	20
79	29103	1450.814346901838	17
79	29136	1453.718373060581	28
79	29217	1460.823285276562	70
79	29256	1464.126442273422	32
79	29310	1468.935669861321	47
79	29342	1471.736158566802	27
79	29380	1474.937345515083	31
79	29402	1476.742696861697	17
79	29425	1478.65155442228	18
79	29466	1482.154735478145	34
79	29500	1485.163081179057	29
79	29575	1488.6	6
79	29608	1489.6	9
79	29667	1491.305257916576	16
79	29792	1495.014939687144	36
79	29850	1496.818318285498	17
79	29930	1499.221108412442	23
79	29996	1501.221539619504	19
79	30032	1502.223967240575	9
79	30134	1506.329381452618	40
79	30184	1510.338706926634	39
79	30245	1515.1	11
79	30260	1516.3	11
79	30297	1519.609036518365	32
79	30355	1524.610282693558	49
79	30378	1526.518155652246	18
79	30505	1534.1	41
79	30556	1536.4	22
79	30684	1542.302546138451	58
79	30742	1544.804135926281	24
79	30773	1547.506639227277	26
79	30823	1551.915012674074	43
79	30847	1553.919092817747	19
79	30883	1556.92676351327	29
79	30914	1559.628400934478	26
79	30955	1563.135282836905	34
79	30983	1565.53948673207	23
79	30999	1566.742790151097	11
79	31084	1572.2	22
79	31155	1575.5	32
79	31189	1577.200323367328	16
79	31229	1580.606402954	33
79	31301	1587.015551524466	63
79	31332	1589.718316888856	26
79	31369	1592.820252542505	30
79	31451	1600.021441009405	71
79	31551	1607.5	35
79	31596	1611.5	39
79	31638	1615.104242920379	35
79	31651	1616.007788052963	8
79	31665	1617.210352368111	11
79	31692	1619.513348716358	22
79	31737	1623.422755486849	38
79	31763	1627.1	11
79	31778	1628.3	11
79	31803	1630.407359603072	20
79	31817	1631.61568471223	11
79	31837	1633.216297941323	15
79	31860	1635.121231069558	18
79	31878	1636.523919457825	13
79	31923	1642.8	28
79	31931	1643.5	6
79	31966	1646.401960477759	28
79	32008	1650.011236994666	35
79	32032	1652.011344774718	19
79	32061	1654.515034543381	24
79	32083	1656.31648560788	17
79	32101	1657.918251798462	15
79	32121	1659.520578643604	15
79	32158	1662.628417396448	30
79	32166	1663.229018230971	5
79	32190	1665.234495846051	19
79	32211	1666.93499304803	16
79	32236	1669.038419890405	20
79	32279	1672.747054520951	36
79	32341	1680	40
79	32380	1683.6	35
79	32412	1686.206145788666	25
79	32452	1689.811592160786	35
79	32472	1691.420579867939	15
79	32499	1693.724586944047	22
79	32541	1697.333395238574	35
79	32563	1699.143116414697	17
79	32579	1700.345165666466	11
79	32617	1703.745408639266	33
79	32646	1706.053167082914	22
79	32683	1709.354972677402	32
79	32745	1716.1	41
79	32779	1719.2	30
79	32785	1719.607134728059	3
79	32809	1721.615743105292	19
79	32833	1723.623093477037	19
79	32851	1725.026257297935	13
79	32876	1727.129796298896	20
79	32986	1736.93419116728	97
79	33033	1742.7	27
79	33084	1747.3	45
79	33096	1748.103914835823	7
79	33128	1750.910411695793	27
79	33151	1752.815541140732	18
79	33191	1756.217974919778	33
79	33273	1763.625688842496	73
79	33292	1765.129243967959	14
79	33316	1767.131895419519	19
79	33338	1768.937665229983	17
79	33375	1772.040922220911	30
79	33388	1773.144533910409	10
79	33420	1775.947571949153	27
79	33461	1779.450309852936	34
79	33521	1783.1	11
79	33562	1785	18
79	33682	1792.001541589719	69
79	33743	1797.505363569461	54
79	33755	1798.313265574505	7
79	33767	1799.321298234321	9
79	33796	1801.823723046519	24
79	33859	1807.331084024568	54
79	33873	1808.333114916947	9
79	33951	1817.6	56
79	33990	1821	33
79	34026	1824.005779879218	29
79	34125	1832.908704472783	88
79	34165	1836.310794986095	33
79	34191	1838.519709825133	21
79	34205	1839.720551322972	11
79	34247	1843.321411692889	35
79	34286	1846.631273675346	32
79	34293	1847.139600616934	4
79	34375	1852.1	21
79	34456	1855.9	37
79	34508	1858.108498772126	21
79	34558	1860.409798896062	22
79	34583	1861.417188131211	9
79	34637	1863.822508756413	23
79	34693	1866.325391208915	24
79	34756	1869.128018666868	27
79	34839	1874.434467749773	52
79	34873	1877.437213670278	29
79	34907	1881.8	18
79	34958	1886.2	43
79	34980	1888.008653785767	17
79	35000	1889.814607622566	17
79	35022	1891.624457637531	17
79	35037	1892.73293124781	10
79	35057	1894.339730481891	15
79	35067	1895.145453734108	7
79	35134	1902.5	45
79	35167	1905.5	29
79	35210	1909.204534891117	36
79	35288	1916.004833779611	67
79	35321	1918.908032425079	28
79	35354	1921.813963377627	28
79	35365	1922.516248979808	6
79	35393	1927	10
79	35415	1928.9	18
79	35440	1931.009395187199	20
79	35463	1932.918521598584	18
79	35475	1933.919138140382	9
79	35515	1937.323306156198	33
79	35551	1940.328016947679	29
79	35616	1948.6	46
79	35634	1950.1	14
79	35664	1952.700047863805	25
79	35700	1955.905495249779	31
79	35731	1958.415450921637	24
79	35761	1961.017474446036	25
79	35785	1963.019181506242	19
79	35848	1968.524998478732	54
79	35883	1971.629709813726	30
79	35988	1978.6	46
79	36018	1981.3	26
79	36083	1987.009524787326	56
79	36146	1992.513119332351	54
79	36173	1994.819430659162	22
79	36198	1996.923994401868	20
79	36229	1999.632450912536	26
79	36277	2003.832837627103	41
79	36311	2006.636471024357	27
79	36343	2009.439834044246	27
79	36379	2012.444807805531	29
79	36411	2015.250582472041	27
79	36449	2018.454745429036	31
79	36479	2021.062237615153	25
79	36518	2024.371899110165	32
79	36550	2027.176673229674	27
79	36653	2033	30
79	36720	2036	29
79	36768	2039.904384742679	38
79	36818	2044.112185973687	41
79	36833	2045.419961656861	12
79	36982	2053.1	51
79	37019	2054.7	15
79	37119	2060.203540318384	54
79	37164	2064.106649373345	38
79	37206	2067.91250533515	37
79	37287	2075.01808795163	70
79	37297	2075.821479198956	7
79	37319	2077.625727103096	17
79	37385	2083.426305130952	57
79	37468	2090.732215152251	72
79	37500	2095.6	16
79	37555	2100.4	47
79	37651	2109.007616420204	85
79	37681	2111.611909086242	25
79	37714	2114.313637554006	26
79	37737	2116.220564885405	18
79	37769	2119.030447874143	27
79	37812	2122.734389490102	36
79	37846	2125.736122649902	29
79	37878	2129.6	16
79	37953	2136.2	65
79	37993	2139.800687991101	35
79	38069	2146.408955554349	65
79	38092	2148.31374547534	18
79	38129	2151.614299668081	32
79	38155	2153.816259736367	21
79	38214	2160	40
79	38232	2161.7	16
79	38251	2163.208831487405	14
79	38270	2164.713534630944	14
79	38311	2168.21653721545	34
79	38322	2169.118993365733	8
79	38361	2172.421534065758	32
79	38397	2175.62666938805	31
79	38437	2179.027992589352	33
79	38477	2182.428518006519	33
79	38512	2187.8	18
79	38605	2196	81
79	38652	2200.109958488682	40
79	38746	2208.519075580909	83
79	38780	2211.519108459615	29
79	38816	2214.522470451989	29
79	38846	2217.126216332958	25
79	38876	2219.732896464726	25
79	38973	2228.241126276169	84
79	39067	2236.644144618704	83
79	39107	2242	20
79	39196	2250	79
79	39233	2253.302332783907	32
79	39292	2258.407194856139	50
79	39328	2261.611296932584	31
79	39365	2264.714446754414	30
79	39382	2266.01665423997	12
79	39415	2268.923409415558	28
79	39436	2270.623930904909	16
79	39476	2274.028871985703	33
79	39622	2283	50
79	39689	2286	29
79	39773	2289.806785957235	37
79	39867	2294.110597706031	42
79	39908	2296.316449461324	21
79	39954	2300.32561982661	39
79	39992	2303.733565044323	33
79	40033	2307.240212146243	34
79	40069	2310.246906497335	29
79	40097	2312.656301705619	23
79	40138	2316.163255298874	34
79	40204	2324.4	44
79	40227	2326.4	19
79	40264	2329.707198524393	32
79	40296	2332.307382121809	25
79	40309	2333.4105143812	10
79	40339	2337.2	12
79	40401	2342.7	54
79	40431	2345.304441361741	25
79	40474	2349.013265862508	36
79	40498	2351.022456179446	19
79	40558	2356.227192071882	51
79	40575	2357.729811927355	14
79	40634	2362.838373488308	50
79	40659	2364.942762137818	20
79	40718	2370.047554007595	50
79	40733	2371.355933833381	12
79	40793	2376.556064142855	51
79	40800	2377.065260947668	4
79	40841	2382.2	22
79	40862	2384	17
79	40881	2385.704648708519	16
79	40904	2387.608072779306	18
79	40949	2391.514894817114	38
79	40992	2395.224604656895	36
79	41030	2398.428414401957	31
79	41100	2404.638369367704	61
79	41128	2407.042547303477	23
79	41160	2409.847902779608	27
79	41223	2415.348345697388	54
79	41276	2421.3	33
79	41298	2423.2	18
79	41320	2425.001910051733	17
79	41347	2427.309170342091	22
79	41385	2430.513145650665	31
79	41441	2435.515745316029	49
79	41464	2437.415919636599	18
79	41544	2444.418698364884	69
79	41611	2452.5	45
79	41632	2454.3	17
79	41667	2457.400805303216	30
79	41695	2459.809267469033	23
79	41719	2461.818812447565	19
79	41774	2466.520609958327	46
79	41788	2467.726713193346	11
79	41821	2470.427933147247	26
79	41878	2477.7	37
79	41903	2479.9	21
79	41932	2482.202083651125	22
79	41947	2483.507094165226	12
79	41987	2486.909107535285	33
79	42016	2489.417613816034	24
79	42022	2489.824758910593	3
79	42047	2491.925453961436	20
79	42103	2496.725855652557	47
79	42183	2505.8	58
79	42224	2509.4	35
79	42243	2510.900314707201	14
79	42272	2513.405605132215	24
79	42279	2513.906206431121	4
79	42355	2520.514028368256	65
79	42413	2525.2	12
79	42448	2528.2	29
79	42495	2532.306510362296	40
79	42510	2533.60872323146	12
79	42533	2535.512082212978	18
79	42543	2536.116737449069	5
79	42567	2538.125125375203	19
79	42597	2540.726219196675	25
79	42618	2542.435232042117	16
79	42660	2546.037888995253	35
79	42870	2554.7	47
79	42989	2560.2	54
79	43065	2563.702264560572	34
79	43113	2567.907120439949	41
79	43166	2572.412145190216	44
79	43195	2574.916558095249	24
79	43235	2578.318948723473	33
79	43267	2581.128880014963	27
79	43309	2584.72960742153	35
79	43319	2585.535709126708	7
79	43389	2591.742292900271	61
79	43410	2594.3	3
79	43444	2597.4	30
79	43470	2599.607926419933	21
79	43496	2601.817457078142	21
79	43527	2604.319636589371	24
79	43599	2610.728238412256	63
79	43628	2613.236657902065	24
79	43680	2617.845102902115	45
79	43704	2619.855066271507	19
79	43723	2622.1	1
79	43764	2625.9	37
79	43796	2628.507561455802	25
79	43821	2630.610097663032	20
79	43843	2632.410753343004	17
79	43921	2641.6	56
79	43968	2645.8	41
79	43999	2648.309391646829	24
79	44013	2649.515659603133	11
79	44034	2651.225310670799	16
79	44046	2652.032769788618	7
79	44092	2656.038319281186	39
79	44134	2662.5	25
79	44168	2665.6	30
79	44179	2666.307711336947	6
79	44249	2672.512452477343	61
79	44278	2675.013729169595	24
79	44317	2678.319607888062	32
79	44342	2680.425054681389	20
79	44359	2681.930787768349	14
79	44382	2683.833372548549	18
79	44451	2689.937320387249	60
79	44469	2691.339258633823	13
79	44507	2694.539770420655	31
79	44531	2696.543581873379	19
79	44604	2703.044989383979	64
79	44626	2704.845971053446	17
79	44651	2706.954263510446	20
79	44676	2709.055971888406	20
79	44716	2712.4655734561	33
79	44820	2719.1	31
79	44853	2720.5	13
79	44889	2722.101286783304	15
79	44953	2725.003055084747	28
79	45019	2729.310516014246	42
79	45036	2730.615491614153	12
79	45081	2734.523211840388	38
79	45115	2737.532792732572	29
79	45157	2741.138386843235	35
79	45188	2743.844448386223	26
79	45213	2745.953990237523	20
79	45257	2749.759046615933	37
79	45384	2756.2	42
79	45415	2757.6	13
79	45463	2759.801397321743	21
79	45525	2762.504381031717	26
79	45607	2766.209197477024	36
79	45652	2768.710648661298	24
79	45688	2771.914512108059	31
79	45729	2776.4	24
79	45764	2779.6	31
79	45804	2783.004901925867	33
79	45881	2789.907832797296	68
79	45911	2792.308517173668	23
79	45928	2793.814063230796	14
79	45947	2795.316284484929	14
79	46010	2800.82357386956	54
79	46119	2807.4	34
79	46150	2808.7	12
79	46272	2814.308101705701	55
79	46304	2815.71120952323	13
79	46382	2819.215253710445	34
79	46431	2823.521039112644	42
79	46465	2826.322539870085	27
79	46537	2835	50
79	46607	2841.3	62
79	46677	2847.506327281575	61
79	46713	2850.514902009465	29
79	46771	2855.721751398138	51
79	46790	2857.223728581963	14
79	46826	2860.226728017658	29
79	46926	2871.6	76
79	46977	2876	43
79	47010	2878.903645006103	28
79	47035	2881.005318756714	20
79	47062	2883.310671541342	22
79	47088	2885.513643833082	21
79	47122	2888.321144336659	27
79	47137	2889.627759215844	12
79	47198	2896.1	41
79	47251	2900.9	47
79	47275	2902.906225677812	19
79	47300	2905.011663814614	20
79	47333	2907.917143875403	28
79	47378	2912.5	25
79	47396	2914	14
79	47456	2919.407841510036	53
79	47524	2925.417161031282	59
79	47565	2928.92565730541	34
79	47597	2931.732418890292	27
79	47614	2933.032857108406	12
79	47638	2935.036754964248	19
79	47672	2939.6	16
79	47684	2940.5	8
79	47736	2945.107757277851	45
79	47762	2947.317189271477	21
79	47767	2947.626124328439	2
79	47824	2952.528103180517	48
79	47857	2955.428382678132	28
79	47913	2960.234676316149	47
79	47950	2963.541778856875	32
79	47994	2967.349315511317	37
79	48013	2968.85570152068	14
79	48048	2971.961018276526	30
79	48103	2977.7	37
79	48114	2978.5	7
79	48125	2979.409790096413	8
79	48184	2984.511880626056	50
79	48208	2986.520761230317	19
79	48220	2987.5234671973	9
79	48247	2989.828493756135	22
79	48271	2991.831316070558	19
79	48284	2992.731654904369	8
79	48306	2994.53633872943	17
79	48322	2995.938286152095	13
79	48353	2998.443826482209	24
79	48419	3006.5	45
79	48443	3008.6	20
79	48511	3014.603608632481	59
79	48517	3015.009657740897	3
79	48536	3016.511821835754	14
79	48587	3021.020663595942	44
79	48609	3022.829386648079	17
79	48661	3027.430811564812	45
79	48693	3030.03352737239	25
79	48758	3035.938150077084	58
79	48825	3041.845393289959	58
79	48854	3044.147935932791	22
79	48882	3046.549275976093	23
79	48946	3054.2	42
79	48951	3054.6	3
79	48975	3056.600833675672	19
79	49003	3059.009203507117	23
79	49040	3062.113808622105	30
79	49077	3065.418159458843	32
79	49116	3068.72771118918	32
79	49186	3077.1	51
79	49208	3079	18
79	49249	3082.501111242296	34
79	49278	3085.006696051901	24
79	49319	3088.509652358348	34
79	49334	3089.818516494087	12
79	49365	3092.325191980046	24
79	49386	3094.031535121965	16
79	49405	3095.738519805482	16
79	49418	3096.639226252823	8
79	49459	3102.1	21
79	49525	3108	58
79	49556	3110.701613966643	26
79	49595	3114.00788834768	32
79	49629	3117.010871914433	29
79	49666	3120.111235926918	30
79	49701	3123.219135914843	30
79	49735	3126.028500460267	27
79	49761	3128.236676560211	21
79	49793	3131.03780191226	27
79	49833	3134.44552403942	33
79	49886	3139.146260616718	46
79	49966	3147.8	58
79	50011	3151.8	39
79	50044	3154.502498980916	26
79	50069	3156.608670630428	20
79	50096	3158.916239078334	22
79	50134	3162.122699770303	31
79	50181	3166.224663775208	40
79	50215	3169.226716320515	29
79	50258	3172.93003516868	36
79	50287	3175.430562976205	24
79	50382	3185.1	71
79	50408	3187.4	22
79	50437	3189.905369086787	24
79	50467	3192.312718210499	23
79	50485	3193.915325200997	15
79	50505	3195.524346847021	15
79	50529	3197.528071697059	19
79	50588	3204	40
79	50616	3206.5	24
79	50694	3213.507808903211	69
79	50733	3216.808584838509	32
79	50767	3219.817850676511	29
79	50795	3222.018581890078	21
79	50811	3223.42604903627	13
79	50875	3230.5	45
79	50919	3234.4	38
79	50953	3237.409113987276	29
79	50976	3239.309934270851	18
79	51020	3243.113575168129	37
79	51046	3245.322347128463	21
79	51073	3247.625093470036	22
79	51111	3250.831234916611	31
79	51145	3253.83989192722	29
79	51180	3256.748684644229	28
79	51201	3258.453218672352	16
79	51270	3266.7	47
79	51320	3271.2	44
79	51422	3280.208309785467	89
79	51463	3283.913054879933	36
79	51506	3287.614607570733	36
79	51538	3290.217676202534	25
79	51607	3296.321696819567	60
79	51666	3301.624009691099	52
79	51707	3305.132829938413	34
79	51716	3305.840166816074	6
79	51779	3312.1	41
79	51820	3315.9	37
79	51854	3318.700610496678	27
79	51886	3321.500839665538	27
79	51918	3324.107276994638	25
79	51958	3327.716851445576	35
79	51996	3330.922716146542	31
79	52027	3333.627226909578	26
79	52060	3336.334954920047	26
79	52097	3339.644436367523	32
79	52372	3348.9	69
79	52448	3351.2	22
79	52570	3355.00431819752	37
79	52647	3357.309493648099	22
79	52707	3359.117734194203	17
79	52898	3365.423780571839	62
79	52926	3366.533235332593	10
79	53017	3372.939026778158	63
79	53039	3374.743191138379	17
79	53107	3381.1	31
79	53143	3384.2	30
79	53165	3386.000160357679	17
79	53190	3388.102333962895	20
79	53262	3394.506601029102	63
79	53299	3399.9	19
79	53355	3404.8	48
79	53395	3408.205968682069	33
79	53451	3413.212982491924	49
79	53479	3415.621380947708	23
79	53524	3419.530951058662	38
79	53551	3421.83367830469	22
79	53592	3425.339617466702	34
79	53666	3433.2	52
79	53701	3436.2	29
79	53727	3438.406224538886	21
79	53781	3443.209080324954	47
79	53786	3443.518543462854	2
79	53818	3446.118704100757	25
79	53842	3448.127962857718	19
79	53895	3452.834221025791	46
79	53937	3456.442729028025	35
79	53989	3461.04896659973	45
79	54017	3463.456994370842	23
79	54104	3472.5	65
79	54123	3474.1	15
79	54163	3477.709398196309	35
79	54223	3482.916635066633	51
79	54283	3488.120957198456	51
79	54385	3497.325009612195	91
79	54432	3501.428709605034	40
79	54511	3508.336320073109	68
79	54567	3513.339069629935	49
79	54634	3519.247483528784	58
79	54695	3524.556417425669	52
79	54736	3528.064531891123	34
79	54851	3535.6	36
79	54906	3538	23
79	54956	3540.207409663216	21
79	55030	3543.709071086944	34
79	55106	3547.317181700531	35
79	55146	3550.718622506721	33
79	55171	3552.827964255203	20
79	55191	3554.428047755235	15
79	55236	3560.7	27
79	55280	3564.6	38
79	55303	3566.500296511694	18
79	55337	3569.501977204198	29
79	55369	3572.105963643302	25
79	55400	3574.807760077716	26
79	55478	3581.813989243291	69
79	55622	3586.6	26
79	55738	3590.6	39
79	55774	3592.203772719702	15
79	55860	3596.00512100967	37
79	55878	3596.812817572195	7
79	55937	3600.517493885534	36
79	56024	3610.3	63
79	56048	3612.4	20
79	56096	3616.605844589129	41
79	56124	3619.012812473223	23
79	56144	3620.614233426319	15
79	56208	3626.216287848334	55
79	56281	3631.7	17
79	56356	3635	32
79	56430	3638.404315954714	33
79	56494	3641.313926222067	28
79	56592	3645.819247666945	44
79	56635	3647.729220870435	18
79	56671	3650.335007580204	25
79	56708	3653.638115737093	32
79	56745	3656.740646118071	30
79	56778	3659.64070156745	28
79	56816	3662.841289936458	31
79	56860	3668.6	26
79	56880	3670.3	16
79	56923	3674.001472266428	36
79	56966	3677.908854446522	38
79	56986	3679.51845945923	15
79	57034	3683.724550637925	41
79	57086	3688.12921189236	43
79	57135	3695.2	32
79	57196	3700.6	53
79	57261	3706.300178055567	56
79	57322	3711.801054480692	54
79	57394	3718.006379095757	61
79	57425	3720.71001454993	26
79	57454	3723.217883873501	24
79	57514	3730.1	41
79	57571	3735.3	51