version 2
run Join-68-20130429-12:52:13-17679
attr configname Join
attr datetime 20130429-12:52:13
attr experiment "\"Join\""
attr inifile omnetpp.ini
attr iterationvars $0=2048
attr iterationvars2 "$0=2048, $repetition=8"
attr measurement $0=2048
attr network Network
attr processid 17679
attr repetition 8
attr replication #8
attr resultdir results
attr runnumber 68
attr seedset 68

vector 68  Network.dyn_peer[0]  lookupHopsSig:vector  ETV
68	5942	20.731387094023	18
68	5952	21.537526575437	7
68	5990	26	20
68	6001	27	9
68	6040	30.309778705362	32
68	6061	32.017881106137	16
68	6090	34.521534489175	24
68	6121	37.230941686751	26
68	6142	38.934599183855	16
68	6179	42.041218011247	30
68	6184	42.341933935708	2
68	6225	48.1	21
68	6239	49.4	12
68	6255	50.607206703256	11
68	6292	53.916074678009	32
68	6327	56.818379037352	28
68	6361	59.82284143978	29
68	6391	62.23131703857	23
68	6399	62.834623310488	5
68	6427	65.236483893526	23
68	6452	67.339103575624	20
68	6507	73.7	37
68	6525	75.2	14
68	6561	78.203364058684	29
68	6596	81.309694839736	30
68	6619	83.212746671684	18
68	6649	85.815259206049	25
68	6683	88.619515837122	27
68	6715	93.7	17
68	6748	96.5	27
68	6774	98.705633231836	21
68	6802	101.114766428188	23
68	6839	104.216210464405	30
68	6850	105.121182934346	8
68	6867	106.427960460733	12
68	6880	107.536869227243	10
68	6901	109.240003747268	16
68	6938	112.348849218348	30
68	6972	115.356724331257	29
68	7000	117.766322348461	23
68	7023	119.667518178621	18
68	7042	121.173758230189	14
68	7060	122.579820422744	13
68	7087	126.9	9
68	7094	127.5	5
68	7100	127.904368725388	3
68	7111	128.613806302004	6
68	7134	130.522913278889	18
68	7143	131.22769517865	6
68	7183	134.632696378552	33
68	7201	136.041867351599	13
68	7222	140.3	3
68	7260	143.8	34
68	7277	145.109097558718	12
68	7298	146.809562339213	16
68	7333	149.914688435805	30
68	7361	152.118217491857	21
68	7381	153.921832781874	17
68	7403	155.730631887374	17
68	7429	157.93948667233	21
68	7438	158.447215219087	4
68	7495	165.7	37
68	7513	167.2	14
68	7543	169.8068217925	25
68	7555	170.612784159103	7
68	7606	175.122633610133	44
68	7624	176.523957539711	13
68	7646	178.330838191265	17
68	7658	179.331430791539	9
68	7672	180.340764941248	9
68	7684	181.342644356443	9
68	7729	185.251117482425	38
68	7769	190	20
68	7787	191.7	16
68	7806	193.203224198713	14
68	7840	196.01081120192	27
68	7854	197.218421618611	11
68	7861	197.725460511486	4
68	7878	199.028791925793	12
68	7945	206.5	45
68	7956	207.5	9
68	7981	209.602115657443	20
68	8017	212.606205412996	29
68	8041	214.607682222036	19
68	8059	216.014473191293	13
68	8071	217.02321264039	9
68	8095	219.031768324481	19
68	8139	222.836755172469	37
68	8192	229.3	33
68	8213	231.1	17
68	8245	233.908235813283	27
68	8289	237.715843023968	37
68	8323	240.517115890535	27
68	8376	245.221789094225	46
68	8517	252.7	47
68	8572	255.1	23
68	8619	258.209584162693	30
68	8632	259.310850842785	10
68	8662	261.91672206381	25
68	8711	266.9	29
68	8743	269.8	28
68	8776	272.500447685818	26
68	8829	277.208198766921	46
68	8855	279.409259853268	21
68	8874	280.91038855558	14
68	8881	281.413204723766	4
68	8916	284.314416721059	28
68	8938	286.124207186944	17
68	8957	287.828283619958	16
68	9003	292.7	27
68	9028	294.9	21
68	9056	297.309605750683	23
68	9091	300.217015807746	28
68	9101	301.017955351843	7
68	9108	301.524069425636	4
68	9140	304.124241904669	25
68	9174	307.125111681268	29
68	9204	309.733508473114	25
68	9220	310.934340127167	11
68	9232	311.93640031663	9
68	9259	314.042653156442	20
68	9300	318.1	1
68	9315	318.7	5
68	9381	322.309825159546	35
68	9429	326.516873219592	41
68	9476	330.618550462374	40
68	9494	332.025747087549	13
68	9534	335.631738658782	35
68	9546	336.433601288671	7
68	9588	340.034742805153	35
68	9638	344.441810947731	43
68	9684	348.442570099825	39
68	9729	352.346523651142	38
68	9746	353.848517511849	14
68	9774	357	10
68	9803	359.6	25
68	9839	362.605993621831	29
68	9852	363.713696981828	10
68	9881	366.014693936727	22
68	9907	368.222992325278	21
68	9920	369.331072870702	10
68	9950	371.938026582437	25
68	9994	376.4	24
68	10021	378.8	23
68	10037	380.008210694734	11
68	10048	380.914513994269	8
68	10077	383.421540702276	24
68	10112	386.322019364577	28
68	10134	388.129179329582	17
68	10168	391.13878060235	29
68	10199	393.846837208015	26
68	10230	397.3	13
68	10266	400.4	30
68	10288	402.202528127261	17
68	10325	405.506963973794	32
68	10357	408.11484527475	25
68	10390	411.021974811922	28
68	10411	412.726777516219	16
68	10470	419.9	39
68	10480	420.6	6
68	10494	421.80969043327	11
68	10524	424.21824221305	23
68	10539	425.525652940419	12
68	10559	427.127809195314	15
68	10578	428.635923193579	14
68	10601	430.543429744113	18
68	10616	431.850600693833	12
68	10634	433.255586605651	13
68	10682	437.455949008987	41
68	10717	441.7	17
68	10749	444.4	26
68	10764	445.706742109681	12
68	10790	447.916538509702	21
68	10802	448.726454635293	7
68	10810	449.334653726527	5
68	10830	450.941206245827	15
68	10886	455.944396344003	49
68	10932	460.6	26
68	10955	462.6	19
68	10975	464.206464256129	15
68	10984	464.915301345725	6
68	10992	465.523341801851	5
68	11002	466.130976885156	5
68	11009	466.631576467607	4
68	11030	470.6	6
68	11038	471.3	6
68	11084	475.308115917472	39
68	11132	479.50815387844	41
68	11144	480.315945044813	7
68	11187	484.024305300073	36
68	11213	486.229787315366	21
68	11262	490.53912187963	42
68	11293	493.241051894137	26
68	11339	497.243715265916	39
68	11388	501.552465018708	42
68	11430	505.159595783908	35
68	11480	509.560049144482	43
68	11532	515.3	33
68	11557	517.5	21
68	11590	520.207565961016	26
68	11625	523.312676401221	30
68	11655	525.916052761914	25
68	11674	527.421997307846	14
68	11702	529.826883275198	23
68	11724	531.629120560648	17
68	11751	533.934216268294	22
68	11801	539.1	31
68	11828	541.5	23
68	11854	543.70424818139	21
68	11875	545.41039295925	16
68	11890	546.513077745739	10
68	11916	548.720184526509	21
68	11943	551.028374778493	22
68	11960	552.331888406299	12
68	11983	554.2400349325	18
68	12007	556.247477979772	19
68	12032	558.354309738772	20
68	12140	565.3	33
68	12193	568	26
68	12222	570.504865741187	24
68	12251	573.013430314429	24
68	12272	574.717804395497	16
68	12298	576.925811978572	21
68	12322	578.933076624356	19
68	12365	582.642422153007	36
68	12402	585.947523629421	32
68	12477	589.7	17
68	12508	591.1	13
68	12518	591.506864973634	3
68	12550	593.116423300103	15
68	12594	596.918321195334	37
68	12612	598.321885320207	13
68	12629	599.825341909067	14
68	12651	601.627005453279	17
68	12673	603.433054762956	17
68	12690	604.742880184828	12
68	12712	606.551928582452	17
68	12740	611.1	11
68	12776	614.2	30
68	12789	615.300918741445	10
68	12813	617.308463622669	19
68	12841	619.711470107661	23
68	12870	622.011508194116	22
68	12909	625.513535366445	34
68	12922	626.423218786681	8
68	12951	628.927464124618	24
68	12975	630.936893385294	19
68	13009	633.939820339567	29
68	13028	635.441575889591	14
68	13040	636.247823006833	7
68	13066	640.8	8
68	13095	643.4	25
68	13128	646.104316492674	26
68	13165	649.409992626723	32
68	13197	652.012964581725	25
68	13216	653.719526273253	16
68	13248	656.325632526205	25
68	13274	658.528640239072	21
68	13316	662.135031449758	35
68	13350	665.138345015792	29
68	13385	669.7	17
68	13394	670.3	5
68	13404	671.101800048134	7
68	13426	672.910260200052	17
68	13434	673.518271000456	5
68	13453	675.020861694448	14
68	13493	678.424041037876	33
68	13504	679.326800215646	8
68	13529	681.430321479841	20
68	13554	683.530765285271	20
68	13620	689.334768670955	57
68	13653	692.041650791609	26
68	13720	697.3	13
68	13755	698.8	14
68	13849	703.009952619893	41
68	13981	708.911521481915	58
68	14015	710.320054285534	13
68	14029	710.824209190402	4
68	14071	712.626880915269	17
68	14085	713.231619481811	5
68	14107	714.736489252202	14
68	14133	716.942680659592	21
68	14219	724	40
68	14223	724.3	2
68	14239	725.705316086399	13
68	14252	726.611595365159	8
68	14265	727.715770450332	10
68	14283	729.12272620744	13
68	14298	730.222939834265	10
68	14312	731.426152651785	11
68	14328	732.627931005314	11
68	14338	733.437664307478	7
68	14378	736.841127337588	33
68	14442	744.2	42
68	14459	745.8	15
68	14490	748.307484080984	24
68	14498	748.912883265536	5
68	14509	749.817646315231	8
68	14520	750.525365826655	6
68	14542	752.334501652731	17
68	14558	753.738180255307	13
68	14598	758.2	22
68	14615	759.8	15
68	14645	762.203366617704	23
68	14708	767.905506684728	56
68	14721	768.808421751231	8
68	14734	769.917335928353	10
68	14772	773.120490227933	31
68	14815	778.3	23
68	14864	782.7	43
68	14888	784.701107086366	19
68	14906	786.106465786827	13
68	14946	789.714732455165	35
68	14988	793.320424152522	35
68	15003	794.428697839372	10
68	15061	799.635569699695	51
68	15111	805	30
68	15134	807	19
68	15182	811.200064173869	41
68	15219	814.300944992496	30
68	15255	817.504701455343	31
68	15296	821.013735243247	34
68	15326	823.619626379881	25
68	15353	827.2	12
68	15371	828.7	14
68	15393	830.507309345114	17
68	15409	831.913366324049	13
68	15422	832.813747933595	8
68	15438	834.016667569027	11
68	15454	835.426232844997	13
68	15495	840.4	24
68	15508	841.6	11
68	15522	842.603664806433	9
68	15533	843.506947583683	8
68	15566	846.208724308008	26
68	15602	849.412155738979	31
68	15622	851.01528045435	15
68	15653	853.725020883067	26
68	15687	856.534553995316	27
68	15710	858.442546451238	18
68	15771	866	40
68	15790	867.8	17
68	15803	868.705851555289	8
68	15809	869.109629740881	3
68	15833	871.110103894288	19
68	15859	873.316697505828	21
68	15886	875.626085439975	22
68	15905	877.131413919051	14
68	15949	880.939593964615	37
68	15979	883.546001089713	25
68	15994	884.654193420493	10
68	16019	886.755269680802	20
68	16051	889.560133699014	27
68	16074	891.46512359658	18
68	16102	893.869448966274	23
68	16146	898.5	25
68	16166	900.2	16
68	16185	901.900973071982	16
68	16216	904.405299899573	24
68	16261	908.2	2
68	16310	910.3	20
68	16344	912.302068648762	19
68	16368	914.307381425034	19
68	16392	916.308093326389	19
68	16420	918.708162586029	23
68	16442	920.515648082996	17
68	16494	927.5	35
68	16506	928.4	8
68	16512	928.804710893318	3
68	16519	929.304953946696	4
68	16539	930.908468825552	15
68	16551	931.917364470353	9
68	16575	933.926899981731	19
68	16581	934.131415266384	1
68	16599	935.738497669229	15
68	16611	936.542315902929	7
68	16618	937.05197820124	4
68	16653	941.7	17
68	16663	942.4	6
68	16691	944.801696020511	23
68	16700	945.511427546068	6
68	16721	947.215734936703	16
68	16744	949.1170939632	18
68	16752	949.722476728519	5
68	16811	954.82901179312	50
68	16840	957.331164418109	24
68	16905	964.3	43
68	16929	966.4	20
68	16994	972.108193826351	56
68	17006	973.115681998053	9
68	17013	973.620485795455	4
68	17035	975.423295519221	17
68	17054	976.932651921673	14
68	17086	979.739375501882	27
68	17126	983.142097110375	33
68	17161	987.9	19
68	17178	989.3	13
68	17204	991.505459303501	21
68	17231	993.811933299681	22
68	17246	994.913169376359	10
68	17290	998.718589332986	37
68	17310	1000.327144602713	15
68	17317	1000.836175945923	4
68	17334	1002.13683383821	12
68	17347	1003.237561612969	10
68	17411	1008.84248495838	55
68	17467	1015.6	36
68	17482	1016.8	11
68	17495	1017.904998807099	10
68	17513	1019.311303798726	13
68	17540	1021.613344167098	22
68	17570	1024.016940581828	23
68	17574	1024.225748102116	1
68	17604	1029.2	12
68	17638	1032.1	28
68	17670	1034.901569646396	27
68	17689	1036.404444592401	14
68	17724	1039.514088887624	30
68	17843	1045.5	35
68	17858	1046.1	5
68	17874	1046.803564953557	6
68	17896	1048.204667474862	13
68	17918	1050.005578842898	17
68	17951	1052.907794355597	28
68	17976	1055.016529039308	20
68	18000	1057.022535253428	19
68	18025	1059.128425387507	20
68	18049	1061.137144764656	19
68	18063	1062.143181508873	9
68	18093	1067.2	12
68	18110	1068.6	13
68	18117	1069.106526079799	4
68	18136	1070.608816151504	14
68	18150	1071.810537990072	11
68	18166	1073.011309716381	11
68	18205	1076.317335067278	32
68	18232	1078.619025357606	22
68	18304	1087	50
68	18322	1088.5	14
68	18348	1090.702269087724	21
68	18377	1093.208011946728	24
68	18414	1096.312161161374	30
68	18437	1098.21907824375	18
68	18460	1100.127242243916	18
68	18513	1104.830571144756	46
68	18553	1110	20
68	18579	1112.3	22
68	18623	1116.107477594392	37
68	18664	1119.814294101201	36
68	18677	1120.719152059118	8
68	18708	1125.3	13
68	18727	1126.9	15
68	18746	1128.409783162039	14
68	18763	1129.916374311309	14
68	18774	1130.6173611692	6
68	18799	1132.721140880713	20
68	18819	1134.32493259483	15
68	18841	1136.127584835938	17
68	18854	1137.233916464205	10
68	18877	1139.143737235063	18
68	18900	1141.045699763152	18
68	18904	1141.247357259644	1
68	18947	1146.3	23
68	18956	1147.1	7
68	18997	1150.60744549568	34
68	19022	1152.714139615229	20
68	19070	1156.9186798603	41
68	19104	1159.928071441066	29
68	19141	1163.029865085911	30
68	19169	1165.439620517259	23
68	19191	1167.243780963955	17
68	19219	1171	10
68	19243	1173.1	20
68	19267	1175.107239026355	19
68	19308	1178.611459432784	34
68	19361	1183.311909221182	46
68	19376	1184.41272730712	10
68	19409	1187.322374606536	28
68	19446	1190.428126771513	30
68	19466	1192.030051595319	15
68	19491	1194.132692227614	20
68	19522	1196.840134204729	26
68	19553	1199.541222721401	26
68	19613	1204.741245244692	51
68	19623	1205.544583889892	7
68	19649	1207.744610102347	21
68	19679	1211.2	12
68	19684	1211.6	3
68	19715	1214.101659940048	24
68	19722	1214.606559946599	4
68	19748	1216.810537616616	21
68	19774	1219.020359947232	21
68	19803	1221.524800999844	24
68	19851	1227.1	31
68	19893	1230.8	36
68	19905	1231.804527571548	9
68	19922	1233.114505897212	12
68	19941	1234.622381276428	14
68	19961	1236.229425728162	15
68	19974	1237.337659176249	10
68	19993	1238.843412884171	14
68	20012	1240.350957096062	14
68	20027	1241.656368300711	12
68	20067	1246.2	22
68	20079	1247.3	10
68	20114	1250.206696109273	28
68	20143	1252.715680612721	24
68	20167	1254.718393908189	19
68	20177	1255.526995531173	7
68	20190	1256.428425480564	8
68	20256	1262.23104646521	57
68	20282	1264.440021416522	21
68	20326	1270.4	24
68	20350	1272.5	20
68	20388	1275.90283486186	33
68	20397	1276.408008229696	4
68	20422	1278.51253937461	20
68	20453	1281.213271168517	26
68	20523	1288.8	48
68	20555	1291.7	28
68	20595	1295.101681336057	33
68	20610	1296.206239723136	10
68	20626	1297.607909134643	13
68	20659	1300.310265943897	26
68	20673	1301.510595641864	11
68	20708	1304.416767622392	28
68	20722	1305.621868589705	11
68	20760	1308.826761934545	31
68	20895	1314.3	23
68	20949	1316.4	20
68	20997	1318.600030288728	21
68	21031	1320.004915537977	13
68	21065	1321.50665434876	14
68	21127	1324.213422055537	26
68	21146	1325.014859647936	7
68	21187	1330.4	24
68	21209	1332.3	18
68	21234	1334.408287166841	20
68	21260	1336.614468051371	21
68	21283	1338.518517550922	18
68	21308	1340.626576922473	20
68	21350	1344.235139573879	35
68	21377	1346.540287825249	22
68	21397	1348.144377387632	15
68	21428	1350.84735265329	26
68	21459	1353.551836405028	26
68	21496	1356.657929997578	30
68	21518	1358.461669011184	17
68	21547	1360.969415668067	24
68	21613	1368.4	44
68	21632	1370	15
68	21656	1372.000622192488	19
68	21687	1374.706211181289	26
68	21707	1376.314534469064	15
68	21731	1378.321210719839	19
68	21742	1379.226895191923	8
68	21769	1381.533623182514	22
68	21793	1383.537231182005	19
68	21819	1387	10
68	21834	1388.2	11
68	21844	1389.00584904226	7
68	21863	1390.505942181474	14
68	21889	1392.71386464368	21
68	21909	1394.314280385595	15
68	21922	1395.422168195965	10
68	21951	1397.92831057165	24
68	21971	1399.534777431473	15
68	21988	1400.83974822102	12
68	21998	1401.647274363014	7
68	22014	1402.855692197832	11
68	22025	1403.759031161943	8
68	22040	1404.859810162894	10
68	22132	1410.4	24
68	22171	1412.1	16
68	22231	1415.202882375579	30
68	22252	1416.903836092619	16
68	22267	1418.004156611918	10
68	22285	1419.61210933319	15
68	22306	1421.321913509324	16
68	22323	1422.630562316371	12
68	22336	1423.739883175425	10
68	22362	1425.941396240333	21
68	22393	1428.449743611008	24
68	22414	1430.156328417494	16
68	22458	1436.4	24
68	22489	1439.2	27
68	22525	1442.203075425797	29
68	22576	1446.708022476821	44
68	22582	1447.114445063622	3
68	22617	1450.018335151126	28
68	22649	1452.827775760985	27
68	22678	1455.329307870723	24
68	22715	1458.430104031646	30
68	22746	1461.136993721725	26
68	22766	1462.742081953952	15
68	22820	1469.4	34
68	22855	1472.4	29
68	22898	1476.100637366406	36
68	22921	1478.009712435649	18
68	22936	1479.312114500605	12
68	22950	1480.318190515219	9
68	22980	1482.919975416016	25
68	23013	1485.826732601228	28
68	23067	1490.430479156605	45
68	23124	1494.9	9
68	23139	1495.6	6
68	23157	1496.304820837844	6
68	23175	1497.006825702369	6
68	23213	1498.610442041346	15
68	23277	1501.320035457663	26
68	23316	1504.620585380199	32
68	23413	1510.6	26
68	23436	1511.7	10
68	23468	1513.003402660135	12
68	23500	1514.311174758686	12
68	23542	1516.117662825516	17
68	23558	1516.820062207436	6
68	23574	1517.427098604301	5
68	23595	1518.231907359564	7
68	23623	1519.439249709243	11
68	23682	1522.445629884061	29
68	23698	1523.846329383771	13
68	23715	1525.153911265481	12
68	23729	1526.156946158513	9
68	23736	1526.661424198554	4
68	23744	1527.270172372516	5
68	23808	1532.87467553138	55
68	23873	1540.3	43
68	23893	1542	16
68	23932	1545.500088835756	34
68	23959	1547.800924001859	22
68	23980	1549.507963708021	16
68	23991	1550.211759337977	6
68	24028	1553.512402150149	32
68	24053	1555.622070797409	20
68	24071	1557.028285299562	13
68	24107	1560.032669754777	29
68	24119	1561.03717590733	9
68	24166	1566.7	27
68	24184	1568.2	14
68	24196	1569.207635432055	9
68	24217	1570.908575066434	16
68	24233	1572.114429408706	11
68	24258	1574.21873131197	20
68	24277	1575.928687062124	16
68	24291	1576.938333033567	9
68	24306	1578.047839721447	10
68	24324	1579.65355949431	15
68	24389	1583.4	14
68	24422	1584.8	13
68	24471	1587.009686735027	21
68	24534	1589.812026167748	27
68	24560	1590.919879045254	10
68	24568	1591.222006180249	2
68	24597	1592.331586979799	10
68	24605	1592.641467098648	2
68	24692	1600.3	43
68	24723	1603.1	27
68	24744	1604.808892394269	16
68	24760	1606.011698113269	11
68	24796	1609.212367944355	31
68	24831	1612.115333124919	28
68	24867	1615.318284388525	31
68	24884	1616.624035578005	12
68	24912	1619.024746039398	23
68	24932	1620.631924263443	15
68	24953	1622.33527803751	16
68	24998	1626.236612020936	38
68	25034	1631.8	18
68	25064	1634.3	24
68	25088	1636.303298556003	19
68	25114	1638.509552410414	21
68	25141	1640.811502258581	22
68	25146	1641.112491761726	2
68	25183	1644.213086159751	30
68	25211	1646.618429221909	23
68	25216	1646.919051702825	2
68	25225	1647.619615750016	6
68	25268	1652.3	23
68	25321	1657.1	47
68	25350	1659.603390564473	24
68	25391	1663.112695897998	34
68	25540	1671	50
68	25583	1672.9	18
68	25615	1674.204039706725	12
68	25635	1675.112369983112	8
68	25665	1676.313416803273	11
68	25698	1678.114855855879	17
68	25724	1680.324498550187	21
68	25736	1681.333726666106	9
68	25772	1684.342485590453	29
68	25811	1687.850839137101	34
68	25836	1689.96047519731	20
68	25860	1691.967140175261	19
68	25875	1693.073994089673	10
68	25881	1693.477956500051	3
68	25897	1694.68507036833	11
68	25947	1701.1	31
68	25960	1702.1	9
68	25976	1703.50262403524	13
68	26003	1705.807643666937	22
68	26018	1706.910977792175	10
68	26023	1707.212077173295	2
68	26032	1707.913544351081	6
68	26076	1712.7	27
68	26106	1715.4	26
68	26116	1716.001627744832	5
68	26135	1717.704774870178	16
68	26145	1718.309387566574	5
68	26153	1718.913979210957	5
68	26193	1722.31976495341	33
68	26255	1730	40
68	26274	1731.8	17
68	26293	1733.300577278023	14
68	26316	1735.201031055727	18
68	26331	1736.306854102254	10
68	26362	1739.007294184622	26
68	26386	1741.009936585489	19
68	26453	1748.8	48
68	26470	1750.2	13
68	26487	1751.708631154077	14
68	26519	1754.315309647707	25
68	26529	1755.124289365309	7
68	26538	1755.82713842684	6
68	26553	1756.928053849617	10
68	26564	1757.829365512971	8
68	26575	1758.535087559763	6
68	26584	1759.242534497775	6
68	26637	1765.4	34
68	26676	1768.8	33
68	26692	1770.001122039332	11
68	26705	1771.103794598597	10
68	26714	1771.80592290497	6
68	26735	1773.506593325085	16
68	26773	1776.710131968413	31
68	26808	1779.810402746626	30
68	26841	1782.515091397801	26
68	26848	1783.017853138171	4
68	26879	1787.3	13
68	26899	1789	16
68	26920	1790.706779329995	16
68	26930	1791.515353341295	7
68	26945	1792.620878386119	10
68	26985	1796.021631230182	33
68	26993	1796.625134776331	5
68	27033	1800.034480269212	33
68	27068	1803.143330691839	30
68	27075	1803.646783690946	4
68	27176	1808.9	29
68	27193	1809.7	7
68	27229	1811.208315096537	14
68	27267	1812.814197146459	15
68	27279	1813.222050426259	3
68	27329	1815.330780898126	20
68	27343	1815.933934632614	5
68	27397	1818.43713500492	24
68	27448	1822.943712738574	44
68	27484	1827.8	18
68	27497	1828.8	9
68	27522	1830.906214477489	20
68	27554	1833.714950278489	27
68	27594	1837.118360830607	33
68	27617	1839.018872987717	18
68	27644	1841.319820576429	22
68	27649	1841.620268753508	2
68	27687	1844.821132023995	31
68	27716	1849.3	13
68	27729	1850.3	9
68	27754	1852.405124664921	20
68	27771	1853.91406918981	14
68	27808	1857.022294759772	30
68	27831	1858.928073918647	18
68	27853	1860.737147052921	17
68	27874	1862.444984855576	16
68	27889	1863.754242362606	12
68	27912	1865.66151550732	18
68	27943	1868.169918781674	24
68	27999	1872.9	9
68	28036	1874.5	15
68	28072	1876.002702282869	14
68	28104	1877.508494498512	14
68	28140	1879.009543461833	14
68	28180	1880.712411575043	16
68	28225	1883.814351933079	30
68	28260	1886.717748210434	28
68	28286	1888.919759333111	21
68	28303	1890.222770626706	12
68	28352	1896.9	29
68	28359	1897.5	5
68	28363	1897.703980081283	1
68	28401	1900.908399838417	31
68	28432	1903.613547599248	26
68	28451	1905.116974964118	14
68	28475	1907.125270780168	19
68	28507	1909.92975377437	27
68	28528	1911.631503828117	16
68	28538	1912.233051880256	5
68	28560	1914.036517825818	17
68	28594	1917.045611779882	29
68	28656	1922.446558976288	53
68	28737	1928	20
68	28758	1929	9
68	28864	1934.703631780885	56
68	28882	1936.110301914519	13
68	28915	1939.010328497922	28
68	28932	1940.318747569362	12
68	28953	1942.019167397967	16
68	28969	1943.419391404725	13
68	28982	1944.322148730833	8
68	29028	1948.4	4
68	29074	1950.5	20
68	29090	1951.105629937942	5
68	29102	1951.607428948464	4
68	29145	1953.512430570555	18
68	29172	1954.61869786985	10
68	29198	1955.72268978277	10
68	29319	1962.4	44
68	29352	1965.4	29
68	29384	1968.001469668003	25
68	29415	1970.707170453851	26
68	29446	1973.408996628205	26
68	29480	1976.215897919238	27
68	29498	1977.824276216582	15
68	29533	1980.727513336648	28
68	29546	1981.837317849969	10
68	29614	1988.8	48
68	29635	1990.6	17
68	29654	1992.101970469052	14
68	29669	1993.410368173296	12
68	29706	1996.519128232669	30
68	29712	1996.928584579507	3
68	29728	1998.135562081467	11
68	29762	2001.138660671745	29
68	29780	2002.54630015032	13
68	29789	2003.255358856253	6
68	29812	2005.15638237975	18
68	29842	2007.762637092828	25
68	29878	2010.76548361392	29
68	29889	2011.67124155828	8
68	29925	2014.680093768178	29
68	29968	2018.383005854477	36
68	29999	2023.4	14
68	30022	2025.4	19
68	30045	2027.309506723482	18
68	30057	2028.113644507009	7
68	30083	2030.322771441334	21
68	30112	2032.82967631259	24
68	30133	2034.536310658936	16
68	30147	2035.738371403502	11
68	30202	2041.5	35
68	30232	2044	24
68	30265	2046.905438210293	28
68	30287	2048.706302397248	17
68	30310	2050.615282420941	18
68	30336	2052.824630055913	21
68	30367	2055.530676726271	26
68	30407	2058.935382072295	33
68	30445	2062.140673501473	31
68	30479	2065.147875352066	29
68	30516	2068.25749567856	30
68	30539	2070.165153405872	18
68	30563	2072.165449334102	19
68	30619	2079.8	38
68	30626	2080.2	3
68	30639	2081.30611922926	10
68	30682	2085.015683654795	36
68	30698	2086.220486349136	11
68	30709	2087.126156189591	8
68	30728	2088.630296109328	14
68	30742	2089.833883662959	11
68	30777	2092.739452579568	28
68	30841	2100.2	42
68	30874	2103.2	29
68	30894	2104.80758062341	15
68	30904	2105.614919043455	7
68	30938	2108.420615688955	27
68	30959	2110.12188754442	16
68	30978	2111.824863482688	16
68	30990	2112.634668816202	7
68	31002	2113.63726189014	9
68	31032	2117.2	12
68	31047	2118.4	11
68	31083	2121.603686522128	31
68	31092	2122.105064629776	4
68	31127	2125.206085898274	30
68	31148	2126.90634887724	16
68	31187	2130.2067977732	32
68	31202	2131.508021267536	12
68	31229	2133.811288568999	22
68	31298	2137.4	14
68	31329	2138.8	13
68	31373	2140.605799126673	17
68	31414	2142.412422023202	17
68	31420	2142.819630737766	3
68	31460	2146.22744037763	33
68	31493	2149.130285752595	28
68	31511	2150.535721461009	13
68	31547	2155.8	18
68	31569	2157.7	18
68	31589	2159.302657379528	15
68	31605	2160.50648757455	11
68	31620	2161.812356687682	12
68	31641	2163.52021873584	16
68	31674	2166.222896399956	26
68	31742	2174.9	49
68	31766	2177	20
68	31798	2179.803097223234	27
68	31836	2183.006055872451	31
68	31865	2185.51119416053	24
68	31871	2185.916960778905	3
68	31886	2187.021591629605	10
68	31903	2188.326486113569	12
68	31927	2190.327264558444	19
68	31950	2192.22875215226	18
68	31965	2193.529788377491	12
68	32017	2199.2	32
68	32035	2200.7	14
68	32047	2201.70278984765	9
68	32070	2203.607050905643	18
68	32093	2205.508224784029	18
68	32131	2208.709443294012	31
68	32154	2210.617591671386	18
68	32181	2215.2	12
68	32246	2221	57
68	32261	2222.100192779623	10
68	32285	2224.102186837679	19
68	32308	2226.003769390942	18
68	32321	2227.107195103688	10
68	32340	2228.616156915237	14
68	32447	2235.2	32
68	32484	2237.6	23
68	32503	2239.109342842267	14
68	32520	2240.415831968497	12
68	32535	2241.722054644598	12
68	32558	2243.624880359588	18
68	32576	2245.033553709013	13
68	32601	2247.141408365622	20
68	32629	2249.542982041739	23
68	32650	2251.252261133376	16
68	32690	2256	20
68	32699	2256.8	7
68	32711	2257.803944913151	9
68	32734	2259.707568878375	18
68	32750	2260.913443611789	11
68	32780	2263.515300692257	25
68	32816	2266.515813936833	29
68	32850	2271.9	19
68	32867	2273.3	13
68	32891	2275.303701281149	19
68	32904	2276.213693425736	8
68	32930	2278.42277719725	21
68	32997	2284.8	28
68	33013	2286.1	12
68	33024	2287.007558868182	8
68	33051	2289.313853919677	22
68	33075	2291.32041036225	19
68	33113	2294.529465767264	31
68	33158	2300.5	25
68	33168	2301.4	8
68	33182	2302.403041918301	9
68	33193	2303.306502138548	8
68	33208	2304.41391509473	10
68	33272	2310.018044572471	55
68	33292	2314.2	2
68	33303	2315.2	9
68	33308	2315.508356704243	2
68	33331	2317.409085699307	18
68	33355	2319.410769121077	19
68	33379	2321.411090827806	19
68	33389	2322.015586674484	5
68	33453	2330.5	45
68	33463	2331.4	8
68	33468	2331.706864799598	2
68	33481	2332.608479390669	8
68	33524	2336.312435254217	36
68	33558	2339.314573927349	29
68	33565	2339.817911761221	4
68	33615	2345.3	33
68	33636	2347.1	17
68	33663	2349.406053779223	22
68	33692	2351.908483205016	24
68	33728	2354.910533149763	29
68	33743	2356.020423684512	10
68	33767	2360.6	6
68	33772	2361	3
68	33799	2363.309811909862	22
68	33829	2365.912195600994	25
68	33850	2367.612978825719	16
68	33913	2373.115938957141	54
68	34024	2379.5	35
68	34069	2381.5	19
68	34123	2383.906683437703	23
68	34203	2387.310809444316	33
68	34218	2388.410856127104	10
68	34244	2390.616925486548	21
68	34267	2392.522916717779	18
68	34276	2393.222996721887	6
68	34285	2393.923146331636	6
68	34308	2395.829974390798	18
68	34317	2396.336912874531	4
68	34345	2398.745126955106	23
68	34390	2404.5	25
68	34395	2404.9	3
68	34433	2408.109727066662	31
68	34444	2409.015680960102	8
68	34510	2416.4	44
68	34544	2419.5	30
68	34557	2420.402181250178	8
68	34590	2423.302597107859	28
68	34626	2426.30288585669	29
68	34660	2429.305062483347	29
68	34681	2431.009284119809	16
68	34713	2433.815203550993	27
68	34728	2434.921204749326	10
68	34753	2437.027701905776	20
68	34762	2437.734113812773	6
68	34793	2441.3	13
68	34804	2442.1	7
68	34816	2443.102647817623	9
68	34851	2446.008215112627	28
68	34866	2447.316360453389	12
68	34889	2449.216959868579	18
68	34910	2450.92281881771	16
68	34948	2456.1	21
68	35000	2460.8	46
68	35007	2461.305555663288	4
68	35020	2462.212272640627	8
68	35026	2462.612403369957	3
68	35035	2463.322360329212	6
68	35057	2465.128229500195	17
68	35078	2466.831808568446	16
68	35104	2469.031879367478	21
68	35134	2471.638569081277	25
68	35172	2474.84261940228	31
68	35321	2483	50
68	35332	2483.5	4
68	35360	2484.605384586066	10
68	35388	2485.810133072206	11
68	35398	2486.014271558616	1
68	35408	2486.417191240868	3
68	35416	2486.718051744311	2
68	35473	2491.1	11
68	35497	2493.2	20
68	35505	2493.800908233602	5
68	35538	2496.50616356728	26
68	35561	2498.414435616804	18
68	35581	2500.015625292286	15
68	35605	2502.017156415146	19
68	35629	2504.025527738965	19
68	35662	2506.930555217095	28
68	35699	2510.033053892004	30
68	35736	2513.337258009401	32
68	35778	2518.2	22
68	35791	2519.4	11
68	35796	2519.704924790665	2
68	35815	2521.206019272717	14
68	35841	2523.413631597718	21
68	35874	2526.119362873276	26
68	35912	2529.525966198357	33
68	35952	2534	20
68	35963	2535	9
68	35994	2537.70038974158	26
68	36026	2540.302718848315	25
68	36062	2543.506733163263	31
68	36084	2545.312961655313	17
68	36111	2547.620904316022	22
68	36135	2549.629536436845	19
68	36157	2551.429824714038	17
68	36205	2555.634679081769	41
68	36221	2556.842637158197	11
68	36277	2563.6	36
68	36307	2566.1	24
68	36338	2568.808368088926	26
68	36363	2570.914143790038	20
68	36387	2572.916728898122	19
68	36395	2573.517185031371	5
68	36431	2576.519067947584	29
68	36453	2578.326981725358	17
68	36477	2580.330825600796	19
68	36507	2582.934585284492	25
68	36537	2585.537118808202	25
68	36556	2587.040595776472	14
68	36576	2588.645475405597	15
68	36597	2590.354211084826	16
68	36624	2592.654438633899	22
68	36637	2593.761489305152	10
68	36662	2595.867134340054	20
68	36692	2598.276537058078	23
68	36735	2604.4	24
68	36760	2606.6	21
68	36786	2608.800004239589	21
68	36833	2612.906771820563	40
68	36851	2614.316093006637	13
68	36903	2618.92184249219	45
68	36932	2621.422190193834	24
68	36947	2622.530384083396	10
68	36958	2623.435307562426	8
68	36968	2624.045218829314	5
68	36983	2625.351395470389	12
68	37000	2626.652184215582	12
68	37069	2634.8	48
68	37087	2636.3	14
68	37098	2637.205583760435	8