file 236239 1369674126                                          
version 2
run Join-45-20130429-12:50:37-17679
attr configname Join
attr datetime 20130429-12:50:37
attr experiment "\"Join\""
attr inifile omnetpp.ini
attr iterationvars $0=512
attr iterationvars2 "$0=512, $repetition=5"
attr measurement $0=512
attr network Network
attr processid 17679
attr repetition 5
attr replication #5
attr resultdir results
attr runnumber 45
attr seedset 45
vector 45  Network.dyn_peer[0]  lookupHopsSig:vector  ETV
45	441 235798 1745 140308 20.515307514962 12651.356912215995 8662 0 38 88397 1154803
