file 196247 1369674126                                          
version 2
run Join-16-20130429-12:49:36-17679
attr configname Join
attr datetime 20130429-12:49:36
attr experiment "\"Join\""
attr inifile omnetpp.ini
attr iterationvars $0=64
attr iterationvars2 "$0=64, $repetition=6"
attr measurement $0=64
attr network Network
attr processid 17679
attr repetition 6
attr replication #6
attr resultdir results
attr runnumber 16
attr seedset 16
vector 16  Network.dyn_peer[0]  lookupHopsSig:vector  ETV
16	438 195809 404 65402 22.2 6320.212270161895 7610 0 11 25829 108059
