file 259336 1369674126                                          
version 2
run Join-64-20130429-12:51:50-17679
attr configname Join
attr datetime 20130429-12:51:50
attr experiment "\"Join\""
attr inifile omnetpp.ini
attr iterationvars $0=2048
attr iterationvars2 "$0=2048, $repetition=4"
attr measurement $0=2048
attr network Network
attr processid 17679
attr repetition 4
attr replication #4
attr resultdir results
attr runnumber 64
attr seedset 64
vector 64  Network.dyn_peer[0]  lookupHopsSig:vector  ETV
64	444 258892 5921 247094 23.4 20688.626584467981 9136 1 76 168043 4136535
