file 259743 1367232710                                          
version 2
run Join-63-20130429-12:51:44-17679
attr configname Join
attr datetime 20130429-12:51:44
attr experiment "\"Join\""
attr inifile omnetpp.ini
attr iterationvars $0=2048
attr iterationvars2 "$0=2048, $repetition=3"
attr measurement $0=2048
attr network Network
attr processid 17679
attr repetition 3
attr replication #3
attr resultdir results
attr runnumber 63
attr seedset 63
vector 63  Network.dyn_peer[0]  lookupHopsSig:vector  ETV
63	444 259299 5915 278606 21.8 23340.840946539538 9110 1 76 194574 5352384
