file 269508 1367233118                                          
version 2
run Join-88-20130429-12:58:10-17679
attr configname Join
attr datetime 20130429-12:58:10
attr experiment "\"Join\""
attr inifile omnetpp.ini
attr iterationvars $0=8192
attr iterationvars2 "$0=8192, $repetition=8"
attr measurement $0=8192
attr network Network
attr processid 17679
attr repetition 8
attr replication #8
attr resultdir results
attr runnumber 88
attr seedset 88
vector 88  Network.dyn_peer[0]  lookupHopsSig:vector  ETV
88	444 269064 22178 509134 20.725656796268 38927.628577728991 9270 1 171 349973 17691081
