file 270863 1369674127                                          
version 2
run Join-81-20130429-12:54:48-17679
attr configname Join
attr datetime 20130429-12:54:48
attr experiment "\"Join\""
attr inifile omnetpp.ini
attr iterationvars $0=8192
attr iterationvars2 "$0=8192, $repetition=1"
attr measurement $0=8192
attr network Network
attr processid 17679
attr repetition 1
attr replication #1
attr resultdir results
attr runnumber 81
attr seedset 81
vector 81  Network.dyn_peer[0]  lookupHopsSig:vector  ETV
81	444 270419 22251 558714 20.205926566526 42754.852072874078 9302 1 159 388679 20860831
