version 2
run Join-35-20130429-12:50:12-17679
attr configname Join
attr datetime 20130429-12:50:12
attr experiment "\"Join\""
attr inifile omnetpp.ini
attr iterationvars $0=256
attr iterationvars2 "$0=256, $repetition=5"
attr measurement $0=256
attr network Network
attr processid 17679
attr repetition 5
attr replication #5
attr resultdir results
attr runnumber 35
attr seedset 35

vector 35  Network.dyn_peer[0]  lookupHopsSig:vector  ETV
35	978	20.60964596085	9
35	990	21.612892591652	9
35	1007	22.914839639157	12
35	1031	24.921739556755	19
35	1102	29.3	13
35	1129	30.4	10
35	1147	31.202494591993	7
35	1171	32.803787237109	15
35	1182	33.704976709807	8
35	1195	34.612976942998	8
35	1204	35.318732405849	6
35	1259	38.9	9
35	1268	39.7	7
35	1289	41.400927642998	16
35	1306	42.705623057363	12
35	1317	43.612144764142	8
35	1333	44.818224582941	11
35	1359	48.8	8
35	1374	50	11
35	1386	51.003385516148	9
35	1400	52.004110190264	9
35	1410	52.809966631991	7
35	1422	53.813098460741	9
35	1444	56.4	4
35	1452	57.1	6
35	1457	57.306948312844	1
35	1464	57.814930781372	4
35	1472	58.220073747603	3
35	1480	58.822853178086	5
35	1484	59.024653820097	1
35	1491	59.533184684202	4
35	1500	60.041181192504	4
35	1531	65.4	14
35	1542	66.2	7
35	1555	67.307130211747	10
35	1568	68.211464175753	8
35	1578	69.016073732419	7
35	1602	71.020443785107	19
35	1617	72.127309940415	10
35	1625	72.730879380849	5
35	1634	73.435735916245	6
35	1660	76.8	8
35	1667	77.4	5
35	1681	78.407762454785	9
35	1690	79.108098591619	6
35	1700	79.916319792775	7
35	1713	80.821918974014	8
35	1720	81.323151840442	4
35	1733	82.229543464759	8
35	1742	82.933762880975	6
35	1746	83.136843285753	1
35	1809	87	10
35	1866	89.5	24
35	1875	90.007286751307	4
35	1886	90.911523348502	8
35	1902	92.115541621306	11
35	1913	93.02336571232	8
35	1921	93.627273874437	5
35	1938	94.933156520901	12
35	1948	95.742579090562	7
35	1978	99.2	12
35	1986	99.9	6
35	2000	100.901817537068	9
35	2018	102.302247657011	13
35	2031	103.407337462374	10
35	2046	104.511823728429	10
35	2057	105.418915297111	8
35	2081	107.420695244457	19
35	2087	107.828694295265	3
35	2113	110.8	8
35	2116	111	1
35	2127	111.907599493952	8
35	2140	112.812330567764	8
35	2148	113.415268482316	5
35	2163	114.522217961127	10
35	2178	115.825307567618	12
35	2203	118.7	7
35	2224	120.5	17
35	2232	121.104291068741	5
35	2241	121.813916252457	6
35	2265	124.6	6
35	2274	125.4	7
35	2280	125.808467951794	3
35	2291	126.513628232772	6
35	2300	127.222854925069	6
35	2308	127.82760160059	5
35	2323	128.927683576536	10
35	2348	132.7	7
35	2357	133.5	7
35	2374	134.809675830611	12
35	2386	135.816276091031	9
35	2395	136.31830683084	4
35	2402	136.827374758753	4
35	2418	138.030866893013	11
35	2427	138.735855108678	6
35	2436	139.438277802184	6
35	2448	140.238804124578	7
35	2461	141.340144380555	10
35	2473	142.146021361726	7
35	2502	147.1	11
35	2520	148.6	14
35	2532	149.601102582614	9
35	2547	150.706320945575	10
35	2559	151.708968274498	9
35	2569	152.317152964098	5
35	2580	153.222895796378	8
35	2595	154.323344937448	10
35	2623	159	10
35	2637	160.1	10
35	2645	160.705060132348	5
35	2658	161.81186650945	10
35	2670	162.618329049035	7
35	2685	163.92078449527	12
35	2696	164.62466865223	6
35	2722	169.1	11
35	2729	169.7	5
35	2744	170.802276544687	10
35	2754	171.610203136978	7
35	2769	172.716307454813	10
35	2778	173.424895166469	6
35	2804	176.8	8
35	2811	177.4	5
35	2816	177.705991289014	2
35	2827	178.411778655796	6
35	2837	179.216814824613	7
35	2849	180.022192865968	7
35	2859	180.826109990721	7
35	2864	181.136109547979	2
35	2892	185.2	12
35	2905	186.2	9
35	2910	186.507443655782	2
35	2919	187.2086393167	6
35	2932	188.115285350518	8
35	2944	189.120292073696	9
35	2964	190.721084328804	15
35	2973	191.430280973608	6
35	2984	192.13180387763	6
35	3001	193.635844442086	14
35	3026	196.7	7
35	3035	197.5	7
35	3047	198.30446518294	7
35	3055	198.90692508615	5
35	3061	199.307323554141	3
35	3067	199.715428785149	3
35	3079	200.518573573257	7
35	3088	201.218813672219	6
35	3100	202.028548832945	7
35	3108	202.6317961685	5
35	3112	202.839790192394	1
35	3121	203.545431287764	6
35	3150	207.1	11
35	3156	207.6	4
35	3166	208.208557117138	5
35	3176	209.011426016654	7
35	3196	210.614463964677	15
35	3206	211.417565159259	7
35	3212	211.821829362995	3
35	3224	212.625357546467	7
35	3230	213.028738810537	3
35	3236	213.437431359985	3
35	3246	214.045039420568	5
35	3274	219	10
35	3290	220.3	12
35	3304	221.507432470743	11
35	3319	222.610472876767	10
35	3330	223.514578622737	8
35	3340	224.117849099439	5
35	3345	224.420093051093	2
35	3371	228.8	8
35	3379	229.5	6
35	3385	229.902669220257	3
35	3398	230.806439619676	8
35	3408	231.60824290594	7
35	3413	231.909609172247	2
35	3424	232.612425960784	6
35	3456	237.4	14
35	3459	237.6	1
35	3467	238.001234652942	3
35	3478	238.904995752803	8
35	3498	240.50773536821	15
35	3507	241.20930497095	6
35	3524	242.513473354042	12
35	3534	243.321517771174	7
35	3557	246.5	5
35	3563	247	4
35	3568	247.300593586608	2
35	3576	247.908055882197	5
35	3591	249.008317669941	10
35	3601	249.81545206186	7
35	3615	250.817022485422	9
35	3622	251.325965634163	4
35	3637	252.43551529048	10
35	3663	256.8	8
35	3671	257.5	6
35	3689	258.901302105893	13
35	3693	259.106028798373	1
35	3716	262.5	5
35	3729	263.7	11
35	3737	264.106761788823	3
35	3748	265.010327375805	8
35	3765	266.319554799768	12
35	3782	267.823614748854	14
35	3800	269.231630889191	13
35	3819	270.736059254216	14
35	3830	271.645211855116	8
35	3855	274.9	9
35	3861	275.4	4
35	3867	275.801504623414	3
35	3879	276.603007478512	7
35	3890	277.503421984133	8
35	3902	278.304581268408	7
35	3911	279.008029664451	6
35	3917	279.415718132752	3
35	3929	280.219842766386	7
35	3939	281.02648069388	7
35	3950	281.934285674861	8
35	3972	284.4	4
35	3978	284.9	4
35	3989	285.803664671734	8
35	4000	286.507876429908	6
35	4006	286.910386612558	3
35	4057	290.8	8
35	4061	291.1	2
35	4066	291.405234285804	2
35	4073	291.910419747337	4
35	4086	292.818803515144	8
35	4094	293.426062892888	5
35	4121	296.9	9
35	4139	298.4	14
35	4149	299.204292521604	7
35	4156	299.71294099742	4
35	4170	300.719287036551	9
35	4177	301.228097395012	4
35	4190	302.136223900595	8
35	4201	303.045976748433	8
35	4216	304.148059636188	10
35	4231	305.449283843914	12
35	4237	305.853870776379	3
35	4246	306.3590897225	4
35	4267	310.3	3
35	4282	311.7	13
35	4298	312.902961413799	11
35	4307	313.609456894357	6
35	4318	314.312414891138	6
35	4327	315.016338416207	6
35	4335	315.624943133724	5
35	4359	318.6	6
35	4363	318.9	2
35	4375	319.907904493613	9
35	4395	321.515601377435	15
35	4404	322.020758099219	4
35	4411	322.525933660409	4
35	4420	323.232002909563	6
35	4434	324.234257260332	9
35	4441	324.737385166642	4
35	4461	328.2	2
35	4476	329.6	13
35	4488	330.409740673562	7
35	4501	331.512201159682	10
35	4513	332.319939262186	7
35	4523	333.121604137333	7
35	4527	333.325232485768	1
35	4533	333.731411910711	3
35	4561	337.2	12
35	4568	337.8	5
35	4590	339.606805980389	17
35	4604	340.610648336705	9
35	4629	344.7	7
35	4653	346.8	20
35	4670	348.106348016641	12
35	4682	349.113011948437	9
35	4697	350.222586539954	10
35	4712	351.532142465466	12
35	4736	354.6	6
35	4745	355.4	7
35	4757	356.20529012582	7
35	4769	357.205376963673	9
35	4781	358.01068730344	7
35	4788	358.512311859733	4
35	4796	359.118192121162	5
35	4806	359.927805558369	7
35	4822	361.134936756256	11
35	4853	365.3	13
35	4866	366.3	9
35	4879	367.40204375558	10
35	4895	368.605541742699	11
35	4910	369.908278900216	12
35	4927	371.217945591398	12
35	4943	372.4209434256	11
35	4957	373.626475607719	11
35	4973	374.83101841074	11
35	4986	375.940633824512	10
35	5013	379.1	11
35	5021	379.8	6
35	5034	380.700590080975	8
35	5042	381.301766716823	5
35	5046	381.50421115588	1
35	5063	382.808478215148	12
35	5072	383.511380837594	6
35	5089	386.2	2
35	5105	387.7	14
35	5122	389.002807070368	12
35	5133	389.909363069431	8
35	5143	390.511933171541	5
35	5156	391.617382487779	10
35	5167	392.32269012258	6
35	5178	393.228721814594	8
35	5185	393.738386708028	4
35	5215	397.2	12
35	5232	398.6	13
35	5246	399.803415307237	11
35	5254	400.206352380322	3
35	5269	401.506803858646	12
35	5275	401.913188356156	3
35	5289	402.916250764235	9
35	5307	404.317855833343	13
35	5319	405.318058895385	9
35	5341	408.4	4
35	5351	409.3	8
35	5370	410.801291500632	14
35	5389	412.309850700827	14
35	5400	413.210338646107	8
35	5425	416.7	7
35	5431	417.2	4
35	5439	417.707673090561	4
35	5451	418.509024378738	7
35	5459	419.011284990814	4
35	5465	419.414987828927	3
35	5476	420.115590039624	6
35	5491	421.326001566137	11
35	5496	421.62621246951	2
35	5509	422.527748946287	8
35	5530	424.235558857398	16
35	5550	428.2	2
35	5559	429	7
35	5579	430.603339039117	15
35	5588	431.312965069484	6
35	5599	432.021579949158	6
35	5610	432.926046576095	8
35	5618	433.531063407182	5
35	5631	434.433635683366	8
35	5642	435.343378214187	8
35	5670	439	10
35	5678	439.7	6
35	5687	440.205546411368	4
35	5697	441.009620378652	7
35	5708	441.913129398234	8
35	5732	443.92089341033	19
35	5742	444.527061145801	5
35	5749	445.03249570148	4
35	5753	445.236861248306	1
35	5761	445.842221899664	5
35	5775	446.848154100608	9
35	5796	450.3	3
35	5804	451	6
35	5809	451.30270520118	2
35	5828	452.811251855459	14
35	5846	454.219053416612	13
35	5860	455.422304601977	11
35	5872	456.226063815479	7
35	5895	460.5	5
35	5904	461.3	7
35	5917	462.205647340551	8
35	5927	463.012688195883	7
35	5941	464.01787080009	9
35	5952	464.923035128263	8
35	5959	465.42418201402	4
35	5972	466.324465839035	8
35	5983	467.233010181937	8
35	5995	468.038352159348	7
35	6005	468.846149170505	7
35	6016	469.755413428853	8
35	6024	470.156366251123	3
35	6031	470.661915749172	4
35	6059	475	10
35	6066	475.6	5
35	6076	476.205023847445	5
35	6086	477.007519813074	7
35	6101	478.115713872421	10
35	6117	479.522601682944	13
35	6128	480.226018738979	6
35	6145	481.731535143474	14
35	6161	482.933800918111	11
35	6183	486.5	5
35	6194	487.5	9
35	6205	488.203649939049	6
35	6215	489.008416809024	7
35	6221	489.410209149852	3
35	6231	490.015773878312	5
35	6245	491.219541636475	11
35	6264	494.1	1
35	6269	494.5	3
35	6277	495.101224928635	5
35	6293	496.308193786066	11
35	6308	497.612563368155	12
35	6313	497.921156024644	2
35	6320	498.226774236413	2
35	6335	499.534917531537	12
35	6360	502.7	7
35	6366	503.2	4
35	6371	503.50956722422	2
35	6391	505.119195719437	15
35	6412	506.820549999201	16
35	6418	507.226305617774	3
35	6425	507.735387084374	4
35	6448	510.5	5
35	6466	512	14
35	6470	512.208511270282	1
35	6484	513.413152209175	11
35	6502	514.818418513014	13
35	6511	515.520317950401	6
35	6520	516.021290026261	4
35	6543	520.5	5
35	6555	521.6	10
35	6559	521.805100219398	1
35	6574	522.911224007812	10
35	6586	523.915492870601	9
35	6598	524.721262962138	7
35	6610	525.721618072096	9
35	6640	529.5	15
35	6653	530.5	9
35	6665	531.502512334154	9
35	6680	532.602805848966	10
35	6689	533.310458004951	6
35	6700	534.016655576917	6
35	6721	538.3	3
35	6725	538.6	2
35	6738	539.700199790787	10
35	6750	540.500360278192	7
35	6763	541.606669356308	10
35	6786	543.507352358328	18
35	6810	545.516236693823	19
35	6850	548.6	6
35	6870	550.3	16
35	6880	551.108804547521	7
35	6889	551.8160308363	6
35	6916	554.9	9
35	6926	555.8	8
35	6937	556.503700417117	6
35	6949	557.513373536022	9
35	6958	558.018581839517	4
35	6979	562.3	3
35	6996	563.9	15
35	7008	564.706216661427	7
35	7012	564.915376153481	1
35	7021	565.621378675175	6
35	7057	569.8	18
35	7072	571	11
35	7086	572.001714241057	9
35	7097	572.905962798285	8
35	7115	574.309680162027	13
35	7126	575.212120526131	8
35	7142	576.421183561594	11
35	7167	581	10
35	7171	581.3	2
35	7183	582.104803014781	7
35	7192	582.805519503731	6
35	7200	583.414950854197	5
35	7206	583.823860922463	3
35	7215	584.325241186688	4
35	7242	588.9	9
35	7246	589.2	2
35	7252	589.604651131327	3
35	7256	589.807799842916	1
35	7262	590.009709777959	1
35	7267	590.31615903193	2
35	7272	590.625710052448	2
35	7277	590.927374529084	2
35	7282	591.233083721683	2
35	7298	592.440094135151	11
35	7312	593.649827390547	11
35	7322	594.254126530714	5
35	7344	598.4	4
35	7350	598.9	4
35	7362	599.900176485753	9
35	7375	600.803198751455	8
35	7385	601.610902916159	7
35	7396	602.316799147418	6
35	7408	603.325344875261	9
35	7414	603.72737196667	3
35	7436	606.6	6
35	7443	607.2	5
35	7452	607.900987788788	6
35	7471	609.404303425373	14
35	7487	610.604655322196	11
35	7509	612.414413282408	17
35	7518	613.123553369578	6
35	7546	617.3	13
35	7557	618.1	7
35	7566	618.803213325138	6
35	7573	619.312671443163	4
35	7584	620.016229703216	6
35	7593	620.720383533017	6
35	7604	621.630185508615	8
35	7616	622.437130469885	7
35	7628	623.442886093214	9
35	7639	624.14877263246	6
35	7653	625.350369435862	11
35	7664	626.052251390431	6
35	7669	626.361965432586	2
35	7698	631.1	11
35	7704	631.6	4
35	7713	632.101729803027	4
35	7733	633.910858089327	17
35	7748	635.012681959487	10
35	7756	635.615256763821	5
35	7760	635.821217362679	1
35	7783	638.5	5
35	7797	639.8	12
35	7803	640.003352535716	1
35	7823	641.807430495668	17
35	7836	642.711248778506	8
35	7845	643.411982042876	6
35	7856	644.116579405386	6
35	7883	648.9	9
35	7894	649.9	9
35	7908	650.907160483826	9
35	7919	651.81218986923	8
35	7934	652.920665200223	10
35	7945	653.829988584314	8
35	7953	654.237333999593	3
35	7980	659.2	12
35	7992	660.1	8
35	8004	661.102328255921	9
35	8017	662.012110266424	8
35	8027	662.816614932032	7
35	8035	663.416735113671	5
35	8047	664.218312089001	7
35	8053	664.619497222118	3
35	8065	665.623456221953	9
35	8080	666.726401061256	10
35	8110	671.2	12
35	8125	672.4	11
35	8135	673.204159128512	7
35	8148	674.10831285264	8
35	8158	674.914708489618	7
35	8167	675.624264893534	6
35	8190	678.5	5
35	8195	678.9	3
35	8206	679.804448017883	8
35	8217	680.505450345035	6
35	8240	682.407796644497	18
35	8269	687.1	11
35	8282	688.1	9
35	8296	689.302110529798	11
35	8311	690.405871895195	10
35	8321	691.213609809719	7
35	8328	691.721261791847	4
35	8344	692.923687228808	11
35	8349	693.223870162168	2
35	8369	694.833460871938	15
35	8377	695.442322492704	5
35	8384	695.947357247932	4
35	8403	698.3	3
35	8410	698.9	5
35	8427	700.206009201107	12
35	8436	700.909309291297	6
35	8443	701.411476439025	4
35	8449	701.811836063376	3
35	8457	702.218047153461	3
35	8472	703.527904606824	12
35	8492	705.136297776668	15
35	8520	709	10
35	8535	710.2	11
35	8546	711.104042560546	8
35	8552	711.513611109861	3
35	8561	712.018484460687	4
35	8566	712.323239298037	2
35	8574	712.930060958119	5
35	8583	713.635832892245	6
35	8595	714.436492333464	7
35	8600	714.746062641046	2
35	8605	715.049502328229	2
35	8610	715.359172995562	2
35	8615	715.665748303701	2
35	8636	718.4	4
35	8644	719.1	6
35	8658	720.108997433923	9
35	8663	720.411933053123	2
35	8670	720.919445601302	4
35	8678	721.520168432393	5
35	8687	722.024549347618	4
35	8704	723.530506273516	14
35	8735	727.3	13
35	8739	727.6	2
35	8760	729.30887011338	16
35	8777	730.613588064075	12
35	8784	731.116544350524	4
35	8791	731.622773794481	4
35	8795	731.830754220418	1
35	8818	734.5	5
35	8823	734.9	3
35	8833	735.703082518	7
35	8844	736.405724166154	6
35	8853	737.107018716737	6
35	8861	737.711017197124	5
35	8872	738.411615003315	6
35	8899	743.2	12
35	8910	744	7
35	8922	745.001626072833	9
35	8928	745.405933238712	3
35	8938	746.014182169951	5
35	8943	746.318758240611	2
35	8952	747.025452867663	6
35	8967	748.130782428582	10
35	8978	749.034709756141	8
35	8989	749.9424019105	8
35	9015	752.8	8
35	9020	753.2	3
35	9028	753.809330810236	5
35	9035	754.115615632233	2
35	9043	754.720403459052	5
35	9054	755.628370718665	8
35	9059	755.932960854058	2
35	9070	756.640403190771	6
35	9095	760.7	7
35	9099	761	2
35	9114	762.101494104594	10
35	9129	763.410410660483	12
35	9155	765.616768669335	21
35	9181	768.8	8
35	9190	769.6	7
35	9202	770.401063954348	7
35	9225	772.302248144247	18
35	9236	773.205332325901	8
35	9244	773.815279443835	5
35	9254	774.422798948539	5
35	9277	778.5	5
35	9287	779.4	8
35	9300	780.301995095645	8
35	9312	781.304774898348	9
35	9327	782.408130606249	10
35	9332	782.712714173678	2
35	9345	783.816430605541	10
35	9364	785.317750989455	14
35	9375	786.023615355438	6
35	9398	790.5	5
35	9408	791.4	8
35	9421	792.308405320208	8
35	9439	793.916640774348	15
35	9455	795.122361602693	11
35	9463	795.730389782994	5
35	9472	796.231488162342	4
35	9480	796.841312632602	5
35	9487	797.349820608165	4
35	9493	797.752293562834	3
35	9500	798.055020925363	2
35	9529	803.1	11
35	9541	804	8
35	9551	804.714863102938	6
35	9562	805.615575800448	8
35	9567	805.923376550153	2
35	9574	806.232597073111	2
35	9579	806.532815903513	2
35	9588	807.237314637777	6
35	9601	808.1383484776	8
35	9610	808.84552420768	6
35	9637	812.9	9
35	9648	813.9	9
35	9661	814.809529042225	8
35	9671	815.613969951509	7
35	9685	816.618649547448	9
35	9696	817.525574424356	8
35	9712	818.731291490123	11
35	9725	819.831483561373	10
35	9740	820.938037482285	10
35	9751	821.840856849138	8
35	9764	822.741658796345	8
35	9774	823.548785742058	7
35	9809	827.7	17
35	9821	828.6	8
35	9834	829.703067288901	10
35	9845	830.406009203809	6
35	9858	831.512593653778	10
35	9864	831.918271305866	3
35	9876	832.722532857942	7
35	9896	836.5	5
35	9905	837.3	7
35	9912	837.809930150776	4
35	9928	839.017296625784	11
35	9945	840.326793905758	12
35	9959	841.53024488939	11
35	9972	842.438511496396	8
35	10004	847.7	17
35	10007	847.9	1
35	10027	849.500896227683	15
35	10042	850.609753137284	10
35	10061	852.111926223977	14
35	10077	853.515088819662	13
35	10093	854.719759015141	11
35	10099	855.127092882618	3
35	10125	858.8	8
35	10128	859	1
35	10143	860.105845334271	10
35	10157	861.315079096522	11
35	10174	862.622066965313	12
35	10192	864.02236027942	13
35	10207	865.327519521249	12
35	10214	865.833767416033	4
35	10236	868.6	6
35	10244	869.3	6
35	10255	870.001072851915	6
35	10263	870.608731241174	5
35	10271	871.214415098437	5
35	10277	871.620248078574	3
35	10294	872.924016263362	12
35	10302	873.530591914596	5
35	10318	874.731291195443	11
35	10344	878.8	8
35	10359	880	11
35	10366	880.50154029651	4
35	10386	882.106878171713	15
35	10404	883.715065008372	15
35	10423	885.221163836666	14
35	10432	885.931058836711	6
35	10442	886.540287494448	5
35	10455	887.641825280245	10
35	10467	888.450094023302	7
35	10497	893.2	12
35	10512	894.4	11
35	10526	895.605456254435	11
35	10534	896.006208078522	3
35	10548	897.214982233544	11
35	10565	898.517397946981	12
35	10577	899.43541395621	8
35	10607	903.2	12
35	10615	903.9	6
35	10629	904.905755057525	9
35	10645	906.113949510298	11
35	10656	907.021382450006	8
35	10666	907.823771191834	7
35	10673	908.131733208572	2
35	10679	908.533583424529	3
35	10688	909.239749428629	6
35	10697	909.942580148187	6
35	10707	910.545312496365	5
35	10718	911.447104009387	8
35	10730	912.159622900268	6
35	10741	913.065630282583	8
35	10773	917.4	14
35	10785	918.3	8
35	10793	918.901137689866	5
35	10798	919.20386540651	2
35	10817	920.712797104559	14
35	10848	925.3	13
35	10862	926.4	10
35	10879	927.905270265531	14
35	10894	929.005555560001	10
35	10900	929.408865029582	3
35	10917	930.710770066774	12
35	10929	931.711320302893	9
35	10952	934.5	5
35	10963	935.5	9
35	10968	935.805062818906	2
35	10983	936.909190115813	10
35	10989	937.221737887221	2
35	10993	937.425273506729	1
35	11003	938.031393002834	5
35	11023	942.2	2
35	11033	943.1	8
35	11040	943.604781596029	4
35	11044	943.809928457901	1
35	11051	944.118361959921	2
35	11062	945.021400246357	8
35	11070	945.626404461637	5
35	11083	946.529921163832	8
35	11098	947.831418338431	12
35	11124	950.8	8
35	11132	951.5	6
35	11147	952.607391584038	10
35	11155	953.209960190746	5
35	11162	953.717434254311	4
35	11171	954.21743482736	4
35	11182	955.120222806626	8
35	11189	955.62417282853	4
35	11207	957.029520670303	13
35	11260	960.4	4
35	11271	961.1	6
35	11275	961.300889552312	1
35	11291	962.506545811967	11
35	11307	963.909965684284	13
35	11325	965.317936250481	13
35	11338	966.225439359175	8
35	11349	967.13223760063	8
35	11362	968.034335364964	8
35	11376	969.242716646531	11
35	11390	970.243355290781	9
35	11402	971.15551768862	8
35	11416	972.159610878606	9
35	11442	976.9	9
35	11453	977.9	9
35	11467	978.908952661566	9
35	11476	979.613090017714	6
35	11487	980.313378888311	6
35	11498	981.220777579954	8
35	11512	982.222825511131	9
35	11526	983.428166566757	11
35	11542	984.636750191445	11
35	11565	988.5	5
35	11570	988.9	3
35	11575	989.205826407452	2
35	11584	989.909563198634	6
35	11595	990.614354236993	6
35	11616	992.315031520967	16
35	11625	993.018430412991	6
35	11655	997.2	12
35	11660	997.6	3
35	11679	999.101185965428	14
35	11695	1000.308912442556	11
35	11705	1001.109415990522	7
35	11719	1002.114972001358	9
35	11724	1002.419738208273	2
35	11735	1003.327302277431	8
35	11755	1004.93619059324	15
35	11766	1005.836666713507	8
35	11773	1006.139541453017	2
35	11806	1011.5	15
35	11820	1012.6	10
35	11829	1013.308409789167	6
35	11837	1013.912483859462	5
35	11847	1014.514777569628	5
35	11858	1015.422337025663	8
35	11871	1016.327975408763	8
35	11895	1020.6	6
35	11899	1020.9	2
35	11918	1022.406711288755	14
35	11940	1024.210004598525	17
35	11944	1024.417156249881	1
35	11950	1024.818166197871	3
35	11980	1029.2	12
35	11986	1029.7	4
35	11999	1030.608251029253	8
35	12013	1031.814137672185	11
35	12020	1032.118317135541	2
35	12027	1032.626716911395	4
35	12046	1034.126898093545	14
35	12067	1038.3	3
35	12078	1039.3	9
35	12085	1039.801913728555	4
35	12097	1040.604792939859	7
35	12110	1041.70947682208	10
35	12124	1042.714295344474	9
35	12142	1044.123668307613	13
35	12154	1045.126308610867	9
35	12163	1045.826439147076	6
35	12176	1046.736375571939	8
35	12194	1050.2	2
35	12207	1051.4	11
35	12224	1052.705547066505	12
35	12233	1053.406566503645	6
35	12248	1054.506741838062	10
35	12254	1054.916288036294	3
35	12263	1055.621312114635	6
35	12275	1056.424380212902	7
35	12299	1060.6	6
35	12309	1061.5	8
35	12315	1061.900541052445	3
35	12325	1062.508425228264	5
35	12336	1063.413017340888	8
35	12350	1064.417329273231	9
35	12356	1064.824805250086	3
35	12366	1065.630617717145	7
35	12392	1068.8	8
35	12397	1069.2	3
35	12414	1070.500774303055	12
35	12423	1071.206235741083	6
35	12431	1071.812218548184	5
35	12441	1072.415888729627	5
35	12464	1076.5	5
35	12471	1077.1	5
35	12488	1078.407794483231	12
35	12502	1079.61636152312	11
35	12514	1080.425799278117	7
35	12525	1081.332151121942	8
35	12536	1082.038014704836	6
35	12548	1083.042434475211	9
35	12552	1083.24481878446	1
35	12576	1086.6	6
35	12580	1086.9	2
35	12599	1088.400182642338	14
35	12611	1089.407528493727	9
35	12617	1089.814568910565	3
35	12627	1090.416242210246	5
35	12637	1091.224670805596	7
35	12651	1092.231437716679	9
35	12662	1093.140133859579	8
35	12675	1094.046287340313	8
35	12683	1094.648695569101	5
35	12697	1095.857272281057	11
35	12706	1096.366107817587	4
35	12725	1100.1	1
35	12738	1101.3	11
35	12746	1101.906023930087	5
35	12758	1102.706989048455	7
35	12763	1103.013567438429	2
35	12774	1103.918073075272	8
35	12787	1104.822979299256	8
35	12794	1105.326467464589	4
35	12799	1105.628082673798	2
35	12804	1105.937950581246	2
35	12812	1106.341819261122	3
35	12822	1107.148040042594	7
35	12844	1110.4	4
35	12864	1112.1	16
35	12869	1112.4017452293	2
35	12880	1113.303655300868	8
35	12894	1114.304776619192	9
35	12905	1115.211659903238	8
35	12910	1115.513849223195	2
35	12943	1119.5	15
35	12959	1120.8	12
35	12970	1121.70460749017	8
35	12978	1122.108406799271	3
35	12989	1123.016786213289	8
35	13013	1126.6	6
35	13018	1127	3
35	13024	1127.403920734687	3
35	13029	1127.71064840491	2
35	13037	1128.112492027867	3
35	13049	1129.120154524762	9
35	13062	1130.026230808256	8
35	13080	1134.3	3
35	13092	1135.4	10
35	13098	1135.807834865613	3
35	13117	1137.31398395324	14
35	13123	1137.719084888597	3
35	13135	1138.523825838887	7
35	13144	1139.233421526232	6
35	13152	1139.836808661806	5
35	13176	1142.6	6
35	13184	1143.3	6
35	13191	1143.80879672229	4
35	13200	1144.309543330431	4
35	13211	1145.214709259943	8
35	13220	1145.918673708104	6
35	13233	1146.819122579093	8
35	13240	1147.31915169314	4
35	13248	1147.921451547574	5
35	13259	1148.629773637978	6
35	13280	1152.5	5
35	13288	1153.2	6
35	13295	1153.700756020499	4
35	13299	1153.910069704937	1
35	13306	1154.218086571019	2
35	13311	1154.519411754082	2
35	13320	1155.226582662418	6
35	13335	1156.330378732158	10
35	13355	1160.2	2
35	13361	1160.7	4
35	13369	1161.211128768019	4
35	13373	1161.41667468113	1
35	13390	1162.723578736131	12
35	13413	1166.5	5
35	13416	1166.7	1
35	13420	1166.909285485083	1
35	13427	1167.410632756126	4
35	13433	1167.815311887456	3
35	13453	1169.417614600286	15
35	13459	1169.818605305533	3
35	13471	1170.619988653482	7
35	13495	1174.6	6
35	13508	1175.8	11
35	13523	1176.902594384907	10
35	13529	1177.310380773874	3
35	13559	1181.2	12
35	13565	1181.7	4
35	13578	1182.60658622774	8
35	13585	1183.110831771452	4
35	13601	1184.316157026559	11
35	13606	1184.616764711968	2
35	13617	1185.51830451786	8
35	13641	1188.9	9
35	13650	1189.7	7
35	13658	1190.100880793032	3
35	13667	1190.809030090632	6
35	13678	1191.712206660905	8
35	13687	1192.217677679557	4
35	13699	1193.227311164242	9
35	13712	1194.13421388896	8
35	13719	1194.634675726555	4
35	13746	1198.9	9
35	13752	1199.4	4
35	13765	1200.302431840146	8
35	13778	1201.406906443505	10
35	13794	1202.610821646381	11
35	13799	1202.916813140675	2
35	13807	1203.520389184344	5
35	13817	1204.128523685228	5
35	13826	1204.836561697212	6
35	13831	1205.14008677782	2
35	13855	1208.6	6
35	13863	1209.3	6
35	13871	1209.908785207415	5
35	13881	1210.513521165644	5
35	13901	1212.122822624595	15
35	13909	1212.729194783418	5
35	13918	1213.437068197644	6
35	13930	1214.139533289868	6
35	13938	1214.749229837252	5
35	13949	1215.652904499381	8
35	13969	1218.2	2
35	13986	1219.8	15
35	13995	1220.303343728764	4
35	14011	1221.712476771785	13
35	14028	1223.020088854088	12
35	14048	1224.629125429196	15
35	14066	1226.030663051109	13
35	14076	1226.833174521259	7
35	14092	1228.041017463292	11
35	14108	1229.448427460893	13
35	14121	1230.348737538935	8
35	14129	1230.958471152284	5
35	14146	1232.259673949098	12
35	14157	1233.16525170885	8
35	14210	1236.7	7
35	14215	1237.1	3
35	14228	1238.002791237903	8
35	14239	1238.907805820735	8
35	14247	1239.510243194644	5
35	14257	1240.119308603546	5
35	14268	1241.022532628793	8
35	14279	1241.924542905236	8
35	14287	1242.324643788637	3
35	14297	1243.129910455256	7
35	14322	1246.7	7
35	14339	1248.1	13
35	14347	1248.709697425779	5
35	14360	1249.813267056393	10
35	14376	1251.019611375618	11
35	14391	1252.120619970143	10
35	14420	1257.1	11
35	14427	1257.7	5
35	14434	1258.001394463677	2
35	14444	1258.806532752357	7
35	14449	1259.113816108069	2
35	14458	1259.81675121682	6
35	14473	1260.925326807422	10
35	14493	1262.535062369012	15
35	14508	1263.84294596745	12
35	14539	1267.3	13
35	14544	1267.7	3
35	14555	1268.403860395515	6
35	14560	1268.706145272945	2
35	14568	1269.30644501366	5
35	14581	1270.212368507876	8
35	14606	1274.7	7
35	14617	1275.507299019306	7
35	14630	1276.415853528033	8
35	14635	1276.719242967373	2
35	14647	1277.624977173487	8
35	14661	1278.62557414521	9
35	14671	1279.433443523834	7
35	14683	1280.238958414383	7
35	14687	1280.439625798391	1
35	14695	1281.046906066771	5
35	14709	1282.053563277259	9
35	14720	1282.95977960405	8
35	14742	1286.6	6
35	14750	1287.3	6
35	14761	1288.003573636172	6
35	14768	1288.513043444323	4
35	14783	1289.813099293146	12
35	14803	1291.422643177218	15
35	14824	1293.122695153087	16
35	14841	1294.429166951113	12
35	14847	1294.830542237761	3
35	14867	1296.440404286209	15
35	14881	1297.650330921133	11
35	14891	1298.256528043743	5
35	14913	1302.4	4
35	14918	1302.8	3
35	14925	1303.304962007424	4
35	14940	1304.405680948772	10
35	14951	1305.312182319207	8
35	14959	1305.918360610525	5
35	14970	1306.625102972222	6
35	14982	1307.633133187835	9
35	14990	1308.033570445536	3
35	15003	1309.138356859846	10
35	15028	1312.7	7
35	15035	1313.3	5
35	15043	1313.903872170588	5
35	15056	1314.808896366232	8
35	15072	1316.013646787526	11
35	15081	1316.71489854509	6
35	15095	1317.921537290932	11
35	15102	1318.230941626906	2
35	15117	1319.533696642645	12
35	15138	1322.3	3
35	15149	1323.3	9
35	15160	1324.002042279022	6
35	15165	1324.311148223003	2
35	15178	1325.413535668225	10
35	15188	1326.015268881278	5
35	15198	1326.817979492048	7
35	15226	1331	10
35	15239	1332	9
35	15253	1333.207770252935	11
35	15262	1333.913764389748	6
35	15276	1334.917743656541	9
35	15291	1336.020523780604	10
35	15299	1336.620653304796	5
35	15321	1340.7	7
35	15332	1341.7	9
35	15339	1342.002137556928	2
35	15346	1342.505486448344	4
35	15356	1343.311922931163	7
35	15363	1343.813413148857	4
35	15376	1344.71492938684	8
35	15401	1348.7	7
35	15410	1349.5	7
35	15433	1351.409724816964	18
35	15448	1352.515245483913	10
35	15473	1356.7	7
35	15483	1357.6	8
35	15492	1358.108411563329	4
35	15505	1359.216039778761	10
35	15518	1360.117296652967	8
35	15537	1361.823000543125	16
35	15556	1363.323792464887	14
35	15567	1364.030562882789	6
35	15573	1364.437242520623	3
35	15582	1365.137707099336	6
35	15608	1368.8	8
35	15620	1369.9	10
35	15639	1371.409714237109	14
35	15659	1373.018108472109	15
35	15667	1373.627543868682	5
35	15686	1375.134773294353	14
35	15706	1376.734786102664	15
35	15716	1377.536406371343	7
35	15739	1380.5	5
35	15750	1381.5	9
35	15775	1383.609702498158	20
35	15791	1384.817454354457	11
35	15798	1385.322349980963	4
35	15823	1388.7	7
35	15830	1389.3	5
35	15844	1390.305300902957	9
35	15851	1390.811475986344	4
35	15858	1391.315553295313	4
35	15866	1391.922927565456	5
35	15897	1395.3	13
35	15904	1395.9	5
35	15920	1397.107620865686	11
35	15929	1397.807930232931	6
35	15937	1398.215107605279	3
35	15944	1398.722801500755	4
35	15948	1398.927366860167	1
35	15958	1399.729918007066	7
35	15977	1401.233415153184	14
35	15981	1401.434903531013	1
35	15999	1402.750415751534	12
35	16022	1406.5	5
35	16042	1408.2	16
35	16051	1408.905820681222	6
35	16062	1409.811186555307	8
35	16074	1410.616805428368	7
35	16082	1411.22518552617	5
35	16102	1412.829738294049	15
35	16124	1414.635163594779	17
35	16145	1416.336406332344	16
35	16160	1417.641605203525	12
35	16174	1418.651077820347	9
35	16188	1419.853566005546	11
35	16241	1422.6	6
35	16252	1423.1	4
35	16266	1423.608417582416	4
35	16288	1424.418233993369	7
35	16298	1424.824169481509	3
35	16312	1425.328847033689	4
35	16318	1425.530476289426	1
35	16358	1428.2	2
35	16367	1429	7