file 268767 1369674127                                          
version 2
run Join-84-20130429-12:56:16-17679
attr configname Join
attr datetime 20130429-12:56:16
attr experiment "\"Join\""
attr inifile omnetpp.ini
attr iterationvars $0=8192
attr iterationvars2 "$0=8192, $repetition=4"
attr measurement $0=8192
attr network Network
attr processid 17679
attr repetition 4
attr replication #4
attr resultdir results
attr runnumber 84
attr seedset 84
vector 84  Network.dyn_peer[0]  lookupHopsSig:vector  ETV
84	444 268323 22210 500571 22.415173386541 38318.66453777489 9251 1 168 344114 17401136
