file 234652 1367232650                                          
version 2
run Join-49-20130429-12:50:47-17679
attr configname Join
attr datetime 20130429-12:50:47
attr experiment "\"Join\""
attr inifile omnetpp.ini
attr iterationvars $0=512
attr iterationvars2 "$0=512, $repetition=9"
attr measurement $0=512
attr network Network
attr processid 17679
attr repetition 9
attr replication #9
attr resultdir results
attr runnumber 49
attr seedset 49
vector 49  Network.dyn_peer[0]  lookupHopsSig:vector  ETV
49	441 234211 1689 135588 20.4 12334.517441408925 8636 0 39 84935 1062129
