file 224681 1367232618                                          
version 2
run Join-37-20130429-12:50:16-17679
attr configname Join
attr datetime 20130429-12:50:16
attr experiment "\"Join\""
attr inifile omnetpp.ini
attr iterationvars $0=256
attr iterationvars2 "$0=256, $repetition=7"
attr measurement $0=256
attr network Network
attr processid 17679
attr repetition 7
attr replication #7
attr resultdir results
attr runnumber 37
attr seedset 37
vector 37  Network.dyn_peer[0]  lookupHopsSig:vector  ETV
37	441 224240 927 106204 20 9805.120182076532 8494 0 23 59913 546361
