version 2
run Join-38-20130429-12:50:18-17679
attr configname Join
attr datetime 20130429-12:50:18
attr experiment "\"Join\""
attr inifile omnetpp.ini
attr iterationvars $0=256
attr iterationvars2 "$0=256, $repetition=8"
attr measurement $0=256
attr network Network
attr processid 17679
attr repetition 8
attr replication #8
attr resultdir results
attr runnumber 38
attr seedset 38

vector 38  Network.dyn_peer[0]  lookupHopsSig:vector  ETV
38	951	20.1	1
38	963	21.2	10
38	970	21.708234366844	4
38	981	22.41158810907	6
38	993	23.414054322777	9
38	998	23.721671892601	2
38	1005	24.026335848447	2
38	1014	24.732650043794	6
38	1027	25.835745186772	10
38	1039	26.637597824939	7
38	1086	32.7	27
38	1091	33.1	3
38	1108	34.400021015419	12
38	1130	36.200346894708	17
38	1139	36.90314355811	6
38	1162	40.5	5
38	1167	40.9	3
38	1173	41.304123438468	3
38	1181	41.905929719604	5
38	1192	42.610330359226	6
38	1200	43.217603104638	5
38	1212	44.022199676644	7
38	1220	44.628182063088	5
38	1228	45.23572662833	5
38	1248	48.2	2
38	1256	48.9	6
38	1265	49.608238529805	6
38	1269	49.815254565013	1
38	1299	52.215300639312	23
38	1314	53.524510840511	12
38	1332	54.933108405364	13
38	1357	58.7	7
38	1374	60.1	13
38	1381	60.602138557343	4
38	1391	61.41041085045	7
38	1398	61.915052475038	4
38	1408	62.52437211053	5
38	1436	64.928323613151	23
38	1467	69.3	13
38	1472	69.7	3
38	1486	70.70976895903	9
38	1500	71.915202150286	11
38	1511	72.617501447758	6
38	1521	73.419219333583	7
38	1528	73.926293727827	4
38	1539	74.630849434592	6
38	1549	75.439718732136	7
38	1562	76.346920329116	8
38	1584	80.4	4
38	1589	80.8	3
38	1597	81.409875480865	5
38	1609	82.213029731518	7
38	1618	82.921093333425	6
38	1623	83.224167827405	2
38	1628	83.525809150563	2
38	1639	84.233482518351	6
38	1647	84.840226738812	5
38	1654	85.345860756484	4
38	1660	85.755421616385	3
38	1669	86.26402170756	4
38	1678	86.878744788466	5
38	1688	87.683740755673	7
38	1730	92.3	23
38	1741	93.3	9
38	1746	93.604397239414	2
38	1760	94.609907664297	9
38	1767	95.118917840932	4
38	1777	95.927937442458	7
38	1789	96.730521265149	7
38	1796	97.237694526938	4
38	1817	98.945665386399	16
38	1839	102.4	4
38	1844	102.8	3
38	1849	103.100419680639	2
38	1863	104.101791527718	9
38	1870	104.604749663604	4
38	1874	104.811713842809	1
38	1887	105.917795762171	10
38	1915	109	10
38	1921	109.5	4
38	1940	111.005528866411	14
38	1957	112.305752370497	12
38	1966	113.008354086819	6
38	1971	113.314289725284	2
38	1984	114.21542548891	8
38	2000	115.623509342671	13
38	2013	116.529960767774	8
38	2027	117.731858464435	11
38	2044	119.038003095423	12
38	2055	119.939392222556	8
38	2065	120.541501362059	5
38	2076	121.444977022142	8
38	2098	124.5	5
38	2111	125.7	11
38	2119	126.016114561072	2
38	2126	126.41706238566	3
38	2132	126.817799610772	3
38	2141	127.523578560379	6
38	2151	128.033156352755	4
38	2155	128.241759928536	1
38	2160	128.548258932134	2
38	2180	130.156099610583	15
38	2213	135.5	15
38	2225	136.4	8
38	2231	136.80519462086	3
38	2247	138.014645011564	11
38	2256	138.71477838958	6
38	2262	139.118668488092	3
38	2269	139.626088492241	4
38	2274	139.92904205771	2
38	2282	140.336659641895	3
38	2306	144.6	6
38	2319	145.8	11
38	2335	147.001735478609	11
38	2355	148.606877730942	15
38	2363	149.208912575628	5
38	2379	150.412251982939	11
38	2395	151.819127617116	13
38	2406	152.527995228418	6
38	2415	153.233212664786	6
38	2423	153.833413161139	5
38	2455	157.4	14
38	2468	158.4	9
38	2485	159.907758879947	14
38	2500	161.013681571627	10
38	2508	161.618452443388	5
38	2521	162.520294331771	8
38	2536	163.820881809052	12
38	2552	165.027057177817	11
38	2561	165.73323504293	6
38	2565	165.939824805177	1
38	2586	168.3	3
38	2601	169.7	13
38	2610	170.205940507794	4
38	2618	170.811581436394	5
38	2628	171.616769675878	7
38	2638	172.217747081057	5
38	2645	172.723002379271	4
38	2652	173.231684842728	4
38	2658	173.641080108577	3
38	2679	176.3	3
38	2694	177.7	13
38	2712	179.101573051991	13
38	2718	179.50694347977	3
38	2734	180.713848134787	11
38	2748	181.915994771886	11
38	2758	182.519048787704	5
38	2780	186.4	4
38	2784	186.7	2
38	2791	187.204380493273	4
38	2799	187.805849930773	5
38	2809	188.409205298094	5
38	2815	188.812837653868	3
38	2834	190.315515045467	14
38	2842	190.916299232464	5
38	2847	191.217371159876	2
38	2862	192.319678027471	10
38	2894	197.4	14
38	2906	198.3	8
38	2912	198.702615204225	3
38	2918	199.103544914906	3
38	2923	199.413438996185	2
38	2928	199.714654154648	2
38	2936	200.115440285434	3
38	2947	201.020214498818	8
38	2958	201.930022367378	8
38	2988	205.2	12
38	2992	205.5	2
38	2998	205.905721720152	3
38	3009	206.608861660424	6
38	3017	207.21700719647	5
38	3031	208.224432453982	9
38	3037	208.634252477026	3
38	3047	209.43444929526	7
38	3059	210.236455883796	7
38	3073	211.438160133615	11
38	3090	212.744680089684	12
38	3102	213.747454868188	9
38	3143	218.2	22
38	3151	218.9	6
38	3160	219.604729700069	6
38	3170	220.204831183214	5
38	3179	220.909886597126	6
38	3187	221.513185698116	5
38	3198	222.222483852837	6
38	3223	227	10
38	3237	228.1	10
38	3248	229.009754620054	8
38	3263	230.112894631341	10
38	3272	230.813996383115	6
38	3279	231.318762456563	4
38	3294	232.425144471028	10
38	3304	233.228713812113	7
38	3316	234.029581539949	7
38	3353	239.9	19
38	3371	241.4	14
38	3386	242.501679694624	10
38	3399	243.609285150835	10
38	3418	245.11559724283	14
38	3432	246.117207800206	9
38	3443	247.019699103885	8
38	3461	248.420650392783	13
38	3476	249.726984779302	12
38	3494	251.136456734587	13
38	3526	254.3	3
38	3531	254.7	3
38	3540	255.400133653311	6
38	3546	255.800959538454	3
38	3556	256.403742907393	5
38	3565	257.110333736959	6
38	3572	257.61747686324	4
38	3581	258.123922743655	4
38	3591	258.925565022623	7
38	3601	259.733958137584	7
38	3610	260.241408336464	4
38	3617	260.750211121755	4
38	3623	261.15413263802	3
38	3630	261.658635198232	4
38	3650	264.2	2
38	3660	265.1	8
38	3666	265.502019244262	3
38	3681	266.61067611423	10
38	3690	267.313730067854	6
38	3703	268.218510227078	8
38	3712	268.919246121272	6
38	3723	269.824757062422	8
38	3737	270.832299328671	9
38	3745	271.441738052285	5
38	3776	275.3	13
38	3786	276	6
38	3792	276.406549087474	3
38	3802	277.216478120025	7
38	3818	278.421390122998	11
38	3864	282.4	4
38	3870	282.9	4
38	3880	283.702563584228	7
38	3895	284.803903691733	10
38	3916	288.3	3
38	3922	288.8	4
38	3932	289.602609142828	7
38	3945	290.510311247223	8
38	3955	291.317272264087	7
38	3983	295	10
38	3993	295.9	8
38	4003	296.509690570372	5
38	4023	298.115401291359	15
38	4039	299.522708409801	13
38	4057	300.923604110074	13
38	4078	302.626909634901	16
38	4087	303.333954722666	6
38	4108	305.035099602321	16
38	4130	308.6	6
38	4137	309.2	5
38	4145	309.80397818078	5
38	4154	310.312201762617	4
38	4162	310.913721696667	5
38	4173	311.820200874703	8
38	4185	312.624378054819	7
38	4198	313.73043985855	10
38	4208	314.337928926625	5
38	4233	318.7	7
38	4244	319.7	9
38	4255	320.403174622752	6
38	4267	321.411460052045	9
38	4274	321.912600389845	4
38	4283	322.416971858802	4
38	4296	323.520009165119	10
38	4322	326.8	8
38	4327	327.2	3
38	4336	327.908899716278	6
38	4347	328.61418774329	6
38	4384	333.9	19
38	4394	334.6	6
38	4407	335.70098819449	10
38	4418	336.408057762069	6
38	4428	337.216263894339	7
38	4437	337.923346981129	6
38	4449	338.733175165466	7
38	4457	339.339164132228	5
38	4465	339.93926492072	5
38	4478	340.847339610397	8
38	4500	344.4	4
38	4505	344.8	3
38	4511	345.207408179286	3
38	4526	346.316407991798	10
38	4547	348.020861713589	16
38	4553	348.423267845819	3
38	4562	349.12339818005	6
38	4580	350.527200299154	13
38	4601	354.3	3
38	4612	355.3	9
38	4627	356.400611925192	10
38	4635	357.000698149161	5
38	4644	357.70225647135	6
38	4657	358.611857881872	8
38	4694	363.9	19
38	4705	364.7	7
38	4710	365.00922711421	2
38	4714	365.214732354406	1
38	4720	365.620767389004	3
38	4729	366.130696877885	4
38	4742	367.239691711546	10
38	4747	367.543501024453	2
38	4759	368.348425140843	7
38	4773	369.557264311587	11
38	4790	370.859757836673	12
38	4798	371.466473674529	5
38	4826	375	10
38	4833	375.6	5
38	4847	376.600607600072	9
38	4853	377.001165090964	3
38	4859	377.401522578712	3
38	4873	378.404131838801	9
38	4904	383.3	13
38	4915	384.1	7
38	4926	385.00446043668	8
38	4936	385.814408131355	7
38	4951	386.923930030559	10
38	4963	387.928065782092	9
38	4978	389.031300510401	10
38	4995	390.332379278056	12
38	5007	391.339171989883	9
38	5020	392.240183808048	8
38	5034	393.448893707712	11
38	5048	394.455526051165	9
38	5070	398.4	4
38	5081	399.4	9
38	5096	400.507771909583	10
38	5106	401.309893480883	7
38	5120	402.310631389591	9
38	5132	403.317710334054	9
38	5147	404.425869826046	10
38	5176	409.4	14
38	5186	410.1	6
38	5198	411.107533461451	9
38	5208	411.909468314668	7
38	5227	413.416925427545	14
38	5234	413.925574525016	4
38	5250	415.130592015971	11
38	5267	416.433611480832	12
38	5289	418.242857555298	17
38	5312	422.5	5
38	5327	423.9	13
38	5335	424.306048484113	3
38	5340	424.614848413873	2
38	5362	426.418318680557	17
38	5387	430.7	7
38	5392	431.1	3
38	5398	431.509836737343	3
38	5415	432.811231133357	12
38	5419	433.020839562394	1
38	5434	434.123662334453	10
38	5443	434.828968482108	6
38	5448	435.129800651389	2
38	5455	435.630428326375	4
38	5466	436.331857188712	6
38	5498	441.4	14
38	5515	442.8	13
38	5535	444.408240939378	15
38	5542	444.914362185638	4
38	5550	445.516510324753	5
38	5566	446.725360068732	11
38	5572	447.135349479205	3
38	5613	452.1	21
38	5623	453	8
38	5633	453.800350503833	7
38	5646	454.70561860542	8
38	5654	455.314955253977	5
38	5660	455.716139272976	3
38	5670	456.319368079209	5
38	5679	457.023743527615	6
38	5693	458.033458691208	9
38	5705	459.036510547754	9
38	5725	462.3	3
38	5732	462.9	5
38	5742	463.703606959478	7
38	5755	464.611817988722	8
38	5763	465.217485463052	5
38	5780	466.436736936746	11
38	5792	467.439265128131	9
38	5812	469.047992914916	15
38	5818	469.45282036936	3
38	5832	470.45985359635	9
38	5848	471.862014898367	13
38	5861	472.763596636667	8
38	5879	474.169910889826	13
38	5885	474.576012026007	3
38	5897	475.580934963566	9
38	5909	476.384940409592	7
38	5919	477.189393106972	7
38	5927	477.793490699662	5
38	5940	478.700621600232	8
38	5967	483	10
38	5984	484.4	13
38	6000	485.806400901591	13
38	6011	486.514210653646	6
38	6021	487.315496262473	7
38	6033	488.115653534061	7
38	6046	489.219044877029	10
38	6059	490.128890735832	8
38	6070	491.033137888136	8
38	6081	491.938936991948	8
38	6102	494.3	3
38	6112	495.2	8
38	6127	496.308541521022	10
38	6143	497.715554013056	13
38	6151	498.121206473826	3
38	6175	502.6	6
38	6181	503.1	4
38	6196	504.207117572694	10
38	6202	504.614037543697	3
38	6210	505.216471046673	5
38	6215	505.524207316134	2
38	6227	506.33130976645	7
38	6234	506.839561748907	4
38	6244	507.645862256406	7
38	6266	510.5	5
38	6277	511.5	9
38	6289	512.301241455774	7
38	6305	513.703393101053	13
38	6323	515.105552739457	13
38	6328	515.408655353703	2
38	6346	516.816095416429	13
38	6357	517.72411292544	8
38	6378	519.430099790281	16
38	6402	522.7	7
38	6411	523.5	7
38	6424	524.409423192557	8
38	6434	525.214822595004	7
38	6448	526.220203815178	9
38	6459	527.126237228532	8
38	6476	528.429410736316	12
38	6486	529.232795662909	7
38	6500	530.23996970404	9
38	6512	531.244137181502	9
38	6538	535	10
38	6554	536.3	12
38	6570	537.702619114327	13
38	6589	539.212446563269	14
38	6605	540.414090317307	11
38	6620	541.715803491758	12
38	6636	542.917819692679	11
38	6658	546.7	7
38	6664	547.2	4
38	6677	548.108065020816	8
38	6688	549.013850361359	8
38	6702	550.014749780545	9
38	6714	551.015904789435	9
38	6731	552.324852700753	12
38	6742	553.227445279409	8
38	6763	554.935893533393	16
38	6771	555.542153628727	5
38	6812	560.1	21
38	6823	561.1	9
38	6829	561.509489221498	3
38	6847	562.914035703038	13
38	6863	564.121678739177	11
38	6876	565.23000499904	10
38	6885	565.934897929142	6
38	6894	566.438370559351	4
38	6907	567.544264516723	10
38	6916	568.046274361225	4
38	6922	568.454762084492	3
38	6949	572.9	9
38	6955	573.4	4
38	6961	573.805850199218	3
38	6974	574.706716172393	8
38	6980	575.109710774135	3
38	6987	575.611005941691	4
38	6992	575.913183180269	2
38	7019	579.2	12
38	7024	579.6	3
38	7035	580.300457187008	6
38	7046	581.203559425861	8
38	7053	581.71248291337	4
38	7070	583.017414634584	12
38	7076	583.425773960356	3
38	7083	583.935402984674	4
38	7099	585.14002471444	11
38	7125	588.8	8
38	7135	589.7	8
38	7145	590.302230156357	5
38	7154	591.005477819023	6
38	7165	591.910290628091	8
38	7196	595.3	13
38	7211	596.5	11
38	7235	598.500194363265	19
38	7247	599.505819678664	9
38	7263	600.712535662701	11
38	7275	601.720190693713	9
38	7294	603.222390044832	14
38	7310	604.426587646002	11
38	7322	605.433239603572	9
38	7336	606.436812298689	9
38	7351	607.741110757153	12
38	7377	610.8	8
38	7385	611.5	6
38	7398	612.401529441848	8
38	7403	612.704480136714	2
38	7416	613.805491021936	10
38	7439	615.705738555101	18
38	7460	618.3	3
38	7467	618.9	5
38	7485	620.30354035557	13
38	7495	621.110718743514	7
38	7505	621.918556813566	7
38	7525	623.526121383403	15
38	7553	627	10
38	7573	628.7	16
38	7593	630.301981732484	15
38	7600	630.808828112589	4
38	7621	632.509168065561	16
38	7640	634.016846644974	14
38	7654	635.220718090788	11
38	7675	636.928222919579	16
38	7693	638.243120604955	12
38	7708	639.553035877297	12
38	7718	640.155812151521	5
38	7745	644.9	9
38	7754	645.7	7
38	7768	646.700818146346	9
38	7780	647.705130011536	9
38	7794	648.713427178649	9
38	7808	649.915338010826	11
38	7829	651.622610144567	16
38	7845	652.825010823836	11
38	7856	653.726695988225	8
38	7879	655.635330949442	18
38	7910	659.3	13
38	7924	660.304189799427	9
38	7942	661.911535288061	15
38	7957	663.014576838198	10
38	7961	663.21991047509	1
38	7977	664.429478757057	11
38	7990	665.533829866875	10
38	8000	666.14208139527	5
38	8010	666.946544282027	7
38	8030	670.2	2
38	8048	671.9	16
38	8063	673.002562710077	10
38	8077	674.008088934021	9
38	8087	674.811167393191	7
38	8100	675.914404790892	10
38	8119	677.423606309494	14
38	8126	677.931203351159	4
38	8137	678.640593662672	6
38	8144	679.147832194555	4
38	8159	680.254873947764	10
38	8172	681.359888381962	10
38	8177	681.661300305744	2
38	8208	685.4	14
38	8219	686.2	7
38	8231	687.20548637415	9
38	8244	688.11032471751	8
38	8255	689.012887557529	8
38	8269	690.016232489359	9
38	8280	690.923456648087	8
38	8290	691.725054554477	7
38	8303	692.627892311265	8
38	8325	696.6	6
38	8333	697.3	6
38	8341	697.902436693008	5
38	8353	698.711247558565	7
38	8367	699.915358482384	11
38	8397	703.2	12
38	8405	703.9	6
38	8415	704.502288834452	5
38	8419	704.710582264058	1
38	8426	705.112271782395	3
38	8435	705.817475218654	6
38	8447	706.619095744965	7
38	8472	710.7	7
38	8479	711.3	5
38	8484	711.605420385955	2
38	8488	711.806409147127	1
38	8499	712.507510254198	6
38	8512	713.60939354142	10
38	8522	714.218610343337	5
38	8534	715.225920224722	9
38	8556	718.4	4
38	8561	718.8	3
38	8571	719.604113454055	7
38	8589	721.011496971996	13
38	8598	721.712427225451	6
38	8610	722.519592600297	7
38	8621	723.425823138207	8
38	8634	724.334441902092	8
38	8647	725.440230446082	10
38	8672	728.7	7
38	8682	729.6	8
38	8687	729.903164562811	2
38	8703	731.103474236414	11
38	8718	732.209739719626	10
38	8743	736.7	7
38	8753	737.6	8
38	8766	738.505119831108	8
38	8773	739.014617542852	4
38	8788	740.116324322167	10
38	8802	741.323973463942	11
38	8819	742.62765100833	12
38	8830	743.531156938299	8
38	8835	743.837645891443	2
38	8845	744.438750975382	5
38	8871	748.8	8
38	8883	749.9	10
38	8897	750.907624023761	9
38	8912	752.014738300635	10
38	8925	753.119239241233	10
38	8940	754.228419593797	10
38	8947	754.733691164013	4
38	8965	756.134092090707	13
38	8980	757.442870424668	12
38	8997	758.744040377427	12
38	9026	763.1	11
38	9042	764.4	12
38	9048	764.802689384717	3
38	9060	765.808375697626	9
38	9067	766.115484208111	2
38	9072	766.424341030821	2
38	9079	766.933960803029	4
38	9103	770.6	6
38	9110	771.2	5
38	9122	772.007497188148	7
38	9141	773.71145214599	16
38	9163	776.4	4
38	9169	776.9	4
38	9177	777.505457791001	5
38	9189	778.312559855414	7
38	9194	778.615006818213	2
38	9208	779.81619583434	11
38	9217	780.320120560406	4
38	9225	780.927946089012	5
38	9232	781.435826564526	4
38	9244	782.237014383442	7
38	9254	783.040232848258	7
38	9259	783.347881988902	2
38	9281	786.6	6
38	9287	787.1	4
38	9305	788.5048107146	13
38	9310	788.810285486892	2
38	9317	789.315911203009	4
38	9325	789.923845202437	5
38	9335	790.524027567595	5
38	9340	790.83399325548	2
38	9348	791.441423881012	5
38	9354	791.850382353751	3
38	9362	792.256414237983	3
38	9371	792.963025902648	6
38	9396	796.8	8
38	9400	797.1	2
38	9408	797.706426496158	5
38	9418	798.311093965267	5
38	9430	799.313544434056	9
38	9441	800.023501964391	6
38	9448	800.528751556477	4
38	9458	801.33041857344	7
38	9465	801.840404604157	4
38	9473	802.243275560488	3
38	9500	806.9	9
38	9511	807.9	9
38	9531	809.506173822367	15
38	9536	809.812482432079	2
38	9546	810.416987477006	5
38	9552	810.825974421245	3
38	9558	811.228889632315	3
38	9563	811.532515013196	2
38	9597	815.8	18
38	9614	817.2	13
38	9620	817.60978994182	3
38	9633	818.512209137195	8
38	9639	818.915281662807	3
38	9661	822.4	4
38	9668	823	5
38	9685	824.30353812193	12
38	9698	825.408637767466	10
38	9703	825.716856672039	2
38	9707	825.919937151483	1
38	9714	826.222467321384	2
38	9722	826.832350653296	5
38	9743	830.3	3
38	9752	831.1	7
38	9762	831.904355038444	7
38	9772	832.512891888001	5
38	9779	833.014545346789	4
38	9786	833.520753781978	4
38	9798	834.328713174893	7
38	9808	835.131998912217	7
38	9821	836.032603399138	8
38	9833	837.035376521934	9
38	9841	837.642746581051	5
38	9867	840.8	8
38	9879	841.9	10
38	9895	843.108530290247	11
38	9904	843.812356301116	6
38	9911	844.12139848653	2
38	9919	844.725162024316	5
38	9931	845.732254761068	9
38	9957	848.8	8
38	9961	849.004609143275	1
38	9967	849.414486688275	3
38	9983	850.621353873705	11
38	9988	850.930444618758	2
38	10000	851.932602954552	9
38	10024	854.6	6
38	10035	855.6	9
38	10049	856.608058563899	9
38	10059	857.416504126353	7
38	10065	857.820810113843	3
38	10078	858.725510037257	8
38	10087	859.431607928883	6
38	10110	862.5	5
38	10118	863.2	6
38	10123	863.508695574265	2
38	10129	863.909058365236	3
38	10138	864.410558129787	4
38	10144	864.816964411761	3
38	10153	865.520896741484	6
38	10162	866.023591222438	4
38	10172	866.831661563658	7
38	10191	870.1	1
38	10198	870.7	5
38	10206	871.303079200719	5
38	10229	873.206454433967	18
38	10258	877.1	11
38	10272	878.2	10
38	10278	878.602686912892	3
38	10288	879.409125178269	7
38	10298	880.01596574436	5
38	10307	880.721479455815	6
38	10339	885.4	14
38	10350	886.2	7
38	10358	886.803665594239	5
38	10376	888.205884752682	13
38	10380	888.406296807577	1
38	10389	889.114559536206	6
38	10397	889.71904213248	5
38	10411	890.723284631096	9
38	10415	890.931214526879	1
38	10448	895.5	15
38	10463	896.7	11
38	10481	898.106475294565	13
38	10490	898.812256173265	6
38	10503	899.916292537559	10
38	10514	900.62606614543	6
38	10525	901.528477134477	8
38	10540	902.630762122499	10
38	10552	903.639077702229	9
38	10565	904.547707283302	8
38	10576	905.448392127063	8
38	10593	906.75377077335	12
38	10625	911.5	15
38	10636	912.3	7
38	10642	912.70810777615	3
38	10659	914.014845038595	12
38	10665	914.420017305226	3
38	10671	914.82481342388	3
38	10680	915.525026693466	6
38	10689	916.027264139736	4
38	10699	916.827503446126	7
38	10705	917.227720849997	3
38	10736	921.5	15
38	10754	923	14
38	10763	923.702775612822	6
38	10774	924.407921707752	6
38	10790	925.809309660993	13
38	10804	926.813266243073	9
38	10833	931.1	11
38	10838	931.5	3
38	10844	931.906692530952	3
38	10857	932.811972347522	8
38	10865	933.417418755719	5
38	10878	934.3194324888	8
38	10904	938.8	8
38	10912	939.404809987777	5
38	10919	939.90652013217	4
38	10927	940.309488255306	3
38	10941	941.510143433379	11
38	10958	942.818600074449	12
38	10964	943.22707461203	3
38	10978	944.23082968971	9
38	11002	948.6	6
38	11023	950.4	17
38	11029	950.8030382495	3
38	11035	951.204129652201	3
38	11050	952.307899679978	10
38	11057	952.817125763163	4
38	11065	953.418993136012	5
38	11071	953.823509992153	3
38	11082	954.528670516809	6
38	11088	954.932180512806	3
38	11112	958.6	6
38	11130	960.1	14
38	11140	960.901032737938	7
38	11146	961.30766466438	3
38	11157	962.016153639891	6
38	11163	962.420205698642	3
38	11171	963.024525138849	5
38	11178	963.531171241441	4
38	11189	964.240093094221	6
38	11201	965.241034081092	9
38	11209	965.848276543505	5
38	11216	966.150447557612	2
38	11237	970.4	4
38	11249	971.407039258743	9
38	11261	972.21140367394	7
38	11266	972.512615968884	2
38	11271	972.814546557877	2
38	11280	973.42989805374	5
38	11285	973.7358306857	2
38	11293	974.140457933255	3
38	11328	979.9	19
38	11341	980.9	9
38	11356	982.001207368271	10
38	11371	983.307882538607	12
38	11386	984.414698270837	10
38	11394	985.014700227108	5
38	11421	988.9	9
38	11436	990.1	11
38	11444	990.700574809047	5
38	11457	991.804538027699	10
38	11472	992.910561687414	10
38	11484	993.911101459007	9
38	11492	994.313232677009	3
38	11501	995.020947576794	6
38	11505	995.230602678603	1
38	11511	995.639154734883	3
38	11519	996.045756694412	3
38	11540	1000.3	3
38	11552	1001.4	10
38	11559	1001.908631655171	4
38	11568	1002.415279654394	4
38	11580	1003.416525530483	9
38	11597	1004.718907235265	12
38	11611	1005.927026337078	11
38	11618	1006.235079707219	2
38	11627	1006.942398925216	6
38	11632	1007.243170810681	2
38	11660	1011	10
38	11675	1012.2	11
38	11688	1013.308125991958	10
38	11704	1014.516781693205	11
38	11719	1015.822876948194	12
38	11726	1016.132623117788	2
38	11766	1022	20
38	11781	1023.4	13
38	11791	1024.002488364756	5
38	11798	1024.504222923404	4
38	11806	1025.105069832665	5
38	11812	1025.514232471352	3
38	11822	1026.122087334901	5
38	11830	1026.728072513669	5
38	11838	1027.330667037881	5
38	11843	1027.63220090085	2
38	11853	1028.240256778435	5
38	11892	1034	20
38	11909	1035.6	15
38	11926	1036.904100216838	12
38	11942	1038.108572024259	11
38	11953	1039.010637843283	8
38	11963	1039.813862574186	7
38	11973	1040.415842354688	5
38	12000	1045.2	12
38	12007	1045.8	5
38	12017	1046.404360399984	5
38	12024	1046.905300753342	4
38	12049	1050.7	7
38	12057	1051.4	6
38	12076	1052.90345286369	14
38	12091	1054.005338109719	10
38	12123	1056.814553509223	27
38	12135	1057.816178920866	9
38	12142	1058.121959154313	2
38	12149	1058.63037359196	4
38	12180	1063.3	13
38	12190	1064	6
38	12202	1065.000292253415	9
38	12208	1065.400731735785	3
38	12215	1065.904134773294	4
38	12226	1066.609768445979	6
38	12237	1067.514926038762	8
38	12257	1070.2	2
38	12263	1070.7	4
38	12280	1072.009780238382	12
38	12291	1072.91809235461	8
38	12302	1073.824458814479	8
38	12316	1074.827471319845	9
38	12327	1075.736486919201	8
38	12340	1076.638533886224	8
38	12351	1077.542539224282	8
38	12363	1078.347305626326	7
38	12374	1079.250779468053	8
38	12399	1082.7	7
38	12407	1083.4	6
38	12427	1085.001338070451	15
38	12434	1085.506507290479	4
38	12445	1086.207905937086	6
38	12469	1090.6	6
38	12480	1091.6	9
38	12503	1093.506637946588	18
38	12515	1094.306795973837	7
38	12523	1094.907773944657	5
38	12533	1095.709508441903	7
38	12548	1096.819504535896	10
38	12573	1100.7	7
38	12584	1101.7	9
38	12603	1103.202463502613	14
38	12615	1104.003166822417	7
38	12631	1105.410225232519	13
38	12643	1106.212892897935	7
38	12673	1111.2	12
38	12679	1111.7	4
38	12689	1112.304432498186	5
38	12701	1113.31117322605	9
38	12709	1113.920590516518	5
38	12719	1114.522302153439	5
38	12727	1115.130567436563	5
38	12736	1115.833198575144	6
38	12745	1116.342783881762	4
38	12758	1117.44408970471	10
38	12771	1118.349993748869	8
38	12776	1118.657207669649	2
38	12783	1119.159875359168	4
38	12807	1122.6	6
38	12817	1123.5	8
38	12834	1124.801440501641	12
38	12851	1126.102193308667	12
38	12863	1127.10652557616	9
38	12878	1128.20964629087	10
38	12885	1128.715589736079	4
38	12899	1129.920211976089	11
38	12918	1131.427649403389	14
38	12934	1132.637445050952	11
38	12954	1136.3	3
38	12963	1137.1	7
38	12970	1137.602071824516	4
38	12983	1138.502578248542	8
38	12994	1139.407277843327	8
38	12999	1139.71146155054	2
38	13008	1140.216580535043	4
38	13031	1144.8	8
38	13038	1145.30419397582	4
38	13049	1146.004810125093	6
38	13054	1146.306565205534	2
38	13063	1147.015942331289	6
38	13072	1147.720195989203	6
38	13082	1148.326421696866	5
38	13092	1149.13190985153	7
38	13102	1149.938526904571	7
38	13127	1152.7	7
38	13132	1153.1	3
38	13139	1153.605957850883	4
38	13149	1154.206884907972	5
38	13155	1154.61609835903	3
38	13164	1155.324001115654	6
38	13171	1155.833085399789	4
38	13195	1158.6	6
38	13198	1158.8	1
38	13205	1159.300700774069	4
38	13216	1160.001520959853	6
38	13229	1161.010278462638	9
38	13236	1161.51781533899	4
38	13242	1161.918395842928	3
38	13248	1162.122844857405	1
38	13257	1162.830162718786	6
38	13280	1166.5	5
38	13289	1167.3	7
38	13300	1168.00054296788	6
38	13314	1169.202736182691	11
38	13323	1169.905480095316	6
38	13329	1170.10789583947	1
38	13338	1170.811255990857	6
38	13402	1175	10
38	13417	1175.6	5
38	13445	1176.709074101103	10
38	13453	1177.018313928513	2
38	13504	1181.3	13
38	13519	1182.5	11
38	13531	1183.507783740041	9
38	13545	1184.509183638753	9
38	13559	1185.718709420133	11
38	13571	1186.523134561972	7
38	13576	1186.831670649032	2
38	13592	1188.036226124073	11
38	13620	1193	10
38	13627	1193.6	5
38	13643	1194.804180098879	11
38	13660	1196.11356660424	12
38	13675	1197.41544308647	12
38	13692	1198.716830472633	12
38	13706	1199.918963098911	11
38	13729	1202.8	8
38	13735	1203.3	4
38	13748	1204.200486142123	8
38	13759	1205.106629322641	8
38	13767	1205.716057788712	5
38	13776	1206.225309646377	4
38	13787	1207.130771052979	8
38	13806	1208.633878721044	14
38	13825	1210.138479413442	14
38	13834	1210.838683808467	6
38	13857	1214.5	5
38	13867	1215.4	8
38	13887	1217.008799864125	15
38	13901	1218.013849545045	9
38	13915	1219.217419835958	11
38	13927	1220.023218538386	7
38	13938	1220.932423172958	8
38	13948	1221.735003527341	7
38	13964	1222.939662582411	11
38	13991	1226.9	9
38	14009	1228.4	14
38	14019	1229.200675634257	7
38	14038	1230.70676909238	14
38	14043	1231.015614031831	2
38	14054	1231.925131462824	8
38	14073	1233.338440378403	13
38	14089	1234.540333072039	11
38	14108	1236.043525055466	14
38	14118	1236.852770568286	7
38	14128	1237.658164900618	7
38	14153	1240.9	9
38	14168	1242.1	11
38	14181	1243.202725606926	10
38	14189	1243.802951109916	5
38	14201	1244.604084502427	7
38	14207	1245.008670156752	3
38	14217	1245.813080117169	7
38	14224	1246.121343230146	2
38	14238	1247.322390430166	11
38	14262	1250.6	6
38	14266	1250.9	2
38	14271	1251.202228771701	2
38	14287	1252.409342180633	11
38	14303	1253.814494477273	13
38	14312	1254.323872322628	4
38	14319	1254.826703497808	4
38	14350	1259.3	13
38	14361	1260.1	7
38	14366	1260.40916058911	2
38	14374	1261.018469251047	5
38	14396	1264.4	4
38	14400	1264.7	2
38	14409	1265.404245675595	6
38	14414	1265.712239883891	2
38	14418	1265.920919547015	1
38	14433	1267.023730872088	10
38	14455	1270.4	4
38	14460	1270.8	3
38	14466	1271.20584532415	3
38	14482	1272.415832216662	11
38	14499	1273.922402670794	14
38	14516	1275.224884661401	12
38	14522	1275.632766060777	3
38	14531	1276.140464769731	4
38	14536	1276.449241911062	2
38	14542	1276.850026135384	3
38	14548	1277.258417683087	3
38	14574	1280.9	9
38	14584	1281.8	8
38	14592	1282.205520750917	3
38	14607	1283.515126965585	12
38	14627	1285.123696505924	15
38	14648	1286.829333483905	16
38	14669	1288.529547115997	16
38	14690	1290.237721813821	16
38	14696	1290.647709165841	3
38	14720	1294.7	7
38	14726	1295.2	4
38	14739	1296.10433387981	8
38	14750	1297.01071446415	8
38	14757	1297.512620834558	4
38	14771	1298.516953642003	9
38	14780	1299.221150646028	6
38	14794	1300.222107089639	9
38	14801	1300.731606661104	4
38	14842	1306.1	21
38	14850	1306.8	6
38	14857	1307.304951309042	4
38	14862	1307.612011547511	2
38	14877	1308.720081019144	10
38	14895	1310.125787641518	13
38	14920	1314.7	7
38	14929	1315.5	7
38	14938	1316.000044884583	4
38	14953	1317.30665442197	12
38	14970	1318.610863414037	12
38	14982	1319.616969321298	9
38	14999	1320.923747936778	12
38	15017	1322.330691087494	13
38	15027	1323.131981218884	7
38	15051	1326.6	6
38	15061	1327.5	8
38	15079	1328.907610355983	13
38	15096	1330.217185128849	12
38	15104	1330.824128930842	5
38	15117	1331.927227646292	10
38	15137	1333.529619963476	15
38	15152	1334.631958559348	10
38	15161	1335.332324436012	6
38	15167	1335.74182674038	3
38	15177	1336.3428847221	5
38	15207	1340.2	2
38	15213	1340.7	4
38	15221	1341.3043002848	5
38	15232	1342.006639790066	6
38	15243	1342.913121103203	8
38	15258	1344.021606356849	10
38	15272	1345.227443008623	11
38	15290	1346.631523564355	13
38	15305	1347.940016451386	12
38	15319	1348.943096832606	9
38	15336	1350.248504803773	12
38	15372	1355.8	18
38	15391	1357.4	15
38	15397	1357.809270802706	3
38	15404	1358.112533965196	2
38	15412	1358.71372113827	5
38	15417	1359.019284435122	2
38	15431	1360.022709960765	9
38	15443	1361.025988848637	9
38	15452	1361.729869543189	6
38	15459	1362.036661119163	2
38	15504	1366.3	3
38	15510	1366.8	4
38	15519	1367.507062164747	6
38	15531	1368.310339561299	7
38	15538	1368.8105565214	4
38	15555	1370.114596308176	12
38	15569	1371.317382582572	11
38	15576	1371.825043840801	4
38	15591	1372.930092612776	10
38	15603	1373.939810197661	9
38	15623	1375.543752648914	15
38	15653	1379.2	12
38	15657	1379.5	2
38	15667	1380.100795929031	5
38	15687	1381.904706837438	17
38	15700	1382.81187126562	8
38	15723	1386.5	5
38	15738	1387.9	13
38	15758	1389.507248493032	15
38	15768	1390.109003117277	5
38	15791	1392.016514332875	18
38	15795	1392.221546531529	1
38	15803	1392.82918477782	5
38	15814	1393.73089629983	8
38	15824	1394.331124601295	5
38	15842	1395.932032090137	15
38	15867	1398.7	7
38	15878	1399.7	9
38	15886	1400.106149983413	3
38	15909	1402.00897617211	18
38	15913	1402.210492806671	1
38	15919	1402.615421763419	3
38	15925	1403.022036221802	3
38	15931	1403.428693154234	3
38	15941	1404.035945039709	5
38	15947	1404.437702471251	3
38	15977	1409.3	13
38	15992	1410.5	11
38	16008	1411.904998709426	13
38	16022	1412.905757956853	9
38	16044	1416.4	4
38	16055	1417.4	9
38	16062	1417.900993963433	4
38	16075	1418.802458016909	8
38	16092	1420.111683883624	12
38	16104	1421.120581346299	9
38	16111	1421.63010728955	4
38	16116	1421.938503012337	2
38	16167	1424.6	6