file 267826 1367233033                                          
version 2
run Join-85-20130429-12:56:44-17679
attr configname Join
attr datetime 20130429-12:56:44
attr experiment "\"Join\""
attr inifile omnetpp.ini
attr iterationvars $0=8192
attr iterationvars2 "$0=8192, $repetition=5"
attr measurement $0=8192
attr network Network
attr processid 17679
attr repetition 5
attr replication #5
attr resultdir results
attr runnumber 85
attr seedset 85
vector 85  Network.dyn_peer[0]  lookupHopsSig:vector  ETV
85	444 267382 22172 496401 22.027963985662 38185.653596397219 9219 1 168 343065 17249043
