version 2
run Join-6-20130429-12:49:21-17679
attr configname Join
attr datetime 20130429-12:49:21
attr experiment "\"Join\""
attr inifile omnetpp.ini
attr iterationvars $0=32
attr iterationvars2 "$0=32, $repetition=6"
attr measurement $0=32
attr network Network
attr processid 17679
attr repetition 6
attr replication #6
attr resultdir results
attr runnumber 6
attr seedset 6

vector 6  Network.dyn_peer[0]  lookupHopsSig:vector  ETV
6	305	20.421711479703	5
6	310	20.724225361517	2
6	315	21.028266928028	2
6	321	21.437729469651	3
6	325	21.645148306467	1
6	334	22.154979205472	4
6	355	26.3	3
6	360	26.7	3
6	366	27.101392716083	3
6	374	27.613060073114	4
6	382	28.01691491662	3
6	389	28.517503289523	4
6	396	29.021578363229	4
6	403	29.52350501802	4
6	409	29.926356513646	3
6	416	30.235604451344	2
6	421	30.535612976146	2
6	443	34.4	4
6	449	34.9	4
6	455	35.306822871307	3
6	461	35.712050688815	3
6	468	36.013685576288	2
6	473	36.320497429835	2
6	478	36.626979682248	2
6	484	37.027861675836	3
6	503	40.1	1
6	506	40.3	1
6	513	40.809587226004	4
6	518	41.111553846967	2
6	523	41.412216051776	2
6	527	41.617034515646	1
6	531	41.822163917506	1
6	551	44.2	2
6	555	44.5	2
6	560	44.803162773384	2
6	565	45.111607046748	2
6	570	45.41809878649	2
6	580	46.024137452037	5
6	599	50.1	1
6	603	50.4	2
6	609	50.708408532305	2
6	614	51.01720820631	2
6	618	51.219253438877	1
6	622	51.42916475798	1
6	641	54.1	1
6	644	54.3	1
6	650	54.703154035743	3
6	656	55.106340046854	3
6	662	55.514970350955	3
6	666	55.719328238373	1
6	687	58.3	3
6	692	58.7	3
6	699	59.203678246603	4
6	704	59.503923361119	2
6	708	59.712204927929	1
6	712	59.919224849328	1
6	731	62.1	1
6	734	62.3	1
6	740	62.614136754681	2
6	745	62.82588085013	1
6	750	63.133631199454	2
6	755	63.435610422571	2
6	760	63.737404486073	2
6	783	66.5	5
6	786	66.7	1
6	792	67.108147378303	3
6	798	67.508564867048	3
6	803	67.811603700051	2
6	855	70.4	4
6	861	70.9	4
6	867	71.304970509707	3
6	874	71.811737476157	4
6	880	72.012164801166	1
6	902	76.4	4
6	907	76.8	3
6	912	77.015423230299	1
6	918	77.417954304789	3
6	922	77.623622272457	1
6	930	78.032472111801	3
6	935	78.333601295139	2
6	939	78.537048036815	1
6	960	82.3	3
6	964	82.6	2
6	971	83.104854852664	4
6	977	83.50837387772	3
6	981	83.711388098715	1
6	988	84.011852836558	2
6	992	84.21225079214	1
6	1008	88.1	1
6	1011	88.3	1
6	1016	88.609085047496	2
6	1021	88.909201105937	2
6	1025	89.10989065386	1
6	1033	89.525132205162	3
6	1038	89.827931917495	2
6	1060	92.4	4
6	1064	92.7	2
6	1071	93.207792339483	4
6	1075	93.416019548861	1
6	1080	93.720027033601	2
6	1090	94.229589093616	4
6	1094	94.438099595624	1
6	1100	94.843337317538	3
6	1107	95.34377353424	4
6	1111	95.546323391173	1
6	1116	95.851391899252	2
6	1136	98.2	2
6	1141	98.6	3
6	1147	99.006231499463	3
6	1154	99.51267944968	4
6	1163	100.022410174675	4
6	1171	100.533799290118	4
6	1178	100.940332958207	3
6	1185	101.446635179715	4
6	1191	101.856422317772	3
6	1215	104.6	6
6	1219	104.9	2
6	1225	105.306162321306	3
6	1229	105.515848982093	1
6	1233	105.720755026446	1
6	1241	106.127806065851	3
6	1245	106.33036989348	1
6	1250	106.630563751561	2
6	1254	106.832932466815	1
6	1260	107.239060770742	3
6	1264	107.444276929803	1
6	1268	107.646772521499	1
6	1288	110.3	3
6	1293	110.7	3
6	1299	111.103813858262	3
6	1304	111.40581479329	2
6	1308	111.612254663385	1
6	1328	114.2	2
6	1335	114.8	5
6	1343	115.400264023987	5
6	1349	115.809076248069	3
6	1355	116.011636884169	1
6	1362	116.513573568729	4
6	1367	116.81623554918	2
6	1373	117.224475563287	3
6	1378	117.525898840448	2
6	1398	120.2	2
6	1402	120.5	2
6	1407	120.807022686093	2
6	1411	121.010584547743	1
6	1416	121.318485700171	2
6	1421	121.618975091038	2
6	1429	122.021080864587	3
6	1435	122.423462171271	3
6	1439	122.63003192686	1
6	1447	123.147997990873	4
6	1468	126.3	3
6	1473	126.602968611069	2
6	1479	126.906465983417	2
6	1483	127.110907942769	1
6	1488	127.41955230762	2
6	1498	128.019631517771	5
6	1502	128.221182926694	1
6	1523	132.3	3
6	1528	132.7	3
6	1534	133.106974556494	3
6	1540	133.509497330846	3
6	1545	133.817781674941	2
6	1553	134.226228455805	3
6	1560	134.636703290558	3
6	1578	138.3	3
6	1585	138.9	5
6	1590	139.206936508538	2
6	1595	139.516089192428	2
6	1617	142.4	4
6	1620	142.6	1
6	1628	143.014295613454	3
6	1635	143.517001247499	4
6	1640	143.826536987102	2
6	1658	146	0
6	1665	146.6	5
6	1671	147.004188377056	3
6	1677	147.406409054738	3
6	1681	147.607614537057	1
6	1686	147.909061770968	2
6	1692	148.111132660901	1
6	1697	148.418579625509	2
6	1703	148.826030180135	3
6	1722	152.1	1
6	1726	152.4	2
6	1733	152.80475824786	3
6	1739	153.205729790126	3
6	1745	153.615032222665	3
6	1766	156.3	3
6	1771	156.7	3
6	1775	156.909545475703	1
6	1779	157.11599210099	1
6	1783	157.323860592692	1
6	1787	157.530663105544	1
6	1791	157.733875755675	1
6	1795	157.939657290305	1
6	1802	158.243963644634	2
6	1824	162.4	4
6	1828	162.7	2
6	1835	163.206468293315	4
6	1841	163.614400783877	3
6	1849	164.016197180237	3
6	1855	164.417298513237	3
6	1861	164.82456124329	3
6	1865	165.029077049021	1
6	1872	165.531924169899	4
6	1881	166.03746086283	4
6	1887	166.445875628321	3
6	1894	166.955007953714	4
6	1901	167.369949800432	3
6	1907	167.675592064695	2
6	1928	170.3	3
6	1932	170.6	2
6	1936	170.809429037021	1
6	1942	171.21448295989	3
6	1948	171.614887882749	3
6	1953	171.915943952904	2
6	1959	172.117018502573	1
6	1966	172.625838307826	4
6	1973	173.133395503739	4
6	1991	176	0
6	1994	176.2	1
6	1999	176.506917334781	2
6	2005	176.91507819313	3
6	2011	177.317265242658	3
6	2015	177.521457220051	1
6	2019	177.722773192294	1
6	2023	177.924672783468	1
6	2029	178.13296107279	1
6	2033	178.341395178666	1
6	2053	182.2	2
6	2059	182.7	4
6	2064	183.005615182712	2
6	2070	183.407784870541	3
6	2076	183.816048368196	3
6	2083	184.120691040366	2
6	2089	184.529720882666	3
6	2095	184.932916786535	3
6	2101	185.339195084075	3
6	2107	185.748286025811	3
6	2111	185.956228903793	1
6	2130	188.1	1
6	2134	188.4	2
6	2140	188.801399034524	3
6	2145	189.103839992202	2
6	2152	189.609958205573	4
6	2160	190.015432004922	3
6	2167	190.523946955169	4
6	2172	190.742433232119	1
6	2191	194.1	1
6	2196	194.5	3
6	2205	195.205678919302	6
6	2213	195.80844691605	5
6	2221	196.119104423237	2
6	2241	200.2	2
6	2245	200.5	2
6	2251	200.909339069575	3
6	2256	201.216118695461	2
6	2261	201.518414172665	2
6	2265	201.723479107129	1
6	2285	204.2	2
6	2291	204.7	4
6	2296	205.000658638051	2
6	2301	205.309759650202	2
6	2306	205.614985362025	2
6	2315	206.116184758228	4
6	2338	210.5	5
6	2343	210.9	3
6	2348	211.205636321716	2
6	2353	211.511372531042	2
6	2357	211.713518325066	1
6	2365	212.11355977536	3
6	2384	216.1	1
6	2388	216.4	2
6	2393	216.703020387368	2
6	2398	217.007603159811	2
6	2405	217.516553629716	4
6	2411	217.921330147902	3
6	2418	218.227839328748	2
6	2424	218.634653537276	3
6	2430	218.951190952563	2
6	2437	219.453520546622	4
6	2444	219.961728393846	4
6	2451	220.264318814685	2
6	2456	220.567781906206	2
6	2476	224.2	2
6	2481	224.6	3
6	2490	225.306367575787	6
6	2496	225.713621032342	3
6	2503	226.020009356973	2
6	2507	226.225644083405	1
6	2527	230.2	2
6	2531	230.5	2
6	2536	230.808382643961	2
6	2542	231.21472724727	3
6	2547	231.522703754393	2
6	2552	231.831381679152	2
6	2560	232.237008698094	3
6	2567	232.554265812096	2
6	2572	232.855934418238	2
6	2577	233.156821801076	2
6	2598	236.3	3
6	2603	236.7	3
6	2609	237.106805231214	3
6	2617	237.709952494705	5
6	2625	238.111569453888	3
6	2630	238.32395673606	1
6	2636	238.732595889888	3
6	2642	239.134247934325	3
6	2650	239.645855105051	4
6	2655	239.949428337702	2
6	2661	240.152847076513	1
6	2684	244.5	5
6	2690	245	4
6	2696	245.402355423541	3
6	2701	245.710850446959	2
6	2709	246.116747409551	3
6	2715	246.522452297973	3
6	2721	246.932422364366	3
6	2726	247.232527383272	2
6	2732	247.63305212967	3
6	2741	248.138604615366	4
6	2746	248.440979819633	2
6	2752	248.850878309295	3
6	2759	249.262735277362	3
6	2763	249.470744619277	1
6	2782	252.2	2
6	2787	252.6	3
6	2793	253.004143362541	3
6	2799	253.311702248218	2
6	2819	256.2	2
6	2823	256.5	2
6	2828	256.802788349064	2
6	2834	257.207224241369	3
6	2840	257.61451024294	3
6	2848	258.016079306216	3
6	2868	262.2	2
6	2873	262.6	3
6	2878	262.909848783977	2
6	2884	263.312303319223	3
6	2889	263.614919619677	2
6	2911	266.4	4
6	2915	266.7	2
6	2920	267.000504287334	2
6	2925	267.306934190887	2
6	2929	267.516579787026	1
6	2935	267.733926878537	1
6	2955	270.2	2
6	2961	270.7	4
6	2968	271.108702288479	3
6	2976	271.428511255783	2
6	2996	274.2	2
6	3000	274.5	2
6	3004	274.70065016302	1
6	3008	274.902391703228	1
6	3015	275.311738193571	3
6	3020	275.616494206255	2
6	3039	278.1	1
6	3043	278.4	2
6	3048	278.706341559302	2
6	3054	279.115336891593	3
6	3073	282.1	1
6	3077	282.4	2
6	3085	283.005824607433	5
6	3091	283.407869182761	3
6	3098	283.912408305093	4
6	3107	284.419798852224	4
6	3115	284.924151645451	4
6	3120	285.230335011711	2
6	3140	288.2	2
6	3146	288.7	4
6	3151	289.007699599475	2
6	3155	289.216945365489	1
6	3160	289.516950557125	2
6	3164	289.72269207959	1
6	3168	289.930206020618	1
6	3175	290.237146846269	2
6	3181	290.646055339766	3
6	3187	291.049977307613	3
6	3207	294.3	3
6	3211	294.6	2
6	3216	294.908446118449	2
6	3221	295.217849940642	2
6	3226	295.521140321731	2
6	3232	295.92255269238	3
6	3239	296.230068021961	2
6	3246	296.642672228968	3
6	3252	297.043058804728	3
6	3256	297.245237173585	1
6	3261	297.545489020238	2
6	3281	300.2	2
6	3285	300.5	2
6	3292	301.000122686789	4
6	3299	301.509970159753	4
6	3304	301.81512418377	2
6	3311	302.124558798207	2
6	3317	302.534392301118	3
6	3334	306.2	2
6	3340	306.7	4
6	3344	306.909688835761	1
6	3348	307.117783200012	1
6	3354	307.523513362654	3
6	3363	308.030637366245	4
6	3368	308.232841899436	1
6	3375	308.734176437066	4
6	3381	309.141386600269	3
6	3388	309.649024194464	4
6	3393	309.955925485984	2
6	3400	310.261198669025	2
6	3420	314.2	2
6	3423	314.4	1
6	3428	314.700819860887	2
6	3432	314.907521630892	1
6	3437	315.215543471359	2
6	3441	315.423311053191	1
6	3446	315.725702471728	2
6	3450	315.932583920149	1
6	3469	318.1	1
6	3472	318.3	1
6	3476	318.50191540213	1
6	3481	318.811074302768	2
6	3488	319.315740602702	4
6	3495	319.823515020656	4
6	3502	320.126081510028	2
6	3507	320.42694000655	2
6	3513	320.836739935212	3
6	3517	321.04623673006	1
6	3521	321.248615028381	1
6	3541	324.2	2
6	3546	324.6	3
6	3552	325.000849553572	3
6	3557	325.310005417128	2
6	3563	325.719387737877	3
6	3570	326.025347329716	2
6	3574	326.228495898971	1
6	3594	330.2	2
6	3599	330.6	3
6	3604	330.908095007652	2
6	3609	331.209003150061	2
6	3613	331.417971975201	1
6	3619	331.820052125647	3
6	3639	334.2	2
6	3644	334.6	3
6	3648	334.800503002353	1
6	3656	335.208203376445	3
6	3662	335.614061044381	3
6	3684	338.4	4
6	3688	338.7	2
6	3694	339.103239317322	3
6	3699	339.407742710728	2
6	3719	342.2	2
6	3724	342.6	3
6	3730	343.000815411352	3
6	3737	343.507355292027	4
6	3742	343.80996009506	2
6	3748	344.013542381859	1
6	3755	344.51883909737	4
6	3762	344.929088953437	3
6	3769	345.431410241356	4
6	3775	345.733823289466	2
6	3783	346.143176797446	3
6	3789	346.547316026342	3
6	3795	346.956327306217	3
6	3799	347.156622997281	1
6	3820	350.3	3
6	3823	350.5	1
6	3831	351.101833561514	5
6	3837	351.505827830947	3
6	3842	351.806377605836	2
6	3851	352.225654149006	3
6	3856	352.531615233946	2
6	3877	356.3	3
6	3881	356.6	2
6	3887	356.909907085902	2
6	3891	357.110500206353	1
6	3895	357.311104320617	1
6	3901	357.719296634009	3
6	3919	360	0
6	3925	360.5	4
6	3930	360.80748621562	2
6	3935	361.115209761941	2
6	3953	364	0
6	3959	364.5	4
6	3963	364.700866944468	1
6	3972	365.403700658832	6
6	3994	368.4	4
6	3999	368.8	3
6	4005	369.20959586262	3
6	4009	369.410386920056	1
6	4014	369.717563237565	2
6	4023	370.224819845849	4
6	4043	374.2	2
6	4047	374.5	2
6	4052	374.801568354351	2
6	4059	375.30217129042	4
6	4067	375.909489306824	5
6	4076	376.410601846545	4
6	4081	376.720438129854	2
6	4086	377.025191559883	2
6	4108	380.4	4
6	4111	380.6	1
6	4117	381.004011496081	3
6	4122	381.310407669105	2
6	4141	384.1	1
6	4145	384.4	2
6	4151	384.805422641863	3
6	4155	385.013799247059	1
6	4160	385.320137865635	2
6	4180	388.2	2
6	4184	388.5	2
6	4188	388.70974355817	1
6	4193	389.018225176755	2
6	4198	389.324106745686	2
6	4203	389.630451846915	2
6	4208	389.939912600273	2
6	4226	392	0
6	4232	392.5	4
6	4237	392.80131850759	2
6	4246	393.510468763208	6
6	4252	393.919359925535	3
6	4259	394.225155876466	2
6	4263	394.432453550948	1
6	4267	394.634845546586	1
6	4286	398.1	1
6	4291	398.5	3
6	4296	398.80171021328	2
6	4303	399.303350818314	4
6	4308	399.611579704006	2
6	4330	402.4	4
6	4334	402.7	2
6	4339	403.006783665262	2
6	4343	403.207598514572	1
6	4348	403.510137270143	2
6	4352	403.714711661519	1
6	4356	403.916232211292	1
6	4362	404.121526397338	1
6	4366	404.323502227626	1
6	4372	404.732030846797	3
6	4376	404.94021367984	1
6	4381	405.243712160136	2
6	4386	405.552629775072	2
6	4406	408.2	2
6	4411	408.6	3
6	4417	409.000300417058	3
6	4422	409.306050731879	2
6	4427	409.608924016127	2
6	4435	410.013809167636	3
6	4439	410.22056221704	1
6	4460	414.3	3
6	4467	414.9	5
6	4472	415.208024429976	2
6	4480	415.817701907718	5
6	4490	416.326098537122	4
6	4495	416.628612636693	2
6	4515	420.2	2
6	4520	420.6	3
6	4527	421.106761856903	4
6	4532	421.416553893659	2
6	4537	421.716707207042	2
6	4541	421.920946056447	1
6	4549	422.322414629904	3
6	4555	422.63273698155	2
6	4561	423.033373678386	3
6	4566	423.334764376563	2
6	4570	423.536186486488	1
6	4591	426.3	3
6	4595	426.6	2
6	4599	426.807903005047	1
6	4605	427.210114597935	3
6	4611	427.610967942451	3
6	4615	427.817387316408	1
6	4623	428.22161916904	3
6	4627	428.428887653801	1
6	4647	432.2	2
6	4651	432.5	2
6	4656	432.807309746725	2
6	4662	433.21453173325	3
6	4669	433.716807338994	4
6	4693	436.6	6
6	4698	437	3
6	4703	437.304477464223	2
6	4707	437.509168989368	1
6	4712	437.723774760696	1
6	4716	437.930042815084	1
6	4722	438.136240083197	1
6	4727	438.444836020126	2
6	4748	442.3	3
6	4753	442.7	3
6	4757	442.908898562157	1
6	4761	443.110064428957	1
6	4766	443.416068965926	2
6	4770	443.620454621671	1
6	4775	443.925619649069	2
6	4784	444.432791422921	4
6	4805	448.3	3
6	4809	448.6	2
6	4815	449.007451946416	3
6	4821	449.413785773745	3
6	4826	449.716112868814	2
6	4833	450.021435275927	2
6	4839	450.430786491794	3
6	4845	450.738863749222	2
6	4863	454	0
6	4867	454.3	2
6	4873	454.702609490239	3
6	4878	455.003776488442	2
6	4883	455.311747604948	2
6	4888	455.61311540404	2
6	4896	456.021460510656	3
6	4902	456.429437205363	3
6	4908	456.74377498455	2
6	4928	460.2	2
6	4932	460.5	2
6	4937	460.807225702959	2
6	4943	461.212254509541	3
6	4947	461.415619250484	1
6	4968	464.3	3
6	4972	464.6	2
6	4978	465.000472898429	3
6	4982	465.205955392	1
6	4986	465.409115439163	1
6	4990	465.617398119423	1
6	4994	465.825598181573	1
6	5001	466.126750347596	2
6	5005	466.330804262501	1
6	5028	470.5	5
6	5035	471.001339462094	4
6	5043	471.605041165102	5
6	5048	471.905464909476	2
6	5056	472.311065687387	3
6	5060	472.514274231387	1
6	5082	476.4	4
6	5086	476.7	2
6	5092	477.108903576696	3
6	5098	477.518487447166	3
6	5103	477.826727271805	2
6	5111	478.228895249581	3
6	5117	478.635919632343	3
6	5121	478.83921086063	1
6	5127	479.247157575437	3
6	5145	482.2	2
6	5151	482.50856041646	2
6	5158	483.017492671337	4
6	5164	483.424767415416	3
6	5169	483.730609930427	2
6	5188	486.1	1
6	5194	486.50537931943	3
6	5199	486.810909184014	2
6	5203	487.020851076523	1
6	5208	487.323905767389	2
6	5212	487.524295894452	1
6	5217	487.826872829973	2
6	5227	488.339256811105	4
6	5246	492.1	1
6	5249	492.3	1
6	5253	492.508744370506	1
6	5258	492.814450230448	2
6	5280	496.4	4
6	5285	496.8	3
6	5290	497.104736761543	2
6	5294	497.31045778964	1
6	5299	497.618228474685	2
6	5303	497.821810468623	1
6	5309	498.031336910339	1
6	5315	498.438169737966	3
6	5334	502.3	3
6	5337	502.5	1
6	5341	502.709244174782	1
6	5346	503.012257773877	2
6	5351	503.318609740604	2
6	5355	503.525768433993	1
6	5375	506.2	2
6	5380	506.6	3
6	5386	507.000981392653	3
6	5393	507.502720949435	4
6	5398	507.807219794424	2
6	5406	508.214476555116	3
6	5410	508.415267955384	1
6	5416	508.821512478795	3
6	5422	509.224241764808	3
6	5443	512.3	3
6	5447	512.6	2
6	5452	512.903884812702	2
6	5456	513.105591169212	1
6	5461	513.410048502479	2
6	5466	513.712882853609	2
6	5486	516.2	2
6	5490	516.5	2
6	5496	516.907178855582	3
6	5502	517.126988782168	1
6	5507	517.339299920938	1
6	5513	517.74338301084	3
6	5531	520	0
6	5535	520.3	2
6	5543	520.904128758723	5
6	5551	521.508168076492	5
6	5556	521.814223362841	2
6	5564	522.222768663254	3
6	5569	522.530342755021	2
6	5575	522.940293721502	3
6	5582	523.353639463836	3
6	5588	523.660004113059	2
6	5596	524.069850072922	3
6	5601	524.378963027084	2
6	5621	528.2	2
6	5626	528.504528921139	2
6	5632	528.911001521332	3
6	5637	529.217778108226	2
6	5643	529.619561812583	3
6	5649	529.923127582041	2
6	5659	530.525737534426	5
6	5665	530.935099563998	3
6	5672	531.439688747759	4
6	5677	531.742837672569	2
6	5686	532.251348320513	4
6	5705	536.1	1
6	5709	536.4	2
6	5716	536.900760192133	4
6	5723	537.401447821238	4
6	5727	537.603957605389	1
6	5738	538.307140721894	6
6	5760	542.4	4
6	5764	542.7	2
6	5771	543.201487307001	4
6	5778	543.605871219715	3
6	5787	544.110675853826	4
6	5794	544.611223450002	4
6	5800	545.01546007512	3
6	5804	545.217458452392	1
6	5809	545.525434198447	2
6	5831	548.4	4
6	5835	548.60624971047	1
6	5840	548.913230980813	2
6	5844	549.114085587797	1
6	5850	549.518929995713	3
6	5856	549.923942961716	3
6	5863	550.133524378589	1
6	5885	554.4	4
6	5891	554.9	4
6	5897	555.300873189691	3
6	5903	555.708429534911	3
6	5912	556.213053208636	4
6	5918	556.616909380261	3
6	5925	557.123523729903	4
6	5942	560.2	2
6	5947	560.6	3
6	5953	560.909751380592	2
6	5961	561.332837689533	3
6	5966	561.550199904883	1
6	5989	564.5	5
6	5994	564.9	3
6	6001	565.401123693073	4
6	6007	565.802893223212	3
6	6015	566.205204561691	3
6	6021	566.61217399857	3
6	6027	567.016084541885	3
6	6033	567.419169929771	3
6	6037	567.620392653712	1
6	6055	570.1	1
6	6059	570.4	2
6	6064	570.707777528781	2
6	6070	571.112747278136	3
6	6076	571.520237596434	3
6	6081	571.828333333489	2
6	6088	572.129441730385	2
6	6106	576.3	3
6	6111	576.7	3
6	6116	577.009722192096	2
6	6120	577.219563343242	1
6	6126	577.627554861128	3
6	6144	580	0
6	6151	580.6	5
6	6160	581.210066366041	5
6	6168	581.818553465349	5
6	6175	582.126185854107	2
6	6181	582.535177271607	3
6	6201	586.2	2
6	6206	586.6	3
6	6213	587.109879376802	4
6	6218	587.410361894387	2
6	6223	587.714027455383	2
6	6227	587.922837095622	1
6	6235	588.324979613186	3
6	6241	588.734463755551	3
6	6245	588.937836865714	1
6	6265	592.2	2
6	6271	592.7	4
6	6276	593.003110017508	2
6	6282	593.408348673041	3
6	6288	593.710841335294	2
6	6295	594.011849549783	2
6	6301	594.418296413428	3
6	6322	598.3	3
6	6327	598.7	3
6	6331	598.909230363434	1
6	6335	599.111464741646	1
6	6339	599.313913848324	1
6	6344	599.620160687196	2
6	6354	600.227641341365	5
6	6359	600.53692608643	2
6	6364	600.843036515995	2
6	6370	601.248947977927	3
6	6388	604	0
6	6395	604.6	5
6	6401	605.000179327377	3
6	6406	605.306109279987	2
6	6411	605.613753854743	2
6	6416	605.915037451857	2
6	6423	606.21675717778	2
6	6428	606.524827106489	2
6	6433	606.830951171518	2
6	6455	610.4	4
6	6462	611	5
6	6466	611.201752999776	1
6	6470	611.409089559053	1
6	6490	614.2	2
6	6498	614.61823573462	3
6	6504	615.02234610196	3
6	6509	615.328198963783	2
6	6513	615.532189849347	1
6	6517	615.737885409805	1
6	6524	616.046192058913	2
6	6543	620.1	1
6	6548	620.5	3
6	6552	620.705297745263	1
6	6556	620.912655693741	1
6	6562	621.313192033836	3
6	6567	621.617416363173	2
6	6575	622.019111455174	3
6	6594	626.1	1
6	6598	626.4	2
6	6604	626.808750482711	3
6	6608	627.01425429244	1
6	6630	630.4	4
6	6634	630.7	2
6	6641	631.202106042329	4
6	6645	631.404611831942	1
6	6652	631.909046611812	4
6	6659	632.21493455942	2
6	6665	632.619539307812	3
6	6686	636.3	3
6	6689	636.5	1
6	6694	636.806600484354	2
6	6699	637.115596087572	2
6	6703	637.319676671872	1
6	6708	637.624893621214	2
6	6712	637.826748722904	1
6	6718	638.029542738306	1
6	6723	638.335822821082	2
6	6742	642.1	1
6	6747	642.5	3
6	6754	643.002018895847	4
6	6759	643.309790661245	2
6	6764	643.614205979004	2
6	6769	643.917948620666	2
6	6777	644.327556407514	3
6	6781	644.534761965136	1
6	6786	644.836786136148	2
6	6793	645.242716034741	3
6	6797	645.450818450778	1
6	6817	648.2	2
6	6822	648.6	3
6	6827	648.906710883281	2
6	6833	649.309211224233	3
6	6838	649.613867365991	2
6	6848	650.118113832457	4
6	6867	654.1	1
6	6871	654.4	2
6	6875	654.602506932688	1
6	6879	654.808082653663	1
6	6884	655.109864955858	2
6	6889	655.410945989169	2
6	6894	655.715507178062	2
6	6902	656.119057486255	3
6	6922	660.2	2
6	6927	660.505672117793	2
6	6931	660.712086883897	1
6	6935	660.918964808925	1
6	6941	661.323671123769	3
6	6947	661.725310301135	3
6	6955	662.134989447453	3
6	6976	666.3	3
6	6983	666.9	5
6	6989	667.309596300837	3
6	6995	667.716398382146	3
6	7005	668.325555994255	5
6	7012	668.833410293686	4
6	7016	669.03709220048	1
6	7023	669.541069225626	4
6	7029	669.943073766798	3
6	7035	670.150481455734	1
6	7054	674.1	1
6	7058	674.4	2
6	7063	674.707209090196	2
6	7068	675.007378809856	2
6	7072	675.215641963056	1
6	7076	675.417058798715	1
6	7081	675.634394230811	1
6	7086	675.936906509386	2
6	7092	676.138826892697	1
6	7114	680.4	4
6	7118	680.7	2
6	7123	681.004995850538	2
6	7127	681.209818823457	1
6	7149	684.4	4
6	7153	684.7	2
6	7160	685.201028421374	4
6	7164	685.408046496004	1
6	7174	686.00993534819	5
6	7178	686.214077497166	1
6	7185	686.722702737468	4
6	7191	687.122939521121	3
6	7196	687.430858200411	2
6	7216	690.2	2
6	7219	690.4	1
6	7224	690.703375453988	2
6	7229	691.013250884003	2
6	7248	694.1	1
6	7252	694.4	2
6	7257	694.705025315545	2
6	7263	695.11260873028	3
6	7269	695.521074529552	3
6	7274	695.826456477182	2
6	7282	696.234976669993	3
6	7300	700.3	3
6	7306	700.8	4
6	7311	701.103995144513	2
6	7317	701.507888398416	3
6	7322	701.816247414433	2
6	7330	702.223854151613	3
6	7335	702.525074191501	2
6	7339	702.729632531092	1
6	7360	706.3	3
6	7365	706.7	3
6	7370	707.008721656089	2
6	7376	707.415792583669	3
6	7381	707.722719531456	2
6	7388	708.028838959248	2
6	7393	708.332702174233	2
6	7413	712.2	2
6	7418	712.6	3
6	7425	713.107928965042	4
6	7431	713.513816785117	3
6	7437	713.917809971231	3
6	7445	714.323790138354	3
6	7464	718.1	1
6	7470	718.6	4
6	7475	718.902686179527	2
6	7482	719.40718409728	4
6	7486	719.609787619281	1
6	7490	719.813124923887	1
6	7499	720.315805258065	4
6	7504	720.616769693564	2
6	7509	720.922832997311	2
6	7529	724.2	2
6	7533	724.5	2
6	7540	725.004190083018	4
6	7546	725.407026534737	3
6	7566	728.2	2
6	7569	728.4	1
6	7575	728.806729183415	3
6	7581	729.213876562108	3
6	7586	729.523715721293	2
6	7595	730.025476066061	4
6	7601	730.428149961035	3
6	7607	730.829907474519	3
6	7614	731.332754988624	4
6	7619	731.635376778133	2
6	7630	732.339763115483	6
6	7650	736.2	2
6	7655	736.6	3
6	7660	736.909570666444	2
6	7665	737.216015702248	2
6	7670	737.522630893976	2
6	7676	737.92443575817	3
6	7685	738.430669155251	4
6	7691	738.839066670699	3
6	7697	739.248829317832	3
6	7704	739.654869988773	3
6	7709	739.964555429744	2
6	7717	740.372518795223	3
6	7722	740.673425442059	2
6	7727	740.979622106851	2
6	7732	741.285184277706	2
6	7753	744.3	3
6	7759	744.8	4
6	7765	745.110991383918	2
6	7773	745.614610473551	4
6	7781	746.0172798504	3
6	7786	746.320530451631	2
6	7792	746.726717850728	3
6	7798	747.133677182976	3
6	7806	747.639993144227	4
6	7811	747.943964561649	2
6	7833	750.4	4
6	7839	750.9	4
6	7844	751.209776399096	2
6	7848	751.418692840444	1
6	7854	751.827994860291	3
6	7862	752.236972951133	3
6	7868	752.453410340323	1
6	7872	752.660603685855	1
6	7878	753.06629588031	3
6	7884	753.475558711644	3
6	7889	753.77579420872	2
6	7897	754.178767644783	3
6	7915	758.2	2
6	7919	758.5	2
6	7924	758.808784115763	2
6	7930	759.214118845408	3
6	7935	759.52133963913	2
6	7941	759.929357932974	3
6	7949	760.331535744611	3
6	7953	760.536010934714	1
6	7957	760.738181968739	1
6	7962	761.047267365218	2
6	7980	764	0
6	7987	764.6	5
6	7992	764.901656944679	2
6	8000	765.510144730253	5
6	8004	765.717010014109	1
6	8011	766.025086820829	2
6	8015	766.226932798195	1
6	8019	766.432888340374	1
6	8023	766.638189949478	1
6	8044	770.3	3
6	8050	770.8	4
6	8056	771.207384302029	3
6	8065	771.913474043784	6
6	8073	772.128811646195	1
6	8079	772.529393758562	3
6	8085	772.936922812541	3
6	8105	776.2	2
6	8109	776.5	2
6	8114	776.807153266556	2
6	8120	777.214998077512	3
6	8126	777.615789674075	3
6	8131	777.921985879958	2
6	8138	778.223235765796	2
6	8143	778.532317433313	2
6	8149	778.941880810959	3
6	8172	782.5	5
6	8176	782.8	2
6	8181	783.103220745613	2
6	8185	783.312484343062	1
6	8192	783.819287629612	4
6	8201	784.326985520515	4
6	8206	784.634439903692	2
6	8211	784.939684396296	2
6	8220	785.642963143995	6
6	8240	788.2	2
6	8243	788.4	1
6	8249	788.80892959912	3
6	8254	789.108929942549	2
6	8259	789.411981700091	2
6	8263	789.620691614542	1
6	8272	790.121838193209	4
6	8277	790.425847368188	2
6	8283	790.830173482833	3
6	8287	791.035164950998	1
6	8293	791.438241464388	3
6	8299	791.847608846262	3
6	8318	794.1	1
6	8323	794.5	3
6	8328	794.8019674776	2
6	8333	795.108956095917	2
6	8338	795.413275879689	2
6	8342	795.617359258073	1
6	8347	795.918376557195	2
6	8354	796.224257838245	2
6	8372	800.2	2
6	8375	800.4	1
6	8381	800.708380952754	2
6	8386	801.009582732032	2
6	8391	801.312727965245	2
6	8395	801.521859922619	1
6	8401	801.924602193711	3
6	8409	802.325817233037	3
6	8415	802.730464361362	3
6	8421	803.033070626329	2
6	8443	806.4	4
6	8449	806.9	4
6	8455	807.303016985119	3
6	8462	807.809415132533	4
6	8468	808.018057226579	1
6	8474	808.42165762011	3
6	8480	808.829864104267	3
6	8486	809.143642396989	2
6	8493	809.64882754438	4
6	8498	809.958003216189	2
6	8505	810.258644954574	2
6	8526	814.4	4
6	8530	814.7	2
6	8535	815.000416535052	2
6	8541	815.402840992902	3
6	8548	815.908294576341	4
6	8554	816.109277807404	1
6	8560	816.516265054223	3
6	8566	816.923885794199	3
6	8570	817.133260807677	1
6	8574	817.334667572824	1
6	8579	817.643772642428	2
6	8603	820.6	6
6	8608	821	3
6	8613	821.302950621934	2
6	8620	821.715898794983	3
6	8624	821.923226320759	1
6	8631	822.225456743686	2
6	8636	822.526382968105	2
6	8657	826.3	3
6	8661	826.508530013794	1
6	8665	826.7118518577	1
6	8671	826.922692569807	1
6	8676	827.227080884374	2
6	8682	827.446183629417	1
6	8687	827.746749665	2
6	8698	828.254649701111	4
6	8720	832.4	4
6	8727	833	5
6	8731	833.208632455195	1
6	8738	833.62427891427	3
6	8747	834.125888912564	4
6	8766	838.1	1
6	8769	838.3	1
6	8775	838.609308421447	2
6	8781	839.013160830981	3
6	8786	839.32248950019	2
6	8791	839.625950612579	2
6	8800	840.126500314401	4
6	8824	844.6	6
6	8830	845.1	4
6	8836	845.414244684673	2
6	8840	845.618853088957	1
6	8861	848.3	3
6	8864	848.5	1
6	8871	849.004521819166	4
6	8879	849.610377484065	5
6	8889	850.213687857588	5
6	8896	850.721442976101	4
6	8902	851.130171486228	3
6	8919	854.2	2
6	8923	854.5	2
6	8928	854.806305319904	2
6	8935	855.30906712844	4
6	8941	855.716708065326	3
6	8949	856.121161128558	3
6	8955	856.527042565386	3
6	8961	856.928193710921	3
6	8966	857.23101535621	2
6	8972	857.634760660618	3
6	8981	858.143689458757	4
6	9000	862.2	2
6	9006	862.7	4
6	9012	863.10067458318	3
6	9016	863.305834566081	1
6	9021	863.607438904432	2
6	9040	866.1	1
6	9044	866.4	2
6	9052	867.009257461798	5
6	9057	867.318841961679	2
6	9061	867.522586437883	1
6	9080	870.1	1
6	9083	870.3	1
6	9088	870.608080412847	2
6	9093	870.908693246922	2
6	9099	871.308867895304	3
6	9105	871.716412204155	3
6	9127	874.4	4
6	9131	874.7	2
6	9138	875.205862514497	4
6	9145	875.712027166061	4
6	9149	875.912562896356	1
6	9156	876.221668681169	2
6	9162	876.627974010461	3
6	9168	877.028664850408	3
6	9174	877.432261097463	3
6	9180	877.839882409208	3
6	9200	880.2	2
6	9206	880.601390510506	3
6	9211	880.902831750765	2
6	9218	881.406474316976	4
6	9226	881.908040417957	4
6	9248	884.4	4
6	9253	884.8	3
6	9259	885.201602195664	3
6	9264	885.507102527531	2
6	9270	885.908598129568	3
6	9276	886.110770252808	1
6	9283	886.618073182168	4
6	9288	886.925465185806	2
6	9295	887.426042393004	4
6	9299	887.633396122483	1
6	9307	888.040256717798	3
6	9311	888.248234811922	1
6	9317	888.657570978688	3
6	9337	892.2	2
6	9341	892.5	2
6	9346	892.801763788112	2
6	9351	893.105639740635	2
6	9357	893.509793644679	3
6	9362	893.817715019177	2
6	9371	894.322674368557	4
6	9391	898.2	2
6	9395	898.5	2
6	9400	898.809325460994	2
6	9406	899.124105897524	2
6	9412	899.529929898545	3
6	9416	899.734731601947	1
6	9420	899.94265080084	1
6	9439	902.4	4
6	9442	902.6	1
6	9448	903.006051328738	3
6	9454	903.408323346822	3
6	9459	903.709101672795	2
6	9466	904.011278229875	2
6	9472	904.414004488559	3
6	9478	904.823691016886	3
6	9483	905.132380899713	2
6	9503	908.2	2
6	9507	908.5	2
6	9511	908.702800413416	1
6	9516	909.006508659016	2
6	9521	909.306780456319	2
6	9542	912.3	3
6	9545	912.5	1
6	9551	912.90891567792	3
6	9555	913.11299037116	1
6	9561	913.513021719938	3
6	9583	916.4	4
6	9586	916.6	1
6	9590	916.802281673334	1
6	9594	917.0079148651	1
6	9598	917.213059921543	1
6	9603	917.521717136436	2
6	9607	917.722520487852	1
6	9624	920.2	2
6	9629	920.6	3
6	9634	920.902478970889	2
6	9639	921.209027614066	2
6	9644	921.513006243008	2
6	9650	921.916024362999	3
6	9657	922.22054982488	2
6	9678	926.3	3
6	9681	926.5	1
6	9686	926.805060061071	2
6	9692	927.213630508474	3
6	9700	927.536649777987	2
6	9706	927.939850378932	3
6	9712	928.148742945533	1
6	9716	928.349382276925	1
6	9721	928.657446933638	2
6	9726	928.961508110969	2
6	9731	929.27093825967	2
6	9750	932.2	2
6	9754	932.5	2
6	9761	933.004521574284	4
6	9766	933.313991059629	2
6	9770	933.51612611346	1
6	9776	933.916966818646	3
6	9784	934.317134934785	3
6	9808	938.6	6
6	9814	939.1	4
6	9820	939.500807834523	3
6	9825	939.802015103578	2
6	9832	940.103751563375	2
6	9852	944.2	2
6	9857	944.6	3
6	9865	945.202509060639	5
6	9872	945.619841798161	3
6	9877	945.92875006911	2
6	9886	946.343651758791	3
6	9906	950.2	2
6	9910	950.5	2
6	9915	950.804541226637	2
6	9920	951.108090181471	2
6	9926	951.518003161364	3
6	9932	951.926319632847	3
6	9940	952.327648463745	3
6	9946	952.730151429565	3
6	9950	952.938724420771	1
6	9970	956.2	2
6	9976	956.7	4
6	9980	956.900160465319	1
6	9988	957.312136047951	3
6	9996	957.91634378707	5
6	10004	958.220818506494	2
6	10009	958.529556389877	2