version 2
run Join-52-20130429-12:50:58-17679
attr configname Join
attr datetime 20130429-12:50:58
attr experiment "\"Join\""
attr inifile omnetpp.ini
attr iterationvars $0=1024
attr iterationvars2 "$0=1024, $repetition=2"
attr measurement $0=1024
attr network Network
attr processid 17679
attr repetition 2
attr replication #2
attr resultdir results
attr runnumber 52
attr seedset 52

vector 52  Network.dyn_peer[0]  lookupHopsSig:vector  ETV
52	3099	20.425358476116	6
52	3107	21.028562388581	5
52	3117	21.833428854004	7
52	3147	25.4	14
52	3181	28.3	28
52	3205	30.305043815411	19
52	3211	30.705618838206	3
52	3241	33.310269004773	25
52	3258	34.613280978527	12
52	3270	35.616476827329	9
52	3304	38.4258980602	27
52	3337	41.334374412337	28
52	3375	44.539592270801	31
52	3403	46.940550454439	23
52	3412	47.649722337763	6
52	3439	50.9	9
52	3454	52.1	11
52	3458	52.305893933523	1
52	3484	54.514611294685	21
52	3492	55.024605982073	4
52	3513	56.734231844795	16
52	3523	57.544088932861	7
52	3544	59.252717374931	16
52	3556	60.053526502139	7
52	3583	62.358460638389	22
52	3630	68.7	27
52	3655	70.9	21
52	3666	71.805311270342	8
52	3684	73.209966423131	13
52	3699	74.315436675545	10
52	3707	74.921661188154	5
52	3713	75.32575583339	3
52	3738	77.429586693099	20
52	3749	78.131797097881	6
52	3759	78.934322613281	7
52	3801	82.543038683369	35
52	3820	84.045689022017	14
52	3884	92.2	42
52	3897	93.4	11
52	3904	93.909280619029	4
52	3920	95.119183972167	11
52	3933	96.023819653609	8
52	3945	97.024302681785	9
52	3962	98.329495135776	12
52	3976	99.533506802911	11
52	3997	101.238158553849	16
52	4004	101.744266710543	4
52	4046	105.349925005273	35
52	4075	109.1	11
52	4097	111	18
52	4112	112.100062565086	10
52	4130	113.700893621358	15
52	4149	115.205823192106	14
52	4176	117.513622381764	22
52	4195	119.020933443952	14
52	4202	119.524759044422	4
52	4213	120.227080447863	6
52	4230	121.73152008856	14
52	4252	124.6	6
52	4270	126.1	14
52	4288	127.701208818992	15
52	4308	129.302875929383	15
52	4313	129.612245353205	2
52	4331	131.016245774033	13
52	4350	132.521045786126	14
52	4373	134.425054355855	18
52	4388	135.73336583499	12
52	4422	139.6	16
52	4433	140.4	7
52	4440	140.900394684991	4
52	4449	141.604079780152	6
52	4475	143.809078868678	21
52	4486	144.512775366729	6
52	4513	146.816637572582	22
52	4546	149.718871906894	28
52	4574	153	10
52	4581	153.6	5
52	4595	154.601390120352	9
52	4623	157.0019147761	23
52	4629	157.410213548915	3
52	4674	161.314816747581	38
52	4685	162.022853433707	6
52	4711	164.229514295869	21
52	4742	169.3	13
52	4755	170.3	9
52	4768	171.409138111569	10
52	4789	173.110644187984	16
52	4808	174.620634669736	14
52	4826	176.025098919533	13
52	4835	176.734057807873	6
52	4876	182.1	21
52	4901	184.3	21
52	4930	186.808299933129	24
52	4964	189.817746397957	29
52	4987	191.726855894012	18
52	5008	193.427540132057	16
52	5027	194.937041436457	14
52	5042	196.043830646981	10
52	5048	196.448235648469	3
52	5167	204.4	44
52	5181	205.7	12
52	5197	206.909340906571	11
52	5215	208.3114978657	13
52	5232	209.814227164905	14
52	5238	210.020588651791	1
52	5245	210.520776949438	4
52	5272	215.2	12
52	5277	215.6	3
52	5293	216.809186375662	11
52	5311	218.214968158019	13
52	5328	219.723276526546	14
52	5349	221.430653831367	16
52	5366	222.731354352573	12
52	5408	228.5	25
52	5432	230.6	20
52	5443	231.503503020545	8
52	5462	233.005540613603	14
52	5473	233.913300858418	8
52	5482	234.413538786308	4
52	5487	234.720216904895	2
52	5492	235.026522896972	2
52	5499	235.52868966337	4
52	5532	239.7	17
52	5545	240.7	9
52	5563	242.108586093217	13
52	5576	243.215021772323	10
52	5588	244.016313292394	7
52	5601	245.121045421208	10
52	5616	246.222848472306	10
52	5631	247.531798732096	12
52	5646	248.639503715391	10
52	5659	249.744712381159	10
52	5675	250.946390809026	11
52	5691	252.148559105855	11
52	5703	253.158263325458	9
52	5732	257.3	13
52	5751	258.9	15
52	5768	260.206718381368	12
52	5782	261.414294748962	11
52	5803	263.11474387386	16
52	5817	264.117047763139	9
52	5837	265.921335822195	17
52	5859	267.722083297698	17
52	5870	268.425109114656	6
52	5877	268.92877722914	4
52	5898	272.5	5
52	5911	273.7	11
52	5931	275.30408121292	15
52	5951	276.904526338933	15
52	5969	278.312436704332	13
52	5977	278.913411063662	5
52	6080	285	30
52	6136	289.5	44
52	6152	290.700766213515	11
52	6193	294.203908193986	34
52	6215	296.013221205153	17
52	6228	297.121254888636	10
52	6254	299.323493236913	21
52	6274	300.925488048242	15
52	6314	306	20
52	6337	308	19
52	6353	309.40773619469	13
52	6385	312.017300424254	25
52	6402	313.526683335075	14
52	6417	314.627593235512	10
52	6449	317.431305697668	27
52	6517	324.6	46
52	6526	325.4	7
52	6542	326.602859031998	11
52	6547	326.912141310514	2
52	6552	327.217840225696	2
52	6557	327.519501170582	2
52	6578	329.229154613554	16
52	6583	329.536451574524	2
52	6589	329.943607548011	3
52	6629	334.1	21
52	6645	335.6	14
52	6672	337.90749420142	22
52	6693	339.614256425881	16
52	6710	340.917808554472	12
52	6718	341.519763265705	5
52	6730	342.325668115419	7
52	6757	344.630931894745	22
52	6776	346.140737915407	14
52	6787	347.046194366698	8
52	6808	348.750345359346	16
52	6836	353	10
52	6852	354.3	12
52	6867	355.601976963102	12
52	6890	357.502469760935	18
52	6911	359.203236374614	16
52	6932	360.908053599012	16
52	6949	362.217853005747	12
52	6959	363.027069410266	7
52	6981	364.831136655957	17
52	7004	366.737943980049	18
52	7029	368.846974008751	20
52	7036	369.347477105261	4
52	7058	371.154269646807	17
52	7076	372.558162845922	13
52	7106	375.067133711836	24
52	7132	377.275487706371	21
52	7166	380.084358585792	27
52	7222	386.1	21
52	7228	386.6	4
52	7236	387.200819365968	5
52	7254	388.603492931997	13
52	7262	389.204763413342	5
52	7278	390.412113452637	11
52	7293	391.715831617363	12
52	7312	393.225524219602	14
52	7369	396.9	9
52	7392	397.9	9
52	7472	401.407673480075	34
52	7492	402.208554231975	7
52	7567	406.2	2
52	7605	407.9	16
52	7615	408.507328705734	5
52	7620	408.812760341935	2
52	7632	409.818247494193	9
52	7640	410.21909342339	3
52	7650	411.019269182281	7
52	7659	411.727358276219	6
52	7666	412.030667853296	2
52	7675	412.737892507425	6
52	7687	413.746081452212	9
52	7706	416.3	3
52	7726	418	16
52	7737	418.9092484757	8
52	7758	420.609324949383	16
52	7768	421.415620030652	7
52	7782	422.419441881334	9
52	7793	423.323101535332	8
52	7851	429.8	38
52	7859	430.3	4
52	7874	431.606259107969	12
52	7912	434.811130365382	31
52	7929	436.119227568727	12
52	7936	436.620913796004	4
52	7966	439.225571648108	25
52	8000	442.025811973032	27
52	8006	442.426019321493	3
52	8034	447.2	12
52	8055	449	17
52	8065	449.804993448532	7
52	8076	450.507243345347	6
52	8084	451.116975322167	5
52	8103	452.622074544992	14
52	8112	453.322124793013	6
52	8123	454.030754871319	6
52	8147	456.036850862677	19
52	8200	461.2	12
52	8217	462.6	13
52	8236	464.107186272535	14
52	8247	465.014638153509	8
52	8261	466.019226094348	9
52	8273	467.025950218475	9
52	8289	468.235762771841	11
52	8327	471.641706495937	33
52	8357	474.050662075616	23
52	8394	479.9	19
52	8404	480.6	6
52	8441	483.901651213371	32
52	8479	487.104532682024	31
52	8503	489.11044138698	19
52	8544	492.619230434758	34
52	8563	494.121462954902	14
52	8570	494.629195603977	4
52	8592	498.6	6
52	8602	499.5	8
52	8619	500.804011801495	12
52	8639	502.404292700951	15
52	8660	504.109230640974	16
52	8696	507.312727656954	31
52	8716	508.918923681614	15
52	8787	513.5	15
52	8812	514.5	9
52	8832	515.304463393846	7
52	8858	516.313520087226	9
52	8869	517.218167526231	8
52	8903	520.026696663671	27
52	8935	522.828130206903	27
52	8944	523.53430267261	6
52	8987	526.1	1
52	8994	526.4	2
52	9016	527.308588001953	8
52	9023	527.515090313692	1
52	9049	528.519699680403	9
52	9072	529.526403063124	9
52	9096	530.43353862348	8
52	9127	533.142491620257	26
52	9147	534.747151386795	15
52	9174	537.05206033422	22
52	9218	542.5	25
52	9236	544	14
52	9257	545.90260578623	18
52	9276	547.408934396106	14
52	9294	548.817201155956	13
52	9313	550.321821291182	14
52	9342	552.83178120926	24
52	9376	555.83756417978	29
52	9401	557.939528499412	20
52	9410	558.441930378555	4
52	9444	561.45132807523	29
52	9482	564.655315177265	31
52	9503	568.5	5
52	9530	570.9	23
52	9553	572.805266440734	18
52	9588	575.906140754034	30
52	9603	577.011583094352	10
52	9623	578.613920166049	15
52	9645	580.418170365138	17
52	9674	585.1	11
52	9686	586	8
52	9703	587.500446804543	14
52	9712	588.005907332668	4
52	9731	589.706092867687	16
52	9740	590.211833856241	4
52	9750	591.015415539364	7
52	9770	594.5	5
52	9791	596.3	17
52	9815	598.303763716251	19
52	9828	599.406177947944	10
52	9847	600.914209542778	14
52	9937	607.7	37
52	9967	610.2	24
52	9993	612.401995060499	21
52	10021	614.810282644502	23
52	10033	615.811146975546	9
52	10058	617.91698992449	20
52	10088	620.322227818811	23
52	10110	622.124366581636	17
52	10134	624.134245231308	19
52	10153	625.841942487918	16
52	10182	628.144550985226	22
52	10238	635.7	37
52	10253	636.9	11
52	10268	638.001475466205	10
52	10277	638.70876622273	6
52	10288	639.618038314395	8
52	10304	640.820042474756	11
52	10308	641.027095073554	1
52	10327	644.4	4
52	10353	646.7	22
52	10389	649.907593725323	31
52	10408	651.415963039327	14
52	10437	653.921806736533	24
52	10472	656.824465262233	28
52	10506	659.82580233867	29
52	10531	661.929764350181	20
52	10573	665.53435851858	35
52	10624	668.5	5
52	10661	670.1	15
52	10698	671.80647782464	16
52	10735	674.407899211572	25
52	10756	678.3	3
52	10766	679.2	8
52	10787	680.90382017157	16
52	10808	682.607744043457	16
52	10819	683.508451916304	8
52	10846	685.818432493622	22
52	10893	690.7	27
52	10923	693.4	26
52	10950	695.70484159203	22
52	10962	696.514707038055	7
52	10984	698.318012202998	17
52	11006	700.118398886561	17
52	11023	701.618798552796	14
52	11050	705.2	12
52	11058	705.9	6
52	11067	706.405919977736	4
52	11092	708.5069414953	20
52	11119	710.81405202958	22
52	11135	712.016966690476	11
52	11144	712.723846333896	6
52	11151	713.232718815589	4
52	11178	715.537112025804	22
52	11184	715.94513691791	3
52	11200	717.151292915152	11
52	11246	722.7	27
52	11256	723.6	8
52	11278	725.405068433464	17
52	11297	726.914489471418	14
52	11307	727.717155718441	7
52	11331	729.722275349892	19
52	11346	730.825141690984	10
52	11380	735.6	16
52	11391	736.4	7
52	11400	737.109329191958	6
52	11407	737.611255415256	4
52	11416	738.117145136065	4
52	11425	738.82148009358	6
52	11449	740.822656132679	19
52	11489	746	20
52	11496	746.6	5
52	11515	748.103033735097	14
52	11535	749.911597489755	17
52	11542	750.215700886725	2
52	11559	751.719837565226	14
52	11579	753.326034960299	15
52	11599	754.931649114814	15
52	11616	756.237426489659	12
52	11638	758.047054129266	17
52	11653	759.356152309328	12
52	11688	763.7	17
52	11696	764.2	4
52	11725	766.70506157302	24
52	11746	768.410853865022	16
52	11775	770.916011243251	24
52	11802	773.217266986	22
52	11825	775.126492900785	18
52	11831	775.529845186857	3
52	11845	776.536047076902	9
52	11869	780.6	6
52	11901	783.5	28
52	11933	786.106104241434	25
52	11957	788.108005001462	19
52	11969	789.115770288289	9
52	11997	791.516939362354	23
52	12016	793.022550311513	14
52	12057	798.4	24
52	12066	799.2	7
52	12074	799.802876581649	5
52	12087	800.707998525047	8
52	12098	801.608089419264	8
52	12111	802.51603826178	8
52	12123	803.518814901853	9
52	12135	804.319821290328	7
52	12159	808.8	8
52	12188	811.4	25
52	12252	817.002664315891	55
52	12273	818.704906615223	16
52	12283	819.506809369362	7
52	12292	820.016244325078	4
52	12297	820.317183281452	2
52	12324	822.620639817392	22
52	12401	827.9	19
52	12447	830.2	22
52	12479	833.002546076897	27
52	12498	834.507252870731	14
52	12527	837.012286530782	24
52	12547	838.619801068131	15
52	12571	840.624802705496	19
52	12595	842.628162194429	19
52	12615	844.235930349309	15
52	12633	845.837046586856	15
52	12650	847.141560899176	12
52	12684	851.6	16
52	12693	852.2	5
52	12708	853.501925740197	12
52	12734	855.704855962196	21
52	12738	855.914200512243	1
52	12754	857.119034813274	11
52	12767	858.022510714688	8
52	12788	859.930822333475	18
52	12823	863.7	17
52	12853	866.2	24
52	12882	868.704332243062	24
52	12917	871.811589313924	30
52	12941	873.821344562546	19
52	12960	875.326041635387	14
52	12972	876.130660007228	7
52	12998	878.331911457888	21
52	13006	878.9320374826	5
52	13037	881.64055572188	26
52	13054	882.945732388626	12
52	13074	884.551334793485	15
52	13105	889.3	13
52	13116	890.1	7
52	13127	891.006962053726	8
52	13144	892.309963059983	12
52	13158	893.511111157095	11
52	13174	894.721082508997	11
52	13184	895.522120815634	7
52	13206	898.7	7
52	13217	899.7	9
52	13238	901.403661997832	16
52	13251	902.306534348772	8
52	13262	903.212379170545	8
52	13277	904.31822543052	10
52	13292	905.623320813302	12
52	13316	908.9	9
52	13331	910.1	11
52	13346	911.40600518414	12
52	13363	912.708626677181	12
52	13380	914.012273680103	12
52	13411	916.719914953602	26
52	13445	919.721133422693	29
52	13467	921.527466313477	17
52	13507	926	20
52	13519	927.1	10
52	13540	928.803191102086	16
52	13561	930.507082367345	16
52	13608	936.7	27
52	13629	938.5	17
52	13643	939.709795795434	11
52	13663	941.313109753862	15
52	13687	943.314437271274	19
52	13706	944.820413158476	14
52	13715	945.523097449781	6
52	13728	946.430922659544	8
52	13752	948.433003278336	19
52	13770	952.2	2
52	13775	952.6	3
52	13821	956.604659282367	39
52	13851	959.208433087589	25
52	13875	962.6	6
52	13889	963.9	12
52	13896	964.201984260727	2
52	13922	966.408023240701	21
52	13983	971.917638690995	54
52	14015	974.527209920696	25
52	14034	976.028167498406	14
52	14053	977.731830470653	16
52	14076	979.637520609926	18
52	14095	981.145429406847	14
52	14132	984.247924663055	30
52	14174	990.2	22
52	14192	991.9	16
52	14226	994.709354412823	27
52	14243	996.012633690177	12
52	14260	997.521503794444	14
52	14270	998.125118043168	5
52	14314	1004.4	24
52	14342	1006.9	24
52	14374	1009.70911091784	27
52	14386	1010.516005211276	7
52	14402	1011.922387871403	13
52	14419	1013.230336826309	12
52	14453	1017.6	16
52	14457	1017.9	2
52	14473	1019.10615546406	11
52	14494	1020.811021210974	16
52	14554	1026.019920276139	51
52	14569	1027.322825882035	12
52	14599	1029.927883756629	25
52	14613	1030.932327843215	9
52	14622	1031.635988422811	6
52	14653	1034.142918740924	24
52	14663	1034.94729682663	7
52	14702	1040.1	21
52	14720	1041.8	16
52	14739	1043.306930365082	14
52	14769	1045.908515317518	25
52	14789	1047.512194041829	15
52	14817	1051	10
52	14837	1052.7	16
52	14866	1055.203965482371	24
52	14879	1056.110777220678	8
52	14887	1056.71450723059	5
52	14904	1058.017141981806	12
52	14911	1058.521189670913	4
52	14932	1060.222390946623	16
52	14945	1061.332241694029	10
52	14965	1062.937534938871	15
52	15000	1067.7	17
52	15019	1069.3	15
52	15056	1072.40145654685	30
52	15089	1075.308223522555	28
52	15097	1075.914897850265	5
52	15114	1077.222482159549	12
52	15140	1079.430137038337	21
52	15160	1081.034950443875	15
52	15183	1082.941510498114	18
52	15207	1084.942245976908	19
52	15236	1087.445364269483	24
52	15269	1090.146803137202	26
52	15306	1094.3	3
52	15327	1096.1	17
52	15351	1098.101273064226	19
52	15377	1100.302415719231	21
52	15387	1101.110324743367	7
52	15409	1102.914318978649	17
52	15413	1103.118956559719	1
52	15423	1103.920215433262	7
52	15445	1105.721680978188	17
52	15460	1106.829777169104	10
52	15486	1111	10
52	15516	1113.7	26
52	15546	1116.103203479654	23
52	15572	1118.303738742695	21
52	15600	1120.712440229736	23
52	15620	1122.313548542321	15
52	15646	1124.523357194177	21
52	15673	1126.832123147497	22
52	15685	1127.834230167419	9
52	15698	1128.741908171843	8
52	15709	1129.645160671433	8
52	15719	1130.251626869551	5
52	15756	1135.9	19
52	15766	1136.6	6
52	15787	1138.304193195174	16
52	15804	1139.813813858527	14
52	15824	1141.420791744982	15
52	15847	1143.328725439644	18
52	15867	1144.931534634792	15
52	15889	1146.736075229554	17
52	15917	1149.138649941824	23
52	15962	1154.7	27
52	15970	1155.4	6
52	15999	1157.907797292298	24
52	16018	1159.410523019304	14
52	16035	1160.71182098534	12
52	16046	1161.612589070038	8
52	16062	1162.819998325884	11
52	16075	1163.929910302429	10
52	16081	1164.136776538904	1
52	16105	1166.045510801009	18
52	16118	1167.151621853594	10
52	16122	1167.353534014121	1
52	16171	1170.5	5
52	16198	1171.6	10
52	16226	1172.809737087371	11
52	16246	1173.919299043041	10
52	16258	1174.728216533166	7
52	16293	1179.7	17
52	16329	1182.8	30
52	16361	1185.605566948798	27
52	16392	1188.109966231283	24
52	16404	1189.115861483517	9
52	16423	1190.625396463082	14
52	16446	1192.526080100515	18
52	16462	1193.928514429877	13
52	16490	1196.129728684466	21
52	16516	1200.9	9
52	16538	1202.8	18
52	16561	1204.703945917473	18
52	16596	1207.812627753219	30
52	16619	1209.715241920009	18
52	16642	1211.617361870907	18
52	16658	1212.821744308584	11
52	16713	1219.5	35
52	16731	1221	14
52	16755	1223.002254104686	19
52	16777	1224.807042451488	17
52	16808	1227.512365792066	26
52	16830	1229.316698273332	17
52	16854	1231.319552435875	19
52	16880	1233.522347106211	21
52	16915	1237.7	17
52	16923	1238.2	4
52	16931	1238.805998569249	5
52	16938	1239.307621453925	4
52	16961	1241.213484634092	18
52	16985	1243.215182236147	19
52	17002	1244.518884814465	12
52	17011	1245.225498537586	6
52	17037	1247.43447268244	21
52	17063	1249.63987880312	21
52	17075	1250.447177485894	7
52	17082	1250.954653698306	4
52	17118	1255.8	18
52	17134	1257.1	12
52	17142	1257.700598811656	5
52	17160	1259.107649942135	13
52	17184	1261.112959182396	19
52	17206	1262.919444292284	17
52	17231	1265.024419386823	20
52	17255	1267.02655449366	19
52	17279	1269.027320413196	19
52	17297	1270.432521584548	13
52	17322	1272.534923529384	20
52	17335	1273.642222070881	10
52	17361	1275.851807888488	21
52	17417	1278.9	9
52	17436	1280	10
52	17446	1280.808003509794	7
52	17459	1281.913643111206	10
52	17473	1282.919683145914	9
52	17481	1283.525429573576	5
52	17492	1284.234816865345	6
52	17509	1285.744280099863	14
52	17533	1287.748998792952	19
52	17548	1288.856956851108	10
52	17625	1293.9	19
52	17702	1297.3	33
52	17762	1300.40685090406	30
52	17800	1303.808812144011	33
52	17834	1306.617720660603	27
52	17856	1308.421738835483	17
52	17880	1310.423686196604	19
52	17896	1311.826950207813	13
52	17933	1314.934759753827	30
52	17948	1316.043196839211	10
52	17968	1317.8475701669	17
52	18005	1320.951716439335	30
52	18043	1324.158056411987	31
52	18079	1327.362021336859	31
52	18116	1330.46632266566	30
52	18151	1333.56887139167	30
52	18190	1336.876726919494	32
52	18251	1344	40
52	18268	1345.6	15
52	18284	1346.800853061592	11
52	18314	1349.410310389178	25
52	18330	1350.614983673209	11
52	18340	1351.417150186471	7
52	18382	1356.2	22
52	18389	1356.8	5
52	18406	1358.107884606611	12
52	18439	1361.008045348463	28
52	18453	1362.01265946385	9
52	18465	1363.020686484901	9
52	18483	1364.422690528076	13
52	18504	1366.128512613718	16
52	18513	1366.831376284715	6
52	18552	1370.134919201713	32
52	18603	1377.1	31
52	18629	1379.4	22
52	18656	1381.705148358994	22
52	18685	1384.010657145811	22
52	18697	1385.015770523417	9
52	18708	1385.923558119888	8
52	18739	1388.428879423475	24
52	18746	1388.931980948343	4
52	18794	1394.8	28
52	18806	1395.9	10
52	18824	1397.304341962411	13
52	18838	1398.304538799153	9
52	18865	1400.61020947238	22
52	18890	1402.710787046691	20
52	18916	1404.912643576263	21
52	18941	1407.014751502318	20
52	18965	1409.020922669203	19
52	18984	1410.529852089637	14
52	19008	1412.532495766675	19
52	19065	1419.8	38
52	19084	1421.4	15
52	19108	1423.408596779645	19
52	19123	1424.510420769284	10
52	19139	1425.917819079992	13
52	19149	1426.521241911966	5
52	19179	1429.12975133486	25
52	19204	1431.23796685912	20
52	19229	1433.34213243336	20
52	19254	1435.448502066347	20
52	19270	1436.653066748955	11
52	19294	1438.65922158599	19
52	19319	1440.767424992156	20
52	19364	1446.6	26
52	19376	1447.7	10
52	19391	1448.809677415401	10
52	19404	1449.917828001302	10
52	19419	1451.01986081984	10
52	19450	1453.729833033484	26
52	19475	1455.834049566945	20
52	19500	1457.938660109448	20
52	19534	1460.738844188363	27
52	19574	1466	20
52	19593	1467.8	17
52	19612	1469.309391715296	14
52	19633	1471.012531209553	16
52	19653	1472.620537099116	15
52	19676	1474.525304396636	18
52	19697	1476.228824757748	16
52	19720	1480.8	8
52	19729	1481.6	7
52	19743	1482.606650423137	9
52	19762	1484.113986416023	14
52	19777	1485.419647023008	12
52	19804	1487.72667267018	22
52	19823	1489.234089029952	14
52	19838	1490.343556090578	10
52	19855	1491.851732632672	14
52	19876	1493.557760872212	16
52	19897	1495.261234439275	16
52	19921	1497.268349603704	19
52	19950	1499.771402108076	24
52	19980	1502.176141812024	23
52	20012	1507.4	14
52	20021	1508	5
52	20049	1510.409058196402	23
52	20060	1511.310853081072	8
52	20074	1512.31837713379	9
52	20088	1513.523860581981	11
52	20102	1514.525461150689	9
52	20110	1515.126766521909	5
52	20130	1516.736557421052	15
52	20156	1520.9	9
52	20172	1522.2	12
52	20181	1522.902530854335	6
52	20208	1525.206565155009	22
52	20243	1528.113664467054	28
52	20269	1530.318872742502	21
52	20289	1534.2	2
52	20295	1534.7	4
52	20324	1537.207065077705	24
52	20343	1538.712287657914	14
52	20363	1540.31421159996	15
52	20374	1541.214440145229	8
52	20396	1543.023906957916	17
52	20404	1543.633650355307	5
52	20455	1549.1	31
52	20490	1552.1	29
52	20508	1553.704805230391	15
52	20524	1554.912989590004	11
52	20545	1556.619560053342	16
52	20572	1558.928685666209	22
52	20596	1560.93024899852	19
52	20627	1563.636478843179	26
52	20640	1564.53981842735	8
52	20661	1566.248027155782	16
52	20692	1568.953258078453	26
52	20725	1573.5	15
52	20737	1574.4	8
52	20765	1576.802636699508	23
52	20775	1577.604186406749	7
52	20805	1580.012130200626	23
52	20829	1582.01334339703	19
52	20848	1583.721996709523	16
52	20858	1584.328415249514	5
52	20919	1589.1	11
52	20966	1591.1	19
52	21019	1593.707921242252	25
52	21033	1594.709064044094	9
52	21056	1596.609355506981	18
52	21088	1599.416504935876	27
52	21101	1600.324597440622	8
52	21131	1605.5	15
52	21157	1607.8	22
52	21178	1609.502834994646	16
52	21205	1611.811205921247	22
52	21229	1613.818972867123	19
52	21257	1616.023952950903	21
52	21282	1618.125501796577	20
52	21309	1620.426066920803	22
52	21317	1621.027231758578	5
52	21344	1623.329766110078	22
52	21362	1624.734026061479	13
52	21373	1625.641569252571	8
52	21418	1630.5	25
52	21438	1632.2	16
52	21449	1633.105537298566	8
52	21465	1634.306610506661	11
52	21480	1635.615662308959	12
52	21495	1636.717967494618	10
52	21507	1637.722558800251	9
52	21525	1639.126777591373	13
52	21541	1640.328202089518	11
52	21619	1645.8	18
52	21648	1647	11
52	21662	1647.500347385515	4
52	21676	1648.001926353449	4
52	21693	1649.204879936632	11
52	21701	1649.812212743119	5
52	21710	1650.320114119141	4
52	21732	1654.4	4
52	21769	1657.8	33
52	21783	1658.803463462013	9
52	21804	1660.512052305798	16
52	21812	1661.11755003284	5
52	21851	1664.423462973214	32
52	21876	1666.526302460732	20
52	21899	1668.426417070766	18
52	21925	1673	10
52	21934	1673.8	7
52	21955	1675.505137274819	16
52	21977	1677.311571653293	17
52	22000	1679.214641269923	18
52	22022	1681.0158670057	17
52	22038	1682.217707053769	11
52	22079	1688.4	24
52	22086	1689	5
52	22100	1690.005145159275	9
52	22121	1691.910052745977	18
52	22149	1694.110173026471	21
52	22164	1695.416603256884	12
52	22175	1696.125133344937	6
52	22194	1697.829024713221	16
52	22206	1698.636873225593	7
52	22247	1704.3	23
52	22253	1704.8	4
52	22271	1706.20969957791	13
52	22296	1708.314625422472	20
52	22326	1710.916827320015	25
52	22335	1711.620602283406	6
52	22358	1713.524414358802	18
52	22391	1717.5	15
52	22413	1719.4	18
52	22439	1721.608207693176	21
52	22469	1724.015389259396	23
52	22500	1726.718056210494	26
52	22512	1727.719944541436	9
52	22535	1729.62289195599	18
52	22553	1731.023979439818	13
52	22584	1733.724592037488	26
52	22613	1736.02703611301	22
52	22619	1736.429761171685	3
52	22662	1742.3	23
52	22672	1743.2	8
52	22685	1744.103103382377	8
52	22692	1744.612546474276	4
52	22703	1745.518493479044	8
52	22718	1746.625083286667	10
52	22741	1748.528579431683	18
52	22764	1752.8	8
52	22776	1753.9	10
52	22782	1754.104691324797	1
52	22789	1754.6115523508	4
52	22812	1756.423689758621	17
52	22832	1758.029100672946	15
52	22836	1758.236455795505	1
52	22848	1759.241933614952	9
52	22880	1763.4	14
52	22903	1765.4	19
52	22909	1765.80341990171	3
52	22916	1766.106719734112	2
52	22921	1766.409294193	2
52	22927	1766.818424308315	3
52	22938	1767.718959964733	8
52	22977	1772.2	22
52	22993	1773.7	14
52	23009	1774.900157153126	11
52	23028	1776.401359326445	14
52	23075	1782.7	27
52	23100	1784.9	21
52	23124	1786.905419090914	19
52	23139	1788.014292875868	10
52	23155	1789.41635273975	13
52	23204	1793.72241811595	42
52	23219	1794.831224070022	10
52	23235	1796.038545414112	11
52	23262	1800.9	9
52	23278	1802.2	12
52	23302	1804.205579531772	19
52	23307	1804.510247010378	2
52	23315	1805.119077830371	5
52	23329	1806.12158757309	9
52	23357	1808.525735683036	23
52	23385	1813	10
52	23392	1813.6	5
52	23408	1814.802226522879	11
52	23415	1815.309307809846	4
52	23451	1818.31354398866	29
52	23459	1818.916444080651	5
52	23484	1821.02415919898	20
52	23492	1821.630221872904	5
52	23509	1822.939695845429	12
52	23524	1824.046935844021	10
52	23539	1825.352645621865	12
52	23557	1826.75691001742	13
52	23618	1831.1	11
52	23661	1833	18
52	23709	1835.00764287156	19
52	23732	1836.317212085406	12
52	23809	1841.8	18
52	23820	1842.2	3
52	23832	1842.609627751209	3
52	23880	1844.717789229661	20
52	23922	1847.32019682603	25
52	23935	1848.222114151092	8
52	23943	1848.826159782621	5
52	23954	1849.731400136337	8
52	24003	1854.9	29
52	24012	1855.7	7
52	24024	1856.500002178917	7
52	24046	1858.303242957104	17
52	24064	1859.912219409927	15
52	24081	1861.220347180949	12
52	24105	1863.224810645794	19
52	24130	1865.33436013878	20
52	24156	1867.540262764235	21
52	24176	1869.150252883351	15
52	24199	1871.059284142049	18
52	24228	1875.1	11
52	24237	1875.9	7
52	24244	1876.209824688539	2
52	24262	1877.810199554185	15
52	24286	1879.816858013025	19
52	24310	1881.817750260091	19
52	24316	1882.026991515657	1
52	24327	1882.927369153843	8
52	24420	1888.4	24
52	24446	1889.6	11
52	24458	1890.403575426237	7
52	24464	1890.804066208681	3
52	24482	1892.210605072412	13
52	24488	1892.615694733595	3
52	24511	1894.520752148076	18
52	24533	1896.325509207124	17
52	24555	1898.130708769553	17
52	24572	1899.631342840376	14
52	24605	1903.5	15
52	24627	1905.4	18
52	24652	1907.505989842871	20
52	24670	1908.906152574072	13
52	24692	1910.710379402061	17
52	24714	1912.513021792653	17
52	24725	1913.417199906562	8
52	24753	1915.820064965963	23
52	24773	1917.426842089101	15
52	24794	1919.13298805256	16
52	24824	1921.737426469194	25
52	24845	1923.442953224343	16
52	24868	1926.5	5
52	24876	1927.2	6
52	24903	1929.502883116926	22
52	24914	1930.203841498877	6
52	24922	1930.805283653522	5
52	24947	1932.913937827402	20
52	24976	1935.421333846153	24
52	25012	1939.1	11
52	25030	1940.6	14
52	25057	1942.902117375999	22
52	25082	1945.004473220058	20
52	25096	1946.012623083679	9
52	25110	1947.219735997322	11
52	25115	1947.527483934669	2
52	25128	1948.429801904682	8
52	25138	1949.232723342114	7
52	25159	1950.932856274045	16
52	25180	1952.637761929307	16
52	25194	1953.838912522412	11
52	25216	1955.647325601939	17
52	25243	1957.954386665171	22
52	25266	1959.854739177894	18
52	25286	1961.455587207412	15
52	25307	1964.4	4
52	25314	1965	5
52	25330	1966.20132213803	11
52	25337	1966.704263339354	4
52	25344	1967.212373022995	4
52	25349	1967.514668802194	2
52	25374	1969.624396286402	20
52	25383	1970.125898957692	4
52	25395	1971.132834597122	9
52	25408	1972.03870281499	8
52	25428	1973.840369441009	17
52	25446	1975.244417486493	13
52	25472	1978.9	9
52	25489	1980.3	13
52	25514	1982.408392726131	20
52	25536	1984.210567645555	17
52	25545	1984.916758470405	6
52	25560	1986.020080368791	10
52	25576	1987.424036239026	13
52	25597	1989.125439167582	16
52	25606	1989.834130936996	6
52	25636	1992.2424364783	23
52	25685	1998.9	29
52	25715	2001.6	26
52	25724	2002.109821496759	4
52	25743	2003.819612549575	16
52	25767	2005.825106596268	19
52	25797	2008.231496936575	23
52	25822	2010.33936956333	20
52	25871	2016.9	29
52	25886	2018.1	11
52	25902	2019.50916878479	13
52	25921	2021.015306835874	14
52	25940	2022.516917818678	14
52	25960	2024.117463206509	15
52	25978	2025.722223601576	15
52	25997	2027.226663930979	14
52	26022	2029.334546846814	20
52	26046	2031.3351272783	19
52	26067	2033.035468598891	16
52	26087	2034.641295408932	15
52	26107	2036.243873717677	15
52	26124	2037.74919531674	14
52	26145	2039.457725084378	16
52	26192	2044.8	28
52	26198	2045.3	4
52	26218	2046.9094341733	15
52	26251	2049.818690170445	28
52	26275	2051.824379119418	19
52	26305	2054.22665180323	23
52	26324	2055.936511905747	16
52	26335	2056.637421924646	6
52	26346	2057.539339928247	8
52	26396	2063	30
52	26425	2065.6	25
52	26458	2068.305863615355	26
52	26479	2070.011100740639	16
52	26507	2072.420229605775	23
52	26534	2074.725589327273	22
52	26551	2076.033500812201	12
52	26563	2077.040286158594	9
52	26593	2081.2	12
52	26619	2083.5	22
52	26641	2085.305195968325	17
52	26657	2086.515019870751	11
52	26672	2087.820483015208	12
52	26702	2090.22777525163	23
52	26719	2091.736275828368	14
52	26739	2093.336982584254	15
52	26758	2094.846340464079	14
52	26770	2095.850796208887	9
52	26789	2097.352945135461	14
52	26836	2100.4	4
52	26853	2101.2	7
52	26885	2102.503495502693	12
52	26927	2104.308230950115	17
52	26954	2105.415729495093	10
52	26976	2106.322031183738	8
52	27002	2107.523046420418	11
52	27042	2109.130442833578	15
52	27080	2110.831888278961	16
52	27088	2111.138086251416	2
52	27112	2114.6	6
52	27133	2116.4	17
52	27158	2118.506610629546	20
52	27167	2119.207740912727	6
52	27186	2120.709821449297	14
52	27203	2122.013634343482	12
52	27212	2122.719720502469	6
52	27231	2124.22859589252	14
52	27245	2125.429837290594	11
52	27260	2126.537515738257	10
52	27275	2127.839092726751	12
52	27314	2132.1	21
52	27323	2132.9	7
52	27338	2134.004460808981	10
52	27355	2135.512971933567	14
52	27376	2137.216459943525	16
52	27392	2138.417221361807	11
52	27404	2139.425349514597	9
52	27428	2141.433022664031	19
52	27442	2142.435261356336	9
52	27465	2144.34444221679	18
52	27482	2145.852948516724	14
52	27501	2147.356071351659	14
52	27537	2150.356507521443	29