version 2
run Join-56-20130429-12:51:12-17679
attr configname Join
attr datetime 20130429-12:51:12
attr experiment "\"Join\""
attr inifile omnetpp.ini
attr iterationvars $0=1024
attr iterationvars2 "$0=1024, $repetition=6"
attr measurement $0=1024
attr network Network
attr processid 17679
attr repetition 6
attr replication #6
attr resultdir results
attr runnumber 56
attr seedset 56

vector 56  Network.dyn_peer[0]  lookupHopsSig:vector  ETV
56	3062	20	9
56	3070	20.603805260551	5
56	3079	21.309076399104	6
56	3083	21.515588137949	1
56	3126	26.3	23
56	3146	28	16
56	3158	29.009695273647	9
56	3172	30.018125388952	9
56	3192	31.828024899525	17
56	3224	34.430354142718	25
56	3245	36.13205759244	16
56	3263	37.736559451282	15
56	3296	40.445814578294	26
56	3334	43.852510707036	33
56	3369	46.759079635001	28
56	3395	48.966084714599	21
56	3399	49.168584342947	1
56	3429	53.2	12
56	3443	54.3	10
56	3455	55.309154898549	9
56	3488	58.012006726052	26
56	3503	59.318877560332	12
56	3524	61.020312253819	16
56	3571	64.7	7
56	3590	66.3	15
56	3603	67.405345657523	10
56	3621	68.811172446796	13
56	3633	69.718637688257	8
56	3649	70.919117863959	11
56	3673	72.920915333308	19
56	3694	74.624408909271	16
56	3708	75.824723980645	11
56	3743	79.9	19
56	3754	80.7	7
56	3761	81.202075517757	4
56	3788	83.504903738372	22
56	3805	84.810301612209	12
56	3827	86.618860254167	17
56	3871	90.425547924226	37
56	3901	93.030738227377	25
56	3921	94.630888657295	15
56	3936	95.940835298471	12
56	3962	98.8	8
56	3993	101.6	27
56	4024	104.106249387459	24
56	4055	106.809319641924	26
56	4085	109.410358501741	25
56	4104	110.913203761787	14
56	4127	112.822844341385	18
56	4149	114.629638527142	17
56	4189	118.038312348769	33
56	4219	120.644020670807	25
56	4237	122.044642746405	13
56	4267	127.2	12
56	4282	128.4	11
56	4289	128.900365810797	4
56	4309	130.506619378602	15
56	4319	131.313279275483	7
56	4324	131.617085247038	2
56	4347	133.52441025977	18
56	4358	134.233701173192	6
56	4372	135.442175939622	11
56	4420	140.8	28
56	4427	141.4	5
56	4446	142.905353043954	14
56	4465	144.413144506168	14
56	4478	145.514892272731	10
56	4500	147.319825182038	17
56	4518	148.723848255314	13
56	4571	155.6	36
56	4575	155.9	2
56	4583	156.309913616001	3
56	4587	156.517143422579	1
56	4596	157.217803376221	6
56	4600	157.421876510725	1
56	4647	161.526366451064	40
56	4666	163.027008536823	14
56	4690	165.027679441198	19
56	4714	168.6	6
56	4717	168.8	1
56	4724	169.304104872012	4
56	4758	172.104467361992	27
56	4782	174.106019064217	19
56	4794	175.106439519695	9
56	4818	177.112926606191	19
56	4842	179.114860758711	19
56	4866	181.120693930878	19
56	4892	183.321002643456	21
56	4903	184.028818084148	6
56	4933	186.537532108474	24
56	5013	193.1	31
56	5036	195.1	19
56	5058	196.902663722985	17
56	5073	198.003977604982	10
56	5100	200.30565341567	22
56	5111	201.210671214727	8
56	5116	201.515257378097	2
56	5132	202.72215708411	11
56	5151	204.227967954791	14
56	5173	206.029870368615	17
56	5208	211.7	17
56	5224	213	12
56	5241	214.307104944945	12
56	5257	215.708593223183	13
56	5277	217.313706846616	15
56	5290	218.223432807106	8
56	5317	220.526538207182	22
56	5337	222.130645716584	15
56	5408	227.5	15
56	5447	229.4	18
56	5461	230.401198347772	9
56	5481	232.011190215365	15
56	5508	234.313942556112	22
56	5535	236.61735306389	22
56	5560	238.718172077807	20
56	5584	240.727938802582	19
56	5611	243.036615433348	22
56	5706	248.2	22
56	5750	250.1	18
56	5786	251.807684223838	16
56	5811	253.615129105737	17
56	5828	254.925124526009	12
56	5849	256.630552053462	16
56	5872	258.533613424337	18
56	6013	264.5	25
56	6048	265.5	9
56	6096	266.902518696368	13
56	6116	267.50808600235	5
56	6158	269.117294958938	15
56	6173	269.624471978155	4
56	6216	271.529449739282	18
56	6269	274.4	4
56	6289	275.3	8
56	6344	277.803915383862	24
56	6362	278.505714707227	6
56	6384	280.30676292939	17
56	6398	281.51611065053	11
56	6414	282.723331735582	11
56	6422	283.326301224064	5
56	6440	284.733277157908	13
56	6457	286.041248559981	12
56	6481	288.045214864321	19
56	6501	289.853263936394	17
56	6529	292.062346821371	21
56	6550	293.96631424274	18
56	6577	296.075591905421	20
56	6631	303.4	34
56	6650	305	15
56	6669	306.503270100292	14
56	6691	308.306199909383	17
56	6719	310.70789637464	23
56	6740	312.412568892337	16
56	6763	314.313291466521	18
56	6780	315.815378543379	14
56	6801	317.518001016779	16
56	6868	322.9	29
56	6894	325.2	22
56	6911	326.506960613362	12
56	6940	329.011460512508	24
56	6963	330.920591528645	18
56	6980	332.225200839677	12
56	6998	333.825730494431	15
56	7040	338.2	22
56	7061	340	17
56	7067	340.402890693554	3
56	7071	340.602945604826	1
56	7079	341.210624807568	5
56	7095	342.416491639956	11
56	7129	347.6	16
56	7150	349.4	17
56	7166	350.609859794706	11
56	7175	351.312179715902	6
56	7197	353.118994897374	17
56	7220	355.022639968786	18
56	7248	357.42998950553	23
56	7278	361.5	15
56	7298	363.2	16
56	7307	363.906972983791	6
56	7334	366.013848576396	20
56	7348	367.215671238942	11
56	7355	367.720002746804	4
56	7374	369.227689456255	14
56	7390	370.435935848858	11
56	7404	371.638609795556	11
56	7420	372.846758938503	11
56	7449	377.3	13
56	7469	379	16
56	7475	379.406585219479	3
56	7498	381.312549341118	18
56	7517	382.818429014323	14
56	7524	383.319238834417	4
56	7535	384.024093912468	6
56	7548	385.130921535841	10
56	7562	386.131411912292	9
56	7582	387.934295485689	17
56	7590	388.341553696301	3
56	7597	388.841739430257	4
56	7616	390.348449146337	14
56	7625	391.055921042416	6
56	7654	395.1	11
56	7671	396.5	13
56	7683	397.50386353797	9
56	7701	398.904126718092	13
56	7721	400.50935502227	15
56	7737	401.913148237667	13
56	7758	403.617070728237	16
56	7808	409.3	33
56	7829	411.1	17
56	7847	412.508580735826	13
56	7857	413.31727425605	7
56	7875	414.719045560976	13
56	7889	415.928893799107	11
56	7908	417.433333991852	14
56	7933	419.541475232359	20
56	7983	425	30
56	8007	427.1	20
56	8029	428.904108506038	17
56	8048	430.413774454018	14
56	8073	432.516645771017	20
56	8100	434.817486853323	22
56	8195	440.6	26
56	8242	442.7	20
56	8282	444.402814097572	16
56	8328	446.41101315967	19
56	8358	448.114515777318	16
56	8378	449.919929644462	17
56	8393	451.020131945583	10
56	8416	452.926007614984	18
56	8431	454.029197881657	10
56	8449	455.635095332762	15
56	8465	456.83982914375	11
56	8485	458.448148957412	15
56	8498	459.554650010545	10
56	8523	461.660453645691	20
56	8537	462.668372016173	9
56	8557	466.2	2
56	8578	468	17
56	8602	470.004984368402	19
56	8607	470.30759544575	2
56	8624	471.815671800706	14
56	8644	473.421552608327	15
56	8662	474.831289189687	13
56	8715	481.6	36
56	8727	482.5	8
56	8750	484.409234207069	18
56	8780	487.014801738861	25
56	8797	488.323523192455	12
56	8810	489.430622060585	10
56	8832	491.240516643116	17
56	8859	493.543820434682	22
56	8872	494.444920573082	8
56	8888	495.852758222249	13
56	8902	496.860232538002	9
56	8921	498.367773897741	14
56	8936	499.676698483389	12
56	8952	500.882087318605	11
56	8962	501.685757830584	7
56	8985	503.595532372792	18
56	9019	506.396133926343	27
56	9026	506.903630210347	4
56	9060	509.910102030913	29
56	9082	512.5	5
56	9102	514.2	16
56	9128	516.404320815878	21
56	9134	516.808836653825	3
56	9155	518.517658893136	16
56	9177	520.326629279014	17
56	9198	522.032382081838	16
56	9235	528	20
56	9253	529.7	16
56	9279	531.901755641074	21
56	9293	532.904508970886	9
56	9318	535.014254484687	20
56	9332	536.016269958052	9
56	9347	537.324869887868	12
56	9369	539.126169444496	17
56	9399	543.2	12
56	9410	544	7
56	9431	545.906744190328	18
56	9449	547.307721941004	13
56	9472	549.209702974891	18
56	9493	552.3	3
56	9503	553.2	8
56	9539	556.201617778944	29
56	9552	557.303356685653	10
56	9571	558.805553372016	14
56	9588	560.110385588065	12
56	9599	561.010467912633	8
56	9608	561.711798669592	6
56	9633	564.7	7
56	9653	566.4	16
56	9681	568.803396409666	23
56	9698	570.112728393303	12
56	9745	576.7	27
56	9756	577.7	9
56	9778	579.509875316796	17
56	9796	580.915167457115	13
56	9817	582.619340816047	16
56	9829	583.624827403994	9
56	9837	584.030608705226	3
56	9848	584.938513814417	8
56	9880	589.4	14
56	9900	591.1	16
56	9924	593.10659036919	19
56	9938	594.113548639328	9
56	9956	595.723044888411	15
56	9973	597.032617760699	12
56	9988	598.140286547255	10
56	10001	599.241423701536	10
56	10054	605.5	35
56	10085	608.1	25
56	10090	608.409175697241	2
56	10099	609.115787189784	6
56	10104	609.417274813139	2
56	10111	609.924875987148	4
56	10135	611.932888418828	19
56	10154	613.439472635619	14
56	10181	615.746831332591	22
56	10200	617.251178630165	14
56	10214	618.253200468638	9
56	10238	622.6	6
56	10250	623.7	10
56	10260	624.30937053984	5
56	10282	626.11471316697	17
56	10309	628.419938783216	22
56	10333	632.6	6
56	10339	633.1	4
56	10347	633.707307139146	5
56	10381	636.51024145263	27
56	10391	637.310953259991	7
56	10399	637.91687785646	5
56	10411	638.719585594521	7
56	10419	639.328588774518	5
56	10433	640.337810855418	9
56	10440	640.840724547313	4
56	10468	645.2	12
56	10487	646.8	15
56	10504	648.108679289405	12
56	10520	649.518575327879	13
56	10544	651.52263417793	19
56	10569	653.631443722229	20
56	10589	655.23646500802	15
56	10621	659.7	17
56	10634	660.7	9
56	10656	662.509680070178	17
56	10675	664.011473754252	14
56	10685	664.812013930388	7
56	10704	666.321292485688	14
56	10715	667.227062363675	8
56	10735	668.833827778491	15
56	10746	669.737984183161	8
56	10763	671.038445378106	12
56	10783	672.646594698749	15
56	10803	674.255410505985	15
56	10820	675.758113798205	14
56	10839	677.26353396925	14
56	10864	679.370579700885	20
56	10897	683.6	16
56	10916	685.2	15
56	10939	687.103447268204	18
56	10947	687.7088892864	5
56	10961	688.710386807025	9
56	10982	690.410825746818	16
56	11014	693.215805397196	27
56	11040	695.422197978703	21
56	11069	697.924602982077	24
56	11098	701.1	11
56	11117	702.7	15
56	11129	703.708048734955	9
56	11137	704.110149654651	3
56	11153	705.513808078768	13
56	11195	709.11461659796	35
56	11208	710.02087916409	8
56	11218	710.825166006417	7
56	11227	711.531086298898	6
56	11244	712.839750815583	12
56	11257	713.94023654659	10
56	11265	714.345028935567	3
56	11288	718.7	7
56	11295	719.3	5
56	11321	721.509809292729	21
56	11335	722.516013901284	9
56	11347	723.518654890222	9
56	11361	724.524909426889	9
56	11384	726.431715445041	18
56	11393	727.137615046673	6
56	11436	732.3	23
56	11452	733.8	14
56	11475	735.707071493854	18
56	11495	737.312173548053	15
56	11510	738.416828026164	10
56	11530	740.019013061414	15
56	11550	741.82483077839	17
56	11569	743.330257098397	14
56	11583	744.333031861795	9
56	11616	749.5	15
56	11641	751.7	21
56	11666	753.806238776238	20
56	11683	755.11051317725	12
56	11705	756.917702159971	17
56	11727	758.724391906425	17
56	11749	760.525810618508	17
56	11769	764.5	5
56	11784	765.9	13
56	11799	767.000918658864	10
56	11819	768.604194995781	15
56	11826	769.104895004957	4
56	11841	770.211654373894	10
56	11860	771.917971470113	16
56	11871	772.627754436101	6
56	11944	777.6	16
56	11955	778	3
56	11984	779.208996069859	11
56	12053	782.211972441425	29
56	12122	785.221310158808	29
56	12136	786.22583261102	9
56	12170	789.229863699688	29
56	12195	791.339306930854	20
56	12228	795.7	17
56	12253	797.9	21
56	12263	798.505016205573	5
56	12271	799.105150691069	5
56	12291	800.714701990783	15
56	12304	801.817809794312	10
56	12319	802.922872881304	10
56	12341	804.728224897062	17
56	12358	806.034210051075	12
56	12426	814.6	46
56	12445	816.2	15
56	12451	816.60344301793	3
56	12457	817.008570817615	3
56	12464	817.51450216225	4
56	12480	818.718313105975	11
56	12489	819.420545843732	6
56	12512	822.8	8
56	12527	824	11
56	12548	825.904480214866	18
56	12563	827.013683282711	10
56	12578	828.114655278517	10
56	12592	829.322384580172	11
56	12607	830.424747103663	10
56	12635	835.3	13
56	12660	837.5	21
56	12686	839.703873843413	21
56	12699	840.610890171227	8
56	12709	841.417044590396	7
56	12733	843.426475418946	19
56	12760	845.726709364969	22
56	12782	848.7	7
56	12788	849.2	4
56	12819	851.908425392271	26
56	12849	854.31458797289	23
56	12874	856.419742400342	20
56	12882	857.023732495853	5
56	12905	858.929292432295	18
56	12931	861.130151650495	21
56	12941	861.936701184684	7
56	12968	864.042527244657	20
56	12999	869.3	13
56	13024	871.5	21
56	13034	872.109864611218	5
56	13058	874.110481240679	19
56	13082	876.112489711604	19
56	13086	876.318534471177	1
56	13100	877.521320537087	11
56	13105	877.829781379187	2
56	13122	879.132289908113	12
56	13141	880.633297791161	14
56	13150	881.334216579963	6
56	13164	882.342050293821	9
56	13185	884.049523502981	16
56	13203	885.656150723688	15
56	13228	887.761154833293	20
56	13236	888.165121670073	3
56	13251	889.466840544092	12
56	13271	891.071911706082	15
56	13311	896	20
56	13326	897.4	13
56	13338	898.209669210298	7
56	13367	900.713279207744	24
56	13386	902.215730207934	14
56	13410	904.221322143558	19
56	13440	906.822429365297	25
56	13477	911.9	19
56	13496	913.5	15
56	13527	916.003246637864	24
56	13543	917.404070403123	13
56	13558	918.507514940072	10
56	13572	919.712047640448	11
56	13589	921.020119518853	12
56	13599	921.827338476079	7
56	13614	922.928524290144	10
56	13668	928.7	27
56	13689	930.5	17
56	13713	932.50000408974	19
56	13726	933.601100548785	10
56	13737	934.304861585194	6
56	13761	936.31467652899	19
56	13771	937.117967204516	7
56	13790	938.618371541368	14
56	13811	940.326226684293	16
56	13860	947.1	31
56	13890	949.8	26
56	13910	951.401333203453	15
56	13942	954.001489495537	25
56	13955	955.10785965993	10
56	13981	957.308721373285	21
56	14010	959.810782598288	24
56	14053	964.6	26
56	14057	964.9	2
56	14082	967.001178890741	20
56	14090	967.609386848096	5
56	14123	970.315725597232	26
56	14141	971.920346859323	15
56	14164	973.821365698503	18
56	14192	976.024618204228	21
56	14219	980.9	9
56	14245	983.2	22
56	14264	984.703664930022	14
56	14284	986.308777231417	15
56	14305	988.016326701609	16
56	14314	988.718489233123	6
56	14336	990.522235193106	17
56	14346	991.325162219898	7
56	14395	996.9	29
56	14398	997.1	1
56	14413	998.207965216354	10
56	14431	999.817808248036	15
56	14465	1002.621237157467	27
56	14478	1003.722388354102	10
56	14501	1005.627309344962	18
56	14519	1007.033806370293	13
56	14535	1008.242848505583	11
56	14546	1009.151747545677	8
56	14579	1013.5	15
56	14597	1015	14
56	14613	1016.206549286767	11
56	14637	1018.213024610745	19
56	14649	1019.220492282601	9
56	14676	1021.526947585286	22
56	14694	1022.934290389411	13
56	14725	1027.6	16
56	14759	1030.5	28
56	14789	1033.108833176738	25
56	14821	1035.918774500198	27
56	14837	1037.127081205907	11
56	14866	1039.636443131951	24
56	14898	1042.242874756048	25
56	14913	1043.543134847765	12
56	14928	1044.649647760616	10
56	14933	1044.952175803465	2
56	14966	1049.5	15
56	15003	1052.7	31
56	15007	1052.905415620822	1
56	15028	1054.607915063173	16
56	15056	1057.015526619601	23
56	15076	1058.621570765428	15
56	15103	1062.9	9
56	15134	1065.7	27
56	15145	1066.404217919241	6
56	15160	1067.710424533667	12
56	15191	1071.3	13
56	15214	1073.3	19
56	15229	1074.408365209449	10
56	15244	1075.709922557554	12
56	15263	1077.21411923525	14
56	15278	1078.317955516556	10
56	15315	1081.626657575636	32
56	15333	1083.033099082633	13
56	15358	1085.140799691634	20
56	15405	1090.7	27
56	15423	1092.2	14
56	15448	1094.309617321488	20
56	15456	1094.911016094229	5
56	15488	1099.4	14
56	15498	1100.1	6
56	15521	1102.009539826742	18
56	15546	1104.112986502509	20
56	15564	1105.718840681732	15
56	15588	1107.719652922061	19
56	15614	1109.929461843914	21
56	15626	1110.738310016279	7
56	15664	1116	20
56	15684	1117.9	18
56	15698	1118.909061159787	9
56	15723	1121.012953479157	20
56	15733	1121.822608801736	7
56	15744	1122.525689515061	6
56	15767	1124.435631296496	18
56	15792	1126.539822736406	20
56	15798	1126.948840737631	3
56	15814	1128.157027160189	11
56	15832	1129.766038773189	15
56	15852	1131.375431396524	15
56	15864	1132.180795156059	7
56	15889	1134.285474799198	20
56	15916	1136.588418527554	22
56	15930	1137.793603333994	11
56	15970	1142	20
56	15981	1143	9
56	15995	1144.000684257561	9
56	16009	1145.208588546986	11
56	16044	1148.113529938695	28
56	16058	1149.321553115032	11
56	16069	1150.027172578873	6
56	16100	1155.6	16
56	16110	1156.3	6
56	16119	1157.00426302884	6
56	16143	1159.011298264821	19
56	16162	1160.520501486628	14
56	16178	1161.921704317819	13
56	16198	1163.527712921955	15
56	16203	1163.83565445418	2
56	16242	1167.141392427061	32
56	16266	1170.6	6
56	16279	1171.8	11
56	16304	1173.908088996764	20
56	16323	1175.412769739269	14
56	16352	1177.914685180938	24
56	16375	1179.821243459867	18
56	16405	1182.228526278704	23
56	16445	1185.830805764345	35
56	16469	1187.836961809287	19
56	16501	1190.440852068809	25
56	16528	1192.742593785819	22
56	16549	1194.44491457756	16
56	16571	1196.252209581461	17
56	16608	1201.9	19
56	16635	1204.1	21
56	16665	1206.709361332328	25
56	16693	1209.110296514626	23
56	16710	1210.411030232278	12
56	16739	1212.91646192217	24
56	16766	1215.226396784812	22
56	16791	1219	10
56	16808	1220.4	13
56	16818	1221.206976747002	7
56	16836	1222.610067646188	13
56	16850	1223.815361266677	11
56	16871	1225.519179347458	16
56	16899	1227.928749906451	23
56	16918	1229.436737907868	14
56	16935	1230.741590468705	12
56	16956	1232.448052266666	16
56	16971	1233.756950621478	12
56	16987	1234.964740873089	11
56	17012	1238.9	9
56	17032	1240.6	16
56	17064	1243.402292733944	27
56	17071	1243.909953452432	4
56	17088	1245.210314182342	12
56	17103	1246.311660871401	10
56	17116	1247.416243373255	10
56	17149	1250.124815008413	26
56	17167	1251.73351290382	15
56	17183	1252.939168592307	11
56	17211	1257.1	11
56	17227	1258.4	12
56	17239	1259.401389342879	9
56	17252	1260.307950257269	8
56	17275	1262.211507807144	18
56	17294	1263.915424023306	16
56	17330	1266.919771609458	29
56	17350	1270.2	2
56	17362	1271.3	10
56	17380	1272.707400237501	13
56	17391	1273.612086136322	8
56	17414	1275.521632281837	18
56	17432	1276.922400224217	13
56	17443	1277.829391195742	8
56	17477	1280.638535062952	27
56	17492	1281.946034109633	12
56	17515	1284.5	5
56	17527	1285.6	10
56	17537	1286.202801275986	5
56	17550	1287.303132518403	10
56	17562	1288.112939670766	7
56	17569	1288.615756627058	4
56	17579	1289.425569876704	7
56	17607	1293.3	13
56	17627	1295	16
56	17642	1296.102081046835	10
56	17666	1298.107361311339	19
56	17676	1298.916641836312	7
56	17701	1302.7	7
56	17727	1305	22
56	17736	1305.705185738522	6
56	17765	1308.005634457189	22
56	17782	1309.506992495732	14
56	17798	1310.710273869993	11
56	17812	1311.917413736645	11
56	17823	1312.624070049675	6
56	17868	1318.5	25
56	17879	1319.5	9
56	17902	1321.409912457477	18
56	17936	1324.217024872232	27
56	17966	1326.819002595852	25
56	17985	1328.32149412432	14
56	17996	1329.226088029502	8
56	18012	1330.435115384738	11
56	18042	1333.043086217093	25
56	18058	1334.244164472851	11
56	18099	1340.1	21
56	18110	1341.1	9
56	18140	1343.709143501445	25
56	18153	1344.618318167616	8
56	18179	1346.824615398024	21
56	18197	1348.231684400099	13
56	18221	1350.234350853894	19
56	18247	1352.435522396302	21
56	18273	1354.639075349216	21
56	18288	1355.946878092629	12
56	18311	1357.847614813379	18
56	18340	1360.154197594488	22
56	18365	1362.256639282514	20
56	18384	1363.962899225788	16
56	18419	1367.8	18
56	18432	1368.8	9
56	18459	1371.105025021943	22
56	18473	1372.110908521676	9
56	18500	1374.420424917302	22
56	18505	1374.72714024606	2
56	18533	1377.128262815993	23
56	18548	1378.234294645442	10
56	18582	1381.234438064215	29
56	18612	1385.2	12
56	18636	1387.3	20
56	18656	1388.900910958976	15
56	18667	1389.802289069553	8
56	18675	1390.206977873453	3
56	18692	1391.707257558222	14
56	18717	1393.810420124217	20
56	18733	1395.016570364069	11
56	18743	1395.822489454082	7
56	18761	1397.224274819643	13
56	18792	1399.933890752092	26
56	18819	1402.041119293184	20
56	18839	1403.848497512533	17
56	18848	1404.351704035072	4
56	18878	1409.3	13
56	18893	1410.5	11
56	18917	1412.506447000298	19
56	18931	1413.707989505654	11
56	18954	1415.611953086525	18
56	18976	1417.417694669813	17
56	18997	1419.119344251218	16
56	19013	1420.325864700525	11
56	19034	1424.3	3
56	19059	1426.5	21
56	19071	1427.509281436121	9
56	19080	1428.018616471998	4
56	19109	1430.528175360015	24
56	19140	1435.3	13
56	19146	1435.8	4
56	19166	1437.405490705703	15
56	19182	1438.608341394384	11
56	19188	1439.010411142632	3
56	19199	1439.916341816032	8
56	19248	1444.9	29
56	19271	1446.9	19
56	19292	1448.600622290095	16
56	19307	1449.903353965083	12
56	19322	1451.007080563016	10
56	19342	1452.613099097693	15
56	19353	1453.519336485277	8
56	19387	1457.9	19
56	19423	1461	30
56	19432	1461.702515737859	6
56	19449	1463.009038795574	12
56	19473	1465.012644238601	19
56	19478	1465.31400624865	2
56	19490	1466.114171969322	7
56	19510	1467.9178474049	17
56	19521	1468.623725480163	6
56	19546	1470.730252582114	20
56	19566	1472.334308131071	15
56	19585	1476.2	2
56	19598	1477.4	11
56	19611	1478.309497147896	8
56	19626	1479.610828210229	12
56	19653	1481.919460656949	22
56	19691	1485.12127082425	31
56	19719	1487.529445683889	23
56	19738	1489.029916958103	14
56	19770	1493.4	14
56	19802	1496.1	26
56	19829	1498.401917174947	22
56	19851	1500.203029488755	17
56	19874	1502.112063186773	18
56	19902	1504.513897612566	23
56	19924	1506.321229608648	17
56	19951	1508.628197232978	22
56	19959	1509.235930177643	5
56	20044	1514.2	22
56	20075	1515.5	12
56	20097	1516.403359080881	8
56	20129	1517.811017307093	13
56	20198	1520.815365977502	29
56	20216	1522.220718103338	13
56	20232	1523.628861176581	13
56	20247	1524.737034085048	10
56	20264	1526.045562385969	12
56	20281	1527.547274691624	14
56	20300	1529.047949941832	14
56	20327	1533.1	11
56	20350	1535.1	19
56	20363	1536.006819640228	8
56	20370	1536.50800265121	4
56	20397	1538.814712940968	22
56	20417	1540.423940626244	15
56	20422	1540.726999256972	2
56	20457	1545.7	17
56	20477	1547.4	16
56	20501	1549.406350087416	19
56	20512	1550.106906925853	6
56	20537	1552.21378421079	20
56	20544	1552.716515556535	4
56	20575	1555.419943910993	26
56	20590	1556.521283175155	10
56	20618	1558.923918139875	23
56	20655	1563.9	19
56	20684	1566.3	23
56	20694	1567.10805514222	7
56	20712	1568.512608764071	13
56	20725	1569.617524222107	10
56	20740	1570.723467220197	10
56	20754	1571.924396392717	11
56	20784	1574.324680695559	23
56	20797	1575.432350965528	10
56	20832	1579.8	18
56	20861	1582.2	23
56	20884	1584.106439065476	18
56	20909	1586.210421443401	20
56	20922	1587.319482645863	10
56	20946	1589.327206061077	19
56	20961	1590.434732559336	10
56	20975	1591.642591799913	11
56	21013	1596	20
56	21019	1596.5	4
56	21030	1597.409547064397	8
56	21047	1598.713759930303	12
56	21071	1600.718412617148	19
56	21077	1601.123317105668	3
56	21111	1605.6	16
56	21120	1606.2	5
56	21146	1608.409061036899	21
56	21155	1609.114500271423	6
56	21175	1610.721288444999	15
56	21204	1615.1	11
56	21217	1616.1	9
56	21241	1618.106822658726	19
56	21288	1622.215829413903	40
56	21313	1624.316415455406	20
56	21326	1625.419267942257	10
56	21354	1627.825163996875	23
56	21372	1629.229897366919	13
56	21402	1631.834616225362	25
56	21422	1633.436235595648	15
56	21440	1634.844041920613	13
56	21450	1635.644513701599	7
56	21473	1638.5	5
56	21494	1640.3	17
56	21518	1642.301607002869	19
56	21528	1643.104676350887	7
56	21536	1643.707454130918	5
56	21562	1646.8	8
56	21581	1648.4	15
56	21601	1650.003502261149	15
56	21632	1652.705176695307	26
56	21649	1654.015098904803	12
56	21687	1657.417807960464	33
56	21701	1658.42327114572	9
56	21718	1659.924460420028	14
56	21749	1662.432824799906	24
56	21763	1663.638794615586	11
56	21854	1667.4	14
56	21888	1669	15
56	21911	1670.900634922538	18
56	21941	1673.510305361604	25
56	21961	1675.117066755467	15
56	21979	1676.523380826949	13
56	22011	1679.331634661422	27
56	22039	1683.3	13
56	22060	1685.1	17
56	22087	1687.405204443759	22
56	22112	1689.51484620165	20
56	22128	1690.716803933253	11
56	22137	1691.424455169133	6
56	22153	1692.626504247578	11
56	22167	1693.827318987278	11
56	22178	1694.536455630159	6
56	22194	1695.937074915035	13
56	22202	1696.338021023005	3
56	22240	1702	20
56	22265	1704.2	21
56	22281	1705.601109135244	13
56	22298	1706.907779267916	12
56	22307	1707.608244808664	6
56	22333	1709.81453235107	21
56	22367	1712.621225416131	27
56	22390	1714.525176503881	18
56	22473	1720.1	21
56	22492	1721.9	17
56	22513	1723.603821214069	16
56	22530	1724.910469982758	12
56	22557	1727.215931547602	22
56	22574	1728.52355517109	12
56	22580	1728.927079328506	3
56	22617	1732.030432777069	30
56	22647	1734.636892678627	25
56	22677	1737.244827511467	25
56	22701	1739.245418824383	19
56	22724	1741.152467985536	18
56	22795	1745.6	16
56	22836	1747.5	18
56	22867	1749.304787986394	17
56	22909	1752.913736334789	35
56	22932	1754.815855957894	18
56	22954	1756.624567522055	17
56	22976	1758.432642108474	17
56	23000	1760.433436213761	19
56	23012	1761.441209851495	9
56	23023	1762.148542225711	6
56	23049	1764.352439873219	21
56	23071	1766.156259823453	17
56	23077	1766.559555340439	3
56	23098	1768.259967344025	16
56	23113	1769.563758042365	12
56	23210	1774.6	26
56	23227	1775.4	7
56	23257	1776.605307843033	11
56	23286	1778.010001259171	13
56	23311	1780.1118596672	20
56	23330	1781.815667011059	16
56	23352	1783.623551190303	17
56	23376	1785.629530118758	19
56	23394	1787.029922367158	13
56	23408	1788.034066649159	9
56	23435	1790.343651894182	22
56	23452	1791.845352154094	14
56	23479	1794.9	9
56	23499	1796.6	16
56	23514	1797.905845628122	12
56	23531	1799.214275733271	12
56	23539	1799.822089602606	5
56	23561	1801.623780044381	17
56	23588	1803.925729765902	22
56	23609	1805.634135309428	16
56	23633	1807.642451820699	19
56	23686	1813.3	33
56	23702	1814.6	12
56	23706	1814.807662660481	1
56	23724	1816.209525576065	13
56	23740	1817.611758699455	13
56	23764	1819.620397161942	19
56	23798	1822.42649605111	27
56	23827	1824.929991632872	24
56	23845	1826.330457201124	13
56	23872	1828.640342813566	22
56	23897	1830.742650690599	20
56	23910	1831.849894044109	10
56	23928	1833.25956119299	13
56	23963	1837.8	18
56	23986	1839.8	19
56	24022	1842.807143613051	29
56	24026	1843.011197364816	1
56	24046	1844.616669938861	15
56	24056	1845.419564470402	7
56	24071	1846.520212571725	10
56	24084	1847.628071023998	10
56	24119	1851.7	17
56	24132	1852.7	9
56	24145	1853.801403576731	10
56	24168	1855.705801251318	18
56	24189	1857.413841508428	16
56	24211	1859.214867833302	17
56	24219	1859.815014049551	5
56	24239	1861.42477204527	15
56	24273	1865.6	16
56	24283	1866.3	6
56	24289	1866.70635761454	3
56	24298	1867.41495087739	6
56	24321	1869.322858724283	18
56	24329	1869.932336268847	5
56	24336	1870.234432798205	2
56	24362	1875.1	11
56	24393	1877.9	27
56	24415	1879.70307884464	17
56	24441	1881.912315462939	21
56	24477	1884.913112053174	29
56	24483	1885.313889671593	3
56	24501	1886.716979838738	13
56	24514	1887.81884362681	10
56	24523	1888.324872913331	4
56	24530	1888.829437300391	4
56	24564	1893.6	16
56	24582	1895.1	14
56	24601	1896.609070401247	14
56	24624	1898.512378310576	18
56	24647	1900.42027489641	18
56	24658	1901.329563136357	8
56	24677	1902.835873047069	14
56	24722	1908.8	28
56	24747	1911	21
56	24771	1913.001088912342	19
56	24799	1915.40555937027	23
56	24827	1917.812756435295	23
56	24841	1918.815420362557	9
56	24853	1919.824142161934	9
56	24872	1921.324803204196	14
56	24890	1922.731209491451	13
56	24912	1924.532021340065	17
56	24939	1928.9	9
56	24958	1930.5	15
56	24966	1931.103565420475	5
56	24989	1933.007560532201	18
56	25012	1934.90966113111	18
56	25019	1935.412712521236	4
56	25039	1937.017465691146	15
56	25079	1942.3	23
56	25110	1945.1	27
56	25119	1945.804509063502	6
56	25133	1946.811888862237	9
56	25160	1949.112931014991	22
56	25188	1951.519925249395	23
56	25210	1953.329103257077	17
56	25239	1957.1	11
56	25259	1958.8	16
56	25282	1960.701154160348	18
56	25314	1963.503868001636	27
56	25371	1969.7	37
56	25387	1971	12
56	25393	1971.402376028266	3
56	25411	1972.806313801067	13
56	25429	1974.207917006757	13
56	25447	1975.811907005706	15
56	25457	1976.416259117976	5
56	25462	1976.719807104633	2
56	25471	1977.423876831167	6
56	25481	1978.024610755723	5
56	25489	1978.627768744211	5
56	25494	1978.932938618959	2
56	25548	1985.5	35
56	25561	1986.5	9
56	25572	1987.40846733161	8
56	25592	1989.016967646903	15
56	25610	1990.418691241545	13
56	25643	1993.321327876978	28
56	25670	1995.626564357088	22
56	25695	1997.734296781595	20
56	25715	1999.335025327407	15
56	25732	2000.639997321494	12
56	25813	2006.1	21
56	25842	2008.4	22
56	25854	2009.313256726631	8
56	25873	2010.814073900729	14
56	25884	2011.722594544442	8
56	25888	2011.92610319795	1
56	25921	2015.5	15
56	25936	2016.7	11
56	25959	2018.602262787737	18
56	25977	2020.00380380886	13
56	25986	2020.71327372785	6
56	26007	2022.422799769654	16
56	26030	2024.323901899845	18
56	26047	2025.828701308489	14
56	26066	2027.334342492123	14
56	26093	2029.635429477191	22
56	26102	2030.144118715135	4
56	26151	2035.8	18
56	26187	2038.9	30
56	26202	2040.001577444828	10
56	26217	2041.302826104855	12
56	26234	2042.606171730974	12
56	26255	2044.308155085775	16
56	26278	2046.208912438354	18
56	26307	2048.713158602723	24
56	26319	2049.72293907795	9
56	26353	2053.6	16
56	26364	2054.4	7
56	26377	2055.505938067361	10
56	26398	2057.207833454531	16
56	26423	2059.314173908588	20
56	26448	2061.415009639119	20
56	26465	2062.721659958956	12
56	26490	2064.82430032455	20
56	26547	2071.9	39
56	26569	2073.8	18
56	26586	2075.108629508756	12
56	26607	2076.808702543633	16
56	26634	2079.109330184118	22
56	26652	2080.518256373662	13
56	26681	2083.027067599199	24
56	26710	2087.1	11
56	26716	2087.6	4
56	26731	2088.703107079761	10
56	26741	2089.506129042056	7
56	26775	2092.315251449452	27
56	26800	2094.420636746891	20
56	26826	2096.628942967437	21
56	26849	2098.536634149002	18
56	26864	2099.839405688496	12
56	26885	2102.3	3
56	26901	2103.8	14
56	26915	2104.801611964884	9
56	26922	2105.30225599707	4
56	26950	2107.709442475641	23
56	26968	2109.114594690895	13
56	26976	2109.722866350568	5
56	26989	2110.629713171354	8
56	27009	2112.235531997984	15
56	27023	2113.440320477828	11
56	27066	2118.3	23
56	27078	2119.4	10
56	27085	2119.904918369913	4
56	27115	2122.313208942081	23
56	27125	2123.120669296435	7
56	27134	2123.821770430172	6
56	27147	2124.731327230527	8
56	27158	2125.636406566267	8
56	27175	2126.94217048888	12