version 2
run Stability2-286-20130526-00:53:57-26640
attr configname Stability2
attr datetime 20130526-00:53:57
attr experiment Stability2
attr inifile omnetpp.ini
attr iterationvars $0=500
attr iterationvars2 "$0=500, $repetition=16"
attr measurement $0=500
attr network Network
attr processid 26640
attr repetition 16
attr replication #16
attr resultdir results
attr runnumber 286
attr seedset 286

vector 861286  Network.churner  inGoingSizeSig:vector  ETV
vector 858292  Network.dyn_peer[2]  lookupHopsSig:vector  ETV
vector 858293  Network.dyn_peer[2]  lookupStabilitySig:vector  ETV
vector 858294  Network.dyn_peer[2]  lookupTimeSig:vector  ETV
vector 858307  Network.dyn_peer[7]  lookupHopsSig:vector  ETV
vector 858308  Network.dyn_peer[7]  lookupStabilitySig:vector  ETV
vector 858309  Network.dyn_peer[7]  lookupTimeSig:vector  ETV
vector 858331  Network.dyn_peer[15]  lookupHopsSig:vector  ETV
vector 858332  Network.dyn_peer[15]  lookupStabilitySig:vector  ETV
vector 858333  Network.dyn_peer[15]  lookupTimeSig:vector  ETV
vector 858346  Network.dyn_peer[20]  lookupHopsSig:vector  ETV
vector 858347  Network.dyn_peer[20]  lookupStabilitySig:vector  ETV
vector 858348  Network.dyn_peer[20]  lookupTimeSig:vector  ETV
vector 858358  Network.dyn_peer[24]  lookupHopsSig:vector  ETV
vector 858359  Network.dyn_peer[24]  lookupStabilitySig:vector  ETV
vector 858360  Network.dyn_peer[24]  lookupTimeSig:vector  ETV
vector 858367  Network.dyn_peer[27]  lookupHopsSig:vector  ETV
vector 858368  Network.dyn_peer[27]  lookupStabilitySig:vector  ETV
vector 858369  Network.dyn_peer[27]  lookupTimeSig:vector  ETV
vector 858370  Network.dyn_peer[28]  lookupHopsSig:vector  ETV
vector 858371  Network.dyn_peer[28]  lookupStabilitySig:vector  ETV
vector 858372  Network.dyn_peer[28]  lookupTimeSig:vector  ETV
vector 858388  Network.dyn_peer[34]  lookupHopsSig:vector  ETV
vector 858389  Network.dyn_peer[34]  lookupStabilitySig:vector  ETV
vector 858390  Network.dyn_peer[34]  lookupTimeSig:vector  ETV
vector 858427  Network.dyn_peer[47]  lookupHopsSig:vector  ETV
vector 858428  Network.dyn_peer[47]  lookupStabilitySig:vector  ETV
vector 858429  Network.dyn_peer[47]  lookupTimeSig:vector  ETV
vector 858496  Network.dyn_peer[70]  lookupHopsSig:vector  ETV
vector 858497  Network.dyn_peer[70]  lookupStabilitySig:vector  ETV
vector 858498  Network.dyn_peer[70]  lookupTimeSig:vector  ETV
vector 858634  Network.dyn_peer[116]  lookupHopsSig:vector  ETV
vector 858635  Network.dyn_peer[116]  lookupStabilitySig:vector  ETV
vector 858636  Network.dyn_peer[116]  lookupTimeSig:vector  ETV
vector 858355  Network.dyn_peer[23]  lookupHopsSig:vector  ETV
vector 858356  Network.dyn_peer[23]  lookupStabilitySig:vector  ETV
vector 858357  Network.dyn_peer[23]  lookupTimeSig:vector  ETV
vector 858376  Network.dyn_peer[30]  lookupHopsSig:vector  ETV
vector 858377  Network.dyn_peer[30]  lookupStabilitySig:vector  ETV
vector 858378  Network.dyn_peer[30]  lookupTimeSig:vector  ETV
vector 858418  Network.dyn_peer[44]  lookupHopsSig:vector  ETV
vector 858419  Network.dyn_peer[44]  lookupStabilitySig:vector  ETV
vector 858420  Network.dyn_peer[44]  lookupTimeSig:vector  ETV
vector 858421  Network.dyn_peer[45]  lookupHopsSig:vector  ETV
vector 858422  Network.dyn_peer[45]  lookupStabilitySig:vector  ETV
vector 858423  Network.dyn_peer[45]  lookupTimeSig:vector  ETV
vector 858433  Network.dyn_peer[49]  lookupHopsSig:vector  ETV
vector 858434  Network.dyn_peer[49]  lookupStabilitySig:vector  ETV
vector 858435  Network.dyn_peer[49]  lookupTimeSig:vector  ETV
vector 858772  Network.dyn_peer[162]  lookupHopsSig:vector  ETV
vector 858773  Network.dyn_peer[162]  lookupStabilitySig:vector  ETV
vector 858774  Network.dyn_peer[162]  lookupTimeSig:vector  ETV
vector 858493  Network.dyn_peer[69]  lookupHopsSig:vector  ETV
vector 858494  Network.dyn_peer[69]  lookupStabilitySig:vector  ETV
vector 858495  Network.dyn_peer[69]  lookupTimeSig:vector  ETV
vector 858526  Network.dyn_peer[80]  lookupHopsSig:vector  ETV
vector 858527  Network.dyn_peer[80]  lookupStabilitySig:vector  ETV
vector 858528  Network.dyn_peer[80]  lookupTimeSig:vector  ETV
vector 858550  Network.dyn_peer[88]  lookupHopsSig:vector  ETV
vector 858551  Network.dyn_peer[88]  lookupStabilitySig:vector  ETV
vector 858552  Network.dyn_peer[88]  lookupTimeSig:vector  ETV
vector 858580  Network.dyn_peer[98]  lookupHopsSig:vector  ETV
vector 858581  Network.dyn_peer[98]  lookupStabilitySig:vector  ETV
vector 858582  Network.dyn_peer[98]  lookupTimeSig:vector  ETV
vector 858583  Network.dyn_peer[99]  lookupHopsSig:vector  ETV
vector 858584  Network.dyn_peer[99]  lookupStabilitySig:vector  ETV
vector 858585  Network.dyn_peer[99]  lookupTimeSig:vector  ETV
vector 858301  Network.dyn_peer[5]  lookupHopsSig:vector  ETV
vector 858302  Network.dyn_peer[5]  lookupStabilitySig:vector  ETV
vector 858303  Network.dyn_peer[5]  lookupTimeSig:vector  ETV
vector 858304  Network.dyn_peer[6]  lookupHopsSig:vector  ETV
vector 858305  Network.dyn_peer[6]  lookupStabilitySig:vector  ETV
vector 858306  Network.dyn_peer[6]  lookupTimeSig:vector  ETV
vector 858313  Network.dyn_peer[9]  lookupHopsSig:vector  ETV
vector 858314  Network.dyn_peer[9]  lookupStabilitySig:vector  ETV
vector 858315  Network.dyn_peer[9]  lookupTimeSig:vector  ETV
vector 858316  Network.dyn_peer[10]  lookupHopsSig:vector  ETV
vector 858317  Network.dyn_peer[10]  lookupStabilitySig:vector  ETV
vector 858318  Network.dyn_peer[10]  lookupTimeSig:vector  ETV
vector 858637  Network.dyn_peer[117]  lookupHopsSig:vector  ETV
vector 858638  Network.dyn_peer[117]  lookupStabilitySig:vector  ETV
vector 858639  Network.dyn_peer[117]  lookupTimeSig:vector  ETV
vector 858646  Network.dyn_peer[120]  lookupHopsSig:vector  ETV
vector 858647  Network.dyn_peer[120]  lookupStabilitySig:vector  ETV
vector 858648  Network.dyn_peer[120]  lookupTimeSig:vector  ETV
vector 858961  Network.dyn_peer[225]  lookupHopsSig:vector  ETV
vector 858962  Network.dyn_peer[225]  lookupStabilitySig:vector  ETV
vector 858963  Network.dyn_peer[225]  lookupTimeSig:vector  ETV
vector 858682  Network.dyn_peer[132]  lookupHopsSig:vector  ETV
vector 858683  Network.dyn_peer[132]  lookupStabilitySig:vector  ETV
vector 858684  Network.dyn_peer[132]  lookupTimeSig:vector  ETV
vector 858391  Network.dyn_peer[35]  lookupHopsSig:vector  ETV
vector 858392  Network.dyn_peer[35]  lookupStabilitySig:vector  ETV
vector 858393  Network.dyn_peer[35]  lookupTimeSig:vector  ETV
vector 858463  Network.dyn_peer[59]  lookupHopsSig:vector  ETV
vector 858464  Network.dyn_peer[59]  lookupStabilitySig:vector  ETV
vector 858465  Network.dyn_peer[59]  lookupTimeSig:vector  ETV
vector 858766  Network.dyn_peer[160]  lookupHopsSig:vector  ETV
vector 858767  Network.dyn_peer[160]  lookupStabilitySig:vector  ETV
vector 858768  Network.dyn_peer[160]  lookupTimeSig:vector  ETV
vector 858475  Network.dyn_peer[63]  lookupHopsSig:vector  ETV
vector 858476  Network.dyn_peer[63]  lookupStabilitySig:vector  ETV
vector 858477  Network.dyn_peer[63]  lookupTimeSig:vector  ETV
vector 858487  Network.dyn_peer[67]  lookupHopsSig:vector  ETV
vector 858488  Network.dyn_peer[67]  lookupStabilitySig:vector  ETV
vector 858489  Network.dyn_peer[67]  lookupTimeSig:vector  ETV
vector 858871  Network.dyn_peer[195]  lookupHopsSig:vector  ETV
vector 858872  Network.dyn_peer[195]  lookupStabilitySig:vector  ETV
vector 858873  Network.dyn_peer[195]  lookupTimeSig:vector  ETV
vector 858577  Network.dyn_peer[97]  lookupHopsSig:vector  ETV
vector 858578  Network.dyn_peer[97]  lookupStabilitySig:vector  ETV
vector 858579  Network.dyn_peer[97]  lookupTimeSig:vector  ETV
vector 858289  Network.dyn_peer[1]  lookupHopsSig:vector  ETV
vector 858290  Network.dyn_peer[1]  lookupStabilitySig:vector  ETV
vector 858291  Network.dyn_peer[1]  lookupTimeSig:vector  ETV
vector 858895  Network.dyn_peer[203]  lookupHopsSig:vector  ETV
vector 858896  Network.dyn_peer[203]  lookupStabilitySig:vector  ETV
vector 858897  Network.dyn_peer[203]  lookupTimeSig:vector  ETV
vector 858319  Network.dyn_peer[11]  lookupHopsSig:vector  ETV
vector 858320  Network.dyn_peer[11]  lookupStabilitySig:vector  ETV
vector 858321  Network.dyn_peer[11]  lookupTimeSig:vector  ETV
vector 858325  Network.dyn_peer[13]  lookupHopsSig:vector  ETV
vector 858326  Network.dyn_peer[13]  lookupStabilitySig:vector  ETV
vector 858327  Network.dyn_peer[13]  lookupTimeSig:vector  ETV
vector 858640  Network.dyn_peer[118]  lookupHopsSig:vector  ETV
vector 858641  Network.dyn_peer[118]  lookupStabilitySig:vector  ETV
vector 858642  Network.dyn_peer[118]  lookupTimeSig:vector  ETV
vector 858343  Network.dyn_peer[19]  lookupHopsSig:vector  ETV
vector 858344  Network.dyn_peer[19]  lookupStabilitySig:vector  ETV
vector 858345  Network.dyn_peer[19]  lookupTimeSig:vector  ETV
vector 858364  Network.dyn_peer[26]  lookupHopsSig:vector  ETV
vector 858365  Network.dyn_peer[26]  lookupStabilitySig:vector  ETV
vector 858366  Network.dyn_peer[26]  lookupTimeSig:vector  ETV
vector 858985  Network.dyn_peer[233]  lookupHopsSig:vector  ETV
vector 858986  Network.dyn_peer[233]  lookupStabilitySig:vector  ETV
vector 858987  Network.dyn_peer[233]  lookupTimeSig:vector  ETV
vector 858697  Network.dyn_peer[137]  lookupHopsSig:vector  ETV
vector 858698  Network.dyn_peer[137]  lookupStabilitySig:vector  ETV
vector 858699  Network.dyn_peer[137]  lookupTimeSig:vector  ETV
vector 858403  Network.dyn_peer[39]  lookupHopsSig:vector  ETV
vector 858404  Network.dyn_peer[39]  lookupStabilitySig:vector  ETV
vector 858405  Network.dyn_peer[39]  lookupTimeSig:vector  ETV
vector 859012  Network.dyn_peer[242]  lookupHopsSig:vector  ETV
vector 859013  Network.dyn_peer[242]  lookupStabilitySig:vector  ETV
vector 859014  Network.dyn_peer[242]  lookupTimeSig:vector  ETV
vector 859027  Network.dyn_peer[247]  lookupHopsSig:vector  ETV
vector 859028  Network.dyn_peer[247]  lookupStabilitySig:vector  ETV
vector 859029  Network.dyn_peer[247]  lookupTimeSig:vector  ETV
vector 859084  Network.dyn_peer[266]  lookupHopsSig:vector  ETV
vector 859085  Network.dyn_peer[266]  lookupStabilitySig:vector  ETV
vector 859086  Network.dyn_peer[266]  lookupTimeSig:vector  ETV
vector 858499  Network.dyn_peer[71]  lookupHopsSig:vector  ETV
vector 858500  Network.dyn_peer[71]  lookupStabilitySig:vector  ETV
vector 858501  Network.dyn_peer[71]  lookupTimeSig:vector  ETV
vector 858799  Network.dyn_peer[171]  lookupHopsSig:vector  ETV
vector 858800  Network.dyn_peer[171]  lookupStabilitySig:vector  ETV
vector 858801  Network.dyn_peer[171]  lookupTimeSig:vector  ETV
vector 859105  Network.dyn_peer[273]  lookupHopsSig:vector  ETV
vector 859106  Network.dyn_peer[273]  lookupStabilitySig:vector  ETV
vector 859107  Network.dyn_peer[273]  lookupTimeSig:vector  ETV
vector 858541  Network.dyn_peer[85]  lookupHopsSig:vector  ETV
vector 858542  Network.dyn_peer[85]  lookupStabilitySig:vector  ETV
vector 858543  Network.dyn_peer[85]  lookupTimeSig:vector  ETV
vector 859153  Network.dyn_peer[289]  lookupHopsSig:vector  ETV
vector 859154  Network.dyn_peer[289]  lookupStabilitySig:vector  ETV
vector 859155  Network.dyn_peer[289]  lookupTimeSig:vector  ETV
vector 858562  Network.dyn_peer[92]  lookupHopsSig:vector  ETV
vector 858563  Network.dyn_peer[92]  lookupStabilitySig:vector  ETV
vector 858564  Network.dyn_peer[92]  lookupTimeSig:vector  ETV
vector 859165  Network.dyn_peer[293]  lookupHopsSig:vector  ETV
vector 859166  Network.dyn_peer[293]  lookupStabilitySig:vector  ETV
vector 859167  Network.dyn_peer[293]  lookupTimeSig:vector  ETV
vector 859177  Network.dyn_peer[297]  lookupHopsSig:vector  ETV
vector 859178  Network.dyn_peer[297]  lookupStabilitySig:vector  ETV
vector 859179  Network.dyn_peer[297]  lookupTimeSig:vector  ETV
vector 858880  Network.dyn_peer[198]  lookupHopsSig:vector  ETV
vector 858881  Network.dyn_peer[198]  lookupStabilitySig:vector  ETV
vector 858882  Network.dyn_peer[198]  lookupTimeSig:vector  ETV
vector 859513  Network.dyn_peer[409]  lookupHopsSig:vector  ETV
vector 859514  Network.dyn_peer[409]  lookupStabilitySig:vector  ETV
vector 859515  Network.dyn_peer[409]  lookupTimeSig:vector  ETV
vector 858916  Network.dyn_peer[210]  lookupHopsSig:vector  ETV
vector 858917  Network.dyn_peer[210]  lookupStabilitySig:vector  ETV
vector 858918  Network.dyn_peer[210]  lookupTimeSig:vector  ETV
vector 858643  Network.dyn_peer[119]  lookupHopsSig:vector  ETV
vector 858644  Network.dyn_peer[119]  lookupStabilitySig:vector  ETV
vector 858645  Network.dyn_peer[119]  lookupTimeSig:vector  ETV
vector 858943  Network.dyn_peer[219]  lookupHopsSig:vector  ETV
vector 858944  Network.dyn_peer[219]  lookupStabilitySig:vector  ETV
vector 858945  Network.dyn_peer[219]  lookupTimeSig:vector  ETV
vector 859546  Network.dyn_peer[420]  lookupHopsSig:vector  ETV
vector 859547  Network.dyn_peer[420]  lookupStabilitySig:vector  ETV
vector 859548  Network.dyn_peer[420]  lookupTimeSig:vector  ETV
vector 858397  Network.dyn_peer[37]  lookupHopsSig:vector  ETV
vector 858398  Network.dyn_peer[37]  lookupStabilitySig:vector  ETV
vector 858399  Network.dyn_peer[37]  lookupTimeSig:vector  ETV
vector 858703  Network.dyn_peer[139]  lookupHopsSig:vector  ETV
vector 858704  Network.dyn_peer[139]  lookupStabilitySig:vector  ETV
vector 858705  Network.dyn_peer[139]  lookupTimeSig:vector  ETV
vector 859306  Network.dyn_peer[340]  lookupHopsSig:vector  ETV
vector 859307  Network.dyn_peer[340]  lookupStabilitySig:vector  ETV
vector 859308  Network.dyn_peer[340]  lookupTimeSig:vector  ETV
vector 858415  Network.dyn_peer[43]  lookupHopsSig:vector  ETV
vector 858416  Network.dyn_peer[43]  lookupStabilitySig:vector  ETV
vector 858417  Network.dyn_peer[43]  lookupTimeSig:vector  ETV
vector 858442  Network.dyn_peer[52]  lookupHopsSig:vector  ETV
vector 858443  Network.dyn_peer[52]  lookupStabilitySig:vector  ETV
vector 858444  Network.dyn_peer[52]  lookupTimeSig:vector  ETV
vector 858460  Network.dyn_peer[58]  lookupHopsSig:vector  ETV
vector 858461  Network.dyn_peer[58]  lookupStabilitySig:vector  ETV
vector 858462  Network.dyn_peer[58]  lookupTimeSig:vector  ETV
vector 859075  Network.dyn_peer[263]  lookupHopsSig:vector  ETV
vector 859076  Network.dyn_peer[263]  lookupStabilitySig:vector  ETV
vector 859077  Network.dyn_peer[263]  lookupTimeSig:vector  ETV
vector 858478  Network.dyn_peer[64]  lookupHopsSig:vector  ETV
vector 858479  Network.dyn_peer[64]  lookupStabilitySig:vector  ETV
vector 858480  Network.dyn_peer[64]  lookupTimeSig:vector  ETV
vector 858814  Network.dyn_peer[176]  lookupHopsSig:vector  ETV
vector 858815  Network.dyn_peer[176]  lookupStabilitySig:vector  ETV
vector 858816  Network.dyn_peer[176]  lookupTimeSig:vector  ETV
vector 858520  Network.dyn_peer[78]  lookupHopsSig:vector  ETV
vector 858521  Network.dyn_peer[78]  lookupStabilitySig:vector  ETV
vector 858522  Network.dyn_peer[78]  lookupTimeSig:vector  ETV
vector 858868  Network.dyn_peer[194]  lookupHopsSig:vector  ETV
vector 858869  Network.dyn_peer[194]  lookupStabilitySig:vector  ETV
vector 858870  Network.dyn_peer[194]  lookupTimeSig:vector  ETV
vector 859171  Network.dyn_peer[295]  lookupHopsSig:vector  ETV
vector 859172  Network.dyn_peer[295]  lookupStabilitySig:vector  ETV
vector 859173  Network.dyn_peer[295]  lookupTimeSig:vector  ETV
vector 859477  Network.dyn_peer[397]  lookupHopsSig:vector  ETV
vector 859478  Network.dyn_peer[397]  lookupStabilitySig:vector  ETV
vector 859479  Network.dyn_peer[397]  lookupTimeSig:vector  ETV
vector 859498  Network.dyn_peer[404]  lookupHopsSig:vector  ETV
vector 859499  Network.dyn_peer[404]  lookupStabilitySig:vector  ETV
vector 859500  Network.dyn_peer[404]  lookupTimeSig:vector  ETV
vector 858604  Network.dyn_peer[106]  lookupHopsSig:vector  ETV
vector 858605  Network.dyn_peer[106]  lookupStabilitySig:vector  ETV
vector 858606  Network.dyn_peer[106]  lookupTimeSig:vector  ETV
vector 859234  Network.dyn_peer[316]  lookupHopsSig:vector  ETV
vector 859235  Network.dyn_peer[316]  lookupStabilitySig:vector  ETV
vector 859236  Network.dyn_peer[316]  lookupTimeSig:vector  ETV
vector 858340  Network.dyn_peer[18]  lookupHopsSig:vector  ETV
vector 858341  Network.dyn_peer[18]  lookupStabilitySig:vector  ETV
vector 858342  Network.dyn_peer[18]  lookupTimeSig:vector  ETV
vector 858946  Network.dyn_peer[220]  lookupHopsSig:vector  ETV
vector 858947  Network.dyn_peer[220]  lookupStabilitySig:vector  ETV
vector 858948  Network.dyn_peer[220]  lookupTimeSig:vector  ETV
vector 858349  Network.dyn_peer[21]  lookupHopsSig:vector  ETV
vector 858350  Network.dyn_peer[21]  lookupStabilitySig:vector  ETV
vector 858351  Network.dyn_peer[21]  lookupTimeSig:vector  ETV
vector 858967  Network.dyn_peer[227]  lookupHopsSig:vector  ETV
vector 858968  Network.dyn_peer[227]  lookupStabilitySig:vector  ETV
vector 858969  Network.dyn_peer[227]  lookupTimeSig:vector  ETV
vector 859576  Network.dyn_peer[430]  lookupHopsSig:vector  ETV
vector 859577  Network.dyn_peer[430]  lookupStabilitySig:vector  ETV
vector 859578  Network.dyn_peer[430]  lookupTimeSig:vector  ETV
vector 858394  Network.dyn_peer[36]  lookupHopsSig:vector  ETV
vector 858395  Network.dyn_peer[36]  lookupStabilitySig:vector  ETV
vector 858396  Network.dyn_peer[36]  lookupTimeSig:vector  ETV
vector 859597  Network.dyn_peer[437]  lookupHopsSig:vector  ETV
vector 859598  Network.dyn_peer[437]  lookupStabilitySig:vector  ETV
vector 859599  Network.dyn_peer[437]  lookupTimeSig:vector  ETV
vector 858724  Network.dyn_peer[146]  lookupHopsSig:vector  ETV
vector 858725  Network.dyn_peer[146]  lookupStabilitySig:vector  ETV
vector 858726  Network.dyn_peer[146]  lookupTimeSig:vector  ETV
vector 858469  Network.dyn_peer[61]  lookupHopsSig:vector  ETV
vector 858470  Network.dyn_peer[61]  lookupStabilitySig:vector  ETV
vector 858471  Network.dyn_peer[61]  lookupTimeSig:vector  ETV
vector 859126  Network.dyn_peer[280]  lookupHopsSig:vector  ETV
vector 859127  Network.dyn_peer[280]  lookupStabilitySig:vector  ETV
vector 859128  Network.dyn_peer[280]  lookupTimeSig:vector  ETV
vector 859444  Network.dyn_peer[386]  lookupHopsSig:vector  ETV
vector 859445  Network.dyn_peer[386]  lookupStabilitySig:vector  ETV
vector 859446  Network.dyn_peer[386]  lookupTimeSig:vector  ETV
vector 858547  Network.dyn_peer[87]  lookupHopsSig:vector  ETV
vector 858548  Network.dyn_peer[87]  lookupStabilitySig:vector  ETV
vector 858549  Network.dyn_peer[87]  lookupTimeSig:vector  ETV
vector 858556  Network.dyn_peer[90]  lookupHopsSig:vector  ETV
vector 858557  Network.dyn_peer[90]  lookupStabilitySig:vector  ETV
vector 858558  Network.dyn_peer[90]  lookupTimeSig:vector  ETV
vector 858952  Network.dyn_peer[222]  lookupHopsSig:vector  ETV
vector 858953  Network.dyn_peer[222]  lookupStabilitySig:vector  ETV
vector 858954  Network.dyn_peer[222]  lookupTimeSig:vector  ETV
vector 858973  Network.dyn_peer[229]  lookupHopsSig:vector  ETV
vector 858974  Network.dyn_peer[229]  lookupStabilitySig:vector  ETV
vector 858975  Network.dyn_peer[229]  lookupTimeSig:vector  ETV
vector 858979  Network.dyn_peer[231]  lookupHopsSig:vector  ETV
vector 858980  Network.dyn_peer[231]  lookupStabilitySig:vector  ETV
vector 858981  Network.dyn_peer[231]  lookupTimeSig:vector  ETV
vector 859291  Network.dyn_peer[335]  lookupHopsSig:vector  ETV
vector 859292  Network.dyn_peer[335]  lookupStabilitySig:vector  ETV
vector 859293  Network.dyn_peer[335]  lookupTimeSig:vector  ETV
vector 859030  Network.dyn_peer[248]  lookupHopsSig:vector  ETV
vector 859031  Network.dyn_peer[248]  lookupStabilitySig:vector  ETV
vector 859032  Network.dyn_peer[248]  lookupTimeSig:vector  ETV
vector 858439  Network.dyn_peer[51]  lookupHopsSig:vector  ETV
vector 858440  Network.dyn_peer[51]  lookupStabilitySig:vector  ETV
vector 858441  Network.dyn_peer[51]  lookupTimeSig:vector  ETV
vector 859360  Network.dyn_peer[358]  lookupHopsSig:vector  ETV
vector 859361  Network.dyn_peer[358]  lookupStabilitySig:vector  ETV
vector 859362  Network.dyn_peer[358]  lookupTimeSig:vector  ETV
vector 858472  Network.dyn_peer[62]  lookupHopsSig:vector  ETV
vector 858473  Network.dyn_peer[62]  lookupStabilitySig:vector  ETV
vector 858474  Network.dyn_peer[62]  lookupTimeSig:vector  ETV
vector 859090  Network.dyn_peer[268]  lookupHopsSig:vector  ETV
vector 859091  Network.dyn_peer[268]  lookupStabilitySig:vector  ETV
vector 859092  Network.dyn_peer[268]  lookupTimeSig:vector  ETV
vector 858568  Network.dyn_peer[94]  lookupHopsSig:vector  ETV
vector 858569  Network.dyn_peer[94]  lookupStabilitySig:vector  ETV
vector 858570  Network.dyn_peer[94]  lookupTimeSig:vector  ETV
vector 858892  Network.dyn_peer[202]  lookupHopsSig:vector  ETV
vector 858893  Network.dyn_peer[202]  lookupStabilitySig:vector  ETV
vector 858894  Network.dyn_peer[202]  lookupTimeSig:vector  ETV
vector 858601  Network.dyn_peer[105]  lookupHopsSig:vector  ETV
vector 858602  Network.dyn_peer[105]  lookupStabilitySig:vector  ETV
vector 858603  Network.dyn_peer[105]  lookupTimeSig:vector  ETV
vector 858352  Network.dyn_peer[22]  lookupHopsSig:vector  ETV
vector 858353  Network.dyn_peer[22]  lookupStabilitySig:vector  ETV
vector 858354  Network.dyn_peer[22]  lookupTimeSig:vector  ETV
vector 859561  Network.dyn_peer[425]  lookupHopsSig:vector  ETV
vector 859562  Network.dyn_peer[425]  lookupStabilitySig:vector  ETV
vector 859563  Network.dyn_peer[425]  lookupTimeSig:vector  ETV
vector 859282  Network.dyn_peer[332]  lookupHopsSig:vector  ETV
vector 859283  Network.dyn_peer[332]  lookupStabilitySig:vector  ETV
vector 859284  Network.dyn_peer[332]  lookupTimeSig:vector  ETV
vector 859003  Network.dyn_peer[239]  lookupHopsSig:vector  ETV
vector 859004  Network.dyn_peer[239]  lookupStabilitySig:vector  ETV
vector 859005  Network.dyn_peer[239]  lookupTimeSig:vector  ETV
vector 858712  Network.dyn_peer[142]  lookupHopsSig:vector  ETV
vector 858713  Network.dyn_peer[142]  lookupStabilitySig:vector  ETV
vector 858714  Network.dyn_peer[142]  lookupTimeSig:vector  ETV
vector 859636  Network.dyn_peer[450]  lookupHopsSig:vector  ETV
vector 859637  Network.dyn_peer[450]  lookupStabilitySig:vector  ETV
vector 859638  Network.dyn_peer[450]  lookupTimeSig:vector  ETV
vector 859342  Network.dyn_peer[352]  lookupHopsSig:vector  ETV
vector 859343  Network.dyn_peer[352]  lookupStabilitySig:vector  ETV
vector 859344  Network.dyn_peer[352]  lookupTimeSig:vector  ETV
vector 858748  Network.dyn_peer[154]  lookupHopsSig:vector  ETV
vector 858749  Network.dyn_peer[154]  lookupStabilitySig:vector  ETV
vector 858750  Network.dyn_peer[154]  lookupTimeSig:vector  ETV
vector 858454  Network.dyn_peer[56]  lookupHopsSig:vector  ETV
vector 858455  Network.dyn_peer[56]  lookupStabilitySig:vector  ETV
vector 858456  Network.dyn_peer[56]  lookupTimeSig:vector  ETV
vector 859654  Network.dyn_peer[456]  lookupHopsSig:vector  ETV
vector 859655  Network.dyn_peer[456]  lookupStabilitySig:vector  ETV
vector 859656  Network.dyn_peer[456]  lookupTimeSig:vector  ETV
vector 858457  Network.dyn_peer[57]  lookupHopsSig:vector  ETV
vector 858458  Network.dyn_peer[57]  lookupStabilitySig:vector  ETV
vector 858459  Network.dyn_peer[57]  lookupTimeSig:vector  ETV
vector 859072  Network.dyn_peer[262]  lookupHopsSig:vector  ETV
vector 859073  Network.dyn_peer[262]  lookupStabilitySig:vector  ETV
vector 859074  Network.dyn_peer[262]  lookupTimeSig:vector  ETV
vector 859711  Network.dyn_peer[475]  lookupHopsSig:vector  ETV
vector 859712  Network.dyn_peer[475]  lookupStabilitySig:vector  ETV
vector 859713  Network.dyn_peer[475]  lookupTimeSig:vector  ETV
vector 859420  Network.dyn_peer[378]  lookupHopsSig:vector  ETV
vector 859421  Network.dyn_peer[378]  lookupStabilitySig:vector  ETV
vector 859422  Network.dyn_peer[378]  lookupTimeSig:vector  ETV
vector 858529  Network.dyn_peer[81]  lookupHopsSig:vector  ETV
vector 858530  Network.dyn_peer[81]  lookupStabilitySig:vector  ETV
vector 858531  Network.dyn_peer[81]  lookupTimeSig:vector  ETV
vector 859147  Network.dyn_peer[287]  lookupHopsSig:vector  ETV
vector 859148  Network.dyn_peer[287]  lookupStabilitySig:vector  ETV
vector 859149  Network.dyn_peer[287]  lookupTimeSig:vector  ETV
vector 858853  Network.dyn_peer[189]  lookupHopsSig:vector  ETV
vector 858854  Network.dyn_peer[189]  lookupStabilitySig:vector  ETV
vector 858855  Network.dyn_peer[189]  lookupTimeSig:vector  ETV
vector 859207  Network.dyn_peer[307]  lookupHopsSig:vector  ETV
vector 859208  Network.dyn_peer[307]  lookupStabilitySig:vector  ETV
vector 859209  Network.dyn_peer[307]  lookupTimeSig:vector  ETV
vector 858610  Network.dyn_peer[108]  lookupHopsSig:vector  ETV
vector 858611  Network.dyn_peer[108]  lookupStabilitySig:vector  ETV
vector 858612  Network.dyn_peer[108]  lookupTimeSig:vector  ETV
vector 858910  Network.dyn_peer[208]  lookupHopsSig:vector  ETV
vector 858911  Network.dyn_peer[208]  lookupStabilitySig:vector  ETV
vector 858912  Network.dyn_peer[208]  lookupTimeSig:vector  ETV
vector 859216  Network.dyn_peer[310]  lookupHopsSig:vector  ETV
vector 859217  Network.dyn_peer[310]  lookupStabilitySig:vector  ETV
vector 859218  Network.dyn_peer[310]  lookupTimeSig:vector  ETV
vector 858322  Network.dyn_peer[12]  lookupHopsSig:vector  ETV
vector 858323  Network.dyn_peer[12]  lookupStabilitySig:vector  ETV
vector 858324  Network.dyn_peer[12]  lookupTimeSig:vector  ETV
vector 858622  Network.dyn_peer[112]  lookupHopsSig:vector  ETV
vector 858623  Network.dyn_peer[112]  lookupStabilitySig:vector  ETV
vector 858624  Network.dyn_peer[112]  lookupTimeSig:vector  ETV
vector 858934  Network.dyn_peer[216]  lookupHopsSig:vector  ETV
vector 858935  Network.dyn_peer[216]  lookupStabilitySig:vector  ETV
vector 858936  Network.dyn_peer[216]  lookupTimeSig:vector  ETV
vector 859237  Network.dyn_peer[317]  lookupHopsSig:vector  ETV
vector 859238  Network.dyn_peer[317]  lookupStabilitySig:vector  ETV
vector 859239  Network.dyn_peer[317]  lookupTimeSig:vector  ETV
vector 859252  Network.dyn_peer[322]  lookupHopsSig:vector  ETV
vector 859253  Network.dyn_peer[322]  lookupStabilitySig:vector  ETV
vector 859254  Network.dyn_peer[322]  lookupTimeSig:vector  ETV
vector 858709  Network.dyn_peer[141]  lookupHopsSig:vector  ETV
vector 858710  Network.dyn_peer[141]  lookupStabilitySig:vector  ETV
vector 858711  Network.dyn_peer[141]  lookupTimeSig:vector  ETV
vector 858760  Network.dyn_peer[158]  lookupHopsSig:vector  ETV
vector 858761  Network.dyn_peer[158]  lookupStabilitySig:vector  ETV
vector 858762  Network.dyn_peer[158]  lookupTimeSig:vector  ETV
vector 858793  Network.dyn_peer[169]  lookupHopsSig:vector  ETV
vector 858794  Network.dyn_peer[169]  lookupStabilitySig:vector  ETV
vector 858795  Network.dyn_peer[169]  lookupTimeSig:vector  ETV
vector 859396  Network.dyn_peer[370]  lookupHopsSig:vector  ETV
vector 859397  Network.dyn_peer[370]  lookupStabilitySig:vector  ETV
vector 859398  Network.dyn_peer[370]  lookupTimeSig:vector  ETV
vector 859129  Network.dyn_peer[281]  lookupHopsSig:vector  ETV
vector 859130  Network.dyn_peer[281]  lookupStabilitySig:vector  ETV
vector 859131  Network.dyn_peer[281]  lookupTimeSig:vector  ETV
vector 858835  Network.dyn_peer[183]  lookupHopsSig:vector  ETV
vector 858836  Network.dyn_peer[183]  lookupStabilitySig:vector  ETV
vector 858837  Network.dyn_peer[183]  lookupTimeSig:vector  ETV
vector 859465  Network.dyn_peer[393]  lookupHopsSig:vector  ETV
vector 859466  Network.dyn_peer[393]  lookupStabilitySig:vector  ETV
vector 859467  Network.dyn_peer[393]  lookupTimeSig:vector  ETV
vector 858586  Network.dyn_peer[100]  lookupHopsSig:vector  ETV
vector 858587  Network.dyn_peer[100]  lookupStabilitySig:vector  ETV
vector 858588  Network.dyn_peer[100]  lookupTimeSig:vector  ETV
vector 858886  Network.dyn_peer[200]  lookupHopsSig:vector  ETV
vector 858887  Network.dyn_peer[200]  lookupStabilitySig:vector  ETV
vector 858888  Network.dyn_peer[200]  lookupTimeSig:vector  ETV
vector 859189  Network.dyn_peer[301]  lookupHopsSig:vector  ETV
vector 859190  Network.dyn_peer[301]  lookupStabilitySig:vector  ETV
vector 859191  Network.dyn_peer[301]  lookupTimeSig:vector  ETV
vector 858595  Network.dyn_peer[103]  lookupHopsSig:vector  ETV
vector 858596  Network.dyn_peer[103]  lookupStabilitySig:vector  ETV
vector 858597  Network.dyn_peer[103]  lookupTimeSig:vector  ETV
vector 858658  Network.dyn_peer[124]  lookupHopsSig:vector  ETV
vector 858659  Network.dyn_peer[124]  lookupStabilitySig:vector  ETV
vector 858660  Network.dyn_peer[124]  lookupTimeSig:vector  ETV
vector 858958  Network.dyn_peer[224]  lookupHopsSig:vector  ETV
vector 858959  Network.dyn_peer[224]  lookupStabilitySig:vector  ETV
vector 858960  Network.dyn_peer[224]  lookupTimeSig:vector  ETV
vector 858661  Network.dyn_peer[125]  lookupHopsSig:vector  ETV
vector 858662  Network.dyn_peer[125]  lookupStabilitySig:vector  ETV
vector 858663  Network.dyn_peer[125]  lookupTimeSig:vector  ETV
vector 858685  Network.dyn_peer[133]  lookupHopsSig:vector  ETV
vector 858686  Network.dyn_peer[133]  lookupStabilitySig:vector  ETV
vector 858687  Network.dyn_peer[133]  lookupTimeSig:vector  ETV
vector 859600  Network.dyn_peer[438]  lookupHopsSig:vector  ETV
vector 859601  Network.dyn_peer[438]  lookupStabilitySig:vector  ETV
vector 859602  Network.dyn_peer[438]  lookupTimeSig:vector  ETV
vector 858730  Network.dyn_peer[148]  lookupHopsSig:vector  ETV
vector 858731  Network.dyn_peer[148]  lookupStabilitySig:vector  ETV
vector 858732  Network.dyn_peer[148]  lookupTimeSig:vector  ETV
vector 858736  Network.dyn_peer[150]  lookupHopsSig:vector  ETV
vector 858737  Network.dyn_peer[150]  lookupStabilitySig:vector  ETV
vector 858738  Network.dyn_peer[150]  lookupTimeSig:vector  ETV
vector 859639  Network.dyn_peer[451]  lookupHopsSig:vector  ETV
vector 859640  Network.dyn_peer[451]  lookupStabilitySig:vector  ETV
vector 859641  Network.dyn_peer[451]  lookupTimeSig:vector  ETV
vector 859054  Network.dyn_peer[256]  lookupHopsSig:vector  ETV
vector 859055  Network.dyn_peer[256]  lookupStabilitySig:vector  ETV