version 2
run Stability2-315-20130526-00:55:02-26640
attr configname Stability2
attr datetime 20130526-00:55:02
attr experiment Stability2
attr inifile omnetpp.ini
attr iterationvars $0=1000
attr iterationvars2 "$0=1000, $repetition=15"
attr measurement $0=1000
attr network Network
attr processid 26640
attr repetition 15
attr replication #15
attr resultdir results
attr runnumber 315
attr seedset 315

vector 948315  Network.churner  inGoingSizeSig:vector  ETV
vector 945336  Network.dyn_peer[7]  lookupHopsSig:vector  ETV
vector 945337  Network.dyn_peer[7]  lookupStabilitySig:vector  ETV
vector 945338  Network.dyn_peer[7]  lookupTimeSig:vector  ETV
vector 945345  Network.dyn_peer[10]  lookupHopsSig:vector  ETV
vector 945346  Network.dyn_peer[10]  lookupStabilitySig:vector  ETV
vector 945347  Network.dyn_peer[10]  lookupTimeSig:vector  ETV
vector 945360  Network.dyn_peer[15]  lookupHopsSig:vector  ETV
vector 945361  Network.dyn_peer[15]  lookupStabilitySig:vector  ETV
vector 945362  Network.dyn_peer[15]  lookupTimeSig:vector  ETV
vector 945363  Network.dyn_peer[16]  lookupHopsSig:vector  ETV
vector 945364  Network.dyn_peer[16]  lookupStabilitySig:vector  ETV
vector 945365  Network.dyn_peer[16]  lookupTimeSig:vector  ETV
vector 945387  Network.dyn_peer[24]  lookupHopsSig:vector  ETV
vector 945388  Network.dyn_peer[24]  lookupStabilitySig:vector  ETV
vector 945389  Network.dyn_peer[24]  lookupTimeSig:vector  ETV
vector 945402  Network.dyn_peer[29]  lookupHopsSig:vector  ETV
vector 945403  Network.dyn_peer[29]  lookupStabilitySig:vector  ETV
vector 945404  Network.dyn_peer[29]  lookupTimeSig:vector  ETV
vector 945471  Network.dyn_peer[52]  lookupHopsSig:vector  ETV
vector 945472  Network.dyn_peer[52]  lookupStabilitySig:vector  ETV
vector 945473  Network.dyn_peer[52]  lookupTimeSig:vector  ETV
vector 945549  Network.dyn_peer[78]  lookupHopsSig:vector  ETV
vector 945550  Network.dyn_peer[78]  lookupStabilitySig:vector  ETV
vector 945551  Network.dyn_peer[78]  lookupTimeSig:vector  ETV
vector 945567  Network.dyn_peer[84]  lookupHopsSig:vector  ETV
vector 945568  Network.dyn_peer[84]  lookupStabilitySig:vector  ETV
vector 945569  Network.dyn_peer[84]  lookupTimeSig:vector  ETV
vector 945597  Network.dyn_peer[94]  lookupHopsSig:vector  ETV
vector 945598  Network.dyn_peer[94]  lookupStabilitySig:vector  ETV
vector 945599  Network.dyn_peer[94]  lookupTimeSig:vector  ETV
vector 945321  Network.dyn_peer[2]  lookupHopsSig:vector  ETV
vector 945322  Network.dyn_peer[2]  lookupStabilitySig:vector  ETV
vector 945323  Network.dyn_peer[2]  lookupTimeSig:vector  ETV
vector 945324  Network.dyn_peer[3]  lookupHopsSig:vector  ETV
vector 945325  Network.dyn_peer[3]  lookupStabilitySig:vector  ETV
vector 945326  Network.dyn_peer[3]  lookupTimeSig:vector  ETV
vector 945450  Network.dyn_peer[45]  lookupHopsSig:vector  ETV
vector 945451  Network.dyn_peer[45]  lookupStabilitySig:vector  ETV
vector 945452  Network.dyn_peer[45]  lookupTimeSig:vector  ETV
vector 945453  Network.dyn_peer[46]  lookupHopsSig:vector  ETV
vector 945454  Network.dyn_peer[46]  lookupStabilitySig:vector  ETV
vector 945455  Network.dyn_peer[46]  lookupTimeSig:vector  ETV
vector 945456  Network.dyn_peer[47]  lookupHopsSig:vector  ETV
vector 945457  Network.dyn_peer[47]  lookupStabilitySig:vector  ETV
vector 945458  Network.dyn_peer[47]  lookupTimeSig:vector  ETV
vector 945468  Network.dyn_peer[51]  lookupHopsSig:vector  ETV
vector 945469  Network.dyn_peer[51]  lookupStabilitySig:vector  ETV
vector 945470  Network.dyn_peer[51]  lookupTimeSig:vector  ETV
vector 945561  Network.dyn_peer[82]  lookupHopsSig:vector  ETV
vector 945562  Network.dyn_peer[82]  lookupStabilitySig:vector  ETV
vector 945563  Network.dyn_peer[82]  lookupTimeSig:vector  ETV
vector 945327  Network.dyn_peer[4]  lookupHopsSig:vector  ETV
vector 945328  Network.dyn_peer[4]  lookupStabilitySig:vector  ETV
vector 945329  Network.dyn_peer[4]  lookupTimeSig:vector  ETV
vector 945627  Network.dyn_peer[104]  lookupHopsSig:vector  ETV
vector 945628  Network.dyn_peer[104]  lookupStabilitySig:vector  ETV
vector 945629  Network.dyn_peer[104]  lookupTimeSig:vector  ETV
vector 945330  Network.dyn_peer[5]  lookupHopsSig:vector  ETV
vector 945331  Network.dyn_peer[5]  lookupStabilitySig:vector  ETV
vector 945332  Network.dyn_peer[5]  lookupTimeSig:vector  ETV
vector 945333  Network.dyn_peer[6]  lookupHopsSig:vector  ETV
vector 945334  Network.dyn_peer[6]  lookupStabilitySig:vector  ETV
vector 945335  Network.dyn_peer[6]  lookupTimeSig:vector  ETV
vector 945936  Network.dyn_peer[207]  lookupHopsSig:vector  ETV
vector 945937  Network.dyn_peer[207]  lookupStabilitySig:vector  ETV
vector 945938  Network.dyn_peer[207]  lookupTimeSig:vector  ETV
vector 945366  Network.dyn_peer[17]  lookupHopsSig:vector  ETV
vector 945367  Network.dyn_peer[17]  lookupStabilitySig:vector  ETV
vector 945368  Network.dyn_peer[17]  lookupTimeSig:vector  ETV
vector 945378  Network.dyn_peer[21]  lookupHopsSig:vector  ETV
vector 945379  Network.dyn_peer[21]  lookupStabilitySig:vector  ETV
vector 945380  Network.dyn_peer[21]  lookupTimeSig:vector  ETV
vector 945384  Network.dyn_peer[23]  lookupHopsSig:vector  ETV
vector 945385  Network.dyn_peer[23]  lookupStabilitySig:vector  ETV
vector 945386  Network.dyn_peer[23]  lookupTimeSig:vector  ETV
vector 945708  Network.dyn_peer[131]  lookupHopsSig:vector  ETV
vector 945709  Network.dyn_peer[131]  lookupStabilitySig:vector  ETV
vector 945710  Network.dyn_peer[131]  lookupTimeSig:vector  ETV
vector 945711  Network.dyn_peer[132]  lookupHopsSig:vector  ETV
vector 945712  Network.dyn_peer[132]  lookupStabilitySig:vector  ETV
vector 945713  Network.dyn_peer[132]  lookupTimeSig:vector  ETV
vector 945414  Network.dyn_peer[33]  lookupHopsSig:vector  ETV
vector 945415  Network.dyn_peer[33]  lookupStabilitySig:vector  ETV
vector 945416  Network.dyn_peer[33]  lookupTimeSig:vector  ETV
vector 945435  Network.dyn_peer[40]  lookupHopsSig:vector  ETV
vector 945436  Network.dyn_peer[40]  lookupStabilitySig:vector  ETV
vector 945437  Network.dyn_peer[40]  lookupTimeSig:vector  ETV
vector 945462  Network.dyn_peer[49]  lookupHopsSig:vector  ETV
vector 945463  Network.dyn_peer[49]  lookupStabilitySig:vector  ETV
vector 945464  Network.dyn_peer[49]  lookupTimeSig:vector  ETV
vector 945465  Network.dyn_peer[50]  lookupHopsSig:vector  ETV
vector 945466  Network.dyn_peer[50]  lookupStabilitySig:vector  ETV
vector 945467  Network.dyn_peer[50]  lookupTimeSig:vector  ETV
vector 945768  Network.dyn_peer[151]  lookupHopsSig:vector  ETV
vector 945769  Network.dyn_peer[151]  lookupStabilitySig:vector  ETV
vector 945770  Network.dyn_peer[151]  lookupTimeSig:vector  ETV
vector 945477  Network.dyn_peer[54]  lookupHopsSig:vector  ETV
vector 945478  Network.dyn_peer[54]  lookupStabilitySig:vector  ETV
vector 945479  Network.dyn_peer[54]  lookupTimeSig:vector  ETV
vector 946095  Network.dyn_peer[260]  lookupHopsSig:vector  ETV
vector 946096  Network.dyn_peer[260]  lookupStabilitySig:vector  ETV
vector 946097  Network.dyn_peer[260]  lookupTimeSig:vector  ETV
vector 945504  Network.dyn_peer[63]  lookupHopsSig:vector  ETV
vector 945505  Network.dyn_peer[63]  lookupStabilitySig:vector  ETV
vector 945506  Network.dyn_peer[63]  lookupTimeSig:vector  ETV
vector 945507  Network.dyn_peer[64]  lookupHopsSig:vector  ETV
vector 945508  Network.dyn_peer[64]  lookupStabilitySig:vector  ETV
vector 945509  Network.dyn_peer[64]  lookupTimeSig:vector  ETV
vector 946122  Network.dyn_peer[269]  lookupHopsSig:vector  ETV
vector 946123  Network.dyn_peer[269]  lookupStabilitySig:vector  ETV
vector 946124  Network.dyn_peer[269]  lookupTimeSig:vector  ETV
vector 945525  Network.dyn_peer[70]  lookupHopsSig:vector  ETV
vector 945526  Network.dyn_peer[70]  lookupStabilitySig:vector  ETV
vector 945527  Network.dyn_peer[70]  lookupTimeSig:vector  ETV
vector 945831  Network.dyn_peer[172]  lookupHopsSig:vector  ETV
vector 945832  Network.dyn_peer[172]  lookupStabilitySig:vector  ETV
vector 945833  Network.dyn_peer[172]  lookupTimeSig:vector  ETV
vector 945543  Network.dyn_peer[76]  lookupHopsSig:vector  ETV
vector 945544  Network.dyn_peer[76]  lookupStabilitySig:vector  ETV
vector 945545  Network.dyn_peer[76]  lookupTimeSig:vector  ETV
vector 945849  Network.dyn_peer[178]  lookupHopsSig:vector  ETV
vector 945850  Network.dyn_peer[178]  lookupStabilitySig:vector  ETV
vector 945851  Network.dyn_peer[178]  lookupTimeSig:vector  ETV
vector 946167  Network.dyn_peer[284]  lookupHopsSig:vector  ETV
vector 946168  Network.dyn_peer[284]  lookupStabilitySig:vector  ETV
vector 946169  Network.dyn_peer[284]  lookupTimeSig:vector  ETV
vector 945591  Network.dyn_peer[92]  lookupHopsSig:vector  ETV
vector 945592  Network.dyn_peer[92]  lookupStabilitySig:vector  ETV
vector 945593  Network.dyn_peer[92]  lookupTimeSig:vector  ETV
vector 945894  Network.dyn_peer[193]  lookupHopsSig:vector  ETV
vector 945895  Network.dyn_peer[193]  lookupStabilitySig:vector  ETV
vector 945896  Network.dyn_peer[193]  lookupTimeSig:vector  ETV
vector 945897  Network.dyn_peer[194]  lookupHopsSig:vector  ETV
vector 945898  Network.dyn_peer[194]  lookupStabilitySig:vector  ETV
vector 945899  Network.dyn_peer[194]  lookupTimeSig:vector  ETV
vector 945603  Network.dyn_peer[96]  lookupHopsSig:vector  ETV
vector 945604  Network.dyn_peer[96]  lookupStabilitySig:vector  ETV
vector 945605  Network.dyn_peer[96]  lookupTimeSig:vector  ETV
vector 945915  Network.dyn_peer[200]  lookupHopsSig:vector  ETV
vector 945916  Network.dyn_peer[200]  lookupStabilitySig:vector  ETV
vector 945917  Network.dyn_peer[200]  lookupTimeSig:vector  ETV
vector 945951  Network.dyn_peer[212]  lookupHopsSig:vector  ETV
vector 945952  Network.dyn_peer[212]  lookupStabilitySig:vector  ETV
vector 945953  Network.dyn_peer[212]  lookupTimeSig:vector  ETV
vector 945693  Network.dyn_peer[126]  lookupHopsSig:vector  ETV
vector 945694  Network.dyn_peer[126]  lookupStabilitySig:vector  ETV
vector 945695  Network.dyn_peer[126]  lookupTimeSig:vector  ETV
vector 945696  Network.dyn_peer[127]  lookupHopsSig:vector  ETV
vector 945697  Network.dyn_peer[127]  lookupStabilitySig:vector  ETV
vector 945698  Network.dyn_peer[127]  lookupTimeSig:vector  ETV
vector 945399  Network.dyn_peer[28]  lookupHopsSig:vector  ETV
vector 945400  Network.dyn_peer[28]  lookupStabilitySig:vector  ETV
vector 945401  Network.dyn_peer[28]  lookupTimeSig:vector  ETV
vector 945408  Network.dyn_peer[31]  lookupHopsSig:vector  ETV
vector 945409  Network.dyn_peer[31]  lookupStabilitySig:vector  ETV
vector 945410  Network.dyn_peer[31]  lookupTimeSig:vector  ETV
vector 946026  Network.dyn_peer[237]  lookupHopsSig:vector  ETV
vector 946027  Network.dyn_peer[237]  lookupStabilitySig:vector  ETV
vector 946028  Network.dyn_peer[237]  lookupTimeSig:vector  ETV
vector 946326  Network.dyn_peer[337]  lookupHopsSig:vector  ETV
vector 946327  Network.dyn_peer[337]  lookupStabilitySig:vector  ETV
vector 946328  Network.dyn_peer[337]  lookupTimeSig:vector  ETV
vector 946044  Network.dyn_peer[243]  lookupHopsSig:vector  ETV
vector 946045  Network.dyn_peer[243]  lookupStabilitySig:vector  ETV
vector 946046  Network.dyn_peer[243]  lookupTimeSig:vector  ETV
vector 946065  Network.dyn_peer[250]  lookupHopsSig:vector  ETV
vector 946066  Network.dyn_peer[250]  lookupStabilitySig:vector  ETV
vector 946067  Network.dyn_peer[250]  lookupTimeSig:vector  ETV
vector 946071  Network.dyn_peer[252]  lookupHopsSig:vector  ETV
vector 946072  Network.dyn_peer[252]  lookupStabilitySig:vector  ETV
vector 946073  Network.dyn_peer[252]  lookupTimeSig:vector  ETV
vector 946371  Network.dyn_peer[352]  lookupHopsSig:vector  ETV
vector 946372  Network.dyn_peer[352]  lookupStabilitySig:vector  ETV
vector 946373  Network.dyn_peer[352]  lookupTimeSig:vector  ETV
vector 946146  Network.dyn_peer[277]  lookupHopsSig:vector  ETV
vector 946147  Network.dyn_peer[277]  lookupStabilitySig:vector  ETV
vector 946148  Network.dyn_peer[277]  lookupTimeSig:vector  ETV
vector 945864  Network.dyn_peer[183]  lookupHopsSig:vector  ETV
vector 945865  Network.dyn_peer[183]  lookupStabilitySig:vector  ETV
vector 945866  Network.dyn_peer[183]  lookupTimeSig:vector  ETV
vector 946479  Network.dyn_peer[388]  lookupHopsSig:vector  ETV
vector 946480  Network.dyn_peer[388]  lookupStabilitySig:vector  ETV
vector 946481  Network.dyn_peer[388]  lookupTimeSig:vector  ETV
vector 946197  Network.dyn_peer[294]  lookupHopsSig:vector  ETV
vector 946198  Network.dyn_peer[294]  lookupStabilitySig:vector  ETV
vector 946199  Network.dyn_peer[294]  lookupTimeSig:vector  ETV
vector 945609  Network.dyn_peer[98]  lookupHopsSig:vector  ETV
vector 945610  Network.dyn_peer[98]  lookupStabilitySig:vector  ETV
vector 945611  Network.dyn_peer[98]  lookupTimeSig:vector  ETV
vector 945612  Network.dyn_peer[99]  lookupHopsSig:vector  ETV
vector 945613  Network.dyn_peer[99]  lookupStabilitySig:vector  ETV
vector 945614  Network.dyn_peer[99]  lookupTimeSig:vector  ETV
vector 945315  Network.dyn_peer[0]  lookupHopsSig:vector  ETV
vector 945316  Network.dyn_peer[0]  lookupStabilitySig:vector  ETV
vector 945317  Network.dyn_peer[0]  lookupTimeSig:vector  ETV
vector 945624  Network.dyn_peer[103]  lookupHopsSig:vector  ETV
vector 945625  Network.dyn_peer[103]  lookupStabilitySig:vector  ETV
vector 945626  Network.dyn_peer[103]  lookupTimeSig:vector  ETV
vector 945630  Network.dyn_peer[105]  lookupHopsSig:vector  ETV
vector 945631  Network.dyn_peer[105]  lookupStabilitySig:vector  ETV
vector 945632  Network.dyn_peer[105]  lookupTimeSig:vector  ETV
vector 945339  Network.dyn_peer[8]  lookupHopsSig:vector  ETV
vector 945340  Network.dyn_peer[8]  lookupStabilitySig:vector  ETV
vector 945341  Network.dyn_peer[8]  lookupTimeSig:vector  ETV
vector 945639  Network.dyn_peer[108]  lookupHopsSig:vector  ETV
vector 945640  Network.dyn_peer[108]  lookupStabilitySig:vector  ETV
vector 945641  Network.dyn_peer[108]  lookupTimeSig:vector  ETV
vector 945642  Network.dyn_peer[109]  lookupHopsSig:vector  ETV
vector 945643  Network.dyn_peer[109]  lookupStabilitySig:vector  ETV
vector 945644  Network.dyn_peer[109]  lookupTimeSig:vector  ETV
vector 945357  Network.dyn_peer[14]  lookupHopsSig:vector  ETV
vector 945358  Network.dyn_peer[14]  lookupStabilitySig:vector  ETV
vector 945359  Network.dyn_peer[14]  lookupTimeSig:vector  ETV
vector 946317  Network.dyn_peer[334]  lookupHopsSig:vector  ETV
vector 946318  Network.dyn_peer[334]  lookupStabilitySig:vector  ETV
vector 946319  Network.dyn_peer[334]  lookupTimeSig:vector  ETV
vector 945438  Network.dyn_peer[41]  lookupHopsSig:vector  ETV
vector 945439  Network.dyn_peer[41]  lookupStabilitySig:vector  ETV
vector 945440  Network.dyn_peer[41]  lookupTimeSig:vector  ETV
vector 946656  Network.dyn_peer[447]  lookupHopsSig:vector  ETV
vector 946657  Network.dyn_peer[447]  lookupStabilitySig:vector  ETV
vector 946658  Network.dyn_peer[447]  lookupTimeSig:vector  ETV
vector 945786  Network.dyn_peer[157]  lookupHopsSig:vector  ETV
vector 945787  Network.dyn_peer[157]  lookupStabilitySig:vector  ETV
vector 945788  Network.dyn_peer[157]  lookupTimeSig:vector  ETV
vector 945498  Network.dyn_peer[61]  lookupHopsSig:vector  ETV
vector 945499  Network.dyn_peer[61]  lookupStabilitySig:vector  ETV
vector 945500  Network.dyn_peer[61]  lookupTimeSig:vector  ETV
vector 945519  Network.dyn_peer[68]  lookupHopsSig:vector  ETV
vector 945520  Network.dyn_peer[68]  lookupStabilitySig:vector  ETV
vector 945521  Network.dyn_peer[68]  lookupTimeSig:vector  ETV
vector 946119  Network.dyn_peer[268]  lookupHopsSig:vector  ETV
vector 946120  Network.dyn_peer[268]  lookupStabilitySig:vector  ETV
vector 946121  Network.dyn_peer[268]  lookupTimeSig:vector  ETV
vector 946134  Network.dyn_peer[273]  lookupHopsSig:vector  ETV
vector 946135  Network.dyn_peer[273]  lookupStabilitySig:vector  ETV
vector 946136  Network.dyn_peer[273]  lookupTimeSig:vector  ETV
vector 945537  Network.dyn_peer[74]  lookupHopsSig:vector  ETV
vector 945538  Network.dyn_peer[74]  lookupStabilitySig:vector  ETV
vector 945539  Network.dyn_peer[74]  lookupTimeSig:vector  ETV
vector 946137  Network.dyn_peer[274]  lookupHopsSig:vector  ETV
vector 946138  Network.dyn_peer[274]  lookupStabilitySig:vector  ETV
vector 946139  Network.dyn_peer[274]  lookupTimeSig:vector  ETV
vector 945552  Network.dyn_peer[79]  lookupHopsSig:vector  ETV
vector 945553  Network.dyn_peer[79]  lookupStabilitySig:vector  ETV
vector 945554  Network.dyn_peer[79]  lookupTimeSig:vector  ETV
vector 945555  Network.dyn_peer[80]  lookupHopsSig:vector  ETV
vector 945556  Network.dyn_peer[80]  lookupStabilitySig:vector  ETV
vector 945557  Network.dyn_peer[80]  lookupTimeSig:vector  ETV
vector 945861  Network.dyn_peer[182]  lookupHopsSig:vector  ETV
vector 945862  Network.dyn_peer[182]  lookupStabilitySig:vector  ETV
vector 945863  Network.dyn_peer[182]  lookupTimeSig:vector  ETV
vector 945600  Network.dyn_peer[95]  lookupHopsSig:vector  ETV
vector 945601  Network.dyn_peer[95]  lookupStabilitySig:vector  ETV
vector 945602  Network.dyn_peer[95]  lookupTimeSig:vector  ETV
vector 946245  Network.dyn_peer[310]  lookupHopsSig:vector  ETV
vector 946246  Network.dyn_peer[310]  lookupStabilitySig:vector  ETV
vector 946247  Network.dyn_peer[310]  lookupTimeSig:vector  ETV
vector 945948  Network.dyn_peer[211]  lookupHopsSig:vector  ETV
vector 945949  Network.dyn_peer[211]  lookupStabilitySig:vector  ETV
vector 945950  Network.dyn_peer[211]  lookupTimeSig:vector  ETV
vector 945369  Network.dyn_peer[18]  lookupHopsSig:vector  ETV
vector 945370  Network.dyn_peer[18]  lookupStabilitySig:vector  ETV
vector 945371  Network.dyn_peer[18]  lookupTimeSig:vector  ETV
vector 945393  Network.dyn_peer[26]  lookupHopsSig:vector  ETV
vector 945394  Network.dyn_peer[26]  lookupStabilitySig:vector  ETV
vector 945395  Network.dyn_peer[26]  lookupTimeSig:vector  ETV
vector 945993  Network.dyn_peer[226]  lookupHopsSig:vector  ETV
vector 945994  Network.dyn_peer[226]  lookupStabilitySig:vector  ETV
vector 945995  Network.dyn_peer[226]  lookupTimeSig:vector  ETV
vector 945318  Network.dyn_peer[1]  lookupHopsSig:vector  ETV
vector 945319  Network.dyn_peer[1]  lookupStabilitySig:vector  ETV
vector 945320  Network.dyn_peer[1]  lookupTimeSig:vector  ETV
vector 945348  Network.dyn_peer[11]  lookupHopsSig:vector  ETV
vector 945349  Network.dyn_peer[11]  lookupStabilitySig:vector  ETV
vector 945350  Network.dyn_peer[11]  lookupTimeSig:vector  ETV
vector 945648  Network.dyn_peer[111]  lookupHopsSig:vector  ETV
vector 945649  Network.dyn_peer[111]  lookupStabilitySig:vector  ETV
vector 945650  Network.dyn_peer[111]  lookupTimeSig:vector  ETV
vector 946860  Network.dyn_peer[515]  lookupHopsSig:vector  ETV
vector 946861  Network.dyn_peer[515]  lookupStabilitySig:vector  ETV
vector 946862  Network.dyn_peer[515]  lookupTimeSig:vector  ETV
vector 945678  Network.dyn_peer[121]  lookupHopsSig:vector  ETV
vector 945679  Network.dyn_peer[121]  lookupStabilitySig:vector  ETV
vector 945680  Network.dyn_peer[121]  lookupTimeSig:vector  ETV
vector 945381  Network.dyn_peer[22]  lookupHopsSig:vector  ETV
vector 945382  Network.dyn_peer[22]  lookupStabilitySig:vector  ETV
vector 945383  Network.dyn_peer[22]  lookupTimeSig:vector  ETV
vector 945981  Network.dyn_peer[222]  lookupHopsSig:vector  ETV
vector 945982  Network.dyn_peer[222]  lookupStabilitySig:vector  ETV
vector 945983  Network.dyn_peer[222]  lookupTimeSig:vector  ETV
vector 946293  Network.dyn_peer[326]  lookupHopsSig:vector  ETV
vector 946294  Network.dyn_peer[326]  lookupStabilitySig:vector  ETV
vector 946295  Network.dyn_peer[326]  lookupTimeSig:vector  ETV
vector 946905  Network.dyn_peer[530]  lookupHopsSig:vector  ETV
vector 946906  Network.dyn_peer[530]  lookupStabilitySig:vector  ETV
vector 946907  Network.dyn_peer[530]  lookupTimeSig:vector  ETV
vector 946914  Network.dyn_peer[533]  lookupHopsSig:vector  ETV
vector 946915  Network.dyn_peer[533]  lookupStabilitySig:vector  ETV
vector 946916  Network.dyn_peer[533]  lookupTimeSig:vector  ETV
vector 946041  Network.dyn_peer[242]  lookupHopsSig:vector  ETV
vector 946042  Network.dyn_peer[242]  lookupStabilitySig:vector  ETV
vector 946043  Network.dyn_peer[242]  lookupTimeSig:vector  ETV
vector 946941  Network.dyn_peer[542]  lookupHopsSig:vector  ETV
vector 946942  Network.dyn_peer[542]  lookupStabilitySig:vector  ETV
vector 946943  Network.dyn_peer[542]  lookupTimeSig:vector  ETV
vector 946353  Network.dyn_peer[346]  lookupHopsSig:vector  ETV
vector 946354  Network.dyn_peer[346]  lookupStabilitySig:vector  ETV
vector 946355  Network.dyn_peer[346]  lookupTimeSig:vector  ETV
vector 946056  Network.dyn_peer[247]  lookupHopsSig:vector  ETV
vector 946057  Network.dyn_peer[247]  lookupStabilitySig:vector  ETV
vector 946058  Network.dyn_peer[247]  lookupTimeSig:vector  ETV
vector 945459  Network.dyn_peer[48]  lookupHopsSig:vector  ETV
vector 945460  Network.dyn_peer[48]  lookupStabilitySig:vector  ETV
vector 945461  Network.dyn_peer[48]  lookupTimeSig:vector  ETV
vector 946965  Network.dyn_peer[550]  lookupHopsSig:vector  ETV
vector 946966  Network.dyn_peer[550]  lookupStabilitySig:vector  ETV
vector 946967  Network.dyn_peer[550]  lookupTimeSig:vector  ETV
vector 946449  Network.dyn_peer[378]  lookupHopsSig:vector  ETV
vector 946450  Network.dyn_peer[378]  lookupStabilitySig:vector  ETV
vector 946451  Network.dyn_peer[378]  lookupTimeSig:vector  ETV
vector 946173  Network.dyn_peer[286]  lookupHopsSig:vector  ETV
vector 946174  Network.dyn_peer[286]  lookupStabilitySig:vector  ETV
vector 946175  Network.dyn_peer[286]  lookupTimeSig:vector  ETV
vector 947076  Network.dyn_peer[587]  lookupHopsSig:vector  ETV
vector 947077  Network.dyn_peer[587]  lookupStabilitySig:vector  ETV
vector 947078  Network.dyn_peer[587]  lookupTimeSig:vector  ETV
vector 945654  Network.dyn_peer[113]  lookupHopsSig:vector  ETV
vector 945655  Network.dyn_peer[113]  lookupStabilitySig:vector  ETV
vector 945656  Network.dyn_peer[113]  lookupTimeSig:vector  ETV
vector 947469  Network.dyn_peer[718]  lookupHopsSig:vector  ETV
vector 947470  Network.dyn_peer[718]  lookupStabilitySig:vector  ETV
vector 947471  Network.dyn_peer[718]  lookupTimeSig:vector  ETV
vector 946287  Network.dyn_peer[324]  lookupHopsSig:vector  ETV
vector 946288  Network.dyn_peer[324]  lookupStabilitySig:vector  ETV
vector 946289  Network.dyn_peer[324]  lookupTimeSig:vector  ETV
vector 947493  Network.dyn_peer[726]  lookupHopsSig:vector  ETV
vector 947494  Network.dyn_peer[726]  lookupStabilitySig:vector  ETV
vector 947495  Network.dyn_peer[726]  lookupTimeSig:vector  ETV
vector 945396  Network.dyn_peer[27]  lookupHopsSig:vector  ETV
vector 945397  Network.dyn_peer[27]  lookupStabilitySig:vector  ETV
vector 945398  Network.dyn_peer[27]  lookupTimeSig:vector  ETV
vector 945744  Network.dyn_peer[143]  lookupHopsSig:vector  ETV
vector 945745  Network.dyn_peer[143]  lookupStabilitySig:vector  ETV
vector 945746  Network.dyn_peer[143]  lookupTimeSig:vector  ETV
vector 946953  Network.dyn_peer[546]  lookupHopsSig:vector  ETV
vector 946954  Network.dyn_peer[546]  lookupStabilitySig:vector  ETV
vector 946955  Network.dyn_peer[546]  lookupTimeSig:vector  ETV
vector 946956  Network.dyn_peer[547]  lookupHopsSig:vector  ETV
vector 946957  Network.dyn_peer[547]  lookupStabilitySig:vector  ETV
vector 946958  Network.dyn_peer[547]  lookupTimeSig:vector  ETV
vector 946368  Network.dyn_peer[351]  lookupHopsSig:vector  ETV
vector 946369  Network.dyn_peer[351]  lookupStabilitySig:vector  ETV
vector 946370  Network.dyn_peer[351]  lookupTimeSig:vector  ETV
vector 946980  Network.dyn_peer[555]  lookupHopsSig:vector  ETV
vector 946981  Network.dyn_peer[555]  lookupStabilitySig:vector  ETV
vector 946982  Network.dyn_peer[555]  lookupTimeSig:vector  ETV
vector 946392  Network.dyn_peer[359]  lookupHopsSig:vector  ETV
vector 946393  Network.dyn_peer[359]  lookupStabilitySig:vector  ETV
vector 946394  Network.dyn_peer[359]  lookupTimeSig:vector  ETV
vector 947040  Network.dyn_peer[575]  lookupHopsSig:vector  ETV
vector 947041  Network.dyn_peer[575]  lookupStabilitySig:vector  ETV
vector 947042  Network.dyn_peer[575]  lookupTimeSig:vector  ETV
vector 946152  Network.dyn_peer[279]  lookupHopsSig:vector  ETV
vector 946153  Network.dyn_peer[279]  lookupStabilitySig:vector  ETV
vector 946154  Network.dyn_peer[279]  lookupTimeSig:vector  ETV
vector 946455  Network.dyn_peer[380]  lookupHopsSig:vector  ETV
vector 946456  Network.dyn_peer[380]  lookupStabilitySig:vector  ETV
vector 946457  Network.dyn_peer[380]  lookupTimeSig:vector  ETV
vector 946458  Network.dyn_peer[381]  lookupHopsSig:vector  ETV
vector 946459  Network.dyn_peer[381]  lookupStabilitySig:vector  ETV
vector 946460  Network.dyn_peer[381]  lookupTimeSig:vector  ETV
vector 947091  Network.dyn_peer[592]  lookupHopsSig:vector  ETV
vector 947092  Network.dyn_peer[592]  lookupStabilitySig:vector  ETV
vector 947093  Network.dyn_peer[592]  lookupTimeSig:vector  ETV
vector 946206  Network.dyn_peer[297]  lookupHopsSig:vector  ETV
vector 946207  Network.dyn_peer[297]  lookupStabilitySig:vector  ETV
vector 946208  Network.dyn_peer[297]  lookupTimeSig:vector  ETV
vector 947412  Network.dyn_peer[699]  lookupHopsSig:vector  ETV
vector 947413  Network.dyn_peer[699]  lookupStabilitySig:vector  ETV
vector 947414  Network.dyn_peer[699]  lookupTimeSig:vector  ETV
vector 946518  Network.dyn_peer[401]  lookupHopsSig:vector  ETV
vector 946519  Network.dyn_peer[401]  lookupStabilitySig:vector  ETV
vector 946520  Network.dyn_peer[401]  lookupTimeSig:vector  ETV
vector 945342  Network.dyn_peer[9]  lookupHopsSig:vector  ETV
vector 945343  Network.dyn_peer[9]  lookupStabilitySig:vector  ETV
vector 945344  Network.dyn_peer[9]  lookupTimeSig:vector  ETV
vector 946266  Network.dyn_peer[317]  lookupHopsSig:vector  ETV
vector 946267  Network.dyn_peer[317]  lookupStabilitySig:vector  ETV
vector 946268  Network.dyn_peer[317]  lookupTimeSig:vector  ETV
vector 946584  Network.dyn_peer[423]  lookupHopsSig:vector  ETV
vector 946585  Network.dyn_peer[423]  lookupStabilitySig:vector  ETV
vector 946586  Network.dyn_peer[423]  lookupTimeSig:vector  ETV
vector 946893  Network.dyn_peer[526]  lookupHopsSig:vector  ETV
vector 946894  Network.dyn_peer[526]  lookupStabilitySig:vector  ETV
vector 946895  Network.dyn_peer[526]  lookupTimeSig:vector  ETV
vector 945699  Network.dyn_peer[128]  lookupHopsSig:vector  ETV
vector 945700  Network.dyn_peer[128]  lookupStabilitySig:vector  ETV
vector 945701  Network.dyn_peer[128]  lookupTimeSig:vector  ETV
vector 946599  Network.dyn_peer[428]  lookupHopsSig:vector  ETV
vector 946600  Network.dyn_peer[428]  lookupStabilitySig:vector  ETV
vector 946601  Network.dyn_peer[428]  lookupTimeSig:vector  ETV
vector 947199  Network.dyn_peer[628]  lookupHopsSig:vector  ETV
vector 947200  Network.dyn_peer[628]  lookupStabilitySig:vector  ETV
vector 947201  Network.dyn_peer[628]  lookupTimeSig:vector  ETV
vector 946947  Network.dyn_peer[544]  lookupHopsSig:vector  ETV
vector 946948  Network.dyn_peer[544]  lookupStabilitySig:vector  ETV
vector 946949  Network.dyn_peer[544]  lookupTimeSig:vector  ETV
vector 947292  Network.dyn_peer[659]  lookupHopsSig:vector  ETV
vector 947293  Network.dyn_peer[659]  lookupStabilitySig:vector  ETV
vector 947294  Network.dyn_peer[659]  lookupTimeSig:vector  ETV
vector 947022  Network.dyn_peer[569]  lookupHopsSig:vector  ETV
vector 947023  Network.dyn_peer[569]  lookupStabilitySig:vector  ETV
vector 947024  Network.dyn_peer[569]  lookupTimeSig:vector  ETV
vector 945528  Network.dyn_peer[71]  lookupHopsSig:vector  ETV
vector 945529  Network.dyn_peer[71]  lookupStabilitySig:vector  ETV
vector 945530  Network.dyn_peer[71]  lookupTimeSig:vector  ETV
vector 945828  Network.dyn_peer[171]  lookupHopsSig:vector  ETV
vector 945829  Network.dyn_peer[171]  lookupStabilitySig:vector  ETV
vector 945830  Network.dyn_peer[171]  lookupTimeSig:vector  ETV
vector 945540  Network.dyn_peer[75]  lookupHopsSig:vector  ETV
vector 945541  Network.dyn_peer[75]  lookupStabilitySig:vector  ETV
vector 945542  Network.dyn_peer[75]  lookupTimeSig:vector  ETV
vector 945843  Network.dyn_peer[176]  lookupHopsSig:vector  ETV
vector 945844  Network.dyn_peer[176]  lookupStabilitySig:vector  ETV
vector 945845  Network.dyn_peer[176]  lookupTimeSig:vector  ETV
vector 945558  Network.dyn_peer[81]  lookupHopsSig:vector  ETV
vector 945559  Network.dyn_peer[81]  lookupStabilitySig:vector  ETV
vector 945560  Network.dyn_peer[81]  lookupTimeSig:vector  ETV
vector 947361  Network.dyn_peer[682]  lookupHopsSig:vector  ETV
vector 947362  Network.dyn_peer[682]  lookupStabilitySig:vector  ETV
vector 947363  Network.dyn_peer[682]  lookupTimeSig:vector  ETV
vector 947370  Network.dyn_peer[685]  lookupHopsSig:vector  ETV
vector 947371  Network.dyn_peer[685]  lookupStabilitySig:vector  ETV
vector 947372  Network.dyn_peer[685]  lookupTimeSig:vector  ETV
vector 946803  Network.dyn_peer[496]  lookupHopsSig:vector  ETV
vector 946804  Network.dyn_peer[496]  lookupStabilitySig:vector  ETV
vector 946805  Network.dyn_peer[496]  lookupTimeSig:vector  ETV
vector 947115  Network.dyn_peer[600]  lookupHopsSig:vector  ETV
vector 947116  Network.dyn_peer[600]  lookupStabilitySig:vector  ETV
vector 947117  Network.dyn_peer[600]  lookupTimeSig:vector  ETV
vector 945918  Network.dyn_peer[201]  lookupHopsSig:vector  ETV
vector 945919  Network.dyn_peer[201]  lookupStabilitySig:vector  ETV
vector 945920  Network.dyn_peer[201]  lookupTimeSig:vector  ETV
vector 945633  Network.dyn_peer[106]  lookupHopsSig:vector  ETV
vector 945634  Network.dyn_peer[106]  lookupStabilitySig:vector  ETV
vector 945635  Network.dyn_peer[106]  lookupTimeSig:vector  ETV
vector 945375  Network.dyn_peer[20]  lookupHopsSig:vector  ETV
vector 945376  Network.dyn_peer[20]  lookupStabilitySig:vector  ETV
vector 945377  Network.dyn_peer[20]  lookupTimeSig:vector  ETV
vector 946890  Network.dyn_peer[525]  lookupHopsSig:vector  ETV
vector 946891  Network.dyn_peer[525]  lookupStabilitySig:vector  ETV
vector 946892  Network.dyn_peer[525]  lookupTimeSig:vector  ETV