version 2
run Stability2-266-20130526-00:53:28-26640
attr configname Stability2
attr datetime 20130526-00:53:28
attr experiment Stability2
attr inifile omnetpp.ini
attr iterationvars $0=400
attr iterationvars2 "$0=400, $repetition=26"
attr measurement $0=400
attr network Network
attr processid 26640
attr repetition 26
attr replication #26
attr resultdir results
attr runnumber 266
attr seedset 266

vector 801266  Network.churner  inGoingSizeSig:vector  ETV
vector 798275  Network.dyn_peer[3]  lookupHopsSig:vector  ETV
vector 798276  Network.dyn_peer[3]  lookupStabilitySig:vector  ETV
vector 798277  Network.dyn_peer[3]  lookupTimeSig:vector  ETV
vector 798284  Network.dyn_peer[6]  lookupHopsSig:vector  ETV
vector 798285  Network.dyn_peer[6]  lookupStabilitySig:vector  ETV
vector 798286  Network.dyn_peer[6]  lookupTimeSig:vector  ETV
vector 798296  Network.dyn_peer[10]  lookupHopsSig:vector  ETV
vector 798297  Network.dyn_peer[10]  lookupStabilitySig:vector  ETV
vector 798298  Network.dyn_peer[10]  lookupTimeSig:vector  ETV
vector 798299  Network.dyn_peer[11]  lookupHopsSig:vector  ETV
vector 798300  Network.dyn_peer[11]  lookupStabilitySig:vector  ETV
vector 798301  Network.dyn_peer[11]  lookupTimeSig:vector  ETV
vector 798302  Network.dyn_peer[12]  lookupHopsSig:vector  ETV
vector 798303  Network.dyn_peer[12]  lookupStabilitySig:vector  ETV
vector 798304  Network.dyn_peer[12]  lookupTimeSig:vector  ETV
vector 798311  Network.dyn_peer[15]  lookupHopsSig:vector  ETV
vector 798312  Network.dyn_peer[15]  lookupStabilitySig:vector  ETV
vector 798313  Network.dyn_peer[15]  lookupTimeSig:vector  ETV
vector 798320  Network.dyn_peer[18]  lookupHopsSig:vector  ETV
vector 798321  Network.dyn_peer[18]  lookupStabilitySig:vector  ETV
vector 798322  Network.dyn_peer[18]  lookupTimeSig:vector  ETV
vector 798368  Network.dyn_peer[34]  lookupHopsSig:vector  ETV
vector 798369  Network.dyn_peer[34]  lookupStabilitySig:vector  ETV
vector 798370  Network.dyn_peer[34]  lookupTimeSig:vector  ETV
vector 798383  Network.dyn_peer[39]  lookupHopsSig:vector  ETV
vector 798384  Network.dyn_peer[39]  lookupStabilitySig:vector  ETV
vector 798385  Network.dyn_peer[39]  lookupTimeSig:vector  ETV
vector 798401  Network.dyn_peer[45]  lookupHopsSig:vector  ETV
vector 798402  Network.dyn_peer[45]  lookupStabilitySig:vector  ETV
vector 798403  Network.dyn_peer[45]  lookupTimeSig:vector  ETV
vector 798455  Network.dyn_peer[63]  lookupHopsSig:vector  ETV
vector 798456  Network.dyn_peer[63]  lookupStabilitySig:vector  ETV
vector 798457  Network.dyn_peer[63]  lookupTimeSig:vector  ETV
vector 798479  Network.dyn_peer[71]  lookupHopsSig:vector  ETV
vector 798480  Network.dyn_peer[71]  lookupStabilitySig:vector  ETV
vector 798481  Network.dyn_peer[71]  lookupTimeSig:vector  ETV
vector 798560  Network.dyn_peer[98]  lookupHopsSig:vector  ETV
vector 798561  Network.dyn_peer[98]  lookupStabilitySig:vector  ETV
vector 798562  Network.dyn_peer[98]  lookupTimeSig:vector  ETV
vector 798566  Network.dyn_peer[100]  lookupHopsSig:vector  ETV
vector 798567  Network.dyn_peer[100]  lookupStabilitySig:vector  ETV
vector 798568  Network.dyn_peer[100]  lookupTimeSig:vector  ETV
vector 798308  Network.dyn_peer[14]  lookupHopsSig:vector  ETV
vector 798309  Network.dyn_peer[14]  lookupStabilitySig:vector  ETV
vector 798310  Network.dyn_peer[14]  lookupTimeSig:vector  ETV
vector 798332  Network.dyn_peer[22]  lookupHopsSig:vector  ETV
vector 798333  Network.dyn_peer[22]  lookupStabilitySig:vector  ETV
vector 798334  Network.dyn_peer[22]  lookupTimeSig:vector  ETV
vector 798335  Network.dyn_peer[23]  lookupHopsSig:vector  ETV
vector 798336  Network.dyn_peer[23]  lookupStabilitySig:vector  ETV
vector 798337  Network.dyn_peer[23]  lookupTimeSig:vector  ETV
vector 798371  Network.dyn_peer[35]  lookupHopsSig:vector  ETV
vector 798372  Network.dyn_peer[35]  lookupStabilitySig:vector  ETV
vector 798373  Network.dyn_peer[35]  lookupTimeSig:vector  ETV
vector 798395  Network.dyn_peer[43]  lookupHopsSig:vector  ETV
vector 798396  Network.dyn_peer[43]  lookupStabilitySig:vector  ETV
vector 798397  Network.dyn_peer[43]  lookupTimeSig:vector  ETV
vector 798698  Network.dyn_peer[144]  lookupHopsSig:vector  ETV
vector 798699  Network.dyn_peer[144]  lookupStabilitySig:vector  ETV
vector 798700  Network.dyn_peer[144]  lookupTimeSig:vector  ETV
vector 798437  Network.dyn_peer[57]  lookupHopsSig:vector  ETV
vector 798438  Network.dyn_peer[57]  lookupStabilitySig:vector  ETV
vector 798439  Network.dyn_peer[57]  lookupTimeSig:vector  ETV
vector 798446  Network.dyn_peer[60]  lookupHopsSig:vector  ETV
vector 798447  Network.dyn_peer[60]  lookupStabilitySig:vector  ETV
vector 798448  Network.dyn_peer[60]  lookupTimeSig:vector  ETV
vector 798476  Network.dyn_peer[70]  lookupHopsSig:vector  ETV
vector 798477  Network.dyn_peer[70]  lookupStabilitySig:vector  ETV
vector 798478  Network.dyn_peer[70]  lookupTimeSig:vector  ETV
vector 798518  Network.dyn_peer[84]  lookupHopsSig:vector  ETV
vector 798519  Network.dyn_peer[84]  lookupStabilitySig:vector  ETV
vector 798520  Network.dyn_peer[84]  lookupTimeSig:vector  ETV
vector 798542  Network.dyn_peer[92]  lookupHopsSig:vector  ETV
vector 798543  Network.dyn_peer[92]  lookupStabilitySig:vector  ETV
vector 798544  Network.dyn_peer[92]  lookupTimeSig:vector  ETV
vector 798572  Network.dyn_peer[102]  lookupHopsSig:vector  ETV
vector 798573  Network.dyn_peer[102]  lookupStabilitySig:vector  ETV
vector 798574  Network.dyn_peer[102]  lookupTimeSig:vector  ETV
vector 798608  Network.dyn_peer[114]  lookupHopsSig:vector  ETV
vector 798609  Network.dyn_peer[114]  lookupStabilitySig:vector  ETV
vector 798610  Network.dyn_peer[114]  lookupTimeSig:vector  ETV
vector 798620  Network.dyn_peer[118]  lookupHopsSig:vector  ETV
vector 798621  Network.dyn_peer[118]  lookupStabilitySig:vector  ETV
vector 798622  Network.dyn_peer[118]  lookupTimeSig:vector  ETV
vector 799001  Network.dyn_peer[245]  lookupHopsSig:vector  ETV
vector 799002  Network.dyn_peer[245]  lookupStabilitySig:vector  ETV
vector 799003  Network.dyn_peer[245]  lookupTimeSig:vector  ETV
vector 798449  Network.dyn_peer[61]  lookupHopsSig:vector  ETV
vector 798450  Network.dyn_peer[61]  lookupStabilitySig:vector  ETV
vector 798451  Network.dyn_peer[61]  lookupTimeSig:vector  ETV
vector 798494  Network.dyn_peer[76]  lookupHopsSig:vector  ETV
vector 798495  Network.dyn_peer[76]  lookupStabilitySig:vector  ETV
vector 798496  Network.dyn_peer[76]  lookupTimeSig:vector  ETV
vector 798512  Network.dyn_peer[82]  lookupHopsSig:vector  ETV
vector 798513  Network.dyn_peer[82]  lookupStabilitySig:vector  ETV
vector 798514  Network.dyn_peer[82]  lookupTimeSig:vector  ETV
vector 798824  Network.dyn_peer[186]  lookupHopsSig:vector  ETV
vector 798825  Network.dyn_peer[186]  lookupStabilitySig:vector  ETV
vector 798826  Network.dyn_peer[186]  lookupTimeSig:vector  ETV
vector 798527  Network.dyn_peer[87]  lookupHopsSig:vector  ETV
vector 798528  Network.dyn_peer[87]  lookupStabilitySig:vector  ETV
vector 798529  Network.dyn_peer[87]  lookupTimeSig:vector  ETV
vector 798536  Network.dyn_peer[90]  lookupHopsSig:vector  ETV
vector 798537  Network.dyn_peer[90]  lookupStabilitySig:vector  ETV
vector 798538  Network.dyn_peer[90]  lookupTimeSig:vector  ETV
vector 798836  Network.dyn_peer[190]  lookupHopsSig:vector  ETV
vector 798837  Network.dyn_peer[190]  lookupStabilitySig:vector  ETV
vector 798838  Network.dyn_peer[190]  lookupTimeSig:vector  ETV
vector 798857  Network.dyn_peer[197]  lookupHopsSig:vector  ETV
vector 798858  Network.dyn_peer[197]  lookupStabilitySig:vector  ETV
vector 798859  Network.dyn_peer[197]  lookupTimeSig:vector  ETV
vector 798272  Network.dyn_peer[2]  lookupHopsSig:vector  ETV
vector 798273  Network.dyn_peer[2]  lookupStabilitySig:vector  ETV
vector 798274  Network.dyn_peer[2]  lookupTimeSig:vector  ETV
vector 798587  Network.dyn_peer[107]  lookupHopsSig:vector  ETV
vector 798588  Network.dyn_peer[107]  lookupStabilitySig:vector  ETV
vector 798589  Network.dyn_peer[107]  lookupTimeSig:vector  ETV
vector 798293  Network.dyn_peer[9]  lookupHopsSig:vector  ETV
vector 798294  Network.dyn_peer[9]  lookupStabilitySig:vector  ETV
vector 798295  Network.dyn_peer[9]  lookupTimeSig:vector  ETV
vector 798314  Network.dyn_peer[16]  lookupHopsSig:vector  ETV
vector 798315  Network.dyn_peer[16]  lookupStabilitySig:vector  ETV
vector 798316  Network.dyn_peer[16]  lookupTimeSig:vector  ETV
vector 799253  Network.dyn_peer[329]  lookupHopsSig:vector  ETV
vector 799254  Network.dyn_peer[329]  lookupStabilitySig:vector  ETV
vector 799255  Network.dyn_peer[329]  lookupTimeSig:vector  ETV
vector 798695  Network.dyn_peer[143]  lookupHopsSig:vector  ETV
vector 798696  Network.dyn_peer[143]  lookupStabilitySig:vector  ETV
vector 798697  Network.dyn_peer[143]  lookupTimeSig:vector  ETV
vector 798725  Network.dyn_peer[153]  lookupHopsSig:vector  ETV
vector 798726  Network.dyn_peer[153]  lookupStabilitySig:vector  ETV
vector 798727  Network.dyn_peer[153]  lookupTimeSig:vector  ETV
vector 798431  Network.dyn_peer[55]  lookupHopsSig:vector  ETV
vector 798432  Network.dyn_peer[55]  lookupStabilitySig:vector  ETV
vector 798433  Network.dyn_peer[55]  lookupTimeSig:vector  ETV
vector 798755  Network.dyn_peer[163]  lookupHopsSig:vector  ETV
vector 798756  Network.dyn_peer[163]  lookupStabilitySig:vector  ETV
vector 798757  Network.dyn_peer[163]  lookupTimeSig:vector  ETV
vector 798461  Network.dyn_peer[65]  lookupHopsSig:vector  ETV
vector 798462  Network.dyn_peer[65]  lookupStabilitySig:vector  ETV
vector 798463  Network.dyn_peer[65]  lookupTimeSig:vector  ETV
vector 799130  Network.dyn_peer[288]  lookupHopsSig:vector  ETV
vector 799131  Network.dyn_peer[288]  lookupStabilitySig:vector  ETV
vector 799132  Network.dyn_peer[288]  lookupTimeSig:vector  ETV
vector 799133  Network.dyn_peer[289]  lookupHopsSig:vector  ETV
vector 799134  Network.dyn_peer[289]  lookupStabilitySig:vector  ETV
vector 799135  Network.dyn_peer[289]  lookupTimeSig:vector  ETV
vector 798551  Network.dyn_peer[95]  lookupHopsSig:vector  ETV
vector 798552  Network.dyn_peer[95]  lookupStabilitySig:vector  ETV
vector 798553  Network.dyn_peer[95]  lookupTimeSig:vector  ETV
vector 799154  Network.dyn_peer[296]  lookupHopsSig:vector  ETV
vector 799155  Network.dyn_peer[296]  lookupStabilitySig:vector  ETV
vector 799156  Network.dyn_peer[296]  lookupTimeSig:vector  ETV
vector 798266  Network.dyn_peer[0]  lookupHopsSig:vector  ETV
vector 798267  Network.dyn_peer[0]  lookupStabilitySig:vector  ETV
vector 798268  Network.dyn_peer[0]  lookupTimeSig:vector  ETV
vector 798590  Network.dyn_peer[108]  lookupHopsSig:vector  ETV
vector 798591  Network.dyn_peer[108]  lookupStabilitySig:vector  ETV
vector 798592  Network.dyn_peer[108]  lookupTimeSig:vector  ETV
vector 799226  Network.dyn_peer[320]  lookupHopsSig:vector  ETV
vector 799227  Network.dyn_peer[320]  lookupStabilitySig:vector  ETV
vector 799228  Network.dyn_peer[320]  lookupTimeSig:vector  ETV
vector 798935  Network.dyn_peer[223]  lookupHopsSig:vector  ETV
vector 798936  Network.dyn_peer[223]  lookupStabilitySig:vector  ETV
vector 798937  Network.dyn_peer[223]  lookupTimeSig:vector  ETV
vector 798959  Network.dyn_peer[231]  lookupHopsSig:vector  ETV
vector 798960  Network.dyn_peer[231]  lookupStabilitySig:vector  ETV
vector 798961  Network.dyn_peer[231]  lookupTimeSig:vector  ETV
vector 798965  Network.dyn_peer[233]  lookupHopsSig:vector  ETV
vector 798966  Network.dyn_peer[233]  lookupStabilitySig:vector  ETV
vector 798967  Network.dyn_peer[233]  lookupTimeSig:vector  ETV
vector 798671  Network.dyn_peer[135]  lookupHopsSig:vector  ETV
vector 798672  Network.dyn_peer[135]  lookupStabilitySig:vector  ETV
vector 798673  Network.dyn_peer[135]  lookupTimeSig:vector  ETV
vector 798971  Network.dyn_peer[235]  lookupHopsSig:vector  ETV
vector 798972  Network.dyn_peer[235]  lookupStabilitySig:vector  ETV
vector 798973  Network.dyn_peer[235]  lookupTimeSig:vector  ETV
vector 798392  Network.dyn_peer[42]  lookupHopsSig:vector  ETV
vector 798393  Network.dyn_peer[42]  lookupStabilitySig:vector  ETV
vector 798394  Network.dyn_peer[42]  lookupTimeSig:vector  ETV
vector 798992  Network.dyn_peer[242]  lookupHopsSig:vector  ETV
vector 798993  Network.dyn_peer[242]  lookupStabilitySig:vector  ETV
vector 798994  Network.dyn_peer[242]  lookupTimeSig:vector  ETV
vector 799316  Network.dyn_peer[350]  lookupHopsSig:vector  ETV
vector 799317  Network.dyn_peer[350]  lookupStabilitySig:vector  ETV
vector 799318  Network.dyn_peer[350]  lookupTimeSig:vector  ETV
vector 799319  Network.dyn_peer[351]  lookupHopsSig:vector  ETV
vector 799320  Network.dyn_peer[351]  lookupStabilitySig:vector  ETV
vector 799321  Network.dyn_peer[351]  lookupTimeSig:vector  ETV
vector 799337  Network.dyn_peer[357]  lookupHopsSig:vector  ETV
vector 799338  Network.dyn_peer[357]  lookupStabilitySig:vector  ETV
vector 799339  Network.dyn_peer[357]  lookupTimeSig:vector  ETV
vector 798758  Network.dyn_peer[164]  lookupHopsSig:vector  ETV
vector 798759  Network.dyn_peer[164]  lookupStabilitySig:vector  ETV
vector 798760  Network.dyn_peer[164]  lookupTimeSig:vector  ETV
vector 799082  Network.dyn_peer[272]  lookupHopsSig:vector  ETV
vector 799083  Network.dyn_peer[272]  lookupStabilitySig:vector  ETV
vector 799084  Network.dyn_peer[272]  lookupTimeSig:vector  ETV
vector 799382  Network.dyn_peer[372]  lookupHopsSig:vector  ETV
vector 799383  Network.dyn_peer[372]  lookupStabilitySig:vector  ETV
vector 799384  Network.dyn_peer[372]  lookupTimeSig:vector  ETV
vector 798491  Network.dyn_peer[75]  lookupHopsSig:vector  ETV
vector 798492  Network.dyn_peer[75]  lookupStabilitySig:vector  ETV
vector 798493  Network.dyn_peer[75]  lookupTimeSig:vector  ETV
vector 798815  Network.dyn_peer[183]  lookupHopsSig:vector  ETV
vector 798816  Network.dyn_peer[183]  lookupStabilitySig:vector  ETV
vector 798817  Network.dyn_peer[183]  lookupTimeSig:vector  ETV
vector 798833  Network.dyn_peer[189]  lookupHopsSig:vector  ETV
vector 798834  Network.dyn_peer[189]  lookupStabilitySig:vector  ETV
vector 798835  Network.dyn_peer[189]  lookupTimeSig:vector  ETV
vector 799157  Network.dyn_peer[297]  lookupHopsSig:vector  ETV
vector 799158  Network.dyn_peer[297]  lookupStabilitySig:vector  ETV
vector 799159  Network.dyn_peer[297]  lookupTimeSig:vector  ETV
vector 798290  Network.dyn_peer[8]  lookupHopsSig:vector  ETV
vector 798291  Network.dyn_peer[8]  lookupStabilitySig:vector  ETV
vector 798292  Network.dyn_peer[8]  lookupTimeSig:vector  ETV
vector 799214  Network.dyn_peer[316]  lookupHopsSig:vector  ETV
vector 799215  Network.dyn_peer[316]  lookupStabilitySig:vector  ETV
vector 799216  Network.dyn_peer[316]  lookupTimeSig:vector  ETV
vector 798326  Network.dyn_peer[20]  lookupHopsSig:vector  ETV
vector 798327  Network.dyn_peer[20]  lookupStabilitySig:vector  ETV
vector 798328  Network.dyn_peer[20]  lookupTimeSig:vector  ETV
vector 798632  Network.dyn_peer[122]  lookupHopsSig:vector  ETV
vector 798633  Network.dyn_peer[122]  lookupStabilitySig:vector  ETV
vector 798634  Network.dyn_peer[122]  lookupTimeSig:vector  ETV
vector 798962  Network.dyn_peer[232]  lookupHopsSig:vector  ETV
vector 798963  Network.dyn_peer[232]  lookupStabilitySig:vector  ETV
vector 798964  Network.dyn_peer[232]  lookupTimeSig:vector  ETV
vector 799262  Network.dyn_peer[332]  lookupHopsSig:vector  ETV
vector 799263  Network.dyn_peer[332]  lookupStabilitySig:vector  ETV
vector 799264  Network.dyn_peer[332]  lookupTimeSig:vector  ETV
vector 798665  Network.dyn_peer[133]  lookupHopsSig:vector  ETV
vector 798666  Network.dyn_peer[133]  lookupStabilitySig:vector  ETV
vector 798667  Network.dyn_peer[133]  lookupTimeSig:vector  ETV
vector 798668  Network.dyn_peer[134]  lookupHopsSig:vector  ETV
vector 798669  Network.dyn_peer[134]  lookupStabilitySig:vector  ETV
vector 798670  Network.dyn_peer[134]  lookupTimeSig:vector  ETV
vector 798674  Network.dyn_peer[136]  lookupHopsSig:vector  ETV
vector 798675  Network.dyn_peer[136]  lookupStabilitySig:vector  ETV
vector 798676  Network.dyn_peer[136]  lookupTimeSig:vector  ETV
vector 798683  Network.dyn_peer[139]  lookupHopsSig:vector  ETV
vector 798684  Network.dyn_peer[139]  lookupStabilitySig:vector  ETV
vector 798685  Network.dyn_peer[139]  lookupTimeSig:vector  ETV
vector 799307  Network.dyn_peer[347]  lookupHopsSig:vector  ETV
vector 799308  Network.dyn_peer[347]  lookupStabilitySig:vector  ETV
vector 799309  Network.dyn_peer[347]  lookupTimeSig:vector  ETV
vector 798413  Network.dyn_peer[49]  lookupHopsSig:vector  ETV
vector 798414  Network.dyn_peer[49]  lookupStabilitySig:vector  ETV
vector 798415  Network.dyn_peer[49]  lookupTimeSig:vector  ETV
vector 798716  Network.dyn_peer[150]  lookupHopsSig:vector  ETV
vector 798717  Network.dyn_peer[150]  lookupStabilitySig:vector  ETV
vector 798718  Network.dyn_peer[150]  lookupTimeSig:vector  ETV
vector 799328  Network.dyn_peer[354]  lookupHopsSig:vector  ETV
vector 799329  Network.dyn_peer[354]  lookupStabilitySig:vector  ETV
vector 799330  Network.dyn_peer[354]  lookupTimeSig:vector  ETV
vector 798731  Network.dyn_peer[155]  lookupHopsSig:vector  ETV
vector 798732  Network.dyn_peer[155]  lookupStabilitySig:vector  ETV
vector 798733  Network.dyn_peer[155]  lookupTimeSig:vector  ETV
vector 798434  Network.dyn_peer[56]  lookupHopsSig:vector  ETV
vector 798435  Network.dyn_peer[56]  lookupStabilitySig:vector  ETV
vector 798436  Network.dyn_peer[56]  lookupTimeSig:vector  ETV
vector 798749  Network.dyn_peer[161]  lookupHopsSig:vector  ETV
vector 798750  Network.dyn_peer[161]  lookupStabilitySig:vector  ETV
vector 798751  Network.dyn_peer[161]  lookupTimeSig:vector  ETV
vector 799049  Network.dyn_peer[261]  lookupHopsSig:vector  ETV
vector 799050  Network.dyn_peer[261]  lookupStabilitySig:vector  ETV
vector 799051  Network.dyn_peer[261]  lookupTimeSig:vector  ETV
vector 798770  Network.dyn_peer[168]  lookupHopsSig:vector  ETV
vector 798771  Network.dyn_peer[168]  lookupStabilitySig:vector  ETV
vector 798772  Network.dyn_peer[168]  lookupTimeSig:vector  ETV
vector 799070  Network.dyn_peer[268]  lookupHopsSig:vector  ETV
vector 799071  Network.dyn_peer[268]  lookupStabilitySig:vector  ETV
vector 799072  Network.dyn_peer[268]  lookupTimeSig:vector  ETV
vector 799088  Network.dyn_peer[274]  lookupHopsSig:vector  ETV
vector 799089  Network.dyn_peer[274]  lookupStabilitySig:vector  ETV
vector 799090  Network.dyn_peer[274]  lookupTimeSig:vector  ETV
vector 798500  Network.dyn_peer[78]  lookupHopsSig:vector  ETV
vector 798501  Network.dyn_peer[78]  lookupStabilitySig:vector  ETV
vector 798502  Network.dyn_peer[78]  lookupTimeSig:vector  ETV
vector 799181  Network.dyn_peer[305]  lookupHopsSig:vector  ETV
vector 799182  Network.dyn_peer[305]  lookupStabilitySig:vector  ETV
vector 799183  Network.dyn_peer[305]  lookupTimeSig:vector  ETV
vector 798584  Network.dyn_peer[106]  lookupHopsSig:vector  ETV
vector 798585  Network.dyn_peer[106]  lookupStabilitySig:vector  ETV
vector 798586  Network.dyn_peer[106]  lookupTimeSig:vector  ETV
vector 799220  Network.dyn_peer[318]  lookupHopsSig:vector  ETV
vector 799221  Network.dyn_peer[318]  lookupStabilitySig:vector  ETV
vector 799222  Network.dyn_peer[318]  lookupTimeSig:vector  ETV
vector 799229  Network.dyn_peer[321]  lookupHopsSig:vector  ETV
vector 799230  Network.dyn_peer[321]  lookupStabilitySig:vector  ETV
vector 799231  Network.dyn_peer[321]  lookupTimeSig:vector  ETV
vector 798977  Network.dyn_peer[237]  lookupHopsSig:vector  ETV
vector 798978  Network.dyn_peer[237]  lookupStabilitySig:vector  ETV
vector 798979  Network.dyn_peer[237]  lookupTimeSig:vector  ETV
vector 798701  Network.dyn_peer[145]  lookupHopsSig:vector  ETV
vector 798702  Network.dyn_peer[145]  lookupStabilitySig:vector  ETV
vector 798703  Network.dyn_peer[145]  lookupTimeSig:vector  ETV
vector 799007  Network.dyn_peer[247]  lookupHopsSig:vector  ETV
vector 799008  Network.dyn_peer[247]  lookupStabilitySig:vector  ETV
vector 799009  Network.dyn_peer[247]  lookupTimeSig:vector  ETV
vector 799010  Network.dyn_peer[248]  lookupHopsSig:vector  ETV
vector 799011  Network.dyn_peer[248]  lookupStabilitySig:vector  ETV
vector 799012  Network.dyn_peer[248]  lookupTimeSig:vector  ETV
vector 799322  Network.dyn_peer[352]  lookupHopsSig:vector  ETV
vector 799323  Network.dyn_peer[352]  lookupStabilitySig:vector  ETV
vector 799324  Network.dyn_peer[352]  lookupTimeSig:vector  ETV
vector 799325  Network.dyn_peer[353]  lookupHopsSig:vector  ETV
vector 799326  Network.dyn_peer[353]  lookupStabilitySig:vector  ETV
vector 799327  Network.dyn_peer[353]  lookupTimeSig:vector  ETV
vector 799031  Network.dyn_peer[255]  lookupHopsSig:vector  ETV
vector 799032  Network.dyn_peer[255]  lookupStabilitySig:vector  ETV
vector 799033  Network.dyn_peer[255]  lookupTimeSig:vector  ETV
vector 798800  Network.dyn_peer[178]  lookupHopsSig:vector  ETV
vector 798801  Network.dyn_peer[178]  lookupStabilitySig:vector  ETV
vector 798802  Network.dyn_peer[178]  lookupTimeSig:vector  ETV
vector 799100  Network.dyn_peer[278]  lookupHopsSig:vector  ETV
vector 799101  Network.dyn_peer[278]  lookupStabilitySig:vector  ETV
vector 799102  Network.dyn_peer[278]  lookupTimeSig:vector  ETV
vector 799418  Network.dyn_peer[384]  lookupHopsSig:vector  ETV
vector 799419  Network.dyn_peer[384]  lookupStabilitySig:vector  ETV
vector 799420  Network.dyn_peer[384]  lookupTimeSig:vector  ETV
vector 799436  Network.dyn_peer[390]  lookupHopsSig:vector  ETV
vector 799437  Network.dyn_peer[390]  lookupStabilitySig:vector  ETV
vector 799438  Network.dyn_peer[390]  lookupTimeSig:vector  ETV
vector 798593  Network.dyn_peer[109]  lookupHopsSig:vector  ETV
vector 798594  Network.dyn_peer[109]  lookupStabilitySig:vector  ETV
vector 798595  Network.dyn_peer[109]  lookupTimeSig:vector  ETV
vector 798899  Network.dyn_peer[211]  lookupHopsSig:vector  ETV
vector 798900  Network.dyn_peer[211]  lookupStabilitySig:vector  ETV
vector 798901  Network.dyn_peer[211]  lookupTimeSig:vector  ETV
vector 798605  Network.dyn_peer[113]  lookupHopsSig:vector  ETV
vector 798606  Network.dyn_peer[113]  lookupStabilitySig:vector  ETV
vector 798607  Network.dyn_peer[113]  lookupTimeSig:vector  ETV
vector 798917  Network.dyn_peer[217]  lookupHopsSig:vector  ETV
vector 798918  Network.dyn_peer[217]  lookupStabilitySig:vector  ETV
vector 798919  Network.dyn_peer[217]  lookupTimeSig:vector  ETV
vector 798626  Network.dyn_peer[120]  lookupHopsSig:vector  ETV
vector 798627  Network.dyn_peer[120]  lookupStabilitySig:vector  ETV
vector 798628  Network.dyn_peer[120]  lookupTimeSig:vector  ETV
vector 798644  Network.dyn_peer[126]  lookupHopsSig:vector  ETV
vector 798645  Network.dyn_peer[126]  lookupStabilitySig:vector  ETV
vector 798646  Network.dyn_peer[126]  lookupTimeSig:vector  ETV
vector 798380  Network.dyn_peer[38]  lookupHopsSig:vector  ETV
vector 798381  Network.dyn_peer[38]  lookupStabilitySig:vector  ETV
vector 798382  Network.dyn_peer[38]  lookupTimeSig:vector  ETV
vector 798389  Network.dyn_peer[41]  lookupHopsSig:vector  ETV
vector 798390  Network.dyn_peer[41]  lookupStabilitySig:vector  ETV
vector 798391  Network.dyn_peer[41]  lookupTimeSig:vector  ETV
vector 799310  Network.dyn_peer[348]  lookupHopsSig:vector  ETV
vector 799311  Network.dyn_peer[348]  lookupStabilitySig:vector  ETV
vector 799312  Network.dyn_peer[348]  lookupTimeSig:vector  ETV
vector 799052  Network.dyn_peer[262]  lookupHopsSig:vector  ETV
vector 799053  Network.dyn_peer[262]  lookupStabilitySig:vector  ETV
vector 799054  Network.dyn_peer[262]  lookupTimeSig:vector  ETV
vector 799094  Network.dyn_peer[276]  lookupHopsSig:vector  ETV
vector 799095  Network.dyn_peer[276]  lookupStabilitySig:vector  ETV
vector 799096  Network.dyn_peer[276]  lookupTimeSig:vector  ETV
vector 799397  Network.dyn_peer[377]  lookupHopsSig:vector  ETV
vector 799398  Network.dyn_peer[377]  lookupStabilitySig:vector  ETV
vector 799399  Network.dyn_peer[377]  lookupTimeSig:vector  ETV
vector 798860  Network.dyn_peer[198]  lookupHopsSig:vector  ETV
vector 798861  Network.dyn_peer[198]  lookupStabilitySig:vector  ETV
vector 798862  Network.dyn_peer[198]  lookupTimeSig:vector  ETV
vector 799163  Network.dyn_peer[299]  lookupHopsSig:vector  ETV
vector 799164  Network.dyn_peer[299]  lookupStabilitySig:vector  ETV
vector 799165  Network.dyn_peer[299]  lookupTimeSig:vector  ETV
vector 798269  Network.dyn_peer[1]  lookupHopsSig:vector  ETV
vector 798270  Network.dyn_peer[1]  lookupStabilitySig:vector  ETV
vector 798271  Network.dyn_peer[1]  lookupTimeSig:vector  ETV
vector 798281  Network.dyn_peer[5]  lookupHopsSig:vector  ETV
vector 798282  Network.dyn_peer[5]  lookupStabilitySig:vector  ETV
vector 798283  Network.dyn_peer[5]  lookupTimeSig:vector  ETV
vector 798902  Network.dyn_peer[212]  lookupHopsSig:vector  ETV
vector 798903  Network.dyn_peer[212]  lookupStabilitySig:vector  ETV
vector 798904  Network.dyn_peer[212]  lookupTimeSig:vector  ETV
vector 798350  Network.dyn_peer[28]  lookupHopsSig:vector  ETV
vector 798351  Network.dyn_peer[28]  lookupStabilitySig:vector  ETV
vector 798352  Network.dyn_peer[28]  lookupTimeSig:vector  ETV
vector 798659  Network.dyn_peer[131]  lookupHopsSig:vector  ETV
vector 798660  Network.dyn_peer[131]  lookupStabilitySig:vector  ETV
vector 798661  Network.dyn_peer[131]  lookupTimeSig:vector  ETV
vector 799280  Network.dyn_peer[338]  lookupHopsSig:vector  ETV
vector 799281  Network.dyn_peer[338]  lookupStabilitySig:vector  ETV
vector 799282  Network.dyn_peer[338]  lookupTimeSig:vector  ETV
vector 798986  Network.dyn_peer[240]  lookupHopsSig:vector  ETV
vector 798987  Network.dyn_peer[240]  lookupStabilitySig:vector  ETV
vector 798988  Network.dyn_peer[240]  lookupTimeSig:vector  ETV
vector 798734  Network.dyn_peer[156]  lookupHopsSig:vector  ETV
vector 798735  Network.dyn_peer[156]  lookupStabilitySig:vector  ETV
vector 798736  Network.dyn_peer[156]  lookupTimeSig:vector  ETV
vector 798485  Network.dyn_peer[73]  lookupHopsSig:vector  ETV
vector 798486  Network.dyn_peer[73]  lookupStabilitySig:vector  ETV
vector 798487  Network.dyn_peer[73]  lookupTimeSig:vector  ETV
vector 799106  Network.dyn_peer[280]  lookupHopsSig:vector  ETV
vector 799107  Network.dyn_peer[280]  lookupStabilitySig:vector  ETV
vector 799108  Network.dyn_peer[280]  lookupTimeSig:vector  ETV
vector 798548  Network.dyn_peer[94]  lookupHopsSig:vector  ETV
vector 798549  Network.dyn_peer[94]  lookupStabilitySig:vector  ETV
vector 798550  Network.dyn_peer[94]  lookupTimeSig:vector  ETV
vector 799451  Network.dyn_peer[395]  lookupHopsSig:vector  ETV
vector 799452  Network.dyn_peer[395]  lookupStabilitySig:vector  ETV
vector 799453  Network.dyn_peer[395]  lookupTimeSig:vector  ETV
vector 798938  Network.dyn_peer[224]  lookupHopsSig:vector  ETV
vector 798939  Network.dyn_peer[224]  lookupStabilitySig:vector  ETV
vector 798940  Network.dyn_peer[224]  lookupTimeSig:vector  ETV
vector 798353  Network.dyn_peer[29]  lookupHopsSig:vector  ETV
vector 798354  Network.dyn_peer[29]  lookupStabilitySig:vector  ETV
vector 798355  Network.dyn_peer[29]  lookupTimeSig:vector  ETV
vector 798416  Network.dyn_peer[50]  lookupHopsSig:vector  ETV
vector 798417  Network.dyn_peer[50]  lookupStabilitySig:vector  ETV
vector 798418  Network.dyn_peer[50]  lookupTimeSig:vector  ETV
vector 799016  Network.dyn_peer[250]  lookupHopsSig:vector  ETV
vector 799017  Network.dyn_peer[250]  lookupStabilitySig:vector  ETV
vector 799018  Network.dyn_peer[250]  lookupTimeSig:vector  ETV
vector 798737  Network.dyn_peer[157]  lookupHopsSig:vector  ETV
vector 798738  Network.dyn_peer[157]  lookupStabilitySig:vector  ETV
vector 798739  Network.dyn_peer[157]  lookupTimeSig:vector  ETV
vector 799352  Network.dyn_peer[362]  lookupHopsSig:vector  ETV
vector 799353  Network.dyn_peer[362]  lookupStabilitySig:vector  ETV
vector 799354  Network.dyn_peer[362]  lookupTimeSig:vector  ETV
vector 798467  Network.dyn_peer[67]  lookupHopsSig:vector  ETV
vector 798468  Network.dyn_peer[67]  lookupStabilitySig:vector  ETV
vector 798469  Network.dyn_peer[67]  lookupTimeSig:vector  ETV
vector 798509  Network.dyn_peer[81]  lookupHopsSig:vector  ETV
vector 798510  Network.dyn_peer[81]  lookupStabilitySig:vector  ETV
vector 798511  Network.dyn_peer[81]  lookupTimeSig:vector  ETV
vector 799127  Network.dyn_peer[287]  lookupHopsSig:vector  ETV
vector 799128  Network.dyn_peer[287]  lookupStabilitySig:vector  ETV
vector 799129  Network.dyn_peer[287]  lookupTimeSig:vector  ETV
vector 798896  Network.dyn_peer[210]  lookupHopsSig:vector  ETV
vector 798897  Network.dyn_peer[210]  lookupStabilitySig:vector  ETV
vector 798898  Network.dyn_peer[210]  lookupTimeSig:vector  ETV
vector 799241  Network.dyn_peer[325]  lookupHopsSig:vector  ETV
vector 799242  Network.dyn_peer[325]  lookupStabilitySig:vector  ETV
vector 799243  Network.dyn_peer[325]  lookupTimeSig:vector  ETV
vector 799265  Network.dyn_peer[333]  lookupHopsSig:vector  ETV
vector 799266  Network.dyn_peer[333]  lookupStabilitySig:vector  ETV
vector 799267  Network.dyn_peer[333]  lookupTimeSig:vector  ETV
vector 798398  Network.dyn_peer[44]  lookupHopsSig:vector  ETV
vector 798399  Network.dyn_peer[44]  lookupStabilitySig:vector  ETV
vector 798400  Network.dyn_peer[44]  lookupTimeSig:vector  ETV
vector 799298  Network.dyn_peer[344]  lookupHopsSig:vector  ETV
vector 799299  Network.dyn_peer[344]  lookupStabilitySig:vector  ETV
vector 799300  Network.dyn_peer[344]  lookupTimeSig:vector  ETV
vector 798428  Network.dyn_peer[54]  lookupHopsSig:vector  ETV
vector 798429  Network.dyn_peer[54]  lookupStabilitySig:vector  ETV
vector 798430  Network.dyn_peer[54]  lookupTimeSig:vector  ETV
vector 798464  Network.dyn_peer[66]  lookupHopsSig:vector  ETV
vector 798465  Network.dyn_peer[66]  lookupStabilitySig:vector  ETV
vector 798466  Network.dyn_peer[66]  lookupTimeSig:vector  ETV
vector 798764  Network.dyn_peer[166]  lookupHopsSig:vector  ETV
vector 798765  Network.dyn_peer[166]  lookupStabilitySig:vector  ETV