version 2
run Stability2-259-20130526-00:53:20-26640
attr configname Stability2
attr datetime 20130526-00:53:20
attr experiment Stability2
attr inifile omnetpp.ini
attr iterationvars $0=400
attr iterationvars2 "$0=400, $repetition=19"
attr measurement $0=400
attr network Network
attr processid 26640
attr repetition 19
attr replication #19
attr resultdir results
attr runnumber 259
attr seedset 259

vector 780259  Network.churner  inGoingSizeSig:vector  ETV
vector 777271  Network.dyn_peer[4]  lookupHopsSig:vector  ETV
vector 777272  Network.dyn_peer[4]  lookupStabilitySig:vector  ETV
vector 777273  Network.dyn_peer[4]  lookupTimeSig:vector  ETV
vector 777295  Network.dyn_peer[12]  lookupHopsSig:vector  ETV
vector 777296  Network.dyn_peer[12]  lookupStabilitySig:vector  ETV
vector 777297  Network.dyn_peer[12]  lookupTimeSig:vector  ETV
vector 777310  Network.dyn_peer[17]  lookupHopsSig:vector  ETV
vector 777311  Network.dyn_peer[17]  lookupStabilitySig:vector  ETV
vector 777312  Network.dyn_peer[17]  lookupTimeSig:vector  ETV
vector 777322  Network.dyn_peer[21]  lookupHopsSig:vector  ETV
vector 777323  Network.dyn_peer[21]  lookupStabilitySig:vector  ETV
vector 777324  Network.dyn_peer[21]  lookupTimeSig:vector  ETV
vector 777352  Network.dyn_peer[31]  lookupHopsSig:vector  ETV
vector 777353  Network.dyn_peer[31]  lookupStabilitySig:vector  ETV
vector 777354  Network.dyn_peer[31]  lookupTimeSig:vector  ETV
vector 777370  Network.dyn_peer[37]  lookupHopsSig:vector  ETV
vector 777371  Network.dyn_peer[37]  lookupStabilitySig:vector  ETV
vector 777372  Network.dyn_peer[37]  lookupTimeSig:vector  ETV
vector 777382  Network.dyn_peer[41]  lookupHopsSig:vector  ETV
vector 777383  Network.dyn_peer[41]  lookupStabilitySig:vector  ETV
vector 777384  Network.dyn_peer[41]  lookupTimeSig:vector  ETV
vector 777457  Network.dyn_peer[66]  lookupHopsSig:vector  ETV
vector 777458  Network.dyn_peer[66]  lookupStabilitySig:vector  ETV
vector 777459  Network.dyn_peer[66]  lookupTimeSig:vector  ETV
vector 777265  Network.dyn_peer[2]  lookupHopsSig:vector  ETV
vector 777266  Network.dyn_peer[2]  lookupStabilitySig:vector  ETV
vector 777267  Network.dyn_peer[2]  lookupTimeSig:vector  ETV
vector 777268  Network.dyn_peer[3]  lookupHopsSig:vector  ETV
vector 777269  Network.dyn_peer[3]  lookupStabilitySig:vector  ETV
vector 777270  Network.dyn_peer[3]  lookupTimeSig:vector  ETV
vector 777286  Network.dyn_peer[9]  lookupHopsSig:vector  ETV
vector 777287  Network.dyn_peer[9]  lookupStabilitySig:vector  ETV
vector 777288  Network.dyn_peer[9]  lookupTimeSig:vector  ETV
vector 777592  Network.dyn_peer[111]  lookupHopsSig:vector  ETV
vector 777593  Network.dyn_peer[111]  lookupStabilitySig:vector  ETV
vector 777594  Network.dyn_peer[111]  lookupTimeSig:vector  ETV
vector 777334  Network.dyn_peer[25]  lookupHopsSig:vector  ETV
vector 777335  Network.dyn_peer[25]  lookupStabilitySig:vector  ETV
vector 777336  Network.dyn_peer[25]  lookupTimeSig:vector  ETV
vector 777337  Network.dyn_peer[26]  lookupHopsSig:vector  ETV
vector 777338  Network.dyn_peer[26]  lookupStabilitySig:vector  ETV
vector 777339  Network.dyn_peer[26]  lookupTimeSig:vector  ETV
vector 777361  Network.dyn_peer[34]  lookupHopsSig:vector  ETV
vector 777362  Network.dyn_peer[34]  lookupStabilitySig:vector  ETV
vector 777363  Network.dyn_peer[34]  lookupTimeSig:vector  ETV
vector 777367  Network.dyn_peer[36]  lookupHopsSig:vector  ETV
vector 777368  Network.dyn_peer[36]  lookupStabilitySig:vector  ETV
vector 777369  Network.dyn_peer[36]  lookupTimeSig:vector  ETV
vector 777373  Network.dyn_peer[38]  lookupHopsSig:vector  ETV
vector 777374  Network.dyn_peer[38]  lookupStabilitySig:vector  ETV
vector 777375  Network.dyn_peer[38]  lookupTimeSig:vector  ETV
vector 777694  Network.dyn_peer[145]  lookupHopsSig:vector  ETV
vector 777695  Network.dyn_peer[145]  lookupStabilitySig:vector  ETV
vector 777696  Network.dyn_peer[145]  lookupTimeSig:vector  ETV
vector 777397  Network.dyn_peer[46]  lookupHopsSig:vector  ETV
vector 777398  Network.dyn_peer[46]  lookupStabilitySig:vector  ETV
vector 777399  Network.dyn_peer[46]  lookupTimeSig:vector  ETV
vector 777400  Network.dyn_peer[47]  lookupHopsSig:vector  ETV
vector 777401  Network.dyn_peer[47]  lookupStabilitySig:vector  ETV
vector 777402  Network.dyn_peer[47]  lookupTimeSig:vector  ETV
vector 777712  Network.dyn_peer[151]  lookupHopsSig:vector  ETV
vector 777713  Network.dyn_peer[151]  lookupStabilitySig:vector  ETV
vector 777714  Network.dyn_peer[151]  lookupTimeSig:vector  ETV
vector 777454  Network.dyn_peer[65]  lookupHopsSig:vector  ETV
vector 777455  Network.dyn_peer[65]  lookupStabilitySig:vector  ETV
vector 777456  Network.dyn_peer[65]  lookupTimeSig:vector  ETV
vector 777460  Network.dyn_peer[67]  lookupHopsSig:vector  ETV
vector 777461  Network.dyn_peer[67]  lookupStabilitySig:vector  ETV
vector 777462  Network.dyn_peer[67]  lookupTimeSig:vector  ETV
vector 777469  Network.dyn_peer[70]  lookupHopsSig:vector  ETV
vector 777470  Network.dyn_peer[70]  lookupStabilitySig:vector  ETV
vector 777471  Network.dyn_peer[70]  lookupTimeSig:vector  ETV
vector 777475  Network.dyn_peer[72]  lookupHopsSig:vector  ETV
vector 777476  Network.dyn_peer[72]  lookupStabilitySig:vector  ETV
vector 777477  Network.dyn_peer[72]  lookupTimeSig:vector  ETV
vector 777538  Network.dyn_peer[93]  lookupHopsSig:vector  ETV
vector 777539  Network.dyn_peer[93]  lookupStabilitySig:vector  ETV
vector 777540  Network.dyn_peer[93]  lookupTimeSig:vector  ETV
vector 777541  Network.dyn_peer[94]  lookupHopsSig:vector  ETV
vector 777542  Network.dyn_peer[94]  lookupStabilitySig:vector  ETV
vector 777543  Network.dyn_peer[94]  lookupTimeSig:vector  ETV
vector 777571  Network.dyn_peer[104]  lookupHopsSig:vector  ETV
vector 777572  Network.dyn_peer[104]  lookupStabilitySig:vector  ETV
vector 777573  Network.dyn_peer[104]  lookupTimeSig:vector  ETV
vector 777274  Network.dyn_peer[5]  lookupHopsSig:vector  ETV
vector 777275  Network.dyn_peer[5]  lookupStabilitySig:vector  ETV
vector 777276  Network.dyn_peer[5]  lookupTimeSig:vector  ETV
vector 777586  Network.dyn_peer[109]  lookupHopsSig:vector  ETV
vector 777587  Network.dyn_peer[109]  lookupStabilitySig:vector  ETV
vector 777588  Network.dyn_peer[109]  lookupTimeSig:vector  ETV
vector 777292  Network.dyn_peer[11]  lookupHopsSig:vector  ETV
vector 777293  Network.dyn_peer[11]  lookupStabilitySig:vector  ETV
vector 777294  Network.dyn_peer[11]  lookupTimeSig:vector  ETV
vector 777301  Network.dyn_peer[14]  lookupHopsSig:vector  ETV
vector 777302  Network.dyn_peer[14]  lookupStabilitySig:vector  ETV
vector 777303  Network.dyn_peer[14]  lookupTimeSig:vector  ETV
vector 777601  Network.dyn_peer[114]  lookupHopsSig:vector  ETV
vector 777602  Network.dyn_peer[114]  lookupStabilitySig:vector  ETV
vector 777603  Network.dyn_peer[114]  lookupTimeSig:vector  ETV
vector 777307  Network.dyn_peer[16]  lookupHopsSig:vector  ETV
vector 777308  Network.dyn_peer[16]  lookupStabilitySig:vector  ETV
vector 777309  Network.dyn_peer[16]  lookupTimeSig:vector  ETV
vector 777340  Network.dyn_peer[27]  lookupHopsSig:vector  ETV
vector 777341  Network.dyn_peer[27]  lookupStabilitySig:vector  ETV
vector 777342  Network.dyn_peer[27]  lookupTimeSig:vector  ETV
vector 777346  Network.dyn_peer[29]  lookupHopsSig:vector  ETV
vector 777347  Network.dyn_peer[29]  lookupStabilitySig:vector  ETV
vector 777348  Network.dyn_peer[29]  lookupTimeSig:vector  ETV
vector 777646  Network.dyn_peer[129]  lookupHopsSig:vector  ETV
vector 777647  Network.dyn_peer[129]  lookupStabilitySig:vector  ETV
vector 777648  Network.dyn_peer[129]  lookupTimeSig:vector  ETV
vector 777664  Network.dyn_peer[135]  lookupHopsSig:vector  ETV
vector 777665  Network.dyn_peer[135]  lookupStabilitySig:vector  ETV
vector 777666  Network.dyn_peer[135]  lookupTimeSig:vector  ETV
vector 777379  Network.dyn_peer[40]  lookupHopsSig:vector  ETV
vector 777380  Network.dyn_peer[40]  lookupStabilitySig:vector  ETV
vector 777381  Network.dyn_peer[40]  lookupTimeSig:vector  ETV
vector 777394  Network.dyn_peer[45]  lookupHopsSig:vector  ETV
vector 777395  Network.dyn_peer[45]  lookupStabilitySig:vector  ETV
vector 777396  Network.dyn_peer[45]  lookupTimeSig:vector  ETV
vector 777697  Network.dyn_peer[146]  lookupHopsSig:vector  ETV
vector 777698  Network.dyn_peer[146]  lookupStabilitySig:vector  ETV
vector 777699  Network.dyn_peer[146]  lookupTimeSig:vector  ETV
vector 777418  Network.dyn_peer[53]  lookupHopsSig:vector  ETV
vector 777419  Network.dyn_peer[53]  lookupStabilitySig:vector  ETV
vector 777420  Network.dyn_peer[53]  lookupTimeSig:vector  ETV
vector 777727  Network.dyn_peer[156]  lookupHopsSig:vector  ETV
vector 777728  Network.dyn_peer[156]  lookupStabilitySig:vector  ETV
vector 777729  Network.dyn_peer[156]  lookupTimeSig:vector  ETV
vector 777784  Network.dyn_peer[175]  lookupHopsSig:vector  ETV
vector 777785  Network.dyn_peer[175]  lookupStabilitySig:vector  ETV
vector 777786  Network.dyn_peer[175]  lookupTimeSig:vector  ETV
vector 777532  Network.dyn_peer[91]  lookupHopsSig:vector  ETV
vector 777533  Network.dyn_peer[91]  lookupStabilitySig:vector  ETV
vector 777534  Network.dyn_peer[91]  lookupTimeSig:vector  ETV
vector 777844  Network.dyn_peer[195]  lookupHopsSig:vector  ETV
vector 777845  Network.dyn_peer[195]  lookupStabilitySig:vector  ETV
vector 777846  Network.dyn_peer[195]  lookupTimeSig:vector  ETV
vector 777568  Network.dyn_peer[103]  lookupHopsSig:vector  ETV
vector 777569  Network.dyn_peer[103]  lookupStabilitySig:vector  ETV
vector 777570  Network.dyn_peer[103]  lookupTimeSig:vector  ETV
vector 777580  Network.dyn_peer[107]  lookupHopsSig:vector  ETV
vector 777581  Network.dyn_peer[107]  lookupStabilitySig:vector  ETV
vector 777582  Network.dyn_peer[107]  lookupTimeSig:vector  ETV
vector 777583  Network.dyn_peer[108]  lookupHopsSig:vector  ETV
vector 777584  Network.dyn_peer[108]  lookupStabilitySig:vector  ETV
vector 777585  Network.dyn_peer[108]  lookupTimeSig:vector  ETV
vector 777298  Network.dyn_peer[13]  lookupHopsSig:vector  ETV
vector 777299  Network.dyn_peer[13]  lookupStabilitySig:vector  ETV
vector 777300  Network.dyn_peer[13]  lookupTimeSig:vector  ETV
vector 777304  Network.dyn_peer[15]  lookupHopsSig:vector  ETV
vector 777305  Network.dyn_peer[15]  lookupStabilitySig:vector  ETV
vector 777306  Network.dyn_peer[15]  lookupTimeSig:vector  ETV
vector 778213  Network.dyn_peer[318]  lookupHopsSig:vector  ETV
vector 778214  Network.dyn_peer[318]  lookupStabilitySig:vector  ETV
vector 778215  Network.dyn_peer[318]  lookupTimeSig:vector  ETV
vector 777331  Network.dyn_peer[24]  lookupHopsSig:vector  ETV
vector 777332  Network.dyn_peer[24]  lookupStabilitySig:vector  ETV
vector 777333  Network.dyn_peer[24]  lookupTimeSig:vector  ETV
vector 777631  Network.dyn_peer[124]  lookupHopsSig:vector  ETV
vector 777632  Network.dyn_peer[124]  lookupStabilitySig:vector  ETV
vector 777633  Network.dyn_peer[124]  lookupTimeSig:vector  ETV
vector 777634  Network.dyn_peer[125]  lookupHopsSig:vector  ETV
vector 777635  Network.dyn_peer[125]  lookupStabilitySig:vector  ETV
vector 777636  Network.dyn_peer[125]  lookupTimeSig:vector  ETV
vector 777364  Network.dyn_peer[35]  lookupHopsSig:vector  ETV
vector 777365  Network.dyn_peer[35]  lookupStabilitySig:vector  ETV
vector 777366  Network.dyn_peer[35]  lookupTimeSig:vector  ETV
vector 777676  Network.dyn_peer[139]  lookupHopsSig:vector  ETV
vector 777677  Network.dyn_peer[139]  lookupStabilitySig:vector  ETV
vector 777678  Network.dyn_peer[139]  lookupTimeSig:vector  ETV
vector 777385  Network.dyn_peer[42]  lookupHopsSig:vector  ETV
vector 777386  Network.dyn_peer[42]  lookupStabilitySig:vector  ETV
vector 777387  Network.dyn_peer[42]  lookupTimeSig:vector  ETV
vector 777685  Network.dyn_peer[142]  lookupHopsSig:vector  ETV
vector 777686  Network.dyn_peer[142]  lookupStabilitySig:vector  ETV
vector 777687  Network.dyn_peer[142]  lookupTimeSig:vector  ETV
vector 777403  Network.dyn_peer[48]  lookupHopsSig:vector  ETV
vector 777404  Network.dyn_peer[48]  lookupStabilitySig:vector  ETV
vector 777405  Network.dyn_peer[48]  lookupTimeSig:vector  ETV
vector 777706  Network.dyn_peer[149]  lookupHopsSig:vector  ETV
vector 777707  Network.dyn_peer[149]  lookupStabilitySig:vector  ETV
vector 777708  Network.dyn_peer[149]  lookupTimeSig:vector  ETV
vector 778009  Network.dyn_peer[250]  lookupHopsSig:vector  ETV
vector 778010  Network.dyn_peer[250]  lookupStabilitySig:vector  ETV
vector 778011  Network.dyn_peer[250]  lookupTimeSig:vector  ETV
vector 777424  Network.dyn_peer[55]  lookupHopsSig:vector  ETV
vector 777425  Network.dyn_peer[55]  lookupStabilitySig:vector  ETV
vector 777426  Network.dyn_peer[55]  lookupTimeSig:vector  ETV
vector 777730  Network.dyn_peer[157]  lookupHopsSig:vector  ETV
vector 777731  Network.dyn_peer[157]  lookupStabilitySig:vector  ETV
vector 777732  Network.dyn_peer[157]  lookupTimeSig:vector  ETV
vector 777433  Network.dyn_peer[58]  lookupHopsSig:vector  ETV
vector 777434  Network.dyn_peer[58]  lookupStabilitySig:vector  ETV
vector 777435  Network.dyn_peer[58]  lookupTimeSig:vector  ETV
vector 777442  Network.dyn_peer[61]  lookupHopsSig:vector  ETV
vector 777443  Network.dyn_peer[61]  lookupStabilitySig:vector  ETV
vector 777444  Network.dyn_peer[61]  lookupTimeSig:vector  ETV
vector 777742  Network.dyn_peer[161]  lookupHopsSig:vector  ETV
vector 777743  Network.dyn_peer[161]  lookupStabilitySig:vector  ETV
vector 777744  Network.dyn_peer[161]  lookupTimeSig:vector  ETV
vector 777448  Network.dyn_peer[63]  lookupHopsSig:vector  ETV
vector 777449  Network.dyn_peer[63]  lookupStabilitySig:vector  ETV
vector 777450  Network.dyn_peer[63]  lookupTimeSig:vector  ETV
vector 777451  Network.dyn_peer[64]  lookupHopsSig:vector  ETV
vector 777452  Network.dyn_peer[64]  lookupStabilitySig:vector  ETV
vector 777453  Network.dyn_peer[64]  lookupTimeSig:vector  ETV
vector 777754  Network.dyn_peer[165]  lookupHopsSig:vector  ETV
vector 777755  Network.dyn_peer[165]  lookupStabilitySig:vector  ETV
vector 777756  Network.dyn_peer[165]  lookupTimeSig:vector  ETV
vector 777478  Network.dyn_peer[73]  lookupHopsSig:vector  ETV
vector 777479  Network.dyn_peer[73]  lookupStabilitySig:vector  ETV
vector 777480  Network.dyn_peer[73]  lookupTimeSig:vector  ETV
vector 777499  Network.dyn_peer[80]  lookupHopsSig:vector  ETV
vector 777500  Network.dyn_peer[80]  lookupStabilitySig:vector  ETV
vector 777501  Network.dyn_peer[80]  lookupTimeSig:vector  ETV
vector 777523  Network.dyn_peer[88]  lookupHopsSig:vector  ETV
vector 777524  Network.dyn_peer[88]  lookupStabilitySig:vector  ETV
vector 777525  Network.dyn_peer[88]  lookupTimeSig:vector  ETV
vector 777526  Network.dyn_peer[89]  lookupHopsSig:vector  ETV
vector 777527  Network.dyn_peer[89]  lookupStabilitySig:vector  ETV
vector 777528  Network.dyn_peer[89]  lookupTimeSig:vector  ETV
vector 777829  Network.dyn_peer[190]  lookupHopsSig:vector  ETV
vector 777830  Network.dyn_peer[190]  lookupStabilitySig:vector  ETV
vector 777831  Network.dyn_peer[190]  lookupTimeSig:vector  ETV
vector 777259  Network.dyn_peer[0]  lookupHopsSig:vector  ETV
vector 777260  Network.dyn_peer[0]  lookupStabilitySig:vector  ETV
vector 777261  Network.dyn_peer[0]  lookupTimeSig:vector  ETV
vector 777559  Network.dyn_peer[100]  lookupHopsSig:vector  ETV
vector 777560  Network.dyn_peer[100]  lookupStabilitySig:vector  ETV
vector 777561  Network.dyn_peer[100]  lookupTimeSig:vector  ETV
vector 777862  Network.dyn_peer[201]  lookupHopsSig:vector  ETV
vector 777863  Network.dyn_peer[201]  lookupStabilitySig:vector  ETV
vector 777864  Network.dyn_peer[201]  lookupTimeSig:vector  ETV
vector 777574  Network.dyn_peer[105]  lookupHopsSig:vector  ETV
vector 777575  Network.dyn_peer[105]  lookupStabilitySig:vector  ETV
vector 777576  Network.dyn_peer[105]  lookupTimeSig:vector  ETV
vector 777277  Network.dyn_peer[6]  lookupHopsSig:vector  ETV
vector 777278  Network.dyn_peer[6]  lookupStabilitySig:vector  ETV
vector 777279  Network.dyn_peer[6]  lookupTimeSig:vector  ETV
vector 778204  Network.dyn_peer[315]  lookupHopsSig:vector  ETV
vector 778205  Network.dyn_peer[315]  lookupStabilitySig:vector  ETV
vector 778206  Network.dyn_peer[315]  lookupTimeSig:vector  ETV
vector 777625  Network.dyn_peer[122]  lookupHopsSig:vector  ETV
vector 777626  Network.dyn_peer[122]  lookupStabilitySig:vector  ETV
vector 777627  Network.dyn_peer[122]  lookupTimeSig:vector  ETV
vector 777343  Network.dyn_peer[28]  lookupHopsSig:vector  ETV
vector 777344  Network.dyn_peer[28]  lookupStabilitySig:vector  ETV
vector 777345  Network.dyn_peer[28]  lookupTimeSig:vector  ETV
vector 777358  Network.dyn_peer[33]  lookupHopsSig:vector  ETV
vector 777359  Network.dyn_peer[33]  lookupStabilitySig:vector  ETV
vector 777360  Network.dyn_peer[33]  lookupTimeSig:vector  ETV
vector 778282  Network.dyn_peer[341]  lookupHopsSig:vector  ETV
vector 778283  Network.dyn_peer[341]  lookupStabilitySig:vector  ETV
vector 778284  Network.dyn_peer[341]  lookupTimeSig:vector  ETV
vector 777406  Network.dyn_peer[49]  lookupHopsSig:vector  ETV
vector 777407  Network.dyn_peer[49]  lookupStabilitySig:vector  ETV
vector 777408  Network.dyn_peer[49]  lookupTimeSig:vector  ETV
vector 777412  Network.dyn_peer[51]  lookupHopsSig:vector  ETV
vector 777413  Network.dyn_peer[51]  lookupStabilitySig:vector  ETV
vector 777414  Network.dyn_peer[51]  lookupTimeSig:vector  ETV
vector 778024  Network.dyn_peer[255]  lookupHopsSig:vector  ETV
vector 778025  Network.dyn_peer[255]  lookupStabilitySig:vector  ETV
vector 778026  Network.dyn_peer[255]  lookupTimeSig:vector  ETV
vector 778330  Network.dyn_peer[357]  lookupHopsSig:vector  ETV
vector 778331  Network.dyn_peer[357]  lookupStabilitySig:vector  ETV
vector 778332  Network.dyn_peer[357]  lookupTimeSig:vector  ETV
vector 778063  Network.dyn_peer[268]  lookupHopsSig:vector  ETV
vector 778064  Network.dyn_peer[268]  lookupStabilitySig:vector  ETV
vector 778065  Network.dyn_peer[268]  lookupTimeSig:vector  ETV
vector 778375  Network.dyn_peer[372]  lookupHopsSig:vector  ETV
vector 778376  Network.dyn_peer[372]  lookupStabilitySig:vector  ETV
vector 778377  Network.dyn_peer[372]  lookupTimeSig:vector  ETV
vector 777481  Network.dyn_peer[74]  lookupHopsSig:vector  ETV
vector 777482  Network.dyn_peer[74]  lookupStabilitySig:vector  ETV
vector 777483  Network.dyn_peer[74]  lookupTimeSig:vector  ETV
vector 777484  Network.dyn_peer[75]  lookupHopsSig:vector  ETV
vector 777485  Network.dyn_peer[75]  lookupStabilitySig:vector  ETV
vector 777486  Network.dyn_peer[75]  lookupTimeSig:vector  ETV
vector 777556  Network.dyn_peer[99]  lookupHopsSig:vector  ETV
vector 777557  Network.dyn_peer[99]  lookupStabilitySig:vector  ETV
vector 777558  Network.dyn_peer[99]  lookupTimeSig:vector  ETV
vector 777613  Network.dyn_peer[118]  lookupHopsSig:vector  ETV
vector 777614  Network.dyn_peer[118]  lookupStabilitySig:vector  ETV
vector 777615  Network.dyn_peer[118]  lookupTimeSig:vector  ETV
vector 777622  Network.dyn_peer[121]  lookupHopsSig:vector  ETV
vector 777623  Network.dyn_peer[121]  lookupStabilitySig:vector  ETV
vector 777624  Network.dyn_peer[121]  lookupTimeSig:vector  ETV
vector 777328  Network.dyn_peer[23]  lookupHopsSig:vector  ETV
vector 777329  Network.dyn_peer[23]  lookupStabilitySig:vector  ETV
vector 777330  Network.dyn_peer[23]  lookupTimeSig:vector  ETV
vector 777655  Network.dyn_peer[132]  lookupHopsSig:vector  ETV
vector 777656  Network.dyn_peer[132]  lookupStabilitySig:vector  ETV
vector 777657  Network.dyn_peer[132]  lookupTimeSig:vector  ETV
vector 778006  Network.dyn_peer[249]  lookupHopsSig:vector  ETV
vector 778007  Network.dyn_peer[249]  lookupStabilitySig:vector  ETV
vector 778008  Network.dyn_peer[249]  lookupTimeSig:vector  ETV
vector 777427  Network.dyn_peer[56]  lookupHopsSig:vector  ETV
vector 777428  Network.dyn_peer[56]  lookupStabilitySig:vector  ETV
vector 777429  Network.dyn_peer[56]  lookupTimeSig:vector  ETV
vector 778327  Network.dyn_peer[356]  lookupHopsSig:vector  ETV
vector 778328  Network.dyn_peer[356]  lookupStabilitySig:vector  ETV
vector 778329  Network.dyn_peer[356]  lookupTimeSig:vector  ETV
vector 777445  Network.dyn_peer[62]  lookupHopsSig:vector  ETV
vector 777446  Network.dyn_peer[62]  lookupStabilitySig:vector  ETV
vector 777447  Network.dyn_peer[62]  lookupTimeSig:vector  ETV
vector 777547  Network.dyn_peer[96]  lookupHopsSig:vector  ETV
vector 777548  Network.dyn_peer[96]  lookupStabilitySig:vector  ETV
vector 777549  Network.dyn_peer[96]  lookupTimeSig:vector  ETV
vector 778147  Network.dyn_peer[296]  lookupHopsSig:vector  ETV
vector 778148  Network.dyn_peer[296]  lookupStabilitySig:vector  ETV
vector 778149  Network.dyn_peer[296]  lookupTimeSig:vector  ETV
vector 777874  Network.dyn_peer[205]  lookupHopsSig:vector  ETV
vector 777875  Network.dyn_peer[205]  lookupStabilitySig:vector  ETV
vector 777876  Network.dyn_peer[205]  lookupTimeSig:vector  ETV
vector 778177  Network.dyn_peer[306]  lookupHopsSig:vector  ETV
vector 778178  Network.dyn_peer[306]  lookupStabilitySig:vector  ETV
vector 778179  Network.dyn_peer[306]  lookupTimeSig:vector  ETV
vector 777280  Network.dyn_peer[7]  lookupHopsSig:vector  ETV
vector 777281  Network.dyn_peer[7]  lookupStabilitySig:vector  ETV
vector 777282  Network.dyn_peer[7]  lookupTimeSig:vector  ETV
vector 777283  Network.dyn_peer[8]  lookupHopsSig:vector  ETV
vector 777284  Network.dyn_peer[8]  lookupStabilitySig:vector  ETV
vector 777285  Network.dyn_peer[8]  lookupTimeSig:vector  ETV
vector 777289  Network.dyn_peer[10]  lookupHopsSig:vector  ETV
vector 777290  Network.dyn_peer[10]  lookupStabilitySig:vector  ETV
vector 777291  Network.dyn_peer[10]  lookupTimeSig:vector  ETV
vector 777319  Network.dyn_peer[20]  lookupHopsSig:vector  ETV
vector 777320  Network.dyn_peer[20]  lookupStabilitySig:vector  ETV
vector 777321  Network.dyn_peer[20]  lookupTimeSig:vector  ETV
vector 777919  Network.dyn_peer[220]  lookupHopsSig:vector  ETV
vector 777920  Network.dyn_peer[220]  lookupStabilitySig:vector  ETV
vector 777921  Network.dyn_peer[220]  lookupTimeSig:vector  ETV
vector 777325  Network.dyn_peer[22]  lookupHopsSig:vector  ETV
vector 777326  Network.dyn_peer[22]  lookupStabilitySig:vector  ETV
vector 777327  Network.dyn_peer[22]  lookupTimeSig:vector  ETV
vector 777961  Network.dyn_peer[234]  lookupHopsSig:vector  ETV
vector 777962  Network.dyn_peer[234]  lookupStabilitySig:vector  ETV
vector 777963  Network.dyn_peer[234]  lookupTimeSig:vector  ETV
vector 777376  Network.dyn_peer[39]  lookupHopsSig:vector  ETV
vector 777377  Network.dyn_peer[39]  lookupStabilitySig:vector  ETV
vector 777378  Network.dyn_peer[39]  lookupTimeSig:vector  ETV
vector 777982  Network.dyn_peer[241]  lookupHopsSig:vector  ETV
vector 777983  Network.dyn_peer[241]  lookupStabilitySig:vector  ETV
vector 777984  Network.dyn_peer[241]  lookupTimeSig:vector  ETV
vector 777700  Network.dyn_peer[147]  lookupHopsSig:vector  ETV
vector 777701  Network.dyn_peer[147]  lookupStabilitySig:vector  ETV
vector 777702  Network.dyn_peer[147]  lookupTimeSig:vector  ETV
vector 777409  Network.dyn_peer[50]  lookupHopsSig:vector  ETV
vector 777410  Network.dyn_peer[50]  lookupStabilitySig:vector  ETV
vector 777411  Network.dyn_peer[50]  lookupTimeSig:vector  ETV
vector 777466  Network.dyn_peer[69]  lookupHopsSig:vector  ETV
vector 777467  Network.dyn_peer[69]  lookupStabilitySig:vector  ETV
vector 777468  Network.dyn_peer[69]  lookupTimeSig:vector  ETV
vector 778069  Network.dyn_peer[270]  lookupHopsSig:vector  ETV
vector 778070  Network.dyn_peer[270]  lookupStabilitySig:vector  ETV
vector 778071  Network.dyn_peer[270]  lookupTimeSig:vector  ETV
vector 777544  Network.dyn_peer[95]  lookupHopsSig:vector  ETV
vector 777545  Network.dyn_peer[95]  lookupStabilitySig:vector  ETV
vector 777546  Network.dyn_peer[95]  lookupTimeSig:vector  ETV
vector 777553  Network.dyn_peer[98]  lookupHopsSig:vector  ETV
vector 777554  Network.dyn_peer[98]  lookupStabilitySig:vector  ETV
vector 777555  Network.dyn_peer[98]  lookupTimeSig:vector  ETV
vector 777865  Network.dyn_peer[202]  lookupHopsSig:vector  ETV
vector 777866  Network.dyn_peer[202]  lookupStabilitySig:vector  ETV
vector 777867  Network.dyn_peer[202]  lookupTimeSig:vector  ETV
vector 777871  Network.dyn_peer[204]  lookupHopsSig:vector  ETV
vector 777872  Network.dyn_peer[204]  lookupStabilitySig:vector  ETV
vector 777873  Network.dyn_peer[204]  lookupTimeSig:vector  ETV
vector 777598  Network.dyn_peer[113]  lookupHopsSig:vector  ETV
vector 777599  Network.dyn_peer[113]  lookupStabilitySig:vector  ETV
vector 777600  Network.dyn_peer[113]  lookupTimeSig:vector  ETV
vector 777604  Network.dyn_peer[115]  lookupHopsSig:vector  ETV
vector 777605  Network.dyn_peer[115]  lookupStabilitySig:vector  ETV
vector 777606  Network.dyn_peer[115]  lookupTimeSig:vector  ETV
vector 777916  Network.dyn_peer[219]  lookupHopsSig:vector  ETV
vector 777917  Network.dyn_peer[219]  lookupStabilitySig:vector  ETV
vector 777918  Network.dyn_peer[219]  lookupTimeSig:vector  ETV
vector 777679  Network.dyn_peer[140]  lookupHopsSig:vector  ETV
vector 777680  Network.dyn_peer[140]  lookupStabilitySig:vector  ETV
vector 777681  Network.dyn_peer[140]  lookupTimeSig:vector  ETV
vector 777391  Network.dyn_peer[44]  lookupHopsSig:vector  ETV
vector 777392  Network.dyn_peer[44]  lookupStabilitySig:vector  ETV
vector 777393  Network.dyn_peer[44]  lookupTimeSig:vector  ETV
vector 777415  Network.dyn_peer[52]  lookupHopsSig:vector  ETV
vector 777416  Network.dyn_peer[52]  lookupStabilitySig:vector  ETV
vector 777417  Network.dyn_peer[52]  lookupTimeSig:vector  ETV
vector 777421  Network.dyn_peer[54]  lookupHopsSig:vector  ETV
vector 777422  Network.dyn_peer[54]  lookupStabilitySig:vector  ETV
vector 777423  Network.dyn_peer[54]  lookupTimeSig:vector  ETV
vector 777430  Network.dyn_peer[57]  lookupHopsSig:vector  ETV
vector 777431  Network.dyn_peer[57]  lookupStabilitySig:vector  ETV
vector 777432  Network.dyn_peer[57]  lookupTimeSig:vector  ETV
vector 778081  Network.dyn_peer[274]  lookupHopsSig:vector  ETV
vector 778082  Network.dyn_peer[274]  lookupStabilitySig:vector  ETV
vector 778083  Network.dyn_peer[274]  lookupTimeSig:vector  ETV
vector 777496  Network.dyn_peer[79]  lookupHopsSig:vector  ETV
vector 777497  Network.dyn_peer[79]  lookupStabilitySig:vector  ETV
vector 777498  Network.dyn_peer[79]  lookupTimeSig:vector  ETV
vector 777796  Network.dyn_peer[179]  lookupHopsSig:vector  ETV
vector 777797  Network.dyn_peer[179]  lookupStabilitySig:vector  ETV
vector 777798  Network.dyn_peer[179]  lookupTimeSig:vector  ETV
vector 777595  Network.dyn_peer[112]  lookupHopsSig:vector  ETV
vector 777596  Network.dyn_peer[112]  lookupStabilitySig:vector  ETV
vector 777597  Network.dyn_peer[112]  lookupTimeSig:vector  ETV
vector 777313  Network.dyn_peer[18]  lookupHopsSig:vector  ETV
vector 777314  Network.dyn_peer[18]  lookupStabilitySig:vector  ETV
vector 777315  Network.dyn_peer[18]  lookupTimeSig:vector  ETV
vector 778222  Network.dyn_peer[321]  lookupHopsSig:vector  ETV
vector 778223  Network.dyn_peer[321]  lookupStabilitySig:vector  ETV
vector 778224  Network.dyn_peer[321]  lookupTimeSig:vector  ETV
vector 777667  Network.dyn_peer[136]  lookupHopsSig:vector  ETV
vector 777668  Network.dyn_peer[136]  lookupStabilitySig:vector  ETV
vector 777669  Network.dyn_peer[136]  lookupTimeSig:vector  ETV
vector 777970  Network.dyn_peer[237]  lookupHopsSig:vector  ETV
vector 777971  Network.dyn_peer[237]  lookupStabilitySig:vector  ETV
vector 777972  Network.dyn_peer[237]  lookupTimeSig:vector  ETV
vector 777988  Network.dyn_peer[243]  lookupHopsSig:vector  ETV
vector 777989  Network.dyn_peer[243]  lookupStabilitySig:vector  ETV
vector 777990  Network.dyn_peer[243]  lookupTimeSig:vector  ETV
vector 777439  Network.dyn_peer[60]  lookupHopsSig:vector  ETV
vector 777440  Network.dyn_peer[60]  lookupStabilitySig:vector  ETV
vector 777441  Network.dyn_peer[60]  lookupTimeSig:vector  ETV
vector 777487  Network.dyn_peer[76]  lookupHopsSig:vector  ETV
vector 777488  Network.dyn_peer[76]  lookupStabilitySig:vector  ETV
vector 777489  Network.dyn_peer[76]  lookupTimeSig:vector  ETV
vector 778099  Network.dyn_peer[280]  lookupHopsSig:vector  ETV
vector 778100  Network.dyn_peer[280]  lookupStabilitySig:vector  ETV
vector 778101  Network.dyn_peer[280]  lookupTimeSig:vector  ETV
vector 778165  Network.dyn_peer[302]  lookupHopsSig:vector  ETV
vector 778166  Network.dyn_peer[302]  lookupStabilitySig:vector  ETV
vector 778167  Network.dyn_peer[302]  lookupTimeSig:vector  ETV
vector 777898  Network.dyn_peer[213]  lookupHopsSig:vector  ETV
vector 777899  Network.dyn_peer[213]  lookupStabilitySig:vector  ETV
vector 777900  Network.dyn_peer[213]  lookupTimeSig:vector  ETV
vector 778207  Network.dyn_peer[316]  lookupHopsSig:vector  ETV
vector 778208  Network.dyn_peer[316]  lookupStabilitySig:vector  ETV
vector 778209  Network.dyn_peer[316]  lookupTimeSig:vector  ETV
vector 777652  Network.dyn_peer[131]  lookupHopsSig:vector  ETV
vector 777653  Network.dyn_peer[131]  lookupStabilitySig:vector  ETV
vector 777654  Network.dyn_peer[131]  lookupTimeSig:vector  ETV
vector 778324  Network.dyn_peer[355]  lookupHopsSig:vector  ETV
vector 778325  Network.dyn_peer[355]  lookupStabilitySig:vector  ETV
vector 778326  Network.dyn_peer[355]  lookupTimeSig:vector  ETV
vector 777436  Network.dyn_peer[59]  lookupHopsSig:vector  ETV
vector 777437  Network.dyn_peer[59]  lookupStabilitySig:vector  ETV
vector 777438  Network.dyn_peer[59]  lookupTimeSig:vector  ETV
vector 778066  Network.dyn_peer[269]  lookupHopsSig:vector  ETV
vector 778067  Network.dyn_peer[269]  lookupStabilitySig:vector  ETV
vector 778068  Network.dyn_peer[269]  lookupTimeSig:vector  ETV
vector 777790  Network.dyn_peer[177]  lookupHopsSig:vector  ETV
vector 777791  Network.dyn_peer[177]  lookupStabilitySig:vector  ETV
vector 777792  Network.dyn_peer[177]  lookupTimeSig:vector  ETV
vector 777514  Network.dyn_peer[85]  lookupHopsSig:vector  ETV