version 2
run Stability2-13-20130526-00:51:10-26640
attr configname Stability2
attr datetime 20130526-00:51:10
attr experiment Stability2
attr inifile omnetpp.ini
attr iterationvars $0=10
attr iterationvars2 "$0=10, $repetition=13"
attr measurement $0=10
attr network Network
attr processid 26640
attr repetition 13
attr replication #13
attr resultdir results
attr runnumber 13
attr seedset 13

vector 42013  Network.churner  inGoingSizeSig:vector  ETV
vector 39013  Network.dyn_peer[0]  lookupHopsSig:vector  ETV
vector 39014  Network.dyn_peer[0]  lookupStabilitySig:vector  ETV
vector 39015  Network.dyn_peer[0]  lookupTimeSig:vector  ETV
vector 39016  Network.dyn_peer[1]  lookupHopsSig:vector  ETV
vector 39017  Network.dyn_peer[1]  lookupStabilitySig:vector  ETV
vector 39018  Network.dyn_peer[1]  lookupTimeSig:vector  ETV
vector 39019  Network.dyn_peer[2]  lookupHopsSig:vector  ETV
vector 39020  Network.dyn_peer[2]  lookupStabilitySig:vector  ETV
vector 39021  Network.dyn_peer[2]  lookupTimeSig:vector  ETV
vector 39028  Network.dyn_peer[5]  lookupHopsSig:vector  ETV
vector 39029  Network.dyn_peer[5]  lookupStabilitySig:vector  ETV
vector 39030  Network.dyn_peer[5]  lookupTimeSig:vector  ETV
vector 39022  Network.dyn_peer[3]  lookupHopsSig:vector  ETV
vector 39023  Network.dyn_peer[3]  lookupStabilitySig:vector  ETV
vector 39024  Network.dyn_peer[3]  lookupTimeSig:vector  ETV
vector 39037  Network.dyn_peer[8]  lookupHopsSig:vector  ETV
vector 39038  Network.dyn_peer[8]  lookupStabilitySig:vector  ETV
vector 39039  Network.dyn_peer[8]  lookupTimeSig:vector  ETV
vector 39040  Network.dyn_peer[9]  lookupHopsSig:vector  ETV
vector 39041  Network.dyn_peer[9]  lookupStabilitySig:vector  ETV
vector 39042  Network.dyn_peer[9]  lookupTimeSig:vector  ETV
vector 39025  Network.dyn_peer[4]  lookupHopsSig:vector  ETV
vector 39026  Network.dyn_peer[4]  lookupStabilitySig:vector  ETV
vector 39027  Network.dyn_peer[4]  lookupTimeSig:vector  ETV
vector 39031  Network.dyn_peer[6]  lookupHopsSig:vector  ETV
vector 39032  Network.dyn_peer[6]  lookupStabilitySig:vector  ETV
vector 39033  Network.dyn_peer[6]  lookupTimeSig:vector  ETV
vector 39034  Network.dyn_peer[7]  lookupHopsSig:vector  ETV
vector 39035  Network.dyn_peer[7]  lookupStabilitySig:vector  ETV
vector 39036  Network.dyn_peer[7]  lookupTimeSig:vector  ETV
39013	17	20.001	0
39013	117	20.401	3
39013	204	20.911803015527	4
39014	17	20.001	1
39014	117	20.401	0.39999997615814
39014	204	20.911803015527	0.55555555224419
39015	17	20.001	0
39015	117	20.401	0.4
39015	204	20.911803015527	0.5
39016	24	20.002	0
39016	134	20.502	4
39016	192	20.802630747603	2
39016	221	21.114938914528	2
39017	24	20.002	1
39017	134	20.502	0.19999998807907
39017	192	20.802630747603	0.77777777612209
39017	221	21.114938914528	0.83333332836628
39018	24	20.002	0
39018	134	20.502	0.5
39018	192	20.802630747603	0.3
39018	221	21.114938914528	0.3
39019	31	20.003	0
39019	120	20.403	3
39019	159	20.611787344959	1
39019	209	20.924822093555	2
39020	31	20.003	1
39020	120	20.403	0.39999997615814
39020	159	20.611787344959	0.83333332836628
39020	209	20.924822093555	0.79999999701977
39021	31	20.003	0
39021	120	20.403	0.4
39021	159	20.611787344959	0.2
39021	209	20.924822093555	0.3
39022	64	20.104	1
39022	137	20.504	3
39022	176	20.712705818871	1
39022	212	20.945808848285	1
39023	64	20.104	0.79999999701977
39023	137	20.504	0.39999997615814
39023	176	20.712705818871	0.83333332836628
39023	212	20.945808848285	0.90909090638161
39024	64	20.104	0.1
39024	137	20.504	0.4
39024	176	20.712705818871	0.2
39024	212	20.945808848285	0.2
39025	87	20.205	2
39025	139	20.505	2
39025	181	20.716815806165	1
39026	87	20.205	0.59999999403954
39026	139	20.505	0.59999999403954
39026	181	20.716815806165	0.83333332836628
39027	87	20.205	0.2
39027	139	20.505	0.3
39027	181	20.716815806165	0.2
39028	44	20.006	0
39028	89	20.206	1
39028	148	20.51578203431	2
39029	44	20.006	1
39029	89	20.206	0.79999999701977
39029	148	20.51578203431	0.59999999403954
39030	44	20.006	0
39030	89	20.206	0.2
39030	148	20.51578203431	0.3
39031	94	20.207	2
39031	154	20.607	3
39031	199	20.816160442937	1
39031	224	21.117324755476	2
39032	94	20.207	0.59999999403954
39032	154	20.607	0.5
39032	199	20.816160442937	0.88888888806105
39032	224	21.117324755476	0.84615384042263
39033	94	20.207	0.2
39033	154	20.607	0.4
39033	199	20.816160442937	0.2
39033	224	21.117324755476	0.3
39034	99	20.208	2
39034	187	20.725580831464	4
39035	99	20.208	0.59999999403954
39035	187	20.725580831464	0.5
39036	99	20.208	0.2
39036	187	20.725580831464	0.5
39037	73	20.109	1
39037	156	20.609	4
39037	215	21.012702832132	3
39037	228	21.225740073463	1
39038	73	20.109	0.79999999701977
39038	156	20.609	0.33333331346512
39038	215	21.012702832132	0.75
39038	228	21.225740073463	0.92857142537832
39039	73	20.109	0.1
39039	156	20.609	0.5
39039	215	21.012702832132	0.4
39039	228	21.225740073463	0.2
39040	78	20.11	1
39040	127	20.41	2
39040	178	20.714884902369	2
39041	78	20.11	0.79999999701977
39041	127	20.41	0.59999999403954
39041	178	20.714884902369	0.66666665673256
39042	78	20.11	0.1
39042	127	20.41	0.3
39042	178	20.714884902369	0.3
42013	10	20	0
42013	11	20.001	0
42013	18	20.002	1
42013	25	20.003	2
42013	32	20.004	3
42013	35	20.005	4
42013	38	20.006	5
42013	45	20.007	6
42013	48	20.008	7
42013	51	20.009	8
42013	54	20.01	9
