file 141953 1369522346                                          
version 2
run Stability2-208-20130526-00:52:26-26640
attr configname Stability2
attr datetime 20130526-00:52:26
attr experiment Stability2
attr inifile omnetpp.ini
attr iterationvars $0=200
attr iterationvars2 "$0=200, $repetition=28"
attr measurement $0=200
attr network Network
attr processid 26640
attr repetition 28
attr replication #28
attr resultdir results
attr runnumber 208
attr seedset 208

vector 627208  Network.churner  inGoingSizeSig:vector  ETV
vector 624217  Network.dyn_peer[3]  lookupHopsSig:vector  ETV
vector 624218  Network.dyn_peer[3]  lookupStabilitySig:vector  ETV
vector 624219  Network.dyn_peer[3]  lookupTimeSig:vector  ETV
vector 624244  Network.dyn_peer[12]  lookupHopsSig:vector  ETV
vector 624245  Network.dyn_peer[12]  lookupStabilitySig:vector  ETV
vector 624246  Network.dyn_peer[12]  lookupTimeSig:vector  ETV
vector 624253  Network.dyn_peer[15]  lookupHopsSig:vector  ETV
vector 624254  Network.dyn_peer[15]  lookupStabilitySig:vector  ETV
vector 624255  Network.dyn_peer[15]  lookupTimeSig:vector  ETV
vector 624283  Network.dyn_peer[25]  lookupHopsSig:vector  ETV
vector 624284  Network.dyn_peer[25]  lookupStabilitySig:vector  ETV
vector 624285  Network.dyn_peer[25]  lookupTimeSig:vector  ETV
vector 624325  Network.dyn_peer[39]  lookupHopsSig:vector  ETV
vector 624326  Network.dyn_peer[39]  lookupStabilitySig:vector  ETV
vector 624327  Network.dyn_peer[39]  lookupTimeSig:vector  ETV
vector 624346  Network.dyn_peer[46]  lookupHopsSig:vector  ETV
vector 624347  Network.dyn_peer[46]  lookupStabilitySig:vector  ETV
vector 624348  Network.dyn_peer[46]  lookupTimeSig:vector  ETV
vector 624361  Network.dyn_peer[51]  lookupHopsSig:vector  ETV
vector 624362  Network.dyn_peer[51]  lookupStabilitySig:vector  ETV
vector 624363  Network.dyn_peer[51]  lookupTimeSig:vector  ETV
vector 624367  Network.dyn_peer[53]  lookupHopsSig:vector  ETV
vector 624368  Network.dyn_peer[53]  lookupStabilitySig:vector  ETV
vector 624369  Network.dyn_peer[53]  lookupTimeSig:vector  ETV
vector 624433  Network.dyn_peer[75]  lookupHopsSig:vector  ETV
vector 624434  Network.dyn_peer[75]  lookupStabilitySig:vector  ETV
vector 624435  Network.dyn_peer[75]  lookupTimeSig:vector  ETV
vector 624208  Network.dyn_peer[0]  lookupHopsSig:vector  ETV
vector 624209  Network.dyn_peer[0]  lookupStabilitySig:vector  ETV
vector 624210  Network.dyn_peer[0]  lookupTimeSig:vector  ETV
vector 624514  Network.dyn_peer[102]  lookupHopsSig:vector  ETV
vector 624515  Network.dyn_peer[102]  lookupStabilitySig:vector  ETV
vector 624516  Network.dyn_peer[102]  lookupTimeSig:vector  ETV
vector 624226  Network.dyn_peer[6]  lookupHopsSig:vector  ETV
vector 624227  Network.dyn_peer[6]  lookupStabilitySig:vector  ETV
vector 624228  Network.dyn_peer[6]  lookupTimeSig:vector  ETV
vector 624229  Network.dyn_peer[7]  lookupHopsSig:vector  ETV
vector 624230  Network.dyn_peer[7]  lookupStabilitySig:vector  ETV
vector 624231  Network.dyn_peer[7]  lookupTimeSig:vector  ETV
vector 624568  Network.dyn_peer[120]  lookupHopsSig:vector  ETV
vector 624569  Network.dyn_peer[120]  lookupStabilitySig:vector  ETV
vector 624570  Network.dyn_peer[120]  lookupTimeSig:vector  ETV
vector 624271  Network.dyn_peer[21]  lookupHopsSig:vector  ETV
vector 624272  Network.dyn_peer[21]  lookupStabilitySig:vector  ETV
vector 624273  Network.dyn_peer[21]  lookupTimeSig:vector  ETV
vector 624274  Network.dyn_peer[22]  lookupHopsSig:vector  ETV
vector 624275  Network.dyn_peer[22]  lookupStabilitySig:vector  ETV
vector 624276  Network.dyn_peer[22]  lookupTimeSig:vector  ETV
vector 624388  Network.dyn_peer[60]  lookupHopsSig:vector  ETV
vector 624389  Network.dyn_peer[60]  lookupStabilitySig:vector  ETV
vector 624390  Network.dyn_peer[60]  lookupTimeSig:vector  ETV
vector 624406  Network.dyn_peer[66]  lookupHopsSig:vector  ETV
vector 624407  Network.dyn_peer[66]  lookupStabilitySig:vector  ETV
vector 624408  Network.dyn_peer[66]  lookupTimeSig:vector  ETV
vector 624706  Network.dyn_peer[166]  lookupHopsSig:vector  ETV
vector 624707  Network.dyn_peer[166]  lookupStabilitySig:vector  ETV
vector 624708  Network.dyn_peer[166]  lookupTimeSig:vector  ETV
vector 624436  Network.dyn_peer[76]  lookupHopsSig:vector  ETV
vector 624437  Network.dyn_peer[76]  lookupStabilitySig:vector  ETV
vector 624438  Network.dyn_peer[76]  lookupTimeSig:vector  ETV
vector 624457  Network.dyn_peer[83]  lookupHopsSig:vector  ETV
vector 624458  Network.dyn_peer[83]  lookupStabilitySig:vector  ETV
vector 624459  Network.dyn_peer[83]  lookupTimeSig:vector  ETV
vector 624502  Network.dyn_peer[98]  lookupHopsSig:vector  ETV
vector 624503  Network.dyn_peer[98]  lookupStabilitySig:vector  ETV
vector 624504  Network.dyn_peer[98]  lookupTimeSig:vector  ETV
vector 624232  Network.dyn_peer[8]  lookupHopsSig:vector  ETV
vector 624233  Network.dyn_peer[8]  lookupStabilitySig:vector  ETV
vector 624234  Network.dyn_peer[8]  lookupTimeSig:vector  ETV
vector 624280  Network.dyn_peer[24]  lookupHopsSig:vector  ETV
vector 624281  Network.dyn_peer[24]  lookupStabilitySig:vector  ETV
vector 624282  Network.dyn_peer[24]  lookupTimeSig:vector  ETV
vector 624586  Network.dyn_peer[126]  lookupHopsSig:vector  ETV
vector 624587  Network.dyn_peer[126]  lookupStabilitySig:vector  ETV
vector 624588  Network.dyn_peer[126]  lookupTimeSig:vector  ETV
vector 624364  Network.dyn_peer[52]  lookupHopsSig:vector  ETV
vector 624365  Network.dyn_peer[52]  lookupStabilitySig:vector  ETV
vector 624366  Network.dyn_peer[52]  lookupTimeSig:vector  ETV
vector 624412  Network.dyn_peer[68]  lookupHopsSig:vector  ETV
vector 624413  Network.dyn_peer[68]  lookupStabilitySig:vector  ETV
vector 624414  Network.dyn_peer[68]  lookupTimeSig:vector  ETV
vector 624466  Network.dyn_peer[86]  lookupHopsSig:vector  ETV
vector 624467  Network.dyn_peer[86]  lookupStabilitySig:vector  ETV
vector 624468  Network.dyn_peer[86]  lookupTimeSig:vector  ETV
vector 624481  Network.dyn_peer[91]  lookupHopsSig:vector  ETV
vector 624482  Network.dyn_peer[91]  lookupStabilitySig:vector  ETV
vector 624483  Network.dyn_peer[91]  lookupTimeSig:vector  ETV
vector 624505  Network.dyn_peer[99]  lookupHopsSig:vector  ETV
vector 624506  Network.dyn_peer[99]  lookupStabilitySig:vector  ETV
vector 624507  Network.dyn_peer[99]  lookupTimeSig:vector  ETV
vector 624508  Network.dyn_peer[100]  lookupHopsSig:vector  ETV
vector 624509  Network.dyn_peer[100]  lookupStabilitySig:vector  ETV
vector 624510  Network.dyn_peer[100]  lookupTimeSig:vector  ETV
vector 624511  Network.dyn_peer[101]  lookupHopsSig:vector  ETV
vector 624512  Network.dyn_peer[101]  lookupStabilitySig:vector  ETV
vector 624513  Network.dyn_peer[101]  lookupTimeSig:vector  ETV
vector 624214  Network.dyn_peer[2]  lookupHopsSig:vector  ETV
vector 624215  Network.dyn_peer[2]  lookupStabilitySig:vector  ETV
vector 624216  Network.dyn_peer[2]  lookupTimeSig:vector  ETV
vector 624250  Network.dyn_peer[14]  lookupHopsSig:vector  ETV
vector 624251  Network.dyn_peer[14]  lookupStabilitySig:vector  ETV
vector 624252  Network.dyn_peer[14]  lookupTimeSig:vector  ETV
vector 624559  Network.dyn_peer[117]  lookupHopsSig:vector  ETV
vector 624560  Network.dyn_peer[117]  lookupStabilitySig:vector  ETV
vector 624561  Network.dyn_peer[117]  lookupTimeSig:vector  ETV
vector 624262  Network.dyn_peer[18]  lookupHopsSig:vector  ETV
vector 624263  Network.dyn_peer[18]  lookupStabilitySig:vector  ETV
vector 624264  Network.dyn_peer[18]  lookupTimeSig:vector  ETV
vector 624292  Network.dyn_peer[28]  lookupHopsSig:vector  ETV
vector 624293  Network.dyn_peer[28]  lookupStabilitySig:vector  ETV
vector 624294  Network.dyn_peer[28]  lookupTimeSig:vector  ETV
vector 624592  Network.dyn_peer[128]  lookupHopsSig:vector  ETV
vector 624593  Network.dyn_peer[128]  lookupStabilitySig:vector  ETV
vector 624594  Network.dyn_peer[128]  lookupTimeSig:vector  ETV
vector 624295  Network.dyn_peer[29]  lookupHopsSig:vector  ETV
vector 624296  Network.dyn_peer[29]  lookupStabilitySig:vector  ETV
vector 624297  Network.dyn_peer[29]  lookupTimeSig:vector  ETV
vector 624298  Network.dyn_peer[30]  lookupHopsSig:vector  ETV
vector 624299  Network.dyn_peer[30]  lookupStabilitySig:vector  ETV
vector 624300  Network.dyn_peer[30]  lookupTimeSig:vector  ETV
vector 624316  Network.dyn_peer[36]  lookupHopsSig:vector  ETV
vector 624317  Network.dyn_peer[36]  lookupStabilitySig:vector  ETV
vector 624318  Network.dyn_peer[36]  lookupTimeSig:vector  ETV
vector 624319  Network.dyn_peer[37]  lookupHopsSig:vector  ETV
vector 624320  Network.dyn_peer[37]  lookupStabilitySig:vector  ETV
vector 624321  Network.dyn_peer[37]  lookupTimeSig:vector  ETV
vector 624334  Network.dyn_peer[42]  lookupHopsSig:vector  ETV
vector 624335  Network.dyn_peer[42]  lookupStabilitySig:vector  ETV
vector 624336  Network.dyn_peer[42]  lookupTimeSig:vector  ETV
vector 624634  Network.dyn_peer[142]  lookupHopsSig:vector  ETV
vector 624635  Network.dyn_peer[142]  lookupStabilitySig:vector  ETV
vector 624636  Network.dyn_peer[142]  lookupTimeSig:vector  ETV
vector 624682  Network.dyn_peer[158]  lookupHopsSig:vector  ETV
vector 624683  Network.dyn_peer[158]  lookupStabilitySig:vector  ETV
vector 624684  Network.dyn_peer[158]  lookupTimeSig:vector  ETV
vector 624397  Network.dyn_peer[63]  lookupHopsSig:vector  ETV
vector 624398  Network.dyn_peer[63]  lookupStabilitySig:vector  ETV
vector 624399  Network.dyn_peer[63]  lookupTimeSig:vector  ETV
vector 624748  Network.dyn_peer[180]  lookupHopsSig:vector  ETV
vector 624749  Network.dyn_peer[180]  lookupStabilitySig:vector  ETV
vector 624750  Network.dyn_peer[180]  lookupTimeSig:vector  ETV
vector 624769  Network.dyn_peer[187]  lookupHopsSig:vector  ETV
vector 624770  Network.dyn_peer[187]  lookupStabilitySig:vector  ETV
vector 624771  Network.dyn_peer[187]  lookupTimeSig:vector  ETV
vector 624487  Network.dyn_peer[93]  lookupHopsSig:vector  ETV
vector 624488  Network.dyn_peer[93]  lookupStabilitySig:vector  ETV
vector 624489  Network.dyn_peer[93]  lookupTimeSig:vector  ETV
vector 624493  Network.dyn_peer[95]  lookupHopsSig:vector  ETV
vector 624494  Network.dyn_peer[95]  lookupStabilitySig:vector  ETV
vector 624495  Network.dyn_peer[95]  lookupTimeSig:vector  ETV
vector 624220  Network.dyn_peer[4]  lookupHopsSig:vector  ETV
vector 624221  Network.dyn_peer[4]  lookupStabilitySig:vector  ETV
vector 624222  Network.dyn_peer[4]  lookupTimeSig:vector  ETV
vector 624520  Network.dyn_peer[104]  lookupHopsSig:vector  ETV
vector 624521  Network.dyn_peer[104]  lookupStabilitySig:vector  ETV
vector 624522  Network.dyn_peer[104]  lookupTimeSig:vector  ETV
vector 624235  Network.dyn_peer[9]  lookupHopsSig:vector  ETV
vector 624236  Network.dyn_peer[9]  lookupStabilitySig:vector  ETV
vector 624237  Network.dyn_peer[9]  lookupTimeSig:vector  ETV
vector 624541  Network.dyn_peer[111]  lookupHopsSig:vector  ETV
vector 624542  Network.dyn_peer[111]  lookupStabilitySig:vector  ETV
vector 624543  Network.dyn_peer[111]  lookupTimeSig:vector  ETV
vector 624577  Network.dyn_peer[123]  lookupHopsSig:vector  ETV
vector 624578  Network.dyn_peer[123]  lookupStabilitySig:vector  ETV
vector 624579  Network.dyn_peer[123]  lookupTimeSig:vector  ETV
vector 624289  Network.dyn_peer[27]  lookupHopsSig:vector  ETV
vector 624290  Network.dyn_peer[27]  lookupStabilitySig:vector  ETV
vector 624291  Network.dyn_peer[27]  lookupTimeSig:vector  ETV
vector 624313  Network.dyn_peer[35]  lookupHopsSig:vector  ETV
vector 624314  Network.dyn_peer[35]  lookupStabilitySig:vector  ETV
vector 624315  Network.dyn_peer[35]  lookupTimeSig:vector  ETV
vector 624625  Network.dyn_peer[139]  lookupHopsSig:vector  ETV
vector 624626  Network.dyn_peer[139]  lookupStabilitySig:vector  ETV
vector 624627  Network.dyn_peer[139]  lookupTimeSig:vector  ETV
vector 624358  Network.dyn_peer[50]  lookupHopsSig:vector  ETV
vector 624359  Network.dyn_peer[50]  lookupStabilitySig:vector  ETV
vector 624360  Network.dyn_peer[50]  lookupTimeSig:vector  ETV
vector 624667  Network.dyn_peer[153]  lookupHopsSig:vector  ETV
vector 624668  Network.dyn_peer[153]  lookupStabilitySig:vector  ETV
vector 624669  Network.dyn_peer[153]  lookupTimeSig:vector  ETV
vector 624391  Network.dyn_peer[61]  lookupHopsSig:vector  ETV
vector 624392  Network.dyn_peer[61]  lookupStabilitySig:vector  ETV
vector 624393  Network.dyn_peer[61]  lookupTimeSig:vector  ETV
vector 624421  Network.dyn_peer[71]  lookupHopsSig:vector  ETV
vector 624422  Network.dyn_peer[71]  lookupStabilitySig:vector  ETV
vector 624423  Network.dyn_peer[71]  lookupTimeSig:vector  ETV
vector 624733  Network.dyn_peer[175]  lookupHopsSig:vector  ETV
vector 624734  Network.dyn_peer[175]  lookupStabilitySig:vector  ETV
vector 624735  Network.dyn_peer[175]  lookupTimeSig:vector  ETV
vector 624790  Network.dyn_peer[194]  lookupHopsSig:vector  ETV
vector 624791  Network.dyn_peer[194]  lookupStabilitySig:vector  ETV
vector 624792  Network.dyn_peer[194]  lookupTimeSig:vector  ETV
vector 624241  Network.dyn_peer[11]  lookupHopsSig:vector  ETV
vector 624242  Network.dyn_peer[11]  lookupStabilitySig:vector  ETV
vector 624243  Network.dyn_peer[11]  lookupTimeSig:vector  ETV
vector 624331  Network.dyn_peer[41]  lookupHopsSig:vector  ETV
vector 624332  Network.dyn_peer[41]  lookupStabilitySig:vector  ETV
vector 624333  Network.dyn_peer[41]  lookupTimeSig:vector  ETV
vector 624652  Network.dyn_peer[148]  lookupHopsSig:vector  ETV
vector 624653  Network.dyn_peer[148]  lookupStabilitySig:vector  ETV
vector 624654  Network.dyn_peer[148]  lookupTimeSig:vector  ETV
vector 624379  Network.dyn_peer[57]  lookupHopsSig:vector  ETV
vector 624380  Network.dyn_peer[57]  lookupStabilitySig:vector  ETV
vector 624381  Network.dyn_peer[57]  lookupTimeSig:vector  ETV
vector 624700  Network.dyn_peer[164]  lookupHopsSig:vector  ETV
vector 624701  Network.dyn_peer[164]  lookupStabilitySig:vector  ETV
vector 624702  Network.dyn_peer[164]  lookupTimeSig:vector  ETV
vector 624718  Network.dyn_peer[170]  lookupHopsSig:vector  ETV
vector 624719  Network.dyn_peer[170]  lookupStabilitySig:vector  ETV
vector 624720  Network.dyn_peer[170]  lookupTimeSig:vector  ETV
vector 624442  Network.dyn_peer[78]  lookupHopsSig:vector  ETV
vector 624443  Network.dyn_peer[78]  lookupStabilitySig:vector  ETV
vector 624444  Network.dyn_peer[78]  lookupTimeSig:vector  ETV
vector 624766  Network.dyn_peer[186]  lookupHopsSig:vector  ETV
vector 624767  Network.dyn_peer[186]  lookupStabilitySig:vector  ETV
vector 624768  Network.dyn_peer[186]  lookupTimeSig:vector  ETV
vector 624517  Network.dyn_peer[103]  lookupHopsSig:vector  ETV
vector 624518  Network.dyn_peer[103]  lookupStabilitySig:vector  ETV
vector 624519  Network.dyn_peer[103]  lookupTimeSig:vector  ETV
vector 624547  Network.dyn_peer[113]  lookupHopsSig:vector  ETV
vector 624548  Network.dyn_peer[113]  lookupStabilitySig:vector  ETV
vector 624549  Network.dyn_peer[113]  lookupTimeSig:vector  ETV
vector 624583  Network.dyn_peer[125]  lookupHopsSig:vector  ETV
vector 624584  Network.dyn_peer[125]  lookupStabilitySig:vector  ETV
vector 624585  Network.dyn_peer[125]  lookupTimeSig:vector  ETV
vector 624595  Network.dyn_peer[129]  lookupHopsSig:vector  ETV
vector 624596  Network.dyn_peer[129]  lookupStabilitySig:vector  ETV
vector 624597  Network.dyn_peer[129]  lookupTimeSig:vector  ETV
vector 624661  Network.dyn_peer[151]  lookupHopsSig:vector  ETV
vector 624662  Network.dyn_peer[151]  lookupStabilitySig:vector  ETV
vector 624663  Network.dyn_peer[151]  lookupTimeSig:vector  ETV
vector 624376  Network.dyn_peer[56]  lookupHopsSig:vector  ETV
vector 624377  Network.dyn_peer[56]  lookupStabilitySig:vector  ETV
vector 624378  Network.dyn_peer[56]  lookupTimeSig:vector  ETV
vector 624394  Network.dyn_peer[62]  lookupHopsSig:vector  ETV
vector 624395  Network.dyn_peer[62]  lookupStabilitySig:vector  ETV
vector 624396  Network.dyn_peer[62]  lookupTimeSig:vector  ETV
vector 624754  Network.dyn_peer[182]  lookupHopsSig:vector  ETV
vector 624755  Network.dyn_peer[182]  lookupStabilitySig:vector  ETV
vector 624756  Network.dyn_peer[182]  lookupTimeSig:vector  ETV
vector 624490  Network.dyn_peer[94]  lookupHopsSig:vector  ETV
vector 624491  Network.dyn_peer[94]  lookupStabilitySig:vector  ETV
vector 624492  Network.dyn_peer[94]  lookupTimeSig:vector  ETV
vector 624223  Network.dyn_peer[5]  lookupHopsSig:vector  ETV
vector 624224  Network.dyn_peer[5]  lookupStabilitySig:vector  ETV
vector 624225  Network.dyn_peer[5]  lookupTimeSig:vector  ETV
vector 624544  Network.dyn_peer[112]  lookupHopsSig:vector  ETV
vector 624545  Network.dyn_peer[112]  lookupStabilitySig:vector  ETV
vector 624546  Network.dyn_peer[112]  lookupTimeSig:vector  ETV
vector 624562  Network.dyn_peer[118]  lookupHopsSig:vector  ETV
vector 624563  Network.dyn_peer[118]  lookupStabilitySig:vector  ETV
vector 624564  Network.dyn_peer[118]  lookupTimeSig:vector  ETV
vector 624268  Network.dyn_peer[20]  lookupHopsSig:vector  ETV
vector 624269  Network.dyn_peer[20]  lookupStabilitySig:vector  ETV
vector 624270  Network.dyn_peer[20]  lookupTimeSig:vector  ETV
vector 624631  Network.dyn_peer[141]  lookupHopsSig:vector  ETV
vector 624632  Network.dyn_peer[141]  lookupStabilitySig:vector  ETV
vector 624633  Network.dyn_peer[141]  lookupTimeSig:vector  ETV
vector 624409  Network.dyn_peer[67]  lookupHopsSig:vector  ETV
vector 624410  Network.dyn_peer[67]  lookupStabilitySig:vector  ETV
vector 624411  Network.dyn_peer[67]  lookupTimeSig:vector  ETV
vector 624430  Network.dyn_peer[74]  lookupHopsSig:vector  ETV
vector 624431  Network.dyn_peer[74]  lookupStabilitySig:vector  ETV
vector 624432  Network.dyn_peer[74]  lookupTimeSig:vector  ETV
vector 624484  Network.dyn_peer[92]  lookupHopsSig:vector  ETV
vector 624485  Network.dyn_peer[92]  lookupStabilitySig:vector  ETV
vector 624486  Network.dyn_peer[92]  lookupTimeSig:vector  ETV
vector 624550  Network.dyn_peer[114]  lookupHopsSig:vector  ETV
vector 624551  Network.dyn_peer[114]  lookupStabilitySig:vector  ETV
vector 624552  Network.dyn_peer[114]  lookupTimeSig:vector  ETV
vector 624259  Network.dyn_peer[17]  lookupHopsSig:vector  ETV
vector 624260  Network.dyn_peer[17]  lookupStabilitySig:vector  ETV
vector 624261  Network.dyn_peer[17]  lookupTimeSig:vector  ETV
vector 624277  Network.dyn_peer[23]  lookupHopsSig:vector  ETV
vector 624278  Network.dyn_peer[23]  lookupStabilitySig:vector  ETV
vector 624279  Network.dyn_peer[23]  lookupTimeSig:vector  ETV
vector 624598  Network.dyn_peer[130]  lookupHopsSig:vector  ETV
vector 624599  Network.dyn_peer[130]  lookupStabilitySig:vector  ETV
vector 624600  Network.dyn_peer[130]  lookupTimeSig:vector  ETV
vector 624322  Network.dyn_peer[38]  lookupHopsSig:vector  ETV
vector 624323  Network.dyn_peer[38]  lookupStabilitySig:vector  ETV
vector 624324  Network.dyn_peer[38]  lookupTimeSig:vector  ETV
vector 624355  Network.dyn_peer[49]  lookupHopsSig:vector  ETV
vector 624356  Network.dyn_peer[49]  lookupStabilitySig:vector  ETV
vector 624357  Network.dyn_peer[49]  lookupTimeSig:vector  ETV
vector 624691  Network.dyn_peer[161]  lookupHopsSig:vector  ETV
vector 624692  Network.dyn_peer[161]  lookupStabilitySig:vector  ETV
vector 624693  Network.dyn_peer[161]  lookupTimeSig:vector  ETV
vector 624400  Network.dyn_peer[64]  lookupHopsSig:vector  ETV
vector 624401  Network.dyn_peer[64]  lookupStabilitySig:vector  ETV
vector 624402  Network.dyn_peer[64]  lookupTimeSig:vector  ETV
vector 624427  Network.dyn_peer[73]  lookupHopsSig:vector  ETV
vector 624428  Network.dyn_peer[73]  lookupStabilitySig:vector  ETV
vector 624429  Network.dyn_peer[73]  lookupTimeSig:vector  ETV
vector 624736  Network.dyn_peer[176]  lookupHopsSig:vector  ETV
vector 624737  Network.dyn_peer[176]  lookupStabilitySig:vector  ETV
vector 624738  Network.dyn_peer[176]  lookupTimeSig:vector  ETV
vector 624445  Network.dyn_peer[79]  lookupHopsSig:vector  ETV
vector 624446  Network.dyn_peer[79]  lookupStabilitySig:vector  ETV
vector 624447  Network.dyn_peer[79]  lookupTimeSig:vector  ETV
vector 624478  Network.dyn_peer[90]  lookupHopsSig:vector  ETV
vector 624479  Network.dyn_peer[90]  lookupStabilitySig:vector  ETV
vector 624480  Network.dyn_peer[90]  lookupTimeSig:vector  ETV
vector 624781  Network.dyn_peer[191]  lookupHopsSig:vector  ETV
vector 624782  Network.dyn_peer[191]  lookupStabilitySig:vector  ETV
vector 624783  Network.dyn_peer[191]  lookupTimeSig:vector  ETV
vector 624787  Network.dyn_peer[193]  lookupHopsSig:vector  ETV
vector 624788  Network.dyn_peer[193]  lookupStabilitySig:vector  ETV
vector 624789  Network.dyn_peer[193]  lookupTimeSig:vector  ETV
vector 624496  Network.dyn_peer[96]  lookupHopsSig:vector  ETV
vector 624497  Network.dyn_peer[96]  lookupStabilitySig:vector  ETV
vector 624498  Network.dyn_peer[96]  lookupTimeSig:vector  ETV
vector 624499  Network.dyn_peer[97]  lookupHopsSig:vector  ETV
vector 624500  Network.dyn_peer[97]  lookupStabilitySig:vector  ETV
vector 624501  Network.dyn_peer[97]  lookupTimeSig:vector  ETV
vector 624265  Network.dyn_peer[19]  lookupHopsSig:vector  ETV
vector 624266  Network.dyn_peer[19]  lookupStabilitySig:vector  ETV
vector 624267  Network.dyn_peer[19]  lookupTimeSig:vector  ETV
vector 624604  Network.dyn_peer[132]  lookupHopsSig:vector  ETV
vector 624605  Network.dyn_peer[132]  lookupStabilitySig:vector  ETV
vector 624606  Network.dyn_peer[132]  lookupTimeSig:vector  ETV
vector 624613  Network.dyn_peer[135]  lookupHopsSig:vector  ETV
vector 624614  Network.dyn_peer[135]  lookupStabilitySig:vector  ETV
vector 624615  Network.dyn_peer[135]  lookupTimeSig:vector  ETV
vector 624637  Network.dyn_peer[143]  lookupHopsSig:vector  ETV
vector 624638  Network.dyn_peer[143]  lookupStabilitySig:vector  ETV
vector 624639  Network.dyn_peer[143]  lookupTimeSig:vector  ETV
vector 624643  Network.dyn_peer[145]  lookupHopsSig:vector  ETV
vector 624644  Network.dyn_peer[145]  lookupStabilitySig:vector  ETV
vector 624645  Network.dyn_peer[145]  lookupTimeSig:vector  ETV
vector 624697  Network.dyn_peer[163]  lookupHopsSig:vector  ETV
vector 624698  Network.dyn_peer[163]  lookupStabilitySig:vector  ETV
vector 624699  Network.dyn_peer[163]  lookupTimeSig:vector  ETV
vector 624742  Network.dyn_peer[178]  lookupHopsSig:vector  ETV
vector 624743  Network.dyn_peer[178]  lookupStabilitySig:vector  ETV
vector 624744  Network.dyn_peer[178]  lookupTimeSig:vector  ETV
vector 624472  Network.dyn_peer[88]  lookupHopsSig:vector  ETV
vector 624473  Network.dyn_peer[88]  lookupStabilitySig:vector  ETV
vector 624474  Network.dyn_peer[88]  lookupTimeSig:vector  ETV
vector 624778  Network.dyn_peer[190]  lookupHopsSig:vector  ETV
vector 624779  Network.dyn_peer[190]  lookupStabilitySig:vector  ETV
vector 624780  Network.dyn_peer[190]  lookupTimeSig:vector  ETV
vector 624523  Network.dyn_peer[105]  lookupHopsSig:vector  ETV
vector 624524  Network.dyn_peer[105]  lookupStabilitySig:vector  ETV
vector 624525  Network.dyn_peer[105]  lookupTimeSig:vector  ETV
vector 624247  Network.dyn_peer[13]  lookupHopsSig:vector  ETV
vector 624248  Network.dyn_peer[13]  lookupStabilitySig:vector  ETV
vector 624249  Network.dyn_peer[13]  lookupTimeSig:vector  ETV
vector 624640  Network.dyn_peer[144]  lookupHopsSig:vector  ETV
vector 624641  Network.dyn_peer[144]  lookupStabilitySig:vector  ETV
vector 624642  Network.dyn_peer[144]  lookupTimeSig:vector  ETV
vector 624670  Network.dyn_peer[154]  lookupHopsSig:vector  ETV
vector 624671  Network.dyn_peer[154]  lookupStabilitySig:vector  ETV
vector 624672  Network.dyn_peer[154]  lookupTimeSig:vector  ETV
vector 624673  Network.dyn_peer[155]  lookupHopsSig:vector  ETV
vector 624674  Network.dyn_peer[155]  lookupStabilitySig:vector  ETV
vector 624675  Network.dyn_peer[155]  lookupTimeSig:vector  ETV
vector 624460  Network.dyn_peer[84]  lookupHopsSig:vector  ETV
vector 624461  Network.dyn_peer[84]  lookupStabilitySig:vector  ETV
vector 624462  Network.dyn_peer[84]  lookupTimeSig:vector  ETV
vector 624589  Network.dyn_peer[127]  lookupHopsSig:vector  ETV
vector 624590  Network.dyn_peer[127]  lookupStabilitySig:vector  ETV
vector 624591  Network.dyn_peer[127]  lookupTimeSig:vector  ETV
vector 624337  Network.dyn_peer[43]  lookupHopsSig:vector  ETV
vector 624338  Network.dyn_peer[43]  lookupStabilitySig:vector  ETV
vector 624339  Network.dyn_peer[43]  lookupTimeSig:vector  ETV
vector 624343  Network.dyn_peer[45]  lookupHopsSig:vector  ETV
vector 624344  Network.dyn_peer[45]  lookupStabilitySig:vector  ETV
vector 624345  Network.dyn_peer[45]  lookupTimeSig:vector  ETV
vector 624655  Network.dyn_peer[149]  lookupHopsSig:vector  ETV
vector 624656  Network.dyn_peer[149]  lookupStabilitySig:vector  ETV
vector 624657  Network.dyn_peer[149]  lookupTimeSig:vector  ETV
vector 624658  Network.dyn_peer[150]  lookupHopsSig:vector  ETV
vector 624659  Network.dyn_peer[150]  lookupStabilitySig:vector  ETV
vector 624660  Network.dyn_peer[150]  lookupTimeSig:vector  ETV
vector 624688  Network.dyn_peer[160]  lookupHopsSig:vector  ETV
vector 624689  Network.dyn_peer[160]  lookupStabilitySig:vector  ETV
vector 624690  Network.dyn_peer[160]  lookupTimeSig:vector  ETV
vector 624712  Network.dyn_peer[168]  lookupHopsSig:vector  ETV
vector 624713  Network.dyn_peer[168]  lookupStabilitySig:vector  ETV
vector 624714  Network.dyn_peer[168]  lookupTimeSig:vector  ETV
vector 624715  Network.dyn_peer[169]  lookupHopsSig:vector  ETV
vector 624716  Network.dyn_peer[169]  lookupStabilitySig:vector  ETV
vector 624717  Network.dyn_peer[169]  lookupTimeSig:vector  ETV
vector 624454  Network.dyn_peer[82]  lookupHopsSig:vector  ETV
vector 624455  Network.dyn_peer[82]  lookupStabilitySig:vector  ETV
vector 624456  Network.dyn_peer[82]  lookupTimeSig:vector  ETV
vector 624763  Network.dyn_peer[185]  lookupHopsSig:vector  ETV
vector 624764  Network.dyn_peer[185]  lookupStabilitySig:vector  ETV
vector 624765  Network.dyn_peer[185]  lookupTimeSig:vector  ETV
vector 624469  Network.dyn_peer[87]  lookupHopsSig:vector  ETV
vector 624470  Network.dyn_peer[87]  lookupStabilitySig:vector  ETV
vector 624471  Network.dyn_peer[87]  lookupTimeSig:vector  ETV
vector 624580  Network.dyn_peer[124]  lookupHopsSig:vector  ETV
vector 624581  Network.dyn_peer[124]  lookupStabilitySig:vector  ETV
vector 624582  Network.dyn_peer[124]  lookupTimeSig:vector  ETV
vector 624619  Network.dyn_peer[137]  lookupHopsSig:vector  ETV
vector 624620  Network.dyn_peer[137]  lookupStabilitySig:vector  ETV
vector 624621  Network.dyn_peer[137]  lookupTimeSig:vector  ETV
vector 624382  Network.dyn_peer[58]  lookupHopsSig:vector  ETV
vector 624383  Network.dyn_peer[58]  lookupStabilitySig:vector  ETV
vector 624384  Network.dyn_peer[58]  lookupTimeSig:vector  ETV
vector 624721  Network.dyn_peer[171]  lookupHopsSig:vector  ETV
vector 624722  Network.dyn_peer[171]  lookupStabilitySig:vector  ETV
vector 624723  Network.dyn_peer[171]  lookupTimeSig:vector  ETV
vector 624772  Network.dyn_peer[188]  lookupHopsSig:vector  ETV
vector 624773  Network.dyn_peer[188]  lookupStabilitySig:vector  ETV
vector 624774  Network.dyn_peer[188]  lookupTimeSig:vector  ETV
vector 624475  Network.dyn_peer[89]  lookupHopsSig:vector  ETV
vector 624476  Network.dyn_peer[89]  lookupStabilitySig:vector  ETV
vector 624477  Network.dyn_peer[89]  lookupTimeSig:vector  ETV
vector 624211  Network.dyn_peer[1]  lookupHopsSig:vector  ETV
vector 624212  Network.dyn_peer[1]  lookupStabilitySig:vector  ETV
vector 624213  Network.dyn_peer[1]  lookupTimeSig:vector  ETV
vector 624526  Network.dyn_peer[106]  lookupHopsSig:vector  ETV
vector 624527  Network.dyn_peer[106]  lookupStabilitySig:vector  ETV
vector 624528  Network.dyn_peer[106]  lookupTimeSig:vector  ETV
vector 624310  Network.dyn_peer[34]  lookupHopsSig:vector  ETV
vector 624311  Network.dyn_peer[34]  lookupStabilitySig:vector  ETV
vector 624312  Network.dyn_peer[34]  lookupTimeSig:vector  ETV
vector 624328  Network.dyn_peer[40]  lookupHopsSig:vector  ETV
vector 624329  Network.dyn_peer[40]  lookupStabilitySig:vector  ETV
vector 624330  Network.dyn_peer[40]  lookupTimeSig:vector  ETV
vector 624649  Network.dyn_peer[147]  lookupHopsSig:vector  ETV
vector 624650  Network.dyn_peer[147]  lookupStabilitySig:vector  ETV
vector 624651  Network.dyn_peer[147]  lookupTimeSig:vector  ETV
vector 624415  Network.dyn_peer[69]  lookupHopsSig:vector  ETV
vector 624416  Network.dyn_peer[69]  lookupStabilitySig:vector  ETV
vector 624417  Network.dyn_peer[69]  lookupTimeSig:vector  ETV
vector 624739  Network.dyn_peer[177]  lookupHopsSig:vector  ETV
vector 624740  Network.dyn_peer[177]  lookupStabilitySig:vector  ETV
vector 624741  Network.dyn_peer[177]  lookupTimeSig:vector  ETV
vector 624535  Network.dyn_peer[109]  lookupHopsSig:vector  ETV
vector 624536  Network.dyn_peer[109]  lookupStabilitySig:vector  ETV
vector 624537  Network.dyn_peer[109]  lookupTimeSig:vector  ETV
vector 624238  Network.dyn_peer[10]  lookupHopsSig:vector  ETV
vector 624239  Network.dyn_peer[10]  lookupStabilitySig:vector  ETV
vector 624240  Network.dyn_peer[10]  lookupTimeSig:vector  ETV
vector 624256  Network.dyn_peer[16]  lookupHopsSig:vector  ETV
vector 624257  Network.dyn_peer[16]  lookupStabilitySig:vector  ETV
vector 624258  Network.dyn_peer[16]  lookupTimeSig:vector  ETV
vector 624601  Network.dyn_peer[131]  lookupHopsSig:vector  ETV
vector 624602  Network.dyn_peer[131]  lookupStabilitySig:vector  ETV
vector 624603  Network.dyn_peer[131]  lookupTimeSig:vector  ETV
vector 624307  Network.dyn_peer[33]  lookupHopsSig:vector  ETV
vector 624308  Network.dyn_peer[33]  lookupStabilitySig:vector  ETV
vector 624309  Network.dyn_peer[33]  lookupTimeSig:vector  ETV
vector 624616  Network.dyn_peer[136]  lookupHopsSig:vector  ETV
vector 624617  Network.dyn_peer[136]  lookupStabilitySig:vector  ETV
vector 624618  Network.dyn_peer[136]  lookupTimeSig:vector  ETV
vector 624694  Network.dyn_peer[162]  lookupHopsSig:vector  ETV
vector 624695  Network.dyn_peer[162]  lookupStabilitySig:vector  ETV
vector 624696  Network.dyn_peer[162]  lookupTimeSig:vector  ETV