version 2
run Stability2-98-20130526-00:51:36-26640
attr configname Stability2
attr datetime 20130526-00:51:36
attr experiment Stability2
attr inifile omnetpp.ini
attr iterationvars $0=40
attr iterationvars2 "$0=40, $repetition=8"
attr measurement $0=40
attr network Network
attr processid 26640
attr repetition 8
attr replication #8
attr resultdir results
attr runnumber 98
attr seedset 98

vector 297098  Network.churner  inGoingSizeSig:vector  ETV
vector 294113  Network.dyn_peer[5]  lookupHopsSig:vector  ETV
vector 294114  Network.dyn_peer[5]  lookupStabilitySig:vector  ETV
vector 294115  Network.dyn_peer[5]  lookupTimeSig:vector  ETV
vector 294143  Network.dyn_peer[15]  lookupHopsSig:vector  ETV
vector 294144  Network.dyn_peer[15]  lookupStabilitySig:vector  ETV
vector 294145  Network.dyn_peer[15]  lookupTimeSig:vector  ETV
vector 294182  Network.dyn_peer[28]  lookupHopsSig:vector  ETV
vector 294183  Network.dyn_peer[28]  lookupStabilitySig:vector  ETV
vector 294184  Network.dyn_peer[28]  lookupTimeSig:vector  ETV
vector 294098  Network.dyn_peer[0]  lookupHopsSig:vector  ETV
vector 294099  Network.dyn_peer[0]  lookupStabilitySig:vector  ETV
vector 294100  Network.dyn_peer[0]  lookupTimeSig:vector  ETV
vector 294101  Network.dyn_peer[1]  lookupHopsSig:vector  ETV
vector 294102  Network.dyn_peer[1]  lookupStabilitySig:vector  ETV
vector 294103  Network.dyn_peer[1]  lookupTimeSig:vector  ETV
vector 294107  Network.dyn_peer[3]  lookupHopsSig:vector  ETV
vector 294108  Network.dyn_peer[3]  lookupStabilitySig:vector  ETV
vector 294109  Network.dyn_peer[3]  lookupTimeSig:vector  ETV
vector 294125  Network.dyn_peer[9]  lookupHopsSig:vector  ETV
vector 294126  Network.dyn_peer[9]  lookupStabilitySig:vector  ETV
vector 294127  Network.dyn_peer[9]  lookupTimeSig:vector  ETV
vector 294155  Network.dyn_peer[19]  lookupHopsSig:vector  ETV
vector 294156  Network.dyn_peer[19]  lookupStabilitySig:vector  ETV
vector 294157  Network.dyn_peer[19]  lookupTimeSig:vector  ETV
vector 294164  Network.dyn_peer[22]  lookupHopsSig:vector  ETV
vector 294165  Network.dyn_peer[22]  lookupStabilitySig:vector  ETV
vector 294166  Network.dyn_peer[22]  lookupTimeSig:vector  ETV
vector 294179  Network.dyn_peer[27]  lookupHopsSig:vector  ETV
vector 294180  Network.dyn_peer[27]  lookupStabilitySig:vector  ETV
vector 294181  Network.dyn_peer[27]  lookupTimeSig:vector  ETV
vector 294104  Network.dyn_peer[2]  lookupHopsSig:vector  ETV
vector 294105  Network.dyn_peer[2]  lookupStabilitySig:vector  ETV
vector 294106  Network.dyn_peer[2]  lookupTimeSig:vector  ETV
vector 294110  Network.dyn_peer[4]  lookupHopsSig:vector  ETV
vector 294111  Network.dyn_peer[4]  lookupStabilitySig:vector  ETV
vector 294112  Network.dyn_peer[4]  lookupTimeSig:vector  ETV
vector 294119  Network.dyn_peer[7]  lookupHopsSig:vector  ETV
vector 294120  Network.dyn_peer[7]  lookupStabilitySig:vector  ETV
vector 294121  Network.dyn_peer[7]  lookupTimeSig:vector  ETV
vector 294122  Network.dyn_peer[8]  lookupHopsSig:vector  ETV
vector 294123  Network.dyn_peer[8]  lookupStabilitySig:vector  ETV
vector 294124  Network.dyn_peer[8]  lookupTimeSig:vector  ETV
vector 294128  Network.dyn_peer[10]  lookupHopsSig:vector  ETV
vector 294129  Network.dyn_peer[10]  lookupStabilitySig:vector  ETV
vector 294130  Network.dyn_peer[10]  lookupTimeSig:vector  ETV
vector 294131  Network.dyn_peer[11]  lookupHopsSig:vector  ETV
vector 294132  Network.dyn_peer[11]  lookupStabilitySig:vector  ETV
vector 294133  Network.dyn_peer[11]  lookupTimeSig:vector  ETV
vector 294170  Network.dyn_peer[24]  lookupHopsSig:vector  ETV
vector 294171  Network.dyn_peer[24]  lookupStabilitySig:vector  ETV
vector 294172  Network.dyn_peer[24]  lookupTimeSig:vector  ETV
vector 294173  Network.dyn_peer[25]  lookupHopsSig:vector  ETV
vector 294174  Network.dyn_peer[25]  lookupStabilitySig:vector  ETV
vector 294175  Network.dyn_peer[25]  lookupTimeSig:vector  ETV
vector 294194  Network.dyn_peer[32]  lookupHopsSig:vector  ETV
vector 294195  Network.dyn_peer[32]  lookupStabilitySig:vector  ETV
vector 294196  Network.dyn_peer[32]  lookupTimeSig:vector  ETV
vector 294197  Network.dyn_peer[33]  lookupHopsSig:vector  ETV
vector 294198  Network.dyn_peer[33]  lookupStabilitySig:vector  ETV
vector 294199  Network.dyn_peer[33]  lookupTimeSig:vector  ETV
vector 294200  Network.dyn_peer[34]  lookupHopsSig:vector  ETV
vector 294201  Network.dyn_peer[34]  lookupStabilitySig:vector  ETV
vector 294202  Network.dyn_peer[34]  lookupTimeSig:vector  ETV
vector 294209  Network.dyn_peer[37]  lookupHopsSig:vector  ETV
vector 294210  Network.dyn_peer[37]  lookupStabilitySig:vector  ETV
vector 294211  Network.dyn_peer[37]  lookupTimeSig:vector  ETV
vector 294134  Network.dyn_peer[12]  lookupHopsSig:vector  ETV
vector 294135  Network.dyn_peer[12]  lookupStabilitySig:vector  ETV
vector 294136  Network.dyn_peer[12]  lookupTimeSig:vector  ETV
vector 294137  Network.dyn_peer[13]  lookupHopsSig:vector  ETV
vector 294138  Network.dyn_peer[13]  lookupStabilitySig:vector  ETV
vector 294139  Network.dyn_peer[13]  lookupTimeSig:vector  ETV
vector 294140  Network.dyn_peer[14]  lookupHopsSig:vector  ETV
vector 294141  Network.dyn_peer[14]  lookupStabilitySig:vector  ETV
vector 294142  Network.dyn_peer[14]  lookupTimeSig:vector  ETV
vector 294146  Network.dyn_peer[16]  lookupHopsSig:vector  ETV
vector 294147  Network.dyn_peer[16]  lookupStabilitySig:vector  ETV
vector 294148  Network.dyn_peer[16]  lookupTimeSig:vector  ETV
vector 294161  Network.dyn_peer[21]  lookupHopsSig:vector  ETV
vector 294162  Network.dyn_peer[21]  lookupStabilitySig:vector  ETV
vector 294163  Network.dyn_peer[21]  lookupTimeSig:vector  ETV
vector 294176  Network.dyn_peer[26]  lookupHopsSig:vector  ETV
vector 294177  Network.dyn_peer[26]  lookupStabilitySig:vector  ETV
vector 294178  Network.dyn_peer[26]  lookupTimeSig:vector  ETV
vector 294188  Network.dyn_peer[30]  lookupHopsSig:vector  ETV
vector 294189  Network.dyn_peer[30]  lookupStabilitySig:vector  ETV
vector 294190  Network.dyn_peer[30]  lookupTimeSig:vector  ETV
vector 294212  Network.dyn_peer[38]  lookupHopsSig:vector  ETV
vector 294213  Network.dyn_peer[38]  lookupStabilitySig:vector  ETV
vector 294214  Network.dyn_peer[38]  lookupTimeSig:vector  ETV
vector 294149  Network.dyn_peer[17]  lookupHopsSig:vector  ETV
vector 294150  Network.dyn_peer[17]  lookupStabilitySig:vector  ETV
vector 294151  Network.dyn_peer[17]  lookupTimeSig:vector  ETV
vector 294152  Network.dyn_peer[18]  lookupHopsSig:vector  ETV
vector 294153  Network.dyn_peer[18]  lookupStabilitySig:vector  ETV
vector 294154  Network.dyn_peer[18]  lookupTimeSig:vector  ETV
vector 294167  Network.dyn_peer[23]  lookupHopsSig:vector  ETV
vector 294168  Network.dyn_peer[23]  lookupStabilitySig:vector  ETV
vector 294169  Network.dyn_peer[23]  lookupTimeSig:vector  ETV
vector 294158  Network.dyn_peer[20]  lookupHopsSig:vector  ETV
vector 294159  Network.dyn_peer[20]  lookupStabilitySig:vector  ETV
vector 294160  Network.dyn_peer[20]  lookupTimeSig:vector  ETV
vector 294191  Network.dyn_peer[31]  lookupHopsSig:vector  ETV
vector 294192  Network.dyn_peer[31]  lookupStabilitySig:vector  ETV
vector 294193  Network.dyn_peer[31]  lookupTimeSig:vector  ETV
vector 294215  Network.dyn_peer[39]  lookupHopsSig:vector  ETV
vector 294216  Network.dyn_peer[39]  lookupStabilitySig:vector  ETV
vector 294217  Network.dyn_peer[39]  lookupTimeSig:vector  ETV
vector 294116  Network.dyn_peer[6]  lookupHopsSig:vector  ETV
vector 294117  Network.dyn_peer[6]  lookupStabilitySig:vector  ETV
vector 294118  Network.dyn_peer[6]  lookupTimeSig:vector  ETV
vector 294203  Network.dyn_peer[35]  lookupHopsSig:vector  ETV
vector 294204  Network.dyn_peer[35]  lookupStabilitySig:vector  ETV
vector 294205  Network.dyn_peer[35]  lookupTimeSig:vector  ETV
vector 294185  Network.dyn_peer[29]  lookupHopsSig:vector  ETV
vector 294186  Network.dyn_peer[29]  lookupStabilitySig:vector  ETV
vector 294187  Network.dyn_peer[29]  lookupTimeSig:vector  ETV
vector 294206  Network.dyn_peer[36]  lookupHopsSig:vector  ETV
vector 294207  Network.dyn_peer[36]  lookupStabilitySig:vector  ETV
vector 294208  Network.dyn_peer[36]  lookupTimeSig:vector  ETV
294098	150	20.101	1
294098	516	20.601	4
294098	643	20.81000139779	1
294099	150	20.101	0.79999999701977
294099	516	20.601	0.19999998807907
294099	643	20.81000139779	0.83333332836628
294100	150	20.101	0.1
294100	516	20.601	0.5
294100	643	20.81000139779	0.2
294101	155	20.102	1
294101	453	20.502	3
294101	769	21.014632492314	4
294101	911	21.227742603538	1
294102	155	20.102	0.79999999701977
294102	453	20.502	0.39999997615814
294102	769	21.014632492314	0.5
294102	911	21.227742603538	0.90909090638161
294103	155	20.102	0.1
294103	453	20.502	0.4
294103	769	21.014632492314	0.5
294103	911	21.227742603538	0.2
294104	224	20.203	2
294104	707	20.903	6
294104	943	21.311017724531	3
294104	1204	21.917290597531	5
294105	224	20.203	0.59999999403954
294105	707	20.903	0.14285713434219
294105	943	21.311017724531	0.76923076808453
294105	1204	21.917290597531	0.80769230425358
294106	224	20.203	0.2
294106	707	20.903	0.7
294106	943	21.311017724531	0.4
294106	1204	21.917290597531	0.6
294107	161	20.104	1
294107	396	20.404	2
294107	647	20.812939357583	3
294107	1051	21.518646899401	6
294108	161	20.104	0.79999999701977
294108	396	20.404	0.59999999403954
294108	647	20.812939357583	0.5
294108	1051	21.518646899401	0.64705881476402
294109	161	20.104	0.1
294109	396	20.404	0.3
294109	647	20.812939357583	0.4
294109	1051	21.518646899401	0.7
294110	230	20.205	2
294110	709	20.905	6
294110	1135	21.719660942132	7
294110	1214	21.929328996455	1
294111	230	20.205	0.59999999403954
294111	709	20.905	0.14285713434219
294111	1135	21.719660942132	0.68181818723679
294111	1214	21.929328996455	0.96296296268702
294112	230	20.205	0.2
294112	709	20.905	0.7
294112	1135	21.719660942132	0.8
294112	1214	21.929328996455	0.2
294113	32	20.006	0
294113	319	20.307522395974	2
294113	947	21.315690268388	9
294114	32	20.006	1
294114	319	20.307522395974	0.59999999403954
294114	947	21.315690268388	0.30769228935242
294115	32	20.006	0
294115	319	20.307522395974	0.3
294115	947	21.315690268388	1
294116	640	20.807	8
294116	1085	21.607	7
294116	1169	21.811159733944	1
294116	1318	22.416101799693	5
294116	1366	22.727849649418	2
294117	640	20.807	-0.33333337306976
294117	1085	21.607	0.63157895207405
294117	1169	21.811159733944	0.96153846010566
294117	1318	22.416101799693	0.86111110448837
294117	1366	22.727849649418	0.94594594463706
294118	640	20.807	0.8
294118	1085	21.607	0.8
294118	1169	21.811159733944	0.2
294118	1318	22.416101799693	0.6
294118	1366	22.727849649418	0.3
294119	237	20.208	2
294119	521	20.608	3
294119	765	21.012888705911	3
294119	1093	21.617430988423	5
294120	237	20.208	0.59999999403954
294120	521	20.608	0.39999997615814
294120	765	21.012888705911	0.625
294120	1093	21.617430988423	0.7368420958519
294121	237	20.208	0.2
294121	521	20.608	0.4
294121	765	21.012888705911	0.4
294121	1093	21.617430988423	0.6
294122	242	20.209	2
294122	940	21.309	10
294122	1129	21.714125338521	3
294122	1201	21.915120840818	1
294122	1259	22.120683781816	1
294122	1320	22.42507059581	2
294123	242	20.209	0.59999999403954
294123	940	21.309	0.23076921701431
294123	1129	21.714125338521	0.85714285075665
294123	1201	21.915120840818	0.96153846010566
294123	1259	22.120683781816	0.96774193644524
294123	1320	22.42507059581	0.94444444403052
294124	242	20.209	0.2
294124	940	21.309	1.1
294124	1129	21.714125338521	0.4
294124	1201	21.915120840818	0.2
294124	1259	22.120683781816	0.2
294124	1320	22.42507059581	0.3
294125	171	20.11	1
294125	583	20.712580600248	5
294126	171	20.11	0.79999999701977
294126	583	20.712580600248	0
294127	171	20.11	0.1
294127	583	20.712580600248	0.6
294128	248	20.211	2
294128	526	20.611	3
294128	771	21.015481396276	3
294128	1133	21.719446023526	6
294129	248	20.211	0.59999999403954
294129	526	20.611	0.39999997615814
294129	771	21.015481396276	0.625
294129	1133	21.719446023526	0.71428570151329
294130	248	20.211	0.2
294130	526	20.611	0.4
294130	771	21.015481396276	0.4
294130	1133	21.719446023526	0.7
294131	254	20.212	2
294131	548	20.621881041427	3
294131	675	20.827483864678	1
294131	1032	21.439792747403	5
294132	254	20.212	0.59999999403954
294132	548	20.621881041427	0.39999997615814
294132	675	20.827483864678	0.85714285075665
294132	1032	21.439792747403	0.6875
294133	254	20.212	0.2
294133	548	20.621881041427	0.4
294133	675	20.827483864678	0.2
294133	1032	21.439792747403	0.6
294134	330	20.313	3
294134	1088	21.613	12
294135	330	20.313	0.39999997615814
294135	1088	21.613	0.36842107772827
294136	330	20.313	0.3
294136	1088	21.613	1.3
294137	335	20.314	3
294137	891	21.214	8
294138	335	20.314	0.39999997615814
294138	891	21.214	0.19999998807907
294139	335	20.314	0.3
294139	891	21.214	0.9
294140	340	20.315	3
294140	654	20.815	4
294140	1009	21.421168535214	5
294140	1264	22.12927135043	6
294140	1303	22.334616986079	1
294141	340	20.315	0.39999997615814
294141	654	20.815	0.33333331346512
294141	1009	21.421168535214	0.6875
294141	1264	22.12927135043	0.8125
294141	1303	22.334616986079	0.97058823518455
294142	340	20.315	0.3
294142	654	20.815	0.5
294142	1009	21.421168535214	0.6
294142	1264	22.12927135043	0.7
294142	1303	22.334616986079	0.2
294143	67	20.016	0
294143	604	20.722110101579	6
294143	917	21.229581396312	4
294143	1156	21.73902802088	4
294144	67	20.016	1
294144	604	20.722110101579	0
294144	917	21.229581396312	0.66666665673256
294144	1156	21.73902802088	0.83333332836628
294145	67	20.016	0
294145	604	20.722110101579	0.7
294145	917	21.229581396312	0.5
294145	1156	21.73902802088	0.5
294146	346	20.317	3
294146	540	20.617	2
294146	1002	21.418915622649	7
294146	1211	21.927529136354	4
294147	346	20.317	0.39999997615814
294147	540	20.617	0.59999999403954
294147	1002	21.418915622649	0.53333333134651
294147	1211	21.927529136354	0.85185185074806
294148	346	20.317	0.3
294148	540	20.617	0.3
294148	1002	21.418915622649	0.8
294148	1211	21.927529136354	0.5
294149	415	20.418	4
294149	722	20.918	4
294149	904	21.225104737781	2
294149	1069	21.537617081839	2
294150	415	20.418	0.19999998807907
294150	722	20.918	0.42857140302658
294150	904	21.225104737781	0.81818181276321
294150	1069	21.537617081839	0.88888888806105
294151	415	20.418	0.4
294151	722	20.918	0.5
294151	904	21.225104737781	0.3
294151	1069	21.537617081839	0.3
294152	420	20.419	4
294152	1004	21.419	9
294153	420	20.419	0.19999998807907
294153	1004	21.419	0.39999997615814
294154	420	20.419	0.4
294154	1004	21.419	1
294155	185	20.12	1
294155	597	20.72	5
294155	1013	21.42587789518	6
294155	1146	21.731872733872	2
294155	1270	22.135171310512	3
294156	185	20.12	0.79999999701977
294156	597	20.72	0.16666668653488
294156	1013	21.42587789518	0.625
294156	1146	21.731872733872	0.91304347664118
294156	1270	22.135171310512	0.90625
294157	185	20.12	0.1
294157	597	20.72	0.6
294157	1013	21.42587789518	0.7
294157	1146	21.731872733872	0.3
294157	1270	22.135171310512	0.4
294158	478	20.521	5
294158	1237	22.021	14
294159	478	20.521	0
294159	1237	22.021	0.53333333134651
294160	478	20.521	0.5
294160	1237	22.021	1.5
294161	357	20.322	3
294161	958	21.322	9
294161	1144	21.731192037198	3
294162	357	20.322	0.39999997615814
294162	958	21.322	0.35714286565781
294162	1144	21.731192037198	0.86363635957241
294163	357	20.322	0.3
294163	958	21.322	1
294163	1144	21.731192037198	0.4
294164	193	20.123	1
294164	869	21.136846897834	9
294164	983	21.343656970226	1
294164	1251	22.048609335361	6
294164	1337	22.457626124398	3
294164	1409	23.065487372799	5
294165	193	20.123	0.79999999701977
294165	869	21.136846897834	0.10000002384186
294165	983	21.343656970226	0.92857142537832
294165	1251	22.048609335361	0.80645161867142
294165	1337	22.457626124398	0.91891892254353
294165	1409	23.065487372799	0.875
294166	193	20.123	0.1
294166	869	21.136846897834	1
294166	983	21.343656970226	0.2
294166	1251	22.048609335361	0.7
294166	1337	22.457626124398	0.4
294166	1409	23.065487372799	0.6
294167	431	20.424	4
294167	1011	21.424	9
294167	1209	21.927187585656	4
294168	431	20.424	0.19999998807907
294168	1011	21.424	0.4375
294168	1209	21.927187585656	0.85185185074806
294169	431	20.424	0.4
294169	1011	21.424	1
294169	1209	21.927187585656	0.5
294170	273	20.225	2
294170	669	20.825	5
294170	907	21.226136950526	3
294170	1262	22.126919204403	8
294171	273	20.225	0.59999999403954
294171	669	20.825	0.28571426868439
294171	907	21.226136950526	0.72727271914482
294171	1262	22.126919204403	0.74193549156189
294172	273	20.225	0.2
294172	669	20.825	0.6
294172	907	21.226136950526	0.4
294172	1262	22.126919204403	0.9
294173	278	20.226	2
294173	736	20.926	6
294173	878	21.140745874607	1
294173	1078	21.550046381343	3
294173	1197	21.854616300416	2
294173	1314	22.359076140151	4
294174	278	20.226	0.59999999403954
294174	736	20.926	0.14285713434219
294174	878	21.140745874607	0.89999999850988
294174	1078	21.550046381343	0.84210526943207
294174	1197	21.854616300416	0.92307692021132
294174	1314	22.359076140151	0.88571428507566
294175	278	20.226	0.2
294175	736	20.926	0.7
294175	878	21.140745874607	0.2
294175	1078	21.550046381343	0.4
294175	1197	21.854616300416	0.3
294175	1314	22.359076140151	0.5
294176	366	20.327	3
294176	792	21.027	6
294176	965	21.328309300758	2
294176	1110	21.634339115635	2
294176	1184	21.84067877099	1
294176	1329	22.443722087515	5
294176	1389	22.852018049631	3
294176	1419	23.154329674855	2
294177	366	20.327	0.39999997615814
294177	792	21.027	0.25
294177	965	21.328309300758	0.85714285075665
294177	1110	21.634339115635	0.90476190298796
294177	1184	21.84067877099	0.96153846010566
294177	1329	22.443722087515	0.86486487090588
294177	1389	22.852018049631	0.92499999701977
294177	1419	23.154329674855	0.95121951401234
294178	366	20.327	0.3
294178	792	21.027	0.7
294178	965	21.328309300758	0.3
294178	1110	21.634339115635	0.3
294178	1184	21.84067877099	0.2
294178	1329	22.443722087515	0.6
294178	1389	22.852018049631	0.4
294178	1419	23.154329674855	0.3
294179	203	20.128	1
294179	854	21.128	9
294179	1018	21.429168513362	2
294179	1152	21.735180531638	2
294180	203	20.128	0.79999999701977
294180	854	21.128	0.10000002384186
294180	1018	21.429168513362	0.875
294180	1152	21.735180531638	0.91304347664118
294181	203	20.128	0.1
294181	854	21.128	1
294181	1018	21.429168513362	0.3
294181	1152	21.735180531638	0.3
294182	111	20.029	0
294182	490	20.530012001018	4
294182	809	21.039288645335	4
294182	933	21.245614656151	1
294183	111	20.029	1
294183	490	20.530012001018	0.19999998807907
294183	809	21.039288645335	0.5
294183	933	21.245614656151	0.91666666418314
294184	111	20.029	0
294184	490	20.530012001018	0.5
294184	809	21.039288645335	0.5
294184	933	21.245614656151	0.2
294185	864	21.13	11
294185	1104	21.63	4
294185	1283	22.233733858251	5
294185	1346	22.537979373206	2
294185	1384	22.841630177149	2
294185	1414	23.14920660746	2
294185	1436	23.452211649934	2
294185	1456	23.857944915214	3
294186	864	21.13	-0.10000002384186
294186	1104	21.63	0.80952380597591
294186	1283	22.233733858251	0.84848484396935
294186	1346	22.537979373206	0.94594594463706
294186	1384	22.841630177149	0.94999999925494
294186	1414	23.14920660746	0.95121951401234
294186	1436	23.452211649934	0.95238095149398
294186	1456	23.857944915214	0.93023255467415
294187	864	21.13	1.1
294187	1104	21.63	0.5
294187	1283	22.233733858251	0.6
294187	1346	22.537979373206	0.3
294187	1384	22.841630177149	0.3
294187	1414	23.14920660746	0.3
294187	1436	23.452211649934	0.3
294187	1456	23.857944915214	0.4
294188	374	20.331	3
294188	799	21.031	6
294188	1162	21.743882249477	6
294188	1226	21.94866120977	1
294188	1339	22.460615205894	4
294188	1380	22.777516379221	2
294189	374	20.331	0.39999997615814
294189	799	21.031	0.25
294189	1162	21.743882249477	0.76923076808453
294189	1226	21.94866120977	0.9666666649282
294189	1339	22.460615205894	0.89189188927412
294189	1380	22.777516379221	0.94871794804931
294190	374	20.331	0.3
294190	799	21.031	0.7
294190	1162	21.743882249477	0.7
294190	1226	21.94866120977	0.2
294190	1339	22.460615205894	0.5
294190	1380	22.777516379221	0.3
294191	496	20.532	5
294191	1266	22.132	15
294191	1327	22.44176279563	2
294191	1398	22.950120100185	4
294191	1430	23.357576041656	3
294191	1461	24.078178801442	6
294191	1469	24.682830985841	5
294192	496	20.532	0
294192	1266	22.132	0.53125
294192	1327	22.44176279563	0.94594594463706
294192	1398	22.950120100185	0.89999999850988
294192	1430	23.357576041656	0.92857142537832
294192	1461	24.078178801442	0.86363635957241
294192	1469	24.682830985841	0.88636363297701
294193	496	20.532	0.5
294193	1266	22.132	1.6
294193	1327	22.44176279563	0.3
294193	1398	22.950120100185	0.5
294193	1430	23.357576041656	0.4
294193	1461	24.078178801442	0.7
294193	1469	24.682830985841	0.6
294194	289	20.233	2
294194	561	20.633	3
294194	816	21.042768869024	3
294194	991	21.351392242098	2
294195	289	20.233	0.59999999403954
294195	561	20.633	0.39999997615814
294195	816	21.042768869024	0.66666665673256
294195	991	21.351392242098	0.85714285075665
294196	289	20.233	0.2
294196	561	20.633	0.4
294196	816	21.042768869024	0.4
294196	991	21.351392242098	0.3
294197	294	20.234	2
294197	563	20.634	3
294197	1154	21.735933257882	10
294198	294	20.234	0.59999999403954
294198	563	20.634	0.39999997615814
294198	1154	21.735933257882	0.58333334326744
294199	294	20.234	0.2
294199	563	20.634	0.4
294199	1154	21.735933257882	1.1
294200	299	20.235	2
294200	617	20.735	4
294200	812	21.039857691172	2
294201	299	20.235	0.59999999403954
294201	617	20.735	0.33333331346512
294201	812	21.039857691172	0.75
294202	299	20.235	0.2
294202	617	20.735	0.5
294202	812	21.039857691172	0.3
294203	688	20.836	8
294203	1116	21.636	7
294203	1244	22.041557437336	3
294203	1331	22.444673785163	3
294203	1375	22.752626711314	2
294203	1438	23.453279500224	6
294204	688	20.836	-0.14285719394684
294204	1116	21.636	0.66666665673256
294204	1244	22.041557437336	0.90322580933571
294204	1331	22.444673785163	0.91891892254353
294204	1375	22.752626711314	0.9473684206605
294204	1438	23.453279500224	0.85714285075665
294205	688	20.836	0.8
294205	1116	21.636	0.8
294205	1244	22.041557437336	0.4
294205	1331	22.444673785163	0.4
294205	1375	22.752626711314	0.3
294205	1438	23.453279500224	0.7
294206	874	21.137	11
294206	977	21.337	1
294206	1075	21.546563362773	1
294206	1194	21.852418740275	2
294206	1291	22.25349753793	3
294207	874	21.137	-0.10000002384186
294207	977	21.337	0.92857142537832
294207	1075	21.546563362773	0.9473684206605
294207	1194	21.852418740275	0.92307692021132
294207	1291	22.25349753793	0.90909090638161
294208	874	21.137	1.1
294208	977	21.337	0.2
294208	1075	21.546563362773	0.2
294208	1194	21.852418740275	0.3
294208	1291	22.25349753793	0.4
294209	308	20.238	2
294209	807	21.038	7
294210	308	20.238	0.59999999403954
294210	807	21.038	0.125
294211	308	20.238	0.2
294211	807	21.038	0.8
294212	388	20.339	3
294212	512	20.547343118026	1
294212	759	20.958143573582	3
294213	388	20.339	0.39999997615814
294213	512	20.547343118026	0.79999999701977
294213	759	20.958143573582	0.5714285671711
294214	388	20.339	0.3
294214	512	20.547343118026	0.2
294214	759	20.958143573582	0.4
294215	629	20.74	7
294215	928	21.24	4
294215	1035	21.443831561119	1
294215	1247	22.044416954884	5
294215	1310	22.347580825682	2
294215	1372	22.750287108458	3
294216	629	20.74	-0.16666662693024
294216	928	21.24	0.66666665673256
294216	1035	21.443831561119	0.9411764703691
294216	1247	22.044416954884	0.83870968222618
294216	1310	22.347580825682	0.94285714253783
294216	1372	22.750287108458	0.92105263471603
294217	629	20.74	0.7
294217	928	21.24	0.5
294217	1035	21.443831561119	0.2
294217	1247	22.044416954884	0.6
294217	1310	22.347580825682	0.3
294217	1372	22.750287108458	0.4
297098	10	20	0
297098	11	20.001	0
297098	14	20.002	1
297098	17	20.003	2
297098	20	20.004	3
297098	23	20.005	4
297098	26	20.006	5
297098	33	20.007	6
297098	37	20.008	7
297098	40	20.009	8
297098	43	20.01	9
297098	46	20.011	10
297098	49	20.012	11
297098	52	20.013	12
297098	55	20.014	13
297098	58	20.015	14
297098	61	20.016	15
297098	68	20.017	16
297098	71	20.018	17
297098	74	20.019	18
297098	77	20.02	19
297098	80	20.021	20
297098	83	20.022	21
297098	87	20.023	22
297098	90	20.024	23
297098	93	20.025	24
297098	96	20.026	25
297098	99	20.027	26
297098	102	20.028	27
297098	105	20.029	28
297098	112	20.03	29
297098	116	20.031	30
297098	119	20.032	31
297098	122	20.033	32
297098	125	20.034	33
297098	128	20.035	34
297098	131	20.036	35
297098	134	20.037	36
297098	137	20.038	37
297098	140	20.039	38
297098	143	20.04	39
