file 61770 1369674128                                           
version 2
run Stability2-164-20130526-00:51:59-26640
attr configname Stability2
attr datetime 20130526-00:51:59
attr experiment Stability2
attr inifile omnetpp.ini
attr iterationvars $0=100
attr iterationvars2 "$0=100, $repetition=14"
attr measurement $0=100
attr network Network
attr processid 26640
attr repetition 14
attr replication #14
attr resultdir results
attr runnumber 164
attr seedset 164
vector 495164  Network.churner  inGoingSizeSig:vector  ETV
495164	59696 2074 11 364 20 20.1 101 0 99 4950 328350
vector 492170  Network.dyn_peer[2]  lookupHopsSig:vector  ETV
492170	20447 80 24 3030 20.003 22.129166203195 3 0 11 19 185
vector 492171  Network.dyn_peer[2]  lookupStabilitySig:vector  ETV
492171	20527 98 24 3030 20.003 22.129166203195 3 0.083333313465118 1 1.8333333134651 1.5694444411331
vector 492172  Network.dyn_peer[2]  lookupTimeSig:vector  ETV
492172	20625 83 24 3030 20.003 22.129166203195 3 0 1.2 2.1 2.25
vector 492176  Network.dyn_peer[4]  lookupHopsSig:vector  ETV
492176	21057 100 35 2696 20.005 21.820494933065 4 0 9 15 107
vector 492177  Network.dyn_peer[4]  lookupStabilitySig:vector  ETV
492177	21157 146 35 2696 20.005 21.820494933065 4 -0.28571426868439 1 2.4226190671325 2.5486465355301
vector 492178  Network.dyn_peer[4]  lookupTimeSig:vector  ETV
492178	21303 104 35 2696 20.005 21.820494933065 4 0 1 1.8 1.4
vector 492194  Network.dyn_peer[10]  lookupHopsSig:vector  ETV
492194	23327 139 60 3942 20.011 23.361644162175 5 0 18 29 407
vector 492195  Network.dyn_peer[10]  lookupStabilitySig:vector  ETV
492195	23466 198 60 3942 20.011 23.361644162175 5 0.48571425676346 1 4.1438311394304 3.6064387681016
vector 492196  Network.dyn_peer[10]  lookupTimeSig:vector  ETV
492196	23664 144 60 3942 20.011 23.361644162175 5 0 1.9 3.3 4.69
vector 492197  Network.dyn_peer[11]  lookupHopsSig:vector  ETV
492197	23808 108 67 1630 20.012 21.025488746532 4 0 3 7 17
vector 492198  Network.dyn_peer[11]  lookupStabilitySig:vector  ETV
492198	23916 153 67 1630 20.012 21.025488746532 4 0.39999997615814 1 2.714285671711 2.0302040371603
vector 492199  Network.dyn_peer[11]  lookupTimeSig:vector  ETV
492199	24069 114 67 1630 20.012 21.025488746532 4 0 0.4 1 0.34
vector 492200  Network.dyn_peer[12]  lookupHopsSig:vector  ETV
492200	24183 130 75 3657 20.013 22.818958381132 5 0 8 22 138
vector 492201  Network.dyn_peer[12]  lookupStabilitySig:vector  ETV
492201	24313 191 75 3657 20.013 22.818958381132 5 -0.16666662693024 1 3.3964633047581 3.251754043759
vector 492202  Network.dyn_peer[12]  lookupTimeSig:vector  ETV
492202	24504 138 75 3657 20.013 22.818958381132 5 0 0.9 2.6 1.86
vector 492269  Network.dyn_peer[35]  lookupHopsSig:vector  ETV
492269	32456 101 154 2477 20.036 21.643468876476 4 0 6 13 61
vector 492270  Network.dyn_peer[35]  lookupStabilitySig:vector  ETV
492270	32557 147 154 2477 20.036 21.643468876476 4 -0.20000004768372 1 2.2333332598209 2.0677777597639
vector 492271  Network.dyn_peer[35]  lookupTimeSig:vector  ETV
492271	32704 107 154 2477 20.036 21.643468876476 4 0 0.7 1.6 0.9
vector 492344  Network.dyn_peer[60]  lookupHopsSig:vector  ETV
492344	42532 80 235 3189 20.061 22.27285215683 3 0 11 20 202
vector 492345  Network.dyn_peer[60]  lookupStabilitySig:vector  ETV
492345	42612 99 235 3189 20.061 22.27285215683 3 -0.125 1 1.592948704958 1.5310753429508
vector 492346  Network.dyn_peer[60]  lookupTimeSig:vector  ETV
492346	42711 81 235 3189 20.061 22.27285215683 3 0 1.2 2.2 2.44
vector 492383  Network.dyn_peer[73]  lookupHopsSig:vector  ETV
492383	47125 102 280 3756 20.074 22.980596015762 4 0 15 26 286
vector 492384  Network.dyn_peer[73]  lookupStabilitySig:vector  ETV
492384	47227 119 280 3756 20.074 22.980596015762 4 0 1 2.5392857119441 2.2265433630651
vector 492385  Network.dyn_peer[73]  lookupTimeSig:vector  ETV
492385	47346 107 280 3756 20.074 22.980596015762 4 0 1.6 2.9 3.41
vector 492416  Network.dyn_peer[84]  lookupHopsSig:vector  ETV
492416	51592 131 317 3452 20.085 22.556523254117 5 0 6 17 89
vector 492417  Network.dyn_peer[84]  lookupStabilitySig:vector  ETV
492417	51723 192 317 3452 20.085 22.556523254117 5 -0.20000004768372 1 3.4111110568046 3.3254938345522
vector 492418  Network.dyn_peer[84]  lookupTimeSig:vector  ETV
492418	51915 139 317 3452 20.085 22.556523254117 5 0 0.7 2.1 1.27
vector 492452  Network.dyn_peer[96]  lookupHopsSig:vector  ETV
492452	57294 101 357 2689 20.097 21.815702083853 4 0 8 14 82
vector 492453  Network.dyn_peer[96]  lookupStabilitySig:vector  ETV
492453	57395 147 357 2689 20.097 21.815702083853 4 -0.14285719394684 1 2.4835164248943 2.3468180190335
vector 492454  Network.dyn_peer[96]  lookupTimeSig:vector  ETV
492454	57542 107 357 2689 20.097 21.815702083853 4 0 0.9 1.7 1.13
vector 492212  Network.dyn_peer[16]  lookupHopsSig:vector  ETV
492212	25683 72 387 3338 20.117 22.422957112293 3 1 15 22 262
vector 492213  Network.dyn_peer[16]  lookupStabilitySig:vector  ETV
492213	25755 116 387 3338 20.117 22.422957112293 3 0.16666668653488 0.86666665971279 1.8333333432674 1.4188888786899
vector 492214  Network.dyn_peer[16]  lookupTimeSig:vector  ETV
492214	25871 77 387 3338 20.117 22.422957112293 3 0.1 1.6 2.4 3.06
vector 492227  Network.dyn_peer[21]  lookupHopsSig:vector  ETV
492227	27632 99 397 3138 20.122 22.228404338558 4 1 8 19 115
vector 492228  Network.dyn_peer[21]  lookupStabilitySig:vector  ETV
492228	27731 144 397 3138 20.122 22.228404338558 4 0 0.79999999701977 2.1611111164093 1.5852160536286
vector 492229  Network.dyn_peer[21]  lookupTimeSig:vector  ETV
492229	27875 107 397 3138 20.122 22.228404338558 4 0.1 0.9 2.2 1.54
vector 492233  Network.dyn_peer[23]  lookupHopsSig:vector  ETV
492233	28252 102 403 3042 20.124 22.138579665928 4 1 10 18 138
vector 492234  Network.dyn_peer[23]  lookupStabilitySig:vector  ETV
492234	28354 161 403 3042 20.124 22.138579665928 4 0.16666668653488 0.92307692021132 2.7079254165292 2.1892702589955
vector 492235  Network.dyn_peer[23]  lookupTimeSig:vector  ETV
492235	28515 109 403 3042 20.124 22.138579665928 4 0.1 1.1 2.1 1.75
vector 492242  Network.dyn_peer[26]  lookupHopsSig:vector  ETV
492242	29261 101 412 3662 20.127 22.83725484315 4 1 11 25 211
vector 492243  Network.dyn_peer[26]  lookupStabilitySig:vector  ETV
492243	29362 161 412 3662 20.127 22.83725484315 4 0.083333313465118 0.91803278774023 2.5791438743472 2.0946669047602
vector 492244  Network.dyn_peer[26]  lookupTimeSig:vector  ETV
492244	29523 108 412 3662 20.127 22.83725484315 4 0.1 1.2 2.8 2.62
vector 492335  Network.dyn_peer[57]  lookupHopsSig:vector  ETV
492335	41315 162 448 3993 20.158 23.482221269589 6 1 12 29 217
vector 492336  Network.dyn_peer[57]  lookupStabilitySig:vector  ETV
492336	41477 252 448 3993 20.158 23.482221269589 6 0.076923072338104 0.93220338970423 4.5381535291672 3.997918100387
vector 492337  Network.dyn_peer[57]  lookupTimeSig:vector  ETV
492337	41729 173 448 3993 20.158 23.482221269589 6 0.1 1.3 3.4 2.78
vector 492365  Network.dyn_peer[67]  lookupHopsSig:vector  ETV
492365	45128 42 462 2515 20.168 21.668 2 1 14 15 197
vector 492366  Network.dyn_peer[67]  lookupStabilitySig:vector  ETV
492366	45170 71 462 2515 20.168 21.668 2 0.17647057771683 0.79999999701977 0.9764705747366 0.67114186003134
vector 492367  Network.dyn_peer[67]  lookupTimeSig:vector  ETV
492367	45241 45 462 2515 20.168 21.668 2 0.1 1.5 1.6 2.26
vector 492413  Network.dyn_peer[83]  lookupHopsSig:vector  ETV
492413	51315 81 482 3102 20.184 22.188378195005 3 1 10 19 165
vector 492414  Network.dyn_peer[83]  lookupStabilitySig:vector  ETV
492414	51396 110 482 3102 20.184 22.188378195005 3 0 0.79999999701977 1.5142856985331 1.150204058618
vector 492415  Network.dyn_peer[83]  lookupTimeSig:vector  ETV
492415	51506 86 482 3102 20.184 22.188378195005 3 0.1 1.1 2.1 2.03
vector 492419  Network.dyn_peer[85]  lookupHopsSig:vector  ETV
492419	52054 222 489 4545 20.186 26.722267099387 8 1 19 59 667
vector 492420  Network.dyn_peer[85]  lookupStabilitySig:vector  ETV
492420	52276 340 489 4545 20.186 26.722267099387 8 0.45714282989502 0.96629213541746 6.8183649256826 6.0104576544687
vector 492421  Network.dyn_peer[85]  lookupTimeSig:vector  ETV
492421	52616 234 489 4545 20.186 26.722267099387 8 0.1 2 6.6 7.9
vector 492449  Network.dyn_peer[95]  lookupHopsSig:vector  ETV
492449	56938 101 504 3079 20.196 22.170314807668 4 1 8 17 105
vector 492450  Network.dyn_peer[95]  lookupStabilitySig:vector  ETV
492450	57039 146 504 3079 20.196 22.170314807668 4 0 0.84615384042263 2.4747252613306 2.0425069213777
vector 492451  Network.dyn_peer[95]  lookupTimeSig:vector  ETV
492451	57185 109 504 3079 20.196 22.170314807668 4 0.1 0.9 2 1.4
vector 492191  Network.dyn_peer[9]  lookupHopsSig:vector  ETV
492191	22965 99 522 3329 20.21 22.416188154215 4 2 9 21 137
vector 492192  Network.dyn_peer[9]  lookupStabilitySig:vector  ETV
492192	23064 158 522 3329 20.21 22.416188154215 4 0.14285713434219 0.7954545468092 2.2306193560362 1.4924460146767
vector 492193  Network.dyn_peer[9]  lookupTimeSig:vector  ETV
492193	23222 105 522 3329 20.21 22.416188154215 4 0.2 1 2.4 1.78
vector 492239  Network.dyn_peer[25]  lookupHopsSig:vector  ETV
492239	28915 102 545 3786 20.226 23.038256377969 4 2 10 27 221
vector 492240  Network.dyn_peer[25]  lookupStabilitySig:vector  ETV
492240	29017 137 545 3786 20.226 23.038256377969 4 0.25 0.91666666418314 2.5166666582227 1.8252777660721
vector 492241  Network.dyn_peer[25]  lookupTimeSig:vector  ETV
492241	29154 107 545 3786 20.226 23.038256377969 4 0.2 1.1 3 2.74
vector 492251  Network.dyn_peer[29]  lookupHopsSig:vector  ETV
492251	30451 70 553 3516 20.23 22.636433782707 3 2 16 24 296
vector 492252  Network.dyn_peer[29]  lookupStabilitySig:vector  ETV
492252	30521 114 553 3516 20.23 22.636433782707 3 0.14285713434219 0.70370370149612 1.4465608298779 0.87560705317925
vector 492253  Network.dyn_peer[29]  lookupTimeSig:vector  ETV
492253	30635 75 553 3516 20.23 22.636433782707 3 0.2 1.7 2.6 3.42
vector 492260  Network.dyn_peer[32]  lookupHopsSig:vector  ETV
492260	31355 101 560 2601 20.233 21.737764081113 4 1 8 14 78
vector 492261  Network.dyn_peer[32]  lookupStabilitySig:vector  ETV
492261	31456 161 560 2601 20.233 21.737764081113 4 0.11111110448837 0.94999999925494 2.4468253813684 1.8921926044028
vector 492262  Network.dyn_peer[32]  lookupTimeSig:vector  ETV
492262	31617 109 560 2601 20.233 21.737764081113 4 0.2 0.9 1.7 1.05
vector 492284  Network.dyn_peer[40]  lookupHopsSig:vector  ETV
492284	34706 161 572 3863 20.241 23.189427268847 6 1 8 26 158
vector 492285  Network.dyn_peer[40]  lookupStabilitySig:vector  ETV
492285	34867 239 572 3863 20.241 23.189427268847 6 0.14285713434219 0.95238095149398 4.2506434805691 3.4796965700694
vector 492286  Network.dyn_peer[40]  lookupTimeSig:vector  ETV
492286	35106 173 572 3863 20.241 23.189427268847 6 0.2 0.9 3.1 2.11
vector 492287  Network.dyn_peer[41]  lookupHopsSig:vector  ETV
492287	35279 131 577 3161 20.242 22.252306788023 5 2 6 18 74
vector 492288  Network.dyn_peer[41]  lookupStabilitySig:vector  ETV
492288	35410 195 577 3161 20.242 22.252306788023 5 0.39999997615814 0.89473684132099 3.234022513032 2.2213830523774
vector 492289  Network.dyn_peer[41]  lookupTimeSig:vector  ETV
492289	35605 141 577 3161 20.242 22.252306788023 5 0.2 0.7 2.2 1.1
vector 492293  Network.dyn_peer[43]  lookupHopsSig:vector  ETV
492293	35891 131 583 4026 20.244 23.57101386341 5 1 12 31 277
vector 492294  Network.dyn_peer[43]  lookupStabilitySig:vector  ETV
492294	36022 205 583 4026 20.244 23.57101386341 5 0.14285713434219 0.98181818239391 3.4603449013084 2.8535447937192
vector 492295  Network.dyn_peer[43]  lookupTimeSig:vector  ETV
492295	36227 140 583 4026 20.244 23.57101386341 5 0.2 1.3 3.5 3.39
vector 492308  Network.dyn_peer[48]  lookupHopsSig:vector  ETV
492308	38825 101 594 2859 20.249 21.960456103791 4 2 7 16 82
vector 492309  Network.dyn_peer[48]  lookupStabilitySig:vector  ETV
492309	38926 161 594 2859 20.249 21.960456103791 4 0.28571426868439 0.79999999701977 2.4443349540234 1.6571379891983
vector 492310  Network.dyn_peer[48]  lookupTimeSig:vector  ETV
492310	39087 109 594 2859 20.249 21.960456103791 4 0.2 0.8 1.9 1.13
vector 492314  Network.dyn_peer[50]  lookupHopsSig:vector  ETV
492314	39557 72 600 3268 20.251 22.352596576746 3 2 16 21 269
vector 492315  Network.dyn_peer[50]  lookupStabilitySig:vector  ETV
492315	39629 115 600 3268 20.251 22.352596576746 3 0.4482758641243 0.92499999701977 1.9732758551836 1.4165762376904
vector 492316  Network.dyn_peer[50]  lookupTimeSig:vector  ETV
492316	39744 77 600 3268 20.251 22.352596576746 3 0.2 1.7 2.3 3.09
vector 492347  Network.dyn_peer[61]  lookupHopsSig:vector  ETV
492347	42792 71 615 1822 20.262 21.162206877184 3 2 5 9 33
vector 492348  Network.dyn_peer[61]  lookupStabilitySig:vector  ETV
492348	42863 116 615 1822 20.262 21.162206877184 3 0.28571426868439 0.81818181276321 1.7038960754871 1.1110541149138
vector 492349  Network.dyn_peer[61]  lookupTimeSig:vector  ETV
492349	42979 77 615 1822 20.262 21.162206877184 3 0.2 0.6 1.1 0.49
vector 492350  Network.dyn_peer[62]  lookupHopsSig:vector  ETV
492350	43056 72 620 2746 20.263 21.866646082356 3 2 11 16 134
vector 492351  Network.dyn_peer[62]  lookupStabilitySig:vector  ETV
492351	43128 116 620 2746 20.263 21.866646082356 3 0.15384614467621 0.88000000268221 1.633846141398 1.1580686337999
vector 492352  Network.dyn_peer[62]  lookupTimeSig:vector  ETV
492352	43244 77 620 2746 20.263 21.866646082356 3 0.2 1.2 1.8 1.64
vector 492386  Network.dyn_peer[74]  lookupHopsSig:vector  ETV
492386	47453 132 637 3761 20.275 22.984069570067 5 2 13 25 211
vector 492387  Network.dyn_peer[74]  lookupStabilitySig:vector  ETV
492387	47585 195 637 3761 20.275 22.984069570067 5 0.27777779102325 0.97142857126892 3.6696609016508 3.0403432603753
vector 492388  Network.dyn_peer[74]  lookupTimeSig:vector  ETV
492388	47780 141 637 3761 20.275 22.984069570067 5 0.2 1.4 2.9 2.61
vector 492167  Network.dyn_peer[1]  lookupHopsSig:vector  ETV
492167	20182 72 668 2687 20.302 21.815155130773 3 2 11 16 134
vector 492168  Network.dyn_peer[1]  lookupStabilitySig:vector  ETV
492168	20254 116 668 2687 20.302 21.815155130773 3 0.15384614467621 0.90476190298796 1.4586080238223 1.0022627182566
vector 492169  Network.dyn_peer[1]  lookupTimeSig:vector  ETV
492169	20370 77 668 2687 20.302 21.815155130773 3 0.3 1.2 1.8 1.62
vector 492179  Network.dyn_peer[5]  lookupHopsSig:vector  ETV
492179	21407 73 676 3578 20.306 22.713496696936 3 3 12 25 253
vector 492180  Network.dyn_peer[5]  lookupStabilitySig:vector  ETV
492180	21480 115 676 3578 20.306 22.713496696936 3 0.19999998807907 0.8214285671711 1.4214285314083 0.87474486712291
vector 492181  Network.dyn_peer[5]  lookupTimeSig:vector  ETV
492181	21595 77 676 3578 20.306 22.713496696936 3 0.3 1.3 2.7 2.99
vector 492188  Network.dyn_peer[8]  lookupHopsSig:vector  ETV
492188	22713 72 683 3504 20.309 22.619913149253 3 3 18 24 342
vector 492189  Network.dyn_peer[8]  lookupStabilitySig:vector  ETV
492189	22785 103 683 3504 20.309 22.619913149253 3 0.39999997615814 0.94230769202113 1.8423076681793 1.2979437673687
vector 492190  Network.dyn_peer[8]  lookupTimeSig:vector  ETV
492190	22888 77 683 3504 20.309 22.619913149253 3 0.3 1.9 2.6 3.86
vector 492236  Network.dyn_peer[24]  lookupHopsSig:vector  ETV
492236	28624 80 706 2592 20.325 21.729225278692 3 3 6 15 81
vector 492237  Network.dyn_peer[24]  lookupStabilitySig:vector  ETV
492237	28704 125 706 2592 20.325 21.729225278692 3 0.14285713434219 0.68421053886414 1.2270676493645 0.64855220325173
vector 492238  Network.dyn_peer[24]  lookupTimeSig:vector  ETV
492238	28829 86 706 2592 20.325 21.729225278692 3 0.3 0.7 1.7 1.07
vector 492266  Network.dyn_peer[34]  lookupHopsSig:vector  ETV
492266	32088 102 721 3972 20.335 23.451822956266 4 3 15 31 331
vector 492267  Network.dyn_peer[34]  lookupStabilitySig:vector  ETV
492267	32190 159 721 3972 20.335 23.451822956266 4 0.39999997615814 0.886075951159 2.3885603621602 1.5829627940931
vector 492268  Network.dyn_peer[34]  lookupTimeSig:vector  ETV
492268	32349 107 721 3972 20.335 23.451822956266 4 0.3 1.6 3.4 3.9
vector 492338  Network.dyn_peer[58]  lookupHopsSig:vector  ETV
492338	41902 102 751 3692 20.359 22.866475139439 4 2 14 25 245
vector 492339  Network.dyn_peer[58]  lookupStabilitySig:vector  ETV
492339	42004 161 751 3692 20.359 22.866475139439 4 0.39999997615814 0.90769230574369 2.5076922699809 1.7039052885277
vector 492340  Network.dyn_peer[58]  lookupTimeSig:vector  ETV
492340	42165 109 751 3692 20.359 22.866475139439 4 0.3 1.5 2.8 2.92
vector 492401  Network.dyn_peer[79]  lookupHopsSig:vector  ETV
492401	49505 218 776 4540 20.38 26.611908655208 8 3 17 58 554
vector 492402  Network.dyn_peer[79]  lookupStabilitySig:vector  ETV
492402	49723 337 776 4540 20.38 26.611908655208 8 0.39999997615814 0.95098039135337 6.4833861403167 5.5974007306657
vector 492403  Network.dyn_peer[79]  lookupTimeSig:vector  ETV
492403	50060 231 776 4540 20.38 26.611908655208 8 0.3 1.8 6.5 6.71
vector 492407  Network.dyn_peer[81]  lookupHopsSig:vector  ETV
492407	50653 109 782 2783 20.382 21.893797313387 4 1 6 15 71
vector 492408  Network.dyn_peer[81]  lookupStabilitySig:vector  ETV
492408	50762 169 782 2783 20.382 21.893797313387 4 0.39999997615814 0.79999999701977 2.5525640845299 1.7319937400936
vector 492409  Network.dyn_peer[81]  lookupTimeSig:vector  ETV
492409	50931 117 782 2783 20.382 21.893797313387 4 0.2 0.7 1.8 0.98
vector 492437  Network.dyn_peer[91]  lookupHopsSig:vector  ETV
492437	54444 101 797 3316 20.392 22.396692812226 4 3 9 20 124
vector 492438  Network.dyn_peer[91]  lookupStabilitySig:vector  ETV
492438	54545 147 797 3316 20.392 22.396692812226 4 0.39999997615814 0.88372092694044 2.3551494702697 1.5174932650182
vector 492439  Network.dyn_peer[91]  lookupTimeSig:vector  ETV
492439	54692 107 797 3316 20.392 22.396692812226 4 0.3 1 2.3 1.61
vector 492182  Network.dyn_peer[6]  lookupHopsSig:vector  ETV
492182	21672 72 816 2678 20.407 21.807273251752 3 2 10 16 120
vector 492183  Network.dyn_peer[6]  lookupStabilitySig:vector  ETV
492183	21744 116 816 2678 20.407 21.807273251752 3 0.19999998807907 0.90476190298796 1.3355311080813 0.91184852785142
vector 492184  Network.dyn_peer[6]  lookupTimeSig:vector  ETV
492184	21860 77 816 2678 20.407 21.807273251752 3 0.3 1.1 1.8 1.46
vector 492206  Network.dyn_peer[14]  lookupHopsSig:vector  ETV
492206	24802 102 829 3922 20.415 23.321342061734 4 4 13 30 274
vector 492207  Network.dyn_peer[14]  lookupStabilitySig:vector  ETV
492207	24904 161 829 3922 20.415 23.321342061734 4 0.19999998807907 0.89333333075047 2.0901586860418 1.4253560728408
vector 492208  Network.dyn_peer[14]  lookupTimeSig:vector  ETV
492208	25065 109 829 3922 20.415 23.321342061734 4 0.4 1.4 3.3 3.29
vector 492221  Network.dyn_peer[19]  lookupHopsSig:vector  ETV
492221	27108 69 839 2583 20.42 21.725732489675 3 2 9 15 101
vector 492222  Network.dyn_peer[19]  lookupStabilitySig:vector  ETV
492222	27177 114 839 2583 20.42 21.725732489675 3 0.19999998807907 0.88888888806105 1.3965811654925 0.92479799547697
vector 492223  Network.dyn_peer[19]  lookupTimeSig:vector  ETV
492223	27291 73 839 2583 20.42 21.725732489675 3 0.3 1 1.7 1.25
vector 492323  Network.dyn_peer[53]  lookupHopsSig:vector  ETV
492323	40250 72 885 3369 20.454 22.457043015883 3 4 13 22 210
vector 492324  Network.dyn_peer[53]  lookupStabilitySig:vector  ETV
492324	40322 116 885 3369 20.454 22.457043015883 3 0.19999998807907 0.89130435138941 1.571304358542 1.0648234603479
vector 492325  Network.dyn_peer[53]  lookupTimeSig:vector  ETV
492325	40438 77 885 3369 20.454 22.457043015883 3 0.4 1.4 2.4 2.48
vector 492332  Network.dyn_peer[56]  lookupHopsSig:vector  ETV
492332	40946 101 892 3455 20.457 22.558700880845 4 4 9 22 138
vector 492333  Network.dyn_peer[56]  lookupStabilitySig:vector  ETV
492333	41047 161 892 3455 20.457 22.558700880845 4 0.19999998807907 0.89583333581686 2.2655945792794 1.6803548079132
vector 492334  Network.dyn_peer[56]  lookupTimeSig:vector  ETV
492334	41208 107 892 3455 20.457 22.558700880845 4 0.4 1 2.5 1.77
vector 492341  Network.dyn_peer[59]  lookupHopsSig:vector  ETV
492341	42274 71 899 4024 20.46 23.568544067465 3 4 19 33 477
vector 492342  Network.dyn_peer[59]  lookupStabilitySig:vector  ETV
492342	42345 114 899 4024 20.46 23.568544067465 3 0.19999998807907 0.88095238059759 1.6766970381141 1.1709888032753
vector 492343  Network.dyn_peer[59]  lookupTimeSig:vector  ETV
492343	42459 73 899 4024 20.46 23.568544067465 3 0.4 2 3.5 5.37
vector 492164  Network.dyn_peer[0]  lookupHopsSig:vector  ETV
492164	19830 101 944 3960 20.501 23.40251491499 4 3 14 31 311
vector 492165  Network.dyn_peer[0]  lookupStabilitySig:vector  ETV
492165	19931 145 944 3960 20.501 23.40251491499 4 0 0.93181817978621 2.349766895175 1.9352739401895
vector 492166  Network.dyn_peer[0]  lookupTimeSig:vector  ETV
492166	20076 106 944 3960 20.501 23.40251491499 4 0.4 1.5 3.4 3.66
vector 492245  Network.dyn_peer[27]  lookupHopsSig:vector  ETV
492245	29631 71 978 1784 20.528 21.140672122876 3 2 5 9 33
vector 492246  Network.dyn_peer[27]  lookupStabilitySig:vector  ETV
492246	29702 101 978 1784 20.528 21.140672122876 3 0 0.77777777612209 1.4920634776354 1.1151423324158
vector 492247  Network.dyn_peer[27]  lookupTimeSig:vector  ETV
492247	29803 77 978 1784 20.528 21.140672122876 3 0.3 0.5 1.1 0.43
vector 492290  Network.dyn_peer[42]  lookupHopsSig:vector  ETV
492290	35746 42 1000 2076 20.543 21.343 2 5 7 12 74
vector 492291  Network.dyn_peer[42]  lookupStabilitySig:vector  ETV
492291	35788 57 1000 2076 20.543 21.343 2 0 0.41666668653488 0.41666668653488 0.17361112766796
vector 492292  Network.dyn_peer[42]  lookupTimeSig:vector  ETV
492292	35845 46 1000 2076 20.543 21.343 2 0.5 0.8 1.3 0.89
vector 492320  Network.dyn_peer[52]  lookupHopsSig:vector  ETV
492320	40115 43 1014 2490 20.553 21.653 2 5 10 15 125
vector 492321  Network.dyn_peer[52]  lookupStabilitySig:vector  ETV
492321	40158 46 1014 2490 20.553 21.653 2 0 0.375 0.375 0.140625
vector 492322  Network.dyn_peer[52]  lookupTimeSig:vector  ETV
492322	40204 46 1014 2490 20.553 21.653 2 0.5 1.1 1.6 1.46
vector 492353  Network.dyn_peer[63]  lookupHopsSig:vector  ETV
492353	43321 102 1029 3470 20.564 22.572419346604 4 2 9 22 146
vector 492354  Network.dyn_peer[63]  lookupStabilitySig:vector  ETV
492354	43423 147 1029 3470 20.564 22.572419346604 4 0 0.88000000268221 2.2342856898904 1.6942040497965
vector 492355  Network.dyn_peer[63]  lookupTimeSig:vector  ETV
492355	43570 108 1029 3470 20.564 22.572419346604 4 0.3 1 2.5 1.83
vector 492272  Network.dyn_peer[36]  lookupHopsSig:vector  ETV
492272	32811 132 1112 3681 20.637 22.851443846206 5 2 8 24 144
vector 492273  Network.dyn_peer[36]  lookupStabilitySig:vector  ETV
492273	32943 195 1112 3681 20.637 22.851443846206 5 -0.20000004768372 0.96825396642089 2.9682539068162 2.673071297787
vector 492274  Network.dyn_peer[36]  lookupTimeSig:vector  ETV
492274	33138 142 1112 3681 20.637 22.851443846206 5 0.3 0.9 2.8 1.84
vector 492278  Network.dyn_peer[38]  lookupHopsSig:vector  ETV
492278	33548 102 1118 2835 20.639 21.946378800228 4 1 6 16 82
vector 492279  Network.dyn_peer[38]  lookupStabilitySig:vector  ETV
492279	33650 150 1118 2835 20.639 21.946378800228 4 -0.20000004768372 0.92857142537832 2.1214285194874 1.949438786753
vector 492280  Network.dyn_peer[38]  lookupTimeSig:vector  ETV
492280	33800 110 1118 2835 20.639 21.946378800228 4 0.2 0.7 1.9 1.05
vector 492311  Network.dyn_peer[49]  lookupHopsSig:vector  ETV
492311	39196 100 1136 3690 20.65 22.863638270869 4 5 8 25 161
vector 492312  Network.dyn_peer[49]  lookupStabilitySig:vector  ETV
492312	39296 153 1136 3690 20.65 22.863638270869 4 -0.20000004768372 0.921875 2.0552082806826 1.8116155266629
vector 492313  Network.dyn_peer[49]  lookupTimeSig:vector  ETV
492313	39449 108 1136 3690 20.65 22.863638270869 4 0.6 0.9 2.8 2.02
vector 492359  Network.dyn_peer[65]  lookupHopsSig:vector  ETV
492359	44179 72 1158 3468 20.666 22.571178119097 3 6 9 23 181
vector 492360  Network.dyn_peer[65]  lookupStabilitySig:vector  ETV
492360	44251 118 1158 3468 20.666 22.571178119097 3 -0.20000004768372 0.83673469722271 1.1073228567839 0.96157823340781
vector 492361  Network.dyn_peer[65]  lookupTimeSig:vector  ETV
492361	44369 76 1158 3468 20.666 22.571178119097 3 0.6 1 2.5 2.17
vector 492215  Network.dyn_peer[17]  lookupHopsSig:vector  ETV
492215	25948 42 1219 2306 20.718 21.518 2 7 7 14 98
vector 492216  Network.dyn_peer[17]  lookupStabilitySig:vector  ETV
492216	25990 73 1219 2306 20.718 21.518 2 -0.39999997615814 0.46153843402863 0.06153845787049 0.37301770701211
vector 492217  Network.dyn_peer[17]  lookupTimeSig:vector  ETV
492217	26063 46 1219 2306 20.718 21.518 2 0.7 0.8 1.5 1.13
vector 492263  Network.dyn_peer[33]  lookupHopsSig:vector  ETV
492263	31726 102 1244 3151 20.734 22.241694938876 4 2 7 19 111
vector 492264  Network.dyn_peer[33]  lookupStabilitySig:vector  ETV
492264	31828 150 1244 3151 20.734 22.241694938876 4 -0.39999997615814 0.92000000178814 1.9389189481735 2.1008119704253
vector 492265  Network.dyn_peer[33]  lookupTimeSig:vector  ETV
492265	31978 110 1244 3151 20.734 22.241694938876 4 0.3 0.8 2.2 1.38
vector 492326  Network.dyn_peer[54]  lookupHopsSig:vector  ETV
492326	40515 74 1274 3979 20.755 23.455694303247 3 7 14 32 366
vector 492327  Network.dyn_peer[54]  lookupStabilitySig:vector  ETV
492327	40589 118 1274 3979 20.755 23.455694303247 3 -0.39999997615814 0.86249999701977 1.1035256534815 1.3148200874613
vector 492328  Network.dyn_peer[54]  lookupTimeSig:vector  ETV
492328	40707 78 1274 3979 20.755 23.455694303247 3 0.7 1.5 3.4 4.18
vector 492440  Network.dyn_peer[92]  lookupHopsSig:vector  ETV
492440	54799 251 1319 4381 20.793 25.025835339248 9 2 7 41 225
vector 492441  Network.dyn_peer[92]  lookupStabilitySig:vector  ETV
492441	55050 374 1319 4381 20.793 25.025835339248 9 -0.16666662693024 0.97260273993015 7.0255661346018 6.5499640751975
vector 492442  Network.dyn_peer[92]  lookupTimeSig:vector  ETV
492442	55424 269 1319 4381 20.793 25.025835339248 9 0.3 0.8 4.9 3.01
vector 492281  Network.dyn_peer[39]  lookupHopsSig:vector  ETV
492281	33910 220 1379 4330 20.84 24.766372928468 8 2 8 40 236
vector 492282  Network.dyn_peer[39]  lookupStabilitySig:vector  ETV
492282	34130 340 1379 4330 20.84 24.766372928468 8 -0.14285719394684 0.97752808965743 6.00433399342 5.5330889064353
vector 492283  Network.dyn_peer[39]  lookupTimeSig:vector  ETV
492283	34470 236 1379 4330 20.84 24.766372928468 8 0.3 0.8 4.7 3.07
vector 492329  Network.dyn_peer[55]  lookupHopsSig:vector  ETV
492329	40785 43 1406 2962 20.856 22.056 2 8 11 19 185
vector 492330  Network.dyn_peer[55]  lookupStabilitySig:vector  ETV
492330	40828 72 1406 2962 20.856 22.056 2 -0.14285719394684 0.6451613008976 0.50230410695076 0.43664128203825
vector 492331  Network.dyn_peer[55]  lookupTimeSig:vector  ETV
492331	40900 46 1406 2962 20.856 22.056 2 0.8 1.2 2 2.08
vector 492410  Network.dyn_peer[82]  lookupHopsSig:vector  ETV
492410	51048 72 1440 3312 20.883 22.391753643834 3 6 8 21 149
vector 492411  Network.dyn_peer[82]  lookupStabilitySig:vector  ETV
492411	51120 117 1440 3312 20.883 22.391753643834 3 -0.14285719394684 0.83333332836628 1.2619047015905 1.0413832214076
vector 492412  Network.dyn_peer[82]  lookupTimeSig:vector  ETV
492412	51237 78 1440 3312 20.883 22.391753643834 3 0.7 0.8 2.3 1.77
vector 492458  Network.dyn_peer[98]  lookupHopsSig:vector  ETV
492458	58547 102 1460 3728 20.899 22.907829683018 4 1 12 25 225
vector 492459  Network.dyn_peer[98]  lookupStabilitySig:vector  ETV
492459	58649 162 1460 3728 20.899 22.907829683018 4 -0.14285719394684 0.98550724610686 2.4378881342709 2.2983220332196
vector 492460  Network.dyn_peer[98]  lookupTimeSig:vector  ETV
492460	58811 109 1460 3728 20.899 22.907829683018 4 0.2 1.3 2.8 2.62
vector 492209  Network.dyn_peer[15]  lookupHopsSig:vector  ETV
492209	25174 141 1484 3666 20.916 22.840982255283 5 2 9 24 146
vector 492210  Network.dyn_peer[15]  lookupStabilitySig:vector  ETV
492210	25315 217 1484 3666 20.916 22.840982255283 5 -0.28571426868439 0.94999999925494 3.1029954068363 3.03507957385
vector 492211  Network.dyn_peer[15]  lookupTimeSig:vector  ETV
492211	25532 151 1484 3666 20.916 22.840982255283 5 0.3 0.9 2.8 1.8
vector 492254  Network.dyn_peer[30]  lookupHopsSig:vector  ETV
492254	30710 102 1508 3435 20.931 22.537808546173 4 2 9 22 146
vector 492255  Network.dyn_peer[30]  lookupStabilitySig:vector  ETV
492255	30812 163 1508 3435 20.931 22.537808546173 4 -0.28571426868439 0.92000000178814 2.1494832932949 2.102275760365
vector 492256  Network.dyn_peer[30]  lookupTimeSig:vector  ETV
492256	30975 110 1508 3435 20.931 22.537808546173 4 0.3 0.9 2.5 1.75
vector 492296  Network.dyn_peer[44]  lookupHopsSig:vector  ETV
492296	36367 131 1530 4087 20.945 23.75656144336 5 3 13 33 291
vector 492297  Network.dyn_peer[44]  lookupStabilitySig:vector  ETV
492297	36498 206 1530 4087 20.945 23.75656144336 5 -0.28571426868439 0.96000000089407 3.2392820492387 3.2450448454623
vector 492298  Network.dyn_peer[44]  lookupTimeSig:vector  ETV
492298	36704 140 1530 4087 20.945 23.75656144336 5 0.4 1.4 3.7 3.43
vector 492455  Network.dyn_peer[97]  lookupHopsSig:vector  ETV
492455	57649 248 1591 4533 20.998 26.422965160854 9 3 9 55 361
vector 492456  Network.dyn_peer[97]  lookupStabilitySig:vector  ETV
492456	57897 384 1591 4533 20.998 26.422965160854 9 -0.28571426868439 0.97029702924192 6.8358217235655 6.4874981802688
vector 492457  Network.dyn_peer[97]  lookupTimeSig:vector  ETV
492457	58281 266 1591 4533 20.998 26.422965160854 9 0.4 0.9 6.3 4.61
vector 492203  Network.dyn_peer[13]  lookupHopsSig:vector  ETV
492203	24642 43 1614 2804 21.014 21.914 2 8 10 18 164
vector 492204  Network.dyn_peer[13]  lookupStabilitySig:vector  ETV
492204	24685 73 1614 2804 21.014 21.914 2 -0.42857146263123 0.70370370149612 0.27513223886489 0.67887239808121
vector 492205  Network.dyn_peer[13]  lookupTimeSig:vector  ETV
492205	24758 44 1614 2804 21.014 21.914 2 0.9 1 1.9 1.81