file 10751 1369674134                                           
version 2
run Stability2-37-20130526-00:51:17-26640
attr configname Stability2
attr datetime 20130526-00:51:17
attr experiment Stability2
attr inifile omnetpp.ini
attr iterationvars $0=20
attr iterationvars2 "$0=20, $repetition=7"
attr measurement $0=20
attr network Network
attr processid 26640
attr repetition 7
attr replication #7
attr resultdir results
attr runnumber 37
attr seedset 37
vector 114037  Network.churner  inGoingSizeSig:vector  ETV
114037	10348 403 10 97 20 20.02 21 0 19 190 2470
vector 111037  Network.dyn_peer[0]  lookupHopsSig:vector  ETV
111037	4301 68 17 387 20.001 20.910337277531 3 0 4 7 25
vector 111038  Network.dyn_peer[0]  lookupStabilitySig:vector  ETV
111038	4369 98 17 387 20.001 20.910337277531 3 0.19999998807907 1 1.8999999761581 1.5299999785423
vector 111039  Network.dyn_peer[0]  lookupTimeSig:vector  ETV
111039	4467 72 17 387 20.001 20.910337277531 3 0 0.5 0.9 0.41
vector 111049  Network.dyn_peer[4]  lookupHopsSig:vector  ETV
111049	5404 105 33 410 20.005 20.92207723426 4 0 3 6 14
vector 111050  Network.dyn_peer[4]  lookupStabilitySig:vector  ETV
111050	5509 150 33 410 20.005 20.92207723426 4 0.39999997615814 1 3.023376584053 2.4966503203786
vector 111051  Network.dyn_peer[4]  lookupTimeSig:vector  ETV
111051	5659 111 33 410 20.005 20.92207723426 4 0 0.4 0.9 0.29
vector 111073  Network.dyn_peer[12]  lookupHopsSig:vector  ETV
111073	7976 68 64 470 20.013 21.215143918776 3 0 8 10 68
vector 111074  Network.dyn_peer[12]  lookupStabilitySig:vector  ETV
111074	8044 98 64 470 20.013 21.215143918776 3 0.19999998807907 1 2.0571428388357 1.7746938618349
vector 111075  Network.dyn_peer[12]  lookupTimeSig:vector  ETV
111075	8142 72 64 470 20.013 21.215143918776 3 0 0.9 1.2 0.9
vector 111076  Network.dyn_peer[13]  lookupHopsSig:vector  ETV
111076	8214 77 72 347 20.014 20.720844567434 3 0 4 5 17
vector 111077  Network.dyn_peer[13]  lookupStabilitySig:vector  ETV
111077	8291 107 72 347 20.014 20.720844567434 3 0.42857140302658 1 2.2285714000463 1.8236734427238
vector 111078  Network.dyn_peer[13]  lookupTimeSig:vector  ETV
111078	8398 81 72 347 20.014 20.720844567434 3 0 0.5 0.7 0.29
vector 111085  Network.dyn_peer[16]  lookupHopsSig:vector  ETV
111085	9198 39 85 312 20.017 20.617 2 0 5 5 25
vector 111086  Network.dyn_peer[16]  lookupStabilitySig:vector  ETV
111086	9237 39 85 312 20.017 20.617 2 0 1 1 1
vector 111087  Network.dyn_peer[16]  lookupTimeSig:vector  ETV
111087	9276 41 85 312 20.017 20.617 2 0 0.6 0.6 0.36
vector 111091  Network.dyn_peer[18]  lookupHopsSig:vector  ETV
111091	9661 97 96 506 20.019 21.424482793894 4 0 8 11 69
vector 111092  Network.dyn_peer[18]  lookupStabilitySig:vector  ETV
111092	9758 131 96 506 20.019 21.424482793894 4 0.27272725105286 1 3.0977272503078 2.7425051520512
vector 111093  Network.dyn_peer[18]  lookupTimeSig:vector  ETV
111093	9889 103 96 506 20.019 21.424482793894 4 0 0.9 1.4 0.94
vector 111058  Network.dyn_peer[7]  lookupHopsSig:vector  ETV
111058	6156 69 112 330 20.108 20.708588988857 3 1 3 5 11
vector 111059  Network.dyn_peer[7]  lookupStabilitySig:vector  ETV
111059	6225 101 112 330 20.108 20.708588988857 3 0.5 0.79999999701977 2.0999999940395 1.5299999904633
vector 111060  Network.dyn_peer[7]  lookupTimeSig:vector  ETV
111060	6326 75 112 330 20.108 20.708588988857 3 0.1 0.4 0.7 0.21
vector 111064  Network.dyn_peer[9]  lookupHopsSig:vector  ETV
111064	6762 104 118 495 20.11 21.3266761905 4 1 4 10 30
vector 111065  Network.dyn_peer[9]  lookupStabilitySig:vector  ETV
111065	6866 164 118 495 20.11 21.3266761905 4 0.19999998807907 0.83333332836628 2.6666666418314 2.0688888627953
vector 111066  Network.dyn_peer[9]  lookupTimeSig:vector  ETV
111066	7030 112 118 495 20.11 21.3266761905 4 0.1 0.5 1.3 0.51
vector 111040  Network.dyn_peer[1]  lookupHopsSig:vector  ETV
111040	4539 40 137 382 20.202 20.902 2 2 6 8 40
vector 111041  Network.dyn_peer[1]  lookupStabilitySig:vector  ETV
111041	4579 70 137 382 20.202 20.902 2 0.33333331346512 0.59999999403954 0.93333330750466 0.47111109071308
vector 111042  Network.dyn_peer[1]  lookupTimeSig:vector  ETV
111042	4649 44 137 382 20.202 20.902 2 0.2 0.7 0.9 0.53
vector 111043  Network.dyn_peer[2]  lookupHopsSig:vector  ETV
111043	4693 97 142 509 20.203 21.43584293261 4 2 4 11 33
vector 111044  Network.dyn_peer[2]  lookupStabilitySig:vector  ETV
111044	4790 157 142 509 20.203 21.43584293261 4 0.39999997615814 0.90476190298796 2.6190475746989 1.8487981382587
vector 111045  Network.dyn_peer[2]  lookupTimeSig:vector  ETV
111045	4947 105 142 509 20.203 21.43584293261 4 0.2 0.5 1.4 0.54
vector 111046  Network.dyn_peer[3]  lookupHopsSig:vector  ETV
111046	5052 98 147 475 20.204 21.217936424252 4 1 3 9 23
vector 111047  Network.dyn_peer[3]  lookupStabilitySig:vector  ETV
111047	5150 148 147 475 20.204 21.217936424252 4 0.39999997615814 0.88888888806105 2.7013888582587 1.9702796790924
vector 111048  Network.dyn_peer[3]  lookupTimeSig:vector  ETV
111048	5298 106 147 475 20.204 21.217936424252 4 0.2 0.4 1.2 0.4
vector 111055  Network.dyn_peer[6]  lookupHopsSig:vector  ETV
111055	6013 40 155 356 20.207 20.807 2 2 5 7 29
vector 111056  Network.dyn_peer[6]  lookupStabilitySig:vector  ETV
111056	6053 59 155 356 20.207 20.807 2 0.375 0.59999999403954 0.97499999403954 0.50062499284745
vector 111057  Network.dyn_peer[6]  lookupTimeSig:vector  ETV
111057	6112 44 155 356 20.207 20.807 2 0.2 0.6 0.8 0.4
vector 111061  Network.dyn_peer[8]  lookupHopsSig:vector  ETV
111061	6401 98 162 529 20.209 21.639251593708 4 1 6 13 57
vector 111062  Network.dyn_peer[8]  lookupStabilitySig:vector  ETV
111062	6499 157 162 529 20.209 21.639251593708 4 0.5714285671711 0.81818181276321 2.7896103709936 1.9959520741948
vector 111063  Network.dyn_peer[8]  lookupTimeSig:vector  ETV
111063	6656 106 162 529 20.209 21.639251593708 4 0.2 0.7 1.6 0.82
vector 111094  Network.dyn_peer[19]  lookupHopsSig:vector  ETV
111094	9992 96 181 436 20.22 21.035773778575 4 1 3 7 15
vector 111095  Network.dyn_peer[19]  lookupStabilitySig:vector  ETV
111095	10088 156 181 436 20.22 21.035773778575 4 0.59999999403954 0.92307692021132 2.9897435680032 2.2965154199049
vector 111096  Network.dyn_peer[19]  lookupTimeSig:vector  ETV
111096	10244 104 181 436 20.22 21.035773778575 4 0.2 0.4 1 0.28
vector 111067  Network.dyn_peer[10]  lookupHopsSig:vector  ETV
111067	7142 75 198 483 20.311 21.22875756528 3 1 6 10 46
vector 111068  Network.dyn_peer[10]  lookupStabilitySig:vector  ETV
111068	7217 119 198 483 20.311 21.22875756528 3 0.39999997615814 0.9411764703691 1.8796379826963 1.3357539552365
vector 111069  Network.dyn_peer[10]  lookupTimeSig:vector  ETV
111069	7336 81 198 483 20.311 21.22875756528 3 0.2 0.7 1.2 0.62
vector 111079  Network.dyn_peer[14]  lookupHopsSig:vector  ETV
111079	8479 69 208 405 20.315 20.919563321534 3 1 3 7 19
vector 111080  Network.dyn_peer[14]  lookupStabilitySig:vector  ETV
111080	8548 113 208 405 20.315 20.919563321534 3 0.39999997615814 0.90909090638161 1.8805194497108 1.3129768643715
vector 111081  Network.dyn_peer[14]  lookupTimeSig:vector  ETV
111081	8661 75 208 405 20.315 20.919563321534 3 0.2 0.4 0.9 0.29
vector 111082  Network.dyn_peer[15]  lookupHopsSig:vector  ETV
111082	8736 126 243 535 20.416 21.82401020467 5 1 4 14 46
vector 111083  Network.dyn_peer[15]  lookupStabilitySig:vector  ETV
111083	8862 200 243 535 20.416 21.82401020467 5 0.19999998807907 0.9545454531908 3.5120333507657 2.8341881079043
vector 111084  Network.dyn_peer[15]  lookupTimeSig:vector  ETV
111084	9062 136 243 535 20.416 21.82401020467 5 0.2 0.5 1.8 0.7
vector 111052  Network.dyn_peer[5]  lookupHopsSig:vector  ETV
111052	5770 69 262 472 20.506 21.215996611725 3 1 5 10 42
vector 111053  Network.dyn_peer[5]  lookupStabilitySig:vector  ETV
111053	5839 99 262 472 20.506 21.215996611725 3 0 0.83333332836628 1.5666666477919 1.2322221935458
vector 111054  Network.dyn_peer[5]  lookupTimeSig:vector  ETV
111054	5938 75 262 472 20.506 21.215996611725 3 0.2 0.5 1.2 0.54
vector 111088  Network.dyn_peer[17]  lookupHopsSig:vector  ETV
111088	9317 97 282 500 20.518 21.34483811363 4 1 5 10 36
vector 111089  Network.dyn_peer[17]  lookupStabilitySig:vector  ETV
111089	9414 142 282 500 20.518 21.34483811363 4 0 0.90909090638161 2.6083390265703 2.2702814274742
vector 111090  Network.dyn_peer[17]  lookupTimeSig:vector  ETV
111090	9556 105 282 500 20.518 21.34483811363 4 0.2 0.5 1.3 0.49
vector 111070  Network.dyn_peer[11]  lookupHopsSig:vector  ETV
111070	7417 156 392 550 20.912 22.475771640898 6 1 9 19 105
vector 111071  Network.dyn_peer[11]  lookupStabilitySig:vector  ETV
111071	7573 235 392 550 20.912 22.475771640898 6 0.10000002384186 0.95833333209157 4.6422078050673 4.1424182069954
vector 111072  Network.dyn_peer[11]  lookupTimeSig:vector  ETV
111072	7808 168 392 550 20.912 22.475771640898 6 0.2 0.9 2.4 1.3
