version 2
run Stability2-72-20130526-00:51:27-26640
attr configname Stability2
attr datetime 20130526-00:51:27
attr experiment Stability2
attr inifile omnetpp.ini
attr iterationvars $0=30
attr iterationvars2 "$0=30, $repetition=12"
attr measurement $0=30
attr network Network
attr processid 26640
attr repetition 12
attr replication #12
attr resultdir results
attr runnumber 72
attr seedset 72

vector 219072  Network.churner  inGoingSizeSig:vector  ETV
vector 216078  Network.dyn_peer[2]  lookupHopsSig:vector  ETV
vector 216079  Network.dyn_peer[2]  lookupStabilitySig:vector  ETV
vector 216080  Network.dyn_peer[2]  lookupTimeSig:vector  ETV
vector 216093  Network.dyn_peer[7]  lookupHopsSig:vector  ETV
vector 216094  Network.dyn_peer[7]  lookupStabilitySig:vector  ETV
vector 216095  Network.dyn_peer[7]  lookupTimeSig:vector  ETV
vector 216108  Network.dyn_peer[12]  lookupHopsSig:vector  ETV
vector 216109  Network.dyn_peer[12]  lookupStabilitySig:vector  ETV
vector 216110  Network.dyn_peer[12]  lookupTimeSig:vector  ETV
vector 216132  Network.dyn_peer[20]  lookupHopsSig:vector  ETV
vector 216133  Network.dyn_peer[20]  lookupStabilitySig:vector  ETV
vector 216134  Network.dyn_peer[20]  lookupTimeSig:vector  ETV
vector 216135  Network.dyn_peer[21]  lookupHopsSig:vector  ETV
vector 216136  Network.dyn_peer[21]  lookupStabilitySig:vector  ETV
vector 216137  Network.dyn_peer[21]  lookupTimeSig:vector  ETV
vector 216156  Network.dyn_peer[28]  lookupHopsSig:vector  ETV
vector 216157  Network.dyn_peer[28]  lookupStabilitySig:vector  ETV
vector 216158  Network.dyn_peer[28]  lookupTimeSig:vector  ETV
vector 216102  Network.dyn_peer[10]  lookupHopsSig:vector  ETV
vector 216103  Network.dyn_peer[10]  lookupStabilitySig:vector  ETV
vector 216104  Network.dyn_peer[10]  lookupTimeSig:vector  ETV
vector 216111  Network.dyn_peer[13]  lookupHopsSig:vector  ETV
vector 216112  Network.dyn_peer[13]  lookupStabilitySig:vector  ETV
vector 216113  Network.dyn_peer[13]  lookupTimeSig:vector  ETV
vector 216150  Network.dyn_peer[26]  lookupHopsSig:vector  ETV
vector 216151  Network.dyn_peer[26]  lookupStabilitySig:vector  ETV
vector 216152  Network.dyn_peer[26]  lookupTimeSig:vector  ETV
vector 216153  Network.dyn_peer[27]  lookupHopsSig:vector  ETV
vector 216154  Network.dyn_peer[27]  lookupStabilitySig:vector  ETV
vector 216155  Network.dyn_peer[27]  lookupTimeSig:vector  ETV
vector 216072  Network.dyn_peer[0]  lookupHopsSig:vector  ETV
vector 216073  Network.dyn_peer[0]  lookupStabilitySig:vector  ETV
vector 216074  Network.dyn_peer[0]  lookupTimeSig:vector  ETV
vector 216081  Network.dyn_peer[3]  lookupHopsSig:vector  ETV
vector 216082  Network.dyn_peer[3]  lookupStabilitySig:vector  ETV
vector 216083  Network.dyn_peer[3]  lookupTimeSig:vector  ETV
vector 216084  Network.dyn_peer[4]  lookupHopsSig:vector  ETV
vector 216085  Network.dyn_peer[4]  lookupStabilitySig:vector  ETV
vector 216086  Network.dyn_peer[4]  lookupTimeSig:vector  ETV
vector 216087  Network.dyn_peer[5]  lookupHopsSig:vector  ETV
vector 216088  Network.dyn_peer[5]  lookupStabilitySig:vector  ETV
vector 216089  Network.dyn_peer[5]  lookupTimeSig:vector  ETV
vector 216105  Network.dyn_peer[11]  lookupHopsSig:vector  ETV
vector 216106  Network.dyn_peer[11]  lookupStabilitySig:vector  ETV
vector 216107  Network.dyn_peer[11]  lookupTimeSig:vector  ETV
vector 216126  Network.dyn_peer[18]  lookupHopsSig:vector  ETV
vector 216127  Network.dyn_peer[18]  lookupStabilitySig:vector  ETV
vector 216128  Network.dyn_peer[18]  lookupTimeSig:vector  ETV
vector 216159  Network.dyn_peer[29]  lookupHopsSig:vector  ETV
vector 216160  Network.dyn_peer[29]  lookupStabilitySig:vector  ETV
vector 216161  Network.dyn_peer[29]  lookupTimeSig:vector  ETV
vector 216075  Network.dyn_peer[1]  lookupHopsSig:vector  ETV
vector 216076  Network.dyn_peer[1]  lookupStabilitySig:vector  ETV
vector 216077  Network.dyn_peer[1]  lookupTimeSig:vector  ETV
vector 216099  Network.dyn_peer[9]  lookupHopsSig:vector  ETV
vector 216100  Network.dyn_peer[9]  lookupStabilitySig:vector  ETV
vector 216101  Network.dyn_peer[9]  lookupTimeSig:vector  ETV
vector 216117  Network.dyn_peer[15]  lookupHopsSig:vector  ETV
vector 216118  Network.dyn_peer[15]  lookupStabilitySig:vector  ETV
vector 216119  Network.dyn_peer[15]  lookupTimeSig:vector  ETV
vector 216123  Network.dyn_peer[17]  lookupHopsSig:vector  ETV
vector 216124  Network.dyn_peer[17]  lookupStabilitySig:vector  ETV
vector 216125  Network.dyn_peer[17]  lookupTimeSig:vector  ETV
vector 216138  Network.dyn_peer[22]  lookupHopsSig:vector  ETV
vector 216139  Network.dyn_peer[22]  lookupStabilitySig:vector  ETV
vector 216140  Network.dyn_peer[22]  lookupTimeSig:vector  ETV
vector 216141  Network.dyn_peer[23]  lookupHopsSig:vector  ETV
vector 216142  Network.dyn_peer[23]  lookupStabilitySig:vector  ETV
vector 216143  Network.dyn_peer[23]  lookupTimeSig:vector  ETV
vector 216090  Network.dyn_peer[6]  lookupHopsSig:vector  ETV
vector 216091  Network.dyn_peer[6]  lookupStabilitySig:vector  ETV
vector 216092  Network.dyn_peer[6]  lookupTimeSig:vector  ETV
vector 216144  Network.dyn_peer[24]  lookupHopsSig:vector  ETV
vector 216145  Network.dyn_peer[24]  lookupStabilitySig:vector  ETV
vector 216146  Network.dyn_peer[24]  lookupTimeSig:vector  ETV
vector 216120  Network.dyn_peer[16]  lookupHopsSig:vector  ETV
vector 216121  Network.dyn_peer[16]  lookupStabilitySig:vector  ETV
vector 216122  Network.dyn_peer[16]  lookupTimeSig:vector  ETV
vector 216129  Network.dyn_peer[19]  lookupHopsSig:vector  ETV
vector 216130  Network.dyn_peer[19]  lookupStabilitySig:vector  ETV
vector 216131  Network.dyn_peer[19]  lookupTimeSig:vector  ETV
vector 216096  Network.dyn_peer[8]  lookupHopsSig:vector  ETV
vector 216097  Network.dyn_peer[8]  lookupStabilitySig:vector  ETV
vector 216098  Network.dyn_peer[8]  lookupTimeSig:vector  ETV
vector 216114  Network.dyn_peer[14]  lookupHopsSig:vector  ETV
vector 216115  Network.dyn_peer[14]  lookupStabilitySig:vector  ETV
vector 216116  Network.dyn_peer[14]  lookupTimeSig:vector  ETV
vector 216147  Network.dyn_peer[25]  lookupHopsSig:vector  ETV
vector 216148  Network.dyn_peer[25]  lookupStabilitySig:vector  ETV
vector 216149  Network.dyn_peer[25]  lookupTimeSig:vector  ETV
216072	186	20.201	2
216072	776	21.401	11
216072	851	21.619362354115	1
216073	186	20.201	0.59999999403954
216073	776	21.401	0.35294115543365
216073	851	21.619362354115	0.9545454531908
216074	186	20.201	0.2
216074	776	21.401	1.2
216074	851	21.619362354115	0.2
216075	257	20.302	3
216075	778	21.402	10
216076	257	20.302	0.39999997615814
216076	778	21.402	0.41176468133926
216077	257	20.302	0.3
216077	778	21.402	1.1
216078	23	20.003	0
216078	565	20.903	8
216078	815	21.505040121522	5
216078	920	22.00929145068	4
216078	969	22.618758549297	5
216078	991	22.919585699225	2
216078	1006	23.120232106051	1
216079	23	20.003	1
216079	565	20.903	0
216079	815	21.505040121522	0.76190476119518
216079	920	22.00929145068	0.86206896603107
216079	969	22.618758549297	0.83870968222618
216079	991	22.919585699225	0.93548387289047
216079	1006	23.120232106051	0.96969696879387
216080	23	20.003	0
216080	565	20.903	0.9
216080	815	21.505040121522	0.6
216080	920	22.00929145068	0.5
216080	969	22.618758549297	0.6
216080	991	22.919585699225	0.3
216080	1006	23.120232106051	0.2
216081	193	20.204	2
216081	412	20.604	3
216081	845	21.611546561255	9
216082	193	20.204	0.59999999403954
216082	412	20.604	0.39999997615814
216082	845	21.611546561255	0.59090909361839
216083	193	20.204	0.2
216083	412	20.604	0.4
216083	845	21.611546561255	1
216084	198	20.205	2
216084	316	20.405	1
216084	426	20.614609245194	1
216084	532	20.815680226405	1
216084	708	21.220005759872	3
216085	198	20.205	0.59999999403954
216085	316	20.405	0.79999999701977
216085	426	20.614609245194	0.79999999701977
216085	532	20.815680226405	0.79999999701977
216085	708	21.220005759872	0.76923076808453
216086	198	20.205	0.2
216086	316	20.405	0.2
216086	426	20.614609245194	0.2
216086	532	20.815680226405	0.2
216086	708	21.220005759872	0.4
216087	206	20.206	2
216087	420	20.61134874401	3
216087	536	20.818560562164	1
216087	754	21.32804904661	3
216087	881	21.735881402199	3
216087	928	22.040762195811	2
216088	206	20.206	0.59999999403954
216088	420	20.61134874401	0.39999997615814
216088	536	20.818560562164	0.79999999701977
216088	754	21.32804904661	0.8125
216088	881	21.735881402199	0.88461538404226
216088	928	22.040762195811	0.93103448301554
216089	206	20.206	0.2
216089	420	20.61134874401	0.4
216089	536	20.818560562164	0.2
216089	754	21.32804904661	0.4
216089	881	21.735881402199	0.4
216089	928	22.040762195811	0.3
216090	322	20.407	4
216090	568	20.907	4
216090	703	21.214207535025	2
216090	824	21.520963652634	2
216090	908	21.934706483992	3
216090	975	22.649033190655	6
216090	995	22.952023486984	2
216091	322	20.407	0.19999998807907
216091	568	20.907	0.5
216091	703	21.214207535025	0.84615384042263
216091	824	21.520963652634	0.90476190298796
216091	908	21.934706483992	0.89285714179277
216091	975	22.649033190655	0.80645161867142
216091	995	22.952023486984	0.93548387289047
216092	322	20.407	0.4
216092	568	20.907	0.5
216092	703	21.214207535025	0.3
216092	824	21.520963652634	0.3
216092	908	21.934706483992	0.4
216092	975	22.649033190655	0.7
216092	995	22.952023486984	0.3
216093	44	20.008	0
216093	577	20.9113651534	8
216093	748	21.321903255633	3
216093	832	21.529516464445	1
216094	44	20.008	1
216094	577	20.9113651534	0
216094	748	21.321903255633	0.8125
216094	832	21.529516464445	0.95238095149398
216095	44	20.008	0
216095	577	20.9113651534	0.9
216095	748	21.321903255633	0.4
216095	832	21.529516464445	0.2
216096	573	20.909	9
216096	700	21.209	2
216096	783	21.414415859774	1
216096	872	21.72155280591	2
216096	904	21.930978028955	1
216096	973	22.640660393372	6
216096	987	22.849591500851	1
216096	1003	23.055025701223	1
216097	573	20.909	-0.125
216097	700	21.209	0.84615384042263
216097	783	21.414415859774	0.94444444403052
216097	872	21.72155280591	0.92000000178814
216097	904	21.930978028955	0.96428571268916
216097	973	22.640660393372	0.80645161867142
216097	987	22.849591500851	0.96774193644524
216097	1003	23.055025701223	0.96875
216098	573	20.909	0.9
216098	700	21.209	0.3
216098	783	21.414415859774	0.2
216098	872	21.72155280591	0.3
216098	904	21.930978028955	0.2
216098	973	22.640660393372	0.7
216098	987	22.849591500851	0.2
216098	1003	23.055025701223	0.2
216099	269	20.31	3
216099	521	20.81	4
216099	629	21.01126451658	1
216100	269	20.31	0.39999997615814
216100	521	20.81	0.19999998807907
216100	629	21.01126451658	0.90909090638161
216101	269	20.31	0.3
216101	521	20.81	0.5
216101	629	21.01126451658	0.2
216102	148	20.111	1
216102	627	21.011	8
216103	148	20.111	0.79999999701977
216103	627	21.011	0.19999998807907
216104	148	20.111	0.1
216104	627	21.011	0.9
216105	218	20.212	2
216105	479	20.712	4
216105	597	20.922206748341	1
216106	218	20.212	0.59999999403954
216106	479	20.712	0.19999998807907
216106	597	20.922206748341	0.88888888806105
216107	218	20.212	0.2
216107	479	20.712	0.5
216107	597	20.922206748341	0.2
216108	65	20.013	0
216108	342	20.418285711199	3
216108	499	20.725977905647	2
216108	613	20.931428343039	1
216108	803	21.434184994776	4
216109	65	20.013	1
216109	342	20.418285711199	0.39999997615814
216109	499	20.725977905647	0.59999999403954
216109	613	20.931428343039	0.88888888806105
216109	803	21.434184994776	0.78947368264198
216110	65	20.013	0
216110	342	20.418285711199	0.4
216110	499	20.725977905647	0.3
216110	613	20.931428343039	0.2
216110	803	21.434184994776	0.5
216111	155	20.114	1
216111	378	20.514	3
216111	586	20.915278683231	3
216111	670	21.116267911452	1
216111	875	21.722998853579	5
216112	155	20.114	0.79999999701977
216112	378	20.514	0.39999997615814
216112	586	20.915278683231	0.66666665673256
216112	670	21.116267911452	0.91666666418314
216112	875	21.722998853579	0.79999999701977
216113	155	20.114	0.1
216113	378	20.514	0.4
216113	586	20.915278683231	0.4
216113	670	21.116267911452	0.2
216113	875	21.722998853579	0.6
216114	584	20.915	9
216114	847	21.615	6
216114	923	22.020121814091	3
216114	948	22.327445128363	2
216115	584	20.915	0
216115	847	21.615	0.72727271914482
216115	923	22.020121814091	0.89655172079802
216115	948	22.327445128363	0.93103448301554
216116	584	20.915	0.9
216116	847	21.615	0.7
216116	923	22.020121814091	0.4
216116	948	22.327445128363	0.3
216117	281	20.316	3
216117	588	20.916	5
216117	743	21.320329749587	3
216117	822	21.520769687139	1
216117	906	21.931379003225	3
216118	281	20.316	0.39999997615814
216118	588	20.916	0.44444441795349
216118	743	21.320329749587	0.8125
216118	822	21.520769687139	0.95238095149398
216118	906	21.931379003225	0.89285714179277
216119	281	20.316	0.3
216119	588	20.916	0.6
216119	743	21.320329749587	0.4
216119	822	21.520769687139	0.2
216119	906	21.931379003225	0.4
216120	436	20.617	6
216120	849	21.617	9
216120	934	22.12200128091	4
216120	984	22.831900049314	6
216120	1000	23.035219103408	1
216120	1012	23.443754640382	3
216121	436	20.617	-0.20000004768372
216121	849	21.617	0.59090909361839
216121	934	22.12200128091	0.86206896603107
216121	984	22.831900049314	0.80645161867142
216121	1000	23.035219103408	0.96875
216121	1012	23.443754640382	0.91176470369101
216122	436	20.617	0.6
216122	849	21.617	1
216122	934	22.12200128091	0.5
216122	984	22.831900049314	0.7
216122	1000	23.035219103408	0.2
216122	1012	23.443754640382	0.4
216123	288	20.318	3
216123	388	20.518	1
216123	548	20.825875600859	2
216124	288	20.318	0.39999997615814
216124	388	20.518	0.79999999701977
216124	548	20.825875600859	0.59999999403954
216125	288	20.318	0.3
216125	388	20.518	0.2
216125	548	20.825875600859	0.3
216126	231	20.219	2
216126	344	20.419	1
216126	647	21.02798537012	5
216126	724	21.232718189268	1
216127	231	20.219	0.59999999403954
216127	344	20.419	0.79999999701977
216127	647	21.02798537012	0.58333334326744
216127	724	21.232718189268	0.92857142537832
216128	231	20.219	0.2
216128	344	20.419	0.2
216128	647	21.02798537012	0.6
216128	724	21.232718189268	0.2
216129	444	20.62	6
216129	859	21.623620351557	9
216130	444	20.62	-0.20000004768372
216130	859	21.623620351557	0.625
216131	444	20.62	0.6
216131	859	21.623620351557	1
216132	95	20.021	0
216132	462	20.631662342016	5
216132	558	20.84033680246	1
216133	95	20.021	1
216133	462	20.631662342016	0
216133	558	20.84033680246	0.85714285075665
216134	95	20.021	0
216134	462	20.631662342016	0.6
216134	558	20.84033680246	0.2
216135	102	20.022	0
216135	234	20.222	1
216135	641	21.022418902866	7
216135	759	21.329888784569	2
216135	837	21.535064253744	1
216136	102	20.022	1
216136	234	20.222	0.79999999701977
216136	641	21.022418902866	0.41666668653488
216136	759	21.329888784569	0.875
216136	837	21.535064253744	0.95238095149398
216137	102	20.022	0
216137	234	20.222	0.2
216137	641	21.022418902866	0.8
216137	759	21.329888784569	0.3
216137	837	21.535064253744	0.2
216138	297	20.323	3
216138	679	21.123	7
216138	762	21.332719208313	1
216138	865	21.638127346817	2
216138	895	21.841081087296	1
216139	297	20.323	0.39999997615814
216139	679	21.123	0.41666668653488
216139	762	21.332719208313	0.9375
216139	865	21.638127346817	0.92000000178814
216139	895	21.841081087296	0.96153846010566
216140	297	20.323	0.3
216140	679	21.123	0.8
216140	762	21.332719208313	0.2
216140	865	21.638127346817	0.3
216140	895	21.841081087296	0.2
216141	302	20.324	3
216141	603	20.924	5
216141	801	21.432725264123	4
216142	302	20.324	0.39999997615814
216142	603	20.924	0.44444441795349
216142	801	21.432725264123	0.77777777612209
216143	302	20.324	0.3
216143	603	20.924	0.6
216143	801	21.432725264123	0.5
216144	397	20.525	5
216144	546	20.825	2
216144	654	21.033160099058	1
216144	773	21.341583409101	2
216145	397	20.525	0
216145	546	20.825	0.59999999403954
216145	654	21.033160099058	0.91666666418314
216145	773	21.341583409101	0.875
216146	397	20.525	0.5
216146	546	20.825	0.3
216146	654	21.033160099058	0.2
216146	773	21.341583409101	0.3
216147	608	20.926	9
216147	718	21.226	2
216147	796	21.429475606022	1
216148	608	20.926	0
216148	718	21.226	0.85714285075665
216148	796	21.429475606022	0.94444444403052
216149	608	20.926	0.9
216149	718	21.226	0.3
216149	796	21.429475606022	0.2
216150	173	20.127	1
216150	353	20.427	2
216150	464	20.636332105563	1
216150	733	21.246124526864	5
216151	173	20.127	0.79999999701977
216151	353	20.427	0.59999999403954
216151	464	20.636332105563	0.79999999701977
216151	733	21.246124526864	0.66666665673256
216152	173	20.127	0.1
216152	353	20.427	0.3
216152	464	20.636332105563	0.2
216152	733	21.246124526864	0.6
216153	178	20.128	1
216153	358	20.428	2
216153	503	20.728200909047	2
216153	770	21.338284157259	5
216153	914	21.941530345543	5
216153	953	22.347686650873	3
216153	966	22.553828953841	1
216154	178	20.128	0.79999999701977
216154	358	20.428	0.59999999403954
216154	503	20.728200909047	0.59999999403954
216154	770	21.338284157259	0.6875
216154	914	21.941530345543	0.82758620381355
216154	953	22.347686650873	0.89999999850988
216154	966	22.553828953841	0.9666666649282
216155	178	20.128	0.1
216155	358	20.428	0.3
216155	503	20.728200909047	0.3
216155	770	21.338284157259	0.6
216155	914	21.941530345543	0.6
216155	953	22.347686650873	0.4
216155	966	22.553828953841	0.2
216156	128	20.029	0
216156	244	20.229	1
216156	685	21.129098720858	8
216157	128	20.029	1
216157	244	20.229	0.79999999701977
216157	685	21.129098720858	0.33333331346512
216158	128	20.029	0
216158	244	20.229	0.2
216158	685	21.129098720858	0.9
216159	250	20.23	2
216159	507	20.73	4
216159	807	21.435760717487	6
216159	898	21.84168754165	3
216160	250	20.23	0.59999999403954
216160	507	20.73	0.19999998807907
216160	807	21.435760717487	0.68421053886414
216160	898	21.84168754165	0.88461538404226
216161	250	20.23	0.2
216161	507	20.73	0.5
216161	807	21.435760717487	0.7
216161	898	21.84168754165	0.4
219072	10	20	0
219072	11	20.001	0
219072	14	20.002	1
219072	17	20.003	2
219072	24	20.004	3
219072	27	20.005	4
219072	32	20.006	5
219072	35	20.007	6
219072	38	20.008	7
219072	45	20.009	8
219072	48	20.01	9
219072	51	20.011	10
219072	55	20.012	11
219072	59	20.013	12
219072	66	20.014	13
219072	69	20.015	14
219072	72	20.016	15
219072	76	20.017	16
219072	79	20.018	17
219072	83	20.019	18
219072	86	20.02	19
219072	89	20.021	20
219072	96	20.022	21
219072	103	20.023	22
219072	106	20.024	23
219072	109	20.025	24
219072	112	20.026	25
219072	115	20.027	26
219072	119	20.028	27
219072	122	20.029	28
219072	129	20.03	29
