file 37032 1369522309                                           
version 2
run Stability2-138-20130526-00:51:49-26640
attr configname Stability2
attr datetime 20130526-00:51:49
attr experiment Stability2
attr inifile omnetpp.ini
attr iterationvars $0=50
attr iterationvars2 "$0=50, $repetition=18"
attr measurement $0=50
attr network Network
attr processid 26640
attr repetition 18
attr replication #18
attr resultdir results
attr runnumber 138
attr seedset 138

vector 417138  Network.churner  inGoingSizeSig:vector  ETV
vector 414165  Network.dyn_peer[9]  lookupHopsSig:vector  ETV
vector 414166  Network.dyn_peer[9]  lookupStabilitySig:vector  ETV
vector 414167  Network.dyn_peer[9]  lookupTimeSig:vector  ETV
vector 414189  Network.dyn_peer[17]  lookupHopsSig:vector  ETV
vector 414190  Network.dyn_peer[17]  lookupStabilitySig:vector  ETV
vector 414191  Network.dyn_peer[17]  lookupTimeSig:vector  ETV
vector 414204  Network.dyn_peer[22]  lookupHopsSig:vector  ETV
vector 414205  Network.dyn_peer[22]  lookupStabilitySig:vector  ETV
vector 414206  Network.dyn_peer[22]  lookupTimeSig:vector  ETV
vector 414246  Network.dyn_peer[36]  lookupHopsSig:vector  ETV
vector 414247  Network.dyn_peer[36]  lookupStabilitySig:vector  ETV
vector 414248  Network.dyn_peer[36]  lookupTimeSig:vector  ETV
vector 414258  Network.dyn_peer[40]  lookupHopsSig:vector  ETV
vector 414259  Network.dyn_peer[40]  lookupStabilitySig:vector  ETV
vector 414260  Network.dyn_peer[40]  lookupTimeSig:vector  ETV
vector 414267  Network.dyn_peer[43]  lookupHopsSig:vector  ETV
vector 414268  Network.dyn_peer[43]  lookupStabilitySig:vector  ETV
vector 414269  Network.dyn_peer[43]  lookupTimeSig:vector  ETV
vector 414144  Network.dyn_peer[2]  lookupHopsSig:vector  ETV
vector 414145  Network.dyn_peer[2]  lookupStabilitySig:vector  ETV
vector 414146  Network.dyn_peer[2]  lookupTimeSig:vector  ETV
vector 414162  Network.dyn_peer[8]  lookupHopsSig:vector  ETV
vector 414163  Network.dyn_peer[8]  lookupStabilitySig:vector  ETV
vector 414164  Network.dyn_peer[8]  lookupTimeSig:vector  ETV
vector 414201  Network.dyn_peer[21]  lookupHopsSig:vector  ETV
vector 414202  Network.dyn_peer[21]  lookupStabilitySig:vector  ETV
vector 414203  Network.dyn_peer[21]  lookupTimeSig:vector  ETV
vector 414216  Network.dyn_peer[26]  lookupHopsSig:vector  ETV
vector 414217  Network.dyn_peer[26]  lookupStabilitySig:vector  ETV
vector 414218  Network.dyn_peer[26]  lookupTimeSig:vector  ETV
vector 414222  Network.dyn_peer[28]  lookupHopsSig:vector  ETV
vector 414223  Network.dyn_peer[28]  lookupStabilitySig:vector  ETV
vector 414224  Network.dyn_peer[28]  lookupTimeSig:vector  ETV
vector 414249  Network.dyn_peer[37]  lookupHopsSig:vector  ETV
vector 414250  Network.dyn_peer[37]  lookupStabilitySig:vector  ETV
vector 414251  Network.dyn_peer[37]  lookupTimeSig:vector  ETV
vector 414273  Network.dyn_peer[45]  lookupHopsSig:vector  ETV
vector 414274  Network.dyn_peer[45]  lookupStabilitySig:vector  ETV
vector 414275  Network.dyn_peer[45]  lookupTimeSig:vector  ETV
vector 414279  Network.dyn_peer[47]  lookupHopsSig:vector  ETV
vector 414280  Network.dyn_peer[47]  lookupStabilitySig:vector  ETV
vector 414281  Network.dyn_peer[47]  lookupTimeSig:vector  ETV
vector 414147  Network.dyn_peer[3]  lookupHopsSig:vector  ETV
vector 414148  Network.dyn_peer[3]  lookupStabilitySig:vector  ETV
vector 414149  Network.dyn_peer[3]  lookupTimeSig:vector  ETV
vector 414153  Network.dyn_peer[5]  lookupHopsSig:vector  ETV
vector 414154  Network.dyn_peer[5]  lookupStabilitySig:vector  ETV
vector 414155  Network.dyn_peer[5]  lookupTimeSig:vector  ETV
vector 414159  Network.dyn_peer[7]  lookupHopsSig:vector  ETV
vector 414160  Network.dyn_peer[7]  lookupStabilitySig:vector  ETV
vector 414161  Network.dyn_peer[7]  lookupTimeSig:vector  ETV
vector 414186  Network.dyn_peer[16]  lookupHopsSig:vector  ETV
vector 414187  Network.dyn_peer[16]  lookupStabilitySig:vector  ETV
vector 414188  Network.dyn_peer[16]  lookupTimeSig:vector  ETV
vector 414252  Network.dyn_peer[38]  lookupHopsSig:vector  ETV
vector 414253  Network.dyn_peer[38]  lookupStabilitySig:vector  ETV
vector 414254  Network.dyn_peer[38]  lookupTimeSig:vector  ETV
vector 414255  Network.dyn_peer[39]  lookupHopsSig:vector  ETV
vector 414256  Network.dyn_peer[39]  lookupStabilitySig:vector  ETV
vector 414257  Network.dyn_peer[39]  lookupTimeSig:vector  ETV
vector 414141  Network.dyn_peer[1]  lookupHopsSig:vector  ETV
vector 414142  Network.dyn_peer[1]  lookupStabilitySig:vector  ETV
vector 414143  Network.dyn_peer[1]  lookupTimeSig:vector  ETV
vector 414156  Network.dyn_peer[6]  lookupHopsSig:vector  ETV
vector 414157  Network.dyn_peer[6]  lookupStabilitySig:vector  ETV
vector 414158  Network.dyn_peer[6]  lookupTimeSig:vector  ETV
vector 414174  Network.dyn_peer[12]  lookupHopsSig:vector  ETV
vector 414175  Network.dyn_peer[12]  lookupStabilitySig:vector  ETV
vector 414176  Network.dyn_peer[12]  lookupTimeSig:vector  ETV
vector 414237  Network.dyn_peer[33]  lookupHopsSig:vector  ETV
vector 414238  Network.dyn_peer[33]  lookupStabilitySig:vector  ETV
vector 414239  Network.dyn_peer[33]  lookupTimeSig:vector  ETV
vector 414264  Network.dyn_peer[42]  lookupHopsSig:vector  ETV
vector 414265  Network.dyn_peer[42]  lookupStabilitySig:vector  ETV
vector 414266  Network.dyn_peer[42]  lookupTimeSig:vector  ETV
vector 414168  Network.dyn_peer[10]  lookupHopsSig:vector  ETV
vector 414169  Network.dyn_peer[10]  lookupStabilitySig:vector  ETV
vector 414170  Network.dyn_peer[10]  lookupTimeSig:vector  ETV
vector 414171  Network.dyn_peer[11]  lookupHopsSig:vector  ETV
vector 414172  Network.dyn_peer[11]  lookupStabilitySig:vector  ETV
vector 414173  Network.dyn_peer[11]  lookupTimeSig:vector  ETV
vector 414177  Network.dyn_peer[13]  lookupHopsSig:vector  ETV
vector 414178  Network.dyn_peer[13]  lookupStabilitySig:vector  ETV
vector 414179  Network.dyn_peer[13]  lookupTimeSig:vector  ETV
vector 414180  Network.dyn_peer[14]  lookupHopsSig:vector  ETV
vector 414181  Network.dyn_peer[14]  lookupStabilitySig:vector  ETV
vector 414182  Network.dyn_peer[14]  lookupTimeSig:vector  ETV
vector 414183  Network.dyn_peer[15]  lookupHopsSig:vector  ETV
vector 414184  Network.dyn_peer[15]  lookupStabilitySig:vector  ETV
vector 414185  Network.dyn_peer[15]  lookupTimeSig:vector  ETV
vector 414207  Network.dyn_peer[23]  lookupHopsSig:vector  ETV
vector 414208  Network.dyn_peer[23]  lookupStabilitySig:vector  ETV
vector 414209  Network.dyn_peer[23]  lookupTimeSig:vector  ETV
vector 414225  Network.dyn_peer[29]  lookupHopsSig:vector  ETV
vector 414226  Network.dyn_peer[29]  lookupStabilitySig:vector  ETV
vector 414227  Network.dyn_peer[29]  lookupTimeSig:vector  ETV
vector 414276  Network.dyn_peer[46]  lookupHopsSig:vector  ETV
vector 414277  Network.dyn_peer[46]  lookupStabilitySig:vector  ETV
vector 414278  Network.dyn_peer[46]  lookupTimeSig:vector  ETV
vector 414138  Network.dyn_peer[0]  lookupHopsSig:vector  ETV
vector 414139  Network.dyn_peer[0]  lookupStabilitySig:vector  ETV
vector 414140  Network.dyn_peer[0]  lookupTimeSig:vector  ETV
vector 414195  Network.dyn_peer[19]  lookupHopsSig:vector  ETV
vector 414196  Network.dyn_peer[19]  lookupStabilitySig:vector  ETV
vector 414197  Network.dyn_peer[19]  lookupTimeSig:vector  ETV
vector 414261  Network.dyn_peer[41]  lookupHopsSig:vector  ETV
vector 414262  Network.dyn_peer[41]  lookupStabilitySig:vector  ETV
vector 414263  Network.dyn_peer[41]  lookupTimeSig:vector  ETV
vector 414150  Network.dyn_peer[4]  lookupHopsSig:vector  ETV
vector 414151  Network.dyn_peer[4]  lookupStabilitySig:vector  ETV
vector 414152  Network.dyn_peer[4]  lookupTimeSig:vector  ETV
vector 414198  Network.dyn_peer[20]  lookupHopsSig:vector  ETV
vector 414199  Network.dyn_peer[20]  lookupStabilitySig:vector  ETV
vector 414200  Network.dyn_peer[20]  lookupTimeSig:vector  ETV
vector 414231  Network.dyn_peer[31]  lookupHopsSig:vector  ETV
vector 414232  Network.dyn_peer[31]  lookupStabilitySig:vector  ETV
vector 414233  Network.dyn_peer[31]  lookupTimeSig:vector  ETV
vector 414282  Network.dyn_peer[48]  lookupHopsSig:vector  ETV
vector 414283  Network.dyn_peer[48]  lookupStabilitySig:vector  ETV
vector 414284  Network.dyn_peer[48]  lookupTimeSig:vector  ETV
vector 414228  Network.dyn_peer[30]  lookupHopsSig:vector  ETV
vector 414229  Network.dyn_peer[30]  lookupStabilitySig:vector  ETV
vector 414230  Network.dyn_peer[30]  lookupTimeSig:vector  ETV
vector 414240  Network.dyn_peer[34]  lookupHopsSig:vector  ETV
vector 414241  Network.dyn_peer[34]  lookupStabilitySig:vector  ETV
vector 414242  Network.dyn_peer[34]  lookupTimeSig:vector  ETV
vector 414270  Network.dyn_peer[44]  lookupHopsSig:vector  ETV
vector 414271  Network.dyn_peer[44]  lookupStabilitySig:vector  ETV
vector 414272  Network.dyn_peer[44]  lookupTimeSig:vector  ETV
vector 414285  Network.dyn_peer[49]  lookupHopsSig:vector  ETV
vector 414286  Network.dyn_peer[49]  lookupStabilitySig:vector  ETV
vector 414287  Network.dyn_peer[49]  lookupTimeSig:vector  ETV
vector 414219  Network.dyn_peer[27]  lookupHopsSig:vector  ETV
vector 414220  Network.dyn_peer[27]  lookupStabilitySig:vector  ETV
vector 414221  Network.dyn_peer[27]  lookupTimeSig:vector  ETV
vector 414243  Network.dyn_peer[35]  lookupHopsSig:vector  ETV
vector 414244  Network.dyn_peer[35]  lookupStabilitySig:vector  ETV
vector 414245  Network.dyn_peer[35]  lookupTimeSig:vector  ETV
vector 414234  Network.dyn_peer[32]  lookupHopsSig:vector  ETV
vector 414235  Network.dyn_peer[32]  lookupStabilitySig:vector  ETV
vector 414236  Network.dyn_peer[32]  lookupTimeSig:vector  ETV
vector 414210  Network.dyn_peer[24]  lookupHopsSig:vector  ETV
vector 414211  Network.dyn_peer[24]  lookupStabilitySig:vector  ETV
vector 414212  Network.dyn_peer[24]  lookupTimeSig:vector  ETV
vector 414192  Network.dyn_peer[18]  lookupHopsSig:vector  ETV
vector 414193  Network.dyn_peer[18]  lookupStabilitySig:vector  ETV
vector 414194  Network.dyn_peer[18]  lookupTimeSig:vector  ETV
vector 414213  Network.dyn_peer[25]  lookupHopsSig:vector  ETV
vector 414214  Network.dyn_peer[25]  lookupStabilitySig:vector  ETV
vector 414215  Network.dyn_peer[25]  lookupTimeSig:vector  ETV
414138	10127 100 555 1516 20.501 21.911198460807 4 1 6 16 78
414139	10227 132 555 1516 20.501 21.911198460807 4 0 0.96153846010566 2.2006688974798 1.7208700137152
414140	10359 108 555 1516 20.501 21.911198460807 4 0.2 0.7 1.9 1.03
414141	10467 99 382 1172 20.302 21.322763325883 4 1 4 10 30
414142	10566 148 382 1172 20.302 21.322763325883 4 0.33333331346512 0.875 2.4416666179895 1.7311805149582
414143	10714 107 382 1172 20.302 21.322763325883 4 0.2 0.5 1.3 0.47
414144	10821 108 209 1252 20.103 21.432920718105 4 1 6 11 45
414145	10929 153 209 1252 20.103 21.432920718105 4 0 0.86666665971279 2.4444444328547 1.9960493633188
414146	11082 116 209 1252 20.103 21.432920718105 4 0.1 0.7 1.4 0.68
414147	11198 220 300 2005 20.204 23.736143953346 8 1 8 30 160
414148	11418 328 300 2005 20.204 23.736143953346 8 0.125 0.97777777723968 6.0630628596991 5.1683959772732
414149	11746 236 300 2005 20.204 23.736143953346 8 0.2 0.9 3.7 2.23
414150	11982 72 629 1724 20.605 22.414473588895 3 6 10 22 172
414151	12054 117 629 1724 20.605 22.414473588895 3 -0.20000004768372 0.71428570151329 0.96883109211922 0.75681563792975
414152	12171 77 629 1724 20.605 22.414473588895 3 0.6 1.1 2.4 2.06
414153	12248 100 306 1510 20.206 21.859967542353 4 2 6 15 69
414154	12348 160 306 1510 20.206 21.859967542353 4 0.16666668653488 0.79999999701977 2.3358974456787 1.6194937470475
414155	12508 108 306 1510 20.206 21.859967542353 4 0.2 0.7 1.8 0.98
414156	12616 100 390 1721 20.307 22.413508211418 4 3 9 21 135
414157	12716 146 390 1721 20.307 22.413508211418 4 0.25 0.9142857119441 2.2428571209311 1.5188775334431
414158	12862 106 390 1721 20.307 22.413508211418 4 0.3 1 2.4 1.74
414159	12968 222 312 2108 20.208 24.542960287298 8 2 10 38 242
414160	13190 340 312 2108 20.208 24.542960287298 8 0.11111110448837 0.9545454531908 5.98179012537 5.0548026319469
414161	13530 237 312 2108 20.208 24.542960287298 8 0.2 1.1 4.5 3.21
414162	13767 71 220 1651 20.109 22.215561745293 3 1 16 20 266
414163	13838 115 220 1651 20.109 22.215561745293 3 0.39999997615814 0.79999999701977 1.6838709563017 1.0341311044673
414164	13953 76 220 1651 20.109 22.215561745293 3 0.1 1.7 2.2 3.06
414165	14029 66 45 706 20.01 20.711660449663 3 0 3 5 13
414166	14095 96 45 706 20.01 20.711660449663 3 0.39999997615814 1 1.9999999701977 1.519999973774
414167	14191 70 45 706 20.01 20.711660449663 3 0 0.4 0.7 0.25
414168	14261 321 469 2139 20.411 24.858474626895 11 1 10 38 200
414169	14582 474 469 2139 20.411 24.858474626895 11 0.19999998807907 0.97826086916029 9.0539689976722 8.1154364784296
414170	15056 342 469 2139 20.411 24.858474626895 11 0.2 1.1 4.8 2.78
414171	15398 161 475 1763 20.412 22.522723437927 6 1 8 20 102
414172	15559 242 475 1763 20.412 22.522723437927 6 0.19999998807907 0.96875 4.1957629546523 3.5908036514875
414173	15801 173 475 1763 20.412 22.522723437927 6 0.2 0.9 2.5 1.39
414174	15974 98 403 1183 20.313 21.330501119239 4 1 4 10 30
414175	16072 147 403 1183 20.313 21.330501119239 4 0.39999997615814 0.875 2.536904707551 1.8037428645847
414176	16219 106 403 1183 20.313 21.330501119239 4 0.2 0.5 1.3 0.47
414177	16325 70 481 1165 20.414 21.317621646049 3 2 5 11 45
414178	16395 104 481 1165 20.414 21.317621646049 3 0.19999998807907 0.81818181276321 1.3931818008423 0.85004647396813
414179	16499 76 481 1165 20.414 21.317621646049 3 0.3 0.6 1.3 0.61
414180	16575 100 486 1423 20.415 21.731691544389 4 2 4 14 52
414181	16675 160 486 1423 20.415 21.731691544389 4 0.19999998807907 0.82608695328236 2.2546583414078 1.5460930923388
414182	16835 108 486 1423 20.415 21.731691544389 4 0.3 0.5 1.7 0.75
414183	16943 252 491 2121 20.416 24.658034915629 9 1 10 38 222
414184	17195 385 491 2121 20.416 24.658034915629 9 0.19999998807907 0.97916666604578 7.0419960971922 6.0994306039589
414185	17580 269 491 2121 20.416 24.658034915629 9 0.2 1.1 4.6 2.98
414186	17849 70 326 1522 20.217 21.917043817267 3 2 9 17 121
414187	17919 115 326 1522 20.217 21.917043817267 3 0.14285713434219 0.65384614467621 1.3967032730579 0.80792293458785
414188	18034 74 326 1522 20.217 21.917043817267 3 0.2 1 1.9 1.53
414189	18108 129 77 1620 20.018 22.138392662204 5 0 7 17 91
414190	18237 173 77 1620 20.018 22.138392662204 5 0 1 3.3571428470314 2.9535827500118
414191	18410 137 77 1620 20.018 22.138392662204 5 0 0.8 2.1 1.29
414192	18547 193 1409 2130 21.719 24.741101047091 7 3 17 41 387
414193	18740 286 1409 2130 21.719 24.741101047091 7 0.26086956262589 0.92682927101851 5.6885360106826 4.9796807672297
414194	19026 206 1409 2130 21.719 24.741101047091 7 0.4 1.7 4.7 4.41
414195	19232 39 579 1098 20.52 21.22 2 5 6 11 61
414196	19271 54 579 1098 20.52 21.22 2 0 0.39999997615814 0.39999997615814 0.15999998092651
414197	19325 43 579 1098 20.52 21.22 2 0.5 0.7 1.2 0.74
414198	19368 161 651 1994 20.621 23.643324966094 6 1 13 31 265
414199	19529 249 651 1994 20.621 23.643324966094 6 -0.20000004768372 0.9772727265954 4.0502639245242 3.7909706753839
414200	19778 172 651 1994 20.621 23.643324966094 6 0.2 1.4 3.6 3.2
414201	19950 78 239 1198 20.122 21.33844553548 3 1 8 11 69
414202	20028 123 239 1198 20.122 21.33844553548 3 0.42857140302658 0.79999999701977 1.8285713940859 1.1836734355712
414203	20151 84 239 1198 20.122 21.33844553548 3 0.1 0.9 1.3 0.91
414204	20235 50 99 1053 20.023 21.135699374076 2 0 10 10 100
414205	20285 65 99 1053 20.023 21.135699374076 2 -0.11111116409302 1 0.88888883590698 1.0123456907861
414206	20350 51 99 1053 20.023 21.135699374076 2 0 1.1 1.1 1.21
414207	20401 251 503 2055 20.424 24.058020323282 9 1 8 32 158
414208	20652 376 503 2055 20.424 24.058020323282 9 0.19999998807907 0.97560975700617 6.9155491068959 6.0198241943297
414209	21028 269 503 2055 20.424 24.058020323282 9 0.2 0.9 4 2.22
414210	21297 371 1106 2201 21.225 26.274542527791 13 2 12 50 292
414211	21668 566 1106 2201 21.225 26.274542527791 13 -0.20000004768372 0.96226415038109 10.87723666802 10.296547577599
414212	22234 396 1106 2201 21.225 26.274542527791 13 0.3 1.2 6.2 3.8
414213	22630 192 1472 1938 21.826 23.341605015699 7 1 18 27 339
414214	22822 295 1472 1938 21.826 23.341605015699 7 0.27999997138977 0.97674418613315 6.0414165630937 5.6117517117681
414215	23117 205 1472 1938 21.826 23.341605015699 7 0.2 1.8 3.3 3.63
414216	23322 72 250 1420 20.127 21.730553492061 3 1 11 15 131
414217	23394 117 250 1420 20.127 21.730553492061 3 0.083333313465118 0.86956521868706 1.7528985291719 1.403088105915
414218	23511 77 250 1420 20.127 21.730553492061 3 0.1 1.2 1.7 1.61
414219	23588 222 958 1850 21.028 22.858490325444 8 1 10 21 125
414220	23810 329 958 1850 21.028 22.858490325444 8 -0.25 0.97142857126892 6.3058952409774 6.2083299347942
414221	24139 235 958 1850 21.028 22.858490325444 8 0.2 1 2.8 1.54
414222	24374 70 256 1258 20.129 21.437474920927 3 1 8 12 74
414223	24444 90 256 1258 20.129 21.437474920927 3 0 0.8125 1.6124999970198 1.3001562452316
414224	24534 76 256 1258 20.129 21.437474920927 3 0.1 0.9 1.4 0.98
414225	24610 99 516 1676 20.43 22.251715994572 4 2 9 19 117
414226	24709 148 516 1676 20.43 22.251715994572 4 0.19999998807907 0.91666666418314 2.3916666284204 1.8059027493828
414227	24857 105 516 1676 20.43 22.251715994572 4 0.3 1 2.2 1.5
414228	24962 109 733 1506 20.731 21.859126894322 4 2 7 15 71
414229	25071 158 733 1506 20.731 21.859126894322 4 -0.16666662693024 0.88000000268221 2.2966667041183 2.059122205419
414230	25229 117 733 1506 20.731 21.859126894322 4 0.3 0.7 1.8 0.9
414231	25346 100 671 1341 20.632 21.559101587123 4 1 6 12 50
414232	25446 161 671 1341 20.632 21.559101587123 4 -0.20000004768372 0.89999999850988 2.2563909217715 2.0693453645829
414233	25607 108 671 1341 20.632 21.559101587123 4 0.2 0.6 1.5 0.65
414234	25715 312 1050 2166 21.133 25.269819644333 11 1 11 42 232
414235	26027 474 1050 2166 21.133 25.269819644333 11 -0.22222220897675 0.9772727265954 8.9575859084725 8.4979333072305
414236	26501 333 1050 2166 21.133 25.269819644333 11 0.2 1.1 5.2 3.04
414237	26834 519 433 2231 20.334 28.02306287394 18 1 12 62 312
414238	27353 774 433 2231 20.334 28.02306287394 18 0.39999997615814 0.98148148134351 15.441359750926 13.734623613275
414239	28127 554 433 2231 20.334 28.02306287394 18 0.2 1.3 7.9 4.47
414240	28681 72 743 1743 20.735 22.441680832842 3 4 11 22 186
414241	28753 117 743 1743 20.735 22.441680832842 3 -0.16666662693024 0.89189188927412 1.3323681280017 1.1918713660044
414242	28870 77 743 1743 20.735 22.441680832842 3 0.5 1.2 2.4 2.18
414243	28947 192 973 1686 21.036 22.273173278799 7 1 10 16 106
414244	29139 282 973 1686 21.036 22.273173278799 7 -0.25 0.96969696879387 5.4527149237692 5.4852293092832
414245	29421 203 973 1686 21.036 22.273173278799 7 0.2 1 2.2 1.24
414246	29624 159 155 1708 20.037 22.347254531824 6 0 6 18 78
414247	29783 221 155 1708 20.037 22.347254531824 6 0.19999998807907 1 4.3338140379637 3.6254583883143
414248	30004 169 155 1708 20.037 22.347254531824 6 0 0.7 2.3 1.19
414249	30173 42 272 1584 20.138 22.038 2 1 18 19 325
414250	30215 71 272 1584 20.138 22.038 2 0.35714286565781 0.79999999701977 1.1571428626776 0.7675510217219
414251	30286 45 272 1584 20.138 22.038 2 0.1 1.9 2 3.62
414252	30331 80 359 1383 20.239 21.651822331929 3 1 11 14 126
414253	30411 124 359 1383 20.239 21.651822331929 3 0.47619044780731 0.79999999701977 1.8761904388666 1.226757330662
414254	30535 85 359 1383 20.239 21.651822331929 3 0.2 1.2 1.6 1.52
414255	30620 108 364 1336 20.24 21.557626756455 4 2 4 12 38
414256	30728 168 364 1336 20.24 21.557626756455 4 0.33333331346512 0.83333332836628 2.46666662395 1.6555555101898
414257	30896 116 364 1336 20.24 21.557626756455 4 0.2 0.5 1.5 0.61
414258	31012 100 171 1339 20.041 21.558706295617 4 0 7 12 66
414259	31112 129 171 1339 20.041 21.558706295617 4 0 1 2.6807017400861 2.4352846818445
414260	31241 106 171 1339 20.041 21.558706295617 4 0 0.8 1.5 0.93
414261	31347 69 611 983 20.542 21.042604347674 3 1 5 8 30
414262	31416 87 611 983 20.542 21.042604347674 3 0 0.83333332836628 1.5833333283663 1.256944436166
414263	31503 75 611 983 20.542 21.042604347674 3 0.2 0.5 1 0.38
414264	31578 220 446 1923 20.343 23.257422091364 8 1 14 25 219
414265	31798 330 446 1923 20.343 23.257422091364 8 0.39999997615814 0.97619047574699 6.6290871948004 5.9410226704378
414266	32128 235 446 1923 20.343 23.257422091364 8 0.2 1.5 3.2 2.7
414267	32363 70 184 1276 20.044 21.451969051427 3 0 9 12 90
414268	32433 100 184 1276 20.044 21.451969051427 3 0.39999997615814 1 1.870588183403 1.3814532417245
414269	32533 72 184 1276 20.044 21.451969051427 3 0 1 1.4 1.16
414270	32605 101 763 1752 20.745 22.460674660868 4 1 8 21 139
414271	32706 162 763 1752 20.745 22.460674660868 4 -0.16666662693024 0.96000000089407 2.2808020338416 2.086752828593
414272	32868 109 763 1752 20.745 22.460674660868 4 0.2 0.9 2.4 1.7
414273	32977 167 284 1481 20.146 21.839549019032 6 1 5 12 36
414274	33144 257 284 1481 20.146 21.839549019032 6 0.16666668653488 0.94444444403052 4.5215873084962 3.8352913935517
414275	33401 179 284 1481 20.146 21.839549019032 6 0.1 0.6 1.7 0.63
414276	33580 100 544 1599 20.447 22.058296999765 4 2 6 17 81
414277	33680 160 544 1599 20.447 22.058296999765 4 0.19999998807907 0.86666665971279 2.3042145073414 1.6176550040108
414278	33840 108 544 1599 20.447 22.058296999765 4 0.3 0.7 2 1.1
414279	33948 100 290 1392 20.148 21.659864672058 4 1 8 13 75
414280	34048 159 290 1392 20.148 21.659864672058 4 0.11111110448837 0.9545454531908 2.689185962081 2.2417033798025
414281	34207 108 290 1392 20.148 21.659864672058 4 0.1 0.9 1.6 1.02
414282	34315 130 693 1757 20.649 22.463311720264 5 1 9 20 126
414283	34445 205 693 1757 20.649 22.463311720264 5 -0.20000004768372 0.9473684206605 3.0713315010071 2.7613530560652
414284	34650 138 693 1757 20.649 22.463311720264 5 0.2 1 2.4 1.58
414285	34788 338 845 2178 20.85 25.495744119668 12 2 8 43 185
414286	35126 517 845 2178 20.85 25.495744119668 12 -0.14285719394684 0.9473684206605 9.839602433145 9.1280536507311
414287	35643 362 845 2178 20.85 25.495744119668 12 0.3 0.8 5.4 2.66
417138	36005 1027 11 200 20 20.05 51 0 49 1225 40425
