file 226904 1369674129                                          
version 2
run Stability2-235-20130526-00:52:52-26640
attr configname Stability2
attr datetime 20130526-00:52:52
attr experiment Stability2
attr inifile omnetpp.ini
attr iterationvars $0=300
attr iterationvars2 "$0=300, $repetition=25"
attr measurement $0=300
attr network Network
attr processid 26640
attr repetition 25
attr replication #25
attr resultdir results
attr runnumber 235
attr seedset 235
vector 708235  Network.churner  inGoingSizeSig:vector  ETV
708235	220386 6518 11 1382 20 20.3 301 0 299 44850 8955050
vector 705247  Network.dyn_peer[4]  lookupHopsSig:vector  ETV
705247	61173 101 30 7522 20.005 22.023722171144 4 0 11 17 141
vector 705248  Network.dyn_peer[4]  lookupStabilitySig:vector  ETV
705248	61274 145 30 7522 20.005 22.023722171144 4 0.19999998807907 1 2.2499999701977 1.6024999773502
vector 705249  Network.dyn_peer[4]  lookupTimeSig:vector  ETV
705249	61419 106 30 7522 20.005 22.023722171144 4 0 1.2 2 1.78
vector 705250  Network.dyn_peer[5]  lookupHopsSig:vector  ETV
705250	61525 134 37 15322 20.006 24.518301616775 5 0 16 41 473
vector 705251  Network.dyn_peer[5]  lookupStabilitySig:vector  ETV
705251	61659 192 37 15322 20.006 24.518301616775 5 -0.20000004768372 1 3.0766558721662 2.8587213946084
vector 705252  Network.dyn_peer[5]  lookupTimeSig:vector  ETV
705252	61851 138 37 15322 20.006 24.518301616775 5 0 1.7 4.5 5.59
vector 705277  Network.dyn_peer[14]  lookupHopsSig:vector  ETV
705277	65187 101 68 9228 20.015 22.528028349987 4 0 13 22 222
vector 705278  Network.dyn_peer[14]  lookupStabilitySig:vector  ETV
705278	65288 145 68 9228 20.015 22.528028349987 4 -1.1666667461395 1 1.4570706188679 3.6794525230357
vector 705279  Network.dyn_peer[14]  lookupTimeSig:vector  ETV
705279	65433 106 68 9228 20.015 22.528028349987 4 0 1.4 2.5 2.69
vector 705280  Network.dyn_peer[15]  lookupHopsSig:vector  ETV
705280	65539 166 75 17187 20.016 25.353601078779 6 0 14 45 469
vector 705281  Network.dyn_peer[15]  lookupStabilitySig:vector  ETV
705281	65705 238 75 17187 20.016 25.353601078779 6 -0.42857146263123 1 3.582125723362 3.6332112316932
vector 705282  Network.dyn_peer[15]  lookupTimeSig:vector  ETV
705282	65943 173 75 17187 20.016 25.353601078779 6 0 1.5 5 5.64
vector 705313  Network.dyn_peer[26]  lookupHopsSig:vector  ETV
705313	70096 167 112 18592 20.027 26.149802317326 6 0 20 56 760
vector 705314  Network.dyn_peer[26]  lookupStabilitySig:vector  ETV
705314	70263 226 112 18592 20.027 26.149802317326 6 -1 1 3.5669152587652 5.2192946591216
vector 705315  Network.dyn_peer[26]  lookupTimeSig:vector  ETV
705315	70489 175 112 18592 20.027 26.149802317326 6 0 2.1 6.1 8.77
vector 705361  Network.dyn_peer[42]  lookupHopsSig:vector  ETV
705361	79345 105 164 15907 20.043 24.757763863146 4 0 23 44 790
vector 705362  Network.dyn_peer[42]  lookupStabilitySig:vector  ETV
705362	79450 148 164 15907 20.043 24.757763863146 4 0.32352942228317 1 3.0970050022006 2.686380990662
vector 705363  Network.dyn_peer[42]  lookupTimeSig:vector  ETV
705363	79598 109 164 15907 20.043 24.757763863146 4 0 2.4 4.7 8.81
vector 705379  Network.dyn_peer[48]  lookupHopsSig:vector  ETV
705379	82141 103 186 14892 20.049 24.361484035472 4 0 24 40 706
vector 705380  Network.dyn_peer[48]  lookupStabilitySig:vector  ETV
705380	82244 147 186 14892 20.049 24.361484035472 4 0.35135138034821 1 3.1417982205749 2.7266823506622
vector 705381  Network.dyn_peer[48]  lookupTimeSig:vector  ETV
705381	82391 106 186 14892 20.049 24.361484035472 4 0 2.5 4.3 7.89
vector 705532  Network.dyn_peer[99]  lookupHopsSig:vector  ETV
705532	106562 39 343 16212 20.1 24.9 2 0 47 47 2209
vector 705533  Network.dyn_peer[99]  lookupStabilitySig:vector  ETV
705533	106601 53 343 16212 20.1 24.9 2 0.66428571939468 1 1.6642857193947 1.4412755169917
vector 705534  Network.dyn_peer[99]  lookupTimeSig:vector  ETV
705534	106654 40 343 16212 20.1 24.9 2 0 4.8 4.8 23.04
vector 705241  Network.dyn_peer[2]  lookupHopsSig:vector  ETV
705241	59993 72 357 9830 20.103 22.712472696888 3 1 17 25 339
vector 705242  Network.dyn_peer[2]  lookupStabilitySig:vector  ETV
705242	60065 107 357 9830 20.103 22.712472696888 3 -0.0625 0.83720929920673 1.5747092962265 1.3448256559099
vector 705243  Network.dyn_peer[2]  lookupTimeSig:vector  ETV
705243	60172 77 357 9830 20.103 22.712472696888 3 0.1 1.8 2.7 3.89
vector 705256  Network.dyn_peer[7]  lookupHopsSig:vector  ETV
705256	62573 106 381 13609 20.108 23.915231540141 4 1 14 36 418
vector 705257  Network.dyn_peer[7]  lookupStabilitySig:vector  ETV
705257	62679 152 381 13609 20.108 23.915231540141 4 -0.75 0.87341772019863 1.6893751621246 2.5520493165959
vector 705258  Network.dyn_peer[7]  lookupTimeSig:vector  ETV
705258	62831 111 381 13609 20.108 23.915231540141 4 0.1 1.5 3.9 4.91
vector 705286  Network.dyn_peer[17]  lookupHopsSig:vector  ETV
705286	66487 230 426 20836 20.118 28.247717932019 8 1 14 74 834
vector 705287  Network.dyn_peer[17]  lookupStabilitySig:vector  ETV
705287	66717 346 426 20836 20.118 28.247717932019 8 -1.2000000476837 0.95121951401234 4.8918150886894 6.7985006876953
vector 705288  Network.dyn_peer[17]  lookupTimeSig:vector  ETV
705288	67063 238 426 20836 20.118 28.247717932019 8 0.1 1.5 8.1 9.87
vector 705289  Network.dyn_peer[18]  lookupHopsSig:vector  ETV
705289	67301 42 434 8847 20.119 22.419 2 1 22 23 485
vector 705290  Network.dyn_peer[18]  lookupStabilitySig:vector  ETV
705290	67343 71 434 8847 20.119 22.419 2 0.33333331346512 0.79999999701977 1.1333333104849 0.75111109309727
vector 705291  Network.dyn_peer[18]  lookupTimeSig:vector  ETV
705291	67414 45 434 8847 20.119 22.419 2 0.1 2.3 2.4 5.3
vector 705295  Network.dyn_peer[20]  lookupHopsSig:vector  ETV
705295	67615 137 446 18076 20.121 25.834888218574 5 1 26 54 952
vector 705296  Network.dyn_peer[20]  lookupStabilitySig:vector  ETV
705296	67752 210 446 18076 20.121 25.834888218574 5 0.44680851697922 0.96350365132093 4.0177312605083 3.4056959395201
vector 705297  Network.dyn_peer[20]  lookupTimeSig:vector  ETV
705297	67962 143 446 18076 20.121 25.834888218574 5 0.1 2.7 5.8 10.62
vector 705301  Network.dyn_peer[22]  lookupHopsSig:vector  ETV
705301	68470 72 458 9561 20.123 22.630512510681 3 1 21 24 446
vector 705302  Network.dyn_peer[22]  lookupStabilitySig:vector  ETV
705302	68542 116 458 9561 20.123 22.630512510681 3 0.46153843402863 0.79999999701977 1.8615384250879 1.2130177141647
vector 705303  Network.dyn_peer[22]  lookupTimeSig:vector  ETV
705303	68658 77 458 9561 20.123 22.630512510681 3 0.1 2.2 2.6 4.94
vector 705319  Network.dyn_peer[28]  lookupHopsSig:vector  ETV
705319	71595 175 488 18666 20.129 26.198899729005 6 1 14 44 492
vector 705320  Network.dyn_peer[28]  lookupStabilitySig:vector  ETV
705320	71770 263 488 18666 20.129 26.198899729005 6 0.33333331346512 0.98514851462096 4.3463968886063 3.5524166379148
vector 705321  Network.dyn_peer[28]  lookupTimeSig:vector  ETV
705321	72033 183 488 18666 20.129 26.198899729005 6 0.1 1.5 4.9 5.83
vector 705331  Network.dyn_peer[32]  lookupHopsSig:vector  ETV
705331	74432 105 508 15887 20.133 24.749105205251 4 1 21 44 782
vector 705332  Network.dyn_peer[32]  lookupStabilitySig:vector  ETV
705332	74537 163 508 15887 20.133 24.749105205251 4 0.30000001192093 0.96899224817753 2.8711900562048 2.3124672882717
vector 705333  Network.dyn_peer[32]  lookupTimeSig:vector  ETV
705333	74700 111 508 15887 20.133 24.749105205251 4 0.1 2.2 4.7 8.71
vector 705334  Network.dyn_peer[33]  lookupHopsSig:vector  ETV
705334	74811 228 516 19427 20.134 26.768516395749 8 1 19 60 698
vector 705335  Network.dyn_peer[33]  lookupStabilitySig:vector  ETV
705335	75039 346 516 19427 20.134 26.768516395749 8 0.13636362552643 0.96788990870118 6.5429590605199 5.899251762985
vector 705336  Network.dyn_peer[33]  lookupTimeSig:vector  ETV
705336	75385 240 516 19427 20.134 26.768516395749 8 0.1 2 6.7 8.23
vector 705376  Network.dyn_peer[47]  lookupHopsSig:vector  ETV
705376	81548 166 579 20855 20.148 28.27116751303 6 1 43 77 2279
vector 705377  Network.dyn_peer[47]  lookupStabilitySig:vector  ETV
705377	81714 253 579 20855 20.148 28.27116751303 6 0.13636362552643 0.98418972268701 4.6728988140821 4.1748124174343
vector 705378  Network.dyn_peer[47]  lookupTimeSig:vector  ETV
705378	81967 174 579 20855 20.148 28.27116751303 6 0.1 4.4 8.2 24.36
vector 705382  Network.dyn_peer[49]  lookupHopsSig:vector  ETV
705382	82497 102 591 12239 20.15 23.464139647688 4 1 17 31 379
vector 705383  Network.dyn_peer[49]  lookupStabilitySig:vector  ETV
705383	82599 162 591 12239 20.15 23.464139647688 4 -0.60000002384186 0.91935484111309 1.7576526999474 2.2526375385533
vector 705384  Network.dyn_peer[49]  lookupTimeSig:vector  ETV
705384	82761 109 591 12239 20.15 23.464139647688 4 0.1 1.8 3.4 4.42
vector 705418  Network.dyn_peer[61]  lookupHopsSig:vector  ETV
705418	88321 101 643 8035 20.162 22.172326507286 4 1 9 18 122
vector 705419  Network.dyn_peer[61]  lookupStabilitySig:vector  ETV
705419	88422 162 643 8035 20.162 22.172326507286 4 -0.79999995231628 0.79999999701977 1.3939394205809 2.253369958149
vector 705420  Network.dyn_peer[61]  lookupTimeSig:vector  ETV
705420	88584 107 643 8035 20.162 22.172326507286 4 0.1 1 2.1 1.59
vector 705427  Network.dyn_peer[64]  lookupHopsSig:vector  ETV
705427	89580 194 659 18308 20.165 25.972614822029 7 1 9 30 182
vector 705428  Network.dyn_peer[64]  lookupStabilitySig:vector  ETV
705428	89774 286 659 18308 20.165 25.972614822029 7 -0.39999997615814 0.99099099077284 4.5522956717759 4.4269617834916
vector 705429  Network.dyn_peer[64]  lookupTimeSig:vector  ETV
705429	90060 206 659 18308 20.165 25.972614822029 7 0.1 1 3.6 2.46
vector 705430  Network.dyn_peer[65]  lookupHopsSig:vector  ETV
705430	90266 166 667 18638 20.166 26.183407311173 6 1 18 56 672
vector 705431  Network.dyn_peer[65]  lookupStabilitySig:vector  ETV
705431	90432 252 667 18638 20.166 26.183407311173 6 0.18181818723679 0.95522388070822 4.5988096892834 3.9540589300846
vector 705432  Network.dyn_peer[65]  lookupTimeSig:vector  ETV
705432	90684 172 667 18638 20.166 26.183407311173 6 0.1 1.9 6.1 7.87
vector 705433  Network.dyn_peer[66]  lookupHopsSig:vector  ETV
705433	90856 110 676 7046 20.167 21.883959448686 4 1 7 15 79
vector 705434  Network.dyn_peer[66]  lookupStabilitySig:vector  ETV
705434	90966 142 676 7046 20.167 21.883959448686 4 0 0.79999999701977 1.8999999910593 1.2499999880791
vector 705435  Network.dyn_peer[66]  lookupTimeSig:vector  ETV
705435	91108 118 676 7046 20.167 21.883959448686 4 0.1 0.8 1.8 1.1
vector 705448  Network.dyn_peer[71]  lookupHopsSig:vector  ETV
705448	92954 168 701 19685 20.172 26.993736577764 6 1 21 64 904
vector 705449  Network.dyn_peer[71]  lookupStabilitySig:vector  ETV
705449	93122 246 701 19685 20.172 26.993736577764 6 0.34375 0.94478527456522 4.7896096855402 4.085544478421
vector 705450  Network.dyn_peer[71]  lookupTimeSig:vector  ETV
705450	93368 175 701 19685 20.172 26.993736577764 6 0.1 2.2 6.9 10.35
vector 705496  Network.dyn_peer[87]  lookupHopsSig:vector  ETV
705496	100179 229 769 20025 20.188 27.31488791875 8 1 29 65 1103
vector 705497  Network.dyn_peer[87]  lookupStabilitySig:vector  ETV
705497	100408 346 769 20025 20.188 27.31488791875 8 0.47272729873657 0.9834254141897 7.0298901051283 6.3901074571749
vector 705498  Network.dyn_peer[87]  lookupTimeSig:vector  ETV
705498	100754 239 769 20025 20.188 27.31488791875 8 0.1 3 7.2 12.38
vector 705253  Network.dyn_peer[6]  lookupHopsSig:vector  ETV
705253	61989 166 857 18059 20.207 25.826469526736 6 2 15 53 627
vector 705254  Network.dyn_peer[6]  lookupStabilitySig:vector  ETV
705254	62155 243 857 18059 20.207 25.826469526736 6 0.19999998807907 0.93406593054533 3.7398123815656 2.8136187853556
vector 705255  Network.dyn_peer[6]  lookupTimeSig:vector  ETV
705255	62398 175 857 18059 20.207 25.826469526736 6 0.2 1.6 5.8 7.34
vector 705556  Network.dyn_peer[107]  lookupHopsSig:vector  ETV
705556	110135 144 866 15352 20.208 24.531917637454 5 1 24 40 654
vector 705557  Network.dyn_peer[107]  lookupStabilitySig:vector  ETV
705557	110279 217 866 15352 20.208 24.531917637454 5 0.45454543828964 0.94871794804931 4.0658860392869 3.4818745352926
vector 705558  Network.dyn_peer[107]  lookupTimeSig:vector  ETV
705558	110496 153 866 15352 20.208 24.531917637454 5 0.1 2.5 4.4 7.36
vector 705259  Network.dyn_peer[8]  lookupHopsSig:vector  ETV
705259	62942 104 875 12712 20.209 23.613117887976 4 2 17 33 409
vector 705260  Network.dyn_peer[8]  lookupStabilitySig:vector  ETV
705260	63046 162 875 12712 20.209 23.613117887976 4 0.14999997615814 0.88888888806105 2.4980437830091 1.910770625736
vector 705261  Network.dyn_peer[8]  lookupTimeSig:vector  ETV
705261	63208 110 875 12712 20.209 23.613117887976 4 0.2 1.8 3.6 4.74
vector 705274  Network.dyn_peer[13]  lookupHopsSig:vector  ETV
705274	64703 135 905 17726 20.214 25.63440512492 5 2 21 52 734
vector 705275  Network.dyn_peer[13]  lookupStabilitySig:vector  ETV
705275	64838 208 905 17726 20.214 25.63440512492 5 0.36363637447357 0.94705882295966 3.6783277802169 2.9521677627709
vector 705276  Network.dyn_peer[13]  lookupTimeSig:vector  ETV
705276	65046 141 905 17726 20.214 25.63440512492 5 0.2 2.2 5.6 8.38
vector 705304  Network.dyn_peer[23]  lookupHopsSig:vector  ETV
705304	68735 107 960 19119 20.224 26.530253364157 4 2 30 62 1386
vector 705305  Network.dyn_peer[23]  lookupStabilitySig:vector  ETV
705305	68842 164 960 19119 20.224 26.530253364157 4 0.49152541160583 0.94711538404226 2.9160601422191 2.2684894939879
vector 705306  Network.dyn_peer[23]  lookupTimeSig:vector  ETV
705306	69006 110 960 19119 20.224 26.530253364157 4 0.2 3.1 6.5 15.09
vector 705604  Network.dyn_peer[123]  lookupHopsSig:vector  ETV
705604	117793 113 964 12167 20.224 23.443695559936 4 1 18 30 426
vector 705605  Network.dyn_peer[123]  lookupStabilitySig:vector  ETV
705605	117906 170 964 12167 20.224 23.443695559936 4 0.18181818723679 0.9666666649282 2.7845504246652 2.3065079360286
vector 705606  Network.dyn_peer[123]  lookupTimeSig:vector  ETV
705606	118076 119 964 12167 20.224 23.443695559936 4 0.1 1.9 3.3 4.87
vector 705655  Network.dyn_peer[140]  lookupHopsSig:vector  ETV
705655	124781 73 1055 8970 20.241 22.450309136156 3 1 14 21 233
vector 705656  Network.dyn_peer[140]  lookupStabilitySig:vector  ETV
705656	124854 118 1055 8970 20.241 22.450309136156 3 -0.20000004768372 0.79999999701977 1.1882352381945 1.0260207693635
vector 705657  Network.dyn_peer[140]  lookupTimeSig:vector  ETV
705657	124972 78 1055 8970 20.241 22.450309136156 3 0.1 1.5 2.3 2.75
vector 705358  Network.dyn_peer[41]  lookupHopsSig:vector  ETV
705358	78858 135 1064 16475 20.242 25.011709294096 5 2 23 45 707
vector 705359  Network.dyn_peer[41]  lookupStabilitySig:vector  ETV
705359	78993 209 1064 16475 20.242 25.011709294096 5 -0.39999997615814 0.84137931466103 2.35190564394 2.0927667654192
vector 705360  Network.dyn_peer[41]  lookupTimeSig:vector  ETV
705360	79202 143 1064 16475 20.242 25.011709294096 5 0.2 2.4 4.9 7.97
vector 705388  Network.dyn_peer[51]  lookupHopsSig:vector  ETV
705388	83691 136 1120 14897 20.252 24.362775438281 5 2 18 39 483
vector 705389  Network.dyn_peer[51]  lookupStabilitySig:vector  ETV
705389	83827 209 1120 14897 20.252 24.362775438281 5 0.18181818723679 0.91891892254353 3.4987168982625 2.8540395636502
vector 705390  Network.dyn_peer[51]  lookupTimeSig:vector  ETV
705390	84036 144 1120 14897 20.252 24.362775438281 5 0.2 1.9 4.3 5.61
vector 705691  Network.dyn_peer[152]  lookupHopsSig:vector  ETV
705691	131075 136 1129 17557 20.253 25.541626804194 5 1 19 47 751
vector 705692  Network.dyn_peer[152]  lookupStabilitySig:vector  ETV
705692	131211 207 1129 17557 20.253 25.541626804194 5 0.18181818723679 0.9666666649282 3.7177425511181 3.1726490569851
vector 705693  Network.dyn_peer[152]  lookupTimeSig:vector  ETV
705693	131418 142 1129 17557 20.253 25.541626804194 5 0.1 2 5.1 8.47
vector 705394  Network.dyn_peer[53]  lookupHopsSig:vector  ETV
705394	84455 72 1138 7303 20.254 21.957663582783 3 2 8 17 117
vector 705395  Network.dyn_peer[53]  lookupStabilitySig:vector  ETV
705395	84527 117 1138 7303 20.254 21.957663582783 3 -0.39999997615814 0.59999999403954 0.7294117808342 0.80027678852675
vector 705396  Network.dyn_peer[53]  lookupTimeSig:vector  ETV
705396	84644 78 1138 7303 20.254 21.957663582783 3 0.2 0.9 1.9 1.49
vector 705412  Network.dyn_peer[59]  lookupHopsSig:vector  ETV
705412	87464 166 1172 15965 20.26 24.787972272951 6 2 15 42 438
vector 705413  Network.dyn_peer[59]  lookupStabilitySig:vector  ETV
705413	87630 256 1172 15965 20.26 24.787972272951 6 -0.071428537368774 0.97647058777511 4.1771490406245 3.7166355995968
vector 705414  Network.dyn_peer[59]  lookupTimeSig:vector  ETV
705414	87886 176 1172 15965 20.26 24.787972272951 6 0.2 1.6 4.7 5.23
vector 705721  Network.dyn_peer[162]  lookupHopsSig:vector  ETV
705721	137398 75 1191 11914 20.263 23.364400576659 3 1 25 30 642
vector 705722  Network.dyn_peer[162]  lookupStabilitySig:vector  ETV
705722	137473 119 1191 11914 20.263 23.364400576659 3 0.46808511018753 0.93220338970423 2.2002884969115 1.728106825387
vector 705723  Network.dyn_peer[162]  lookupTimeSig:vector  ETV
705723	137592 80 1191 11914 20.263 23.364400576659 3 0.1 2.6 3.2 7.02
vector 705451  Network.dyn_peer[72]  lookupHopsSig:vector  ETV
705451	93543 105 1246 14079 20.273 24.080011069014 4 2 16 37 481
vector 705452  Network.dyn_peer[72]  lookupStabilitySig:vector  ETV
705452	93648 155 1246 14079 20.273 24.080011069014 4 -0.27272725105286 0.84375 1.9827874451876 1.8052561405536
vector 705453  Network.dyn_peer[72]  lookupTimeSig:vector  ETV
705453	93803 111 1246 14079 20.273 24.080011069014 4 0.2 1.7 4 5.54
vector 705235  Network.dyn_peer[0]  lookupHopsSig:vector  ETV
705235	59230 105 1391 14592 20.301 24.258650159766 4 3 22 38 602
vector 705236  Network.dyn_peer[0]  lookupStabilitySig:vector  ETV
705236	59335 163 1391 14592 20.301 24.258650159766 4 0.39999997615814 0.89010988920927 2.2587372884154 1.4356327500777
vector 705237  Network.dyn_peer[0]  lookupTimeSig:vector  ETV
705237	59498 111 1391 14592 20.301 24.258650159766 4 0.3 2.3 4.1 6.75
vector 705238  Network.dyn_peer[1]  lookupHopsSig:vector  ETV
705238	59609 106 1398 16467 20.302 25.009868679663 4 3 32 47 1113
vector 705239  Network.dyn_peer[1]  lookupStabilitySig:vector  ETV
705239	59715 165 1398 16467 20.302 25.009868679663 4 0.39999997615814 0.95402298867702 2.8477631919086 2.2638610089796
vector 705240  Network.dyn_peer[1]  lookupTimeSig:vector  ETV
705240	59880 113 1398 16467 20.302 25.009868679663 4 0.3 3.3 5 12.04
vector 705553  Network.dyn_peer[106]  lookupHopsSig:vector  ETV
705553	109861 76 1418 15303 20.307 24.509359953771 3 2 25 42 854
vector 705554  Network.dyn_peer[106]  lookupStabilitySig:vector  ETV
705554	109937 118 1418 15303 20.307 24.509359953771 3 0.46808511018753 0.8660714328289 1.934156537056 1.329183389989
vector 705555  Network.dyn_peer[106]  lookupTimeSig:vector  ETV
705555	110055 80 1418 15303 20.307 24.509359953771 3 0.2 2.6 4.4 9.36
vector 705262  Network.dyn_peer[9]  lookupHopsSig:vector  ETV
705262	63318 41 1431 6432 20.31 21.71 2 3 13 16 178
vector 705263  Network.dyn_peer[9]  lookupStabilitySig:vector  ETV
705263	63359 71 1431 6432 20.31 21.71 2 -0.29999995231628 0.39999997615814 0.10000002384186 0.24999995231628
vector 705264  Network.dyn_peer[9]  lookupTimeSig:vector  ETV
705264	63430 44 1431 6432 20.31 21.71 2 0.3 1.4 1.7 2.05
vector 705271  Network.dyn_peer[12]  lookupHopsSig:vector  ETV
705271	64110 169 1445 18728 20.313 26.241405544956 6 3 18 57 731
vector 705272  Network.dyn_peer[12]  lookupStabilitySig:vector  ETV
705272	64279 246 1445 18728 20.313 26.241405544956 6 0.0625 0.98514851462096 4.1022578245029 3.503809808911
vector 705273  Network.dyn_peer[12]  lookupTimeSig:vector  ETV
705273	64525 178 1445 18728 20.313 26.241405544956 6 0.3 1.9 6.2 8.44
vector 705598  Network.dyn_peer[121]  lookupHopsSig:vector  ETV
705598	117042 108 1477 18859 20.322 26.334938729032 4 2 24 59 1125
vector 705599  Network.dyn_peer[121]  lookupStabilitySig:vector  ETV
705599	117150 165 1477 18859 20.322 26.334938729032 4 0.48936170339584 0.92118226736784 2.8734471872449 2.1926536106111
vector 705600  Network.dyn_peer[121]  lookupTimeSig:vector  ETV
705600	117315 113 1477 18859 20.322 26.334938729032 4 0.2 2.5 6.2 12.42
vector 705901  Network.dyn_peer[222]  lookupHopsSig:vector  ETV
705901	174083 104 1484 17891 20.323 25.732184177336 4 1 30 52 1134
vector 705902  Network.dyn_peer[222]  lookupStabilitySig:vector  ETV
705902	174187 163 1484 17891 20.323 25.732184177336 4 -0.18181812763214 0.83050847053528 2.2435621321201 1.994623312429
vector 705903  Network.dyn_peer[222]  lookupTimeSig:vector  ETV
705903	174350 110 1484 17891 20.323 25.732184177336 4 0.1 3.1 5.5 12.39
vector 705325  Network.dyn_peer[30]  lookupHopsSig:vector  ETV
705325	73013 234 1511 21812 20.331 30.248377312199 8 3 24 95 1391
vector 705326  Network.dyn_peer[30]  lookupStabilitySig:vector  ETV
705326	73247 343 1511 21812 20.331 30.248377312199 8 0.39999997615814 0.97047970443964 6.5039150826633 5.6626825827263
vector 705327  Network.dyn_peer[30]  lookupTimeSig:vector  ETV
705327	73590 243 1511 21812 20.331 30.248377312199 8 0.3 2.5 10.2 15.82
vector 705328  Network.dyn_peer[31]  lookupHopsSig:vector  ETV
705328	73833 167 1518 16567 20.332 25.055453429232 6 1 20 45 613
vector 705329  Network.dyn_peer[31]  lookupStabilitySig:vector  ETV
705329	74000 255 1518 16567 20.332 25.055453429232 6 0.39999997615814 0.98795180767775 4.5715304911137 3.8789213688909
vector 705330  Network.dyn_peer[31]  lookupTimeSig:vector  ETV
705330	74255 177 1518 16567 20.332 25.055453429232 6 0.2 2.1 5 7.02
vector 705628  Network.dyn_peer[131]  lookupHopsSig:vector  ETV
705628	121761 74 1522 11529 20.332 23.241038053904 3 2 19 29 429
vector 705629  Network.dyn_peer[131]  lookupStabilitySig:vector  ETV
705629	121835 118 1522 11529 20.332 23.241038053904 3 0.36666667461395 0.85964912176132 1.8263157904148 1.2334410556649
vector 705630  Network.dyn_peer[131]  lookupTimeSig:vector  ETV
705630	121953 77 1522 11529 20.332 23.241038053904 3 0.2 2 3.1 4.85
vector 705340  Network.dyn_peer[35]  lookupHopsSig:vector  ETV
705340	75899 107 1538 20691 20.336 28.050393066695 4 3 35 77 1995
vector 705341  Network.dyn_peer[35]  lookupStabilitySig:vector  ETV
705341	76006 163 1538 20691 20.336 28.050393066695 4 0.39999997615814 0.8582995980978 2.4957523345947 1.7479891376217
vector 705342  Network.dyn_peer[35]  lookupTimeSig:vector  ETV
705342	76169 110 1538 20691 20.336 28.050393066695 4 0.3 3.6 8 21.46
vector 705640  Network.dyn_peer[135]  lookupHopsSig:vector  ETV
705640	123687 43 1542 6876 20.336 21.836 2 2 14 16 200
vector 705641  Network.dyn_peer[135]  lookupStabilitySig:vector  ETV
705641	123730 73 1542 6876 20.336 21.836 2 -0.16666662693024 0.59999999403954 0.4333333671093 0.38777775737975
vector 705642  Network.dyn_peer[135]  lookupTimeSig:vector  ETV
705642	123803 46 1542 6876 20.336 21.836 2 0.2 1.5 1.7 2.29
vector 705346  Network.dyn_peer[37]  lookupHopsSig:vector  ETV
705346	76644 75 1552 14834 20.338 24.34320078507 3 3 28 41 893
vector 705347  Network.dyn_peer[37]  lookupStabilitySig:vector  ETV
705347	76719 118 1552 14834 20.338 24.34320078507 3 0.39999997615814 0.89583333581686 1.8046052381396 1.2213662193405
vector 705348  Network.dyn_peer[37]  lookupTimeSig:vector  ETV
705348	76837 79 1552 14834 20.338 24.34320078507 3 0.3 2.9 4.3 9.71
vector 705679  Network.dyn_peer[148]  lookupHopsSig:vector  ETV
705679	128808 73 1592 7313 20.349 21.958836178068 3 1 13 16 174
vector 705680  Network.dyn_peer[148]  lookupStabilitySig:vector  ETV
705680	128881 117 1592 7313 20.349 21.958836178068 3 0.23529410362244 0.79999999701977 1.6352940946818 1.0553633032786
vector 705681  Network.dyn_peer[148]  lookupTimeSig:vector  ETV
705681	128998 78 1592 7313 20.349 21.958836178068 3 0.2 1.4 1.8 2.04
vector 705391  Network.dyn_peer[52]  lookupHopsSig:vector  ETV
705391	84180 76 1608 15417 20.353 24.555707230648 3 3 24 43 841
vector 705392  Network.dyn_peer[52]  lookupStabilitySig:vector  ETV
705392	84256 119 1608 15417 20.353 24.555707230648 3 0.39999997615814 0.86206896603107 1.751430645585 1.1426377598709
vector 705393  Network.dyn_peer[52]  lookupTimeSig:vector  ETV
705393	84375 80 1608 15417 20.353 24.555707230648 3 0.3 2.5 4.5 9.23
vector 705397  Network.dyn_peer[54]  lookupHopsSig:vector  ETV
705397	84722 199 1618 19668 20.355 26.978589028832 7 3 22 63 847
vector 705398  Network.dyn_peer[54]  lookupStabilitySig:vector  ETV
705398	84921 302 1618 19668 20.355 26.978589028832 7 0.39999997615814 0.97402597405016 5.5559790469706 4.8045520599054
vector 705399  Network.dyn_peer[54]  lookupTimeSig:vector  ETV
705399	85223 209 1618 19668 20.355 26.978589028832 7 0.3 2.3 6.9 9.73
vector 705403  Network.dyn_peer[56]  lookupHopsSig:vector  ETV
705403	86341 105 1628 16141 20.357 24.86607663081 4 3 19 45 647
vector 705404  Network.dyn_peer[56]  lookupStabilitySig:vector  ETV
705404	86446 163 1628 16141 20.357 24.86607663081 4 0.36666667461395 0.93478260934353 2.5219620764256 1.8415042396589
vector 705405  Network.dyn_peer[56]  lookupTimeSig:vector  ETV
705405	86609 107 1628 16141 20.357 24.86607663081 4 0.3 2 4.8 7.34
vector 705415  Network.dyn_peer[60]  lookupHopsSig:vector  ETV
705415	88062 75 1644 14041 20.361 24.068401099321 3 3 26 38 766
vector 705416  Network.dyn_peer[60]  lookupStabilitySig:vector  ETV
705416	88137 106 1644 14041 20.361 24.068401099321 3 0.39999997615814 0.89156626164913 1.7915662378073 1.2048903798375
vector 705417  Network.dyn_peer[60]  lookupTimeSig:vector  ETV
705417	88243 78 1644 14041 20.361 24.068401099321 3 0.3 2.7 4 8.38
vector 705424  Network.dyn_peer[63]  lookupHopsSig:vector  ETV
705424	89095 136 1657 19034 20.364 26.4704510781 5 3 20 60 934
vector 705425  Network.dyn_peer[63]  lookupStabilitySig:vector  ETV
705425	89231 208 1657 19034 20.364 26.4704510781 5 0.38709676265717 0.95169082283974 3.5079744718969 2.7889617154093
vector 705426  Network.dyn_peer[63]  lookupTimeSig:vector  ETV
705426	89439 141 1657 19034 20.364 26.4704510781 5 0.3 2.1 6.4 10.52
vector 705727  Network.dyn_peer[164]  lookupHopsSig:vector  ETV
705727	138035 106 1664 16365 20.365 24.968164605141 4 2 20 45 709
vector 705728  Network.dyn_peer[164]  lookupStabilitySig:vector  ETV
705728	138141 165 1664 16365 20.365 24.968164605141 4 -0.39999997615814 0.88732394576073 1.7424963712692 1.7365946422103
vector 705729  Network.dyn_peer[164]  lookupTimeSig:vector  ETV
705729	138306 112 1664 16365 20.365 24.968164605141 4 0.2 2.1 4.8 7.98
vector 706030  Network.dyn_peer[265]  lookupHopsSig:vector  ETV
706030	197729 75 1671 12877 20.366 23.671139190764 3 1 24 32 626
vector 706031  Network.dyn_peer[265]  lookupStabilitySig:vector  ETV
706031	197804 119 1671 12877 20.366 23.671139190764 3 0.48936170339584 0.90410958975554 2.1934712901711 1.69688902227
vector 706032  Network.dyn_peer[265]  lookupTimeSig:vector  ETV
706032	197923 80 1671 12877 20.366 23.671139190764 3 0.1 2.5 3.4 6.9
vector 705457  Network.dyn_peer[74]  lookupHopsSig:vector  ETV
705457	94186 106 1703 15736 20.375 24.683508059908 4 1 21 43 775
vector 705458  Network.dyn_peer[74]  lookupStabilitySig:vector  ETV
705458	94292 163 1703 15736 20.375 24.683508059908 4 0.39999997615814 0.99206349160522 2.663781597279 2.0355882579803
vector 705459  Network.dyn_peer[74]  lookupTimeSig:vector  ETV
705459	94455 112 1703 15736 20.375 24.683508059908 4 0.2 2.2 4.6 8.58
vector 705766  Network.dyn_peer[177]  lookupHopsSig:vector  ETV
705766	146082 137 1716 15506 20.378 24.590948505414 5 2 15 40 426
vector 705767  Network.dyn_peer[177]  lookupStabilitySig:vector  ETV
705767	146219 198 1716 15506 20.378 24.590948505414 5 -0.5 0.96610169485211 2.6498226039112 2.8143151376667
vector 705768  Network.dyn_peer[177]  lookupTimeSig:vector  ETV
705768	146417 143 1716 15506 20.378 24.590948505414 5 0.2 1.6 4.4 5.06
vector 705469  Network.dyn_peer[78]  lookupHopsSig:vector  ETV
705469	96317 75 1723 12294 20.379 23.481036700921 3 3 18 32 454
vector 705470  Network.dyn_peer[78]  lookupStabilitySig:vector  ETV
705470	96392 118 1723 12294 20.379 23.481036700921 3 0.33333331346512 0.82539682090282 1.5587301105261 0.95239099074863
vector 705471  Network.dyn_peer[78]  lookupTimeSig:vector  ETV
705471	96510 79 1723 12294 20.379 23.481036700921 3 0.3 1.9 3.4 5.14
vector 705514  Network.dyn_peer[93]  lookupHopsSig:vector  ETV
705514	103646 292 1772 21540 20.394 29.542903121409 10 2 19 85 1067
vector 705515  Network.dyn_peer[93]  lookupStabilitySig:vector  ETV
705515	103938 437 1772 21540 20.394 29.542903121409 10 0.27272725105286 0.9873417718336 8.1966363219544 7.3213463114074
vector 705516  Network.dyn_peer[93]  lookupTimeSig:vector  ETV
705516	104375 305 1772 21540 20.394 29.542903121409 10 0.3 2 9.4 12.4
vector 705520  Network.dyn_peer[95]  lookupHopsSig:vector  ETV
705520	105157 113 1783 13611 20.396 23.915602088107 4 3 22 35 543
vector 705521  Network.dyn_peer[95]  lookupStabilitySig:vector  ETV
705521	105270 146 1783 13611 20.396 23.915602088107 4 0 0.72151899337769 1.4965189695358 0.82121463873127
vector 705522  Network.dyn_peer[95]  lookupTimeSig:vector  ETV
705522	105416 120 1783 13611 20.396 23.915602088107 4 0.3 2.3 3.8 6.1
vector 705535  Network.dyn_peer[100]  lookupHopsSig:vector  ETV
705535	106694 137 1802 15045 20.401 24.416804961548 5 1 25 39 693
vector 705536  Network.dyn_peer[100]  lookupStabilitySig:vector  ETV
705536	106831 211 1802 15045 20.401 24.416804961548 5 0.39999997615814 0.99056603759527 3.7776593081653 3.1648405781259
vector 705537  Network.dyn_peer[100]  lookupTimeSig:vector  ETV
705537	107042 146 1802 15045 20.401 24.416804961548 5 0.2 2.6 4.3 7.69
vector 705844  Network.dyn_peer[203]  lookupHopsSig:vector  ETV
705844	162381 258 1815 20616 20.404 27.968399836258 9 2 11 54 388
vector 705845  Network.dyn_peer[203]  lookupStabilitySig:vector  ETV
705845	162639 382 1815 20616 20.404 27.968399836258 9 -0.375 0.97787610627711 6.7577119152993 6.626305445079