file 5208 1369674134                                            
version 2
run Stability2-5-20130526-00:51:08-26640
attr configname Stability2
attr datetime 20130526-00:51:08
attr experiment Stability2
attr inifile omnetpp.ini
attr iterationvars $0=10
attr iterationvars2 "$0=10, $repetition=5"
attr measurement $0=10
attr network Network
attr processid 26640
attr repetition 5
attr replication #5
attr resultdir results
attr runnumber 5
attr seedset 5
vector 18005  Network.churner  inGoingSizeSig:vector  ETV
18005	5015 193 11 54 20 20.01 11 0 9 45 285
vector 15008  Network.dyn_peer[1]  lookupHopsSig:vector  ETV
15008	2663 93 21 262 20.002 20.919416775802 4 0 3 6 14
vector 15009  Network.dyn_peer[1]  lookupStabilitySig:vector  ETV
15009	2756 126 21 262 20.002 20.919416775802 4 0.39999997615814 1 3.049999974668 2.5324999782443
vector 15010  Network.dyn_peer[1]  lookupTimeSig:vector  ETV
15010	2882 99 21 262 20.002 20.919416775802 4 0 0.4 0.9 0.29
vector 15017  Network.dyn_peer[4]  lookupHopsSig:vector  ETV
15017	3473 64 34 205 20.005 20.630379783837 3 0 3 4 10
vector 15018  Network.dyn_peer[4]  lookupStabilitySig:vector  ETV
15018	3537 94 34 205 20.005 20.630379783837 3 0.39999997615814 1 2.1999999731779 1.7999999761581
vector 15019  Network.dyn_peer[4]  lookupTimeSig:vector  ETV
15019	3631 68 34 205 20.005 20.630379783837 3 0 0.4 0.6 0.2
vector 15020  Network.dyn_peer[5]  lookupHopsSig:vector  ETV
15020	3699 65 42 223 20.006 20.710154859812 3 0 3 5 13
vector 15021  Network.dyn_peer[5]  lookupStabilitySig:vector  ETV
15021	3764 94 42 223 20.006 20.710154859812 3 0.5714285671711 1 2.1714285612106 1.6865306002267
vector 15022  Network.dyn_peer[5]  lookupTimeSig:vector  ETV
15022	3858 69 42 223 20.006 20.710154859812 3 0 0.4 0.7 0.25
vector 15005  Network.dyn_peer[0]  lookupHopsSig:vector  ETV
15005	2327 93 62 268 20.101 21.014828618129 4 1 3 7 15
vector 15006  Network.dyn_peer[0]  lookupStabilitySig:vector  ETV
15006	2420 142 62 268 20.101 21.014828618129 4 0.59999999403954 0.90909090638161 2.9340908974409 2.2170712641448
vector 15007  Network.dyn_peer[0]  lookupTimeSig:vector  ETV
15007	2562 101 62 268 20.101 21.014828618129 4 0.1 0.4 1 0.3
vector 15011  Network.dyn_peer[2]  lookupHopsSig:vector  ETV
15011	2981 65 68 208 20.103 20.634418408472 3 1 2 4 6
vector 15012  Network.dyn_peer[2]  lookupStabilitySig:vector  ETV
15012	3046 110 68 208 20.103 20.634418408472 3 0.66666665673256 0.79999999701977 2.2666666507721 1.7244444216622
vector 15013  Network.dyn_peer[2]  lookupTimeSig:vector  ETV
15013	3156 71 68 208 20.103 20.634418408472 3 0.1 0.3 0.6 0.14
vector 15014  Network.dyn_peer[3]  lookupHopsSig:vector  ETV
15014	3227 65 73 275 20.104 21.113535867802 3 1 5 9 35
vector 15015  Network.dyn_peer[3]  lookupStabilitySig:vector  ETV
15015	3292 110 73 275 20.104 21.113535867802 3 0.28571426868439 0.79999999701977 1.8549450337887 1.3133486131294
vector 15016  Network.dyn_peer[3]  lookupTimeSig:vector  ETV
15016	3402 71 73 275 20.104 21.113535867802 3 0.1 0.6 1.1 0.53
vector 15032  Network.dyn_peer[9]  lookupHopsSig:vector  ETV
15032	4647 100 85 250 20.11 20.839147399204 4 1 2 5 7
vector 15033  Network.dyn_peer[9]  lookupStabilitySig:vector  ETV
15033	4747 160 85 250 20.11 20.839147399204 4 0.59999999403954 0.88888888806105 3.0888888761401 2.4301234386291
vector 15034  Network.dyn_peer[9]  lookupTimeSig:vector  ETV
15034	4907 108 85 250 20.11 20.839147399204 4 0.1 0.3 0.8 0.18
vector 15023  Network.dyn_peer[6]  lookupHopsSig:vector  ETV
15023	3927 66 126 270 20.307 21.015505592057 3 2 3 8 22
vector 15024  Network.dyn_peer[6]  lookupStabilitySig:vector  ETV
15024	3993 110 126 270 20.307 21.015505592057 3 0.39999997615814 0.81818181276321 1.7896103560924 1.1559520670422
vector 15025  Network.dyn_peer[6]  lookupTimeSig:vector  ETV
15025	4103 72 126 270 20.307 21.015505592057 3 0.3 0.4 1 0.34
vector 15026  Network.dyn_peer[7]  lookupHopsSig:vector  ETV
15026	4175 66 155 248 20.408 20.828215362446 3 1 4 6 18
vector 15027  Network.dyn_peer[7]  lookupStabilitySig:vector  ETV
15027	4241 100 155 248 20.408 20.828215362446 3 0.19999998807907 0.875 1.8749999850988 1.4456249904633
vector 15028  Network.dyn_peer[7]  lookupTimeSig:vector  ETV
15028	4341 72 155 248 20.408 20.828215362446 3 0.2 0.4 0.8 0.24
vector 15029  Network.dyn_peer[8]  lookupHopsSig:vector  ETV
15029	4413 66 179 281 20.509 21.210567181907 3 2 5 10 38
vector 15030  Network.dyn_peer[8]  lookupStabilitySig:vector  ETV
15030	4479 96 179 281 20.509 21.210567181907 3 0 0.85714285075665 1.5571428388357 1.2246938499139
vector 15031  Network.dyn_peer[8]  lookupTimeSig:vector  ETV
15031	4575 72 179 281 20.509 21.210567181907 3 0.3 0.5 1.2 0.5
