version 2
run Stability2-280-20130526-00:53:48-26640
attr configname Stability2
attr datetime 20130526-00:53:48
attr experiment Stability2
attr inifile omnetpp.ini
attr iterationvars $0=500
attr iterationvars2 "$0=500, $repetition=10"
attr measurement $0=500
attr network Network
attr processid 26640
attr repetition 10
attr replication #10
attr resultdir results
attr runnumber 280
attr seedset 280

vector 843280  Network.churner  inGoingSizeSig:vector  ETV
vector 840295  Network.dyn_peer[5]  lookupHopsSig:vector  ETV
vector 840296  Network.dyn_peer[5]  lookupStabilitySig:vector  ETV
vector 840297  Network.dyn_peer[5]  lookupTimeSig:vector  ETV
vector 840298  Network.dyn_peer[6]  lookupHopsSig:vector  ETV
vector 840299  Network.dyn_peer[6]  lookupStabilitySig:vector  ETV
vector 840300  Network.dyn_peer[6]  lookupTimeSig:vector  ETV
vector 840301  Network.dyn_peer[7]  lookupHopsSig:vector  ETV
vector 840302  Network.dyn_peer[7]  lookupStabilitySig:vector  ETV
vector 840303  Network.dyn_peer[7]  lookupTimeSig:vector  ETV
vector 840304  Network.dyn_peer[8]  lookupHopsSig:vector  ETV
vector 840305  Network.dyn_peer[8]  lookupStabilitySig:vector  ETV
vector 840306  Network.dyn_peer[8]  lookupTimeSig:vector  ETV
vector 840322  Network.dyn_peer[14]  lookupHopsSig:vector  ETV
vector 840323  Network.dyn_peer[14]  lookupStabilitySig:vector  ETV
vector 840324  Network.dyn_peer[14]  lookupTimeSig:vector  ETV
vector 840364  Network.dyn_peer[28]  lookupHopsSig:vector  ETV
vector 840365  Network.dyn_peer[28]  lookupStabilitySig:vector  ETV
vector 840366  Network.dyn_peer[28]  lookupTimeSig:vector  ETV
vector 840505  Network.dyn_peer[75]  lookupHopsSig:vector  ETV
vector 840506  Network.dyn_peer[75]  lookupStabilitySig:vector  ETV
vector 840507  Network.dyn_peer[75]  lookupTimeSig:vector  ETV
vector 840532  Network.dyn_peer[84]  lookupHopsSig:vector  ETV
vector 840533  Network.dyn_peer[84]  lookupStabilitySig:vector  ETV
vector 840534  Network.dyn_peer[84]  lookupTimeSig:vector  ETV
vector 840538  Network.dyn_peer[86]  lookupHopsSig:vector  ETV
vector 840539  Network.dyn_peer[86]  lookupStabilitySig:vector  ETV
vector 840540  Network.dyn_peer[86]  lookupTimeSig:vector  ETV
vector 840319  Network.dyn_peer[13]  lookupHopsSig:vector  ETV
vector 840320  Network.dyn_peer[13]  lookupStabilitySig:vector  ETV
vector 840321  Network.dyn_peer[13]  lookupTimeSig:vector  ETV
vector 840343  Network.dyn_peer[21]  lookupHopsSig:vector  ETV
vector 840344  Network.dyn_peer[21]  lookupStabilitySig:vector  ETV
vector 840345  Network.dyn_peer[21]  lookupTimeSig:vector  ETV
vector 840361  Network.dyn_peer[27]  lookupHopsSig:vector  ETV
vector 840362  Network.dyn_peer[27]  lookupStabilitySig:vector  ETV
vector 840363  Network.dyn_peer[27]  lookupTimeSig:vector  ETV
vector 840397  Network.dyn_peer[39]  lookupHopsSig:vector  ETV
vector 840398  Network.dyn_peer[39]  lookupStabilitySig:vector  ETV
vector 840399  Network.dyn_peer[39]  lookupTimeSig:vector  ETV
vector 840421  Network.dyn_peer[47]  lookupHopsSig:vector  ETV
vector 840422  Network.dyn_peer[47]  lookupStabilitySig:vector  ETV
vector 840423  Network.dyn_peer[47]  lookupTimeSig:vector  ETV
vector 840439  Network.dyn_peer[53]  lookupHopsSig:vector  ETV
vector 840440  Network.dyn_peer[53]  lookupStabilitySig:vector  ETV
vector 840441  Network.dyn_peer[53]  lookupTimeSig:vector  ETV
vector 840457  Network.dyn_peer[59]  lookupHopsSig:vector  ETV
vector 840458  Network.dyn_peer[59]  lookupStabilitySig:vector  ETV
vector 840459  Network.dyn_peer[59]  lookupTimeSig:vector  ETV
vector 840460  Network.dyn_peer[60]  lookupHopsSig:vector  ETV
vector 840461  Network.dyn_peer[60]  lookupStabilitySig:vector  ETV
vector 840462  Network.dyn_peer[60]  lookupTimeSig:vector  ETV
vector 840481  Network.dyn_peer[67]  lookupHopsSig:vector  ETV
vector 840482  Network.dyn_peer[67]  lookupStabilitySig:vector  ETV
vector 840483  Network.dyn_peer[67]  lookupTimeSig:vector  ETV
vector 840517  Network.dyn_peer[79]  lookupHopsSig:vector  ETV
vector 840518  Network.dyn_peer[79]  lookupStabilitySig:vector  ETV
vector 840519  Network.dyn_peer[79]  lookupTimeSig:vector  ETV
vector 840547  Network.dyn_peer[89]  lookupHopsSig:vector  ETV
vector 840548  Network.dyn_peer[89]  lookupStabilitySig:vector  ETV
vector 840549  Network.dyn_peer[89]  lookupTimeSig:vector  ETV
vector 840559  Network.dyn_peer[93]  lookupHopsSig:vector  ETV
vector 840560  Network.dyn_peer[93]  lookupStabilitySig:vector  ETV
vector 840561  Network.dyn_peer[93]  lookupTimeSig:vector  ETV
vector 840580  Network.dyn_peer[100]  lookupHopsSig:vector  ETV
vector 840581  Network.dyn_peer[100]  lookupStabilitySig:vector  ETV
vector 840582  Network.dyn_peer[100]  lookupTimeSig:vector  ETV
vector 840979  Network.dyn_peer[233]  lookupHopsSig:vector  ETV
vector 840980  Network.dyn_peer[233]  lookupStabilitySig:vector  ETV
vector 840981  Network.dyn_peer[233]  lookupTimeSig:vector  ETV
vector 840724  Network.dyn_peer[148]  lookupHopsSig:vector  ETV
vector 840725  Network.dyn_peer[148]  lookupStabilitySig:vector  ETV
vector 840726  Network.dyn_peer[148]  lookupTimeSig:vector  ETV
vector 840427  Network.dyn_peer[49]  lookupHopsSig:vector  ETV
vector 840428  Network.dyn_peer[49]  lookupStabilitySig:vector  ETV
vector 840429  Network.dyn_peer[49]  lookupTimeSig:vector  ETV
vector 841051  Network.dyn_peer[257]  lookupHopsSig:vector  ETV
vector 841052  Network.dyn_peer[257]  lookupStabilitySig:vector  ETV
vector 841053  Network.dyn_peer[257]  lookupTimeSig:vector  ETV
vector 840472  Network.dyn_peer[64]  lookupHopsSig:vector  ETV
vector 840473  Network.dyn_peer[64]  lookupStabilitySig:vector  ETV
vector 840474  Network.dyn_peer[64]  lookupTimeSig:vector  ETV
vector 840475  Network.dyn_peer[65]  lookupHopsSig:vector  ETV
vector 840476  Network.dyn_peer[65]  lookupStabilitySig:vector  ETV
vector 840477  Network.dyn_peer[65]  lookupTimeSig:vector  ETV
vector 840811  Network.dyn_peer[177]  lookupHopsSig:vector  ETV
vector 840812  Network.dyn_peer[177]  lookupStabilitySig:vector  ETV
vector 840813  Network.dyn_peer[177]  lookupTimeSig:vector  ETV
vector 840814  Network.dyn_peer[178]  lookupHopsSig:vector  ETV
vector 840815  Network.dyn_peer[178]  lookupStabilitySig:vector  ETV
vector 840816  Network.dyn_peer[178]  lookupTimeSig:vector  ETV
vector 840520  Network.dyn_peer[80]  lookupHopsSig:vector  ETV
vector 840521  Network.dyn_peer[80]  lookupStabilitySig:vector  ETV
vector 840522  Network.dyn_peer[80]  lookupTimeSig:vector  ETV
vector 840523  Network.dyn_peer[81]  lookupHopsSig:vector  ETV
vector 840524  Network.dyn_peer[81]  lookupStabilitySig:vector  ETV
vector 840525  Network.dyn_peer[81]  lookupTimeSig:vector  ETV
vector 840283  Network.dyn_peer[1]  lookupHopsSig:vector  ETV
vector 840284  Network.dyn_peer[1]  lookupStabilitySig:vector  ETV
vector 840285  Network.dyn_peer[1]  lookupTimeSig:vector  ETV
vector 840883  Network.dyn_peer[201]  lookupHopsSig:vector  ETV
vector 840884  Network.dyn_peer[201]  lookupStabilitySig:vector  ETV
vector 840885  Network.dyn_peer[201]  lookupTimeSig:vector  ETV
vector 840895  Network.dyn_peer[205]  lookupHopsSig:vector  ETV
vector 840896  Network.dyn_peer[205]  lookupStabilitySig:vector  ETV
vector 840897  Network.dyn_peer[205]  lookupTimeSig:vector  ETV
vector 840307  Network.dyn_peer[9]  lookupHopsSig:vector  ETV
vector 840308  Network.dyn_peer[9]  lookupStabilitySig:vector  ETV
vector 840309  Network.dyn_peer[9]  lookupTimeSig:vector  ETV
vector 840919  Network.dyn_peer[213]  lookupHopsSig:vector  ETV
vector 840920  Network.dyn_peer[213]  lookupStabilitySig:vector  ETV
vector 840921  Network.dyn_peer[213]  lookupTimeSig:vector  ETV
vector 840643  Network.dyn_peer[121]  lookupHopsSig:vector  ETV
vector 840644  Network.dyn_peer[121]  lookupStabilitySig:vector  ETV
vector 840645  Network.dyn_peer[121]  lookupTimeSig:vector  ETV
vector 840667  Network.dyn_peer[129]  lookupHopsSig:vector  ETV
vector 840668  Network.dyn_peer[129]  lookupStabilitySig:vector  ETV
vector 840669  Network.dyn_peer[129]  lookupTimeSig:vector  ETV
vector 840676  Network.dyn_peer[132]  lookupHopsSig:vector  ETV
vector 840677  Network.dyn_peer[132]  lookupStabilitySig:vector  ETV
vector 840678  Network.dyn_peer[132]  lookupTimeSig:vector  ETV
vector 840691  Network.dyn_peer[137]  lookupHopsSig:vector  ETV
vector 840692  Network.dyn_peer[137]  lookupStabilitySig:vector  ETV
vector 840693  Network.dyn_peer[137]  lookupTimeSig:vector  ETV
vector 840994  Network.dyn_peer[238]  lookupHopsSig:vector  ETV
vector 840995  Network.dyn_peer[238]  lookupStabilitySig:vector  ETV
vector 840996  Network.dyn_peer[238]  lookupTimeSig:vector  ETV
vector 841303  Network.dyn_peer[341]  lookupHopsSig:vector  ETV
vector 841304  Network.dyn_peer[341]  lookupStabilitySig:vector  ETV
vector 841305  Network.dyn_peer[341]  lookupTimeSig:vector  ETV
vector 840715  Network.dyn_peer[145]  lookupHopsSig:vector  ETV
vector 840716  Network.dyn_peer[145]  lookupStabilitySig:vector  ETV
vector 840717  Network.dyn_peer[145]  lookupTimeSig:vector  ETV
vector 840763  Network.dyn_peer[161]  lookupHopsSig:vector  ETV
vector 840764  Network.dyn_peer[161]  lookupStabilitySig:vector  ETV
vector 840765  Network.dyn_peer[161]  lookupTimeSig:vector  ETV
vector 840769  Network.dyn_peer[163]  lookupHopsSig:vector  ETV
vector 840770  Network.dyn_peer[163]  lookupStabilitySig:vector  ETV
vector 840771  Network.dyn_peer[163]  lookupTimeSig:vector  ETV
vector 840793  Network.dyn_peer[171]  lookupHopsSig:vector  ETV
vector 840794  Network.dyn_peer[171]  lookupStabilitySig:vector  ETV
vector 840795  Network.dyn_peer[171]  lookupTimeSig:vector  ETV
vector 840802  Network.dyn_peer[174]  lookupHopsSig:vector  ETV
vector 840803  Network.dyn_peer[174]  lookupStabilitySig:vector  ETV
vector 840804  Network.dyn_peer[174]  lookupTimeSig:vector  ETV
vector 840838  Network.dyn_peer[186]  lookupHopsSig:vector  ETV
vector 840839  Network.dyn_peer[186]  lookupStabilitySig:vector  ETV
vector 840840  Network.dyn_peer[186]  lookupTimeSig:vector  ETV
vector 840853  Network.dyn_peer[191]  lookupHopsSig:vector  ETV
vector 840854  Network.dyn_peer[191]  lookupStabilitySig:vector  ETV
vector 840855  Network.dyn_peer[191]  lookupTimeSig:vector  ETV
vector 840562  Network.dyn_peer[94]  lookupHopsSig:vector  ETV
vector 840563  Network.dyn_peer[94]  lookupStabilitySig:vector  ETV
vector 840564  Network.dyn_peer[94]  lookupTimeSig:vector  ETV
vector 840280  Network.dyn_peer[0]  lookupHopsSig:vector  ETV
vector 840281  Network.dyn_peer[0]  lookupStabilitySig:vector  ETV
vector 840282  Network.dyn_peer[0]  lookupTimeSig:vector  ETV
vector 840286  Network.dyn_peer[2]  lookupHopsSig:vector  ETV
vector 840287  Network.dyn_peer[2]  lookupStabilitySig:vector  ETV
vector 840288  Network.dyn_peer[2]  lookupTimeSig:vector  ETV
vector 840889  Network.dyn_peer[203]  lookupHopsSig:vector  ETV
vector 840890  Network.dyn_peer[203]  lookupStabilitySig:vector  ETV
vector 840891  Network.dyn_peer[203]  lookupTimeSig:vector  ETV
vector 840607  Network.dyn_peer[109]  lookupHopsSig:vector  ETV
vector 840608  Network.dyn_peer[109]  lookupStabilitySig:vector  ETV
vector 840609  Network.dyn_peer[109]  lookupTimeSig:vector  ETV
vector 840631  Network.dyn_peer[117]  lookupHopsSig:vector  ETV
vector 840632  Network.dyn_peer[117]  lookupStabilitySig:vector  ETV
vector 840633  Network.dyn_peer[117]  lookupTimeSig:vector  ETV
vector 841237  Network.dyn_peer[319]  lookupHopsSig:vector  ETV
vector 841238  Network.dyn_peer[319]  lookupStabilitySig:vector  ETV
vector 841239  Network.dyn_peer[319]  lookupTimeSig:vector  ETV
vector 840355  Network.dyn_peer[25]  lookupHopsSig:vector  ETV
vector 840356  Network.dyn_peer[25]  lookupStabilitySig:vector  ETV
vector 840357  Network.dyn_peer[25]  lookupTimeSig:vector  ETV
vector 840961  Network.dyn_peer[227]  lookupHopsSig:vector  ETV
vector 840962  Network.dyn_peer[227]  lookupStabilitySig:vector  ETV
vector 840963  Network.dyn_peer[227]  lookupTimeSig:vector  ETV
vector 840370  Network.dyn_peer[30]  lookupHopsSig:vector  ETV
vector 840371  Network.dyn_peer[30]  lookupStabilitySig:vector  ETV
vector 840372  Network.dyn_peer[30]  lookupTimeSig:vector  ETV
vector 840688  Network.dyn_peer[136]  lookupHopsSig:vector  ETV
vector 840689  Network.dyn_peer[136]  lookupStabilitySig:vector  ETV
vector 840690  Network.dyn_peer[136]  lookupTimeSig:vector  ETV
vector 841297  Network.dyn_peer[339]  lookupHopsSig:vector  ETV
vector 841298  Network.dyn_peer[339]  lookupStabilitySig:vector  ETV
vector 841299  Network.dyn_peer[339]  lookupTimeSig:vector  ETV
vector 841006  Network.dyn_peer[242]  lookupHopsSig:vector  ETV
vector 841007  Network.dyn_peer[242]  lookupStabilitySig:vector  ETV
vector 841008  Network.dyn_peer[242]  lookupTimeSig:vector  ETV
vector 840736  Network.dyn_peer[152]  lookupHopsSig:vector  ETV
vector 840737  Network.dyn_peer[152]  lookupStabilitySig:vector  ETV
vector 840738  Network.dyn_peer[152]  lookupTimeSig:vector  ETV
vector 841048  Network.dyn_peer[256]  lookupHopsSig:vector  ETV
vector 841049  Network.dyn_peer[256]  lookupStabilitySig:vector  ETV
vector 841050  Network.dyn_peer[256]  lookupTimeSig:vector  ETV
vector 841363  Network.dyn_peer[361]  lookupHopsSig:vector  ETV
vector 841364  Network.dyn_peer[361]  lookupStabilitySig:vector  ETV
vector 841365  Network.dyn_peer[361]  lookupTimeSig:vector  ETV
vector 841663  Network.dyn_peer[461]  lookupHopsSig:vector  ETV
vector 841664  Network.dyn_peer[461]  lookupStabilitySig:vector  ETV
vector 841665  Network.dyn_peer[461]  lookupTimeSig:vector  ETV
vector 840484  Network.dyn_peer[68]  lookupHopsSig:vector  ETV
vector 840485  Network.dyn_peer[68]  lookupStabilitySig:vector  ETV
vector 840486  Network.dyn_peer[68]  lookupTimeSig:vector  ETV
vector 840499  Network.dyn_peer[73]  lookupHopsSig:vector  ETV
vector 840500  Network.dyn_peer[73]  lookupStabilitySig:vector  ETV
vector 840501  Network.dyn_peer[73]  lookupTimeSig:vector  ETV
vector 840502  Network.dyn_peer[74]  lookupHopsSig:vector  ETV
vector 840503  Network.dyn_peer[74]  lookupStabilitySig:vector  ETV
vector 840504  Network.dyn_peer[74]  lookupTimeSig:vector  ETV
vector 841105  Network.dyn_peer[275]  lookupHopsSig:vector  ETV
vector 841106  Network.dyn_peer[275]  lookupStabilitySig:vector  ETV
vector 841107  Network.dyn_peer[275]  lookupTimeSig:vector  ETV
vector 841108  Network.dyn_peer[276]  lookupHopsSig:vector  ETV
vector 841109  Network.dyn_peer[276]  lookupStabilitySig:vector  ETV
vector 841110  Network.dyn_peer[276]  lookupTimeSig:vector  ETV
vector 841123  Network.dyn_peer[281]  lookupHopsSig:vector  ETV
vector 841124  Network.dyn_peer[281]  lookupStabilitySig:vector  ETV
vector 841125  Network.dyn_peer[281]  lookupTimeSig:vector  ETV
vector 840568  Network.dyn_peer[96]  lookupHopsSig:vector  ETV
vector 840569  Network.dyn_peer[96]  lookupStabilitySig:vector  ETV
vector 840570  Network.dyn_peer[96]  lookupTimeSig:vector  ETV
vector 840589  Network.dyn_peer[103]  lookupHopsSig:vector  ETV
vector 840590  Network.dyn_peer[103]  lookupStabilitySig:vector  ETV
vector 840591  Network.dyn_peer[103]  lookupTimeSig:vector  ETV
vector 840292  Network.dyn_peer[4]  lookupHopsSig:vector  ETV
vector 840293  Network.dyn_peer[4]  lookupStabilitySig:vector  ETV
vector 840294  Network.dyn_peer[4]  lookupTimeSig:vector  ETV
vector 841492  Network.dyn_peer[404]  lookupHopsSig:vector  ETV
vector 841493  Network.dyn_peer[404]  lookupStabilitySig:vector  ETV
vector 841494  Network.dyn_peer[404]  lookupTimeSig:vector  ETV
vector 841231  Network.dyn_peer[317]  lookupHopsSig:vector  ETV
vector 841232  Network.dyn_peer[317]  lookupStabilitySig:vector  ETV
vector 841233  Network.dyn_peer[317]  lookupTimeSig:vector  ETV
vector 841234  Network.dyn_peer[318]  lookupHopsSig:vector  ETV
vector 841235  Network.dyn_peer[318]  lookupStabilitySig:vector  ETV
vector 841236  Network.dyn_peer[318]  lookupTimeSig:vector  ETV
vector 840340  Network.dyn_peer[20]  lookupHopsSig:vector  ETV
vector 840341  Network.dyn_peer[20]  lookupStabilitySig:vector  ETV
vector 840342  Network.dyn_peer[20]  lookupTimeSig:vector  ETV
vector 840646  Network.dyn_peer[122]  lookupHopsSig:vector  ETV
vector 840647  Network.dyn_peer[122]  lookupStabilitySig:vector  ETV
vector 840648  Network.dyn_peer[122]  lookupTimeSig:vector  ETV
vector 841246  Network.dyn_peer[322]  lookupHopsSig:vector  ETV
vector 841247  Network.dyn_peer[322]  lookupStabilitySig:vector  ETV
vector 841248  Network.dyn_peer[322]  lookupTimeSig:vector  ETV
vector 841279  Network.dyn_peer[333]  lookupHopsSig:vector  ETV
vector 841280  Network.dyn_peer[333]  lookupStabilitySig:vector  ETV
vector 841281  Network.dyn_peer[333]  lookupTimeSig:vector  ETV
vector 840388  Network.dyn_peer[36]  lookupHopsSig:vector  ETV
vector 840389  Network.dyn_peer[36]  lookupStabilitySig:vector  ETV
vector 840390  Network.dyn_peer[36]  lookupTimeSig:vector  ETV
vector 841015  Network.dyn_peer[245]  lookupHopsSig:vector  ETV
vector 841016  Network.dyn_peer[245]  lookupStabilitySig:vector  ETV
vector 841017  Network.dyn_peer[245]  lookupTimeSig:vector  ETV
vector 841615  Network.dyn_peer[445]  lookupHopsSig:vector  ETV
vector 841616  Network.dyn_peer[445]  lookupStabilitySig:vector  ETV
vector 841617  Network.dyn_peer[445]  lookupTimeSig:vector  ETV
vector 841045  Network.dyn_peer[255]  lookupHopsSig:vector  ETV
vector 841046  Network.dyn_peer[255]  lookupStabilitySig:vector  ETV
vector 841047  Network.dyn_peer[255]  lookupTimeSig:vector  ETV
vector 841054  Network.dyn_peer[258]  lookupHopsSig:vector  ETV
vector 841055  Network.dyn_peer[258]  lookupStabilitySig:vector  ETV
vector 841056  Network.dyn_peer[258]  lookupTimeSig:vector  ETV
vector 840463  Network.dyn_peer[61]  lookupHopsSig:vector  ETV
vector 840464  Network.dyn_peer[61]  lookupStabilitySig:vector  ETV
vector 840465  Network.dyn_peer[61]  lookupTimeSig:vector  ETV
vector 840526  Network.dyn_peer[82]  lookupHopsSig:vector  ETV
vector 840527  Network.dyn_peer[82]  lookupStabilitySig:vector  ETV
vector 840528  Network.dyn_peer[82]  lookupTimeSig:vector  ETV
vector 840535  Network.dyn_peer[85]  lookupHopsSig:vector  ETV
vector 840536  Network.dyn_peer[85]  lookupStabilitySig:vector  ETV
vector 840537  Network.dyn_peer[85]  lookupTimeSig:vector  ETV
vector 841177  Network.dyn_peer[299]  lookupHopsSig:vector  ETV
vector 841178  Network.dyn_peer[299]  lookupStabilitySig:vector  ETV
vector 841179  Network.dyn_peer[299]  lookupTimeSig:vector  ETV
vector 840289  Network.dyn_peer[3]  lookupHopsSig:vector  ETV
vector 840290  Network.dyn_peer[3]  lookupStabilitySig:vector  ETV
vector 840291  Network.dyn_peer[3]  lookupTimeSig:vector  ETV
vector 841498  Network.dyn_peer[406]  lookupHopsSig:vector  ETV
vector 841499  Network.dyn_peer[406]  lookupStabilitySig:vector  ETV
vector 841500  Network.dyn_peer[406]  lookupTimeSig:vector  ETV
vector 841210  Network.dyn_peer[310]  lookupHopsSig:vector  ETV
vector 841211  Network.dyn_peer[310]  lookupStabilitySig:vector  ETV
vector 841212  Network.dyn_peer[310]  lookupTimeSig:vector  ETV
vector 841213  Network.dyn_peer[311]  lookupHopsSig:vector  ETV
vector 841214  Network.dyn_peer[311]  lookupStabilitySig:vector  ETV
vector 841215  Network.dyn_peer[311]  lookupTimeSig:vector  ETV
vector 840418  Network.dyn_peer[46]  lookupHopsSig:vector  ETV
vector 840419  Network.dyn_peer[46]  lookupStabilitySig:vector  ETV
vector 840420  Network.dyn_peer[46]  lookupTimeSig:vector  ETV
vector 841021  Network.dyn_peer[247]  lookupHopsSig:vector  ETV
vector 841022  Network.dyn_peer[247]  lookupStabilitySig:vector  ETV
vector 841023  Network.dyn_peer[247]  lookupTimeSig:vector  ETV
vector 841324  Network.dyn_peer[348]  lookupHopsSig:vector  ETV
vector 841325  Network.dyn_peer[348]  lookupStabilitySig:vector  ETV
vector 841326  Network.dyn_peer[348]  lookupTimeSig:vector  ETV
vector 840436  Network.dyn_peer[52]  lookupHopsSig:vector  ETV
vector 840437  Network.dyn_peer[52]  lookupStabilitySig:vector  ETV
vector 840438  Network.dyn_peer[52]  lookupTimeSig:vector  ETV
vector 841357  Network.dyn_peer[359]  lookupHopsSig:vector  ETV
vector 841358  Network.dyn_peer[359]  lookupStabilitySig:vector  ETV
vector 841359  Network.dyn_peer[359]  lookupTimeSig:vector  ETV
vector 840775  Network.dyn_peer[165]  lookupHopsSig:vector  ETV
vector 840776  Network.dyn_peer[165]  lookupStabilitySig:vector  ETV
vector 840777  Network.dyn_peer[165]  lookupTimeSig:vector  ETV
vector 840493  Network.dyn_peer[71]  lookupHopsSig:vector  ETV
vector 840494  Network.dyn_peer[71]  lookupStabilitySig:vector  ETV
vector 840495  Network.dyn_peer[71]  lookupTimeSig:vector  ETV
vector 841705  Network.dyn_peer[475]  lookupHopsSig:vector  ETV
vector 841706  Network.dyn_peer[475]  lookupStabilitySig:vector  ETV
vector 841707  Network.dyn_peer[475]  lookupTimeSig:vector  ETV
vector 841111  Network.dyn_peer[277]  lookupHopsSig:vector  ETV
vector 841112  Network.dyn_peer[277]  lookupStabilitySig:vector  ETV
vector 841113  Network.dyn_peer[277]  lookupTimeSig:vector  ETV
vector 841729  Network.dyn_peer[483]  lookupHopsSig:vector  ETV
vector 841730  Network.dyn_peer[483]  lookupStabilitySig:vector  ETV
vector 841731  Network.dyn_peer[483]  lookupTimeSig:vector  ETV
vector 841441  Network.dyn_peer[387]  lookupHopsSig:vector  ETV
vector 841442  Network.dyn_peer[387]  lookupStabilitySig:vector  ETV
vector 841443  Network.dyn_peer[387]  lookupTimeSig:vector  ETV
vector 841159  Network.dyn_peer[293]  lookupHopsSig:vector  ETV
vector 841160  Network.dyn_peer[293]  lookupStabilitySig:vector  ETV
vector 841161  Network.dyn_peer[293]  lookupTimeSig:vector  ETV
vector 841465  Network.dyn_peer[395]  lookupHopsSig:vector  ETV
vector 841466  Network.dyn_peer[395]  lookupStabilitySig:vector  ETV
vector 841467  Network.dyn_peer[395]  lookupTimeSig:vector  ETV
vector 840886  Network.dyn_peer[202]  lookupHopsSig:vector  ETV
vector 840887  Network.dyn_peer[202]  lookupStabilitySig:vector  ETV
vector 840888  Network.dyn_peer[202]  lookupTimeSig:vector  ETV
vector 840604  Network.dyn_peer[108]  lookupHopsSig:vector  ETV
vector 840605  Network.dyn_peer[108]  lookupStabilitySig:vector  ETV
vector 840606  Network.dyn_peer[108]  lookupTimeSig:vector  ETV
vector 841507  Network.dyn_peer[409]  lookupHopsSig:vector  ETV
vector 841508  Network.dyn_peer[409]  lookupStabilitySig:vector  ETV
vector 841509  Network.dyn_peer[409]  lookupTimeSig:vector  ETV
vector 840316  Network.dyn_peer[12]  lookupHopsSig:vector  ETV
vector 840317  Network.dyn_peer[12]  lookupStabilitySig:vector  ETV
vector 840318  Network.dyn_peer[12]  lookupTimeSig:vector  ETV
vector 840925  Network.dyn_peer[215]  lookupHopsSig:vector  ETV
vector 840926  Network.dyn_peer[215]  lookupStabilitySig:vector  ETV
vector 840927  Network.dyn_peer[215]  lookupTimeSig:vector  ETV
vector 840931  Network.dyn_peer[217]  lookupHopsSig:vector  ETV
vector 840932  Network.dyn_peer[217]  lookupStabilitySig:vector  ETV
vector 840933  Network.dyn_peer[217]  lookupTimeSig:vector  ETV
vector 840637  Network.dyn_peer[119]  lookupHopsSig:vector  ETV
vector 840638  Network.dyn_peer[119]  lookupStabilitySig:vector  ETV
vector 840639  Network.dyn_peer[119]  lookupTimeSig:vector  ETV
vector 841549  Network.dyn_peer[423]  lookupHopsSig:vector  ETV
vector 841550  Network.dyn_peer[423]  lookupStabilitySig:vector  ETV
vector 841551  Network.dyn_peer[423]  lookupTimeSig:vector  ETV
vector 841285  Network.dyn_peer[335]  lookupHopsSig:vector  ETV
vector 841286  Network.dyn_peer[335]  lookupStabilitySig:vector  ETV
vector 841287  Network.dyn_peer[335]  lookupTimeSig:vector  ETV
vector 840403  Network.dyn_peer[41]  lookupHopsSig:vector  ETV
vector 840404  Network.dyn_peer[41]  lookupStabilitySig:vector  ETV
vector 840405  Network.dyn_peer[41]  lookupTimeSig:vector  ETV
vector 841627  Network.dyn_peer[449]  lookupHopsSig:vector  ETV
vector 841628  Network.dyn_peer[449]  lookupStabilitySig:vector  ETV
vector 841629  Network.dyn_peer[449]  lookupTimeSig:vector  ETV
vector 841336  Network.dyn_peer[352]  lookupHopsSig:vector  ETV
vector 841337  Network.dyn_peer[352]  lookupStabilitySig:vector  ETV
vector 841338  Network.dyn_peer[352]  lookupTimeSig:vector  ETV
vector 840760  Network.dyn_peer[160]  lookupHopsSig:vector  ETV
vector 840761  Network.dyn_peer[160]  lookupStabilitySig:vector  ETV
vector 840762  Network.dyn_peer[160]  lookupTimeSig:vector  ETV
vector 840805  Network.dyn_peer[175]  lookupHopsSig:vector  ETV
vector 840806  Network.dyn_peer[175]  lookupStabilitySig:vector  ETV
vector 840807  Network.dyn_peer[175]  lookupTimeSig:vector  ETV
vector 840550  Network.dyn_peer[90]  lookupHopsSig:vector  ETV
vector 840551  Network.dyn_peer[90]  lookupStabilitySig:vector  ETV
vector 840552  Network.dyn_peer[90]  lookupTimeSig:vector  ETV
vector 840850  Network.dyn_peer[190]  lookupHopsSig:vector  ETV
vector 840851  Network.dyn_peer[190]  lookupStabilitySig:vector  ETV
vector 840852  Network.dyn_peer[190]  lookupTimeSig:vector  ETV
vector 841777  Network.dyn_peer[499]  lookupHopsSig:vector  ETV
vector 841778  Network.dyn_peer[499]  lookupStabilitySig:vector  ETV
vector 841779  Network.dyn_peer[499]  lookupTimeSig:vector  ETV
vector 840880  Network.dyn_peer[200]  lookupHopsSig:vector  ETV
vector 840881  Network.dyn_peer[200]  lookupStabilitySig:vector  ETV
vector 840882  Network.dyn_peer[200]  lookupTimeSig:vector  ETV
vector 841204  Network.dyn_peer[308]  lookupHopsSig:vector  ETV
vector 841205  Network.dyn_peer[308]  lookupStabilitySig:vector  ETV
vector 841206  Network.dyn_peer[308]  lookupTimeSig:vector  ETV
vector 840661  Network.dyn_peer[127]  lookupHopsSig:vector  ETV
vector 840662  Network.dyn_peer[127]  lookupStabilitySig:vector  ETV
vector 840663  Network.dyn_peer[127]  lookupTimeSig:vector  ETV
vector 840685  Network.dyn_peer[135]  lookupHopsSig:vector  ETV
vector 840686  Network.dyn_peer[135]  lookupStabilitySig:vector  ETV
vector 840687  Network.dyn_peer[135]  lookupTimeSig:vector  ETV
vector 840394  Network.dyn_peer[38]  lookupHopsSig:vector  ETV
vector 840395  Network.dyn_peer[38]  lookupStabilitySig:vector  ETV
vector 840396  Network.dyn_peer[38]  lookupTimeSig:vector  ETV
vector 841306  Network.dyn_peer[342]  lookupHopsSig:vector  ETV
vector 841307  Network.dyn_peer[342]  lookupStabilitySig:vector  ETV
vector 841308  Network.dyn_peer[342]  lookupTimeSig:vector  ETV
vector 841012  Network.dyn_peer[244]  lookupHopsSig:vector  ETV
vector 841013  Network.dyn_peer[244]  lookupStabilitySig:vector  ETV
vector 841014  Network.dyn_peer[244]  lookupTimeSig:vector  ETV
vector 841621  Network.dyn_peer[447]  lookupHopsSig:vector  ETV
vector 841622  Network.dyn_peer[447]  lookupStabilitySig:vector  ETV
vector 841623  Network.dyn_peer[447]  lookupTimeSig:vector  ETV
vector 841024  Network.dyn_peer[248]  lookupHopsSig:vector  ETV
vector 841025  Network.dyn_peer[248]  lookupStabilitySig:vector  ETV
vector 841026  Network.dyn_peer[248]  lookupTimeSig:vector  ETV
vector 840766  Network.dyn_peer[162]  lookupHopsSig:vector  ETV
vector 840767  Network.dyn_peer[162]  lookupStabilitySig:vector  ETV
vector 840768  Network.dyn_peer[162]  lookupTimeSig:vector  ETV
vector 841084  Network.dyn_peer[268]  lookupHopsSig:vector  ETV
vector 841085  Network.dyn_peer[268]  lookupStabilitySig:vector  ETV
vector 841086  Network.dyn_peer[268]  lookupTimeSig:vector  ETV
vector 840490  Network.dyn_peer[70]  lookupHopsSig:vector  ETV
vector 840491  Network.dyn_peer[70]  lookupStabilitySig:vector  ETV
vector 840492  Network.dyn_peer[70]  lookupTimeSig:vector  ETV
vector 840790  Network.dyn_peer[170]  lookupHopsSig:vector  ETV
vector 840791  Network.dyn_peer[170]  lookupStabilitySig:vector  ETV
vector 840792  Network.dyn_peer[170]  lookupTimeSig:vector  ETV
vector 840511  Network.dyn_peer[77]  lookupHopsSig:vector  ETV
vector 840512  Network.dyn_peer[77]  lookupStabilitySig:vector  ETV
vector 840513  Network.dyn_peer[77]  lookupTimeSig:vector  ETV
vector 841141  Network.dyn_peer[287]  lookupHopsSig:vector  ETV
vector 841142  Network.dyn_peer[287]  lookupStabilitySig:vector  ETV
vector 841143  Network.dyn_peer[287]  lookupTimeSig:vector  ETV
vector 841756  Network.dyn_peer[492]  lookupHopsSig:vector  ETV
vector 841757  Network.dyn_peer[492]  lookupStabilitySig:vector  ETV
vector 841758  Network.dyn_peer[492]  lookupTimeSig:vector  ETV
vector 841195  Network.dyn_peer[305]  lookupHopsSig:vector  ETV
vector 841196  Network.dyn_peer[305]  lookupStabilitySig:vector  ETV
vector 841197  Network.dyn_peer[305]  lookupTimeSig:vector  ETV
vector 840904  Network.dyn_peer[208]  lookupHopsSig:vector  ETV
vector 840905  Network.dyn_peer[208]  lookupStabilitySig:vector  ETV
vector 840906  Network.dyn_peer[208]  lookupTimeSig:vector  ETV
vector 840310  Network.dyn_peer[10]  lookupHopsSig:vector  ETV
vector 840311  Network.dyn_peer[10]  lookupStabilitySig:vector  ETV
vector 840312  Network.dyn_peer[10]  lookupTimeSig:vector  ETV
vector 840913  Network.dyn_peer[211]  lookupHopsSig:vector  ETV
vector 840914  Network.dyn_peer[211]  lookupStabilitySig:vector  ETV
vector 840915  Network.dyn_peer[211]  lookupTimeSig:vector  ETV
vector 840634  Network.dyn_peer[118]  lookupHopsSig:vector  ETV
vector 840635  Network.dyn_peer[118]  lookupStabilitySig:vector  ETV
vector 840636  Network.dyn_peer[118]  lookupTimeSig:vector  ETV
vector 840337  Network.dyn_peer[19]  lookupHopsSig:vector  ETV
vector 840338  Network.dyn_peer[19]  lookupStabilitySig:vector  ETV
vector 840339  Network.dyn_peer[19]  lookupTimeSig:vector  ETV
vector 840640  Network.dyn_peer[120]  lookupHopsSig:vector  ETV
vector 840641  Network.dyn_peer[120]  lookupStabilitySig:vector  ETV
vector 840642  Network.dyn_peer[120]  lookupTimeSig:vector  ETV
vector 841576  Network.dyn_peer[432]  lookupHopsSig:vector  ETV
vector 841577  Network.dyn_peer[432]  lookupStabilitySig:vector  ETV
vector 841578  Network.dyn_peer[432]  lookupTimeSig:vector  ETV
vector 840400  Network.dyn_peer[40]  lookupHopsSig:vector  ETV
vector 840401  Network.dyn_peer[40]  lookupStabilitySig:vector  ETV