version 2
run Stability2-60-20130526-00:51:23-26640
attr configname Stability2
attr datetime 20130526-00:51:23
attr experiment Stability2
attr inifile omnetpp.ini
attr iterationvars $0=30
attr iterationvars2 "$0=30, $repetition=0"
attr measurement $0=30
attr network Network
attr processid 26640
attr repetition 0
attr replication #0
attr resultdir results
attr runnumber 60
attr seedset 60

vector 183060  Network.churner  inGoingSizeSig:vector  ETV
vector 180084  Network.dyn_peer[8]  lookupHopsSig:vector  ETV
vector 180085  Network.dyn_peer[8]  lookupStabilitySig:vector  ETV
vector 180086  Network.dyn_peer[8]  lookupTimeSig:vector  ETV
vector 180090  Network.dyn_peer[10]  lookupHopsSig:vector  ETV
vector 180091  Network.dyn_peer[10]  lookupStabilitySig:vector  ETV
vector 180092  Network.dyn_peer[10]  lookupTimeSig:vector  ETV
vector 180093  Network.dyn_peer[11]  lookupHopsSig:vector  ETV
vector 180094  Network.dyn_peer[11]  lookupStabilitySig:vector  ETV
vector 180095  Network.dyn_peer[11]  lookupTimeSig:vector  ETV
vector 180108  Network.dyn_peer[16]  lookupHopsSig:vector  ETV
vector 180109  Network.dyn_peer[16]  lookupStabilitySig:vector  ETV
vector 180110  Network.dyn_peer[16]  lookupTimeSig:vector  ETV
vector 180123  Network.dyn_peer[21]  lookupHopsSig:vector  ETV
vector 180124  Network.dyn_peer[21]  lookupStabilitySig:vector  ETV
vector 180125  Network.dyn_peer[21]  lookupTimeSig:vector  ETV
vector 180126  Network.dyn_peer[22]  lookupHopsSig:vector  ETV
vector 180127  Network.dyn_peer[22]  lookupStabilitySig:vector  ETV
vector 180128  Network.dyn_peer[22]  lookupTimeSig:vector  ETV
vector 180063  Network.dyn_peer[1]  lookupHopsSig:vector  ETV
vector 180064  Network.dyn_peer[1]  lookupStabilitySig:vector  ETV
vector 180065  Network.dyn_peer[1]  lookupTimeSig:vector  ETV
vector 180066  Network.dyn_peer[2]  lookupHopsSig:vector  ETV
vector 180067  Network.dyn_peer[2]  lookupStabilitySig:vector  ETV
vector 180068  Network.dyn_peer[2]  lookupTimeSig:vector  ETV
vector 180072  Network.dyn_peer[4]  lookupHopsSig:vector  ETV
vector 180073  Network.dyn_peer[4]  lookupStabilitySig:vector  ETV
vector 180074  Network.dyn_peer[4]  lookupTimeSig:vector  ETV
vector 180078  Network.dyn_peer[6]  lookupHopsSig:vector  ETV
vector 180079  Network.dyn_peer[6]  lookupStabilitySig:vector  ETV
vector 180080  Network.dyn_peer[6]  lookupTimeSig:vector  ETV
vector 180096  Network.dyn_peer[12]  lookupHopsSig:vector  ETV
vector 180097  Network.dyn_peer[12]  lookupStabilitySig:vector  ETV
vector 180098  Network.dyn_peer[12]  lookupTimeSig:vector  ETV
vector 180102  Network.dyn_peer[14]  lookupHopsSig:vector  ETV
vector 180103  Network.dyn_peer[14]  lookupStabilitySig:vector  ETV
vector 180104  Network.dyn_peer[14]  lookupTimeSig:vector  ETV
vector 180105  Network.dyn_peer[15]  lookupHopsSig:vector  ETV
vector 180106  Network.dyn_peer[15]  lookupStabilitySig:vector  ETV
vector 180107  Network.dyn_peer[15]  lookupTimeSig:vector  ETV
vector 180111  Network.dyn_peer[17]  lookupHopsSig:vector  ETV
vector 180112  Network.dyn_peer[17]  lookupStabilitySig:vector  ETV
vector 180113  Network.dyn_peer[17]  lookupTimeSig:vector  ETV
vector 180117  Network.dyn_peer[19]  lookupHopsSig:vector  ETV
vector 180118  Network.dyn_peer[19]  lookupStabilitySig:vector  ETV
vector 180119  Network.dyn_peer[19]  lookupTimeSig:vector  ETV
vector 180129  Network.dyn_peer[23]  lookupHopsSig:vector  ETV
vector 180130  Network.dyn_peer[23]  lookupStabilitySig:vector  ETV
vector 180131  Network.dyn_peer[23]  lookupTimeSig:vector  ETV
vector 180138  Network.dyn_peer[26]  lookupHopsSig:vector  ETV
vector 180139  Network.dyn_peer[26]  lookupStabilitySig:vector  ETV
vector 180140  Network.dyn_peer[26]  lookupTimeSig:vector  ETV
vector 180069  Network.dyn_peer[3]  lookupHopsSig:vector  ETV
vector 180070  Network.dyn_peer[3]  lookupStabilitySig:vector  ETV
vector 180071  Network.dyn_peer[3]  lookupTimeSig:vector  ETV
vector 180087  Network.dyn_peer[9]  lookupHopsSig:vector  ETV
vector 180088  Network.dyn_peer[9]  lookupStabilitySig:vector  ETV
vector 180089  Network.dyn_peer[9]  lookupTimeSig:vector  ETV
vector 180120  Network.dyn_peer[20]  lookupHopsSig:vector  ETV
vector 180121  Network.dyn_peer[20]  lookupStabilitySig:vector  ETV
vector 180122  Network.dyn_peer[20]  lookupTimeSig:vector  ETV
vector 180135  Network.dyn_peer[25]  lookupHopsSig:vector  ETV
vector 180136  Network.dyn_peer[25]  lookupStabilitySig:vector  ETV
vector 180137  Network.dyn_peer[25]  lookupTimeSig:vector  ETV
vector 180141  Network.dyn_peer[27]  lookupHopsSig:vector  ETV
vector 180142  Network.dyn_peer[27]  lookupStabilitySig:vector  ETV
vector 180143  Network.dyn_peer[27]  lookupTimeSig:vector  ETV
vector 180060  Network.dyn_peer[0]  lookupHopsSig:vector  ETV
vector 180061  Network.dyn_peer[0]  lookupStabilitySig:vector  ETV
vector 180062  Network.dyn_peer[0]  lookupTimeSig:vector  ETV
vector 180081  Network.dyn_peer[7]  lookupHopsSig:vector  ETV
vector 180082  Network.dyn_peer[7]  lookupStabilitySig:vector  ETV
vector 180083  Network.dyn_peer[7]  lookupTimeSig:vector  ETV
vector 180114  Network.dyn_peer[18]  lookupHopsSig:vector  ETV
vector 180115  Network.dyn_peer[18]  lookupStabilitySig:vector  ETV
vector 180116  Network.dyn_peer[18]  lookupTimeSig:vector  ETV
vector 180147  Network.dyn_peer[29]  lookupHopsSig:vector  ETV
vector 180148  Network.dyn_peer[29]  lookupStabilitySig:vector  ETV
vector 180149  Network.dyn_peer[29]  lookupTimeSig:vector  ETV
vector 180075  Network.dyn_peer[5]  lookupHopsSig:vector  ETV
vector 180076  Network.dyn_peer[5]  lookupStabilitySig:vector  ETV
vector 180077  Network.dyn_peer[5]  lookupTimeSig:vector  ETV
vector 180099  Network.dyn_peer[13]  lookupHopsSig:vector  ETV
vector 180100  Network.dyn_peer[13]  lookupStabilitySig:vector  ETV
vector 180101  Network.dyn_peer[13]  lookupTimeSig:vector  ETV
vector 180144  Network.dyn_peer[28]  lookupHopsSig:vector  ETV
vector 180145  Network.dyn_peer[28]  lookupStabilitySig:vector  ETV
vector 180146  Network.dyn_peer[28]  lookupTimeSig:vector  ETV
vector 180132  Network.dyn_peer[24]  lookupHopsSig:vector  ETV
vector 180133  Network.dyn_peer[24]  lookupStabilitySig:vector  ETV
vector 180134  Network.dyn_peer[24]  lookupTimeSig:vector  ETV
180060	266	20.301	3
180060	625	21.101	7
180061	266	20.301	0.39999997615814
180061	625	21.101	0.46153843402863
180062	266	20.301	0.3
180062	625	21.101	0.8
180063	133	20.102	1
180063	363	20.502	3
180063	459	20.708998435761	1
180063	761	21.509424195163	7
180064	133	20.102	0.79999999701977
180064	363	20.502	0.39999997615814
180064	459	20.708998435761	0.79999999701977
180064	761	21.509424195163	0.68181818723679
180065	133	20.102	0.1
180065	363	20.502	0.4
180065	459	20.708998435761	0.2
180065	761	21.509424195163	0.8
180066	138	20.103	1
180066	371	20.509363720025	3
180066	467	20.718776305132	1
180066	565	20.921844138959	1
180067	138	20.103	0.79999999701977
180067	371	20.509363720025	0.39999997615814
180067	467	20.718776305132	0.79999999701977
180067	565	20.921844138959	0.85714285075665
180068	138	20.103	0.1
180068	371	20.509363720025	0.4
180068	467	20.718776305132	0.2
180068	565	20.921844138959	0.2
180069	213	20.204	2
180069	542	20.904	6
180069	629	21.106560279017	1
180069	763	21.514769446482	3
180069	808	21.720675122167	1
180070	213	20.204	0.59999999403954
180070	542	20.904	0.14285713434219
180070	629	21.106560279017	0.92857142537832
180070	763	21.514769446482	0.86956521868706
180070	808	21.720675122167	0.96000000089407
180071	213	20.204	0.2
180071	542	20.904	0.7
180071	629	21.106560279017	0.2
180071	763	21.514769446482	0.4
180071	808	21.720675122167	0.2
180072	144	20.105	1
180072	544	20.905	7
180072	635	21.11381609144	1
180072	765	21.515815237407	3
180072	840	21.920011991064	3
180072	858	22.127310385894	1
180073	144	20.105	0.79999999701977
180073	544	20.905	0
180073	635	21.11381609144	0.92857142537832
180073	765	21.515815237407	0.86956521868706
180073	840	21.920011991064	0.89285714179277
180073	858	22.127310385894	0.96428571268916
180074	144	20.105	0.1
180074	544	20.905	0.8
180074	635	21.11381609144	0.2
180074	765	21.515815237407	0.4
180074	840	21.920011991064	0.4
180074	858	22.127310385894	0.2
180075	321	20.406	4
180075	627	21.106	6
180075	776	21.529746595432	3
180075	864	22.135760186108	5
180076	321	20.406	0.19999998807907
180076	627	21.106	0.5714285671711
180076	776	21.529746595432	0.86956521868706
180076	864	22.135760186108	0.82758620381355
180077	321	20.406	0.4
180077	627	21.106	0.7
180077	776	21.529746595432	0.4
180077	864	22.135760186108	0.6
180078	150	20.107	1
180078	591	21.007	8
180078	706	21.316682877783	2
180078	790	21.620529611672	2
180079	150	20.107	0.79999999701977
180079	591	21.007	0.19999998807907
180079	706	21.316682877783	0.8823529407382
180079	790	21.620529611672	0.91666666418314
180080	150	20.107	0.1
180080	591	21.007	0.9
180080	706	21.316682877783	0.3
180080	790	21.620529611672	0.3
180081	276	20.308	3
180081	593	21.008	6
180082	276	20.308	0.39999997615814
180082	593	21.008	0.39999997615814
180083	276	20.308	0.3
180083	593	21.008	0.7
180084	42	20.009	0
180084	425	20.617643319082	5
180084	562	20.921173336403	2
180085	42	20.009	1
180085	425	20.617643319082	0
180085	562	20.921173336403	0.71428570151329
180086	42	20.009	0
180086	425	20.617643319082	0.6
180086	562	20.921173336403	0.3
180087	223	20.21	2
180087	632	21.11	8
180087	767	21.516783811163	3
180087	848	22.019259669614	4
180087	893	22.524915274494	4
180087	908	22.827303587198	2
180087	923	23.129808269364	2
180087	938	23.430376409848	2
180087	953	23.732120938433	2
180087	967	24.233014121411	4
180088	223	20.21	0.59999999403954
180088	632	21.11	0.42857140302658
180088	767	21.516783811163	0.86956521868706
180088	848	22.019259669614	0.85714285075665
180088	893	22.524915274494	0.875
180088	908	22.827303587198	0.9375
180088	923	23.129808269364	0.9375
180088	938	23.430376409848	0.9375
180088	953	23.732120938433	0.93939393758774
180088	967	24.233014121411	0.87878787517548
180089	223	20.21	0.2
180089	632	21.11	0.9
180089	767	21.516783811163	0.4
180089	848	22.019259669614	0.5
180089	893	22.524915274494	0.5
180089	908	22.827303587198	0.3
180089	923	23.129808269364	0.3
180089	938	23.430376409848	0.3
180089	953	23.732120938433	0.3
180089	967	24.233014121411	0.5
180090	52	20.011	0
180090	327	20.411	3
180090	597	21.011521238879	5
180090	719	21.322594501544	2
180091	52	20.011	1
180091	327	20.411	0.39999997615814
180091	597	21.011521238879	0.54545453190804
180091	719	21.322594501544	0.88888888806105
180092	52	20.011	0
180092	327	20.411	0.4
180092	597	21.011521238879	0.6
180092	719	21.322594501544	0.3
180093	59	20.012	0
180093	295	20.321530764187	2
180093	392	20.523577119803	1
180093	525	20.825271619043	2
180094	59	20.012	1
180094	295	20.321530764187	0.59999999403954
180094	392	20.523577119803	0.79999999701977
180094	525	20.825271619043	0.66666665673256
180095	59	20.012	0
180095	295	20.321530764187	0.3
180095	392	20.523577119803	0.2
180095	525	20.825271619043	0.3
180096	160	20.113	1
180096	376	20.513	3
180096	471	20.720511458212	1
180097	160	20.113	0.79999999701977
180097	376	20.513	0.39999997615814
180097	471	20.720511458212	0.79999999701977
180098	160	20.113	0.1
180098	376	20.513	0.4
180098	471	20.720511458212	0.2
180099	335	20.414	4
180099	420	20.614	1
180099	519	20.821313720956	1
180099	656	21.129811913727	2
180100	335	20.414	0.19999998807907
180100	420	20.614	0.79999999701977
180100	519	20.821313720956	0.83333332836628
180100	656	21.129811913727	0.85714285075665
180101	335	20.414	0.4
180101	420	20.614	0.2
180101	519	20.821313720956	0.2
180101	656	21.129811913727	0.3
180102	166	20.115	1
180102	337	20.415	2
180102	465	20.715753414831	2
180102	684	21.2217872346	4
180103	166	20.115	0.79999999701977
180103	337	20.415	0.59999999403954
180103	465	20.715753414831	0.59999999403954
180103	684	21.2217872346	0.73333331942558
180104	166	20.115	0.1
180104	337	20.415	0.3
180104	465	20.715753414831	0.3
180104	684	21.2217872346	0.5
180105	171	20.116	1
180105	478	20.72183633549	5
180105	662	21.130652286355	3
180105	755	21.442290196846	2
180106	171	20.116	0.79999999701977
180106	478	20.72183633549	0
180106	662	21.130652286355	0.79999999701977
180106	755	21.442290196846	0.90476190298796
180107	171	20.116	0.1
180107	478	20.72183633549	0.6
180107	662	21.130652286355	0.4
180107	755	21.442290196846	0.3
180108	78	20.017	0
180108	423	20.617	5
180108	716	21.322233925555	6
180108	826	21.827040258844	4
180109	78	20.017	1
180109	423	20.617	0
180109	716	21.322233925555	0.66666665673256
180109	826	21.827040258844	0.84615384042263
180110	78	20.017	0
180110	423	20.617	0.6
180110	716	21.322233925555	0.7
180110	826	21.827040258844	0.5
180111	178	20.118	1
180111	342	20.418	2
180111	603	21.02057493521	5
180112	178	20.118	0.79999999701977
180112	342	20.418	0.59999999403954
180112	603	21.02057493521	0.54545453190804
180113	178	20.118	0.1
180113	342	20.418	0.3
180113	603	21.02057493521	0.6
180114	291	20.319	3
180114	679	21.219	8
180115	291	20.319	0.39999997615814
180115	679	21.219	0.46666663885117
180116	291	20.319	0.3
180116	679	21.219	0.9
180117	184	20.12	1
180117	429	20.62	4
180117	709	21.320051088279	6
180118	184	20.12	0.79999999701977
180118	429	20.62	0.19999998807907
180118	709	21.320051088279	0.64705881476402
180119	184	20.12	0.1
180119	429	20.62	0.5
180119	709	21.320051088279	0.7
180120	238	20.221	2
180120	741	21.421	11
180120	824	21.82415266319	3
180120	860	22.128868175894	2
180120	890	22.455784733853	2
180120	904	22.755912909746	2
180120	919	23.062807524912	2
180120	934	23.369367775777	2
180120	949	23.674908317247	2
180121	238	20.221	0.59999999403954
180121	741	21.421	0.44999998807907
180121	824	21.82415266319	0.88461538404226
180121	860	22.128868175894	0.92857142537832
180121	890	22.455784733853	0.9375
180121	904	22.755912909746	0.9375
180121	919	23.062807524912	0.9375
180121	934	23.369367775777	0.9375
180121	949	23.674908317247	0.9375
180122	238	20.221	0.2
180122	741	21.421	1.2
180122	824	21.82415266319	0.4
180122	860	22.128868175894	0.3
180122	890	22.455784733853	0.3
180122	904	22.755912909746	0.3
180122	919	23.062807524912	0.3
180122	934	23.369367775777	0.3
180122	949	23.674908317247	0.3
180123	99	20.022	0
180123	242	20.222	1
180123	579	20.930186986278	6
180124	99	20.022	1
180124	242	20.222	0.79999999701977
180124	579	20.930186986278	0.33333331346512
180125	99	20.022	0
180125	242	20.222	0.2
180125	579	20.930186986278	0.7
180126	106	20.023	0
180126	390	20.523	4
180126	650	21.125710332525	5
180126	747	21.430586583687	2
180127	106	20.023	1
180127	390	20.523	0.19999998807907
180127	650	21.125710332525	0.64285713434219
180127	747	21.430586583687	0.89999999850988
180128	106	20.023	0
180128	390	20.523	0.5
180128	650	21.125710332525	0.6
180128	747	21.430586583687	0.3
180129	194	20.124	1
180129	482	20.724	5
180129	779	21.5337582755	7
180130	194	20.124	0.79999999701977
180130	482	20.724	0
180130	779	21.5337582755	0.69565218687057
180131	194	20.124	0.1
180131	482	20.724	0.6
180131	779	21.5337582755	0.8
180132	487	20.725	7
180132	569	20.925	1
180132	691	21.232723351591	2
180132	784	21.545413617042	2
180132	836	21.854987477822	2
180132	882	22.26063539079	3
180133	487	20.725	-0.39999997615814
180133	569	20.925	0.875
180133	691	21.232723351591	0.8823529407382
180133	784	21.545413617042	0.91666666418314
180133	836	21.854987477822	0.92857142537832
180133	882	22.26063539079	0.90322580933571
180134	487	20.725	0.7
180134	569	20.925	0.2
180134	691	21.232723351591	0.3
180134	784	21.545413617042	0.3
180134	836	21.854987477822	0.3
180134	882	22.26063539079	0.4
180135	251	20.226	2
180135	528	20.826	5
180135	622	21.0347504591	1
180135	731	21.340998729922	2
180136	251	20.226	0.59999999403954
180136	528	20.826	0.28571426868439
180136	622	21.0347504591	0.92307692021132
180136	731	21.340998729922	0.89473684132099
180137	251	20.226	0.2
180137	528	20.826	0.6
180137	622	21.0347504591	0.2
180137	731	21.340998729922	0.3
180138	202	20.127	1
180138	613	21.027083213734	8
180139	202	20.127	0.79999999701977
180139	613	21.027083213734	0.33333331346512
180140	202	20.127	0.1
180140	613	21.027083213734	0.9
180141	258	20.228	2
180141	652	21.128	8
180141	725	21.333286187585	1
180141	800	21.639940545034	2
180141	831	21.843351489872	1
180142	258	20.228	0.59999999403954
180142	652	21.128	0.42857140302658
180142	725	21.333286187585	0.9473684206605
180142	800	21.639940545034	0.92000000178814
180142	831	21.843351489872	0.96296296268702
180143	258	20.228	0.2
180143	652	21.128	0.9
180143	725	21.333286187585	0.2
180143	800	21.639940545034	0.3
180143	831	21.843351489872	0.2
180144	406	20.529	5
180144	575	20.929	3
180144	667	21.133768345224	1
180144	750	21.435089351617	2
180144	815	21.744968292748	2
180144	872	22.152809061214	3
180145	406	20.529	0
180145	575	20.929	0.66666665673256
180145	667	21.133768345224	0.9333333298564
180145	750	21.435089351617	0.90476190298796
180145	815	21.744968292748	0.92307692021132
180145	872	22.152809061214	0.89999999850988
180146	406	20.529	0.5
180146	575	20.929	0.4
180146	667	21.133768345224	0.2
180146	750	21.435089351617	0.3
180146	815	21.744968292748	0.3
180146	872	22.152809061214	0.4
180147	311	20.33	3
180147	658	21.13	7
180147	752	21.439671943606	2
180147	817	21.74946567986	2
180147	869	22.150419401846	3
180147	902	22.750728860179	5
180147	914	22.959477600032	1
180147	929	23.264110250703	2
180147	944	23.573208181426	2
180147	962	24.079626249797	4
180147	971	24.389151549146	2
180147	976	24.692853834489	2
180147	981	25.000219295695	2
180147	987	25.40909985644	3
180148	311	20.33	0.39999997615814
180148	658	21.13	0.5
180148	752	21.439671943606	0.90476190298796
180148	817	21.74946567986	0.92307692021132
180148	869	22.150419401846	0.89999999850988
180148	902	22.750728860179	0.84375
180148	914	22.959477600032	0.96875
180148	929	23.264110250703	0.9375
180148	944	23.573208181426	0.9375
180148	962	24.079626249797	0.87878787517548
180148	971	24.389151549146	0.9411764703691
180148	976	24.692853834489	0.9411764703691
180148	981	25.000219295695	0.9411764703691
180148	987	25.40909985644	0.91176470369101
180149	311	20.33	0.3
180149	658	21.13	0.8
180149	752	21.439671943606	0.3
180149	817	21.74946567986	0.3
180149	869	22.150419401846	0.4
180149	902	22.750728860179	0.6
180149	914	22.959477600032	0.2
180149	929	23.264110250703	0.3
180149	944	23.573208181426	0.3
180149	962	24.079626249797	0.5
180149	971	24.389151549146	0.3
180149	976	24.692853834489	0.3
180149	981	25.000219295695	0.3
180149	987	25.40909985644	0.4
183060	11	20	0
183060	12	20.001	0
183060	15	20.002	1
183060	18	20.003	2
183060	21	20.004	3
183060	24	20.005	4
183060	27	20.006	5
183060	30	20.007	6
183060	33	20.008	7
183060	36	20.009	8
183060	43	20.01	9
183060	46	20.011	10
183060	53	20.012	11
183060	60	20.013	12
183060	63	20.014	13
183060	66	20.015	14
183060	69	20.016	15
183060	72	20.017	16
183060	80	20.018	17
183060	83	20.019	18
183060	86	20.02	19
183060	89	20.021	20
183060	93	20.022	21
183060	100	20.023	22
183060	107	20.024	23
183060	110	20.025	24
183060	113	20.026	25
183060	116	20.027	26
183060	119	20.028	27
183060	122	20.029	28
183060	125	20.03	29
