version 2
run Stability2-33-20130526-00:51:15-26640
attr configname Stability2
attr datetime 20130526-00:51:15
attr experiment Stability2
attr inifile omnetpp.ini
attr iterationvars $0=20
attr iterationvars2 "$0=20, $repetition=3"
attr measurement $0=20
attr network Network
attr processid 26640
attr repetition 3
attr replication #3
attr resultdir results
attr runnumber 33
attr seedset 33

vector 102033  Network.churner  inGoingSizeSig:vector  ETV
vector 99045  Network.dyn_peer[4]  lookupHopsSig:vector  ETV
vector 99046  Network.dyn_peer[4]  lookupStabilitySig:vector  ETV
vector 99047  Network.dyn_peer[4]  lookupTimeSig:vector  ETV
vector 99048  Network.dyn_peer[5]  lookupHopsSig:vector  ETV
vector 99049  Network.dyn_peer[5]  lookupStabilitySig:vector  ETV
vector 99050  Network.dyn_peer[5]  lookupTimeSig:vector  ETV
vector 99063  Network.dyn_peer[10]  lookupHopsSig:vector  ETV
vector 99064  Network.dyn_peer[10]  lookupStabilitySig:vector  ETV
vector 99065  Network.dyn_peer[10]  lookupTimeSig:vector  ETV
vector 99069  Network.dyn_peer[12]  lookupHopsSig:vector  ETV
vector 99070  Network.dyn_peer[12]  lookupStabilitySig:vector  ETV
vector 99071  Network.dyn_peer[12]  lookupTimeSig:vector  ETV
vector 99072  Network.dyn_peer[13]  lookupHopsSig:vector  ETV
vector 99073  Network.dyn_peer[13]  lookupStabilitySig:vector  ETV
vector 99074  Network.dyn_peer[13]  lookupTimeSig:vector  ETV
vector 99060  Network.dyn_peer[9]  lookupHopsSig:vector  ETV
vector 99061  Network.dyn_peer[9]  lookupStabilitySig:vector  ETV
vector 99062  Network.dyn_peer[9]  lookupTimeSig:vector  ETV
vector 99078  Network.dyn_peer[15]  lookupHopsSig:vector  ETV
vector 99079  Network.dyn_peer[15]  lookupStabilitySig:vector  ETV
vector 99080  Network.dyn_peer[15]  lookupTimeSig:vector  ETV
vector 99087  Network.dyn_peer[18]  lookupHopsSig:vector  ETV
vector 99088  Network.dyn_peer[18]  lookupStabilitySig:vector  ETV
vector 99089  Network.dyn_peer[18]  lookupTimeSig:vector  ETV
vector 99039  Network.dyn_peer[2]  lookupHopsSig:vector  ETV
vector 99040  Network.dyn_peer[2]  lookupStabilitySig:vector  ETV
vector 99041  Network.dyn_peer[2]  lookupTimeSig:vector  ETV
vector 99075  Network.dyn_peer[14]  lookupHopsSig:vector  ETV
vector 99076  Network.dyn_peer[14]  lookupStabilitySig:vector  ETV
vector 99077  Network.dyn_peer[14]  lookupTimeSig:vector  ETV
vector 99081  Network.dyn_peer[16]  lookupHopsSig:vector  ETV
vector 99082  Network.dyn_peer[16]  lookupStabilitySig:vector  ETV
vector 99083  Network.dyn_peer[16]  lookupTimeSig:vector  ETV
vector 99084  Network.dyn_peer[17]  lookupHopsSig:vector  ETV
vector 99085  Network.dyn_peer[17]  lookupStabilitySig:vector  ETV
vector 99086  Network.dyn_peer[17]  lookupTimeSig:vector  ETV
vector 99033  Network.dyn_peer[0]  lookupHopsSig:vector  ETV
vector 99034  Network.dyn_peer[0]  lookupStabilitySig:vector  ETV
vector 99035  Network.dyn_peer[0]  lookupTimeSig:vector  ETV
vector 99042  Network.dyn_peer[3]  lookupHopsSig:vector  ETV
vector 99043  Network.dyn_peer[3]  lookupStabilitySig:vector  ETV
vector 99044  Network.dyn_peer[3]  lookupTimeSig:vector  ETV
vector 99051  Network.dyn_peer[6]  lookupHopsSig:vector  ETV
vector 99052  Network.dyn_peer[6]  lookupStabilitySig:vector  ETV
vector 99053  Network.dyn_peer[6]  lookupTimeSig:vector  ETV
vector 99057  Network.dyn_peer[8]  lookupHopsSig:vector  ETV
vector 99058  Network.dyn_peer[8]  lookupStabilitySig:vector  ETV
vector 99059  Network.dyn_peer[8]  lookupTimeSig:vector  ETV
vector 99036  Network.dyn_peer[1]  lookupHopsSig:vector  ETV
vector 99037  Network.dyn_peer[1]  lookupStabilitySig:vector  ETV
vector 99038  Network.dyn_peer[1]  lookupTimeSig:vector  ETV
vector 99054  Network.dyn_peer[7]  lookupHopsSig:vector  ETV
vector 99055  Network.dyn_peer[7]  lookupStabilitySig:vector  ETV
vector 99056  Network.dyn_peer[7]  lookupTimeSig:vector  ETV
vector 99090  Network.dyn_peer[19]  lookupHopsSig:vector  ETV
vector 99091  Network.dyn_peer[19]  lookupStabilitySig:vector  ETV
vector 99092  Network.dyn_peer[19]  lookupTimeSig:vector  ETV
vector 99066  Network.dyn_peer[11]  lookupHopsSig:vector  ETV
vector 99067  Network.dyn_peer[11]  lookupStabilitySig:vector  ETV
vector 99068  Network.dyn_peer[11]  lookupTimeSig:vector  ETV
99033	178	20.301	3
99033	424	21.010645000211	6
99034	178	20.301	0.39999997615814
99034	424	21.010645000211	0.5714285671711
99035	178	20.301	0.3
99035	424	21.010645000211	0.7
99036	221	20.402	4
99036	334	20.702373287273	2
99036	394	20.910931483195	1
99036	500	21.512624641221	5
99037	221	20.402	0.19999998807907
99037	334	20.702373287273	0.71428570151329
99037	394	20.910931483195	0.91666666418314
99037	500	21.512624641221	0.76190476119518
99038	221	20.402	0.4
99038	334	20.702373287273	0.3
99038	394	20.910931483195	0.2
99038	500	21.512624641221	0.6
99039	129	20.203	2
99039	248	20.417878756133	1
99039	436	21.01990353582	5
99039	489	21.325829389183	2
99040	129	20.203	0.59999999403954
99040	248	20.417878756133	0.79999999701977
99040	436	21.01990353582	0.66666665673256
99040	489	21.325829389183	0.89473684132099
99041	129	20.203	0.2
99041	248	20.417878756133	0.2
99041	436	21.01990353582	0.6
99041	489	21.325829389183	0.3
99042	184	20.304	3
99042	463	21.204	8
99042	507	21.60743884736	3
99042	518	22.012592448531	3
99042	522	22.215434805116	1
99042	527	22.519795341583	2
99042	533	22.827587246117	2
99042	539	23.228728035697	3
99043	184	20.304	0.39999997615814
99043	463	21.204	0.5
99043	507	21.60743884736	0.86956521868706
99043	518	22.012592448531	0.875
99043	522	22.215434805116	0.95833333209157
99043	527	22.519795341583	0.91666666418314
99043	533	22.827587246117	0.91666666418314
99043	539	23.228728035697	0.875
99044	184	20.304	0.3
99044	463	21.204	0.9
99044	507	21.60743884736	0.4
99044	518	22.012592448531	0.4
99044	522	22.215434805116	0.2
99044	527	22.519795341583	0.3
99044	533	22.827587246117	0.3
99044	539	23.228728035697	0.4
99045	29	20.005	0
99045	132	20.205	1
99045	225	20.405589332885	1
99045	345	20.717223866473	2
99046	29	20.005	1
99046	132	20.205	0.79999999701977
99046	225	20.405589332885	0.79999999701977
99046	345	20.717223866473	0.71428570151329
99047	29	20.005	0
99047	132	20.205	0.2
99047	225	20.405589332885	0.2
99047	345	20.717223866473	0.3
99048	36	20.006	0
99048	227	20.406	3
99048	390	20.907128821035	4
99049	36	20.006	1
99049	227	20.406	0.39999997615814
99049	390	20.907128821035	0.66666665673256
99050	36	20.006	0
99050	227	20.406	0.4
99050	390	20.907128821035	0.5
99051	191	20.307	3
99051	365	20.807	4
99052	191	20.307	0.39999997615814
99052	365	20.807	0.59999999403954
99053	191	20.307	0.3
99053	365	20.807	0.5
99054	234	20.408	4
99054	422	21.008	5
99054	480	21.315501720019	2
99055	234	20.408	0.19999998807907
99055	422	21.008	0.64285713434219
99055	480	21.315501720019	0.88888888806105
99056	234	20.408	0.4
99056	422	21.008	0.6
99056	480	21.315501720019	0.3
99057	197	20.309	3
99057	372	20.811357384746	4
99058	197	20.309	0.39999997615814
99058	372	20.811357384746	0.63636362552643
99059	197	20.309	0.3
99059	372	20.811357384746	0.5
99060	104	20.11	1
99060	236	20.41	2
99060	430	21.017512076562	5
99060	485	21.320647660393	2
99061	104	20.11	0.79999999701977
99061	236	20.41	0.59999999403954
99061	430	21.017512076562	0.66666665673256
99061	485	21.320647660393	0.88888888806105
99062	104	20.11	0.1
99062	236	20.41	0.3
99062	430	21.017512076562	0.6
99062	485	21.320647660393	0.3
99063	55	20.011	0
99063	140	20.211	1
99063	300	20.531017152219	2
99063	361	20.734644581194	1
99063	416	20.937940437968	1
99064	55	20.011	1
99064	140	20.211	0.79999999701977
99064	300	20.531017152219	0.59999999403954
99064	361	20.734644581194	0.89999999850988
99064	416	20.937940437968	0.92307692021132
99065	55	20.011	0
99065	140	20.211	0.2
99065	300	20.531017152219	0.3
99065	361	20.734644581194	0.2
99065	416	20.937940437968	0.2
99066	313	20.612	6
99066	396	20.912	2
99066	450	21.116375790276	1
99067	313	20.612	-0.20000004768372
99067	396	20.912	0.83333332836628
99067	450	21.116375790276	0.9333333298564
99068	313	20.612	0.6
99068	396	20.912	0.3
99068	450	21.116375790276	0.2
99069	65	20.013	0
99069	203	20.313	2
99069	324	20.622766272399	2
99070	65	20.013	1
99070	203	20.313	0.59999999403954
99070	324	20.622766272399	0.59999999403954
99071	65	20.013	0
99071	203	20.313	0.3
99071	324	20.622766272399	0.3
99072	72	20.014	0
99072	146	20.214	1
99072	322	20.620624911285	3
99073	72	20.014	1
99073	146	20.214	0.79999999701977
99073	322	20.620624911285	0.39999997615814
99074	72	20.014	0
99074	146	20.214	0.2
99074	322	20.620624911285	0.4
99075	151	20.215	2
99075	243	20.415	1
99075	407	20.924627707076	4
99075	472	21.227808108489	2
99076	151	20.215	0.59999999403954
99076	243	20.415	0.79999999701977
99076	407	20.924627707076	0.69230768084526
99076	472	21.227808108489	0.875
99077	151	20.215	0.2
99077	243	20.415	0.2
99077	407	20.924627707076	0.5
99077	472	21.227808108489	0.3
99078	114	20.116	1
99078	277	20.516	3
99078	356	20.725508807039	1
99079	114	20.116	0.79999999701977
99079	277	20.516	0.39999997615814
99079	356	20.725508807039	0.88888888806105
99080	114	20.116	0.1
99080	277	20.516	0.4
99080	356	20.725508807039	0.2
99081	157	20.217	2
99081	349	20.719418480063	4
99082	157	20.217	0.59999999403954
99082	349	20.719418480063	0.42857140302658
99083	157	20.217	0.2
99083	349	20.719418480063	0.5
99084	164	20.218	2
99084	432	21.018	7
99084	495	21.418620171993	3
99084	514	21.824070778888	3
99085	164	20.218	0.59999999403954
99085	432	21.018	0.53333333134651
99085	495	21.418620171993	0.85714285075665
99085	514	21.824070778888	0.86956521868706
99086	164	20.218	0.2
99086	432	21.018	0.8
99086	495	21.418620171993	0.4
99086	514	21.824070778888	0.4
99087	121	20.119	1
99087	252	20.419	2
99087	411	20.928879118348	4
99087	504	21.536292755629	5
99088	121	20.119	0.79999999701977
99088	252	20.419	0.59999999403954
99088	411	20.928879118348	0.69230768084526
99088	504	21.536292755629	0.77272726595402
99089	121	20.119	0.1
99089	252	20.419	0.3
99089	411	20.928879118348	0.5
99089	504	21.536292755629	0.6
99090	259	20.42	4
99090	379	20.82	3
99090	442	21.028788103251	1
99090	474	21.236222199221	1
99091	259	20.42	0.19999998807907
99091	379	20.82	0.75
99091	442	21.028788103251	0.9333333298564
99091	474	21.236222199221	0.9375
99092	259	20.42	0.4
99092	379	20.82	0.4
99092	442	21.028788103251	0.2
99092	474	21.236222199221	0.2
102033	10	20	0
102033	11	20.001	0
102033	14	20.002	1
102033	17	20.003	2
102033	20	20.004	3
102033	23	20.005	4
102033	30	20.006	5
102033	37	20.007	6
102033	40	20.008	7
102033	43	20.009	8
102033	46	20.01	9
102033	49	20.011	10
102033	56	20.012	11
102033	59	20.013	12
102033	66	20.014	13
102033	73	20.015	14
102033	76	20.016	15
102033	79	20.017	16
102033	82	20.018	17
102033	85	20.019	18
102033	88	20.02	19
