file 215814 1369674129                                          
version 2
run Stability2-231-20130526-00:52:48-26640
attr configname Stability2
attr datetime 20130526-00:52:48
attr experiment Stability2
attr inifile omnetpp.ini
attr iterationvars $0=300
attr iterationvars2 "$0=300, $repetition=21"
attr measurement $0=300
attr network Network
attr processid 26640
attr repetition 21
attr replication #21
attr resultdir results
attr runnumber 231
attr seedset 231
vector 696231  Network.churner  inGoingSizeSig:vector  ETV
696231	209292 6522 11 1408 20 20.3 301 0 299 44850 8955050
vector 693231  Network.dyn_peer[0]  lookupHopsSig:vector  ETV
693231	59230 71 18 9524 20.001 22.601744721989 3 0 15 24 306
vector 693232  Network.dyn_peer[0]  lookupStabilitySig:vector  ETV
693232	59301 101 18 9524 20.001 22.601744721989 3 -0.79999995231628 1 0.78333339095116 1.9802777130736
vector 693233  Network.dyn_peer[0]  lookupTimeSig:vector  ETV
693233	59402 72 18 9524 20.001 22.601744721989 3 0 1.6 2.6 3.56
vector 693246  Network.dyn_peer[5]  lookupHopsSig:vector  ETV
693246	61329 108 37 5100 20.006 21.314469073932 4 0 8 10 66
vector 693247  Network.dyn_peer[5]  lookupStabilitySig:vector  ETV
693247	61437 154 37 5100 20.006 21.314469073932 4 -0.60000002384186 1 1.9999999701977 2.6400000190735
vector 693248  Network.dyn_peer[5]  lookupTimeSig:vector  ETV
693248	61591 114 37 5100 20.006 21.314469073932 4 0 0.9 1.3 0.89
vector 693267  Network.dyn_peer[12]  lookupHopsSig:vector  ETV
693267	64517 73 63 16212 20.013 25.121139486263 3 0 37 49 1513
vector 693268  Network.dyn_peer[12]  lookupStabilitySig:vector  ETV
693268	64590 101 63 16212 20.013 25.121139486263 3 -1.4000000953674 1 0.37575748562816 3.5618000915008
vector 693269  Network.dyn_peer[12]  lookupTimeSig:vector  ETV
693269	64691 75 63 16212 20.013 25.121139486263 3 0 3.8 5.1 16.13
vector 693276  Network.dyn_peer[15]  lookupHopsSig:vector  ETV
693276	65742 50 76 9607 20.016 22.630979356532 2 0 25 25 625
vector 693277  Network.dyn_peer[15]  lookupStabilitySig:vector  ETV
693277	65792 63 76 9607 20.016 22.630979356532 2 0.3243243098259 1 1.3243243098259 1.105186257944
vector 693278  Network.dyn_peer[15]  lookupTimeSig:vector  ETV
693278	65855 51 76 9607 20.016 22.630979356532 2 0 2.6 2.6 6.76
vector 693282  Network.dyn_peer[17]  lookupHopsSig:vector  ETV
693282	66487 164 86 20130 20.018 28.672157738494 6 0 20 59 895
vector 693283  Network.dyn_peer[17]  lookupStabilitySig:vector  ETV
693283	66651 222 86 20130 20.018 28.672157738494 6 -0.10000002384186 1 3.7129847891629 3.6488757112138
vector 693284  Network.dyn_peer[17]  lookupTimeSig:vector  ETV
693284	66873 171 86 20130 20.018 28.672157738494 6 0 2.1 6.4 10.18
vector 693312  Network.dyn_peer[27]  lookupHopsSig:vector  ETV
693312	70619 72 122 8256 20.028 22.233638876049 3 0 19 20 362
vector 693313  Network.dyn_peer[27]  lookupStabilitySig:vector  ETV
693313	70691 103 122 8256 20.028 22.233638876049 3 -0.055555582046509 1 1.9027777500451 1.9214891980943
vector 693314  Network.dyn_peer[27]  lookupTimeSig:vector  ETV
693314	70794 73 122 8256 20.028 22.233638876049 3 0 2 2.2 4.04
vector 693315  Network.dyn_peer[28]  lookupHopsSig:vector  ETV
693315	70867 42 129 8238 20.029 22.229 2 0 21 21 441
vector 693316  Network.dyn_peer[28]  lookupStabilitySig:vector  ETV
693316	70909 56 129 8238 20.029 22.229 2 0.08695650100708 1 1.0869565010071 1.0075614330674
vector 693317  Network.dyn_peer[28]  lookupTimeSig:vector  ETV
693317	70965 43 129 8238 20.029 22.229 2 0 2.2 2.2 4.84
vector 693321  Network.dyn_peer[30]  lookupHopsSig:vector  ETV
693321	71361 115 140 14542 20.031 24.339405064864 4 0 17 40 558
vector 693322  Network.dyn_peer[30]  lookupStabilitySig:vector  ETV
693322	71476 143 140 14542 20.031 24.339405064864 4 -1 1 1.5869090855122 3.2801713635631
vector 693323  Network.dyn_peer[30]  lookupTimeSig:vector  ETV
693323	71619 118 140 14542 20.031 24.339405064864 4 0 1.8 4.3 6.41
vector 693540  Network.dyn_peer[103]  lookupHopsSig:vector  ETV
693540	105805 136 369 17823 20.104 26.106834380817 5 0 24 56 978
vector 693541  Network.dyn_peer[103]  lookupStabilitySig:vector  ETV
693541	105941 193 369 17823 20.104 26.106834380817 5 0.33333331346512 1 4.1248291656375 3.7141233546876
vector 693542  Network.dyn_peer[103]  lookupTimeSig:vector  ETV
693542	106134 142 369 17823 20.104 26.106834380817 5 0 2.5 6 10.94
vector 693543  Network.dyn_peer[104]  lookupHopsSig:vector  ETV
693543	106276 287 377 18812 20.105 26.99319952472 10 0 20 59 671
vector 693544  Network.dyn_peer[104]  lookupStabilitySig:vector  ETV
693544	106563 406 377 18812 20.105 26.99319952472 10 -1 1 7.2786265318282 8.7276273355231
vector 693545  Network.dyn_peer[104]  lookupTimeSig:vector  ETV
693545	106969 303 377 18812 20.105 26.99319952472 10 0 2.1 6.8 7.98
vector 693270  Network.dyn_peer[13]  lookupHopsSig:vector  ETV
693270	64766 133 415 14263 20.114 24.227191154475 5 1 23 38 612
vector 693271  Network.dyn_peer[13]  lookupStabilitySig:vector  ETV
693271	64899 207 415 14263 20.114 24.227191154475 5 0.39999997615814 0.93162392824888 3.2030524387956 2.2787394135799
vector 693272  Network.dyn_peer[13]  lookupTimeSig:vector  ETV
693272	65106 142 415 14263 20.114 24.227191154475 5 0.1 2.4 4.2 6.9
vector 693585  Network.dyn_peer[118]  lookupHopsSig:vector  ETV
693585	112245 73 440 12952 20.119 23.725116684444 3 0 27 34 778
vector 693586  Network.dyn_peer[118]  lookupStabilitySig:vector  ETV
693586	112318 94 440 12952 20.119 23.725116684444 3 -0.39999997615814 1 1.3187500238419 1.6766015434265
vector 693587  Network.dyn_peer[118]  lookupTimeSig:vector  ETV
693587	112412 76 440 12952 20.119 23.725116684444 3 0 2.8 3.6 8.48
vector 693294  Network.dyn_peer[21]  lookupHopsSig:vector  ETV
693294	67728 104 454 12990 20.122 23.735581754317 4 1 16 34 442
vector 693295  Network.dyn_peer[21]  lookupStabilitySig:vector  ETV
693295	67832 162 454 12990 20.122 23.735581754317 4 0.19999998807907 0.86597938835621 2.2945507764816 1.6135937390132
vector 693296  Network.dyn_peer[21]  lookupTimeSig:vector  ETV
693296	67994 110 454 12990 20.122 23.735581754317 4 0.1 1.7 3.7 5.11
vector 693318  Network.dyn_peer[29]  lookupHopsSig:vector  ETV
693318	71008 99 491 9300 20.13 22.53795377005 4 1 13 22 204
vector 693319  Network.dyn_peer[29]  lookupStabilitySig:vector  ETV
693319	71107 148 491 9300 20.13 22.53795377005 4 0.1875 0.85294117033482 2.2404411435127 1.5626648662103
vector 693320  Network.dyn_peer[29]  lookupTimeSig:vector  ETV
693320	71255 106 491 9300 20.13 22.53795377005 4 0.1 1.4 2.5 2.49
vector 693324  Network.dyn_peer[31]  lookupHopsSig:vector  ETV
693324	71737 75 503 16240 20.132 25.135833855264 3 1 28 49 1185
vector 693325  Network.dyn_peer[31]  lookupStabilitySig:vector  ETV
693325	71812 118 503 16240 20.132 25.135833855264 3 0.51724138855934 0.87951806932688 2.196759454906 1.6810906835429
vector 693326  Network.dyn_peer[31]  lookupTimeSig:vector  ETV
693326	71930 79 503 16240 20.132 25.135833855264 3 0.1 2.9 5.1 12.83
vector 693333  Network.dyn_peer[34]  lookupHopsSig:vector  ETV
693333	72722 104 520 11841 20.135 23.338519488074 4 1 16 30 366
vector 693334  Network.dyn_peer[34]  lookupStabilitySig:vector  ETV
693334	72826 147 520 11841 20.135 23.338519488074 4 -1 0.79999999701977 1.1522504836321 2.5762134724907
vector 693335  Network.dyn_peer[34]  lookupTimeSig:vector  ETV
693335	72973 110 520 11841 20.135 23.338519488074 4 0.1 1.7 3.3 4.27
vector 693336  Network.dyn_peer[35]  lookupHopsSig:vector  ETV
693336	73083 355 528 21062 20.136 31.124602914043 12 1 22 99 1195
vector 693337  Network.dyn_peer[35]  lookupStabilitySig:vector  ETV
693337	73438 519 528 21062 20.136 31.124602914043 12 0.26666665077209 0.99295774661005 10.635802103207 9.8731370317403
vector 693338  Network.dyn_peer[35]  lookupTimeSig:vector  ETV
693338	73957 371 528 21062 20.136 31.124602914043 12 0.1 2.3 11 14.02
vector 693348  Network.dyn_peer[39]  lookupHopsSig:vector  ETV
693348	75897 71 550 10339 20.14 22.849327872352 3 1 23 26 534
vector 693349  Network.dyn_peer[39]  lookupStabilitySig:vector  ETV
693349	75968 115 550 10339 20.14 22.849327872352 3 0.52083334326744 0.79999999701977 1.9208333343267 1.2712673595382
vector 693350  Network.dyn_peer[39]  lookupTimeSig:vector  ETV
693350	76083 76 550 10339 20.14 22.849327872352 3 0.1 2.4 2.8 5.86
vector 693354  Network.dyn_peer[41]  lookupHopsSig:vector  ETV
693354	76308 72 562 9654 20.142 22.643035026677 3 1 15 24 290
vector 693355  Network.dyn_peer[41]  lookupStabilitySig:vector  ETV
693355	76380 104 562 9654 20.142 22.643035026677 3 -0.5 0.79999999701977 1.0999999940395 1.5299999904633
vector 693356  Network.dyn_peer[41]  lookupTimeSig:vector  ETV
693356	76484 77 562 9654 20.142 22.643035026677 3 0.1 1.6 2.6 3.38
vector 693417  Network.dyn_peer[62]  lookupHopsSig:vector  ETV
693417	85327 200 651 20254 20.163 28.889284362436 7 1 31 82 1680
vector 693418  Network.dyn_peer[62]  lookupStabilitySig:vector  ETV
693418	85527 299 651 20254 20.163 28.889284362436 7 0.59740260243416 0.9922178988345 6.1680427514948 5.5558045726841
vector 693419  Network.dyn_peer[62]  lookupTimeSig:vector  ETV
693419	85826 209 651 20254 20.163 28.889284362436 7 0.1 3.2 8.8 18.48
vector 693420  Network.dyn_peer[63]  lookupHopsSig:vector  ETV
693420	86035 104 659 13870 20.164 24.072441643115 4 1 20 37 531
vector 693421  Network.dyn_peer[63]  lookupStabilitySig:vector  ETV
693421	86139 162 659 13870 20.164 24.072441643115 4 0.19999998807907 0.9380530975759 2.8076183013618 2.3160872738853
vector 693422  Network.dyn_peer[63]  lookupTimeSig:vector  ETV
693422	86301 109 659 13870 20.164 24.072441643115 4 0.1 2.1 4 6.06
vector 693450  Network.dyn_peer[73]  lookupHopsSig:vector  ETV
693450	90815 73 703 12829 20.174 23.682215060764 3 1 31 34 966
vector 693451  Network.dyn_peer[73]  lookupStabilitySig:vector  ETV
693451	90888 116 703 12829 20.174 23.682215060764 3 0.59999999403954 0.79999999701977 2.0630434602499 1.4396266301154
vector 693452  Network.dyn_peer[73]  lookupTimeSig:vector  ETV
693452	91004 78 703 12829 20.174 23.682215060764 3 0.1 3.2 3.6 10.34
vector 693483  Network.dyn_peer[84]  lookupHopsSig:vector  ETV
693483	96642 200 751 20018 20.185 28.505046396889 7 1 19 78 1088
vector 693484  Network.dyn_peer[84]  lookupStabilitySig:vector  ETV
693484	96842 303 751 20018 20.185 28.505046396889 7 -0.066666722297668 0.95625000074506 5.2955667823553 4.8199182181017
vector 693485  Network.dyn_peer[84]  lookupTimeSig:vector  ETV
693485	97145 206 751 20018 20.185 28.505046396889 7 0.1 2 8.4 12.48
vector 693486  Network.dyn_peer[85]  lookupHopsSig:vector  ETV
693486	97351 199 759 19361 20.186 27.617968773333 7 1 21 69 919
vector 693487  Network.dyn_peer[85]  lookupStabilitySig:vector  ETV
693487	97550 302 759 19361 20.186 27.617968773333 7 -0.60000002384186 0.97222222201526 4.6822140906006 5.0694579816774
vector 693488  Network.dyn_peer[85]  lookupTimeSig:vector  ETV
693488	97852 210 759 19361 20.186 27.617968773333 7 0.1 2.2 7.5 10.61
vector 693237  Network.dyn_peer[2]  lookupHopsSig:vector  ETV
693237	59638 136 834 19827 20.203 28.216029904461 5 2 48 78 2654
vector 693238  Network.dyn_peer[2]  lookupStabilitySig:vector  ETV
693238	59774 209 834 19827 20.203 28.216029904461 5 0.59999999403954 0.98770491778851 4.1944015622139 3.6393569398841
vector 693239  Network.dyn_peer[2]  lookupTimeSig:vector  ETV
693239	59983 142 834 19827 20.203 28.216029904461 5 0.2 4.9 8.2 28.1
vector 693537  Network.dyn_peer[102]  lookupHopsSig:vector  ETV
693537	105426 105 838 17531 20.203 25.90669830361 4 1 36 55 1491
vector 693538  Network.dyn_peer[102]  lookupStabilitySig:vector  ETV
693538	105531 163 838 17531 20.203 25.90669830361 4 0.65048542618752 0.97474747523665 3.3509471826255 2.870210861332
vector 693539  Network.dyn_peer[102]  lookupTimeSig:vector  ETV
693539	105694 111 838 17531 20.203 25.90669830361 4 0.1 3.7 5.8 16.02
vector 693249  Network.dyn_peer[6]  lookupHopsSig:vector  ETV
693249	61705 72 862 11762 20.207 23.31508603245 3 2 21 31 509
vector 693250  Network.dyn_peer[6]  lookupStabilitySig:vector  ETV
693250	61777 103 862 11762 20.207 23.31508603245 3 0.25 0.8840579688549 1.7340579628944 1.2040584851433
vector 693251  Network.dyn_peer[6]  lookupTimeSig:vector  ETV
693251	61880 77 862 11762 20.207 23.31508603245 3 0.2 2.2 3.3 5.69
vector 693261  Network.dyn_peer[10]  lookupHopsSig:vector  ETV
693261	63871 73 886 12366 20.211 23.51132083376 3 2 20 33 525
vector 693262  Network.dyn_peer[10]  lookupStabilitySig:vector  ETV
693262	63944 117 886 12366 20.211 23.51132083376 3 -0.83333337306976 0.75903613865376 0.52570275962354 1.6305803633017
vector 693263  Network.dyn_peer[10]  lookupTimeSig:vector  ETV
693263	64061 77 886 12366 20.211 23.51132083376 3 0.2 2.1 3.5 5.89
vector 693288  Network.dyn_peer[19]  lookupHopsSig:vector  ETV
693288	67191 40 937 6807 20.22 21.82 2 2 15 17 229
vector 693289  Network.dyn_peer[19]  lookupStabilitySig:vector  ETV
693289	67231 57 937 6807 20.22 21.82 2 -0.5 0.59999999403954 0.09999999403954 0.60999999284745
vector 693290  Network.dyn_peer[19]  lookupTimeSig:vector  ETV
693290	67288 43 937 6807 20.22 21.82 2 0.2 1.6 1.8 2.6
vector 693291  Network.dyn_peer[20]  lookupHopsSig:vector  ETV
693291	67331 111 946 10603 20.221 22.93401678015 4 2 12 26 238
vector 693292  Network.dyn_peer[20]  lookupStabilitySig:vector  ETV
693292	67442 170 946 10603 20.221 22.93401678015 4 -0.79999995231628 0.77777777612209 1.1492063850165 1.9314687929621
vector 693293  Network.dyn_peer[20]  lookupTimeSig:vector  ETV
693293	67612 116 946 10603 20.221 22.93401678015 4 0.2 1.3 2.9 2.89
vector 693297  Network.dyn_peer[22]  lookupHopsSig:vector  ETV
693297	68104 168 960 20047 20.223 28.54126239601 6 2 21 80 1310
vector 693298  Network.dyn_peer[22]  lookupStabilitySig:vector  ETV
693298	68272 254 960 20047 20.223 28.54126239601 6 -0.85714280605316 0.92395437508821 3.2279744073749 4.1450746612019
vector 693299  Network.dyn_peer[22]  lookupTimeSig:vector  ETV
693299	68526 175 960 20047 20.223 28.54126239601 6 0.2 2.2 8.5 14.71
vector 693597  Network.dyn_peer[122]  lookupHopsSig:vector  ETV
693597	113408 105 964 15423 20.223 24.732394462084 4 1 21 43 667
vector 693598  Network.dyn_peer[122]  lookupStabilitySig:vector  ETV
693598	113513 163 964 15423 20.223 24.732394462084 4 0.27586209774017 0.91780821979046 2.8811703175306 2.3461280758061
vector 693599  Network.dyn_peer[122]  lookupTimeSig:vector  ETV
693599	113676 109 964 15423 20.223 24.732394462084 4 0.1 2.2 4.6 7.54
vector 693612  Network.dyn_peer[127]  lookupHopsSig:vector  ETV
693612	115402 104 995 12166 20.228 23.441148385518 4 1 15 30 396
vector 693613  Network.dyn_peer[127]  lookupStabilitySig:vector  ETV
693613	115506 162 995 12166 20.228 23.441148385518 4 0.16666668653488 0.83750000596046 2.6041666865349 2.0091840348476
vector 693614  Network.dyn_peer[127]  lookupTimeSig:vector  ETV
693614	115668 110 995 12166 20.228 23.441148385518 4 0.1 1.6 3.3 4.57
vector 693615  Network.dyn_peer[128]  lookupHopsSig:vector  ETV
693615	115778 43 1004 6510 20.229 21.729 2 1 14 15 197
vector 693616  Network.dyn_peer[128]  lookupStabilitySig:vector  ETV
693616	115821 73 1004 6510 20.229 21.729 2 -0.55555558204651 0.79999999701977 0.24444441497326 0.94864199997467
vector 693617  Network.dyn_peer[128]  lookupTimeSig:vector  ETV
693617	115894 46 1004 6510 20.229 21.729 2 0.1 1.5 1.6 2.26
vector 693378  Network.dyn_peer[49]  lookupHopsSig:vector  ETV
693378	79556 143 1117 12814 20.25 23.678714945428 5 2 17 32 370
vector 693379  Network.dyn_peer[49]  lookupStabilitySig:vector  ETV
693379	79699 217 1117 12814 20.25 23.678714945428 5 0.10526317358017 0.97826086916029 3.4828537423164 2.946893712126
vector 693380  Network.dyn_peer[49]  lookupTimeSig:vector  ETV
693380	79916 152 1117 12814 20.25 23.678714945428 5 0.2 1.8 3.6 4.34
vector 693387  Network.dyn_peer[52]  lookupHopsSig:vector  ETV
693387	81126 106 1136 14356 20.253 24.265173251967 4 2 29 39 885
vector 693388  Network.dyn_peer[52]  lookupStabilitySig:vector  ETV
693388	81232 165 1136 14356 20.253 24.265173251967 4 0.57971015572548 0.97674418613315 3.1060341671109 2.5517949184897
vector 693389  Network.dyn_peer[52]  lookupTimeSig:vector  ETV
693389	81397 111 1136 14356 20.253 24.265173251967 4 0.2 3 4.2 9.62
vector 693390  Network.dyn_peer[53]  lookupHopsSig:vector  ETV
693390	81508 107 1145 15884 20.254 24.957587663122 4 2 15 46 650
vector 693391  Network.dyn_peer[53]  lookupStabilitySig:vector  ETV
693391	81615 166 1145 15884 20.254 24.957587663122 4 -0.071428537368774 0.90445859730244 2.2512118667364 1.8525688617689
vector 693392  Network.dyn_peer[53]  lookupTimeSig:vector  ETV
693392	81781 112 1145 15884 20.254 24.957587663122 4 0.2 1.6 4.9 7.41
vector 693393  Network.dyn_peer[54]  lookupHopsSig:vector  ETV
693393	81893 264 1154 20306 20.255 29.001042067963 9 2 21 81 981
vector 693394  Network.dyn_peer[54]  lookupStabilitySig:vector  ETV
693394	82157 392 1154 20306 20.255 29.001042067963 9 0.32258063554764 0.98814229294658 7.559946294874 6.7617023615394
vector 693395  Network.dyn_peer[54]  lookupTimeSig:vector  ETV
693395	82549 275 1154 20306 20.255 29.001042067963 9 0.2 2.2 8.9 11.47
vector 693408  Network.dyn_peer[59]  lookupHopsSig:vector  ETV
693408	84082 133 1184 14391 20.26 24.2788605165 5 2 19 38 506
vector 693409  Network.dyn_peer[59]  lookupStabilitySig:vector  ETV
693409	84215 205 1184 14391 20.26 24.2788605165 5 0.19999998807907 0.9833333324641 3.2457458954305 2.489423669758
vector 693410  Network.dyn_peer[59]  lookupTimeSig:vector  ETV
693410	84420 139 1184 14391 20.26 24.2788605165 5 0.2 2 4.2 5.82
vector 693708  Network.dyn_peer[159]  lookupHopsSig:vector  ETV
693708	129275 102 1188 15910 20.26 24.970390979742 4 1 28 45 913
vector 693709  Network.dyn_peer[159]  lookupStabilitySig:vector  ETV
693709	129377 162 1188 15910 20.26 24.970390979742 4 -0.60000002384186 0.82278481125832 1.6227847784758 2.0369748623267
vector 693710  Network.dyn_peer[159]  lookupTimeSig:vector  ETV
693710	129539 109 1188 15910 20.26 24.970390979742 4 0.1 2.9 4.8 10.04
vector 693444  Network.dyn_peer[71]  lookupHopsSig:vector  ETV
693444	89840 136 1252 16143 20.272 25.088483569634 5 2 18 46 586
vector 693445  Network.dyn_peer[71]  lookupStabilitySig:vector  ETV
693445	89976 208 1252 16143 20.272 25.088483569634 5 0.21739131212234 0.96913580223918 3.5756628289819 2.9511690763805
vector 693446  Network.dyn_peer[71]  lookupTimeSig:vector  ETV
693446	90184 144 1252 16143 20.272 25.088483569634 5 0.2 1.9 5 6.78
vector 693459  Network.dyn_peer[76]  lookupHopsSig:vector  ETV
693459	91953 75 1281 13610 20.277 23.979593146641 3 2 31 37 981
vector 693460  Network.dyn_peer[76]  lookupStabilitySig:vector  ETV
693460	92028 119 1281 13610 20.277 23.979593146641 3 0.59999999403954 0.96153846010566 2.1788223944605 1.6655956660809
vector 693461  Network.dyn_peer[76]  lookupTimeSig:vector  ETV
693461	92147 80 1281 13610 20.277 23.979593146641 3 0.2 3.2 3.9 10.53
vector 693480  Network.dyn_peer[83]  lookupHopsSig:vector  ETV
693480	95494 324 1320 21282 20.284 32.429664469476 11 2 23 105 1429
vector 693481  Network.dyn_peer[83]  lookupStabilitySig:vector  ETV
693481	95818 484 1320 21282 20.284 32.429664469476 11 0.21739131212234 0.98275862075388 9.3510985337198 8.5076680573282
vector 693482  Network.dyn_peer[83]  lookupTimeSig:vector  ETV
693482	96302 340 1320 21282 20.284 32.429664469476 11 0.2 2.4 11.5 16.45
vector 694098  Network.dyn_peer[289]  lookupHopsSig:vector  ETV
694098	204949 42 1356 11388 20.29 23.19 2 0 28 28 784
vector 694099  Network.dyn_peer[289]  lookupStabilitySig:vector  ETV
694099	204991 56 1356 11388 20.29 23.19 2 0.56923076510429 1 1.5692307651043 1.3240236639412
vector 694100  Network.dyn_peer[289]  lookupTimeSig:vector  ETV
694100	205047 43 1356 11388 20.29 23.19 2 0 2.9 2.9 8.41
vector 693501  Network.dyn_peer[90]  lookupHopsSig:vector  ETV
693501	100055 52 1363 9191 20.291 22.500063116183 2 2 21 23 445
vector 693502  Network.dyn_peer[90]  lookupStabilitySig:vector  ETV
693502	100107 72 1363 9191 20.291 22.500063116183 2 0.34375 0.59999999403954 0.94374999403954 0.47816405534745
vector 693503  Network.dyn_peer[90]  lookupTimeSig:vector  ETV
693503	100179 55 1363 9191 20.291 22.500063116183 2 0.2 2.2 2.4 4.88
vector 693846  Network.dyn_peer[205]  lookupHopsSig:vector  ETV
693846	158213 81 1433 7173 20.306 21.922091448158 3 1 8 15 101
vector 693847  Network.dyn_peer[205]  lookupStabilitySig:vector  ETV
693847	158294 127 1433 7173 20.306 21.922091448158 3 -0.60000002384186 0.79999999701977 0.79999996721745 1.3600000166893
vector 693848  Network.dyn_peer[205]  lookupTimeSig:vector  ETV
693848	158421 87 1433 7173 20.306 21.922091448158 3 0.1 0.9 1.7 1.31
vector 693549  Network.dyn_peer[106]  lookupHopsSig:vector  ETV
693549	107763 136 1440 13729 20.307 24.026429262423 5 2 20 35 481
vector 693550  Network.dyn_peer[106]  lookupStabilitySig:vector  ETV
693550	107899 200 1440 13729 20.307 24.026429262423 5 0.28571426868439 0.98181818239391 3.7203404139727 3.1256346342524
vector 693551  Network.dyn_peer[106]  lookupTimeSig:vector  ETV
693551	108099 145 1440 13729 20.307 24.026429262423 5 0.2 2.1 3.9 5.51
vector 693849  Network.dyn_peer[206]  lookupHopsSig:vector  ETV
693849	158508 74 1444 11742 20.307 23.307060259746 3 1 20 29 465
vector 693850  Network.dyn_peer[206]  lookupStabilitySig:vector  ETV
693850	158582 117 1444 11742 20.307 23.307060259746 3 0.28571426868439 0.8840579688549 1.9697722345591 1.5031911308573
vector 693851  Network.dyn_peer[206]  lookupTimeSig:vector  ETV
693851	158699 79 1444 11742 20.307 23.307060259746 3 0.1 2.1 3.1 5.23
vector 693258  Network.dyn_peer[9]  lookupHopsSig:vector  ETV
693258	63605 73 1457 13991 20.31 24.119575324526 3 3 20 39 665
vector 693259  Network.dyn_peer[9]  lookupStabilitySig:vector  ETV
693259	63678 116 1457 13991 20.31 24.119575324526 3 0.11111110448837 0.82758620381355 1.3386972844601 0.85724458320966
vector 693260  Network.dyn_peer[9]  lookupTimeSig:vector  ETV
693260	63794 77 1457 13991 20.31 24.119575324526 3 0.3 2.1 4.1 7.39
vector 693582  Network.dyn_peer[117]  lookupHopsSig:vector  ETV
693582	111950 82 1486 8940 20.318 22.431920310462 3 2 17 21 297
vector 693583  Network.dyn_peer[117]  lookupStabilitySig:vector  ETV
693583	112032 126 1486 8940 20.318 22.431920310462 3 0.22727274894714 0.93103448301554 1.7583072260022 1.2784781038255
vector 693584  Network.dyn_peer[117]  lookupTimeSig:vector  ETV
693584	112158 87 1486 8940 20.318 22.431920310462 3 0.2 1.8 2.3 3.37
vector 693936  Network.dyn_peer[235]  lookupHopsSig:vector  ETV
693936	175906 265 1547 21173 20.336 31.584685784238 9 1 25 98 1484
vector 693937  Network.dyn_peer[235]  lookupStabilitySig:vector  ETV
693937	176171 395 1547 21173 20.336 31.584685784238 9 0.54545453190804 0.97129186615348 8.005210859701 7.2761945972824
vector 693938  Network.dyn_peer[235]  lookupTimeSig:vector  ETV
693938	176566 278 1547 21173 20.336 31.584685784238 9 0.1 2.6 10.6 16.86
vector 693345  Network.dyn_peer[38]  lookupHopsSig:vector  ETV
693345	75405 137 1562 16281 20.339 25.160873179545 5 2 31 47 1035
vector 693346  Network.dyn_peer[38]  lookupStabilitySig:vector  ETV
693346	75542 209 1562 16281 20.339 25.160873179545 5 0.39999997615814 0.98518518544734 3.9398699104786 3.3764409495503
vector 693347  Network.dyn_peer[38]  lookupTimeSig:vector  ETV
693347	75751 146 1562 16281 20.339 25.160873179545 5 0.3 3.2 5.1 11.27
vector 693654  Network.dyn_peer[141]  lookupHopsSig:vector  ETV
693654	120360 102 1576 11614 20.342 23.267886314662 4 2 9 21 153
vector 693655  Network.dyn_peer[141]  lookupStabilitySig:vector  ETV
693655	120462 163 1576 11614 20.342 23.267886314662 4 -0.60000002384186 0.86956521868706 1.5362318456173 1.9205881222069
vector 693656  Network.dyn_peer[141]  lookupTimeSig:vector  ETV
693656	120625 108 1576 11614 20.342 23.267886314662 4 0.2 1 2.4 1.94
vector 693663  Network.dyn_peer[144]  lookupHopsSig:vector  ETV
693663	123032 75 1590 15471 20.345 24.754198292703 3 2 37 44 1398
vector 693664  Network.dyn_peer[144]  lookupStabilitySig:vector  ETV
693664	123107 119 1590 15471 20.345 24.754198292703 3 0.59999999403954 0.96621621772647 2.2499768845737 1.7611024299235
vector 693665  Network.dyn_peer[144]  lookupTimeSig:vector  ETV
693665	123226 80 1590 15471 20.345 24.754198292703 3 0.2 3.8 4.6 14.84
vector 693972  Network.dyn_peer[247]  lookupHopsSig:vector  ETV
693972	181743 263 1604 21008 20.348 30.922438883683 9 1 25 94 1574
vector 693973  Network.dyn_peer[247]  lookupStabilitySig:vector  ETV
693973	182006 393 1604 21008 20.348 30.922438883683 9 0.54545453190804 0.99190283380449 8.0535902781412 7.373523478444
vector 693974  Network.dyn_peer[247]  lookupTimeSig:vector  ETV
693974	182399 274 1604 21008 20.348 30.922438883683 9 0.1 2.6 10.2 17.68
vector 694008  Network.dyn_peer[259]  lookupHopsSig:vector  ETV
694008	187205 256 1644 19034 20.36 27.219178826324 9 1 13 53 423
vector 694009  Network.dyn_peer[259]  lookupStabilitySig:vector  ETV
694009	187461 391 1644 19034 20.36 27.219178826324 9 -0.29999995231628 0.98913043458015 7.1147714722902 7.0074090673113
vector 694010  Network.dyn_peer[259]  lookupTimeSig:vector  ETV
694010	187852 271 1644 19034 20.36 27.219178826324 9 0.1 1.4 6.1 5.35
vector 693414  Network.dyn_peer[61]  lookupHopsSig:vector  ETV
693414	84944 107 1654 15915 20.362 24.971718106335 4 3 17 46 654
vector 693415  Network.dyn_peer[61]  lookupStabilitySig:vector  ETV
693415	85051 164 1654 15915 20.362 24.971718106335 4 0.26086956262589 0.89873417466879 2.414676181972 1.7669249527683
vector 693416  Network.dyn_peer[61]  lookupTimeSig:vector  ETV
693416	85215 112 1654 15915 20.362 24.971718106335 4 0.3 1.8 4.9 7.43
vector 693723  Network.dyn_peer[164]  lookupHopsSig:vector  ETV
693723	131487 72 1667 6322 20.365 21.672691712367 3 2 9 13 89
vector 693724  Network.dyn_peer[164]  lookupStabilitySig:vector  ETV
693724	131559 93 1667 6322 20.365 21.672691712367 3 -0.5 0.75 0.84999999403954 1.1724999928474
vector 693725  Network.dyn_peer[164]  lookupTimeSig:vector  ETV
693725	131652 76 1667 6322 20.365 21.672691712367 3 0.2 1 1.5 1.13
vector 693729  Network.dyn_peer[166]  lookupHopsSig:vector  ETV
693729	132422 107 1677 14396 20.367 24.279869922229 4 2 13 38 438
vector 693730  Network.dyn_peer[166]  lookupStabilitySig:vector  ETV
693730	132529 165 1677 14396 20.367 24.279869922229 4 -0.29999995231628 0.89999999850988 2.0103448703885 1.9166587053145
vector 693731  Network.dyn_peer[166]  lookupTimeSig:vector  ETV
693731	132694 112 1677 14396 20.367 24.279869922229 4 0.2 1.4 4.1 5.13
vector 693438  Network.dyn_peer[69]  lookupHopsSig:vector  ETV
693438	89317 71 1690 7019 20.37 21.878747016782 3 1 12 16 154
vector 693439  Network.dyn_peer[69]  lookupStabilitySig:vector  ETV
693439	89388 103 1690 7019 20.37 21.878747016782 3 -0.5 0.92857142537832 0.82857140153646 1.2722448729556
vector 693440  Network.dyn_peer[69]  lookupTimeSig:vector  ETV
693440	89491 76 1690 7019 20.37 21.878747016782 3 0.2 1.3 1.8 1.82
vector 693759  Network.dyn_peer[176]  lookupHopsSig:vector  ETV
693759	138331 107 1715 18154 20.377 26.379223043085 4 2 27 59 1255
vector 693760  Network.dyn_peer[176]  lookupStabilitySig:vector  ETV
693760	138438 157 1715 18154 20.377 26.379223043085 4 0.578125 0.92307692021132 3.0061792880297 2.3652835561509
vector 693761  Network.dyn_peer[176]  lookupTimeSig:vector  ETV
693761	138595 111 1715 18154 20.377 26.379223043085 4 0.2 2.8 6.2 13.72
vector 693474  Network.dyn_peer[81]  lookupHopsSig:vector  ETV
693474	93965 135 1734 12843 20.382 23.686291091099 5 3 12 32 254
vector 693475  Network.dyn_peer[81]  lookupStabilitySig:vector  ETV
693475	94100 209 1734 12843 20.382 23.686291091099 5 -0.20000004768372 0.92473118007183 2.6177283003926 2.2309470927621
vector 693476  Network.dyn_peer[81]  lookupTimeSig:vector  ETV
693476	94309 144 1734 12843 20.382 23.686291091099 5 0.3 1.3 3.6 3.16
vector 693498  Network.dyn_peer[89]  lookupHopsSig:vector  ETV
693498	99652 112 1762 10533 20.39 22.911392058396 4 3 11 25 191
vector 693499  Network.dyn_peer[89]  lookupStabilitySig:vector  ETV
693499	99764 172 1762 10533 20.39 22.911392058396 4 -0.20000004768372 0.78431372344494 1.4287580698728 1.0126788574341
vector 693500  Network.dyn_peer[89]  lookupTimeSig:vector  ETV
693500	99936 119 1762 10533 20.39 22.911392058396 4 0.3 1.2 2.8 2.38
vector 693513  Network.dyn_peer[94]  lookupHopsSig:vector  ETV
693513	101609 106 1780 14464 20.395 24.304449192491 4 3 17 39 483
vector 693514  Network.dyn_peer[94]  lookupStabilitySig:vector  ETV
693514	101715 164 1780 14464 20.395 24.304449192491 4 -0.60000002384186 0.91056910902262 1.4318805411458 1.8694263627442
vector 693515  Network.dyn_peer[94]  lookupTimeSig:vector  ETV
693515	101879 112 1780 14464 20.395 24.304449192491 4 0.3 1.8 4.2 5.58
vector 693519  Network.dyn_peer[96]  lookupHopsSig:vector  ETV
693519	102593 104 1790 12061 20.397 23.405475659018 4 3 16 30 330
vector 693520  Network.dyn_peer[96]  lookupStabilitySig:vector  ETV
693520	102697 163 1790 12061 20.397 23.405475659018 4 0.23809522390366 0.90909090638161 2.4360749945045 1.8332590479564
vector 693521  Network.dyn_peer[96]  lookupTimeSig:vector  ETV
693521	102860 111 1790 12061 20.397 23.405475659018 4 0.3 1.7 3.3 3.87
vector 693831  Network.dyn_peer[200]  lookupHopsSig:vector  ETV
693831	155316 73 1808 8506 20.401 22.306566280386 3 2 10 19 153
vector 693832  Network.dyn_peer[200]  lookupStabilitySig:vector  ETV
693832	155389 118 1808 8506 20.401 22.306566280386 3 -0.39999997615814 0.59999999403954 0.80000001192094 0.87999996662141
vector 693833  Network.dyn_peer[200]  lookupTimeSig:vector  ETV
693833	155507 78 1808 8506 20.401 22.306566280386 3 0.2 1.1 2.1 1.89
vector 693234  Network.dyn_peer[1]  lookupHopsSig:vector  ETV
693234	59474 44 1815 13679 20.402 24.002 2 4 35 39 1241
vector 693235  Network.dyn_peer[1]  lookupStabilitySig:vector  ETV
693235	59518 73 1815 13679 20.402 24.002 2 0.19999998807907 0.67289718985558 0.87289717793465 0.49279062334716
vector 693236  Network.dyn_peer[1]  lookupTimeSig:vector  ETV