version 2
run Stability2-32-20130526-00:51:15-26640
attr configname Stability2
attr datetime 20130526-00:51:15
attr experiment Stability2
attr inifile omnetpp.ini
attr iterationvars $0=20
attr iterationvars2 "$0=20, $repetition=2"
attr measurement $0=20
attr network Network
attr processid 26640
attr repetition 2
attr replication #2
attr resultdir results
attr runnumber 32
attr seedset 32

vector 99032  Network.churner  inGoingSizeSig:vector  ETV
vector 96044  Network.dyn_peer[4]  lookupHopsSig:vector  ETV
vector 96045  Network.dyn_peer[4]  lookupStabilitySig:vector  ETV
vector 96046  Network.dyn_peer[4]  lookupTimeSig:vector  ETV
vector 96047  Network.dyn_peer[5]  lookupHopsSig:vector  ETV
vector 96048  Network.dyn_peer[5]  lookupStabilitySig:vector  ETV
vector 96049  Network.dyn_peer[5]  lookupTimeSig:vector  ETV
vector 96050  Network.dyn_peer[6]  lookupHopsSig:vector  ETV
vector 96051  Network.dyn_peer[6]  lookupStabilitySig:vector  ETV
vector 96052  Network.dyn_peer[6]  lookupTimeSig:vector  ETV
vector 96068  Network.dyn_peer[12]  lookupHopsSig:vector  ETV
vector 96069  Network.dyn_peer[12]  lookupStabilitySig:vector  ETV
vector 96070  Network.dyn_peer[12]  lookupTimeSig:vector  ETV
vector 96038  Network.dyn_peer[2]  lookupHopsSig:vector  ETV
vector 96039  Network.dyn_peer[2]  lookupStabilitySig:vector  ETV
vector 96040  Network.dyn_peer[2]  lookupTimeSig:vector  ETV
vector 96053  Network.dyn_peer[7]  lookupHopsSig:vector  ETV
vector 96054  Network.dyn_peer[7]  lookupStabilitySig:vector  ETV
vector 96055  Network.dyn_peer[7]  lookupTimeSig:vector  ETV
vector 96059  Network.dyn_peer[9]  lookupHopsSig:vector  ETV
vector 96060  Network.dyn_peer[9]  lookupStabilitySig:vector  ETV
vector 96061  Network.dyn_peer[9]  lookupTimeSig:vector  ETV
vector 96062  Network.dyn_peer[10]  lookupHopsSig:vector  ETV
vector 96063  Network.dyn_peer[10]  lookupStabilitySig:vector  ETV
vector 96064  Network.dyn_peer[10]  lookupTimeSig:vector  ETV
vector 96071  Network.dyn_peer[13]  lookupHopsSig:vector  ETV
vector 96072  Network.dyn_peer[13]  lookupStabilitySig:vector  ETV
vector 96073  Network.dyn_peer[13]  lookupTimeSig:vector  ETV
vector 96032  Network.dyn_peer[0]  lookupHopsSig:vector  ETV
vector 96033  Network.dyn_peer[0]  lookupStabilitySig:vector  ETV
vector 96034  Network.dyn_peer[0]  lookupTimeSig:vector  ETV
vector 96035  Network.dyn_peer[1]  lookupHopsSig:vector  ETV
vector 96036  Network.dyn_peer[1]  lookupStabilitySig:vector  ETV
vector 96037  Network.dyn_peer[1]  lookupTimeSig:vector  ETV
vector 96077  Network.dyn_peer[15]  lookupHopsSig:vector  ETV
vector 96078  Network.dyn_peer[15]  lookupStabilitySig:vector  ETV
vector 96079  Network.dyn_peer[15]  lookupTimeSig:vector  ETV
vector 96056  Network.dyn_peer[8]  lookupHopsSig:vector  ETV
vector 96057  Network.dyn_peer[8]  lookupStabilitySig:vector  ETV
vector 96058  Network.dyn_peer[8]  lookupTimeSig:vector  ETV
vector 96041  Network.dyn_peer[3]  lookupHopsSig:vector  ETV
vector 96042  Network.dyn_peer[3]  lookupStabilitySig:vector  ETV
vector 96043  Network.dyn_peer[3]  lookupTimeSig:vector  ETV
vector 96074  Network.dyn_peer[14]  lookupHopsSig:vector  ETV
vector 96075  Network.dyn_peer[14]  lookupStabilitySig:vector  ETV
vector 96076  Network.dyn_peer[14]  lookupTimeSig:vector  ETV
vector 96086  Network.dyn_peer[18]  lookupHopsSig:vector  ETV
vector 96087  Network.dyn_peer[18]  lookupStabilitySig:vector  ETV
vector 96088  Network.dyn_peer[18]  lookupTimeSig:vector  ETV
vector 96080  Network.dyn_peer[16]  lookupHopsSig:vector  ETV
vector 96081  Network.dyn_peer[16]  lookupStabilitySig:vector  ETV
vector 96082  Network.dyn_peer[16]  lookupTimeSig:vector  ETV
vector 96083  Network.dyn_peer[17]  lookupHopsSig:vector  ETV
vector 96084  Network.dyn_peer[17]  lookupStabilitySig:vector  ETV
vector 96085  Network.dyn_peer[17]  lookupTimeSig:vector  ETV
vector 96089  Network.dyn_peer[19]  lookupHopsSig:vector  ETV
vector 96090  Network.dyn_peer[19]  lookupStabilitySig:vector  ETV
vector 96091  Network.dyn_peer[19]  lookupTimeSig:vector  ETV
vector 96065  Network.dyn_peer[11]  lookupHopsSig:vector  ETV
vector 96066  Network.dyn_peer[11]  lookupStabilitySig:vector  ETV
vector 96067  Network.dyn_peer[11]  lookupTimeSig:vector  ETV
96032	142	20.201	2
96032	398	20.901	6
96032	459	21.10113098547	1
96032	530	21.406470997192	2
96033	142	20.201	0.59999999403954
96033	398	20.901	0.25
96033	459	21.10113098547	0.90909090638161
96033	530	21.406470997192	0.89473684132099
96034	142	20.201	0.2
96034	398	20.901	0.7
96034	459	21.10113098547	0.2
96034	530	21.406470997192	0.3
96035	147	20.202	2
96035	208	20.402	1
96035	462	21.108120329061	6
96036	147	20.202	0.59999999403954
96036	208	20.402	0.79999999701977
96036	462	21.108120329061	0.45454543828964
96037	147	20.202	0.2
96037	208	20.402	0.2
96037	462	21.108120329061	0.7
96038	101	20.103	1
96038	250	20.503	3
96038	403	20.910536107483	3
96039	101	20.103	0.79999999701977
96039	250	20.503	0.39999997615814
96039	403	20.910536107483	0.625
96040	101	20.103	0.1
96040	250	20.503	0.4
96040	403	20.910536107483	0.4
96041	214	20.404	4
96041	329	20.704	2
96041	502	21.22212042747	4
96042	214	20.404	0.19999998807907
96042	329	20.704	0.75
96042	502	21.22212042747	0.75
96043	214	20.404	0.4
96043	329	20.704	0.3
96043	502	21.22212042747	0.5
96044	30	20.005	0
96044	261	20.513374128621	4
96044	419	20.921651337286	3
96044	488	21.140856282719	1
96044	542	21.443137606744	2
96045	30	20.005	1
96045	261	20.513374128621	0.33333331346512
96045	419	20.921651337286	0.66666665673256
96045	488	21.140856282719	0.9333333298564
96045	542	21.443137606744	0.90476190298796
96046	30	20.005	0
96046	261	20.513374128621	0.5
96046	419	20.921651337286	0.4
96046	488	21.140856282719	0.2
96046	542	21.443137606744	0.3
96047	37	20.006	0
96047	253	20.506	4
96048	37	20.006	1
96048	253	20.506	0.19999998807907
96049	37	20.006	0
96049	253	20.506	0.5
96050	44	20.007	0
96050	152	20.207	1
96050	349	20.716971571122	4
96050	423	20.921786270898	1
96051	44	20.007	1
96051	152	20.207	0.79999999701977
96051	349	20.716971571122	0.5
96051	423	20.921786270898	0.88888888806105
96052	44	20.007	0
96052	152	20.207	0.2
96052	349	20.716971571122	0.5
96052	423	20.921786270898	0.2
96053	109	20.108	1
96053	291	20.608	4
96053	500	21.221737469087	5
96053	546	21.52597845452	2
96053	572	21.836944008514	2
96053	588	22.340139789451	4
96054	109	20.108	0.79999999701977
96054	291	20.608	0.33333331346512
96054	500	21.221737469087	0.6875
96054	546	21.52597845452	0.90909090638161
96054	572	21.836944008514	0.91304347664118
96054	588	22.340139789451	0.84000000357628
96055	109	20.108	0.1
96055	291	20.608	0.5
96055	500	21.221737469087	0.6
96055	546	21.52597845452	0.3
96055	572	21.836944008514	0.3
96055	588	22.340139789451	0.5
96056	187	20.309	3
96056	332	20.709	3
96056	441	21.010463748281	2
96056	515	21.314993790057	2
96057	187	20.309	0.39999997615814
96057	332	20.709	0.625
96057	441	21.010463748281	0.81818181276321
96057	515	21.314993790057	0.8823529407382
96058	187	20.309	0.3
96058	332	20.709	0.4
96058	441	21.010463748281	0.3
96058	515	21.314993790057	0.3
96059	116	20.11	1
96059	220	20.41	2
96059	314	20.619895003093	1
96060	116	20.11	0.79999999701977
96060	220	20.41	0.59999999403954
96060	314	20.619895003093	0.85714285075665
96061	116	20.11	0.1
96061	220	20.41	0.3
96061	314	20.619895003093	0.2
96062	121	20.111	1
96062	190	20.311	1
96062	407	20.916053422499	5
96063	121	20.111	0.79999999701977
96063	190	20.311	0.79999999701977
96063	407	20.916053422499	0.375
96064	121	20.111	0.1
96064	190	20.311	0.2
96064	407	20.916053422499	0.6
96065	340	20.712	7
96065	513	21.312	5
96065	553	21.636071726171	2
96065	578	21.969103139875	2
96066	340	20.712	0.125
96066	513	21.312	0.70588234066963
96066	553	21.636071726171	0.90909090638161
96066	578	21.969103139875	0.91304347664118
96067	340	20.712	0.7
96067	513	21.312	0.6
96067	553	21.636071726171	0.3
96067	578	21.969103139875	0.3
96068	68	20.013	0
96068	361	20.721992708676	6
96068	481	21.128801656393	3
96069	68	20.013	1
96069	361	20.721992708676	0.25
96069	481	21.128801656393	0.76923076808453
96070	68	20.013	0
96070	361	20.721992708676	0.7
96070	481	21.128801656393	0.4
96071	129	20.114	1
96071	379	20.814	6
96071	538	21.427017743254	5
96072	129	20.114	0.79999999701977
96072	379	20.814	0.25
96072	538	21.427017743254	0.75
96073	129	20.114	0.1
96073	379	20.814	0.7
96073	538	21.427017743254	0.6
96074	231	20.415	4
96074	301	20.615	1
96074	409	20.916117888633	2
96074	477	21.125321127057	1
96075	231	20.415	0.19999998807907
96075	301	20.615	0.85714285075665
96075	409	20.916117888633	0.75
96075	477	21.125321127057	0.92307692021132
96076	231	20.415	0.4
96076	301	20.615	0.2
96076	409	20.916117888633	0.3
96076	477	21.125321127057	0.2
96077	167	20.216	2
96077	344	20.716	4
96077	517	21.317519477604	5
96077	569	21.820751428215	4
96078	167	20.216	0.59999999403954
96078	344	20.716	0.5
96078	517	21.317519477604	0.70588234066963
96078	569	21.820751428215	0.81818181276321
96079	167	20.216	0.2
96079	344	20.716	0.5
96079	517	21.317519477604	0.6
96079	569	21.820751428215	0.5
96080	271	20.517	5
96080	467	21.117	5
96081	271	20.517	0.16666668653488
96081	467	21.117	0.58333334326744
96082	271	20.517	0.5
96082	467	21.117	0.6
96083	277	20.518	5
96083	414	20.918	3
96083	498	21.221722763443	2
96084	277	20.518	0.16666668653488
96084	414	20.918	0.66666665673256
96084	498	21.221722763443	0.86666665971279
96085	277	20.518	0.5
96085	414	20.918	0.4
96085	498	21.221722763443	0.3
96086	244	20.419	4
96086	416	20.919	4
96086	526	21.328313324191	3
96087	244	20.419	0.19999998807907
96087	416	20.919	0.55555555224419
96087	526	21.328313324191	0.83333332836628
96088	244	20.419	0.4
96088	416	20.919	0.5
96088	526	21.328313324191	0.4
96089	319	20.62	6
96089	471	21.12	4
96089	534	21.421171222787	2
96089	562	21.721510741728	2
96089	583	22.135809743208	3
96090	319	20.62	0.14285713434219
96090	471	21.12	0.69230768084526
96090	534	21.421171222787	0.89999999850988
96090	562	21.721510741728	0.90909090638161
96090	583	22.135809743208	0.875
96091	319	20.62	0.6
96091	471	21.12	0.5
96091	534	21.421171222787	0.3
96091	562	21.721510741728	0.3
96091	583	22.135809743208	0.4
99032	11	20	0
99032	12	20.001	0
99032	15	20.002	1
99032	18	20.003	2
99032	21	20.004	3
99032	24	20.005	4
99032	31	20.006	5
99032	38	20.007	6
99032	46	20.008	7
99032	50	20.009	8
99032	53	20.01	9
99032	56	20.011	10
99032	59	20.012	11
99032	62	20.013	12
99032	72	20.014	13
99032	75	20.015	14
99032	78	20.016	15
99032	81	20.017	16
99032	84	20.018	17
99032	88	20.019	18
99032	91	20.02	19
