file 16474 1369674134                                           
version 2
run Stability2-88-20130526-00:51:32-26640
attr configname Stability2
attr datetime 20130526-00:51:32
attr experiment Stability2
attr inifile omnetpp.ini
attr iterationvars $0=30
attr iterationvars2 "$0=30, $repetition=28"
attr measurement $0=30
attr network Network
attr processid 26640
attr repetition 28
attr replication #28
attr resultdir results
attr runnumber 88
attr seedset 88
vector 267088  Network.churner  inGoingSizeSig:vector  ETV
267088	15866 608 9 118 20 20.03 31 0 29 435 8555
vector 264097  Network.dyn_peer[3]  lookupHopsSig:vector  ETV
264097	7217 78 25 706 20.004 21.314299009533 3 0 10 11 101
vector 264098  Network.dyn_peer[3]  lookupStabilitySig:vector  ETV
264098	7295 91 25 706 20.004 21.314299009533 3 0 1 1.9333333298564 1.8711111046208
vector 264099  Network.dyn_peer[3]  lookupTimeSig:vector  ETV
264099	7386 81 25 706 20.004 21.314299009533 3 0 1.1 1.3 1.25
vector 264118  Network.dyn_peer[10]  lookupHopsSig:vector  ETV
264118	9109 77 51 567 20.011 20.933594664066 3 0 5 7 29
vector 264119  Network.dyn_peer[10]  lookupStabilitySig:vector  ETV
264119	9186 80 51 567 20.011 20.933594664066 3 0 1 1.75 1.5625
vector 264120  Network.dyn_peer[10]  lookupTimeSig:vector  ETV
264120	9266 81 51 567 20.011 20.933594664066 3 0 0.6 0.9 0.45
vector 264121  Network.dyn_peer[11]  lookupHopsSig:vector  ETV
264121	9347 106 58 884 20.012 21.922420508688 4 0 9 16 110
vector 264122  Network.dyn_peer[11]  lookupStabilitySig:vector  ETV
264122	9453 135 58 884 20.012 21.922420508688 4 0 1 2.6498855724931 2.3765846644564
vector 264123  Network.dyn_peer[11]  lookupTimeSig:vector  ETV
264123	9588 110 58 884 20.012 21.922420508688 4 0 1 1.9 1.45
vector 264142  Network.dyn_peer[18]  lookupHopsSig:vector  ETV
264142	11761 97 85 604 20.019 21.029917304323 4 0 3 7 19
vector 264143  Network.dyn_peer[18]  lookupStabilitySig:vector  ETV
264143	11858 141 85 604 20.019 21.029917304323 4 0.39999997615814 1 2.8603174313903 2.2766540436241
vector 264144  Network.dyn_peer[18]  lookupTimeSig:vector  ETV
264144	11999 103 85 604 20.019 21.029917304323 4 0 0.4 1 0.36
vector 264088  Network.dyn_peer[0]  lookupHopsSig:vector  ETV
264088	6244 106 125 825 20.101 21.717509547551 4 1 7 14 68
vector 264089  Network.dyn_peer[0]  lookupStabilitySig:vector  ETV
264089	6350 165 125 825 20.101 21.717509547551 4 0.39999997615814 0.79999999701977 2.4030074924231 1.5254225562403
vector 264090  Network.dyn_peer[0]  lookupTimeSig:vector  ETV
264090	6515 114 125 825 20.101 21.717509547551 4 0.1 0.8 1.7 0.97
vector 264091  Network.dyn_peer[1]  lookupHopsSig:vector  ETV
264091	6629 97 131 861 20.102 21.81161459978 4 1 7 15 75
vector 264092  Network.dyn_peer[1]  lookupStabilitySig:vector  ETV
264092	6726 130 131 861 20.102 21.81161459978 4 0 0.85714285075665 2.4071428477764 1.9371938618349
vector 264093  Network.dyn_peer[1]  lookupTimeSig:vector  ETV
264093	6856 105 131 861 20.102 21.81161459978 4 0.1 0.8 1.8 1.06
vector 264094  Network.dyn_peer[2]  lookupHopsSig:vector  ETV
264094	6961 69 136 858 20.103 21.807590380615 3 1 9 16 118
vector 264095  Network.dyn_peer[2]  lookupStabilitySig:vector  ETV
264095	7030 114 136 858 20.103 21.807590380615 3 0.10000002384186 0.79999999701977 1.6000000089407 1.1399999833107
vector 264096  Network.dyn_peer[2]  lookupTimeSig:vector  ETV
264096	7144 73 136 858 20.103 21.807590380615 3 0.1 1 1.8 1.5
vector 264100  Network.dyn_peer[4]  lookupHopsSig:vector  ETV
264100	7467 40 141 442 20.105 20.705 2 1 5 6 26
vector 264101  Network.dyn_peer[4]  lookupStabilitySig:vector  ETV
264101	7507 55 141 442 20.105 20.705 2 0 0.79999999701977 0.79999999701977 0.63999999523163
vector 264102  Network.dyn_peer[4]  lookupTimeSig:vector  ETV
264102	7562 44 141 442 20.105 20.705 2 0.1 0.6 0.7 0.37
vector 264109  Network.dyn_peer[7]  lookupHopsSig:vector  ETV
264109	8231 69 149 527 20.108 20.912574001717 3 1 3 7 19
vector 264110  Network.dyn_peer[7]  lookupStabilitySig:vector  ETV
264110	8300 113 149 527 20.108 20.912574001717 3 0.39999997615814 0.79999999701977 1.771428540349 1.1265305835374
vector 264111  Network.dyn_peer[7]  lookupTimeSig:vector  ETV
264111	8413 75 149 527 20.108 20.912574001717 3 0.1 0.4 0.9 0.33
vector 264139  Network.dyn_peer[17]  lookupHopsSig:vector  ETV
264139	11503 69 162 634 20.118 21.122500463325 3 1 4 9 33
vector 264140  Network.dyn_peer[17]  lookupStabilitySig:vector  ETV
264140	11572 114 162 634 20.118 21.122500463325 3 0.19999998807907 0.79999999701977 1.5999999791384 1.0399999833107
vector 264141  Network.dyn_peer[17]  lookupTimeSig:vector  ETV
264141	11686 75 162 634 20.118 21.122500463325 3 0.1 0.5 1.1 0.51
vector 264160  Network.dyn_peer[24]  lookupHopsSig:vector  ETV
264160	13964 69 174 878 20.125 21.848239085368 3 1 8 16 114
vector 264161  Network.dyn_peer[24]  lookupStabilitySig:vector  ETV
264161	14033 103 174 878 20.125 21.848239085368 3 0.125 0.79999999701977 1.5613636225462 1.0605836591248
vector 264162  Network.dyn_peer[24]  lookupTimeSig:vector  ETV
264162	14136 75 174 878 20.125 21.848239085368 3 0.1 0.9 1.8 1.46
vector 264103  Network.dyn_peer[5]  lookupHopsSig:vector  ETV
264103	7606 78 189 740 20.206 21.418989562425 3 2 7 12 62
vector 264104  Network.dyn_peer[5]  lookupStabilitySig:vector  ETV
264104	7684 113 189 740 20.206 21.418989562425 3 0.22222220897675 0.8125 1.6347222030163 1.06953895301
vector 264105  Network.dyn_peer[5]  lookupTimeSig:vector  ETV
264105	7797 84 189 740 20.206 21.418989562425 3 0.2 0.8 1.4 0.84
vector 264112  Network.dyn_peer[8]  lookupHopsSig:vector  ETV
264112	8488 69 197 653 20.209 21.212821789461 3 1 7 10 54
vector 264113  Network.dyn_peer[8]  lookupStabilitySig:vector  ETV
264113	8557 114 197 653 20.209 21.212821789461 3 0.22222220897675 0.91666666418314 1.7388888671994 1.2496604762346
vector 264114  Network.dyn_peer[8]  lookupTimeSig:vector  ETV
264114	8671 75 197 653 20.209 21.212821789461 3 0.2 0.8 1.2 0.72
vector 264115  Network.dyn_peer[9]  lookupHopsSig:vector  ETV
264115	8746 106 203 744 20.21 21.422849972057 4 1 7 11 55
vector 264116  Network.dyn_peer[9]  lookupStabilitySig:vector  ETV
264116	8852 143 203 744 20.21 21.422849972057 4 0.5 0.9375 2.8374999910593 2.1289062380791
vector 264117  Network.dyn_peer[9]  lookupTimeSig:vector  ETV
264117	8995 114 203 744 20.21 21.422849972057 4 0.2 0.8 1.4 0.76
vector 264124  Network.dyn_peer[12]  lookupHopsSig:vector  ETV
264124	9698 163 209 963 20.213 22.34498412804 6 2 6 18 66
vector 264125  Network.dyn_peer[12]  lookupStabilitySig:vector  ETV
264125	9861 231 209 963 20.213 22.34498412804 6 0.25 0.92000000178814 4.3772368356586 3.5396102586725
vector 264126  Network.dyn_peer[12]  lookupTimeSig:vector  ETV
264126	10092 175 209 963 20.213 22.34498412804 6 0.2 0.7 2.3 1.03
vector 264136  Network.dyn_peer[16]  lookupHopsSig:vector  ETV
264136	11247 69 220 750 20.217 21.425204354266 3 1 9 12 86
vector 264137  Network.dyn_peer[16]  lookupStabilitySig:vector  ETV
264137	11316 114 220 750 20.217 21.425204354266 3 0.35714286565781 0.94444444403052 1.9015873037279 1.3795263271978
vector 264138  Network.dyn_peer[16]  lookupTimeSig:vector  ETV
264138	11430 73 220 750 20.217 21.425204354266 3 0.2 1 1.4 1.08
vector 264157  Network.dyn_peer[23]  lookupHopsSig:vector  ETV
264157	13601 99 235 975 20.224 22.536320779577 4 2 12 22 182
vector 264158  Network.dyn_peer[23]  lookupStabilitySig:vector  ETV
264158	13700 158 235 975 20.224 22.536320779577 4 0.36842107772827 0.90322580933571 2.6864617019892 1.975474138347
vector 264159  Network.dyn_peer[23]  lookupTimeSig:vector  ETV
264159	13858 106 235 975 20.224 22.536320779577 4 0.2 1.3 2.5 2.25
vector 264145  Network.dyn_peer[19]  lookupHopsSig:vector  ETV
264145	12102 65 266 632 20.32 21.1224813746 3 2 4 9 29
vector 264146  Network.dyn_peer[19]  lookupStabilitySig:vector  ETV
264146	12167 110 266 632 20.32 21.1224813746 3 0.33333331346512 0.79999999701977 1.533333286643 0.91111107402378
vector 264147  Network.dyn_peer[19]  lookupTimeSig:vector  ETV
264147	12277 71 266 632 20.32 21.1224813746 3 0.3 0.5 1.1 0.43
vector 264148  Network.dyn_peer[20]  lookupHopsSig:vector  ETV
264148	12348 127 271 981 20.321 22.567211422255 5 2 10 21 133
vector 264149  Network.dyn_peer[20]  lookupStabilitySig:vector  ETV
264149	12475 190 271 981 20.321 22.567211422255 5 0.375 0.93939393758774 3.4810605719686 2.7441970472786
vector 264150  Network.dyn_peer[20]  lookupTimeSig:vector  ETV
264150	12665 136 271 981 20.321 22.567211422255 5 0.3 1.1 2.5 1.73
vector 264106  Network.dyn_peer[6]  lookupHopsSig:vector  ETV
264106	7881 98 293 942 20.407 22.225296499181 4 1 9 19 123
vector 264107  Network.dyn_peer[6]  lookupStabilitySig:vector  ETV
264107	7979 148 293 942 20.407 22.225296499181 4 0.19999998807907 0.96428571268916 2.4094780050218 1.8136200392785
vector 264108  Network.dyn_peer[6]  lookupTimeSig:vector  ETV
264108	8127 104 293 942 20.407 22.225296499181 4 0.2 1 2.2 1.56
vector 264127  Network.dyn_peer[13]  lookupHopsSig:vector  ETV
264127	10267 69 303 657 20.414 21.214594997466 3 1 5 10 42
vector 264128  Network.dyn_peer[13]  lookupStabilitySig:vector  ETV
264128	10336 114 303 657 20.414 21.214594997466 3 0.19999998807907 0.79999999701977 1.615384593606 1.0586982068508
vector 264129  Network.dyn_peer[13]  lookupTimeSig:vector  ETV
264129	10450 75 303 657 20.414 21.214594997466 3 0.2 0.6 1.2 0.56
vector 264133  Network.dyn_peer[15]  lookupHopsSig:vector  ETV
264133	10691 156 309 985 20.416 22.734165771405 6 2 7 22 102
vector 264134  Network.dyn_peer[15]  lookupStabilitySig:vector  ETV
264134	10847 232 309 985 20.416 22.734165771405 6 0.19999998807907 0.9411764703691 4.2753135226667 3.5053894668747
vector 264135  Network.dyn_peer[15]  lookupTimeSig:vector  ETV
264135	11079 168 309 985 20.416 22.734165771405 6 0.3 0.8 2.7 1.43
vector 264166  Network.dyn_peer[26]  lookupHopsSig:vector  ETV
264166	14666 69 330 691 20.427 21.233702994713 3 2 4 10 36
vector 264167  Network.dyn_peer[26]  lookupStabilitySig:vector  ETV
264167	14735 101 330 691 20.427 21.233702994713 3 0.19999998807907 0.85714285075665 1.5571428388357 1.0246938618349
vector 264168  Network.dyn_peer[26]  lookupTimeSig:vector  ETV
264168	14836 75 330 691 20.427 21.233702994713 3 0.3 0.5 1.2 0.5
vector 264169  Network.dyn_peer[27]  lookupHopsSig:vector  ETV
264169	14911 69 336 946 20.428 22.23245830126 3 4 10 20 152
vector 264170  Network.dyn_peer[27]  lookupStabilitySig:vector  ETV
264170	14980 112 336 946 20.428 22.23245830126 3 0.19999998807907 0.79310344159603 1.4667876213789 0.89338977777318
vector 264171  Network.dyn_peer[27]  lookupTimeSig:vector  ETV
264171	15092 74 336 946 20.428 22.23245830126 3 0.4 1.1 2.2 1.86
vector 264130  Network.dyn_peer[14]  lookupHopsSig:vector  ETV
264130	10525 49 361 491 20.515 20.820551884525 2 2 5 7 29
vector 264131  Network.dyn_peer[14]  lookupStabilitySig:vector  ETV
264131	10574 64 361 491 20.515 20.820551884525 2 0 0.66666665673256 0.66666665673256 0.44444443119897
vector 264132  Network.dyn_peer[14]  lookupTimeSig:vector  ETV
264132	10638 53 361 491 20.515 20.820551884525 2 0.3 0.5 0.8 0.34
vector 264154  Network.dyn_peer[22]  lookupHopsSig:vector  ETV
264154	13153 126 374 902 20.523 21.952369472819 5 1 5 15 55
vector 264155  Network.dyn_peer[22]  lookupStabilitySig:vector  ETV
264155	13279 186 374 902 20.523 21.952369472819 5 0 0.96000000089407 3.2599999830127 2.6891509957649
vector 264156  Network.dyn_peer[22]  lookupTimeSig:vector  ETV
264156	13465 136 374 902 20.523 21.952369472819 5 0.2 0.5 1.9 0.79
vector 264151  Network.dyn_peer[21]  lookupHopsSig:vector  ETV
264151	12801 98 415 892 20.622 21.935111420689 4 3 6 16 70
vector 264152  Network.dyn_peer[21]  lookupStabilitySig:vector  ETV
264152	12899 148 415 892 20.622 21.935111420689 4 -0.20000004768372 0.875 2.1171052157879 1.8747662967262
vector 264153  Network.dyn_peer[21]  lookupTimeSig:vector  ETV
264153	13047 106 415 892 20.622 21.935111420689 4 0.4 0.6 1.9 0.93
vector 264172  Network.dyn_peer[28]  lookupHopsSig:vector  ETV
264172	15166 98 431 915 20.629 22.041339609981 4 2 6 17 81
vector 264173  Network.dyn_peer[28]  lookupStabilitySig:vector  ETV
264173	15264 159 431 915 20.629 22.041339609981 4 -0.20000004768372 0.92307692021132 2.1659340038896 1.9453363101066
vector 264174  Network.dyn_peer[28]  lookupTimeSig:vector  ETV
264174	15423 106 431 915 20.629 22.041339609981 4 0.3 0.6 2 1.06
vector 264163  Network.dyn_peer[25]  lookupHopsSig:vector  ETV
264163	14211 127 547 937 20.926 22.147692722103 5 1 9 17 99
vector 264164  Network.dyn_peer[25]  lookupStabilitySig:vector  ETV
264164	14338 191 547 937 20.926 22.147692722103 5 -0.125 0.9473684206605 3.4684001579881 3.2479492437042
vector 264165  Network.dyn_peer[25]  lookupTimeSig:vector  ETV
264165	14529 137 547 937 20.926 22.147692722103 5 0.2 0.9 2.1 1.19
vector 264175  Network.dyn_peer[29]  lookupHopsSig:vector  ETV
264175	15529 96 561 978 20.93 22.550166302294 4 2 9 22 158
vector 264176  Network.dyn_peer[29]  lookupStabilitySig:vector  ETV
264176	15625 137 561 978 20.93 22.550166302294 4 -0.125 0.90625 2.3420965522528 2.0668068286026
vector 264177  Network.dyn_peer[29]  lookupTimeSig:vector  ETV
264177	15762 104 561 978 20.93 22.550166302294 4 0.3 0.9 2.5 1.87
