version 2
run Stability2-28-20130526-00:51:14-26640
attr configname Stability2
attr datetime 20130526-00:51:14
attr experiment Stability2
attr inifile omnetpp.ini
attr iterationvars $0=10
attr iterationvars2 "$0=10, $repetition=28"
attr measurement $0=10
attr network Network
attr processid 26640
attr repetition 28
attr replication #28
attr resultdir results
attr runnumber 28
attr seedset 28

vector 87028  Network.churner  inGoingSizeSig:vector  ETV
vector 84028  Network.dyn_peer[0]  lookupHopsSig:vector  ETV
vector 84029  Network.dyn_peer[0]  lookupStabilitySig:vector  ETV
vector 84030  Network.dyn_peer[0]  lookupTimeSig:vector  ETV
vector 84034  Network.dyn_peer[2]  lookupHopsSig:vector  ETV
vector 84035  Network.dyn_peer[2]  lookupStabilitySig:vector  ETV
vector 84036  Network.dyn_peer[2]  lookupTimeSig:vector  ETV
vector 84052  Network.dyn_peer[8]  lookupHopsSig:vector  ETV
vector 84053  Network.dyn_peer[8]  lookupStabilitySig:vector  ETV
vector 84054  Network.dyn_peer[8]  lookupTimeSig:vector  ETV
vector 84037  Network.dyn_peer[3]  lookupHopsSig:vector  ETV
vector 84038  Network.dyn_peer[3]  lookupStabilitySig:vector  ETV
vector 84039  Network.dyn_peer[3]  lookupTimeSig:vector  ETV
vector 84046  Network.dyn_peer[6]  lookupHopsSig:vector  ETV
vector 84047  Network.dyn_peer[6]  lookupStabilitySig:vector  ETV
vector 84048  Network.dyn_peer[6]  lookupTimeSig:vector  ETV
vector 84055  Network.dyn_peer[9]  lookupHopsSig:vector  ETV
vector 84056  Network.dyn_peer[9]  lookupStabilitySig:vector  ETV
vector 84057  Network.dyn_peer[9]  lookupTimeSig:vector  ETV
vector 84031  Network.dyn_peer[1]  lookupHopsSig:vector  ETV
vector 84032  Network.dyn_peer[1]  lookupStabilitySig:vector  ETV
vector 84033  Network.dyn_peer[1]  lookupTimeSig:vector  ETV
vector 84049  Network.dyn_peer[7]  lookupHopsSig:vector  ETV
vector 84050  Network.dyn_peer[7]  lookupStabilitySig:vector  ETV
vector 84051  Network.dyn_peer[7]  lookupTimeSig:vector  ETV
vector 84040  Network.dyn_peer[4]  lookupHopsSig:vector  ETV
vector 84041  Network.dyn_peer[4]  lookupStabilitySig:vector  ETV
vector 84042  Network.dyn_peer[4]  lookupTimeSig:vector  ETV
vector 84043  Network.dyn_peer[5]  lookupHopsSig:vector  ETV
vector 84044  Network.dyn_peer[5]  lookupStabilitySig:vector  ETV
vector 84045  Network.dyn_peer[5]  lookupTimeSig:vector  ETV
84028	18	20.001	0
84028	110	20.301	2
84028	182	20.605385733976	2
84028	240	20.825405645637	1
84029	18	20.001	1
84029	110	20.301	0.59999999403954
84029	182	20.605385733976	0.59999999403954
84029	240	20.825405645637	0.85714285075665
84030	18	20.001	0
84030	110	20.301	0.3
84030	182	20.605385733976	0.3
84030	240	20.825405645637	0.2
84031	115	20.302	3
84031	244	20.902	5
84031	277	21.114027071841	1
84032	115	20.302	0.39999997615814
84032	244	20.902	0.375
84032	277	21.114027071841	0.89999999850988
84033	115	20.302	0.3
84033	244	20.902	0.6
84033	277	21.114027071841	0.2
84034	56	20.103	1
84034	147	20.411014494921	2
84034	207	20.711572639583	2
84034	273	21.034855758801	2
84035	56	20.103	0.79999999701977
84035	147	20.411014494921	0.59999999403954
84035	207	20.711572639583	0.59999999403954
84035	273	21.034855758801	0.77777777612209
84036	56	20.103	0.1
84036	147	20.411014494921	0.3
84036	207	20.711572639583	0.3
84036	273	21.034855758801	0.3
84037	78	20.204	2
84037	266	21.009692300283	7
84037	298	21.315173919589	2
84038	78	20.204	0.59999999403954
84038	266	21.009692300283	0.22222220897675
84038	298	21.315173919589	0.83333332836628
84039	78	20.204	0.2
84039	266	21.009692300283	0.8
84039	298	21.315173919589	0.3
84040	157	20.505	5
84040	226	20.805	2
84040	292	21.220717925873	3
84040	306	21.424721732732	1
84041	157	20.505	0
84041	226	20.805	0.66666665673256
84041	292	21.220717925873	0.75
84041	306	21.424721732732	0.92307692021132
84042	157	20.505	0.5
84042	226	20.805	0.3
84042	292	21.220717925873	0.4
84042	306	21.424721732732	0.2
84043	163	20.506	5
84043	204	20.71024153465	1
84043	254	20.918900814378	1
84044	163	20.506	0
84044	204	20.71024153465	0.79999999701977
84044	254	20.918900814378	0.875
84045	163	20.506	0.5
84045	204	20.71024153465	0.2
84045	254	20.918900814378	0.2
84046	87	20.207	2
84046	199	20.707	4
84046	249	20.911475605625	1
84046	284	21.125407481358	1
84047	87	20.207	0.59999999403954
84047	199	20.707	0.19999998807907
84047	249	20.911475605625	0.875
84047	284	21.125407481358	0.90909090638161
84048	87	20.207	0.2
84048	199	20.707	0.5
84048	249	20.911475605625	0.2
84048	284	21.125407481358	0.2
84049	142	20.408	4
84049	296	21.308	8
84049	310	21.515644913117	1
84049	319	21.818636014164	2
84049	323	22.023966108493	1
84049	328	22.331540725051	2
84049	333	22.551258008052	1
84050	142	20.408	0.19999998807907
84050	296	21.308	0.33333331346512
84050	310	21.515644913117	0.92857142537832
84050	319	21.818636014164	0.85714285075665
84050	323	22.023966108493	0.92857142537832
84050	328	22.331540725051	0.85714285075665
84050	333	22.551258008052	0.92857142537832
84051	142	20.408	0.4
84051	296	21.308	0.9
84051	310	21.515644913117	0.2
84051	319	21.818636014164	0.3
84051	323	22.023966108493	0.2
84051	328	22.331540725051	0.3
84051	333	22.551258008052	0.2
84052	68	20.109	1
84052	123	20.309	1
84052	218	20.73122457654	3
84053	68	20.109	0.79999999701977
84053	123	20.309	0.79999999701977
84053	218	20.73122457654	0.39999997615814
84054	68	20.109	0.1
84054	123	20.309	0.2
84054	218	20.73122457654	0.4
84055	98	20.21	2
84055	232	20.81	5
84056	98	20.21	0.59999999403954
84056	232	20.81	0.16666668653488
84057	98	20.21	0.2
84057	232	20.81	0.6
87028	11	20	0
87028	12	20.001	0
87028	19	20.002	1
87028	22	20.003	2
87028	25	20.004	3
87028	29	20.005	4
87028	32	20.006	5
87028	35	20.007	6
87028	39	20.008	7
87028	43	20.009	8
87028	46	20.01	9
