file 302029 1369674129                                          
version 2
run Stability2-243-20130526-00:53:00-26640
attr configname Stability2
attr datetime 20130526-00:53:00
attr experiment Stability2
attr inifile omnetpp.ini
attr iterationvars $0=400
attr iterationvars2 "$0=400, $repetition=3"
attr measurement $0=400
attr network Network
attr processid 26640
attr repetition 3
attr replication #3
attr resultdir results
attr runnumber 243
attr seedset 243
vector 732243  Network.churner  inGoingSizeSig:vector  ETV
732243	293223 8806 10 2087 20 20.4 401 0 399 79800 21253400
vector 729261  Network.dyn_peer[6]  lookupHopsSig:vector  ETV
729261	82101 103 35 14084 20.007 23.024595569746 4 0 11 27 257
vector 729262  Network.dyn_peer[6]  lookupStabilitySig:vector  ETV
729262	82204 136 35 14084 20.007 23.024595569746 4 -0.25 1 1.3055555075407 1.673364216104
vector 729263  Network.dyn_peer[6]  lookupTimeSig:vector  ETV
729263	82340 107 35 14084 20.007 23.024595569746 4 0 1.2 3 3.14
vector 729285  Network.dyn_peer[14]  lookupHopsSig:vector  ETV
729285	85675 74 63 29338 20.015 27.917741181179 3 0 51 77 3277
vector 729286  Network.dyn_peer[14]  lookupStabilitySig:vector  ETV
729286	85749 102 63 29338 20.015 27.917741181179 3 0.66883116960526 1 2.5668703839183 2.2538095638795
vector 729287  Network.dyn_peer[14]  lookupTimeSig:vector  ETV
729287	85851 76 63 29338 20.015 27.917741181179 3 0 5.2 7.9 34.33
vector 729297  Network.dyn_peer[18]  lookupHopsSig:vector  ETV
729297	87228 205 79 32233 20.019 29.864666436524 7 0 23 68 1022
vector 729298  Network.dyn_peer[18]  lookupStabilitySig:vector  ETV
729298	87433 292 79 32233 20.019 29.864666436524 7 -0.20000004768372 1 4.7364155352116 4.5708618454182
vector 729299  Network.dyn_peer[18]  lookupTimeSig:vector  ETV
729299	87725 214 79 32233 20.019 29.864666436524 7 0 2.4 7.4 11.64
vector 729357  Network.dyn_peer[38]  lookupHopsSig:vector  ETV
729357	95491 101 144 10586 20.039 22.2528861382 4 0 14 19 209
vector 729358  Network.dyn_peer[38]  lookupStabilitySig:vector  ETV
729358	95592 147 144 10586 20.039 22.2528861382 4 -0.076923131942749 1 1.9230768382549 1.5259171420018
vector 729359  Network.dyn_peer[38]  lookupTimeSig:vector  ETV
729359	95739 106 144 10586 20.039 22.2528861382 4 0 1.5 2.2 2.5
vector 729369  Network.dyn_peer[42]  lookupHopsSig:vector  ETV
729369	97297 169 160 29824 20.043 28.169053328245 6 0 19 76 1212
vector 729370  Network.dyn_peer[42]  lookupStabilitySig:vector  ETV
729370	97466 241 160 29824 20.043 28.169053328245 6 -0.79999995231628 1 3.450051099062 4.3828269850168
vector 729371  Network.dyn_peer[42]  lookupTimeSig:vector  ETV
729371	97707 171 160 29824 20.043 28.169053328245 6 0 2 8.1 13.69
vector 729375  Network.dyn_peer[44]  lookupHopsSig:vector  ETV
729375	98593 105 170 15502 20.045 23.355311339293 4 0 21 30 482
vector 729376  Network.dyn_peer[44]  lookupStabilitySig:vector  ETV
729376	98698 150 170 15502 20.045 23.355311339293 4 -0.61538457870483 1 2.1862348467112 3.0032981795548
vector 729377  Network.dyn_peer[44]  lookupTimeSig:vector  ETV
729377	98848 110 170 15502 20.045 23.355311339293 4 0 2.2 3.3 5.45
vector 729528  Network.dyn_peer[95]  lookupHopsSig:vector  ETV
729528	122318 74 328 26717 20.096 26.704952929661 3 0 45 64 2386
vector 729529  Network.dyn_peer[95]  lookupStabilitySig:vector  ETV
729529	122392 92 328 26717 20.096 26.704952929661 3 -1.375 1 0.41172985732555 3.5095688684075
vector 729530  Network.dyn_peer[95]  lookupTimeSig:vector  ETV
729530	122484 74 328 26717 20.096 26.704952929661 3 0 4.6 6.6 25.16
vector 729249  Network.dyn_peer[2]  lookupHopsSig:vector  ETV
729249	80132 105 354 25421 20.103 26.206668859165 4 1 31 59 1439
vector 729250  Network.dyn_peer[2]  lookupStabilitySig:vector  ETV
729250	80237 163 354 25421 20.103 26.206668859165 4 0.44642859697342 0.96774193644524 3.0853361785412 2.5347525294164
vector 729251  Network.dyn_peer[2]  lookupTimeSig:vector  ETV
729251	80400 111 354 25421 20.103 26.206668859165 4 0.1 3.2 6.2 15.58
vector 729252  Network.dyn_peer[3]  lookupHopsSig:vector  ETV
729252	80511 105 362 21503 20.104 24.915115922361 4 1 21 46 730
vector 729253  Network.dyn_peer[3]  lookupStabilitySig:vector  ETV
729253	80616 162 362 21503 20.104 24.915115922361 4 -0.71428573131561 0.91240876168013 1.7023483887315 2.478627209148
vector 729254  Network.dyn_peer[3]  lookupTimeSig:vector  ETV
729254	80778 110 362 21503 20.104 24.915115922361 4 0.1 2.2 4.9 8.23
vector 729255  Network.dyn_peer[4]  lookupHopsSig:vector  ETV
729255	80888 111 370 13220 20.105 22.827071560036 4 1 16 25 297
vector 729256  Network.dyn_peer[4]  lookupStabilitySig:vector  ETV
729256	80999 171 370 13220 20.105 22.827071560036 4 -0.77777779102325 0.83333332836628 1.4555555284023 2.2993827164541
vector 729257  Network.dyn_peer[4]  lookupTimeSig:vector  ETV
729257	81170 118 370 13220 20.105 22.827071560036 4 0.1 1.7 2.8 3.48
vector 729258  Network.dyn_peer[5]  lookupHopsSig:vector  ETV
729258	81288 231 378 33344 20.106 31.140485662789 8 1 36 104 2282
vector 729259  Network.dyn_peer[5]  lookupStabilitySig:vector  ETV
729259	81519 339 378 33344 20.106 31.140485662789 8 0.55555555224419 0.98260869644582 7.0793773382902 6.4166081780506
vector 729260  Network.dyn_peer[5]  lookupTimeSig:vector  ETV
729260	81858 243 378 33344 20.106 31.140485662789 8 0.1 3.7 11.1 24.95
vector 729561  Network.dyn_peer[106]  lookupHopsSig:vector  ETV
729561	127412 105 388 27919 20.107 27.21633485032 4 0 48 68 2536
vector 729562  Network.dyn_peer[106]  lookupStabilitySig:vector  ETV
729562	127517 148 388 27919 20.107 27.21633485032 4 0.66666665673256 1 3.5722084641457 3.2602940375987
vector 729563  Network.dyn_peer[106]  lookupTimeSig:vector  ETV
729563	127665 109 388 27919 20.107 27.21633485032 4 0 4.9 7.1 26.75
vector 729267  Network.dyn_peer[8]  lookupHopsSig:vector  ETV
729267	83270 167 399 23136 20.109 25.428275230318 6 1 22 48 720
vector 729268  Network.dyn_peer[8]  lookupStabilitySig:vector  ETV
729268	83437 255 399 23136 20.109 25.428275230318 6 -0.39999997615814 0.9473684206605 3.3660165891051 3.3446504212481
vector 729269  Network.dyn_peer[8]  lookupTimeSig:vector  ETV
729269	83692 177 399 23136 20.109 25.428275230318 6 0.1 2.3 5.3 8.19
vector 729282  Network.dyn_peer[13]  lookupHopsSig:vector  ETV
729282	85403 75 425 25156 20.114 26.115503294843 3 1 32 59 1701
vector 729283  Network.dyn_peer[13]  lookupStabilitySig:vector  ETV
729283	85478 118 425 25156 20.114 26.115503294843 3 0.48387098312378 0.85714285075665 2.1410138309002 1.608824990144
vector 729284  Network.dyn_peer[13]  lookupTimeSig:vector  ETV
729284	85596 79 425 25156 20.114 26.115503294843 3 0.1 3.3 6.1 18.19
vector 729588  Network.dyn_peer[115]  lookupHopsSig:vector  ETV
729588	131454 138 439 30291 20.116 28.438291709807 5 0 33 79 1939
vector 729589  Network.dyn_peer[115]  lookupStabilitySig:vector  ETV
729589	131592 195 439 30291 20.116 28.438291709807 5 0.24242424964905 1 3.9203654527664 3.4501362205805
vector 729590  Network.dyn_peer[115]  lookupTimeSig:vector  ETV
729590	131787 141 439 30291 20.116 28.438291709807 5 0 3.4 8.3 21.01
vector 729309  Network.dyn_peer[22]  lookupHopsSig:vector  ETV
729309	88948 106 470 24039 20.123 25.728313288053 4 1 35 54 1396
vector 729310  Network.dyn_peer[22]  lookupStabilitySig:vector  ETV
729310	89054 163 470 24039 20.123 25.728313288053 4 0.53947368264198 0.95953757315874 3.2193011045456 2.6986776149865
vector 729311  Network.dyn_peer[22]  lookupTimeSig:vector  ETV
729311	89217 112 470 24039 20.123 25.728313288053 4 0.1 3.6 5.7 15.05
vector 729384  Network.dyn_peer[47]  lookupHopsSig:vector  ETV
729384	99399 113 577 15084 20.148 23.260516596981 4 1 24 29 587
vector 729385  Network.dyn_peer[47]  lookupStabilitySig:vector  ETV
729385	99512 172 577 15084 20.148 23.260516596981 4 0.38461536169052 0.94230769202113 2.9269230477512 2.3158727533538
vector 729386  Network.dyn_peer[47]  lookupTimeSig:vector  ETV
729386	99684 120 577 15084 20.148 23.260516596981 4 0.1 2.5 3.2 6.46
vector 729714  Network.dyn_peer[157]  lookupHopsSig:vector  ETV
729714	155376 136 624 29206 20.158 27.842233778649 5 0 46 67 2359
vector 729715  Network.dyn_peer[157]  lookupStabilitySig:vector  ETV
729715	155512 184 624 29206 20.158 27.842233778649 5 -0.36363637447357 1 2.7302612364292 2.7284497299572
vector 729716  Network.dyn_peer[157]  lookupTimeSig:vector  ETV
729716	155696 142 624 29206 20.158 27.842233778649 5 0 4.7 7.1 24.97
vector 729435  Network.dyn_peer[64]  lookupHopsSig:vector  ETV
729435	107424 200 654 30992 20.165 28.885786047145 7 1 46 82 2596
vector 729436  Network.dyn_peer[64]  lookupStabilitySig:vector  ETV
729436	107624 302 654 30992 20.165 28.885786047145 7 0.65925925970078 0.99557522125542 6.3086068993434 5.7816705763765
vector 729437  Network.dyn_peer[64]  lookupTimeSig:vector  ETV
729437	107926 211 654 30992 20.165 28.885786047145 7 0.1 4.7 8.8 27.64
vector 729744  Network.dyn_peer[167]  lookupHopsSig:vector  ETV
729744	160354 166 672 28140 20.168 27.323300672487 6 0 24 62 1050
vector 729745  Network.dyn_peer[167]  lookupStabilitySig:vector  ETV
729745	160520 213 672 28140 20.168 27.323300672487 6 -1 1 3.4410418719053 4.9701861418667
vector 729746  Network.dyn_peer[167]  lookupTimeSig:vector  ETV
729746	160733 171 672 28140 20.168 27.323300672487 6 0 2.5 6.7 11.79
vector 729456  Network.dyn_peer[71]  lookupHopsSig:vector  ETV
729456	111186 75 690 16405 20.172 23.575882768657 3 1 22 33 585
vector 729457  Network.dyn_peer[71]  lookupStabilitySig:vector  ETV
729457	111261 119 690 16405 20.172 23.575882768657 3 -0.29411768913269 0.85507246851921 1.3609547764063 1.4576541367119
vector 729458  Network.dyn_peer[71]  lookupTimeSig:vector  ETV
729458	111380 79 690 16405 20.172 23.575882768657 3 0.1 2.3 3.5 6.51
vector 729492  Network.dyn_peer[83]  lookupHopsSig:vector  ETV
729492	116789 169 742 31552 20.184 29.304760614169 6 1 39 87 2233
vector 729493  Network.dyn_peer[83]  lookupStabilitySig:vector  ETV
729493	116958 257 742 31552 20.184 29.304760614169 6 -0.23529410362244 0.98023715429008 4.1948168482631 4.0047273464508
vector 729494  Network.dyn_peer[83]  lookupTimeSig:vector  ETV
729494	117215 176 742 31552 20.184 29.304760614169 6 0.1 4 9.2 24.1
vector 729504  Network.dyn_peer[87]  lookupHopsSig:vector  ETV
729504	118548 75 762 31282 20.188 29.097324014531 3 1 56 88 4098
vector 729505  Network.dyn_peer[87]  lookupStabilitySig:vector  ETV
729505	118623 118 762 31282 20.188 29.097324014531 3 0.49180328845978 0.81144781410694 2.1032510995865 1.5403180247904
vector 729506  Network.dyn_peer[87]  lookupTimeSig:vector  ETV
729506	118741 79 762 31282 20.188 29.097324014531 3 0.1 5.7 9 42.74
vector 729537  Network.dyn_peer[98]  lookupHopsSig:vector  ETV
729537	123434 164 810 22184 20.199 25.125380145225 6 1 12 33 299
vector 729538  Network.dyn_peer[98]  lookupStabilitySig:vector  ETV
729538	123598 252 810 22184 20.199 25.125380145225 6 -0.71428573131561 0.98657718114555 3.6315392237157 4.3357859471679
vector 729539  Network.dyn_peer[98]  lookupTimeSig:vector  ETV
729539	123850 174 810 22184 20.199 25.125380145225 6 0.1 1.3 3.8 3.68
vector 729558  Network.dyn_peer[105]  lookupHopsSig:vector  ETV
729558	127030 106 847 23436 20.206 25.521446618383 4 1 33 51 1259
vector 729559  Network.dyn_peer[105]  lookupStabilitySig:vector  ETV
729559	127136 164 847 23436 20.206 25.521446618383 4 0.52857142686844 0.94999999925494 3.2049517892301 2.6800683297892
vector 729560  Network.dyn_peer[105]  lookupTimeSig:vector  ETV
729560	127300 112 847 23436 20.206 25.521446618383 4 0.1 3.4 5.4 13.62
vector 729270  Network.dyn_peer[9]  lookupHopsSig:vector  ETV
729270	83869 82 871 15785 20.21 23.422189659044 3 2 17 32 462
vector 729271  Network.dyn_peer[9]  lookupStabilitySig:vector  ETV
729271	83951 126 871 15785 20.21 23.422189659044 3 -0.85714280605316 0.72580644488335 0.46866363286973 1.6214887782503
vector 729272  Network.dyn_peer[9]  lookupTimeSig:vector  ETV
729272	84077 86 871 15785 20.21 23.422189659044 3 0.2 1.8 3.4 5.24
vector 729273  Network.dyn_peer[10]  lookupHopsSig:vector  ETV
729273	84163 170 880 31046 20.211 28.926501800965 6 2 32 84 1698
vector 729274  Network.dyn_peer[10]  lookupStabilitySig:vector  ETV
729274	84333 254 880 31046 20.211 28.926501800965 6 0.5151515007019 0.96000000089407 4.8684054650366 4.1491612559699
vector 729275  Network.dyn_peer[10]  lookupTimeSig:vector  ETV
729275	84587 178 880 31046 20.211 28.926501800965 6 0.2 3.3 8.9 18.67
vector 729276  Network.dyn_peer[11]  lookupHopsSig:vector  ETV
729276	84765 43 890 14025 20.212 23.012 2 2 27 29 733
vector 729277  Network.dyn_peer[11]  lookupStabilitySig:vector  ETV
729277	84808 72 890 14025 20.212 23.012 2 0.38636362552643 0.59999999403954 0.98636361956597 0.50927684397738
vector 729278  Network.dyn_peer[11]  lookupTimeSig:vector  ETV
729278	84880 46 890 14025 20.212 23.012 2 0.2 2.8 3 7.88
vector 729288  Network.dyn_peer[15]  lookupHopsSig:vector  ETV
729288	85927 143 916 27549 20.216 27.048677216727 5 2 22 42 610
vector 729289  Network.dyn_peer[15]  lookupStabilitySig:vector  ETV
729289	86070 218 916 27549 20.216 27.048677216727 5 -0.22222220897675 0.98369565233588 3.2861558310688 3.2292542186281
vector 729290  Network.dyn_peer[15]  lookupTimeSig:vector  ETV
729290	86288 152 916 27549 20.216 27.048677216727 5 0.2 2.3 4.6 6.94
vector 729300  Network.dyn_peer[19]  lookupHopsSig:vector  ETV
729300	87939 41 941 14927 20.22 23.22 2 2 29 31 845
vector 729301  Network.dyn_peer[19]  lookupStabilitySig:vector  ETV
729301	87980 69 941 14927 20.22 23.22 2 0.4313725233078 0.59999999403954 1.0313725173473 0.54608224671239
vector 729302  Network.dyn_peer[19]  lookupTimeSig:vector  ETV
729302	88049 42 941 14927 20.22 23.22 2 0.2 3 3.2 9.04
vector 729306  Network.dyn_peer[21]  lookupHopsSig:vector  ETV
729306	88804 42 956 9972 20.222 22.122 2 2 18 20 328
vector 729307  Network.dyn_peer[21]  lookupStabilitySig:vector  ETV
729307	88846 57 956 9972 20.222 22.122 2 -1 0.59999999403954 -0.40000000596046 1.3599999928474
vector 729308  Network.dyn_peer[21]  lookupTimeSig:vector  ETV
729308	88903 45 956 9972 20.222 22.122 2 0.2 1.9 2.1 3.65
vector 729315  Network.dyn_peer[24]  lookupHopsSig:vector  ETV
729315	89494 106 975 26310 20.225 26.540672793367 4 2 34 62 1506
vector 729316  Network.dyn_peer[24]  lookupStabilitySig:vector  ETV
729316	89600 153 975 26310 20.225 26.540672793367 4 -0.875 0.83574879169464 1.3216183483601 2.403023526997
vector 729317  Network.dyn_peer[24]  lookupTimeSig:vector  ETV
729317	89753 111 975 26310 20.225 26.540672793367 4 0.2 3.5 6.5 16.29
vector 729651  Network.dyn_peer[136]  lookupHopsSig:vector  ETV
729651	143954 105 1040 12405 20.237 22.641533572853 4 1 16 22 274
vector 729652  Network.dyn_peer[136]  lookupStabilitySig:vector  ETV
729652	144059 148 1040 12405 20.237 22.641533572853 4 -1 0.9666666649282 1.5313725434244 3.1592195214796
vector 729653  Network.dyn_peer[136]  lookupTimeSig:vector  ETV
729653	144207 112 1040 12405 20.237 22.641533572853 4 0.1 1.7 2.5 3.19
vector 729381  Network.dyn_peer[46]  lookupHopsSig:vector  ETV
729381	99127 74 1095 17147 20.247 23.750952526189 3 2 27 35 769
vector 729382  Network.dyn_peer[46]  lookupStabilitySig:vector  ETV
729382	99201 119 1095 17147 20.247 23.750952526189 3 -0.20000004768372 0.64935064315796 1.0493505895138 0.82165626969059
vector 729383  Network.dyn_peer[46]  lookupTimeSig:vector  ETV
729383	99320 79 1095 17147 20.247 23.750952526189 3 0.2 2.8 3.7 8.37
vector 729690  Network.dyn_peer[149]  lookupHopsSig:vector  ETV
729690	150114 353 1113 34477 20.25 33.285095011161 12 1 38 117 2385
vector 729691  Network.dyn_peer[149]  lookupStabilitySig:vector  ETV
729691	150467 517 1113 34477 20.25 33.285095011161 12 -0.5 0.9946949603036 9.8104347707704 9.9845307593708
vector 729692  Network.dyn_peer[149]  lookupTimeSig:vector  ETV
729692	150984 370 1113 34477 20.25 33.285095011161 12 0.1 3.9 12.8 26.28
vector 729426  Network.dyn_peer[61]  lookupHopsSig:vector  ETV
729426	106397 108 1178 27381 20.262 26.971963475914 4 2 34 66 1642
vector 729427  Network.dyn_peer[61]  lookupStabilitySig:vector  ETV
729427	106505 165 1178 27381 20.262 26.971963475914 4 0.57499998807907 0.92253521084785 3.0130907520652 2.379938176189
vector 729428  Network.dyn_peer[61]  lookupTimeSig:vector  ETV
729428	106670 111 1178 27381 20.262 26.971963475914 4 0.2 3.5 6.9 17.73
vector 729729  Network.dyn_peer[162]  lookupHopsSig:vector  ETV
729729	157940 105 1187 15988 20.263 23.47303990261 4 1 11 30 292
vector 729730  Network.dyn_peer[162]  lookupStabilitySig:vector  ETV
729730	158045 155 1187 15988 20.263 23.47303990261 4 -0.57142853736877 0.890625 1.7643577605486 2.1759765633519
vector 729731  Network.dyn_peer[162]  lookupTimeSig:vector  ETV
729731	158200 111 1187 15988 20.263 23.47303990261 4 0.1 1.2 3.3 3.53
vector 729447  Network.dyn_peer[68]  lookupHopsSig:vector  ETV
729447	109816 170 1221 31140 20.269 28.987240545067 6 2 39 84 2178
vector 729448  Network.dyn_peer[68]  lookupStabilitySig:vector  ETV
729448	109986 257 1221 31140 20.269 28.987240545067 6 0.59999999403954 0.99236641218886 5.0277968044393 4.3746838938093
vector 729449  Network.dyn_peer[68]  lookupTimeSig:vector  ETV
729449	110243 177 1221 31140 20.269 28.987240545067 6 0.2 4 8.9 23.47
vector 730065  Network.dyn_peer[274]  lookupHopsSig:vector  ETV
730065	219123 102 1257 11677 20.275 22.48473360195 4 0 13 19 189
vector 730066  Network.dyn_peer[274]  lookupStabilitySig:vector  ETV
730066	219225 147 1257 11677 20.275 22.48473360195 4 -0.083333373069763 1 1.9990195557475 1.8254911583282
vector 730067  Network.dyn_peer[274]  lookupTimeSig:vector  ETV
730067	219372 107 1257 11677 20.275 22.48473360195 4 0 1.4 2.2 2.3
vector 729480  Network.dyn_peer[79]  lookupHopsSig:vector  ETV
729480	114452 42 1284 10733 20.28 22.28 2 2 19 21 365
vector 729481  Network.dyn_peer[79]  lookupStabilitySig:vector  ETV
729481	114494 62 1284 10733 20.28 22.28 2 -0.1875 0.59999999403954 0.41249999403954 0.39515624284745
vector 729482  Network.dyn_peer[79]  lookupTimeSig:vector  ETV
729482	114556 43 1284 10733 20.28 22.28 2 0.2 2 2.2 4.04
vector 729789  Network.dyn_peer[182]  lookupHopsSig:vector  ETV
729789	168306 76 1303 23638 20.283 25.589591837343 3 1 30 52 1342
vector 729790  Network.dyn_peer[182]  lookupStabilitySig:vector  ETV
729790	168382 119 1303 23638 20.283 25.589591837343 3 0.50819671154022 0.87425149977207 2.1824482083321 1.6625795777056
vector 729791  Network.dyn_peer[182]  lookupTimeSig:vector  ETV
729791	168501 80 1303 23638 20.283 25.589591837343 3 0.1 3.1 5.4 14.46
vector 729525  Network.dyn_peer[94]  lookupHopsSig:vector  ETV
729525	122076 73 1368 12231 20.295 22.60319344755 3 2 14 23 249
vector 729526  Network.dyn_peer[94]  lookupStabilitySig:vector  ETV
729526	122149 91 1368 12231 20.295 22.60319344755 3 -1 0.75 0.34999999403954 1.9224999928474
vector 729527  Network.dyn_peer[94]  lookupTimeSig:vector  ETV
729527	122240 78 1368 12231 20.295 22.60319344755 3 0.2 1.5 2.5 2.93
vector 729534  Network.dyn_peer[97]  lookupHopsSig:vector  ETV
729534	123059 108 1387 25965 20.298 26.407369362019 4 2 25 60 1198
vector 729535  Network.dyn_peer[97]  lookupStabilitySig:vector  ETV
729535	123167 154 1387 25965 20.298 26.407369362019 4 0.40476191043854 0.89949748665094 2.779259391129 2.0985529254807
vector 729536  Network.dyn_peer[97]  lookupTimeSig:vector  ETV
729536	123321 113 1387 25965 20.298 26.407369362019 4 0.2 2.6 6.3 13.17
vector 729246  Network.dyn_peer[1]  lookupHopsSig:vector  ETV
729246	79750 106 1413 20750 20.302 24.705330201133 4 3 29 44 924
vector 729247  Network.dyn_peer[1]  lookupStabilitySig:vector  ETV
729247	79856 165 1413 20750 20.302 24.705330201133 4 0.39999997615814 0.94214875996113 2.7567364983261 2.1582164984419
vector 729248  Network.dyn_peer[1]  lookupTimeSig:vector  ETV
729248	80021 111 1413 20750 20.302 24.705330201133 4 0.3 3 4.7 10.09
vector 729279  Network.dyn_peer[12]  lookupHopsSig:vector  ETV
729279	84926 138 1483 26777 20.313 26.731282652061 5 3 21 63 1071
vector 729280  Network.dyn_peer[12]  lookupStabilitySig:vector  ETV
729280	85064 194 1483 26777 20.313 26.731282652061 5 0 0.90232557803392 2.30022469908 1.6800781854652
vector 729281  Network.dyn_peer[12]  lookupTimeSig:vector  ETV
729281	85258 145 1483 26777 20.313 26.731282652061 5 0.3 2.2 6.7 11.95
vector 729582  Network.dyn_peer[113]  lookupHopsSig:vector  ETV
729582	131013 83 1493 13223 20.314 22.827260760736 3 2 14 25 281
vector 729583  Network.dyn_peer[113]  lookupStabilitySig:vector  ETV
729583	131096 104 1493 13223 20.314 22.827260760736 3 -0.75 0.75 0.59999999403954 1.4849999928474
vector 729584  Network.dyn_peer[113]  lookupTimeSig:vector  ETV
729584	131200 86 1493 13223 20.314 22.827260760736 3 0.2 1.5 2.7 3.29
vector 729291  Network.dyn_peer[16]  lookupHopsSig:vector  ETV
729291	86440 145 1516 27047 20.317 26.837868783994 5 3 33 64 1364
vector 729292  Network.dyn_peer[16]  lookupStabilitySig:vector  ETV
729292	86585 217 1516 27047 20.317 26.837868783994 5 0.39999997615814 0.95909091085196 3.7994559146464 3.1575677071502
vector 729293  Network.dyn_peer[16]  lookupTimeSig:vector  ETV
729293	86802 151 1516 27047 20.317 26.837868783994 5 0.3 3.4 6.8 14.9
vector 729597  Network.dyn_peer[118]  lookupHopsSig:vector  ETV
729597	132598 201 1532 31612 20.319 29.346709129119 7 2 37 86 2108
vector 729598  Network.dyn_peer[118]  lookupStabilitySig:vector  ETV
729598	132799 302 1532 31612 20.319 29.346709129119 7 0.59999999403954 0.98461538460106 6.0164859248325 5.3447812616001
vector 729599  Network.dyn_peer[118]  lookupTimeSig:vector  ETV
729599	133101 212 1532 31612 20.319 29.346709129119 7 0.2 3.8 9.2 22.82
vector 729303  Network.dyn_peer[20]  lookupHopsSig:vector  ETV
729303	88091 200 1550 30441 20.321 28.525761735958 7 3 27 78 1312
vector 729304  Network.dyn_peer[20]  lookupStabilitySig:vector  ETV
729304	88291 303 1550 30441 20.321 28.525761735958 7 0.39999997615814 0.97580645233393 5.5731262750924 4.8285128296599
vector 729305  Network.dyn_peer[20]  lookupTimeSig:vector  ETV
729305	88594 210 1550 30441 20.321 28.525761735958 7 0.3 2.8 8.4 14.68
vector 729603  Network.dyn_peer[120]  lookupHopsSig:vector  ETV
729603	133696 135 1554 29119 20.321 27.798082131387 5 1 42 60 1882
vector 729604  Network.dyn_peer[120]  lookupStabilitySig:vector  ETV
729604	133831 199 1554 29119 20.321 27.798082131387 5 -0.60000002384186 0.91666666418314 1.8749999627471 2.2703472308483
vector 729605  Network.dyn_peer[120]  lookupTimeSig:vector  ETV
729605	134030 144 1554 29119 20.321 27.798082131387 5 0.2 4.3 6.4 20.02
vector 729336  Network.dyn_peer[31]  lookupHopsSig:vector  ETV
729336	92048 75 1627 16684 20.332 23.639100680056 3 3 21 34 550
vector 729337  Network.dyn_peer[31]  lookupStabilitySig:vector  ETV
729337	92123 119 1627 16684 20.332 23.639100680056 3 -0.42857146263123 0.70833334326744 0.67976185679435 0.84540960469281
vector 729338  Network.dyn_peer[31]  lookupTimeSig:vector  ETV
729338	92242 79 1627 16684 20.332 23.639100680056 3 0.3 2.2 3.6 6.14
vector 729348  Network.dyn_peer[35]  lookupHopsSig:vector  ETV
729348	93680 234 1655 33671 20.336 31.578382593215 8 3 33 108 2056
vector 729349  Network.dyn_peer[35]  lookupStabilitySig:vector  ETV
729349	93914 346 1655 33671 20.336 31.578382593215 8 0.39999997615814 0.97740112990141 6.6725867968053 5.9066601629892
vector 729350  Network.dyn_peer[35]  lookupTimeSig:vector  ETV
729350	94260 245 1655 33671 20.336 31.578382593215 8 0.3 3.4 11.5 22.73
vector 729675  Network.dyn_peer[144]  lookupHopsSig:vector  ETV
729675	147339 102 1713 10642 20.345 22.26359396256 4 2 6 18 92
vector 729676  Network.dyn_peer[144]  lookupStabilitySig:vector  ETV
729676	147441 161 1713 10642 20.345 22.26359396256 4 0.14285713434219 0.59999999403954 1.5142856836319 0.74693875629076
vector 729677  Network.dyn_peer[144]  lookupTimeSig:vector  ETV
729677	147602 110 1713 10642 20.345 22.26359396256 4 0.2 0.7 2.1 1.27
vector 730296  Network.dyn_peer[351]  lookupHopsSig:vector  ETV
730296	265345 140 1764 27116 20.352 26.861307377889 5 0 28 61 1153
vector 730297  Network.dyn_peer[351]  lookupStabilitySig:vector  ETV
730297	265485 196 1764 27116 20.352 26.861307377889 5 0.46153843402863 1 4.2477071881294 3.8030513199057
vector 730298  Network.dyn_peer[351]  lookupTimeSig:vector  ETV
730298	265681 144 1764 27116 20.352 26.861307377889 5 0 2.9 6.5 12.79
vector 729414  Network.dyn_peer[57]  lookupHopsSig:vector  ETV
729414	103928 168 1802 26149 20.358 26.474823001772 6 3 19 59 775
vector 729415  Network.dyn_peer[57]  lookupStabilitySig:vector  ETV
729415	104096 257 1802 26149 20.358 26.474823001772 6 -0.11764705181122 0.97058823518455 3.9897065740079 3.6219833574806
vector 729416  Network.dyn_peer[57]  lookupTimeSig:vector  ETV
729416	104353 176 1802 26149 20.358 26.474823001772 6 0.3 2 6.4 8.92
vector 730014  Network.dyn_peer[257]  lookupHopsSig:vector  ETV
730014	210657 104 1806 15111 20.358 23.266558096256 4 1 17 27 355
vector 730015  Network.dyn_peer[257]  lookupStabilitySig:vector  ETV
730015	210761 164 1806 15111 20.358 23.266558096256 4 -0.33333337306976 0.85714285075665 2.0030547678471 1.9471791676903
vector 730016  Network.dyn_peer[257]  lookupTimeSig:vector  ETV
730016	210925 111 1806 15111 20.358 23.266558096256 4 0.1 1.8 3 4.1
vector 729444  Network.dyn_peer[67]  lookupHopsSig:vector  ETV
729444	109433 106 1870 21348 20.368 24.869868630078 4 3 24 45 749
vector 729445  Network.dyn_peer[67]  lookupStabilitySig:vector  ETV
729445	109539 165 1870 21348 20.368 24.869868630078 4 -0.33333337306976 0.82222221791744 1.3006535023451 1.1167106469641
vector 729446  Network.dyn_peer[67]  lookupTimeSig:vector  ETV
729446	109704 112 1870 21348 20.368 24.869868630078 4 0.3 2.5 4.8 8.36
vector 729477  Network.dyn_peer[78]  lookupHopsSig:vector  ETV
729477	114066 108 1940 21409 20.379 24.891338732003 4 3 17 45 623
vector 729478  Network.dyn_peer[78]  lookupStabilitySig:vector  ETV
729478	114174 165 1940 21409 20.379 24.891338732003 4 -0.41666662693024 0.8897058814764 1.68785405159 1.7891108067926
vector 729479  Network.dyn_peer[78]  lookupTimeSig:vector  ETV
729479	114339 113 1940 21409 20.379 24.891338732003 4 0.3 1.8 4.8 7.1
vector 730098  Network.dyn_peer[285]  lookupHopsSig:vector  ETV
730098	225663 170 1987 30053 20.386 28.301341255578 6 1 25 75 1423
vector 730099  Network.dyn_peer[285]  lookupStabilitySig:vector  ETV
730099	225833 258 1987 30053 20.386 28.301341255578 6 -0.17647063732147 0.92857142537832 4.2547886148095 3.9682992019263
vector 730100  Network.dyn_peer[285]  lookupTimeSig:vector  ETV
730100	226091 179 1987 30053 20.386 28.301341255578 6 0.1 2.6 8 15.76
vector 729501  Network.dyn_peer[86]  lookupHopsSig:vector  ETV
729501	117942 171 1997 25959 20.387 26.406438523278 6 3 19 58 728
vector 729502  Network.dyn_peer[86]  lookupStabilitySig:vector  ETV
729502	118113 258 1997 25959 20.387 26.406438523278 6 -0.11764705181122 0.97402597405016 3.9576415177435 3.5595386869916
vector 729503  Network.dyn_peer[86]  lookupTimeSig:vector  ETV
729503	118371 177 1997 25959 20.387 26.406438523278 6 0.3 2 6.3 8.43
vector 730104  Network.dyn_peer[287]  lookupHopsSig:vector  ETV
730104	226434 107 2007 25947 20.388 26.402740327109 4 1 26 58 1338
vector 730105  Network.dyn_peer[287]  lookupStabilitySig:vector  ETV
730105	226541 164 2007 25947 20.388 26.402740327109 4 0.4693877696991 0.96969696879387 3.0928859114647 2.5296135329197
vector 730106  Network.dyn_peer[287]  lookupTimeSig:vector  ETV
730106	226705 113 2007 25947 20.388 26.402740327109 4 0.1 2.7 6.1 14.55
vector 729507  Network.dyn_peer[88]  lookupHopsSig:vector  ETV
729507	118820 106 2017 22737 20.389 25.297600909236 4 3 28 49 987
vector 729508  Network.dyn_peer[88]  lookupStabilitySig:vector  ETV
729508	118926 164 2017 22737 20.389 25.297600909236 4 0.39999997615814 0.94186046347022 2.7400085963309 2.1192033144382
vector 729509  Network.dyn_peer[88]  lookupTimeSig:vector  ETV
729509	119090 112 2017 22737 20.389 25.297600909236 4 0.3 2.9 5.2 10.82
vector 730137  Network.dyn_peer[298]  lookupHopsSig:vector  ETV
730137	232300 107 2081 23998 20.399 25.714975559376 4 1 25 51 1159
vector 730138  Network.dyn_peer[298]  lookupStabilitySig:vector  ETV
730138	232407 165 2081 23998 20.399 25.714975559376 4 0.36111110448837 0.95918367430568 2.9740959517658 2.4194109941279
vector 730139  Network.dyn_peer[298]  lookupTimeSig:vector  ETV
730139	232572 113 2081 23998 20.399 25.714975559376 4 0.1 2.6 5.4 12.62
vector 729849  Network.dyn_peer[202]  lookupHopsSig:vector  ETV
729849	178186 106 2105 16536 20.403 23.610961508487 4 2 13 31 351
vector 729850  Network.dyn_peer[202]  lookupStabilitySig:vector  ETV
729850	178292 164 2105 16536 20.403 23.610961508487 4 -0.85714280605316 0.95714285597205 1.4450980685651 2.5659872958273
vector 729851  Network.dyn_peer[202]  lookupTimeSig:vector  ETV
729851	178456 112 2105 16536 20.403 23.610961508487 4 0.2 1.4 3.4 4.12
vector 729264  Network.dyn_peer[7]  lookupHopsSig:vector  ETV
729264	82447 232 2128 34443 20.408 33.189083615363 8 4 18 85 1043
vector 729265  Network.dyn_peer[7]  lookupStabilitySig:vector  ETV
729265	82679 349 2128 34443 20.408 33.189083615363 8 -0.85714280605316 0.97681159339845 4.9582340586931 6.0664239420554
vector 729266  Network.dyn_peer[7]  lookupTimeSig:vector  ETV
729266	83028 242 2128 34443 20.408 33.189083615363 8 0.4 1.9 9.2 12.12
vector 729591  Network.dyn_peer[116]  lookupHopsSig:vector  ETV
729591	131928 138 2169 26039 20.417 26.432372977621 5 3 19 59 845
vector 729592  Network.dyn_peer[116]  lookupStabilitySig:vector  ETV
729592	132066 200 2169 26039 20.417 26.432372977621 5 -0.625 0.91588784754276 2.3553562909365 2.7857054612594
vector 729593  Network.dyn_peer[116]  lookupTimeSig:vector  ETV
729593	132266 141 2169 26039 20.417 26.432372977621 5 0.3 2 6.3 9.61
vector 729294  Network.dyn_peer[17]  lookupHopsSig:vector  ETV
729294	86953 76 2177 24019 20.418 25.720414191479 3 4 31 55 1377
vector 729295  Network.dyn_peer[17]  lookupStabilitySig:vector  ETV
729295	87029 119 2177 24019 20.418 25.720414191479 3 0.19999998807907 0.88372092694044 1.6471011862159 1.1383600019174