version 2
run Stability2-123-20130526-00:51:44-26640
attr configname Stability2
attr datetime 20130526-00:51:44
attr experiment Stability2
attr inifile omnetpp.ini
attr iterationvars $0=50
attr iterationvars2 "$0=50, $repetition=3"
attr measurement $0=50
attr network Network
attr processid 26640
attr repetition 3
attr replication #3
attr resultdir results
attr runnumber 123
attr seedset 123

vector 372123  Network.churner  inGoingSizeSig:vector  ETV
vector 369138  Network.dyn_peer[5]  lookupHopsSig:vector  ETV
vector 369139  Network.dyn_peer[5]  lookupStabilitySig:vector  ETV
vector 369140  Network.dyn_peer[5]  lookupTimeSig:vector  ETV
vector 369144  Network.dyn_peer[7]  lookupHopsSig:vector  ETV
vector 369145  Network.dyn_peer[7]  lookupStabilitySig:vector  ETV
vector 369146  Network.dyn_peer[7]  lookupTimeSig:vector  ETV
vector 369150  Network.dyn_peer[9]  lookupHopsSig:vector  ETV
vector 369151  Network.dyn_peer[9]  lookupStabilitySig:vector  ETV
vector 369152  Network.dyn_peer[9]  lookupTimeSig:vector  ETV
vector 369183  Network.dyn_peer[20]  lookupHopsSig:vector  ETV
vector 369184  Network.dyn_peer[20]  lookupStabilitySig:vector  ETV
vector 369185  Network.dyn_peer[20]  lookupTimeSig:vector  ETV
vector 369204  Network.dyn_peer[27]  lookupHopsSig:vector  ETV
vector 369205  Network.dyn_peer[27]  lookupStabilitySig:vector  ETV
vector 369206  Network.dyn_peer[27]  lookupTimeSig:vector  ETV
vector 369207  Network.dyn_peer[28]  lookupHopsSig:vector  ETV
vector 369208  Network.dyn_peer[28]  lookupStabilitySig:vector  ETV
vector 369209  Network.dyn_peer[28]  lookupTimeSig:vector  ETV
vector 369210  Network.dyn_peer[29]  lookupHopsSig:vector  ETV
vector 369211  Network.dyn_peer[29]  lookupStabilitySig:vector  ETV
vector 369212  Network.dyn_peer[29]  lookupTimeSig:vector  ETV
vector 369219  Network.dyn_peer[32]  lookupHopsSig:vector  ETV
vector 369220  Network.dyn_peer[32]  lookupStabilitySig:vector  ETV
vector 369221  Network.dyn_peer[32]  lookupTimeSig:vector  ETV
vector 369222  Network.dyn_peer[33]  lookupHopsSig:vector  ETV
vector 369223  Network.dyn_peer[33]  lookupStabilitySig:vector  ETV
vector 369224  Network.dyn_peer[33]  lookupTimeSig:vector  ETV
vector 369231  Network.dyn_peer[36]  lookupHopsSig:vector  ETV
vector 369232  Network.dyn_peer[36]  lookupStabilitySig:vector  ETV
vector 369233  Network.dyn_peer[36]  lookupTimeSig:vector  ETV
vector 369156  Network.dyn_peer[11]  lookupHopsSig:vector  ETV
vector 369157  Network.dyn_peer[11]  lookupStabilitySig:vector  ETV
vector 369158  Network.dyn_peer[11]  lookupTimeSig:vector  ETV
vector 369192  Network.dyn_peer[23]  lookupHopsSig:vector  ETV
vector 369193  Network.dyn_peer[23]  lookupStabilitySig:vector  ETV
vector 369194  Network.dyn_peer[23]  lookupTimeSig:vector  ETV
vector 369198  Network.dyn_peer[25]  lookupHopsSig:vector  ETV
vector 369199  Network.dyn_peer[25]  lookupStabilitySig:vector  ETV
vector 369200  Network.dyn_peer[25]  lookupTimeSig:vector  ETV
vector 369252  Network.dyn_peer[43]  lookupHopsSig:vector  ETV
vector 369253  Network.dyn_peer[43]  lookupStabilitySig:vector  ETV
vector 369254  Network.dyn_peer[43]  lookupTimeSig:vector  ETV
vector 369267  Network.dyn_peer[48]  lookupHopsSig:vector  ETV
vector 369268  Network.dyn_peer[48]  lookupStabilitySig:vector  ETV
vector 369269  Network.dyn_peer[48]  lookupTimeSig:vector  ETV
vector 369270  Network.dyn_peer[49]  lookupHopsSig:vector  ETV
vector 369271  Network.dyn_peer[49]  lookupStabilitySig:vector  ETV
vector 369272  Network.dyn_peer[49]  lookupTimeSig:vector  ETV
vector 369141  Network.dyn_peer[6]  lookupHopsSig:vector  ETV
vector 369142  Network.dyn_peer[6]  lookupStabilitySig:vector  ETV
vector 369143  Network.dyn_peer[6]  lookupTimeSig:vector  ETV
vector 369153  Network.dyn_peer[10]  lookupHopsSig:vector  ETV
vector 369154  Network.dyn_peer[10]  lookupStabilitySig:vector  ETV
vector 369155  Network.dyn_peer[10]  lookupTimeSig:vector  ETV
vector 369162  Network.dyn_peer[13]  lookupHopsSig:vector  ETV
vector 369163  Network.dyn_peer[13]  lookupStabilitySig:vector  ETV
vector 369164  Network.dyn_peer[13]  lookupTimeSig:vector  ETV
vector 369165  Network.dyn_peer[14]  lookupHopsSig:vector  ETV
vector 369166  Network.dyn_peer[14]  lookupStabilitySig:vector  ETV
vector 369167  Network.dyn_peer[14]  lookupTimeSig:vector  ETV
vector 369174  Network.dyn_peer[17]  lookupHopsSig:vector  ETV
vector 369175  Network.dyn_peer[17]  lookupStabilitySig:vector  ETV
vector 369176  Network.dyn_peer[17]  lookupTimeSig:vector  ETV
vector 369186  Network.dyn_peer[21]  lookupHopsSig:vector  ETV
vector 369187  Network.dyn_peer[21]  lookupStabilitySig:vector  ETV
vector 369188  Network.dyn_peer[21]  lookupTimeSig:vector  ETV
vector 369189  Network.dyn_peer[22]  lookupHopsSig:vector  ETV
vector 369190  Network.dyn_peer[22]  lookupStabilitySig:vector  ETV
vector 369191  Network.dyn_peer[22]  lookupTimeSig:vector  ETV
vector 369213  Network.dyn_peer[30]  lookupHopsSig:vector  ETV
vector 369214  Network.dyn_peer[30]  lookupStabilitySig:vector  ETV
vector 369215  Network.dyn_peer[30]  lookupTimeSig:vector  ETV
vector 369225  Network.dyn_peer[34]  lookupHopsSig:vector  ETV
vector 369226  Network.dyn_peer[34]  lookupStabilitySig:vector  ETV
vector 369227  Network.dyn_peer[34]  lookupTimeSig:vector  ETV
vector 369243  Network.dyn_peer[40]  lookupHopsSig:vector  ETV
vector 369244  Network.dyn_peer[40]  lookupStabilitySig:vector  ETV
vector 369245  Network.dyn_peer[40]  lookupTimeSig:vector  ETV
vector 369249  Network.dyn_peer[42]  lookupHopsSig:vector  ETV
vector 369250  Network.dyn_peer[42]  lookupStabilitySig:vector  ETV
vector 369251  Network.dyn_peer[42]  lookupTimeSig:vector  ETV
vector 369258  Network.dyn_peer[45]  lookupHopsSig:vector  ETV
vector 369259  Network.dyn_peer[45]  lookupStabilitySig:vector  ETV
vector 369260  Network.dyn_peer[45]  lookupTimeSig:vector  ETV
vector 369123  Network.dyn_peer[0]  lookupHopsSig:vector  ETV
vector 369124  Network.dyn_peer[0]  lookupStabilitySig:vector  ETV
vector 369125  Network.dyn_peer[0]  lookupTimeSig:vector  ETV
vector 369129  Network.dyn_peer[2]  lookupHopsSig:vector  ETV
vector 369130  Network.dyn_peer[2]  lookupStabilitySig:vector  ETV
vector 369131  Network.dyn_peer[2]  lookupTimeSig:vector  ETV
vector 369132  Network.dyn_peer[3]  lookupHopsSig:vector  ETV
vector 369133  Network.dyn_peer[3]  lookupStabilitySig:vector  ETV
vector 369134  Network.dyn_peer[3]  lookupTimeSig:vector  ETV
vector 369135  Network.dyn_peer[4]  lookupHopsSig:vector  ETV
vector 369136  Network.dyn_peer[4]  lookupStabilitySig:vector  ETV
vector 369137  Network.dyn_peer[4]  lookupTimeSig:vector  ETV
vector 369159  Network.dyn_peer[12]  lookupHopsSig:vector  ETV
vector 369160  Network.dyn_peer[12]  lookupStabilitySig:vector  ETV
vector 369161  Network.dyn_peer[12]  lookupTimeSig:vector  ETV
vector 369171  Network.dyn_peer[16]  lookupHopsSig:vector  ETV
vector 369172  Network.dyn_peer[16]  lookupStabilitySig:vector  ETV
vector 369173  Network.dyn_peer[16]  lookupTimeSig:vector  ETV
vector 369201  Network.dyn_peer[26]  lookupHopsSig:vector  ETV
vector 369202  Network.dyn_peer[26]  lookupStabilitySig:vector  ETV
vector 369203  Network.dyn_peer[26]  lookupTimeSig:vector  ETV
vector 369228  Network.dyn_peer[35]  lookupHopsSig:vector  ETV
vector 369229  Network.dyn_peer[35]  lookupStabilitySig:vector  ETV
vector 369230  Network.dyn_peer[35]  lookupTimeSig:vector  ETV
vector 369261  Network.dyn_peer[46]  lookupHopsSig:vector  ETV
vector 369262  Network.dyn_peer[46]  lookupStabilitySig:vector  ETV
vector 369263  Network.dyn_peer[46]  lookupTimeSig:vector  ETV
vector 369168  Network.dyn_peer[15]  lookupHopsSig:vector  ETV
vector 369169  Network.dyn_peer[15]  lookupStabilitySig:vector  ETV
vector 369170  Network.dyn_peer[15]  lookupTimeSig:vector  ETV
vector 369180  Network.dyn_peer[19]  lookupHopsSig:vector  ETV
vector 369181  Network.dyn_peer[19]  lookupStabilitySig:vector  ETV
vector 369182  Network.dyn_peer[19]  lookupTimeSig:vector  ETV
vector 369195  Network.dyn_peer[24]  lookupHopsSig:vector  ETV
vector 369196  Network.dyn_peer[24]  lookupStabilitySig:vector  ETV
vector 369197  Network.dyn_peer[24]  lookupTimeSig:vector  ETV
vector 369246  Network.dyn_peer[41]  lookupHopsSig:vector  ETV
vector 369247  Network.dyn_peer[41]  lookupStabilitySig:vector  ETV
vector 369248  Network.dyn_peer[41]  lookupTimeSig:vector  ETV
vector 369264  Network.dyn_peer[47]  lookupHopsSig:vector  ETV
vector 369265  Network.dyn_peer[47]  lookupStabilitySig:vector  ETV
vector 369266  Network.dyn_peer[47]  lookupTimeSig:vector  ETV
vector 369177  Network.dyn_peer[18]  lookupHopsSig:vector  ETV
vector 369178  Network.dyn_peer[18]  lookupStabilitySig:vector  ETV
vector 369179  Network.dyn_peer[18]  lookupTimeSig:vector  ETV
vector 369216  Network.dyn_peer[31]  lookupHopsSig:vector  ETV
vector 369217  Network.dyn_peer[31]  lookupStabilitySig:vector  ETV
vector 369218  Network.dyn_peer[31]  lookupTimeSig:vector  ETV
vector 369234  Network.dyn_peer[37]  lookupHopsSig:vector  ETV
vector 369235  Network.dyn_peer[37]  lookupStabilitySig:vector  ETV
vector 369236  Network.dyn_peer[37]  lookupTimeSig:vector  ETV
vector 369255  Network.dyn_peer[44]  lookupHopsSig:vector  ETV
vector 369256  Network.dyn_peer[44]  lookupStabilitySig:vector  ETV
vector 369257  Network.dyn_peer[44]  lookupTimeSig:vector  ETV
vector 369126  Network.dyn_peer[1]  lookupHopsSig:vector  ETV
vector 369127  Network.dyn_peer[1]  lookupStabilitySig:vector  ETV
vector 369128  Network.dyn_peer[1]  lookupTimeSig:vector  ETV
vector 369237  Network.dyn_peer[38]  lookupHopsSig:vector  ETV
vector 369238  Network.dyn_peer[38]  lookupStabilitySig:vector  ETV
vector 369239  Network.dyn_peer[38]  lookupTimeSig:vector  ETV
vector 369240  Network.dyn_peer[39]  lookupHopsSig:vector  ETV
vector 369241  Network.dyn_peer[39]  lookupStabilitySig:vector  ETV
vector 369242  Network.dyn_peer[39]  lookupTimeSig:vector  ETV
vector 369147  Network.dyn_peer[8]  lookupHopsSig:vector  ETV
vector 369148  Network.dyn_peer[8]  lookupStabilitySig:vector  ETV
vector 369149  Network.dyn_peer[8]  lookupTimeSig:vector  ETV
369123	387	20.301	3
369123	1111	21.301	9
369123	1245	21.505020366915	1
369124	387	20.301	0.39999997615814
369124	1111	21.301	0
369124	1245	21.505020366915	0.9473684206605
369125	387	20.301	0.3
369125	1111	21.301	1
369125	1245	21.505020366915	0.2
369126	635	20.602	6
369126	1176	21.402	7
369126	1429	21.814857177732	3
369126	1513	22.024178065196	1
369126	1619	22.329373045458	2
369126	1780	23.038060861117	6
369127	635	20.602	-0.20000004768372
369127	1176	21.402	0.46153843402863
369127	1429	21.814857177732	0.89999999850988
369127	1513	22.024178065196	0.96969696879387
369127	1619	22.329373045458	0.94444444403052
369127	1780	23.038060861117	0.86666665971279
369128	635	20.602	0.6
369128	1176	21.402	0.8
369128	1429	21.814857177732	0.4
369128	1513	22.024178065196	0.2
369128	1619	22.329373045458	0.3
369128	1780	23.038060861117	0.7
369129	393	20.303	3
369129	838	20.903	5
369130	393	20.303	0.39999997615814
369130	838	20.903	0.16666668653488
369131	393	20.303	0.3
369131	838	20.903	0.6
369132	398	20.304	3
369132	906	21.004	6
369132	1249	21.510141724027	4
369132	1371	21.716181443962	1
369132	1508	22.018414148685	2
369132	1688	22.622997473805	5
369133	398	20.304	0.39999997615814
369133	906	21.004	0.25
369133	1249	21.510141724027	0.78947368264198
369133	1371	21.716181443962	0.96000000089407
369133	1508	22.018414148685	0.93939393758774
369133	1688	22.622997473805	0.86842104792595
369134	398	20.304	0.3
369134	906	21.004	0.7
369134	1249	21.510141724027	0.5
369134	1371	21.716181443962	0.2
369134	1508	22.018414148685	0.3
369134	1688	22.622997473805	0.6
369135	403	20.305	3
369135	1114	21.305	9
369135	1247	21.50601181952	1
369135	1506	22.012638183687	4
369135	1659	22.521344802434	4
369136	403	20.305	0.39999997615814
369136	1114	21.305	0
369136	1247	21.50601181952	0.9473684206605
369136	1506	22.012638183687	0.87878787517548
369136	1659	22.521344802434	0.89189188927412
369137	403	20.305	0.3
369137	1114	21.305	1
369137	1247	21.50601181952	0.2
369137	1506	22.012638183687	0.5
369137	1659	22.521344802434	0.5
369138	33	20.006	0
369138	559	20.506	4
369138	717	20.714567923777	1
369138	1125	21.317407889778	5
369138	1443	21.827353877075	4
369139	33	20.006	1
369139	559	20.506	0.19999998807907
369139	717	20.714567923777	0.83333332836628
369139	1125	21.317407889778	0.5
369139	1443	21.827353877075	0.87096774578094
369140	33	20.006	0
369140	559	20.506	0.5
369140	717	20.714567923777	0.2
369140	1125	21.317407889778	0.6
369140	1443	21.827353877075	0.5
369141	290	20.207	2
369141	640	20.607	3
369141	995	21.125836622523	4
369142	290	20.207	0.59999999403954
369142	640	20.607	0.39999997615814
369142	995	21.125836622523	0.5
369143	290	20.207	0.2
369143	640	20.607	0.4
369143	995	21.125836622523	0.5
369144	43	20.008	0
369144	642	20.608	5
369144	1368	21.713558860118	10
369145	43	20.008	1
369145	642	20.608	0
369145	1368	21.713558860118	0.59999999403954
369146	43	20.008	0
369146	642	20.608	0.6
369146	1368	21.713558860118	1.1
369147	912	21.009	10
369147	1180	21.409	3
369147	1373	21.716448045304	2
369147	1691	22.624420222321	8
369147	1806	23.22481935284	5
369148	912	21.009	-0.25
369148	1180	21.409	0.76923076808453
369148	1373	21.716448045304	0.92000000178814
369148	1691	22.624420222321	0.78947368264198
369148	1806	23.22481935284	0.89583333581686
369149	912	21.009	1
369149	1180	21.409	0.4
369149	1373	21.716448045304	0.3
369149	1691	22.624420222321	0.9
369149	1806	23.22481935284	0.6
369150	53	20.01	0
369150	645	20.61	5
369151	53	20.01	1
369151	645	20.61	0
369152	53	20.01	0
369152	645	20.61	0.6
369153	298	20.211	2
369153	647	20.611	3
369153	1056	21.217495009544	5
369153	1380	21.720567556087	4
369154	298	20.211	0.59999999403954
369154	647	20.611	0.5
369154	1056	21.217495009544	0.44444441795349
369154	1380	21.720567556087	0.84000000357628
369155	298	20.211	0.2
369155	647	20.611	0.4
369155	1056	21.217495009544	0.6
369155	1380	21.720567556087	0.5
369156	219	20.112	1
369156	915	21.012	8
369156	1259	21.518519081084	4
369156	1385	21.724097780105	1
369156	1583	22.232674529586	4
369157	219	20.112	0.79999999701977
369157	915	21.012	0
369157	1259	21.518519081084	0.79999999701977
369157	1385	21.724097780105	0.96428571268916
369157	1583	22.232674529586	0.88571428507566
369158	219	20.112	0.1
369158	915	21.012	0.9
369158	1259	21.518519081084	0.5
369158	1385	21.724097780105	0.2
369158	1583	22.232674529586	0.5
369159	415	20.313	3
369159	776	20.813	4
369159	1195	21.421667603172	5
369159	1393	21.730288289591	2
369159	1555	22.13347888175	3
369159	1675	22.543122008576	3
369159	1771	22.948806224404	3
369159	1830	23.451442028576	4
369160	415	20.313	0.39999997615814
369160	776	20.813	0.33333331346512
369160	1195	21.421667603172	0.61538460850716
369160	1393	21.730288289591	0.92857142537832
369160	1555	22.13347888175	0.91176470369101
369160	1675	22.543122008576	0.92105263471603
369160	1771	22.948806224404	0.93181817978621
369160	1830	23.451442028576	0.92000000178814
369161	415	20.313	0.3
369161	776	20.813	0.5
369161	1195	21.421667603172	0.6
369161	1393	21.730288289591	0.3
369161	1555	22.13347888175	0.4
369161	1675	22.543122008576	0.4
369161	1771	22.948806224404	0.4
369161	1830	23.451442028576	0.5
369162	305	20.214	2
369162	918	21.014	7
369162	1121	21.314983280846	2
369163	305	20.214	0.59999999403954
369163	918	21.014	0.125
369163	1121	21.314983280846	0.77777777612209
369164	305	20.214	0.2
369164	918	21.014	0.8
369164	1121	21.314983280846	0.3
369165	310	20.215	2
369165	780	20.815	5
369165	984	21.117962657515	2
369165	1378	21.719981732924	5
369166	310	20.215	0.59999999403954
369166	780	20.815	0.16666668653488
369166	984	21.117962657515	0.75
369166	1378	21.719981732924	0.79999999701977
369167	310	20.215	0.2
369167	780	20.815	0.6
369167	984	21.117962657515	0.3
369167	1378	21.719981732924	0.6
369168	493	20.416	4
369168	1314	21.616	11
369168	1516	22.024869460122	3
369168	1585	22.233574916353	1
369168	1667	22.538561798497	2
369168	1819	23.343662789896	7
369168	1842	23.650078792058	2
369168	1871	24.159149387074	4
369169	493	20.416	0.19999998807907
369169	1314	21.616	0.52173912525177
369169	1516	22.024869460122	0.90909090638161
369169	1585	22.233574916353	0.97142857126892
369169	1667	22.538561798497	0.9473684206605
369169	1819	23.343662789896	0.85714285075665
369169	1842	23.650078792058	0.96078431233764
369169	1871	24.159149387074	0.92156862467527
369170	493	20.416	0.4
369170	1314	21.616	1.2
369170	1516	22.024869460122	0.4
369170	1585	22.233574916353	0.2
369170	1667	22.538561798497	0.3
369170	1819	23.343662789896	0.8
369170	1842	23.650078792058	0.3
369170	1871	24.159149387074	0.5
369171	423	20.317	3
369171	1431	21.817	14
369172	423	20.317	0.39999997615814
369172	1431	21.817	0.53333333134651
369173	423	20.317	0.3
369173	1431	21.817	1.5
369174	317	20.218	2
369174	1476	21.926713207435	16
369174	1580	22.22913767845	2
369174	1740	22.834340582674	5
369174	1808	23.238161674607	3
369174	1850	23.841552666928	5
369174	1875	24.241701072661	3
369175	317	20.218	0.59999999403954
369175	1476	21.926713207435	0.5
369175	1580	22.22913767845	0.94285714253783
369175	1740	22.834340582674	0.88372092694044
369175	1808	23.238161674607	0.93877550959587
369175	1850	23.841552666928	0.90196078270674
369175	1875	24.241701072661	0.94230769202113
369176	317	20.218	0.2
369176	1476	21.926713207435	1.7
369176	1580	22.22913767845	0.3
369176	1740	22.834340582674	0.6
369176	1808	23.238161674607	0.4
369176	1850	23.841552666928	0.6
369176	1875	24.241701072661	0.4
369177	576	20.519	5
369177	1434	21.819	12
369177	1575	22.222857295112	3
369177	1737	22.823018053018	5
369178	576	20.519	0
369178	1434	21.819	0.61290323734283
369178	1575	22.222857295112	0.9142857119441
369178	1737	22.823018053018	0.88095238059759
369179	576	20.519	0.5
369179	1434	21.819	1.3
369179	1575	22.222857295112	0.4
369179	1737	22.823018053018	0.6
369180	500	20.42	4
369180	1192	21.42	9
369180	1445	21.829031777216	3
369180	1525	22.035711790178	1
369180	1594	22.23890277586	1
369180	1744	22.840767905184	5
369180	1799	23.148026050131	2
369181	500	20.42	0.19999998807907
369181	1192	21.42	0.30769228935242
369181	1445	21.829031777216	0.90625
369181	1525	22.035711790178	0.96969696879387
369181	1594	22.23890277586	0.97222222201526
369181	1744	22.840767905184	0.88372092694044
369181	1799	23.148026050131	0.95652173832059
369182	500	20.42	0.4
369182	1192	21.42	1
369182	1445	21.829031777216	0.4
369182	1525	22.035711790178	0.2
369182	1594	22.23890277586	0.2
369182	1744	22.840767905184	0.6
369182	1799	23.148026050131	0.3
369183	90	20.021	0
369183	1403	21.73731589213	16
369183	1591	22.238266496579	4
369183	1701	22.642803772834	3
369184	90	20.021	1
369184	1403	21.73731589213	0.42857140302658
369184	1591	22.238266496579	0.88888888806105
369184	1701	22.642803772834	0.92307692021132
369185	90	20.021	0
369185	1403	21.73731589213	1.7
369185	1591	22.238266496579	0.5
369185	1701	22.642803772834	0.4
369186	324	20.222	2
369186	1197	21.422	11
369187	324	20.222	0.59999999403954
369187	1197	21.422	0.15384614467621
369188	324	20.222	0.2
369188	1197	21.422	1.2
369189	331	20.223	2
369189	665	20.623	3
369189	1074	21.231023366462	5
369189	1283	21.538534578845	2
369190	331	20.223	0.59999999403954
369190	665	20.623	0.5
369190	1074	21.231023366462	0.44444441795349
369190	1283	21.538534578845	0.89999999850988
369191	331	20.223	0.2
369191	665	20.623	0.4
369191	1074	21.231023366462	0.6
369191	1283	21.538534578845	0.3
369192	234	20.124	1
369192	858	20.924	7
369192	1211	21.43054752643	4
369193	234	20.124	0.79999999701977
369193	858	20.924	0
369193	1211	21.43054752643	0.75
369194	234	20.124	0.1
369194	858	20.924	0.8
369194	1211	21.43054752643	0.5
369195	510	20.425	4
369195	1200	21.425	9
369196	510	20.425	0.19999998807907
369196	1200	21.425	0.35714286565781
369197	510	20.425	0.4
369197	1200	21.425	1
369198	240	20.126	1
369198	997	21.126	9
369198	1344	21.644192405565	4
369199	240	20.126	0.79999999701977
369199	997	21.126	-0.125
369199	1344	21.644192405565	0.82608695328236
369200	240	20.126	0.1
369200	997	21.126	1
369200	1344	21.644192405565	0.5
369201	439	20.327	3
369201	1204	21.427	10
369202	439	20.327	0.39999997615814
369202	1204	21.427	0.28571426868439
369203	439	20.327	0.3
369203	1204	21.427	1.1
369204	115	20.028	0
369204	1004	21.128	10
369204	1399	21.733917656305	5
369205	115	20.028	1
369205	1004	21.128	-0.25
369205	1399	21.733917656305	0.8214285671711
369206	115	20.028	0
369206	1004	21.128	1.1
369206	1399	21.733917656305	0.6
369207	122	20.029	0
369207	675	20.629	5
369207	1016	21.135739359656	4
369207	1225	21.441937870414	2
369208	122	20.029	1
369208	675	20.629	0.16666668653488
369208	1016	21.135739359656	0.55555555224419
369208	1225	21.441937870414	0.88888888806105
369209	122	20.029	0
369209	675	20.629	0.6
369209	1016	21.135739359656	0.5
369209	1225	21.441937870414	0.3
369210	129	20.03	0
369210	867	20.93	8
369210	1010	21.133405964383	1
369210	1280	21.537061637131	3
369211	129	20.03	1
369211	867	20.93	-0.14285719394684
369211	1010	21.133405964383	0.88888888806105
369211	1280	21.537061637131	0.84999999403954
369212	129	20.03	0
369212	867	20.93	0.9
369212	1010	21.133405964383	0.2
369212	1280	21.537061637131	0.4
369213	345	20.231	2
369213	803	20.831	5
369213	1081	21.237102295329	3
369213	1228	21.442806036436	1
369213	1347	21.646145457568	1
369213	1632	22.353041747818	6
369214	345	20.231	0.59999999403954
369214	803	20.831	0.16666668653488
369214	1081	21.237102295329	0.66666665673256
369214	1228	21.442806036436	0.94444444403052
369214	1347	21.646145457568	0.95652173832059
369214	1632	22.353041747818	0.83333332836628
369215	345	20.231	0.2
369215	803	20.831	0.6
369215	1081	21.237102295329	0.4
369215	1228	21.442806036436	0.2
369215	1347	21.646145457568	0.2
369215	1632	22.353041747818	0.7
369216	596	20.532	5
369216	1273	21.532	9
369216	1485	21.935501396307	3
369216	1748	22.842240676135	8
369216	1826	23.442751939124	5
369217	596	20.532	0
369217	1273	21.532	0.55000001192093
369217	1485	21.935501396307	0.90625
369217	1748	22.842240676135	0.81395348906517
369217	1826	23.442751939124	0.89795918017626
369218	596	20.532	0.5
369218	1273	21.532	1
369218	1485	21.935501396307	0.4
369218	1748	22.842240676135	0.9
369218	1826	23.442751939124	0.6
369219	143	20.033	0
369219	872	20.933	8
369219	1332	21.634017460483	6
369219	1490	21.940663267992	2
369219	1763	22.941888271193	9
369220	143	20.033	1
369220	872	20.933	-0.14285719394684
369220	1332	21.634017460483	0.73913043737411
369220	1490	21.940663267992	0.9375
369220	1763	22.941888271193	0.79069767892361
369221	143	20.033	0
369221	872	20.933	0.9
369221	1332	21.634017460483	0.7
369221	1490	21.940663267992	0.3
369221	1763	22.941888271193	1
369222	150	20.034	0
369222	522	20.434	3
369222	884	20.939369980838	4
369222	1158	21.347327237905	3
369223	150	20.034	1
369223	522	20.434	0.39999997615814
369223	884	20.939369980838	0.42857140302658
369223	1158	21.347327237905	0.69999998807907
369224	150	20.034	0
369224	522	20.434	0.4
369224	884	20.939369980838	0.5
369224	1158	21.347327237905	0.4
369225	353	20.235	2
369225	1483	21.935	16
369225	1589	22.236789810981	2
369225	1718	22.740102895838	4
369225	1835	23.542158443948	7
369225	1880	24.346746654726	7
369225	1890	24.85412959203	4
369226	353	20.235	0.59999999403954
369226	1483	21.935	0.5
369226	1589	22.236789810981	0.94444444403052
369226	1718	22.740102895838	0.89999999850988
369226	1835	23.542158443948	0.86274509131908
369226	1880	24.346746654726	0.86792452633381
369226	1890	24.85412959203	0.92592592537403
369227	353	20.235	0.2
369227	1483	21.935	1.7
369227	1589	22.236789810981	0.3
369227	1718	22.740102895838	0.5
369227	1835	23.542158443948	0.8
369227	1880	24.346746654726	0.8
369227	1890	24.85412959203	0.5
369228	452	20.336	3
369228	1018	21.136	7
369228	1340	21.639163856195	4
369228	1567	22.148389428756	4
369229	452	20.336	0.39999997615814
369229	1018	21.136	0.22222220897675
369229	1340	21.639163856195	0.82608695328236
369229	1567	22.148389428756	0.8823529407382
369230	452	20.336	0.3
369230	1018	21.136	0.8
369230	1340	21.639163856195	0.5
369230	1567	22.148389428756	0.5
369231	163	20.037	0
369231	1020	21.137	10
369231	1222	21.440292791326	2
369232	163	20.037	1
369232	1020	21.137	-0.11111116409302
369232	1222	21.440292791326	0.8823529407382
369233	163	20.037	0
369233	1020	21.137	1.1
369233	1222	21.440292791326	0.3
369234	606	20.538	5
369234	1084	21.238	6
369234	1232	21.445586246449	1
369234	1352	21.652913921332	1
369234	1535	22.053521317558	3
369235	606	20.538	0
369235	1084	21.238	0.33333331346512
369235	1232	21.445586246449	0.94444444403052
369235	1352	21.652913921332	0.95833333209157
369235	1535	22.053521317558	0.90909090638161
369236	606	20.538	0.5
369236	1084	21.238	0.7
369236	1232	21.445586246449	0.2
369236	1352	21.652913921332	0.2
369236	1535	22.053521317558	0.4
369237	691	20.639	6
369237	1338	21.639	9
369237	1603	22.247457982221	5
369237	1725	22.747674450809	4
369238	691	20.639	0
369238	1338	21.639	0.60869565606117
369238	1603	22.247457982221	0.86111110448837
369238	1725	22.747674450809	0.89999999850988
369239	691	20.639	0.6
369239	1338	21.639	1
369239	1603	22.247457982221	0.6
369239	1725	22.747674450809	0.5
369240	820	20.84	8
369240	953	21.04	1
369240	1097	21.248900443518	1
369240	1302	21.554897863254	2
369240	1423	21.763503192122	1
369240	1504	21.976809391409	1
369241	820	20.84	-0.33333337306976
369241	953	21.04	0.875
369241	1097	21.248900443518	0.88888888806105
369241	1302	21.554897863254	0.91304347664118
369241	1423	21.763503192122	0.9666666649282
369241	1504	21.976809391409	0.96875
369242	820	20.84	0.8
369242	953	21.04	0.2
369242	1097	21.248900443518	0.2
369242	1302	21.554897863254	0.3
369242	1423	21.763503192122	0.2
369242	1504	21.976809391409	0.2
369243	364	20.241	2
369243	751	20.741	4
369243	1173	21.361711058973	5
369244	364	20.241	0.59999999403954
369244	751	20.741	0.33333331346512
369244	1173	21.361711058973	0.58333334326744
369245	364	20.241	0.2
369245	751	20.741	0.5
369245	1173	21.361711058973	0.6
369246	536	20.442	4
369246	1288	21.542	10
369246	1407	21.743143637304	1
369247	536	20.442	0.19999998807907
369247	1288	21.542	0.52380952239037
369247	1407	21.743143637304	0.96428571268916
369248	536	20.442	0.4
369248	1288	21.542	1.1
369248	1407	21.743143637304	0.2
369249	370	20.243	2
369249	613	20.543	2
369249	961	21.048964039608	4
369249	1164	21.354204846646	2
369250	370	20.243	0.59999999403954
369250	613	20.543	0.59999999403954
369250	961	21.048964039608	0.5
369250	1164	21.354204846646	0.81818181276321
369251	370	20.243	0.2
369251	613	20.543	0.3
369251	961	21.048964039608	0.5
369251	1164	21.354204846646	0.3
369252	263	20.144	1
369252	891	20.946358246725	7
369253	263	20.144	0.79999999701977
369253	891	20.946358246725	0
369254	263	20.144	0.1
369254	891	20.946358246725	0.8
369255	618	20.545	5
369255	888	20.945	3
369255	1296	21.55342387493	5
369256	618	20.545	0
369256	888	20.945	0.5714285671711
369256	1296	21.55342387493	0.77272726595402
369257	618	20.545	0.5
369257	888	20.945	0.4
369257	1296	21.55342387493	0.6
369258	376	20.246	2
369258	621	20.546	2
369258	1040	21.154652405466	5
369258	1305	21.556397137107	3
369258	1500	21.957212970017	3
369258	1709	22.664221683403	6
369258	1803	23.174087482332	4
369259	376	20.246	0.59999999403954
369259	621	20.546	0.59999999403954
369259	1040	21.154652405466	0.44444441795349
369259	1305	21.556397137107	0.86956521868706
369259	1500	21.957212970017	0.90625
369259	1709	22.664221683403	0.84999999403954
369259	1803	23.174087482332	0.91489361971617
369260	376	20.246	0.2
369260	621	20.546	0.3
369260	1040	21.154652405466	0.6
369260	1305	21.556397137107	0.4
369260	1500	21.957212970017	0.4
369260	1709	22.664221683403	0.7
369260	1803	23.174087482332	0.5
369261	469	20.347	3
369261	826	20.847	4
369261	1356	21.653726985198	7
369261	1461	21.855644159381	1
369261	1636	22.364231425464	4
369261	1732	22.768461157829	3
369262	469	20.347	0.39999997615814
369262	826	20.847	0.33333331346512
369262	1356	21.653726985198	0.70833334326744
369262	1461	21.855644159381	0.96875
369262	1636	22.364231425464	0.89189188927412
369262	1732	22.768461157829	0.92682927101851
369263	469	20.347	0.3
369263	826	20.847	0.5
369263	1356	21.653726985198	0.8
369263	1461	21.855644159381	0.2
369263	1636	22.364231425464	0.5
369263	1732	22.768461157829	0.4
369264	547	20.448	4
369264	958	21.048	5
369264	1358	21.653944671244	5
369265	547	20.448	0.19999998807907
369265	958	21.048	0.375
369265	1358	21.653944671244	0.79166667163372
369266	547	20.448	0.4
369266	958	21.048	0.6
369266	1358	21.653944671244	0.6
369267	273	20.149	1
369267	1099	21.249	10
369267	1537	22.056187658369	7
369267	1609	22.263381724644	1
369267	1756	22.868733138635	5
369267	1855	23.877723931465	9
369267	1866	24.087588449049	1
369267	1883	24.395763076591	2
369268	273	20.149	0.79999999701977
369268	1099	21.249	-0.11111116409302
369268	1537	22.056187658369	0.78787878155708
369268	1609	22.263381724644	0.97222222201526
369268	1756	22.868733138635	0.88372092694044
369268	1855	23.877723931465	0.82352940738201
369268	1866	24.087588449049	0.98039215616882
369268	1883	24.395763076591	0.96226415038109
369269	273	20.149	0.1
369269	1099	21.249	1.1
369269	1537	22.056187658369	0.8
369269	1609	22.263381724644	0.2
369269	1756	22.868733138635	0.6
369269	1855	23.877723931465	1
369269	1866	24.087588449049	0.2
369269	1883	24.395763076591	0.3
369270	278	20.15	1
369270	761	20.75	5
369270	1300	21.554875621187	7
369270	1607	22.256713694891	6
369270	1729	22.764218355955	4
369270	1774	22.967999565265	1
369271	278	20.15	0.79999999701977
369271	761	20.75	0.16666668653488
369271	1300	21.554875621187	0.69565218687057
369271	1607	22.256713694891	0.83333332836628
369271	1729	22.764218355955	0.90243902802467
369271	1774	22.967999565265	0.9772727265954
369272	278	20.15	0.1
369272	761	20.75	0.6
369272	1300	21.554875621187	0.8
369272	1607	22.256713694891	0.7
369272	1729	22.764218355955	0.5
369272	1774	22.967999565265	0.2
372123	11	20	0
372123	12	20.001	0
372123	15	20.002	1
372123	18	20.003	2
372123	21	20.004	3
372123	24	20.005	4
372123	27	20.006	5
372123	34	20.007	6
372123	37	20.008	7
372123	44	20.009	8