version 2
run Stability2-166-20130526-00:52:00-26640
attr configname Stability2
attr datetime 20130526-00:52:00
attr experiment Stability2
attr inifile omnetpp.ini
attr iterationvars $0=100
attr iterationvars2 "$0=100, $repetition=16"
attr measurement $0=100
attr network Network
attr processid 26640
attr repetition 16
attr replication #16
attr resultdir results
attr runnumber 166
attr seedset 166

vector 501166  Network.churner  inGoingSizeSig:vector  ETV
vector 498184  Network.dyn_peer[6]  lookupHopsSig:vector  ETV
vector 498185  Network.dyn_peer[6]  lookupStabilitySig:vector  ETV
vector 498186  Network.dyn_peer[6]  lookupTimeSig:vector  ETV
vector 498187  Network.dyn_peer[7]  lookupHopsSig:vector  ETV
vector 498188  Network.dyn_peer[7]  lookupStabilitySig:vector  ETV
vector 498189  Network.dyn_peer[7]  lookupTimeSig:vector  ETV
vector 498253  Network.dyn_peer[29]  lookupHopsSig:vector  ETV
vector 498254  Network.dyn_peer[29]  lookupStabilitySig:vector  ETV
vector 498255  Network.dyn_peer[29]  lookupTimeSig:vector  ETV
vector 498271  Network.dyn_peer[35]  lookupHopsSig:vector  ETV
vector 498272  Network.dyn_peer[35]  lookupStabilitySig:vector  ETV
vector 498273  Network.dyn_peer[35]  lookupTimeSig:vector  ETV
vector 498283  Network.dyn_peer[39]  lookupHopsSig:vector  ETV
vector 498284  Network.dyn_peer[39]  lookupStabilitySig:vector  ETV
vector 498285  Network.dyn_peer[39]  lookupTimeSig:vector  ETV
vector 498292  Network.dyn_peer[42]  lookupHopsSig:vector  ETV
vector 498293  Network.dyn_peer[42]  lookupStabilitySig:vector  ETV
vector 498294  Network.dyn_peer[42]  lookupTimeSig:vector  ETV
vector 498319  Network.dyn_peer[51]  lookupHopsSig:vector  ETV
vector 498320  Network.dyn_peer[51]  lookupStabilitySig:vector  ETV
vector 498321  Network.dyn_peer[51]  lookupTimeSig:vector  ETV
vector 498343  Network.dyn_peer[59]  lookupHopsSig:vector  ETV
vector 498344  Network.dyn_peer[59]  lookupStabilitySig:vector  ETV
vector 498345  Network.dyn_peer[59]  lookupTimeSig:vector  ETV
vector 498349  Network.dyn_peer[61]  lookupHopsSig:vector  ETV
vector 498350  Network.dyn_peer[61]  lookupStabilitySig:vector  ETV
vector 498351  Network.dyn_peer[61]  lookupTimeSig:vector  ETV
vector 498367  Network.dyn_peer[67]  lookupHopsSig:vector  ETV
vector 498368  Network.dyn_peer[67]  lookupStabilitySig:vector  ETV
vector 498369  Network.dyn_peer[67]  lookupTimeSig:vector  ETV
vector 498370  Network.dyn_peer[68]  lookupHopsSig:vector  ETV
vector 498371  Network.dyn_peer[68]  lookupStabilitySig:vector  ETV
vector 498372  Network.dyn_peer[68]  lookupTimeSig:vector  ETV
vector 498373  Network.dyn_peer[69]  lookupHopsSig:vector  ETV
vector 498374  Network.dyn_peer[69]  lookupStabilitySig:vector  ETV
vector 498375  Network.dyn_peer[69]  lookupTimeSig:vector  ETV
vector 498397  Network.dyn_peer[77]  lookupHopsSig:vector  ETV
vector 498398  Network.dyn_peer[77]  lookupStabilitySig:vector  ETV
vector 498399  Network.dyn_peer[77]  lookupTimeSig:vector  ETV
vector 498439  Network.dyn_peer[91]  lookupHopsSig:vector  ETV
vector 498440  Network.dyn_peer[91]  lookupStabilitySig:vector  ETV
vector 498441  Network.dyn_peer[91]  lookupTimeSig:vector  ETV
vector 498172  Network.dyn_peer[2]  lookupHopsSig:vector  ETV
vector 498173  Network.dyn_peer[2]  lookupStabilitySig:vector  ETV
vector 498174  Network.dyn_peer[2]  lookupTimeSig:vector  ETV
vector 498178  Network.dyn_peer[4]  lookupHopsSig:vector  ETV
vector 498179  Network.dyn_peer[4]  lookupStabilitySig:vector  ETV
vector 498180  Network.dyn_peer[4]  lookupTimeSig:vector  ETV
vector 498214  Network.dyn_peer[16]  lookupHopsSig:vector  ETV
vector 498215  Network.dyn_peer[16]  lookupStabilitySig:vector  ETV
vector 498216  Network.dyn_peer[16]  lookupTimeSig:vector  ETV
vector 498277  Network.dyn_peer[37]  lookupHopsSig:vector  ETV
vector 498278  Network.dyn_peer[37]  lookupStabilitySig:vector  ETV
vector 498279  Network.dyn_peer[37]  lookupTimeSig:vector  ETV
vector 498295  Network.dyn_peer[43]  lookupHopsSig:vector  ETV
vector 498296  Network.dyn_peer[43]  lookupStabilitySig:vector  ETV
vector 498297  Network.dyn_peer[43]  lookupTimeSig:vector  ETV
vector 498316  Network.dyn_peer[50]  lookupHopsSig:vector  ETV
vector 498317  Network.dyn_peer[50]  lookupStabilitySig:vector  ETV
vector 498318  Network.dyn_peer[50]  lookupTimeSig:vector  ETV
vector 498331  Network.dyn_peer[55]  lookupHopsSig:vector  ETV
vector 498332  Network.dyn_peer[55]  lookupStabilitySig:vector  ETV
vector 498333  Network.dyn_peer[55]  lookupTimeSig:vector  ETV
vector 498394  Network.dyn_peer[76]  lookupHopsSig:vector  ETV
vector 498395  Network.dyn_peer[76]  lookupStabilitySig:vector  ETV
vector 498396  Network.dyn_peer[76]  lookupTimeSig:vector  ETV
vector 498406  Network.dyn_peer[80]  lookupHopsSig:vector  ETV
vector 498407  Network.dyn_peer[80]  lookupStabilitySig:vector  ETV
vector 498408  Network.dyn_peer[80]  lookupTimeSig:vector  ETV
vector 498421  Network.dyn_peer[85]  lookupHopsSig:vector  ETV
vector 498422  Network.dyn_peer[85]  lookupStabilitySig:vector  ETV
vector 498423  Network.dyn_peer[85]  lookupTimeSig:vector  ETV
vector 498169  Network.dyn_peer[1]  lookupHopsSig:vector  ETV
vector 498170  Network.dyn_peer[1]  lookupStabilitySig:vector  ETV
vector 498171  Network.dyn_peer[1]  lookupTimeSig:vector  ETV
vector 498193  Network.dyn_peer[9]  lookupHopsSig:vector  ETV
vector 498194  Network.dyn_peer[9]  lookupStabilitySig:vector  ETV
vector 498195  Network.dyn_peer[9]  lookupTimeSig:vector  ETV
vector 498196  Network.dyn_peer[10]  lookupHopsSig:vector  ETV
vector 498197  Network.dyn_peer[10]  lookupStabilitySig:vector  ETV
vector 498198  Network.dyn_peer[10]  lookupTimeSig:vector  ETV
vector 498199  Network.dyn_peer[11]  lookupHopsSig:vector  ETV
vector 498200  Network.dyn_peer[11]  lookupStabilitySig:vector  ETV
vector 498201  Network.dyn_peer[11]  lookupTimeSig:vector  ETV
vector 498211  Network.dyn_peer[15]  lookupHopsSig:vector  ETV
vector 498212  Network.dyn_peer[15]  lookupStabilitySig:vector  ETV
vector 498213  Network.dyn_peer[15]  lookupTimeSig:vector  ETV
vector 498244  Network.dyn_peer[26]  lookupHopsSig:vector  ETV
vector 498245  Network.dyn_peer[26]  lookupStabilitySig:vector  ETV
vector 498246  Network.dyn_peer[26]  lookupTimeSig:vector  ETV
vector 498346  Network.dyn_peer[60]  lookupHopsSig:vector  ETV
vector 498347  Network.dyn_peer[60]  lookupStabilitySig:vector  ETV
vector 498348  Network.dyn_peer[60]  lookupTimeSig:vector  ETV
vector 498400  Network.dyn_peer[78]  lookupHopsSig:vector  ETV
vector 498401  Network.dyn_peer[78]  lookupStabilitySig:vector  ETV
vector 498402  Network.dyn_peer[78]  lookupTimeSig:vector  ETV
vector 498412  Network.dyn_peer[82]  lookupHopsSig:vector  ETV
vector 498413  Network.dyn_peer[82]  lookupStabilitySig:vector  ETV
vector 498414  Network.dyn_peer[82]  lookupTimeSig:vector  ETV
vector 498424  Network.dyn_peer[86]  lookupHopsSig:vector  ETV
vector 498425  Network.dyn_peer[86]  lookupStabilitySig:vector  ETV
vector 498426  Network.dyn_peer[86]  lookupTimeSig:vector  ETV
vector 498430  Network.dyn_peer[88]  lookupHopsSig:vector  ETV
vector 498431  Network.dyn_peer[88]  lookupStabilitySig:vector  ETV
vector 498432  Network.dyn_peer[88]  lookupTimeSig:vector  ETV
vector 498166  Network.dyn_peer[0]  lookupHopsSig:vector  ETV
vector 498167  Network.dyn_peer[0]  lookupStabilitySig:vector  ETV
vector 498168  Network.dyn_peer[0]  lookupTimeSig:vector  ETV
vector 498181  Network.dyn_peer[5]  lookupHopsSig:vector  ETV
vector 498182  Network.dyn_peer[5]  lookupStabilitySig:vector  ETV
vector 498183  Network.dyn_peer[5]  lookupTimeSig:vector  ETV
vector 498202  Network.dyn_peer[12]  lookupHopsSig:vector  ETV
vector 498203  Network.dyn_peer[12]  lookupStabilitySig:vector  ETV
vector 498204  Network.dyn_peer[12]  lookupTimeSig:vector  ETV
vector 498217  Network.dyn_peer[17]  lookupHopsSig:vector  ETV
vector 498218  Network.dyn_peer[17]  lookupStabilitySig:vector  ETV
vector 498219  Network.dyn_peer[17]  lookupTimeSig:vector  ETV
vector 498226  Network.dyn_peer[20]  lookupHopsSig:vector  ETV
vector 498227  Network.dyn_peer[20]  lookupStabilitySig:vector  ETV
vector 498228  Network.dyn_peer[20]  lookupTimeSig:vector  ETV
vector 498391  Network.dyn_peer[75]  lookupHopsSig:vector  ETV
vector 498392  Network.dyn_peer[75]  lookupStabilitySig:vector  ETV
vector 498393  Network.dyn_peer[75]  lookupTimeSig:vector  ETV
vector 498451  Network.dyn_peer[95]  lookupHopsSig:vector  ETV
vector 498452  Network.dyn_peer[95]  lookupStabilitySig:vector  ETV
vector 498453  Network.dyn_peer[95]  lookupTimeSig:vector  ETV
vector 498460  Network.dyn_peer[98]  lookupHopsSig:vector  ETV
vector 498461  Network.dyn_peer[98]  lookupStabilitySig:vector  ETV
vector 498462  Network.dyn_peer[98]  lookupTimeSig:vector  ETV
vector 498175  Network.dyn_peer[3]  lookupHopsSig:vector  ETV
vector 498176  Network.dyn_peer[3]  lookupStabilitySig:vector  ETV
vector 498177  Network.dyn_peer[3]  lookupTimeSig:vector  ETV
vector 498208  Network.dyn_peer[14]  lookupHopsSig:vector  ETV
vector 498209  Network.dyn_peer[14]  lookupStabilitySig:vector  ETV
vector 498210  Network.dyn_peer[14]  lookupTimeSig:vector  ETV
vector 498241  Network.dyn_peer[25]  lookupHopsSig:vector  ETV
vector 498242  Network.dyn_peer[25]  lookupStabilitySig:vector  ETV
vector 498243  Network.dyn_peer[25]  lookupTimeSig:vector  ETV
vector 498259  Network.dyn_peer[31]  lookupHopsSig:vector  ETV
vector 498260  Network.dyn_peer[31]  lookupStabilitySig:vector  ETV
vector 498261  Network.dyn_peer[31]  lookupTimeSig:vector  ETV
vector 498334  Network.dyn_peer[56]  lookupHopsSig:vector  ETV
vector 498335  Network.dyn_peer[56]  lookupStabilitySig:vector  ETV
vector 498336  Network.dyn_peer[56]  lookupTimeSig:vector  ETV
vector 498337  Network.dyn_peer[57]  lookupHopsSig:vector  ETV
vector 498338  Network.dyn_peer[57]  lookupStabilitySig:vector  ETV
vector 498339  Network.dyn_peer[57]  lookupTimeSig:vector  ETV
vector 498190  Network.dyn_peer[8]  lookupHopsSig:vector  ETV
vector 498191  Network.dyn_peer[8]  lookupStabilitySig:vector  ETV
vector 498192  Network.dyn_peer[8]  lookupTimeSig:vector  ETV
vector 498205  Network.dyn_peer[13]  lookupHopsSig:vector  ETV
vector 498206  Network.dyn_peer[13]  lookupStabilitySig:vector  ETV
vector 498207  Network.dyn_peer[13]  lookupTimeSig:vector  ETV
vector 498223  Network.dyn_peer[19]  lookupHopsSig:vector  ETV
vector 498224  Network.dyn_peer[19]  lookupStabilitySig:vector  ETV
vector 498225  Network.dyn_peer[19]  lookupTimeSig:vector  ETV
vector 498268  Network.dyn_peer[34]  lookupHopsSig:vector  ETV
vector 498269  Network.dyn_peer[34]  lookupStabilitySig:vector  ETV
vector 498270  Network.dyn_peer[34]  lookupTimeSig:vector  ETV
vector 498274  Network.dyn_peer[36]  lookupHopsSig:vector  ETV
vector 498275  Network.dyn_peer[36]  lookupStabilitySig:vector  ETV
vector 498276  Network.dyn_peer[36]  lookupTimeSig:vector  ETV
vector 498220  Network.dyn_peer[18]  lookupHopsSig:vector  ETV
vector 498221  Network.dyn_peer[18]  lookupStabilitySig:vector  ETV
vector 498222  Network.dyn_peer[18]  lookupTimeSig:vector  ETV
vector 498235  Network.dyn_peer[23]  lookupHopsSig:vector  ETV
vector 498236  Network.dyn_peer[23]  lookupStabilitySig:vector  ETV
vector 498237  Network.dyn_peer[23]  lookupTimeSig:vector  ETV
vector 498250  Network.dyn_peer[28]  lookupHopsSig:vector  ETV
vector 498251  Network.dyn_peer[28]  lookupStabilitySig:vector  ETV
vector 498252  Network.dyn_peer[28]  lookupTimeSig:vector  ETV
vector 498256  Network.dyn_peer[30]  lookupHopsSig:vector  ETV
vector 498257  Network.dyn_peer[30]  lookupStabilitySig:vector  ETV
vector 498258  Network.dyn_peer[30]  lookupTimeSig:vector  ETV
vector 498280  Network.dyn_peer[38]  lookupHopsSig:vector  ETV
vector 498281  Network.dyn_peer[38]  lookupStabilitySig:vector  ETV
vector 498282  Network.dyn_peer[38]  lookupTimeSig:vector  ETV
vector 498382  Network.dyn_peer[72]  lookupHopsSig:vector  ETV
vector 498383  Network.dyn_peer[72]  lookupStabilitySig:vector  ETV
vector 498384  Network.dyn_peer[72]  lookupTimeSig:vector  ETV
vector 498445  Network.dyn_peer[93]  lookupHopsSig:vector  ETV
vector 498446  Network.dyn_peer[93]  lookupStabilitySig:vector  ETV
vector 498447  Network.dyn_peer[93]  lookupTimeSig:vector  ETV
vector 498289  Network.dyn_peer[41]  lookupHopsSig:vector  ETV
vector 498290  Network.dyn_peer[41]  lookupStabilitySig:vector  ETV
vector 498291  Network.dyn_peer[41]  lookupTimeSig:vector  ETV
vector 498238  Network.dyn_peer[24]  lookupHopsSig:vector  ETV
vector 498239  Network.dyn_peer[24]  lookupStabilitySig:vector  ETV
vector 498240  Network.dyn_peer[24]  lookupTimeSig:vector  ETV
vector 498298  Network.dyn_peer[44]  lookupHopsSig:vector  ETV
vector 498299  Network.dyn_peer[44]  lookupStabilitySig:vector  ETV
vector 498300  Network.dyn_peer[44]  lookupTimeSig:vector  ETV
vector 498310  Network.dyn_peer[48]  lookupHopsSig:vector  ETV
vector 498311  Network.dyn_peer[48]  lookupStabilitySig:vector  ETV
vector 498312  Network.dyn_peer[48]  lookupTimeSig:vector  ETV
vector 498325  Network.dyn_peer[53]  lookupHopsSig:vector  ETV
vector 498326  Network.dyn_peer[53]  lookupStabilitySig:vector  ETV
vector 498327  Network.dyn_peer[53]  lookupTimeSig:vector  ETV
vector 498403  Network.dyn_peer[79]  lookupHopsSig:vector  ETV
vector 498404  Network.dyn_peer[79]  lookupStabilitySig:vector  ETV
vector 498405  Network.dyn_peer[79]  lookupTimeSig:vector  ETV
vector 498247  Network.dyn_peer[27]  lookupHopsSig:vector  ETV
vector 498248  Network.dyn_peer[27]  lookupStabilitySig:vector  ETV
vector 498249  Network.dyn_peer[27]  lookupTimeSig:vector  ETV
vector 498286  Network.dyn_peer[40]  lookupHopsSig:vector  ETV
vector 498287  Network.dyn_peer[40]  lookupStabilitySig:vector  ETV
vector 498288  Network.dyn_peer[40]  lookupTimeSig:vector  ETV
vector 498304  Network.dyn_peer[46]  lookupHopsSig:vector  ETV
vector 498305  Network.dyn_peer[46]  lookupStabilitySig:vector  ETV
vector 498306  Network.dyn_peer[46]  lookupTimeSig:vector  ETV
vector 498328  Network.dyn_peer[54]  lookupHopsSig:vector  ETV
vector 498329  Network.dyn_peer[54]  lookupStabilitySig:vector  ETV
vector 498330  Network.dyn_peer[54]  lookupTimeSig:vector  ETV
vector 498358  Network.dyn_peer[64]  lookupHopsSig:vector  ETV
vector 498359  Network.dyn_peer[64]  lookupStabilitySig:vector  ETV
vector 498360  Network.dyn_peer[64]  lookupTimeSig:vector  ETV
vector 498454  Network.dyn_peer[96]  lookupHopsSig:vector  ETV
vector 498455  Network.dyn_peer[96]  lookupStabilitySig:vector  ETV
vector 498456  Network.dyn_peer[96]  lookupTimeSig:vector  ETV
vector 498313  Network.dyn_peer[49]  lookupHopsSig:vector  ETV
vector 498314  Network.dyn_peer[49]  lookupStabilitySig:vector  ETV
vector 498315  Network.dyn_peer[49]  lookupTimeSig:vector  ETV
vector 498385  Network.dyn_peer[73]  lookupHopsSig:vector  ETV
vector 498386  Network.dyn_peer[73]  lookupStabilitySig:vector  ETV
vector 498387  Network.dyn_peer[73]  lookupTimeSig:vector  ETV
vector 498463  Network.dyn_peer[99]  lookupHopsSig:vector  ETV
vector 498464  Network.dyn_peer[99]  lookupStabilitySig:vector  ETV
vector 498465  Network.dyn_peer[99]  lookupTimeSig:vector  ETV
vector 498229  Network.dyn_peer[21]  lookupHopsSig:vector  ETV
vector 498230  Network.dyn_peer[21]  lookupStabilitySig:vector  ETV
vector 498231  Network.dyn_peer[21]  lookupTimeSig:vector  ETV
vector 498322  Network.dyn_peer[52]  lookupHopsSig:vector  ETV
vector 498323  Network.dyn_peer[52]  lookupStabilitySig:vector  ETV
vector 498324  Network.dyn_peer[52]  lookupTimeSig:vector  ETV
vector 498364  Network.dyn_peer[66]  lookupHopsSig:vector  ETV
vector 498365  Network.dyn_peer[66]  lookupStabilitySig:vector  ETV
vector 498366  Network.dyn_peer[66]  lookupTimeSig:vector  ETV
vector 498448  Network.dyn_peer[94]  lookupHopsSig:vector  ETV
vector 498449  Network.dyn_peer[94]  lookupStabilitySig:vector  ETV
vector 498450  Network.dyn_peer[94]  lookupTimeSig:vector  ETV
vector 498376  Network.dyn_peer[70]  lookupHopsSig:vector  ETV
vector 498377  Network.dyn_peer[70]  lookupStabilitySig:vector  ETV
vector 498378  Network.dyn_peer[70]  lookupTimeSig:vector  ETV
vector 498418  Network.dyn_peer[84]  lookupHopsSig:vector  ETV
vector 498419  Network.dyn_peer[84]  lookupStabilitySig:vector  ETV
vector 498420  Network.dyn_peer[84]  lookupTimeSig:vector  ETV
vector 498433  Network.dyn_peer[89]  lookupHopsSig:vector  ETV
vector 498434  Network.dyn_peer[89]  lookupStabilitySig:vector  ETV
vector 498435  Network.dyn_peer[89]  lookupTimeSig:vector  ETV
vector 498232  Network.dyn_peer[22]  lookupHopsSig:vector  ETV
vector 498233  Network.dyn_peer[22]  lookupStabilitySig:vector  ETV
vector 498234  Network.dyn_peer[22]  lookupTimeSig:vector  ETV
vector 498409  Network.dyn_peer[81]  lookupHopsSig:vector  ETV
vector 498410  Network.dyn_peer[81]  lookupStabilitySig:vector  ETV
vector 498411  Network.dyn_peer[81]  lookupTimeSig:vector  ETV
vector 498262  Network.dyn_peer[32]  lookupHopsSig:vector  ETV
vector 498263  Network.dyn_peer[32]  lookupStabilitySig:vector  ETV
vector 498264  Network.dyn_peer[32]  lookupTimeSig:vector  ETV
vector 498340  Network.dyn_peer[58]  lookupHopsSig:vector  ETV
vector 498341  Network.dyn_peer[58]  lookupStabilitySig:vector  ETV
vector 498342  Network.dyn_peer[58]  lookupTimeSig:vector  ETV
vector 498442  Network.dyn_peer[92]  lookupHopsSig:vector  ETV
vector 498443  Network.dyn_peer[92]  lookupStabilitySig:vector  ETV
vector 498444  Network.dyn_peer[92]  lookupTimeSig:vector  ETV
vector 498427  Network.dyn_peer[87]  lookupHopsSig:vector  ETV
vector 498428  Network.dyn_peer[87]  lookupStabilitySig:vector  ETV
vector 498429  Network.dyn_peer[87]  lookupTimeSig:vector  ETV
vector 498436  Network.dyn_peer[90]  lookupHopsSig:vector  ETV
vector 498437  Network.dyn_peer[90]  lookupStabilitySig:vector  ETV
vector 498438  Network.dyn_peer[90]  lookupTimeSig:vector  ETV
vector 498307  Network.dyn_peer[47]  lookupHopsSig:vector  ETV
vector 498308  Network.dyn_peer[47]  lookupStabilitySig:vector  ETV
vector 498309  Network.dyn_peer[47]  lookupTimeSig:vector  ETV
vector 498361  Network.dyn_peer[65]  lookupHopsSig:vector  ETV
vector 498362  Network.dyn_peer[65]  lookupStabilitySig:vector  ETV
vector 498363  Network.dyn_peer[65]  lookupTimeSig:vector  ETV
vector 498265  Network.dyn_peer[33]  lookupHopsSig:vector  ETV
vector 498266  Network.dyn_peer[33]  lookupStabilitySig:vector  ETV
vector 498267  Network.dyn_peer[33]  lookupTimeSig:vector  ETV
vector 498352  Network.dyn_peer[62]  lookupHopsSig:vector  ETV
vector 498353  Network.dyn_peer[62]  lookupStabilitySig:vector  ETV
vector 498354  Network.dyn_peer[62]  lookupTimeSig:vector  ETV
vector 498301  Network.dyn_peer[45]  lookupHopsSig:vector  ETV
vector 498302  Network.dyn_peer[45]  lookupStabilitySig:vector  ETV
vector 498303  Network.dyn_peer[45]  lookupTimeSig:vector  ETV
vector 498388  Network.dyn_peer[74]  lookupHopsSig:vector  ETV
vector 498389  Network.dyn_peer[74]  lookupStabilitySig:vector  ETV
vector 498390  Network.dyn_peer[74]  lookupTimeSig:vector  ETV
vector 498355  Network.dyn_peer[63]  lookupHopsSig:vector  ETV
vector 498356  Network.dyn_peer[63]  lookupStabilitySig:vector  ETV
vector 498357  Network.dyn_peer[63]  lookupTimeSig:vector  ETV
vector 498379  Network.dyn_peer[71]  lookupHopsSig:vector  ETV
vector 498380  Network.dyn_peer[71]  lookupStabilitySig:vector  ETV
vector 498381  Network.dyn_peer[71]  lookupTimeSig:vector  ETV
vector 498415  Network.dyn_peer[83]  lookupHopsSig:vector  ETV
vector 498416  Network.dyn_peer[83]  lookupStabilitySig:vector  ETV
vector 498417  Network.dyn_peer[83]  lookupTimeSig:vector  ETV
vector 498457  Network.dyn_peer[97]  lookupHopsSig:vector  ETV
vector 498458  Network.dyn_peer[97]  lookupStabilitySig:vector  ETV
vector 498459  Network.dyn_peer[97]  lookupTimeSig:vector  ETV
498166	678	20.301	3
498166	1719	21.101	7
498166	2587	21.80292771936	6
498167	678	20.301	0.39999997615814
498167	1719	21.101	0.125
498167	2587	21.80292771936	0.64705881476402
498168	678	20.301	0.3
498168	1719	21.101	0.8
498168	2587	21.80292771936	0.7
498169	527	20.202	2
498169	1468	20.911622407956	6
498169	2355	21.619586732716	6
498169	3278	22.433422839501	7
498170	527	20.202	0.59999999403954
498170	1468	20.911622407956	-0.20000004768372
498170	2355	21.619586732716	0.59999999403954
498170	3278	22.433422839501	0.81578947603703
498171	527	20.202	0.2
498171	1468	20.911622407956	0.7
498171	2355	21.619586732716	0.7
498171	3278	22.433422839501	0.8
498172	383	20.103	1
498172	2099	21.403	12
498172	2833	22.012434881403	5
498173	383	20.103	0.79999999701977
498173	2099	21.403	-0.090909123420715
498173	2833	22.012434881403	0.77272726595402
498174	383	20.103	0.1
498174	2099	21.403	1.3
498174	2833	22.012434881403	0.6
498175	823	20.404	4
498175	3152	22.304	18
498175	3693	22.910661319795	5
498175	3841	23.113375554785	1
498175	4077	23.517022609484	3
498175	4295	24.019107076694	4
498175	4479	24.622984745382	5
498175	4571	25.030275650122	3
498175	4702	25.736703703184	6
498176	823	20.404	0.19999998807907
498176	3152	22.304	0.48571425676346
498176	3693	22.910661319795	0.90566037595272
498176	3841	23.113375554785	0.9836065582931
498176	4077	23.517022609484	0.95945946127176
498176	4295	24.019107076694	0.95061728358269
498176	4479	24.622984745382	0.94382022321224
498176	4571	25.030275650122	0.96703296527267
498176	4702	25.736703703184	0.93684210628271
498177	823	20.404	0.4
498177	3152	22.304	1.9
498177	3693	22.910661319795	0.6
498177	3841	23.113375554785	0.2
498177	4077	23.517022609484	0.4
498177	4295	24.019107076694	0.5
498177	4479	24.622984745382	0.6
498177	4571	25.030275650122	0.4
498177	4702	25.736703703184	0.7
498178	389	20.105	1
498178	2102	21.405	12
498178	3348	22.511289644334	10
498179	389	20.105	0.79999999701977
498179	2102	21.405	-0.090909123420715
498179	3348	22.511289644334	0.76190476119518
498180	389	20.105	0.1
498180	2102	21.405	1.3
498180	3348	22.511289644334	1.1
498181	686	20.306	3
498181	1984	21.306	9
498181	3616	22.80943729957	14
498181	4072	23.509893565584	6
498182	686	20.306	0.39999997615814
498182	1984	21.306	0.10000002384186
498182	3616	22.80943729957	0.72549018263817
498182	4072	23.509893565584	0.91780821979046
498183	686	20.306	0.3
498183	1984	21.306	1
498183	3616	22.80943729957	1.5
498183	4072	23.509893565584	0.7
498184	35	20.007	0
498184	2227	21.507	14
498185	35	20.007	1
498185	2227	21.507	-0.16666662693024
498186	35	20.007	0
498186	2227	21.507	1.5
498187	42	20.008	0
498187	1860	21.208	11
498187	3048	22.20868466203	9
498187	3447	22.613321858487	3
498187	3703	22.926694934803	2
498188	42	20.008	1
498188	1860	21.208	-0.10000002384186
498188	3048	22.20868466203	0.69999998807907
498188	3447	22.613321858487	0.93181817978621
498188	3703	22.926694934803	0.96226415038109
498189	42	20.008	0
498189	1860	21.208	1.2
498189	3048	22.20868466203	1
498189	3447	22.613321858487	0.4
498189	3703	22.926694934803	0.3
498190	961	20.509	5
498190	1728	21.109	5
498190	2109	21.41149135279	2
498190	2610	21.82072495331	3
498191	961	20.509	0
498191	1728	21.109	0.375
498191	2109	21.41149135279	0.81818181276321
498191	2610	21.82072495331	0.83333332836628
498192	961	20.509	0.5
498192	1728	21.109	0.6
498192	2109	21.41149135279	0.3
498192	2610	21.82072495331	0.4
498193	539	20.21	2
498193	1338	20.81	5
498193	1736	21.116839408976	2
498194	539	20.21	0.59999999403954
498194	1338	20.81	0
498194	1736	21.116839408976	0.75
498195	539	20.21	0.2
498195	1338	20.81	0.6
498195	1736	21.116839408976	0.3
498196	544	20.211	2
498196	2231	21.511	12
498196	3055	22.215952639965	6
498196	3626	22.825473148509	5
498197	544	20.211	0.59999999403954
498197	2231	21.511	0.076923072338104
498197	3055	22.215952639965	0.79999999701977
498197	3626	22.825473148509	0.90196078270674
498198	544	20.211	0.2
498198	2231	21.511	1.3
498198	3055	22.215952639965	0.7
498198	3626	22.825473148509	0.6
498199	550	20.212	2
498199	2595	21.812	15
498199	3164	22.316806452477	4
498199	3699	22.922622557305	5
498200	550	20.212	0.59999999403954
498200	2595	21.812	0.16666668653488
498200	3164	22.316806452477	0.88571428507566
498200	3699	22.922622557305	0.90566037595272
498201	550	20.212	0.2
498201	2595	21.812	1.6
498201	3164	22.316806452477	0.5
498201	3699	22.922622557305	0.6
498202	698	20.313	3
498202	2598	21.813	14
498202	2956	22.11764508786	2
498203	698	20.313	0.39999997615814
498203	2598	21.813	0.22222220897675
498203	2956	22.11764508786	0.92592592537403
498204	698	20.313	0.3
498204	2598	21.813	1.5
498204	2956	22.11764508786	0.3
498205	971	20.514	5
498205	2709	21.914	13
498205	3354	22.519181776939	5
498205	3911	23.222423173168	6
498205	4025	23.424352150554	1
498206	971	20.514	0
498206	2709	21.914	0.31578946113586
498206	3354	22.519181776939	0.88372092694044
498206	3911	23.222423173168	0.90625
498206	4025	23.424352150554	0.98591549322009
498207	971	20.514	0.5
498207	2709	21.914	1.4
498207	3354	22.519181776939	0.6
498207	3911	23.222423173168	0.7
498207	4025	23.424352150554	0.2
498208	839	20.415	4
498208	1994	21.315	8
498208	3059	22.218123636257	8
498208	3352	22.519157395301	2
498208	3909	23.220812093909	6
498208	4081	23.522488800988	2
498208	4262	23.931458305362	3
498209	839	20.415	0.19999998807907
498209	1994	21.315	0.19999998807907
498209	3059	22.218123636257	0.74193549156189
498209	3352	22.519157395301	0.95348837226629
498209	3909	23.220812093909	0.90625
498209	4081	23.522488800988	0.97297297231853
498209	4262	23.931458305362	0.96202531829476
498210	839	20.415	0.4
498210	1994	21.315	0.9
498210	3059	22.218123636257	0.9
498210	3352	22.519157395301	0.3
498210	3909	23.220812093909	0.7
498210	4081	23.522488800988	0.3
498210	4262	23.931458305362	0.4
498211	558	20.216	2
498211	974	20.516	2
498211	1354	20.822794273743	2
498211	3847	23.123134136316	22
498211	4027	23.425785540998	2
498211	4337	24.130332004967	6
498211	4430	24.437708504292	2
498211	4526	24.842464376943	3
498211	4597	25.147863182554	2
498211	4682	25.650790575338	4
498212	558	20.216	0.59999999403954
498212	974	20.516	0.59999999403954
498212	1354	20.822794273743	0.59999999403954
498212	3847	23.123134136316	0.63934427499771
498212	4027	23.425785540998	0.97183098644018
498212	4337	24.130332004967	0.92682927101851
498212	4430	24.437708504292	0.97674418613315
498212	4526	24.842464376943	0.9666666649282
498212	4597	25.147863182554	0.97826086916029
498212	4682	25.650790575338	0.95698924735188
498213	558	20.216	0.2
498213	974	20.516	0.3
498213	1354	20.822794273743	0.3
498213	3847	23.123134136316	2.3
498213	4027	23.425785540998	0.3
498213	4337	24.130332004967	0.7
498213	4430	24.437708504292	0.3
498213	4526	24.842464376943	0.4
498213	4597	25.147863182554	0.3
498213	4682	25.650790575338	0.5
498214	405	20.117	1
498214	2837	22.017	18
498215	405	20.117	0.79999999701977
498215	2837	22.017	0.18181818723679
498216	405	20.117	0.1
498216	2837	22.017	1.9
498217	707	20.318	3
498217	977	20.518	1
498217	2721	21.921951642271	13
498218	707	20.318	0.39999997615814
498218	977	20.518	0.79999999701977
498218	2721	21.921951642271	0.31578946113586
498219	707	20.318	0.3
498219	977	20.518	0.2
498219	2721	21.921951642271	1.4
498220	1101	20.619	6
498220	2117	21.419	7
498220	2960	22.119689396837	6
498220	3367	22.529689008247	3
498220	3923	23.23064332508	6
498221	1101	20.619	-0.20000004768372
498221	2117	21.419	0.36363637447357
498221	2960	22.119689396837	0.78571428358555
498221	3367	22.529689008247	0.93023255467415
498221	3923	23.23064332508	0.90909090638161
498222	1101	20.619	0.6
498222	2117	21.419	0.8
498222	2960	22.119689396837	0.7
498222	3367	22.529689008247	0.4
498222	3923	23.23064332508	0.7
498223	984	20.52	5
498223	2608	21.82	12
498223	3271	22.426569868293	5
498223	3709	22.931586992574	4
498224	984	20.52	0
498224	2608	21.82	0.33333331346512
498224	3271	22.426569868293	0.86842104792595
498224	3709	22.931586992574	0.92592592537403
498225	984	20.52	0.5
498225	2608	21.82	1.3
498225	3271	22.426569868293	0.6
498225	3709	22.931586992574	0.5
498226	715	20.321	3
498226	2483	21.721	13
498226	2962	22.121230298705	3
498226	3169	22.321550327232	1
498227	715	20.321	0.39999997615814
498227	2483	21.721	0.1875
498227	2962	22.121230298705	0.89285714179277
498227	3169	22.321550327232	0.97142857126892
498228	715	20.321	0.3
498228	2483	21.721	1.4
498228	2962	22.121230298705	0.4
498228	3169	22.321550327232	0.2
498229	1748	21.122	11
498229	3358	22.522	13
498229	3852	23.129536374838	5
498229	4303	24.037986997023	8
498229	4505	24.746403173875	6
498229	4617	25.250161273885	4
498229	4721	25.858453731476	5
498230	1748	21.122	-0.375
498230	3358	22.522	0.69767442345619
498230	3852	23.129536374838	0.91803278774023
498230	4303	24.037986997023	0.90123456716537
498230	4505	24.746403173875	0.9333333298564
498230	4617	25.250161273885	0.95652173832059
498230	4721	25.858453731476	0.94791666790843
498231	1748	21.122	1.1
498231	3358	22.522	1.4
498231	3852	23.129536374838	0.6
498231	4303	24.037986997023	0.9
498231	4505	24.746403173875	0.7
498231	4617	25.250161273885	0.5
498231	4721	25.858453731476	0.6
498232	2008	21.323	13
498232	3066	22.223	8
498232	3461	22.629828434152	3
498232	3984	23.335651665023	6
498233	2008	21.323	-0.29999995231628
498233	3066	22.223	0.74193549156189
498233	3461	22.629828434152	0.93181817978621
498233	3984	23.335651665023	0.91304347664118
498234	2008	21.323	1.3
498234	3066	22.223	0.9
498234	3461	22.629828434152	0.4
498234	3984	23.335651665023	0.7
498235	1113	20.624	6
498235	2129	21.424	7
498236	1113	20.624	-0.20000004768372
498236	2129	21.424	0.36363637447357
498237	1113	20.624	0.6
498237	2129	21.424	0.8
498238	1362	20.825	8
498238	3267	22.425	15
498238	3916	23.225292213819	7
498239	1362	20.825	-0.60000002384186
498239	3267	22.425	0.60526314377785
498239	3916	23.225292213819	0.890625
498240	1362	20.825	0.8
498240	3267	22.425	1.6
498240	3916	23.225292213819	0.8
498241	855	20.426	4
498241	2491	21.726	12
498241	3079	22.235458167231	4
498241	4137	23.637231382428	13
498241	4301	24.037278283329	3
498242	855	20.426	0.19999998807907
498242	2491	21.726	0.25
498242	3079	22.235458167231	0.87096774578094
498242	4137	23.637231382428	0.82666666805744