file 152285 1369522340                                          
version 2
run Stability2-199-20130526-00:52:19-26640
attr configname Stability2
attr datetime 20130526-00:52:19
attr experiment Stability2
attr inifile omnetpp.ini
attr iterationvars $0=200
attr iterationvars2 "$0=200, $repetition=19"
attr measurement $0=200
attr network Network
attr processid 26640
attr repetition 19
attr replication #19
attr resultdir results
attr runnumber 199
attr seedset 199

vector 600199  Network.churner  inGoingSizeSig:vector  ETV
vector 597211  Network.dyn_peer[4]  lookupHopsSig:vector  ETV
vector 597212  Network.dyn_peer[4]  lookupStabilitySig:vector  ETV
vector 597213  Network.dyn_peer[4]  lookupTimeSig:vector  ETV
vector 597238  Network.dyn_peer[13]  lookupHopsSig:vector  ETV
vector 597239  Network.dyn_peer[13]  lookupStabilitySig:vector  ETV
vector 597240  Network.dyn_peer[13]  lookupTimeSig:vector  ETV
vector 597265  Network.dyn_peer[22]  lookupHopsSig:vector  ETV
vector 597266  Network.dyn_peer[22]  lookupStabilitySig:vector  ETV
vector 597267  Network.dyn_peer[22]  lookupTimeSig:vector  ETV
vector 597268  Network.dyn_peer[23]  lookupHopsSig:vector  ETV
vector 597269  Network.dyn_peer[23]  lookupStabilitySig:vector  ETV
vector 597270  Network.dyn_peer[23]  lookupTimeSig:vector  ETV
vector 597274  Network.dyn_peer[25]  lookupHopsSig:vector  ETV
vector 597275  Network.dyn_peer[25]  lookupStabilitySig:vector  ETV
vector 597276  Network.dyn_peer[25]  lookupTimeSig:vector  ETV
vector 597298  Network.dyn_peer[33]  lookupHopsSig:vector  ETV
vector 597299  Network.dyn_peer[33]  lookupStabilitySig:vector  ETV
vector 597300  Network.dyn_peer[33]  lookupTimeSig:vector  ETV
vector 597334  Network.dyn_peer[45]  lookupHopsSig:vector  ETV
vector 597335  Network.dyn_peer[45]  lookupStabilitySig:vector  ETV
vector 597336  Network.dyn_peer[45]  lookupTimeSig:vector  ETV
vector 597343  Network.dyn_peer[48]  lookupHopsSig:vector  ETV
vector 597344  Network.dyn_peer[48]  lookupStabilitySig:vector  ETV
vector 597345  Network.dyn_peer[48]  lookupTimeSig:vector  ETV
vector 597412  Network.dyn_peer[71]  lookupHopsSig:vector  ETV
vector 597413  Network.dyn_peer[71]  lookupStabilitySig:vector  ETV
vector 597414  Network.dyn_peer[71]  lookupTimeSig:vector  ETV
vector 597484  Network.dyn_peer[95]  lookupHopsSig:vector  ETV
vector 597485  Network.dyn_peer[95]  lookupStabilitySig:vector  ETV
vector 597486  Network.dyn_peer[95]  lookupTimeSig:vector  ETV
vector 597220  Network.dyn_peer[7]  lookupHopsSig:vector  ETV
vector 597221  Network.dyn_peer[7]  lookupStabilitySig:vector  ETV
vector 597222  Network.dyn_peer[7]  lookupTimeSig:vector  ETV
vector 597235  Network.dyn_peer[12]  lookupHopsSig:vector  ETV
vector 597236  Network.dyn_peer[12]  lookupStabilitySig:vector  ETV
vector 597237  Network.dyn_peer[12]  lookupTimeSig:vector  ETV
vector 597553  Network.dyn_peer[118]  lookupHopsSig:vector  ETV
vector 597554  Network.dyn_peer[118]  lookupStabilitySig:vector  ETV
vector 597555  Network.dyn_peer[118]  lookupTimeSig:vector  ETV
vector 597289  Network.dyn_peer[30]  lookupHopsSig:vector  ETV
vector 597290  Network.dyn_peer[30]  lookupStabilitySig:vector  ETV
vector 597291  Network.dyn_peer[30]  lookupTimeSig:vector  ETV
vector 597292  Network.dyn_peer[31]  lookupHopsSig:vector  ETV
vector 597293  Network.dyn_peer[31]  lookupStabilitySig:vector  ETV
vector 597294  Network.dyn_peer[31]  lookupTimeSig:vector  ETV
vector 597307  Network.dyn_peer[36]  lookupHopsSig:vector  ETV
vector 597308  Network.dyn_peer[36]  lookupStabilitySig:vector  ETV
vector 597309  Network.dyn_peer[36]  lookupTimeSig:vector  ETV
vector 597322  Network.dyn_peer[41]  lookupHopsSig:vector  ETV
vector 597323  Network.dyn_peer[41]  lookupStabilitySig:vector  ETV
vector 597324  Network.dyn_peer[41]  lookupTimeSig:vector  ETV
vector 597331  Network.dyn_peer[44]  lookupHopsSig:vector  ETV
vector 597332  Network.dyn_peer[44]  lookupStabilitySig:vector  ETV
vector 597333  Network.dyn_peer[44]  lookupTimeSig:vector  ETV
vector 597340  Network.dyn_peer[47]  lookupHopsSig:vector  ETV
vector 597341  Network.dyn_peer[47]  lookupStabilitySig:vector  ETV
vector 597342  Network.dyn_peer[47]  lookupTimeSig:vector  ETV
vector 597361  Network.dyn_peer[54]  lookupHopsSig:vector  ETV
vector 597362  Network.dyn_peer[54]  lookupStabilitySig:vector  ETV
vector 597363  Network.dyn_peer[54]  lookupTimeSig:vector  ETV
vector 597373  Network.dyn_peer[58]  lookupHopsSig:vector  ETV
vector 597374  Network.dyn_peer[58]  lookupStabilitySig:vector  ETV
vector 597375  Network.dyn_peer[58]  lookupTimeSig:vector  ETV
vector 597472  Network.dyn_peer[91]  lookupHopsSig:vector  ETV
vector 597473  Network.dyn_peer[91]  lookupStabilitySig:vector  ETV
vector 597474  Network.dyn_peer[91]  lookupTimeSig:vector  ETV
vector 597487  Network.dyn_peer[96]  lookupHopsSig:vector  ETV
vector 597488  Network.dyn_peer[96]  lookupStabilitySig:vector  ETV
vector 597489  Network.dyn_peer[96]  lookupTimeSig:vector  ETV
vector 597496  Network.dyn_peer[99]  lookupHopsSig:vector  ETV
vector 597497  Network.dyn_peer[99]  lookupStabilitySig:vector  ETV
vector 597498  Network.dyn_peer[99]  lookupTimeSig:vector  ETV
vector 597202  Network.dyn_peer[1]  lookupHopsSig:vector  ETV
vector 597203  Network.dyn_peer[1]  lookupStabilitySig:vector  ETV
vector 597204  Network.dyn_peer[1]  lookupTimeSig:vector  ETV
vector 597208  Network.dyn_peer[3]  lookupHopsSig:vector  ETV
vector 597209  Network.dyn_peer[3]  lookupStabilitySig:vector  ETV
vector 597210  Network.dyn_peer[3]  lookupTimeSig:vector  ETV
vector 597226  Network.dyn_peer[9]  lookupHopsSig:vector  ETV
vector 597227  Network.dyn_peer[9]  lookupStabilitySig:vector  ETV
vector 597228  Network.dyn_peer[9]  lookupTimeSig:vector  ETV
vector 597229  Network.dyn_peer[10]  lookupHopsSig:vector  ETV
vector 597230  Network.dyn_peer[10]  lookupStabilitySig:vector  ETV
vector 597231  Network.dyn_peer[10]  lookupTimeSig:vector  ETV
vector 597250  Network.dyn_peer[17]  lookupHopsSig:vector  ETV
vector 597251  Network.dyn_peer[17]  lookupStabilitySig:vector  ETV
vector 597252  Network.dyn_peer[17]  lookupTimeSig:vector  ETV
vector 597559  Network.dyn_peer[120]  lookupHopsSig:vector  ETV
vector 597560  Network.dyn_peer[120]  lookupStabilitySig:vector  ETV
vector 597561  Network.dyn_peer[120]  lookupTimeSig:vector  ETV
vector 597574  Network.dyn_peer[125]  lookupHopsSig:vector  ETV
vector 597575  Network.dyn_peer[125]  lookupStabilitySig:vector  ETV
vector 597576  Network.dyn_peer[125]  lookupTimeSig:vector  ETV
vector 597316  Network.dyn_peer[39]  lookupHopsSig:vector  ETV
vector 597317  Network.dyn_peer[39]  lookupStabilitySig:vector  ETV
vector 597318  Network.dyn_peer[39]  lookupTimeSig:vector  ETV
vector 597319  Network.dyn_peer[40]  lookupHopsSig:vector  ETV
vector 597320  Network.dyn_peer[40]  lookupStabilitySig:vector  ETV
vector 597321  Network.dyn_peer[40]  lookupTimeSig:vector  ETV
vector 597325  Network.dyn_peer[42]  lookupHopsSig:vector  ETV
vector 597326  Network.dyn_peer[42]  lookupStabilitySig:vector  ETV
vector 597327  Network.dyn_peer[42]  lookupTimeSig:vector  ETV
vector 597337  Network.dyn_peer[46]  lookupHopsSig:vector  ETV
vector 597338  Network.dyn_peer[46]  lookupStabilitySig:vector  ETV
vector 597339  Network.dyn_peer[46]  lookupTimeSig:vector  ETV
vector 597352  Network.dyn_peer[51]  lookupHopsSig:vector  ETV
vector 597353  Network.dyn_peer[51]  lookupStabilitySig:vector  ETV
vector 597354  Network.dyn_peer[51]  lookupTimeSig:vector  ETV
vector 597355  Network.dyn_peer[52]  lookupHopsSig:vector  ETV
vector 597356  Network.dyn_peer[52]  lookupStabilitySig:vector  ETV
vector 597357  Network.dyn_peer[52]  lookupTimeSig:vector  ETV
vector 597358  Network.dyn_peer[53]  lookupHopsSig:vector  ETV
vector 597359  Network.dyn_peer[53]  lookupStabilitySig:vector  ETV
vector 597360  Network.dyn_peer[53]  lookupTimeSig:vector  ETV
vector 597376  Network.dyn_peer[59]  lookupHopsSig:vector  ETV
vector 597377  Network.dyn_peer[59]  lookupStabilitySig:vector  ETV
vector 597378  Network.dyn_peer[59]  lookupTimeSig:vector  ETV
vector 597382  Network.dyn_peer[61]  lookupHopsSig:vector  ETV
vector 597383  Network.dyn_peer[61]  lookupStabilitySig:vector  ETV
vector 597384  Network.dyn_peer[61]  lookupTimeSig:vector  ETV
vector 597394  Network.dyn_peer[65]  lookupHopsSig:vector  ETV
vector 597395  Network.dyn_peer[65]  lookupStabilitySig:vector  ETV
vector 597396  Network.dyn_peer[65]  lookupTimeSig:vector  ETV
vector 597400  Network.dyn_peer[67]  lookupHopsSig:vector  ETV
vector 597401  Network.dyn_peer[67]  lookupStabilitySig:vector  ETV
vector 597402  Network.dyn_peer[67]  lookupTimeSig:vector  ETV
vector 597415  Network.dyn_peer[72]  lookupHopsSig:vector  ETV
vector 597416  Network.dyn_peer[72]  lookupStabilitySig:vector  ETV
vector 597417  Network.dyn_peer[72]  lookupTimeSig:vector  ETV
vector 597418  Network.dyn_peer[73]  lookupHopsSig:vector  ETV
vector 597419  Network.dyn_peer[73]  lookupStabilitySig:vector  ETV
vector 597420  Network.dyn_peer[73]  lookupTimeSig:vector  ETV
vector 597448  Network.dyn_peer[83]  lookupHopsSig:vector  ETV
vector 597449  Network.dyn_peer[83]  lookupStabilitySig:vector  ETV
vector 597450  Network.dyn_peer[83]  lookupTimeSig:vector  ETV
vector 597463  Network.dyn_peer[88]  lookupHopsSig:vector  ETV
vector 597464  Network.dyn_peer[88]  lookupStabilitySig:vector  ETV
vector 597465  Network.dyn_peer[88]  lookupTimeSig:vector  ETV
vector 597205  Network.dyn_peer[2]  lookupHopsSig:vector  ETV
vector 597206  Network.dyn_peer[2]  lookupStabilitySig:vector  ETV
vector 597207  Network.dyn_peer[2]  lookupTimeSig:vector  ETV
vector 597508  Network.dyn_peer[103]  lookupHopsSig:vector  ETV
vector 597509  Network.dyn_peer[103]  lookupStabilitySig:vector  ETV
vector 597510  Network.dyn_peer[103]  lookupTimeSig:vector  ETV
vector 597511  Network.dyn_peer[104]  lookupHopsSig:vector  ETV
vector 597512  Network.dyn_peer[104]  lookupStabilitySig:vector  ETV
vector 597513  Network.dyn_peer[104]  lookupTimeSig:vector  ETV
vector 597217  Network.dyn_peer[6]  lookupHopsSig:vector  ETV
vector 597218  Network.dyn_peer[6]  lookupStabilitySig:vector  ETV
vector 597219  Network.dyn_peer[6]  lookupTimeSig:vector  ETV
vector 597517  Network.dyn_peer[106]  lookupHopsSig:vector  ETV
vector 597518  Network.dyn_peer[106]  lookupStabilitySig:vector  ETV
vector 597519  Network.dyn_peer[106]  lookupTimeSig:vector  ETV
vector 597232  Network.dyn_peer[11]  lookupHopsSig:vector  ETV
vector 597233  Network.dyn_peer[11]  lookupStabilitySig:vector  ETV
vector 597234  Network.dyn_peer[11]  lookupTimeSig:vector  ETV
vector 597541  Network.dyn_peer[114]  lookupHopsSig:vector  ETV
vector 597542  Network.dyn_peer[114]  lookupStabilitySig:vector  ETV
vector 597543  Network.dyn_peer[114]  lookupTimeSig:vector  ETV
vector 597580  Network.dyn_peer[127]  lookupHopsSig:vector  ETV
vector 597581  Network.dyn_peer[127]  lookupStabilitySig:vector  ETV
vector 597582  Network.dyn_peer[127]  lookupTimeSig:vector  ETV
vector 597592  Network.dyn_peer[131]  lookupHopsSig:vector  ETV
vector 597593  Network.dyn_peer[131]  lookupStabilitySig:vector  ETV
vector 597594  Network.dyn_peer[131]  lookupTimeSig:vector  ETV
vector 597610  Network.dyn_peer[137]  lookupHopsSig:vector  ETV
vector 597611  Network.dyn_peer[137]  lookupStabilitySig:vector  ETV
vector 597612  Network.dyn_peer[137]  lookupTimeSig:vector  ETV
vector 597313  Network.dyn_peer[38]  lookupHopsSig:vector  ETV
vector 597314  Network.dyn_peer[38]  lookupStabilitySig:vector  ETV
vector 597315  Network.dyn_peer[38]  lookupTimeSig:vector  ETV
vector 597346  Network.dyn_peer[49]  lookupHopsSig:vector  ETV
vector 597347  Network.dyn_peer[49]  lookupStabilitySig:vector  ETV
vector 597348  Network.dyn_peer[49]  lookupTimeSig:vector  ETV
vector 597646  Network.dyn_peer[149]  lookupHopsSig:vector  ETV
vector 597647  Network.dyn_peer[149]  lookupStabilitySig:vector  ETV
vector 597648  Network.dyn_peer[149]  lookupTimeSig:vector  ETV
vector 597676  Network.dyn_peer[159]  lookupHopsSig:vector  ETV
vector 597677  Network.dyn_peer[159]  lookupStabilitySig:vector  ETV
vector 597678  Network.dyn_peer[159]  lookupTimeSig:vector  ETV
vector 597385  Network.dyn_peer[62]  lookupHopsSig:vector  ETV
vector 597386  Network.dyn_peer[62]  lookupStabilitySig:vector  ETV
vector 597387  Network.dyn_peer[62]  lookupTimeSig:vector  ETV
vector 597397  Network.dyn_peer[66]  lookupHopsSig:vector  ETV
vector 597398  Network.dyn_peer[66]  lookupStabilitySig:vector  ETV
vector 597399  Network.dyn_peer[66]  lookupTimeSig:vector  ETV
vector 597721  Network.dyn_peer[174]  lookupHopsSig:vector  ETV
vector 597722  Network.dyn_peer[174]  lookupStabilitySig:vector  ETV
vector 597723  Network.dyn_peer[174]  lookupTimeSig:vector  ETV
vector 597445  Network.dyn_peer[82]  lookupHopsSig:vector  ETV
vector 597446  Network.dyn_peer[82]  lookupStabilitySig:vector  ETV
vector 597447  Network.dyn_peer[82]  lookupTimeSig:vector  ETV
vector 597451  Network.dyn_peer[84]  lookupHopsSig:vector  ETV
vector 597452  Network.dyn_peer[84]  lookupStabilitySig:vector  ETV
vector 597453  Network.dyn_peer[84]  lookupTimeSig:vector  ETV
vector 597763  Network.dyn_peer[188]  lookupHopsSig:vector  ETV
vector 597764  Network.dyn_peer[188]  lookupStabilitySig:vector  ETV
vector 597765  Network.dyn_peer[188]  lookupTimeSig:vector  ETV
vector 597502  Network.dyn_peer[101]  lookupHopsSig:vector  ETV
vector 597503  Network.dyn_peer[101]  lookupStabilitySig:vector  ETV
vector 597504  Network.dyn_peer[101]  lookupTimeSig:vector  ETV
vector 597223  Network.dyn_peer[8]  lookupHopsSig:vector  ETV
vector 597224  Network.dyn_peer[8]  lookupStabilitySig:vector  ETV
vector 597225  Network.dyn_peer[8]  lookupTimeSig:vector  ETV
vector 597241  Network.dyn_peer[14]  lookupHopsSig:vector  ETV
vector 597242  Network.dyn_peer[14]  lookupStabilitySig:vector  ETV
vector 597243  Network.dyn_peer[14]  lookupTimeSig:vector  ETV
vector 597262  Network.dyn_peer[21]  lookupHopsSig:vector  ETV
vector 597263  Network.dyn_peer[21]  lookupStabilitySig:vector  ETV
vector 597264  Network.dyn_peer[21]  lookupTimeSig:vector  ETV
vector 597568  Network.dyn_peer[123]  lookupHopsSig:vector  ETV
vector 597569  Network.dyn_peer[123]  lookupStabilitySig:vector  ETV
vector 597570  Network.dyn_peer[123]  lookupTimeSig:vector  ETV
vector 597280  Network.dyn_peer[27]  lookupHopsSig:vector  ETV
vector 597281  Network.dyn_peer[27]  lookupStabilitySig:vector  ETV
vector 597282  Network.dyn_peer[27]  lookupTimeSig:vector  ETV
vector 597583  Network.dyn_peer[128]  lookupHopsSig:vector  ETV
vector 597584  Network.dyn_peer[128]  lookupStabilitySig:vector  ETV
vector 597585  Network.dyn_peer[128]  lookupTimeSig:vector  ETV
vector 597637  Network.dyn_peer[146]  lookupHopsSig:vector  ETV
vector 597638  Network.dyn_peer[146]  lookupStabilitySig:vector  ETV
vector 597639  Network.dyn_peer[146]  lookupTimeSig:vector  ETV
vector 597640  Network.dyn_peer[147]  lookupHopsSig:vector  ETV
vector 597641  Network.dyn_peer[147]  lookupStabilitySig:vector  ETV
vector 597642  Network.dyn_peer[147]  lookupTimeSig:vector  ETV
vector 597667  Network.dyn_peer[156]  lookupHopsSig:vector  ETV
vector 597668  Network.dyn_peer[156]  lookupStabilitySig:vector  ETV
vector 597669  Network.dyn_peer[156]  lookupTimeSig:vector  ETV
vector 597370  Network.dyn_peer[57]  lookupHopsSig:vector  ETV
vector 597371  Network.dyn_peer[57]  lookupStabilitySig:vector  ETV
vector 597372  Network.dyn_peer[57]  lookupTimeSig:vector  ETV
vector 597679  Network.dyn_peer[160]  lookupHopsSig:vector  ETV
vector 597680  Network.dyn_peer[160]  lookupStabilitySig:vector  ETV
vector 597681  Network.dyn_peer[160]  lookupTimeSig:vector  ETV
vector 597421  Network.dyn_peer[74]  lookupHopsSig:vector  ETV
vector 597422  Network.dyn_peer[74]  lookupStabilitySig:vector  ETV
vector 597423  Network.dyn_peer[74]  lookupTimeSig:vector  ETV
vector 597430  Network.dyn_peer[77]  lookupHopsSig:vector  ETV
vector 597431  Network.dyn_peer[77]  lookupStabilitySig:vector  ETV
vector 597432  Network.dyn_peer[77]  lookupTimeSig:vector  ETV
vector 597466  Network.dyn_peer[89]  lookupHopsSig:vector  ETV
vector 597467  Network.dyn_peer[89]  lookupStabilitySig:vector  ETV
vector 597468  Network.dyn_peer[89]  lookupTimeSig:vector  ETV
vector 597481  Network.dyn_peer[94]  lookupHopsSig:vector  ETV
vector 597482  Network.dyn_peer[94]  lookupStabilitySig:vector  ETV
vector 597483  Network.dyn_peer[94]  lookupTimeSig:vector  ETV
vector 597214  Network.dyn_peer[5]  lookupHopsSig:vector  ETV
vector 597215  Network.dyn_peer[5]  lookupStabilitySig:vector  ETV
vector 597216  Network.dyn_peer[5]  lookupTimeSig:vector  ETV
vector 597514  Network.dyn_peer[105]  lookupHopsSig:vector  ETV
vector 597515  Network.dyn_peer[105]  lookupStabilitySig:vector  ETV
vector 597516  Network.dyn_peer[105]  lookupTimeSig:vector  ETV
vector 597523  Network.dyn_peer[108]  lookupHopsSig:vector  ETV
vector 597524  Network.dyn_peer[108]  lookupStabilitySig:vector  ETV
vector 597525  Network.dyn_peer[108]  lookupTimeSig:vector  ETV
vector 597547  Network.dyn_peer[116]  lookupHopsSig:vector  ETV
vector 597548  Network.dyn_peer[116]  lookupStabilitySig:vector  ETV
vector 597549  Network.dyn_peer[116]  lookupTimeSig:vector  ETV
vector 597271  Network.dyn_peer[24]  lookupHopsSig:vector  ETV
vector 597272  Network.dyn_peer[24]  lookupStabilitySig:vector  ETV
vector 597273  Network.dyn_peer[24]  lookupTimeSig:vector  ETV
vector 597571  Network.dyn_peer[124]  lookupHopsSig:vector  ETV
vector 597572  Network.dyn_peer[124]  lookupStabilitySig:vector  ETV
vector 597573  Network.dyn_peer[124]  lookupTimeSig:vector  ETV
vector 597283  Network.dyn_peer[28]  lookupHopsSig:vector  ETV
vector 597284  Network.dyn_peer[28]  lookupStabilitySig:vector  ETV
vector 597285  Network.dyn_peer[28]  lookupTimeSig:vector  ETV
vector 597286  Network.dyn_peer[29]  lookupHopsSig:vector  ETV
vector 597287  Network.dyn_peer[29]  lookupStabilitySig:vector  ETV
vector 597288  Network.dyn_peer[29]  lookupTimeSig:vector  ETV
vector 597301  Network.dyn_peer[34]  lookupHopsSig:vector  ETV
vector 597302  Network.dyn_peer[34]  lookupStabilitySig:vector  ETV
vector 597303  Network.dyn_peer[34]  lookupTimeSig:vector  ETV
vector 597658  Network.dyn_peer[153]  lookupHopsSig:vector  ETV
vector 597659  Network.dyn_peer[153]  lookupStabilitySig:vector  ETV
vector 597660  Network.dyn_peer[153]  lookupTimeSig:vector  ETV
vector 597379  Network.dyn_peer[60]  lookupHopsSig:vector  ETV
vector 597380  Network.dyn_peer[60]  lookupStabilitySig:vector  ETV
vector 597381  Network.dyn_peer[60]  lookupTimeSig:vector  ETV
vector 597433  Network.dyn_peer[78]  lookupHopsSig:vector  ETV
vector 597434  Network.dyn_peer[78]  lookupStabilitySig:vector  ETV
vector 597435  Network.dyn_peer[78]  lookupTimeSig:vector  ETV
vector 597436  Network.dyn_peer[79]  lookupHopsSig:vector  ETV
vector 597437  Network.dyn_peer[79]  lookupStabilitySig:vector  ETV
vector 597438  Network.dyn_peer[79]  lookupTimeSig:vector  ETV
vector 597535  Network.dyn_peer[112]  lookupHopsSig:vector  ETV
vector 597536  Network.dyn_peer[112]  lookupStabilitySig:vector  ETV
vector 597537  Network.dyn_peer[112]  lookupTimeSig:vector  ETV
vector 597544  Network.dyn_peer[115]  lookupHopsSig:vector  ETV
vector 597545  Network.dyn_peer[115]  lookupStabilitySig:vector  ETV
vector 597546  Network.dyn_peer[115]  lookupTimeSig:vector  ETV
vector 597253  Network.dyn_peer[18]  lookupHopsSig:vector  ETV
vector 597254  Network.dyn_peer[18]  lookupStabilitySig:vector  ETV
vector 597255  Network.dyn_peer[18]  lookupTimeSig:vector  ETV
vector 597277  Network.dyn_peer[26]  lookupHopsSig:vector  ETV
vector 597278  Network.dyn_peer[26]  lookupStabilitySig:vector  ETV
vector 597279  Network.dyn_peer[26]  lookupTimeSig:vector  ETV
vector 597295  Network.dyn_peer[32]  lookupHopsSig:vector  ETV
vector 597296  Network.dyn_peer[32]  lookupStabilitySig:vector  ETV
vector 597297  Network.dyn_peer[32]  lookupTimeSig:vector  ETV
vector 597616  Network.dyn_peer[139]  lookupHopsSig:vector  ETV
vector 597617  Network.dyn_peer[139]  lookupStabilitySig:vector  ETV
vector 597618  Network.dyn_peer[139]  lookupTimeSig:vector  ETV
vector 597328  Network.dyn_peer[43]  lookupHopsSig:vector  ETV
vector 597329  Network.dyn_peer[43]  lookupStabilitySig:vector  ETV
vector 597330  Network.dyn_peer[43]  lookupTimeSig:vector  ETV
vector 597643  Network.dyn_peer[148]  lookupHopsSig:vector  ETV
vector 597644  Network.dyn_peer[148]  lookupStabilitySig:vector  ETV
vector 597645  Network.dyn_peer[148]  lookupTimeSig:vector  ETV
vector 597367  Network.dyn_peer[56]  lookupHopsSig:vector  ETV
vector 597368  Network.dyn_peer[56]  lookupStabilitySig:vector  ETV
vector 597369  Network.dyn_peer[56]  lookupTimeSig:vector  ETV
vector 597403  Network.dyn_peer[68]  lookupHopsSig:vector  ETV
vector 597404  Network.dyn_peer[68]  lookupStabilitySig:vector  ETV
vector 597405  Network.dyn_peer[68]  lookupTimeSig:vector  ETV
vector 597442  Network.dyn_peer[81]  lookupHopsSig:vector  ETV
vector 597443  Network.dyn_peer[81]  lookupStabilitySig:vector  ETV
vector 597444  Network.dyn_peer[81]  lookupTimeSig:vector  ETV
vector 597751  Network.dyn_peer[184]  lookupHopsSig:vector  ETV
vector 597752  Network.dyn_peer[184]  lookupStabilitySig:vector  ETV
vector 597753  Network.dyn_peer[184]  lookupTimeSig:vector  ETV
vector 597772  Network.dyn_peer[191]  lookupHopsSig:vector  ETV
vector 597773  Network.dyn_peer[191]  lookupStabilitySig:vector  ETV
vector 597774  Network.dyn_peer[191]  lookupTimeSig:vector  ETV
vector 597259  Network.dyn_peer[20]  lookupHopsSig:vector  ETV
vector 597260  Network.dyn_peer[20]  lookupStabilitySig:vector  ETV
vector 597261  Network.dyn_peer[20]  lookupTimeSig:vector  ETV
vector 597577  Network.dyn_peer[126]  lookupHopsSig:vector  ETV
vector 597578  Network.dyn_peer[126]  lookupStabilitySig:vector  ETV
vector 597579  Network.dyn_peer[126]  lookupTimeSig:vector  ETV
vector 597649  Network.dyn_peer[150]  lookupHopsSig:vector  ETV
vector 597650  Network.dyn_peer[150]  lookupStabilitySig:vector  ETV
vector 597651  Network.dyn_peer[150]  lookupTimeSig:vector  ETV
vector 597391  Network.dyn_peer[64]  lookupHopsSig:vector  ETV
vector 597392  Network.dyn_peer[64]  lookupStabilitySig:vector  ETV
vector 597393  Network.dyn_peer[64]  lookupTimeSig:vector  ETV
vector 597427  Network.dyn_peer[76]  lookupHopsSig:vector  ETV
vector 597428  Network.dyn_peer[76]  lookupStabilitySig:vector  ETV
vector 597429  Network.dyn_peer[76]  lookupTimeSig:vector  ETV
vector 597457  Network.dyn_peer[86]  lookupHopsSig:vector  ETV
vector 597458  Network.dyn_peer[86]  lookupStabilitySig:vector  ETV
vector 597459  Network.dyn_peer[86]  lookupTimeSig:vector  ETV
vector 597478  Network.dyn_peer[93]  lookupHopsSig:vector  ETV
vector 597479  Network.dyn_peer[93]  lookupStabilitySig:vector  ETV
vector 597480  Network.dyn_peer[93]  lookupTimeSig:vector  ETV
vector 597556  Network.dyn_peer[119]  lookupHopsSig:vector  ETV
vector 597557  Network.dyn_peer[119]  lookupStabilitySig:vector  ETV
vector 597558  Network.dyn_peer[119]  lookupTimeSig:vector  ETV
vector 597709  Network.dyn_peer[170]  lookupHopsSig:vector  ETV
vector 597710  Network.dyn_peer[170]  lookupStabilitySig:vector  ETV
vector 597711  Network.dyn_peer[170]  lookupTimeSig:vector  ETV
vector 597439  Network.dyn_peer[80]  lookupHopsSig:vector  ETV
vector 597440  Network.dyn_peer[80]  lookupStabilitySig:vector  ETV
vector 597441  Network.dyn_peer[80]  lookupTimeSig:vector  ETV
vector 597532  Network.dyn_peer[111]  lookupHopsSig:vector  ETV
vector 597533  Network.dyn_peer[111]  lookupStabilitySig:vector  ETV
vector 597534  Network.dyn_peer[111]  lookupTimeSig:vector  ETV
vector 597406  Network.dyn_peer[69]  lookupHopsSig:vector  ETV
vector 597407  Network.dyn_peer[69]  lookupStabilitySig:vector  ETV
vector 597408  Network.dyn_peer[69]  lookupTimeSig:vector  ETV
vector 597409  Network.dyn_peer[70]  lookupHopsSig:vector  ETV
vector 597410  Network.dyn_peer[70]  lookupStabilitySig:vector  ETV
vector 597411  Network.dyn_peer[70]  lookupTimeSig:vector  ETV
vector 597742  Network.dyn_peer[181]  lookupHopsSig:vector  ETV
vector 597743  Network.dyn_peer[181]  lookupStabilitySig:vector  ETV
vector 597744  Network.dyn_peer[181]  lookupTimeSig:vector  ETV
vector 597550  Network.dyn_peer[117]  lookupHopsSig:vector  ETV
vector 597551  Network.dyn_peer[117]  lookupStabilitySig:vector  ETV
vector 597552  Network.dyn_peer[117]  lookupTimeSig:vector  ETV
vector 597604  Network.dyn_peer[135]  lookupHopsSig:vector  ETV
vector 597605  Network.dyn_peer[135]  lookupStabilitySig:vector  ETV
vector 597606  Network.dyn_peer[135]  lookupTimeSig:vector  ETV
vector 597310  Network.dyn_peer[37]  lookupHopsSig:vector  ETV
vector 597311  Network.dyn_peer[37]  lookupStabilitySig:vector  ETV
vector 597312  Network.dyn_peer[37]  lookupTimeSig:vector  ETV
vector 597793  Network.dyn_peer[198]  lookupHopsSig:vector  ETV
vector 597794  Network.dyn_peer[198]  lookupStabilitySig:vector  ETV
vector 597795  Network.dyn_peer[198]  lookupTimeSig:vector  ETV
vector 597520  Network.dyn_peer[107]  lookupHopsSig:vector  ETV
vector 597521  Network.dyn_peer[107]  lookupStabilitySig:vector  ETV
vector 597522  Network.dyn_peer[107]  lookupTimeSig:vector  ETV
vector 597244  Network.dyn_peer[15]  lookupHopsSig:vector  ETV
vector 597245  Network.dyn_peer[15]  lookupStabilitySig:vector  ETV
vector 597246  Network.dyn_peer[15]  lookupTimeSig:vector  ETV
vector 597364  Network.dyn_peer[55]  lookupHopsSig:vector  ETV
vector 597365  Network.dyn_peer[55]  lookupStabilitySig:vector  ETV
vector 597366  Network.dyn_peer[55]  lookupTimeSig:vector  ETV
vector 597673  Network.dyn_peer[158]  lookupHopsSig:vector  ETV
vector 597674  Network.dyn_peer[158]  lookupStabilitySig:vector  ETV
vector 597675  Network.dyn_peer[158]  lookupTimeSig:vector  ETV
vector 597703  Network.dyn_peer[168]  lookupHopsSig:vector  ETV
vector 597704  Network.dyn_peer[168]  lookupStabilitySig:vector  ETV
vector 597705  Network.dyn_peer[168]  lookupTimeSig:vector  ETV
vector 597745  Network.dyn_peer[182]  lookupHopsSig:vector  ETV
vector 597746  Network.dyn_peer[182]  lookupStabilitySig:vector  ETV
vector 597747  Network.dyn_peer[182]  lookupTimeSig:vector  ETV
vector 597760  Network.dyn_peer[187]  lookupHopsSig:vector  ETV
vector 597761  Network.dyn_peer[187]  lookupStabilitySig:vector  ETV
vector 597762  Network.dyn_peer[187]  lookupTimeSig:vector  ETV
vector 597469  Network.dyn_peer[90]  lookupHopsSig:vector  ETV
vector 597470  Network.dyn_peer[90]  lookupStabilitySig:vector  ETV
vector 597471  Network.dyn_peer[90]  lookupTimeSig:vector  ETV
vector 597493  Network.dyn_peer[98]  lookupHopsSig:vector  ETV
vector 597494  Network.dyn_peer[98]  lookupStabilitySig:vector  ETV
vector 597495  Network.dyn_peer[98]  lookupTimeSig:vector  ETV
vector 597529  Network.dyn_peer[110]  lookupHopsSig:vector  ETV
vector 597530  Network.dyn_peer[110]  lookupStabilitySig:vector  ETV
vector 597531  Network.dyn_peer[110]  lookupTimeSig:vector  ETV
vector 597598  Network.dyn_peer[133]  lookupHopsSig:vector  ETV
vector 597599  Network.dyn_peer[133]  lookupStabilitySig:vector  ETV
vector 597600  Network.dyn_peer[133]  lookupTimeSig:vector  ETV
vector 597622  Network.dyn_peer[141]  lookupHopsSig:vector  ETV
vector 597623  Network.dyn_peer[141]  lookupStabilitySig:vector  ETV
vector 597624  Network.dyn_peer[141]  lookupTimeSig:vector  ETV
vector 597652  Network.dyn_peer[151]  lookupHopsSig:vector  ETV
vector 597653  Network.dyn_peer[151]  lookupStabilitySig:vector  ETV
vector 597654  Network.dyn_peer[151]  lookupTimeSig:vector  ETV
vector 597388  Network.dyn_peer[63]  lookupHopsSig:vector  ETV
vector 597389  Network.dyn_peer[63]  lookupStabilitySig:vector  ETV
vector 597390  Network.dyn_peer[63]  lookupTimeSig:vector  ETV
vector 597460  Network.dyn_peer[87]  lookupHopsSig:vector  ETV
vector 597461  Network.dyn_peer[87]  lookupStabilitySig:vector  ETV
vector 597462  Network.dyn_peer[87]  lookupTimeSig:vector  ETV
vector 597775  Network.dyn_peer[192]  lookupHopsSig:vector  ETV
vector 597776  Network.dyn_peer[192]  lookupStabilitySig:vector  ETV
vector 597777  Network.dyn_peer[192]  lookupTimeSig:vector  ETV
vector 597490  Network.dyn_peer[97]  lookupHopsSig:vector  ETV
vector 597491  Network.dyn_peer[97]  lookupStabilitySig:vector  ETV
vector 597492  Network.dyn_peer[97]  lookupTimeSig:vector  ETV
vector 597247  Network.dyn_peer[16]  lookupHopsSig:vector  ETV
vector 597248  Network.dyn_peer[16]  lookupStabilitySig:vector  ETV
vector 597249  Network.dyn_peer[16]  lookupTimeSig:vector  ETV
vector 597256  Network.dyn_peer[19]  lookupHopsSig:vector  ETV
vector 597257  Network.dyn_peer[19]  lookupStabilitySig:vector  ETV
vector 597258  Network.dyn_peer[19]  lookupTimeSig:vector  ETV
vector 597595  Network.dyn_peer[132]  lookupHopsSig:vector  ETV
vector 597596  Network.dyn_peer[132]  lookupStabilitySig:vector  ETV
vector 597597  Network.dyn_peer[132]  lookupTimeSig:vector  ETV
vector 597631  Network.dyn_peer[144]  lookupHopsSig:vector  ETV
vector 597632  Network.dyn_peer[144]  lookupStabilitySig:vector  ETV
vector 597633  Network.dyn_peer[144]  lookupTimeSig:vector  ETV
vector 597349  Network.dyn_peer[50]  lookupHopsSig:vector  ETV
vector 597350  Network.dyn_peer[50]  lookupStabilitySig:vector  ETV
vector 597351  Network.dyn_peer[50]  lookupTimeSig:vector  ETV
vector 597688  Network.dyn_peer[163]  lookupHopsSig:vector  ETV
vector 597689  Network.dyn_peer[163]  lookupStabilitySig:vector  ETV
vector 597690  Network.dyn_peer[163]  lookupTimeSig:vector  ETV
vector 597199  Network.dyn_peer[0]  lookupHopsSig:vector  ETV
vector 597200  Network.dyn_peer[0]  lookupStabilitySig:vector  ETV
vector 597201  Network.dyn_peer[0]  lookupTimeSig:vector  ETV
vector 597499  Network.dyn_peer[100]  lookupHopsSig:vector  ETV
vector 597500  Network.dyn_peer[100]  lookupStabilitySig:vector  ETV
vector 597501  Network.dyn_peer[100]  lookupTimeSig:vector  ETV