version 2
run Stability2-66-20130526-00:51:25-26640
attr configname Stability2
attr datetime 20130526-00:51:25
attr experiment Stability2
attr inifile omnetpp.ini
attr iterationvars $0=30
attr iterationvars2 "$0=30, $repetition=6"
attr measurement $0=30
attr network Network
attr processid 26640
attr repetition 6
attr replication #6
attr resultdir results
attr runnumber 66
attr seedset 66

vector 201066  Network.churner  inGoingSizeSig:vector  ETV
vector 198072  Network.dyn_peer[2]  lookupHopsSig:vector  ETV
vector 198073  Network.dyn_peer[2]  lookupStabilitySig:vector  ETV
vector 198074  Network.dyn_peer[2]  lookupTimeSig:vector  ETV
vector 198081  Network.dyn_peer[5]  lookupHopsSig:vector  ETV
vector 198082  Network.dyn_peer[5]  lookupStabilitySig:vector  ETV
vector 198083  Network.dyn_peer[5]  lookupTimeSig:vector  ETV
vector 198123  Network.dyn_peer[19]  lookupHopsSig:vector  ETV
vector 198124  Network.dyn_peer[19]  lookupStabilitySig:vector  ETV
vector 198125  Network.dyn_peer[19]  lookupTimeSig:vector  ETV
vector 198126  Network.dyn_peer[20]  lookupHopsSig:vector  ETV
vector 198127  Network.dyn_peer[20]  lookupStabilitySig:vector  ETV
vector 198128  Network.dyn_peer[20]  lookupTimeSig:vector  ETV
vector 198141  Network.dyn_peer[25]  lookupHopsSig:vector  ETV
vector 198142  Network.dyn_peer[25]  lookupStabilitySig:vector  ETV
vector 198143  Network.dyn_peer[25]  lookupTimeSig:vector  ETV
vector 198075  Network.dyn_peer[3]  lookupHopsSig:vector  ETV
vector 198076  Network.dyn_peer[3]  lookupStabilitySig:vector  ETV
vector 198077  Network.dyn_peer[3]  lookupTimeSig:vector  ETV
vector 198087  Network.dyn_peer[7]  lookupHopsSig:vector  ETV
vector 198088  Network.dyn_peer[7]  lookupStabilitySig:vector  ETV
vector 198089  Network.dyn_peer[7]  lookupTimeSig:vector  ETV
vector 198102  Network.dyn_peer[12]  lookupHopsSig:vector  ETV
vector 198103  Network.dyn_peer[12]  lookupStabilitySig:vector  ETV
vector 198104  Network.dyn_peer[12]  lookupTimeSig:vector  ETV
vector 198105  Network.dyn_peer[13]  lookupHopsSig:vector  ETV
vector 198106  Network.dyn_peer[13]  lookupStabilitySig:vector  ETV
vector 198107  Network.dyn_peer[13]  lookupTimeSig:vector  ETV
vector 198108  Network.dyn_peer[14]  lookupHopsSig:vector  ETV
vector 198109  Network.dyn_peer[14]  lookupStabilitySig:vector  ETV
vector 198110  Network.dyn_peer[14]  lookupTimeSig:vector  ETV
vector 198120  Network.dyn_peer[18]  lookupHopsSig:vector  ETV
vector 198121  Network.dyn_peer[18]  lookupStabilitySig:vector  ETV
vector 198122  Network.dyn_peer[18]  lookupTimeSig:vector  ETV
vector 198135  Network.dyn_peer[23]  lookupHopsSig:vector  ETV
vector 198136  Network.dyn_peer[23]  lookupStabilitySig:vector  ETV
vector 198137  Network.dyn_peer[23]  lookupTimeSig:vector  ETV
vector 198069  Network.dyn_peer[1]  lookupHopsSig:vector  ETV
vector 198070  Network.dyn_peer[1]  lookupStabilitySig:vector  ETV
vector 198071  Network.dyn_peer[1]  lookupTimeSig:vector  ETV
vector 198078  Network.dyn_peer[4]  lookupHopsSig:vector  ETV
vector 198079  Network.dyn_peer[4]  lookupStabilitySig:vector  ETV
vector 198080  Network.dyn_peer[4]  lookupTimeSig:vector  ETV
vector 198111  Network.dyn_peer[15]  lookupHopsSig:vector  ETV
vector 198112  Network.dyn_peer[15]  lookupStabilitySig:vector  ETV
vector 198113  Network.dyn_peer[15]  lookupTimeSig:vector  ETV
vector 198114  Network.dyn_peer[16]  lookupHopsSig:vector  ETV
vector 198115  Network.dyn_peer[16]  lookupStabilitySig:vector  ETV
vector 198116  Network.dyn_peer[16]  lookupTimeSig:vector  ETV
vector 198117  Network.dyn_peer[17]  lookupHopsSig:vector  ETV
vector 198118  Network.dyn_peer[17]  lookupStabilitySig:vector  ETV
vector 198119  Network.dyn_peer[17]  lookupTimeSig:vector  ETV
vector 198132  Network.dyn_peer[22]  lookupHopsSig:vector  ETV
vector 198133  Network.dyn_peer[22]  lookupStabilitySig:vector  ETV
vector 198134  Network.dyn_peer[22]  lookupTimeSig:vector  ETV
vector 198138  Network.dyn_peer[24]  lookupHopsSig:vector  ETV
vector 198139  Network.dyn_peer[24]  lookupStabilitySig:vector  ETV
vector 198140  Network.dyn_peer[24]  lookupTimeSig:vector  ETV
vector 198144  Network.dyn_peer[26]  lookupHopsSig:vector  ETV
vector 198145  Network.dyn_peer[26]  lookupStabilitySig:vector  ETV
vector 198146  Network.dyn_peer[26]  lookupTimeSig:vector  ETV
vector 198147  Network.dyn_peer[27]  lookupHopsSig:vector  ETV
vector 198148  Network.dyn_peer[27]  lookupStabilitySig:vector  ETV
vector 198149  Network.dyn_peer[27]  lookupTimeSig:vector  ETV
vector 198153  Network.dyn_peer[29]  lookupHopsSig:vector  ETV
vector 198154  Network.dyn_peer[29]  lookupStabilitySig:vector  ETV
vector 198155  Network.dyn_peer[29]  lookupTimeSig:vector  ETV
vector 198093  Network.dyn_peer[9]  lookupHopsSig:vector  ETV
vector 198094  Network.dyn_peer[9]  lookupStabilitySig:vector  ETV
vector 198095  Network.dyn_peer[9]  lookupTimeSig:vector  ETV
vector 198084  Network.dyn_peer[6]  lookupHopsSig:vector  ETV
vector 198085  Network.dyn_peer[6]  lookupStabilitySig:vector  ETV
vector 198086  Network.dyn_peer[6]  lookupTimeSig:vector  ETV
vector 198090  Network.dyn_peer[8]  lookupHopsSig:vector  ETV
vector 198091  Network.dyn_peer[8]  lookupStabilitySig:vector  ETV
vector 198092  Network.dyn_peer[8]  lookupTimeSig:vector  ETV
vector 198129  Network.dyn_peer[21]  lookupHopsSig:vector  ETV
vector 198130  Network.dyn_peer[21]  lookupStabilitySig:vector  ETV
vector 198131  Network.dyn_peer[21]  lookupTimeSig:vector  ETV
vector 198096  Network.dyn_peer[10]  lookupHopsSig:vector  ETV
vector 198097  Network.dyn_peer[10]  lookupStabilitySig:vector  ETV
vector 198098  Network.dyn_peer[10]  lookupTimeSig:vector  ETV
vector 198099  Network.dyn_peer[11]  lookupHopsSig:vector  ETV
vector 198100  Network.dyn_peer[11]  lookupStabilitySig:vector  ETV
vector 198101  Network.dyn_peer[11]  lookupTimeSig:vector  ETV
vector 198066  Network.dyn_peer[0]  lookupHopsSig:vector  ETV
vector 198067  Network.dyn_peer[0]  lookupStabilitySig:vector  ETV
vector 198068  Network.dyn_peer[0]  lookupTimeSig:vector  ETV
vector 198150  Network.dyn_peer[28]  lookupHopsSig:vector  ETV
vector 198151  Network.dyn_peer[28]  lookupStabilitySig:vector  ETV
vector 198152  Network.dyn_peer[28]  lookupTimeSig:vector  ETV
198066	456	20.701	7
198066	681	21.201	4
198066	778	21.503764106693	2
198067	456	20.701	-0.16666662693024
198067	681	21.201	0.7647058814764
198067	778	21.503764106693	0.92857142537832
198068	456	20.701	0.7
198068	681	21.201	0.5
198068	778	21.503764106693	0.3
198069	185	20.202	2
198069	301	20.402	1
198069	498	20.802475738453	3
198070	185	20.202	0.59999999403954
198070	301	20.402	0.79999999701977
198070	498	20.802475738453	0.5714285671711
198071	185	20.202	0.2
198071	301	20.402	0.2
198071	498	20.802475738453	0.4
198072	23	20.003	0
198072	187	20.203	1
198072	646	21.116272652199	8
198073	23	20.003	1
198073	187	20.203	0.79999999701977
198073	646	21.116272652199	0.46666663885117
198074	23	20.003	0
198074	187	20.203	0.2
198074	646	21.116272652199	0.9
198075	128	20.104	1
198075	401	20.604	4
198075	590	21.00697111924	3
198075	722	21.315307587781	2
198076	128	20.104	0.79999999701977
198076	401	20.604	0.19999998807907
198076	590	21.00697111924	0.72727271914482
198076	722	21.315307587781	0.89999999850988
198077	128	20.104	0.1
198077	401	20.604	0.5
198077	590	21.00697111924	0.4
198077	722	21.315307587781	0.3
198078	193	20.205	2
198078	588	21.005	7
198078	687	21.212282399325	1
198079	193	20.205	0.59999999403954
198079	588	21.005	0.36363637447357
198079	687	21.212282399325	0.9411764703691
198080	193	20.205	0.2
198080	588	21.005	0.8
198080	687	21.212282399325	0.2
198081	36	20.006	0
198081	355	20.506	4
198081	503	20.807731298703	2
198082	36	20.006	1
198082	355	20.506	0.19999998807907
198082	503	20.807731298703	0.71428570151329
198083	36	20.006	0
198083	355	20.506	0.5
198083	503	20.807731298703	0.3
198084	310	20.407	4
198084	592	21.007	5
198084	690	21.213854882237	1
198084	748	21.414109196834	1
198085	310	20.407	0.19999998807907
198085	592	21.007	0.54545453190804
198085	690	21.213854882237	0.94444444403052
198085	748	21.414109196834	0.9545454531908
198086	310	20.407	0.4
198086	592	21.007	0.6
198086	690	21.213854882237	0.2
198086	748	21.414109196834	0.2
198087	136	20.108	1
198087	558	20.908	7
198087	695	21.215481771165	2
198088	136	20.108	0.79999999701977
198088	558	20.908	0.36363637447357
198088	695	21.215481771165	0.88888888806105
198089	136	20.108	0.1
198089	558	20.908	0.8
198089	695	21.215481771165	0.3
198090	317	20.409	4
198090	465	20.709	2
198091	317	20.409	0.19999998807907
198091	465	20.709	0.66666665673256
198092	317	20.409	0.4
198092	465	20.709	0.3
198093	273	20.31	3
198093	745	21.41	10
198093	811	21.71429566394	2
198093	848	22.022895833627	2
198093	875	22.424269211381	3
198093	897	22.827170352475	3
198094	273	20.31	0.39999997615814
198094	745	21.41	0.54545453190804
198094	811	21.71429566394	0.9333333298564
198094	848	22.022895833627	0.93548387289047
198094	875	22.424269211381	0.90625
198094	897	22.827170352475	0.90625
198095	273	20.31	0.3
198095	745	21.41	1.1
198095	811	21.71429566394	0.3
198095	848	22.022895833627	0.3
198095	875	22.424269211381	0.4
198095	897	22.827170352475	0.4
198096	366	20.511	5
198096	568	20.920809448341	3
198096	712	21.233871900765	2
198096	772	21.441199726518	1
198097	366	20.511	0
198097	568	20.920809448341	0.72727271914482
198097	712	21.233871900765	0.89999999850988
198097	772	21.441199726518	0.96153846010566
198098	366	20.511	0.5
198098	568	20.920809448341	0.4
198098	712	21.233871900765	0.3
198098	772	21.441199726518	0.2
198099	414	20.612	6
198099	596	21.012	3
198099	781	21.512671714339	4
198099	834	21.918887064182	3
198099	860	22.22165900205	2
198099	888	22.629064530704	3
198099	912	23.132490486362	4
198099	924	23.540062173557	3
198100	414	20.612	-0.20000004768372
198100	596	21.012	0.72727271914482
198100	781	21.512671714339	0.86206896603107
198100	834	21.918887064182	0.90322580933571
198100	860	22.22165900205	0.9375
198100	888	22.629064530704	0.90625
198100	912	23.132490486362	0.87878787517548
198100	924	23.540062173557	0.90909090638161
198101	414	20.612	0.6
198101	596	21.012	0.4
198101	781	21.512671714339	0.5
198101	834	21.918887064182	0.4
198101	860	22.22165900205	0.3
198101	888	22.629064530704	0.4
198101	912	23.132490486362	0.5
198101	924	23.540062173557	0.4
198102	145	20.113	1
198102	416	20.613	4
198102	697	21.219513341696	5
198103	145	20.113	0.79999999701977
198103	416	20.613	0.19999998807907
198103	697	21.219513341696	0.72222220897675
198104	145	20.113	0.1
198104	416	20.613	0.5
198104	697	21.219513341696	0.6
198105	150	20.114	1
198105	418	20.614	4
198105	615	21.025552109647	3
198105	756	21.429194809174	3
198106	150	20.114	0.79999999701977
198106	418	20.614	0.19999998807907
198106	615	21.025552109647	0.75
198106	756	21.429194809174	0.86956521868706
198107	150	20.114	0.1
198107	418	20.614	0.5
198107	615	21.025552109647	0.4
198107	756	21.429194809174	0.4
198108	155	20.115	1
198108	510	20.815	6
198108	644	21.11599691641	2
198108	752	21.423137375248	2
198109	155	20.115	0.79999999701977
198109	510	20.815	0.25
198109	644	21.11599691641	0.86666665971279
198109	752	21.423137375248	0.91304347664118
198110	155	20.115	0.1
198110	510	20.815	0.7
198110	644	21.11599691641	0.3
198110	752	21.423137375248	0.3
198111	210	20.216	2
198111	470	20.716	4
198111	607	21.020615038498	2
198112	210	20.216	0.59999999403954
198112	470	20.716	0.33333331346512
198112	607	21.020615038498	0.81818181276321
198113	210	20.216	0.2
198113	470	20.716	0.5
198113	607	21.020615038498	0.3
198114	216	20.217	2
198114	515	20.817	5
198114	653	21.123641810655	2
198114	754	21.424959324202	2
198114	851	22.033843376887	5
198115	216	20.217	0.59999999403954
198115	515	20.817	0.44444441795349
198115	653	21.123641810655	0.875
198115	754	21.424959324202	0.91304347664118
198115	851	22.033843376887	0.83870968222618
198116	216	20.217	0.2
198116	515	20.817	0.6
198116	653	21.123641810655	0.3
198116	754	21.424959324202	0.3
198116	851	22.033843376887	0.6
198117	221	20.218	2
198117	648	21.118	8
198117	774	21.445603572727	2
198118	221	20.218	0.59999999403954
198118	648	21.118	0.46666663885117
198118	774	21.445603572727	0.92307692021132
198119	221	20.218	0.2
198119	648	21.118	0.9
198119	774	21.445603572727	0.3
198120	163	20.119	1
198120	428	20.619	4
198120	609	21.021283625132	3
198121	163	20.119	0.79999999701977
198121	428	20.619	0.19999998807907
198121	609	21.021283625132	0.72727271914482
198122	163	20.119	0.1
198122	428	20.619	0.5
198122	609	21.021283625132	0.4
198123	82	20.02	0
198123	431	20.62	5
198123	663	21.129698448879	4
198124	82	20.02	1
198124	431	20.62	0
198124	663	21.129698448879	0.75
198125	82	20.02	0
198125	431	20.62	0.6
198125	663	21.129698448879	0.5
198126	89	20.021	0
198126	379	20.521	4
198126	611	21.023550283016	4
198127	89	20.021	1
198127	379	20.521	0.19999998807907
198127	611	21.023550283016	0.63636362552643
198128	89	20.021	0
198128	379	20.521	0.5
198128	611	21.023550283016	0.5
198129	335	20.422	4
198129	522	20.822	3
198129	667	21.130944518833	2
198129	759	21.431462437803	2
198130	335	20.422	0.19999998807907
198130	522	20.822	0.66666665673256
198130	667	21.130944518833	0.8823529407382
198130	759	21.431462437803	0.92000000178814
198131	335	20.422	0.4
198131	522	20.822	0.4
198131	667	21.130944518833	0.3
198131	759	21.431462437803	0.3
198132	230	20.223	2
198132	382	20.523	2
198132	659	21.128134924661	5
198132	816	21.73321308163	5
198133	230	20.223	0.59999999403954
198133	382	20.523	0.59999999403954
198133	659	21.128134924661	0.6875
198133	816	21.73321308163	0.83333332836628
198134	230	20.223	0.2
198134	382	20.523	0.3
198134	659	21.128134924661	0.6
198134	816	21.73321308163	0.6
198135	172	20.124	1
198135	526	20.824	6
198136	172	20.124	0.79999999701977
198136	526	20.824	0.33333331346512
198137	172	20.124	0.1
198137	526	20.824	0.7
198138	237	20.225	2
198138	387	20.525	2
198138	533	20.826385068227	2
198138	619	21.027187952445	1
198139	237	20.225	0.59999999403954
198139	387	20.525	0.59999999403954
198139	533	20.826385068227	0.79999999701977
198139	619	21.027187952445	0.92307692021132
198140	237	20.225	0.2
198140	387	20.525	0.3
198140	533	20.826385068227	0.3
198140	619	21.027187952445	0.2
198141	108	20.026	0
198141	530	20.826	7
198142	108	20.026	1
198142	530	20.826	0.22222220897675
198143	108	20.026	0
198143	530	20.826	0.8
198144	243	20.227	2
198144	348	20.437202174204	1
198144	450	20.63971225656	1
198145	243	20.227	0.59999999403954
198145	348	20.437202174204	0.79999999701977
198145	450	20.63971225656	0.79999999701977
198146	243	20.227	0.2
198146	348	20.437202174204	0.2
198146	450	20.63971225656	0.2
198147	249	20.228	2
198147	726	21.328	10
198148	249	20.228	0.59999999403954
198148	726	21.328	0.52380952239037
198149	249	20.228	0.2
198149	726	21.328	1.1
198150	545	20.829	8
198150	728	21.329	4
198150	820	21.737151041883	3
198150	841	21.938150371203	1
198150	865	22.247929021512	2
198150	883	22.548912016452	2
198150	907	22.958653939923	3
198150	917	23.265104005222	2
198150	927	23.572812074559	2
198150	932	23.878614755846	2
198151	545	20.829	0.27272725105286
198151	728	21.329	0.80952380597591
198151	820	21.737151041883	0.90322580933571
198151	841	21.938150371203	0.96774193644524
198151	865	22.247929021512	0.9375
198151	883	22.548912016452	0.9375
198151	907	22.958653939923	0.90909090638161
198151	917	23.265104005222	0.93939393758774
198151	927	23.572812074559	0.9411764703691
198151	932	23.878614755846	0.9411764703691
198152	545	20.829	0.8
198152	728	21.329	0.5
198152	820	21.737151041883	0.4
198152	841	21.938150371203	0.2
198152	865	22.247929021512	0.3
198152	883	22.548912016452	0.3
198152	907	22.958653939923	0.4
198152	917	23.265104005222	0.3
198152	927	23.572812074559	0.3
198152	932	23.878614755846	0.3
198153	255	20.23	2
198153	665	21.13	8
198153	734	21.332426983269	1
198153	798	21.635687485166	2
198154	255	20.23	0.59999999403954
198154	665	21.13	0.5294117629528
198154	734	21.332426983269	0.95238095149398
198154	798	21.635687485166	0.93103448301554
198155	255	20.23	0.2
198155	665	21.13	0.9
198155	734	21.332426983269	0.2
198155	798	21.635687485166	0.3
201066	10	20	0
201066	11	20.001	0
201066	14	20.002	1
201066	17	20.003	2
201066	24	20.004	3
201066	27	20.005	4
201066	30	20.006	5
201066	37	20.007	6
201066	40	20.008	7
201066	43	20.009	8
201066	46	20.01	9
201066	49	20.011	10
201066	52	20.012	11
201066	55	20.013	12
201066	58	20.014	13
201066	61	20.015	14
201066	64	20.016	15
201066	67	20.017	16
201066	70	20.018	17
201066	73	20.019	18
201066	76	20.02	19
201066	83	20.021	20
201066	90	20.022	21
201066	93	20.023	22
201066	96	20.024	23
201066	99	20.025	24
201066	102	20.026	25
201066	109	20.027	26
201066	112	20.028	27
201066	115	20.029	28
201066	118	20.03	29
