file 222489 1369674129                                          
version 2
run Stability2-228-20130526-00:52:45-26640
attr configname Stability2
attr datetime 20130526-00:52:45
attr experiment Stability2
attr inifile omnetpp.ini
attr iterationvars $0=300
attr iterationvars2 "$0=300, $repetition=18"
attr measurement $0=300
attr network Network
attr processid 26640
attr repetition 18
attr replication #18
attr resultdir results
attr runnumber 228
attr seedset 228
vector 687228  Network.churner  inGoingSizeSig:vector  ETV
687228	215970 6519 11 1377 20 20.3 301 0 299 44850 8955050
vector 684243  Network.dyn_peer[5]  lookupHopsSig:vector  ETV
684243	61283 102 33 12848 20.006 23.61673400424 4 0 18 33 477
vector 684244  Network.dyn_peer[5]  lookupStabilitySig:vector  ETV
684244	61385 147 33 12848 20.006 23.61673400424 4 -0.090909123420715 1 2.0658476054668 1.7409452324492
vector 684245  Network.dyn_peer[5]  lookupTimeSig:vector  ETV
684245	61532 106 33 12848 20.006 23.61673400424 4 0 1.9 3.6 5.46
vector 684258  Network.dyn_peer[10]  lookupHopsSig:vector  ETV
684258	63663 82 53 16744 20.011 25.123208310649 3 0 30 49 1261
vector 684259  Network.dyn_peer[10]  lookupStabilitySig:vector  ETV
684259	63745 111 53 16744 20.011 25.123208310649 3 -0.35714280605316 1 1.4285714775324 1.7448979193459
vector 684260  Network.dyn_peer[10]  lookupTimeSig:vector  ETV
684260	63856 82 53 16744 20.011 25.123208310649 3 0 3.1 5.1 13.61
vector 684276  Network.dyn_peer[16]  lookupHopsSig:vector  ETV
684276	66600 71 78 8579 20.017 22.318405179474 3 0 14 21 245
vector 684277  Network.dyn_peer[16]  lookupStabilitySig:vector  ETV
684277	66671 89 78 8579 20.017 22.318405179474 3 -0.75 1 0.91666665673256 2.006944431199
vector 684278  Network.dyn_peer[16]  lookupTimeSig:vector  ETV
684278	66760 74 78 8579 20.017 22.318405179474 3 0 1.5 2.3 2.89
vector 684279  Network.dyn_peer[17]  lookupHopsSig:vector  ETV
684279	66834 135 85 16093 20.018 24.830721627484 5 0 22 44 714
vector 684280  Network.dyn_peer[17]  lookupStabilitySig:vector  ETV
684280	66969 182 85 16093 20.018 24.830721627484 5 -0.75 1 2.9197943657637 3.9732527321616
vector 684281  Network.dyn_peer[17]  lookupTimeSig:vector  ETV
684281	67151 141 85 16093 20.018 24.830721627484 5 0 2.3 4.8 8.06
vector 684291  Network.dyn_peer[21]  lookupHopsSig:vector  ETV
684291	69423 196 101 16174 20.022 24.866834170942 7 0 15 42 454
vector 684292  Network.dyn_peer[21]  lookupStabilitySig:vector  ETV
684292	69619 284 101 16174 20.022 24.866834170942 7 0.16666668653488 1 4.9668824076653 4.17046193038
vector 684293  Network.dyn_peer[21]  lookupTimeSig:vector  ETV
684293	69903 206 101 16174 20.022 24.866834170942 7 0 1.6 4.8 5.44
vector 684303  Network.dyn_peer[25]  lookupHopsSig:vector  ETV
684303	72005 227 119 20617 20.026 27.759601731201 8 0 22 70 980
vector 684304  Network.dyn_peer[25]  lookupStabilitySig:vector  ETV
684304	72232 319 119 20617 20.026 27.759601731201 8 -0.66666662693024 1 5.4041916429996 5.8630052716732
vector 684305  Network.dyn_peer[25]  lookupTimeSig:vector  ETV
684305	72551 238 119 20617 20.026 27.759601731201 8 0 2.3 7.7 11.27
vector 684366  Network.dyn_peer[46]  lookupHopsSig:vector  ETV
684366	81152 104 188 10441 20.047 22.855533615327 4 0 11 25 237
vector 684367  Network.dyn_peer[46]  lookupStabilitySig:vector  ETV
684367	81256 148 188 10441 20.047 22.855533615327 4 -0.57142853736877 1 1.885137103498 2.4541746725664
vector 684368  Network.dyn_peer[46]  lookupTimeSig:vector  ETV
684368	81404 108 188 10441 20.047 22.855533615327 4 0 1.2 2.8 2.9
vector 684432  Network.dyn_peer[68]  lookupHopsSig:vector  ETV
684432	91910 269 258 19762 20.069 26.915300423577 9 0 16 60 552
vector 684433  Network.dyn_peer[68]  lookupStabilitySig:vector  ETV
684433	92179 386 258 19762 20.069 26.915300423577 9 -0.45454549789429 1 7.0669729635119 7.3091284326632
vector 684434  Network.dyn_peer[68]  lookupTimeSig:vector  ETV
684434	92565 283 258 19762 20.069 26.915300423577 9 0 1.7 6.8 6.8
vector 684447  Network.dyn_peer[73]  lookupHopsSig:vector  ETV
684447	95238 166 277 18985 20.074 26.335279065759 6 0 25 49 805
vector 684448  Network.dyn_peer[73]  lookupStabilitySig:vector  ETV
684448	95404 238 277 18985 20.074 26.335279065759 6 0.3243243098259 1 5.157408492174 4.7805697962643
vector 684449  Network.dyn_peer[73]  lookupTimeSig:vector  ETV
684449	95642 173 277 18985 20.074 26.335279065759 6 0 2.6 5.4 9.08
vector 684459  Network.dyn_peer[77]  lookupHopsSig:vector  ETV
684459	97500 75 294 17297 20.078 25.384322440113 3 0 28 51 1313
vector 684460  Network.dyn_peer[77]  lookupStabilitySig:vector  ETV
684460	97575 103 294 17297 20.078 25.384322440113 3 0.42857140302658 1 2.2772556096315 1.9039383300329
vector 684461  Network.dyn_peer[77]  lookupTimeSig:vector  ETV
684461	97678 77 294 17297 20.078 25.384322440113 3 0 2.9 5.3 14.17
vector 684468  Network.dyn_peer[80]  lookupHopsSig:vector  ETV
684468	99280 83 307 16463 20.081 24.994087694837 3 0 28 47 1145
vector 684469  Network.dyn_peer[80]  lookupStabilitySig:vector  ETV
684469	99363 112 307 16463 20.081 24.994087694837 3 -0.35714280605316 1 1.436974838376 1.7581738171093
vector 684470  Network.dyn_peer[80]  lookupTimeSig:vector  ETV
684470	99475 83 307 16463 20.081 24.994087694837 3 0 2.9 4.9 12.41
vector 684474  Network.dyn_peer[82]  lookupHopsSig:vector  ETV
684474	99938 134 317 14510 20.083 24.207213762852 5 0 14 37 457
vector 684475  Network.dyn_peer[82]  lookupStabilitySig:vector  ETV
684475	100072 193 317 14510 20.083 24.207213762852 5 -0.14285719394684 1 3.1671428084373 2.8225081798174
vector 684476  Network.dyn_peer[82]  lookupTimeSig:vector  ETV
684476	100265 140 317 14510 20.083 24.207213762852 5 0 1.5 4.1 5.35
vector 684498  Network.dyn_peer[90]  lookupHopsSig:vector  ETV
684498	104799 73 347 11859 20.091 23.296618717488 3 0 23 30 578
vector 684499  Network.dyn_peer[90]  lookupStabilitySig:vector  ETV
684499	104872 103 347 11859 20.091 23.296618717488 3 -0.39999997615814 1 1.2349206507206 1.5631241833626
vector 684500  Network.dyn_peer[90]  lookupTimeSig:vector  ETV
684500	104975 76 347 11859 20.091 23.296618717488 3 0 2.4 3.2 6.4
vector 684501  Network.dyn_peer[91]  lookupHopsSig:vector  ETV
684501	105051 258 354 21289 20.092 28.671017320509 9 0 15 69 675
vector 684502  Network.dyn_peer[91]  lookupStabilitySig:vector  ETV
684502	105309 377 354 21289 20.092 28.671017320509 9 -0.20000004768372 1 6.6880414783955 6.4779327819169
vector 684503  Network.dyn_peer[91]  lookupTimeSig:vector  ETV
684503	105686 270 354 21289 20.092 28.671017320509 9 0 1.6 7.7 8.21
vector 684246  Network.dyn_peer[6]  lookupHopsSig:vector  ETV
684246	61638 103 410 16204 20.107 24.880686831318 4 1 26 38 762
vector 684247  Network.dyn_peer[6]  lookupStabilitySig:vector  ETV
684247	61741 150 410 16204 20.107 24.880686831318 4 -0.5 0.80451127886772 1.8187969774008 2.0474424564433
vector 684248  Network.dyn_peer[6]  lookupTimeSig:vector  ETV
684248	61891 108 410 16204 20.107 24.880686831318 4 0.1 2.7 4.1 8.39
vector 684546  Network.dyn_peer[106]  lookupHopsSig:vector  ETV
684546	112812 103 416 11290 20.107 23.118567014745 4 0 14 27 293
vector 684547  Network.dyn_peer[106]  lookupStabilitySig:vector  ETV
684547	112915 148 416 11290 20.107 23.118567014745 4 -0.55555558204651 1 2.0198830068111 2.555561046928
vector 684548  Network.dyn_peer[106]  lookupTimeSig:vector  ETV
684548	113063 106 416 11290 20.107 23.118567014745 4 0 1.5 3 3.5
vector 684264  Network.dyn_peer[12]  lookupHopsSig:vector  ETV
684264	64646 106 441 18472 20.113 26.015920240491 4 1 30 57 1289
vector 684265  Network.dyn_peer[12]  lookupStabilitySig:vector  ETV
684265	64752 164 441 18472 20.113 26.015920240491 4 0.52380952239037 0.95628415420651 3.1496588923037 2.5849994641152
vector 684266  Network.dyn_peer[12]  lookupTimeSig:vector  ETV
684266	64916 112 441 18472 20.113 26.015920240491 4 0.1 3.1 6 14.04
vector 684309  Network.dyn_peer[27]  lookupHopsSig:vector  ETV
684309	73053 74 507 11338 20.128 23.133695700589 3 1 17 29 411
vector 684310  Network.dyn_peer[27]  lookupStabilitySig:vector  ETV
684310	73127 118 507 11338 20.128 23.133695700589 3 -0.57142853736877 0.79999999701977 0.94523812830449 1.4801416825099
vector 684311  Network.dyn_peer[27]  lookupTimeSig:vector  ETV
684311	73245 78 507 11338 20.128 23.133695700589 3 0.1 1.8 3.1 4.69
vector 684318  Network.dyn_peer[30]  lookupHopsSig:vector  ETV
684318	74191 42 523 9688 20.131 22.631 2 1 24 25 577
vector 684319  Network.dyn_peer[30]  lookupStabilitySig:vector  ETV
684319	74233 71 523 9688 20.131 22.631 2 0.31428569555283 0.79999999701977 1.1142856925726 0.73877549366076
vector 684320  Network.dyn_peer[30]  lookupTimeSig:vector  ETV
684320	74304 45 523 9688 20.131 22.631 2 0.1 2.5 2.6 6.26
vector 684330  Network.dyn_peer[34]  lookupHopsSig:vector  ETV
684330	75599 105 545 14342 20.135 24.144765858288 4 1 30 38 926
vector 684331  Network.dyn_peer[34]  lookupStabilitySig:vector  ETV
684331	75704 163 545 14342 20.135 24.144765858288 4 0.52380952239037 0.96052631735802 3.2430987246335 2.7562134924636
vector 684332  Network.dyn_peer[34]  lookupTimeSig:vector  ETV
684332	75867 112 545 14342 20.135 24.144765858288 4 0.1 3.1 4.1 10.03
vector 684375  Network.dyn_peer[49]  lookupHopsSig:vector  ETV
684375	81938 164 609 18216 20.15 25.872466841091 6 1 12 42 374
vector 684376  Network.dyn_peer[49]  lookupStabilitySig:vector  ETV
684376	82102 240 609 18216 20.15 25.872466841091 6 -0.5 0.95906432718039 3.8239889219403 4.0403285515881
vector 684377  Network.dyn_peer[49]  lookupTimeSig:vector  ETV
684377	82342 174 609 18216 20.15 25.872466841091 6 0.1 1.3 4.7 4.61
vector 684684  Network.dyn_peer[152]  lookupHopsSig:vector  ETV
684684	136819 352 627 22248 20.153 30.685106587687 12 0 17 90 986
vector 684685  Network.dyn_peer[152]  lookupStabilitySig:vector  ETV
684685	137171 497 627 22248 20.153 30.685106587687 12 0 1 9.6684195189737 9.1102383689415
vector 684686  Network.dyn_peer[152]  lookupTimeSig:vector  ETV
684686	137668 369 627 22248 20.153 30.685106587687 12 0 1.8 10.1 11.77
vector 684417  Network.dyn_peer[63]  lookupHopsSig:vector  ETV
684417	88930 133 673 10517 20.164 22.879702046999 5 1 11 24 194
vector 684418  Network.dyn_peer[63]  lookupStabilitySig:vector  ETV
684418	89063 207 673 10517 20.164 22.879702046999 5 -0.57142853736877 0.95652173832059 2.6818252205849 3.0759195244367
vector 684419  Network.dyn_peer[63]  lookupTimeSig:vector  ETV
684419	89270 142 673 10517 20.164 22.879702046999 5 0.1 1.2 2.8 2.44
vector 684723  Network.dyn_peer[165]  lookupHopsSig:vector  ETV
684723	143683 103 687 10217 20.166 22.780724846963 4 0 15 23 259
vector 684724  Network.dyn_peer[165]  lookupStabilitySig:vector  ETV
684724	143786 131 687 10217 20.166 22.780724846963 4 0 1 2.3533094823361 2.0443266924954
vector 684725  Network.dyn_peer[165]  lookupTimeSig:vector  ETV
684725	143917 108 687 10217 20.166 22.780724846963 4 0 1.6 2.6 3.08
vector 684483  Network.dyn_peer[85]  lookupHopsSig:vector  ETV
684483	102043 105 769 16018 20.186 24.793787008122 4 1 19 41 623
vector 684484  Network.dyn_peer[85]  lookupStabilitySig:vector  ETV
684484	102148 164 769 16018 20.186 24.793787008122 4 -0.11764705181122 0.90322580933571 2.4692996814847 2.2506203633941
vector 684485  Network.dyn_peer[85]  lookupTimeSig:vector  ETV
684485	102312 109 769 16018 20.186 24.793787008122 4 0.1 2 4.4 7.06
vector 684228  Network.dyn_peer[0]  lookupHopsSig:vector  ETV
684228	59230 137 835 17946 20.201 25.722033985062 5 2 25 53 915
vector 684229  Network.dyn_peer[0]  lookupStabilitySig:vector  ETV
684229	59367 208 835 17946 20.201 25.722033985062 5 0.43181818723679 0.964071854949 3.8230300471187 3.150108528865
vector 684230  Network.dyn_peer[0]  lookupTimeSig:vector  ETV
684230	59575 145 835 17946 20.201 25.722033985062 5 0.2 2.6 5.7 10.21
vector 684267  Network.dyn_peer[13]  lookupHopsSig:vector  ETV
684267	65028 136 904 17597 20.214 25.528269255356 5 1 21 51 851
vector 684268  Network.dyn_peer[13]  lookupStabilitySig:vector  ETV
684268	65164 209 904 17597 20.214 25.528269255356 5 0.22222220897675 0.98666666634381 3.5647346768528 2.9246022495948
vector 684269  Network.dyn_peer[13]  lookupTimeSig:vector  ETV
684269	65373 142 904 17597 20.214 25.528269255356 5 0.2 2.2 5.5 9.53
vector 684582  Network.dyn_peer[118]  lookupHopsSig:vector  ETV
684582	121008 105 934 15641 20.219 24.642582349001 4 1 26 42 830
vector 684583  Network.dyn_peer[118]  lookupStabilitySig:vector  ETV
684583	121113 149 934 15641 20.219 24.642582349001 4 -0.5 0.975206611678 2.0177808534354 2.3924444396398
vector 684584  Network.dyn_peer[118]  lookupTimeSig:vector  ETV
684584	121262 111 934 15641 20.219 24.642582349001 4 0.1 2.7 4.5 9.15
vector 684594  Network.dyn_peer[122]  lookupHopsSig:vector  ETV
684594	122656 166 958 18528 20.223 26.045682876396 6 1 31 54 1108
vector 684595  Network.dyn_peer[122]  lookupStabilitySig:vector  ETV
684595	122822 255 958 18528 20.223 26.045682876396 6 0.54411765933037 0.97029702924192 5.1788841094822 4.6128190380192
vector 684596  Network.dyn_peer[122]  lookupTimeSig:vector  ETV
684596	123077 177 958 18528 20.223 26.045682876396 6 0.1 3.2 5.9 12.19
vector 684351  Network.dyn_peer[41]  lookupHopsSig:vector  ETV
684351	78917 105 1060 14638 20.242 24.251946547308 4 2 18 39 621
vector 684352  Network.dyn_peer[41]  lookupStabilitySig:vector  ETV
684352	79022 163 1060 14638 20.242 24.251946547308 4 0.37931036949158 0.83168317377567 2.4109935313463 1.5555732436403
vector 684353  Network.dyn_peer[41]  lookupTimeSig:vector  ETV
684353	79185 111 1060 14638 20.242 24.251946547308 4 0.2 1.9 4.2 6.98
vector 684951  Network.dyn_peer[241]  lookupHopsSig:vector  ETV
684951	179633 44 1066 11056 20.242 23.042 2 0 27 27 729
vector 684952  Network.dyn_peer[241]  lookupStabilitySig:vector  ETV
684952	179677 58 1066 11056 20.242 23.042 2 0.47058820724487 1 1.4705882072449 1.2214532607979
vector 684953  Network.dyn_peer[241]  lookupTimeSig:vector  ETV
684953	179735 45 1066 11056 20.242 23.042 2 0 2.8 2.8 7.84
vector 684381  Network.dyn_peer[51]  lookupHopsSig:vector  ETV
684381	82776 105 1118 18379 20.252 25.96395814494 4 2 29 56 1242
vector 684382  Network.dyn_peer[51]  lookupStabilitySig:vector  ETV
684382	82881 148 1118 18379 20.252 25.96395814494 4 0 0.89325843006372 2.1814304664731 1.6314913756268
vector 684383  Network.dyn_peer[51]  lookupTimeSig:vector  ETV
684383	83029 107 1118 18379 20.252 25.96395814494 4 0.2 3 5.9 13.53
vector 684402  Network.dyn_peer[58]  lookupHopsSig:vector  ETV
684402	85619 290 1157 20994 20.259 28.214375393953 10 2 14 72 640
vector 684403  Network.dyn_peer[58]  lookupStabilitySig:vector  ETV
684403	85909 425 1157 20994 20.259 28.214375393953 10 -0.14285719394684 0.97609561681747 7.4558420144021 6.6761706344681
vector 684404  Network.dyn_peer[58]  lookupTimeSig:vector  ETV
684404	86334 306 1157 20994 20.259 28.214375393953 10 0.2 1.5 8.1 7.89
vector 684429  Network.dyn_peer[67]  lookupHopsSig:vector  ETV
684429	91197 200 1206 20812 20.268 27.993621307112 7 2 27 73 1235
vector 684430  Network.dyn_peer[67]  lookupStabilitySig:vector  ETV
684430	91397 302 1206 20812 20.268 27.993621307112 7 0.19999998807907 0.97604790329933 5.2176915165037 4.3844486238696
vector 684431  Network.dyn_peer[67]  lookupTimeSig:vector  ETV
684431	91699 211 1206 20812 20.268 27.993621307112 7 0.2 2.8 7.9 13.83
vector 684729  Network.dyn_peer[167]  lookupHopsSig:vector  ETV
684729	145178 165 1210 19287 20.268 26.544844026725 6 1 25 55 923
vector 684730  Network.dyn_peer[167]  lookupStabilitySig:vector  ETV
684730	145343 253 1210 19287 20.268 26.544844026725 6 -0.27272725105286 0.90322580933571 4.0486351251602 3.8154472073831
vector 684731  Network.dyn_peer[167]  lookupTimeSig:vector  ETV
684731	145596 173 1210 19287 20.268 26.544844026725 6 0.1 2.6 6 10.36
vector 684510  Network.dyn_peer[94]  lookupHopsSig:vector  ETV
684510	107376 76 1352 14777 20.295 24.302320464337 3 2 26 40 824
vector 684511  Network.dyn_peer[94]  lookupStabilitySig:vector  ETV
684511	107452 118 1352 14777 20.295 24.302320464337 3 0.4693877696991 0.88679245114326 1.9561802148819 1.3667257225952
vector 684512  Network.dyn_peer[94]  lookupTimeSig:vector  ETV
684512	107570 80 1352 14777 20.295 24.302320464337 3 0.2 2.7 4.2 9.02
vector 684231  Network.dyn_peer[1]  lookupHopsSig:vector  ETV
684231	59720 105 1389 13106 20.302 23.709776089577 4 3 14 34 362
vector 684232  Network.dyn_peer[1]  lookupStabilitySig:vector  ETV
684232	59825 153 1389 13106 20.302 23.709776089577 4 -0.375 0.81578947603703 1.5074561089277 1.4105818813383
vector 684233  Network.dyn_peer[1]  lookupTimeSig:vector  ETV
684233	59978 111 1389 13106 20.302 23.709776089577 4 0.3 1.5 3.7 4.27
vector 684234  Network.dyn_peer[2]  lookupHopsSig:vector  ETV
684234	60089 164 1396 16415 20.303 24.97047748226 6 1 19 43 537
vector 684235  Network.dyn_peer[2]  lookupStabilitySig:vector  ETV
684235	60253 237 1396 16415 20.303 24.97047748226 6 0 0.97849462367594 4.1605637352914 3.7011039637109
vector 684236  Network.dyn_peer[2]  lookupTimeSig:vector  ETV
684236	60490 169 1396 16415 20.303 24.97047748226 6 0.2 2 4.8 6.22
vector 684534  Network.dyn_peer[102]  lookupHopsSig:vector  ETV
684534	111529 74 1400 13702 20.303 23.909100660376 3 2 27 36 782
vector 684535  Network.dyn_peer[102]  lookupStabilitySig:vector  ETV
684535	111603 119 1400 13702 20.303 23.909100660376 3 -0.16666662693024 0.69318181276321 1.1265151798725 0.86827878292544
vector 684536  Network.dyn_peer[102]  lookupTimeSig:vector  ETV
684536	111722 79 1400 13702 20.303 23.909100660376 3 0.2 2.8 3.8 8.52
vector 684249  Network.dyn_peer[7]  lookupHopsSig:vector  ETV
684249	61999 137 1420 16735 20.308 25.120910198107 5 3 18 47 667
vector 684250  Network.dyn_peer[7]  lookupStabilitySig:vector  ETV
684250	62136 195 1420 16735 20.308 25.120910198107 5 0 0.97841726616025 3.1510827727616 2.69699486227
vector 684251  Network.dyn_peer[7]  lookupTimeSig:vector  ETV
684251	62331 145 1420 16735 20.308 25.120910198107 5 0.3 1.9 5.1 7.59
vector 684567  Network.dyn_peer[113]  lookupHopsSig:vector  ETV
684567	116612 107 1441 16733 20.314 25.120646726466 4 2 17 47 687
vector 684568  Network.dyn_peer[113]  lookupStabilitySig:vector  ETV
684568	116719 155 1441 16733 20.314 25.120646726466 4 -0.0625 0.90579710155725 2.2484919056296 1.8327133141408
vector 684569  Network.dyn_peer[113]  lookupTimeSig:vector  ETV
684569	116874 112 1441 16733 20.314 25.120646726466 4 0.2 1.8 5 7.8
vector 684297  Network.dyn_peer[23]  lookupHopsSig:vector  ETV
684297	70820 229 1477 18532 20.324 26.047553046611 8 1 16 53 577
vector 684298  Network.dyn_peer[23]  lookupStabilitySig:vector  ETV
684298	71049 348 1477 18532 20.324 26.047553046611 8 -0.16666662693024 0.99386503081769 5.8198410095647 5.4153452794982
vector 684299  Network.dyn_peer[23]  lookupTimeSig:vector  ETV
684299	71397 243 1477 18532 20.324 26.047553046611 8 0.2 1.7 6 6.84
vector 684933  Network.dyn_peer[235]  lookupHopsSig:vector  ETV
684933	176583 106 1519 16131 20.336 24.847639317766 4 1 20 43 741
vector 684934  Network.dyn_peer[235]  lookupStabilitySig:vector  ETV
684934	176689 149 1519 16131 20.336 24.847639317766 4 0 0.90697674453259 2.553130581975 2.1785831320165
vector 684935  Network.dyn_peer[235]  lookupTimeSig:vector  ETV
684935	176838 112 1519 16131 20.336 24.847639317766 4 0.1 2.1 4.6 8.28
vector 684357  Network.dyn_peer[43]  lookupHopsSig:vector  ETV
684357	79895 137 1547 16546 20.344 25.034768495611 5 1 20 44 642
vector 684358  Network.dyn_peer[43]  lookupStabilitySig:vector  ETV
684358	80032 210 1547 16546 20.344 25.034768495611 5 0.31034481525421 0.98630136996508 3.5028891935944 2.8604030076287
vector 684359  Network.dyn_peer[43]  lookupTimeSig:vector  ETV
684359	80242 145 1547 16546 20.344 25.034768495611 5 0.2 2.1 4.8 7.28
vector 684681  Network.dyn_peer[151]  lookupHopsSig:vector  ETV
684681	136439 105 1575 13855 20.352 23.961650760944 4 2 15 35 393
vector 684682  Network.dyn_peer[151]  lookupStabilitySig:vector  ETV
684682	136544 164 1575 13855 20.352 23.961650760944 4 -0.14285719394684 0.89247311651707 2.0162825733423 1.6213608656145
vector 684683  Network.dyn_peer[151]  lookupTimeSig:vector  ETV
684683	136708 111 1575 13855 20.352 23.961650760944 4 0.2 1.6 3.8 4.62
vector 684387  Network.dyn_peer[53]  lookupHopsSig:vector  ETV
684387	83404 102 1585 6617 20.354 21.768039150026 4 1 6 14 62
vector 684388  Network.dyn_peer[53]  lookupStabilitySig:vector  ETV
684388	83506 147 1585 6617 20.354 21.768039150026 4 0 0.90909090638161 1.8646464347839 1.2950882286216
vector 684389  Network.dyn_peer[53]  lookupTimeSig:vector  ETV
684389	83653 110 1585 6617 20.354 21.768039150026 4 0.2 0.7 1.7 0.87
vector 685020  Network.dyn_peer[264]  lookupHopsSig:vector  ETV
685020	193229 138 1622 18233 20.365 25.879217781771 5 1 18 52 730
vector 685021  Network.dyn_peer[264]  lookupStabilitySig:vector  ETV
685021	193367 195 1622 18233 20.365 25.879217781771 5 0 0.90643274784088 3.478149920702 3.0314560599392
vector 685022  Network.dyn_peer[264]  lookupTimeSig:vector  ETV
685022	193562 145 1622 18233 20.365 25.879217781771 5 0.1 1.9 5.6 8.36
vector 684744  Network.dyn_peer[172]  lookupHopsSig:vector  ETV
684744	147817 44 1649 18032 20.373 25.773 2 2 53 55 2813
vector 684745  Network.dyn_peer[172]  lookupStabilitySig:vector  ETV
684745	147861 73 1649 18032 20.373 25.773 2 0.59999999403954 0.68639051914215 1.2863905131817 0.83113193761568
vector 684746  Network.dyn_peer[172]  lookupTimeSig:vector  ETV
684746	147934 47 1649 18032 20.373 25.773 2 0.2 5.4 5.6 29.2
vector 684492  Network.dyn_peer[88]  lookupHopsSig:vector  ETV
684492	103728 164 1701 13720 20.389 23.915151321167 6 3 8 33 203
vector 684493  Network.dyn_peer[88]  lookupStabilitySig:vector  ETV
684493	103892 254 1701 13720 20.389 23.915151321167 6 -0.14285719394684 0.94642857089639 3.5472221337259 2.9756596178133
vector 684494  Network.dyn_peer[88]  lookupTimeSig:vector  ETV
684494	104146 176 1701 13720 20.389 23.915151321167 6 0.3 0.9 3.8 2.68
vector 684495  Network.dyn_peer[89]  lookupHopsSig:vector  ETV
684495	104322 132 1708 16831 20.39 25.155950712448 5 3 25 46 796
vector 684496  Network.dyn_peer[89]  lookupStabilitySig:vector  ETV
684496	104454 205 1708 16831 20.39 25.155950712448 5 0.14285713434219 0.91176470369101 2.6797966137528 1.852636486761
vector 684497  Network.dyn_peer[89]  lookupTimeSig:vector  ETV
684497	104659 140 1708 16831 20.39 25.155950712448 5 0.3 2.6 5 8.86
vector 684795  Network.dyn_peer[189]  lookupHopsSig:vector  ETV
684795	153755 103 1712 14496 20.39 24.199238120489 4 2 20 37 577
vector 684796  Network.dyn_peer[189]  lookupStabilitySig:vector  ETV
684796	153858 163 1712 14496 20.39 24.199238120489 4 -0.083333373069763 0.85714285075665 2.1717892736197 1.7384100747474
vector 684797  Network.dyn_peer[189]  lookupTimeSig:vector  ETV
684797	154021 109 1712 14496 20.39 24.199238120489 4 0.2 2.1 4 6.5
vector 684804  Network.dyn_peer[192]  lookupHopsSig:vector  ETV
684804	154764 169 1726 20773 20.393 27.947319956121 6 2 23 72 1128
vector 684805  Network.dyn_peer[192]  lookupStabilitySig:vector  ETV
684805	154933 257 1726 20773 20.393 27.947319956121 6 0.055555582046509 0.96326530724764 4.2666077166796 3.6290471860392
vector 684806  Network.dyn_peer[192]  lookupTimeSig:vector  ETV
684806	155190 174 1726 20773 20.393 27.947319956121 6 0.2 2.4 7.7 12.73
vector 684519  Network.dyn_peer[97]  lookupHopsSig:vector  ETV
684519	108748 263 1746 21926 20.398 29.826179834595 9 2 22 89 1275
vector 684520  Network.dyn_peer[97]  lookupStabilitySig:vector  ETV
684520	109011 394 1746 21926 20.398 29.826179834595 9 -0.071428537368774 0.99180327914655 6.8974632015452 6.3587910107213
vector 684521  Network.dyn_peer[97]  lookupTimeSig:vector  ETV
684521	109405 276 1746 21926 20.398 29.826179834595 9 0.3 2.3 9.7 14.55
vector 684237  Network.dyn_peer[3]  lookupHopsSig:vector  ETV
684237	60659 105 1768 10984 20.404 23.021442665225 4 2 11 27 241
vector 684238  Network.dyn_peer[3]  lookupStabilitySig:vector  ETV
684238	60764 164 1768 10984 20.404 23.021442665225 4 -0.22222220897675 0.85714285075665 1.6308389902115 1.4575626083436
vector 684239  Network.dyn_peer[3]  lookupTimeSig:vector  ETV
684239	60928 111 1768 10984 20.404 23.021442665225 4 0.3 1.2 3 2.9
vector 684579  Network.dyn_peer[117]  lookupHopsSig:vector  ETV
684579	120519 137 1817 16330 20.418 24.939940706937 5 3 19 44 564
vector 684580  Network.dyn_peer[117]  lookupStabilitySig:vector  ETV
684580	120656 209 1817 16330 20.418 24.939940706937 5 0.29629629850388 0.97744360938668 3.4550107903778 2.7900265663625
vector 684581  Network.dyn_peer[117]  lookupTimeSig:vector  ETV
684581	120865 143 1817 16330 20.418 24.939940706937 5 0.3 2 4.8 6.5
vector 684882  Network.dyn_peer[218]  lookupHopsSig:vector  ETV
684882	167565 137 1824 19270 20.419 26.535323912147 5 2 21 59 909
vector 684883  Network.dyn_peer[218]  lookupStabilitySig:vector  ETV
684883	167702 209 1824 19270 20.419 26.535323912147 5 0.39999997615814 0.96097560971975 3.7387156039476 3.0266034302017
vector 684884  Network.dyn_peer[218]  lookupTimeSig:vector  ETV
684884	167911 144 1824 19270 20.419 26.535323912147 5 0.2 2.2 6.3 10.27
vector 684585  Network.dyn_peer[119]  lookupHopsSig:vector  ETV
684585	121373 82 1831 15844 20.42 24.722342404259 3 3 37 44 1394
vector 684586  Network.dyn_peer[119]  lookupStabilitySig:vector  ETV
684586	121455 126 1831 15844 20.42 24.722342404259 3 0.33333331346512 0.70161288976669 1.43494617939 0.76337172587891
vector 684587  Network.dyn_peer[119]  lookupTimeSig:vector  ETV
684587	121581 87 1831 15844 20.42 24.722342404259 3 0.3 3.8 4.6 14.78
vector 684300  Network.dyn_peer[24]  lookupHopsSig:vector  ETV
684300	71640 104 1853 17412 20.425 25.435648099257 4 4 20 51 865
vector 684301  Network.dyn_peer[24]  lookupStabilitySig:vector  ETV
684301	71744 151 1853 17412 20.425 25.435648099257 4 0.19999998807907 0.95541401207447 2.3651247471571 1.7901829608631
vector 684302  Network.dyn_peer[24]  lookupTimeSig:vector  ETV
684302	71895 110 1853 17412 20.425 25.435648099257 4 0.4 2.1 5.4 9.62
vector 684321  Network.dyn_peer[31]  lookupHopsSig:vector  ETV
684321	74349 74 1879 11352 20.432 23.137035802056 3 4 17 29 369
vector 684322  Network.dyn_peer[31]  lookupStabilitySig:vector  ETV
684322	74423 119 1879 11352 20.432 23.137035802056 3 0.055555582046509 0.86885246634483 1.1244080364704 0.79799102620165
vector 684323  Network.dyn_peer[31]  lookupTimeSig:vector  ETV
684323	74542 79 1879 11352 20.432 23.137035802056 3 0.4 1.8 3.1 4.21
vector 684324  Network.dyn_peer[32]  lookupHopsSig:vector  ETV
684324	74621 105 1887 12310 20.433 23.440249172764 4 4 10 31 265
vector 684325  Network.dyn_peer[32]  lookupStabilitySig:vector  ETV
684325	74726 163 1887 12310 20.433 23.440249172764 4 -0.11111116409302 0.8970588222146 1.7156773880124 1.3895657126154
vector 684326  Network.dyn_peer[32]  lookupTimeSig:vector  ETV
684326	74889 111 1887 12310 20.433 23.440249172764 4 0.4 1.1 3.4 3.22
vector 684339  Network.dyn_peer[37]  lookupHopsSig:vector  ETV
684339	77070 74 1907 13197 20.438 23.73904183569 3 4 24 35 641
vector 684340  Network.dyn_peer[37]  lookupStabilitySig:vector  ETV
684340	77144 105 1907 13197 20.438 23.73904183569 3 0.19999998807907 0.90909090638161 1.6090908944607 1.1164462712974
vector 684341  Network.dyn_peer[37]  lookupTimeSig:vector  ETV
684341	77249 79 1907 13197 20.438 23.73904183569 3 0.4 2.5 3.7 7.05
vector 684426  Network.dyn_peer[66]  lookupHopsSig:vector  ETV
684426	90821 107 1998 15976 20.467 24.775658768016 4 4 16 44 568
vector 684427  Network.dyn_peer[66]  lookupStabilitySig:vector  ETV
684427	90928 157 1998 15976 20.467 24.775658768016 4 0.058823525905609 0.890625 1.9907183498144 1.5444080297336
vector 684428  Network.dyn_peer[66]  lookupTimeSig:vector  ETV
684428	91085 112 1998 15976 20.467 24.775658768016 4 0.4 1.7 4.7 6.51
vector 684753  Network.dyn_peer[175]  lookupHopsSig:vector  ETV
684753	149186 169 2028 19970 20.476 27.102923657357 6 1 28 64 1330
vector 684754  Network.dyn_peer[175]  lookupStabilitySig:vector  ETV
684754	149355 257 2028 19970 20.476 27.102923657357 6 0.39999997615814 0.98648648615927 4.7767205936834 4.1069809945408
vector 684755  Network.dyn_peer[175]  lookupTimeSig:vector  ETV
684755	149612 179 2028 19970 20.476 27.102923657357 6 0.2 2.9 6.9 14.57
vector 684759  Network.dyn_peer[177]  lookupHopsSig:vector  ETV
684759	150172 137 2039 15248 20.478 24.489551202261 5 1 17 39 511
vector 684760  Network.dyn_peer[177]  lookupStabilitySig:vector  ETV
684760	150309 195 2039 15248 20.478 24.489551202261 5 0 0.98936170246452 3.1387735744938 2.6852200676026
vector 684761  Network.dyn_peer[177]  lookupTimeSig:vector  ETV
684761	150504 145 2039 15248 20.478 24.489551202261 5 0.2 1.8 4.3 5.87
vector 684786  Network.dyn_peer[186]  lookupHopsSig:vector  ETV
684786	152726 108 2069 18764 20.487 26.194949326361 4 3 24 57 1053
vector 684787  Network.dyn_peer[186]  lookupStabilitySig:vector  ETV
684787	152834 155 2069 18764 20.487 26.194949326361 4 0.39999997615814 0.9375 2.7123657017946 2.0468541979019
vector 684788  Network.dyn_peer[186]  lookupTimeSig:vector  ETV
684788	152989 113 2069 18764 20.487 26.194949326361 4 0.3 2.5 6 11.64
vector 684801  Network.dyn_peer[191]  lookupHopsSig:vector  ETV
684801	154401 103 2089 17154 20.492 25.30882303232 4 3 32 48 1130
vector 684802  Network.dyn_peer[191]  lookupStabilitySig:vector  ETV
684802	154504 152 2089 17154 20.492 25.30882303232 4 -0.125 0.78666666150093 1.7759523391724 1.3046734806299
vector 684803  Network.dyn_peer[191]  lookupTimeSig:vector  ETV
684803	154656 108 2089 17154 20.492 25.30882303232 4 0.3 3.3 5.1 12.23
vector 684831  Network.dyn_peer[201]  lookupHopsSig:vector  ETV
684831	159588 44 2124 10283 20.502 22.802 2 3 22 25 493
vector 684832  Network.dyn_peer[201]  lookupStabilitySig:vector  ETV
684832	159632 60 2124 10283 20.502 22.802 2 0.39999997615814 0.5 0.89999997615814 0.40999998092651
vector 684833  Network.dyn_peer[201]  lookupTimeSig:vector  ETV
684833	159692 47 2124 10283 20.502 22.802 2 0.3 2.3 2.6 5.38
vector 684837  Network.dyn_peer[203]  lookupHopsSig:vector  ETV