file 11617 1369674134                                           
version 2
run Stability2-51-20130526-00:51:21-26640
attr configname Stability2
attr datetime 20130526-00:51:21
attr experiment Stability2
attr inifile omnetpp.ini
attr iterationvars $0=20
attr iterationvars2 "$0=20, $repetition=21"
attr measurement $0=20
attr network Network
attr processid 26640
attr repetition 21
attr replication #21
attr resultdir results
attr runnumber 51
attr seedset 51
vector 156051  Network.churner  inGoingSizeSig:vector  ETV
156051	11214 403 11 86 20 20.02 21 0 19 190 2470
vector 153063  Network.dyn_peer[4]  lookupHopsSig:vector  ETV
153063	5504 39 30 291 20.005 20.605 2 0 5 5 25
vector 153064  Network.dyn_peer[4]  lookupStabilitySig:vector  ETV
153064	5543 39 30 291 20.005 20.605 2 0 1 1 1
vector 153065  Network.dyn_peer[4]  lookupTimeSig:vector  ETV
153065	5582 41 30 291 20.005 20.605 2 0 0.6 0.6 0.36
vector 153075  Network.dyn_peer[8]  lookupHopsSig:vector  ETV
153075	6485 68 46 318 20.009 20.625175182812 3 0 2 4 8
vector 153076  Network.dyn_peer[8]  lookupStabilitySig:vector  ETV
153076	6553 98 46 318 20.009 20.625175182812 3 0.59999999403954 1 2.3142856955528 1.8702040562338
vector 153077  Network.dyn_peer[8]  lookupTimeSig:vector  ETV
153077	6651 72 46 318 20.009 20.625175182812 3 0 0.3 0.6 0.18
vector 153084  Network.dyn_peer[11]  lookupHopsSig:vector  ETV
153084	7427 77 59 380 20.012 20.826182879356 3 0 5 6 26
vector 153085  Network.dyn_peer[11]  lookupStabilitySig:vector  ETV
153085	7504 94 59 380 20.012 20.826182879356 3 0.5 1 2.2999999970198 1.8899999952316
vector 153086  Network.dyn_peer[11]  lookupTimeSig:vector  ETV
153086	7598 81 59 380 20.012 20.826182879356 3 0 0.6 0.8 0.4
vector 153096  Network.dyn_peer[15]  lookupHopsSig:vector  ETV
153096	9222 68 75 431 20.016 21.023104182731 3 0 5 8 34
vector 153097  Network.dyn_peer[15]  lookupStabilitySig:vector  ETV
153097	9290 98 75 431 20.016 21.023104182731 3 0.28571426868439 1 2.0549450367689 1.6733486178978
vector 153098  Network.dyn_peer[15]  lookupTimeSig:vector  ETV
153098	9388 72 75 431 20.016 21.023104182731 3 0 0.6 1 0.52
vector 153054  Network.dyn_peer[1]  lookupHopsSig:vector  ETV
153054	4549 68 94 354 20.102 20.724026480537 3 1 3 5 11
vector 153055  Network.dyn_peer[1]  lookupStabilitySig:vector  ETV
153055	4617 113 94 354 20.102 20.724026480537 3 0.39999997615814 0.88888888806105 2.088888861239 1.5901234314766
vector 153056  Network.dyn_peer[1]  lookupTimeSig:vector  ETV
153056	4730 74 94 354 20.102 20.724026480537 3 0.1 0.4 0.7 0.21
vector 153060  Network.dyn_peer[3]  lookupHopsSig:vector  ETV
153060	5153 98 100 442 20.104 21.111419148971 4 1 5 8 28
vector 153061  Network.dyn_peer[3]  lookupStabilitySig:vector  ETV
153061	5251 147 100 442 20.104 21.111419148971 4 0.375 0.92857142537832 3.0126623287797 2.4693161633265
vector 153062  Network.dyn_peer[3]  lookupTimeSig:vector  ETV
153062	5398 106 100 442 20.104 21.111419148971 4 0.1 0.6 1.1 0.45
vector 153066  Network.dyn_peer[5]  lookupHopsSig:vector  ETV
153066	5623 97 106 406 20.106 20.92383914023 4 1 2 6 10
vector 153067  Network.dyn_peer[5]  lookupStabilitySig:vector  ETV
153067	5720 157 106 406 20.106 20.92383914023 4 0.59999999403954 0.83333332836628 3.0515151321888 2.3638659029816
vector 153068  Network.dyn_peer[5]  lookupTimeSig:vector  ETV
153068	5877 105 106 406 20.106 20.92383914023 4 0.1 0.3 0.9 0.23
vector 153072  Network.dyn_peer[7]  lookupHopsSig:vector  ETV
153072	6331 40 112 295 20.108 20.608 2 1 4 5 17
vector 153073  Network.dyn_peer[7]  lookupStabilitySig:vector  ETV
153073	6371 70 112 295 20.108 20.608 2 0.19999998807907 0.79999999701977 0.99999998509884 0.67999999046326
vector 153074  Network.dyn_peer[7]  lookupTimeSig:vector  ETV
153074	6441 44 112 295 20.108 20.608 2 0.1 0.5 0.6 0.26
vector 153090  Network.dyn_peer[13]  lookupHopsSig:vector  ETV
153090	8533 69 121 345 20.114 20.719349870263 3 1 2 5 9
vector 153091  Network.dyn_peer[13]  lookupStabilitySig:vector  ETV
153091	8602 102 121 345 20.114 20.719349870263 3 0.59999999403954 0.79999999701977 2.1499999910593 1.5624999880791
vector 153092  Network.dyn_peer[13]  lookupTimeSig:vector  ETV
153092	8704 75 121 345 20.114 20.719349870263 3 0.1 0.3 0.7 0.19
vector 153105  Network.dyn_peer[18]  lookupHopsSig:vector  ETV
153105	10376 40 131 397 20.119 20.919 2 1 7 8 50
vector 153106  Network.dyn_peer[18]  lookupStabilitySig:vector  ETV
153106	10416 70 131 397 20.119 20.919 2 0.36363637447357 0.79999999701977 1.1636363714933 0.77223140807191
vector 153107  Network.dyn_peer[18]  lookupTimeSig:vector  ETV
153107	10486 44 131 397 20.119 20.919 2 0.1 0.8 0.9 0.65
vector 153051  Network.dyn_peer[0]  lookupHopsSig:vector  ETV
153051	4304 69 138 483 20.201 21.313430166676 3 1 8 11 69
vector 153052  Network.dyn_peer[0]  lookupStabilitySig:vector  ETV
153052	4373 101 138 483 20.201 21.313430166676 3 0.5 0.79999999701977 1.8999999910593 1.2499999880791
vector 153053  Network.dyn_peer[0]  lookupTimeSig:vector  ETV
153053	4474 75 138 483 20.201 21.313430166676 3 0.2 0.9 1.3 0.89
vector 153057  Network.dyn_peer[2]  lookupHopsSig:vector  ETV
153057	4804 98 144 494 20.203 21.411935238699 4 2 4 11 33
vector 153058  Network.dyn_peer[2]  lookupStabilitySig:vector  ETV
153058	4902 145 144 494 20.203 21.411935238699 4 0.5 0.84615384042263 2.7794871628284 2.0204207506754
vector 153059  Network.dyn_peer[2]  lookupTimeSig:vector  ETV
153059	5047 106 144 494 20.203 21.411935238699 4 0.2 0.5 1.4 0.54
vector 153069  Network.dyn_peer[6]  lookupHopsSig:vector  ETV
153069	5982 98 153 510 20.207 21.528053391504 4 2 4 12 38
vector 153070  Network.dyn_peer[6]  lookupStabilitySig:vector  ETV
153070	6080 145 153 510 20.207 21.528053391504 4 0.5 0.84999999403954 2.7499999850988 1.9724999779463
vector 153071  Network.dyn_peer[6]  lookupTimeSig:vector  ETV
153071	6225 106 153 510 20.207 21.528053391504 4 0.2 0.5 1.5 0.61
vector 153081  Network.dyn_peer[10]  lookupHopsSig:vector  ETV
153081	6972 127 161 549 20.211 21.957870150942 5 2 6 15 57
vector 153082  Network.dyn_peer[10]  lookupStabilitySig:vector  ETV
153082	7099 191 161 549 20.211 21.957870150942 5 0.45454543828964 0.89999999850988 3.6866882815957 2.8769304122384
vector 153083  Network.dyn_peer[10]  lookupTimeSig:vector  ETV
153083	7290 137 161 549 20.211 21.957870150942 5 0.2 0.7 1.9 0.87
vector 153087  Network.dyn_peer[12]  lookupHopsSig:vector  ETV
153087	7679 242 166 590 20.213 22.966973142733 9 1 4 21 57
vector 153088  Network.dyn_peer[12]  lookupStabilitySig:vector  ETV
153088	7921 352 166 590 20.213 22.966973142733 9 0.5 0.95833333209157 7.3527056090534 6.2212612957981
vector 153089  Network.dyn_peer[12]  lookupTimeSig:vector  ETV
153089	8273 260 166 590 20.213 22.966973142733 9 0.2 0.5 2.9 1.03
vector 153099  Network.dyn_peer[16]  lookupHopsSig:vector  ETV
153099	9460 69 174 485 20.217 21.318518968723 3 2 7 11 57
vector 153100  Network.dyn_peer[16]  lookupStabilitySig:vector  ETV
153100	9529 113 174 485 20.217 21.318518968723 3 0.46153843402863 0.8823529407382 1.9438913688064 1.3515644309624
vector 153101  Network.dyn_peer[16]  lookupTimeSig:vector  ETV
153101	9642 75 174 485 20.217 21.318518968723 3 0.2 0.8 1.3 0.77
vector 153078  Network.dyn_peer[9]  lookupHopsSig:vector  ETV
153078	6723 66 197 445 20.31 21.11243567828 3 2 4 9 29
vector 153079  Network.dyn_peer[9]  lookupStabilitySig:vector  ETV
153079	6789 111 197 445 20.31 21.11243567828 3 0.39999997615814 0.85714285075665 1.8571428209543 1.2546938403772
vector 153080  Network.dyn_peer[9]  lookupTimeSig:vector  ETV
153080	6900 72 197 445 20.31 21.11243567828 3 0.3 0.5 1.1 0.43
vector 153093  Network.dyn_peer[14]  lookupHopsSig:vector  ETV
153093	8779 127 205 501 20.315 21.437521762278 5 1 3 10 24
vector 153094  Network.dyn_peer[14]  lookupStabilitySig:vector  ETV
153094	8906 179 205 501 20.315 21.437521762278 5 0.39999997615814 0.9473684206605 3.7564593032003 3.040203181457
vector 153095  Network.dyn_peer[14]  lookupTimeSig:vector  ETV
153095	9085 137 205 501 20.315 21.437521762278 5 0.2 0.4 1.4 0.42
vector 153102  Network.dyn_peer[17]  lookupHopsSig:vector  ETV
153102	9717 184 213 578 20.318 22.539882233101 7 1 6 19 71
vector 153103  Network.dyn_peer[17]  lookupStabilitySig:vector  ETV
153103	9901 277 213 578 20.318 22.539882233101 7 0.39999997615814 0.9545454531908 5.4072510451078 4.4100033429386
vector 153104  Network.dyn_peer[17]  lookupTimeSig:vector  ETV
153104	10178 198 213 578 20.318 22.539882233101 7 0.2 0.7 2.5 1.09
vector 153108  Network.dyn_peer[19]  lookupHopsSig:vector  ETV
153108	10530 192 252 581 20.42 22.549225721403 7 1 4 19 59
vector 153109  Network.dyn_peer[19]  lookupStabilitySig:vector  ETV
153109	10722 286 252 581 20.42 22.549225721403 7 0.19999998807907 0.95238095149398 5.2995435409248 4.4348969481126
vector 153110  Network.dyn_peer[19]  lookupTimeSig:vector  ETV
153110	11008 206 252 581 20.42 22.549225721403 7 0.2 0.5 2.5 0.95
