file 134981 1369674128                                          
version 2
run Stability2-209-20130526-00:52:26-26640
attr configname Stability2
attr datetime 20130526-00:52:26
attr experiment Stability2
attr inifile omnetpp.ini
attr iterationvars $0=200
attr iterationvars2 "$0=200, $repetition=29"
attr measurement $0=200
attr network Network
attr processid 26640
attr repetition 29
attr replication #29
attr resultdir results
attr runnumber 209
attr seedset 209
vector 630209  Network.churner  inGoingSizeSig:vector  ETV
630209	130725 4256 10 795 20 20.2 201 0 199 19900 2646700
vector 627239  Network.dyn_peer[10]  lookupHopsSig:vector  ETV
627239	43716 191 47 9306 20.011 24.018214050328 7 0 17 32 344
vector 627240  Network.dyn_peer[10]  lookupStabilitySig:vector  ETV
627240	43907 256 47 9306 20.011 24.018214050328 7 0.19999998807907 1 4.8670256175101 3.9079434699854
vector 627241  Network.dyn_peer[10]  lookupTimeSig:vector  ETV
627241	44163 202 47 9306 20.011 24.018214050328 7 0 1.8 3.8 4.14
vector 627293  Network.dyn_peer[28]  lookupHopsSig:vector  ETV
627293	53325 73 112 6242 20.029 22.438404733707 3 0 11 22 242
vector 627294  Network.dyn_peer[28]  lookupStabilitySig:vector  ETV
627294	53398 91 112 6242 20.029 22.438404733707 3 -0.375 1 1.2456896603108 1.5258806544167
vector 627295  Network.dyn_peer[28]  lookupTimeSig:vector  ETV
627295	53489 75 112 6242 20.029 22.438404733707 3 0 1.2 2.4 2.88
vector 627296  Network.dyn_peer[29]  lookupHopsSig:vector  ETV
627296	53564 81 119 8637 20.03 23.634965513613 3 0 19 34 586
vector 627297  Network.dyn_peer[29]  lookupStabilitySig:vector  ETV
627297	53645 110 119 8637 20.03 23.634965513613 3 -0.15384614467621 1 1.5822649598122 1.5655281943828
vector 627298  Network.dyn_peer[29]  lookupTimeSig:vector  ETV
627298	53755 81 119 8637 20.03 23.634965513613 3 0 2 3.6 6.56
vector 627302  Network.dyn_peer[31]  lookupHopsSig:vector  ETV
627302	54531 72 130 8462 20.032 23.535203378089 3 0 27 33 765
vector 627303  Network.dyn_peer[31]  lookupStabilitySig:vector  ETV
627303	54603 101 130 8462 20.032 23.535203378089 3 0.45999997854233 1 2.3730434551835 2.045248370496
vector 627304  Network.dyn_peer[31]  lookupTimeSig:vector  ETV
627304	54704 75 130 8462 20.032 23.535203378089 3 0 2.8 3.5 8.33
vector 627311  Network.dyn_peer[34]  lookupHopsSig:vector  ETV
627311	56524 173 144 10766 20.035 25.089945492616 6 0 17 45 507
vector 627312  Network.dyn_peer[34]  lookupStabilitySig:vector  ETV
627312	56697 238 144 10766 20.035 25.089945492616 6 -0.20000004768372 1 3.8500264659524 3.5305520620818
vector 627313  Network.dyn_peer[34]  lookupTimeSig:vector  ETV
627313	56935 181 144 10766 20.035 25.089945492616 6 0 1.8 5 6.02
vector 627317  Network.dyn_peer[36]  lookupHopsSig:vector  ETV
627317	57373 102 154 6621 20.037 22.599076278616 4 0 14 21 225
vector 627318  Network.dyn_peer[36]  lookupStabilitySig:vector  ETV
627318	57475 131 154 6621 20.037 22.599076278616 4 0 1 2.2111110985279 1.7334567748764
vector 627319  Network.dyn_peer[36]  lookupTimeSig:vector  ETV
627319	57606 107 154 6621 20.037 22.599076278616 4 0 1.5 2.4 2.7
vector 627329  Network.dyn_peer[40]  lookupHopsSig:vector  ETV
627329	58906 193 171 10267 20.041 24.66203670123 7 0 11 40 342
vector 627330  Network.dyn_peer[40]  lookupStabilitySig:vector  ETV
627330	59099 266 171 10267 20.041 24.66203670123 7 0 1 4.8296029791236 4.0081929952851
vector 627331  Network.dyn_peer[40]  lookupTimeSig:vector  ETV
627331	59365 203 171 10267 20.041 24.66203670123 7 0 1.2 4.6 4.28
vector 627341  Network.dyn_peer[44]  lookupHopsSig:vector  ETV
627341	60273 225 187 11239 20.045 25.614188122805 8 0 19 43 477
vector 627342  Network.dyn_peer[44]  lookupStabilitySig:vector  ETV
627342	60498 330 187 11239 20.045 25.614188122805 8 -0.39999997615814 1 5.6818556170911 5.5676131774347
vector 627343  Network.dyn_peer[44]  lookupTimeSig:vector  ETV
627343	60828 236 187 11239 20.045 25.614188122805 8 0 2 5 5.7
vector 627413  Network.dyn_peer[68]  lookupHopsSig:vector  ETV
627413	69591 105 263 10561 20.069 24.900748318488 4 0 20 43 669
vector 627414  Network.dyn_peer[68]  lookupStabilitySig:vector  ETV
627414	69696 148 263 10561 20.069 24.900748318488 4 -0.42857146263123 1 2.1501382291317 2.4347074437562
vector 627415  Network.dyn_peer[68]  lookupTimeSig:vector  ETV
627415	69844 108 263 10561 20.069 24.900748318488 4 0 2.1 4.6 7.58
vector 627224  Network.dyn_peer[5]  lookupHopsSig:vector  ETV
627224	41318 72 382 6649 20.106 22.610339214498 3 1 15 24 290
vector 627225  Network.dyn_peer[5]  lookupStabilitySig:vector  ETV
627225	41390 118 382 6649 20.106 22.610339214498 3 -0.071428537368774 0.79999999701977 1.5063492357731 1.2500403002117
vector 627226  Network.dyn_peer[5]  lookupTimeSig:vector  ETV
627226	41508 77 382 6649 20.106 22.610339214498 3 0.1 1.6 2.6 3.38
vector 627275  Network.dyn_peer[22]  lookupHopsSig:vector  ETV
627275	50021 132 456 10648 20.123 24.980398315257 5 1 19 39 487
vector 627276  Network.dyn_peer[22]  lookupStabilitySig:vector  ETV
627276	50153 205 456 10648 20.123 24.980398315257 5 0.20833331346512 0.9545454531908 3.7666612714529 3.221713577654
vector 627277  Network.dyn_peer[22]  lookupTimeSig:vector  ETV
627277	50358 139 456 10648 20.123 24.980398315257 5 0.1 2 4.3 5.67
vector 627323  Network.dyn_peer[38]  lookupHopsSig:vector  ETV
627323	57969 130 524 5348 20.139 22.050652822257 5 1 6 16 66
vector 627324  Network.dyn_peer[38]  lookupStabilitySig:vector  ETV
627324	58099 205 524 5348 20.139 22.050652822257 5 0.33333331346512 0.84999999403954 3.121794834733 2.1235519017455
vector 627325  Network.dyn_peer[38]  lookupTimeSig:vector  ETV
627325	58304 140 524 5348 20.139 22.050652822257 5 0.1 0.7 2 1
vector 627332  Network.dyn_peer[41]  lookupHopsSig:vector  ETV
627332	59568 110 542 7392 20.142 22.954473884747 4 1 13 26 260
vector 627333  Network.dyn_peer[41]  lookupStabilitySig:vector  ETV
627333	59678 161 542 7392 20.142 22.954473884747 4 -0.28571426868439 0.94545454531908 2.0534902736545 1.968055998326
vector 627334  Network.dyn_peer[41]  lookupTimeSig:vector  ETV
627334	59839 115 542 7392 20.142 22.954473884747 4 0.1 1.4 2.9 3.13
vector 627338  Network.dyn_peer[43]  lookupHopsSig:vector  ETV
627338	60115 42 554 6720 20.144 22.644 2 1 24 25 577
vector 627339  Network.dyn_peer[43]  lookupStabilitySig:vector  ETV
627339	60157 71 554 6720 20.144 22.644 2 0.38461536169052 0.79999999701977 1.1846153587103 0.78792897167996
vector 627340  Network.dyn_peer[43]  lookupTimeSig:vector  ETV
627340	60228 45 554 6720 20.144 22.644 2 0.1 2.5 2.6 6.26
vector 627353  Network.dyn_peer[48]  lookupHopsSig:vector  ETV
627353	62311 72 578 4889 20.149 21.856746043901 3 1 10 16 126
vector 627354  Network.dyn_peer[48]  lookupStabilitySig:vector  ETV
627354	62383 107 578 4889 20.149 21.856746043901 3 -0.11111116409302 0.79999999701977 1.3763888329267 1.1250019360177
vector 627355  Network.dyn_peer[48]  lookupTimeSig:vector  ETV
627355	62490 77 578 4889 20.149 21.856746043901 3 0.1 1.1 1.8 1.58
vector 627386  Network.dyn_peer[59]  lookupHopsSig:vector  ETV
627386	66031 163 627 10757 20.16 25.084094923151 6 1 13 45 443
vector 627387  Network.dyn_peer[59]  lookupStabilitySig:vector  ETV
627387	66194 239 627 10757 20.16 25.084094923151 6 0.35000002384186 0.92481203377247 4.1898120343685 3.249002296666
vector 627388  Network.dyn_peer[59]  lookupTimeSig:vector  ETV
627388	66433 172 627 10757 20.16 25.084094923151 6 0.1 1.4 5 5.36
vector 627389  Network.dyn_peer[60]  lookupHopsSig:vector  ETV
627389	66605 102 635 8943 20.161 23.803398580555 4 1 13 27 259
vector 627390  Network.dyn_peer[60]  lookupStabilitySig:vector  ETV
627390	66707 146 635 8943 20.161 23.803398580555 4 0 0.83116883039474 2.015784189105 1.4787705962997
vector 627391  Network.dyn_peer[60]  lookupTimeSig:vector  ETV
627391	66853 109 635 8943 20.161 23.803398580555 4 0.1 1.4 3 3.14
vector 627461  Network.dyn_peer[84]  lookupHopsSig:vector  ETV
627461	74590 103 735 10168 20.185 24.59164872332 4 1 17 42 586
vector 627462  Network.dyn_peer[84]  lookupStabilitySig:vector  ETV
627462	74693 160 735 10168 20.185 24.59164872332 4 0.14999997615814 0.87272727489471 2.6503134518862 2.1090518091667
vector 627463  Network.dyn_peer[84]  lookupTimeSig:vector  ETV
627463	74853 108 735 10168 20.185 24.59164872332 4 0.1 1.8 4.5 6.71
vector 627515  Network.dyn_peer[102]  lookupHopsSig:vector  ETV
627515	82411 166 807 11609 20.203 26.120545062143 6 1 25 55 867
vector 627516  Network.dyn_peer[102]  lookupStabilitySig:vector  ETV
627516	82577 241 807 11609 20.203 26.120545062143 6 0.5 0.96503496542573 5.0419819317758 4.3938466686692
vector 627517  Network.dyn_peer[102]  lookupTimeSig:vector  ETV
627517	82818 176 807 11609 20.203 26.120545062143 6 0.1 2.6 6 9.8
vector 627227  Network.dyn_peer[6]  lookupHopsSig:vector  ETV
627227	41585 194 819 10238 20.207 24.640434035658 7 2 14 40 350
vector 627228  Network.dyn_peer[6]  lookupStabilitySig:vector  ETV
627228	41779 282 819 10238 20.207 24.640434035658 7 0 0.96551724150777 5.1744419895112 4.5626528218128
vector 627229  Network.dyn_peer[6]  lookupTimeSig:vector  ETV
627229	42061 206 819 10238 20.207 24.640434035658 7 0.2 1.5 4.6 4.32
vector 627251  Network.dyn_peer[14]  lookupHopsSig:vector  ETV
627251	45714 161 840 11413 20.215 25.831873425627 6 1 30 53 1169
vector 627252  Network.dyn_peer[14]  lookupStabilitySig:vector  ETV
627252	45875 249 840 11413 20.215 25.831873425627 6 0.51612904667854 0.98701298702508 4.9478005794808 4.302136967101
vector 627253  Network.dyn_peer[14]  lookupTimeSig:vector  ETV
627253	46124 171 840 11413 20.215 25.831873425627 6 0.2 3.1 5.8 12.76
vector 627614  Network.dyn_peer[135]  lookupHopsSig:vector  ETV
627614	98217 197 887 12055 20.236 26.977965535702 7 1 15 52 554
vector 627615  Network.dyn_peer[135]  lookupStabilitySig:vector  ETV
627615	98414 299 887 12055 20.236 26.977965535702 7 0.090909063816071 0.98347107507288 5.3419948015362 4.6501019062899
vector 627616  Network.dyn_peer[135]  lookupTimeSig:vector  ETV
627616	98713 208 887 12055 20.236 26.977965535702 7 0.1 1.6 5.8 6.62
vector 627350  Network.dyn_peer[47]  lookupHopsSig:vector  ETV
627350	61908 113 916 10394 20.248 24.758441685229 4 2 26 44 840
vector 627351  Network.dyn_peer[47]  lookupStabilitySig:vector  ETV
627351	62021 171 916 10394 20.248 24.758441685229 4 0.076923072338104 0.9666666649282 2.3609810434282 1.8150118876974
vector 627352  Network.dyn_peer[47]  lookupTimeSig:vector  ETV
627352	62192 119 916 10394 20.248 24.758441685229 4 0.2 2.7 4.7 9.27
vector 627713  Network.dyn_peer[168]  lookupHopsSig:vector  ETV
627713	113926 105 964 11969 20.269 26.781278727727 4 1 37 63 1743
vector 627714  Network.dyn_peer[168]  lookupStabilitySig:vector  ETV
627714	114031 161 964 11969 20.269 26.781278727727 4 0.55952382087708 0.9430894292891 3.1979620866477 2.644134117323
vector 627715  Network.dyn_peer[168]  lookupTimeSig:vector  ETV
627715	114192 111 964 11969 20.269 26.781278727727 4 0.1 3.8 6.6 18.7
vector 627434  Network.dyn_peer[75]  lookupHopsSig:vector  ETV
627434	71953 71 982 3513 20.276 21.285276161566 3 2 6 10 44
vector 627435  Network.dyn_peer[75]  lookupStabilitySig:vector  ETV
627435	72024 101 982 3513 20.276 21.285276161566 3 0 0.79999999701977 1.3999999910593 0.99999998807908
vector 627436  Network.dyn_peer[75]  lookupTimeSig:vector  ETV
627436	72125 77 982 3513 20.276 21.285276161566 3 0.2 0.7 1.2 0.62
vector 627755  Network.dyn_peer[182]  lookupHopsSig:vector  ETV
627755	120901 135 1000 11383 20.283 25.798291975502 5 1 30 52 1102
vector 627756  Network.dyn_peer[182]  lookupStabilitySig:vector  ETV
627756	121036 208 1000 11383 20.283 25.798291975502 5 0.19999998807907 0.80263157188892 3.1366696059704 2.2159256956942
vector 627757  Network.dyn_peer[182]  lookupTimeSig:vector  ETV
627757	121244 143 1000 11383 20.283 25.798291975502 5 0.1 3.1 5.6 12.08
vector 627767  Network.dyn_peer[186]  lookupHopsSig:vector  ETV
627767	123506 104 1012 9904 20.287 24.399090738819 4 1 17 39 515
vector 627768  Network.dyn_peer[186]  lookupStabilitySig:vector  ETV
627768	123610 162 1012 9904 20.287 24.399090738819 4 0.26086956262589 0.88000000268221 2.7856971547008 2.1961865894915
vector 627769  Network.dyn_peer[186]  lookupTimeSig:vector  ETV
627769	123772 108 1012 9904 20.287 24.399090738819 4 0.1 1.8 4.2 5.94
vector 627215  Network.dyn_peer[2]  lookupHopsSig:vector  ETV
627215	40398 106 1048 10892 20.303 25.221223856314 4 1 33 49 1243
vector 627216  Network.dyn_peer[2]  lookupStabilitySig:vector  ETV
627216	40504 164 1048 10892 20.303 25.221223856314 4 0.39999997615814 0.99259259272367 2.8503122078255 2.2731735070038
vector 627217  Network.dyn_peer[2]  lookupTimeSig:vector  ETV
627217	40668 112 1048 10892 20.303 25.221223856314 4 0.2 3.4 5.2 13.38
vector 627524  Network.dyn_peer[105]  lookupHopsSig:vector  ETV
627524	83628 260 1058 12493 20.306 29.138407636302 9 2 19 80 1008
vector 627525  Network.dyn_peer[105]  lookupStabilitySig:vector  ETV
627525	83888 391 1058 12493 20.306 29.138407636302 9 0.27999997138977 0.9833333324641 7.4105487558991 6.5376585137877
vector 627526  Network.dyn_peer[105]  lookupTimeSig:vector  ETV
627526	84279 273 1058 12493 20.306 29.138407636302 9 0.2 2 8.8 11.72
vector 627230  Network.dyn_peer[7]  lookupHopsSig:vector  ETV
627230	42267 74 1066 9933 20.308 24.415862969757 3 3 20 42 770
vector 627231  Network.dyn_peer[7]  lookupStabilitySig:vector  ETV
627231	42341 117 1066 9933 20.308 24.415862969757 3 0.32142859697342 0.80392156541348 1.525350138545 0.90960620721567
vector 627232  Network.dyn_peer[7]  lookupTimeSig:vector  ETV
627232	42458 76 1066 9933 20.308 24.415862969757 3 0.3 2.1 4.4 8.5
vector 627263  Network.dyn_peer[18]  lookupHopsSig:vector  ETV
627263	47993 196 1094 11994 20.319 26.83678607233 7 3 17 62 664
vector 627264  Network.dyn_peer[18]  lookupStabilitySig:vector  ETV
627264	48189 287 1094 11994 20.319 26.83678607233 7 0.26086956262589 0.95953757315874 5.2419454008341 4.430791297336
vector 627265  Network.dyn_peer[18]  lookupTimeSig:vector  ETV
627265	48476 205 1094 11994 20.319 26.83678607233 7 0.3 1.8 6.8 7.88
vector 627566  Network.dyn_peer[119]  lookupHopsSig:vector  ETV
627566	90620 133 1100 10100 20.32 24.540600003497 5 2 14 40 434
vector 627567  Network.dyn_peer[119]  lookupStabilitySig:vector  ETV
627567	90753 198 1100 10100 20.32 24.540600003497 5 0.071428596973419 0.92857142537832 3.2491745427251 2.5909914752539
vector 627568  Network.dyn_peer[119]  lookupTimeSig:vector  ETV
627568	90951 141 1100 10100 20.32 24.540600003497 5 0.2 1.5 4.4 5.14
vector 627287  Network.dyn_peer[26]  lookupHopsSig:vector  ETV
627287	51944 289 1118 12379 20.327 28.278853398193 10 2 15 63 523
vector 627288  Network.dyn_peer[26]  lookupStabilitySig:vector  ETV
627288	52233 422 1118 12379 20.327 28.278853398193 10 0 0.97435897402465 7.7209486942738 6.9773512303366
vector 627289  Network.dyn_peer[26]  lookupTimeSig:vector  ETV
627289	52655 307 1118 12379 20.327 28.278853398193 10 0.3 1.6 7.2 6.52
vector 627605  Network.dyn_peer[132]  lookupHopsSig:vector  ETV
627605	96995 73 1134 6247 20.333 22.441331817816 3 2 10 21 185
vector 627606  Network.dyn_peer[132]  lookupStabilitySig:vector  ETV
627606	97068 117 1134 6247 20.333 22.441331817816 3 0.18181818723679 0.66666665673256 1.4484848380089 0.83750227725649
vector 627607  Network.dyn_peer[132]  lookupTimeSig:vector  ETV
627607	97185 76 1134 6247 20.333 22.441331817816 3 0.2 1.1 2.3 2.25
vector 627617  Network.dyn_peer[136]  lookupHopsSig:vector  ETV
627617	98921 103 1147 9520 20.337 24.15184318155 4 2 19 37 543
vector 627618  Network.dyn_peer[136]  lookupStabilitySig:vector  ETV
627618	99024 161 1147 9520 20.337 24.15184318155 4 0.34482759237289 0.93617021292448 2.7315725162625 2.0787980779493
vector 627619  Network.dyn_peer[136]  lookupTimeSig:vector  ETV
627619	99185 107 1147 9520 20.337 24.15184318155 4 0.2 2 4 6.16
vector 627362  Network.dyn_peer[51]  lookupHopsSig:vector  ETV
627362	63073 73 1184 5370 20.352 22.060173707979 3 3 11 18 146
vector 627363  Network.dyn_peer[51]  lookupStabilitySig:vector  ETV
627363	63146 117 1184 5370 20.352 22.060173707979 3 0.15384614467621 0.81818181276321 1.3720279335976 0.85309009589474
vector 627364  Network.dyn_peer[51]  lookupTimeSig:vector  ETV
627364	63263 78 1184 5370 20.352 22.060173707979 3 0.3 1.2 2 1.78
vector 627383  Network.dyn_peer[58]  lookupHopsSig:vector  ETV
627383	65764 72 1202 2961 20.359 21.061195074101 3 2 3 8 22
vector 627384  Network.dyn_peer[58]  lookupStabilitySig:vector  ETV
627384	65836 117 1202 2961 20.359 21.061195074101 3 0.39999997615814 0.66666665673256 1.4666666090488 0.76444439305199
vector 627385  Network.dyn_peer[58]  lookupTimeSig:vector  ETV
627385	65953 78 1202 2961 20.359 21.061195074101 3 0.3 0.4 1 0.34
vector 627704  Network.dyn_peer[165]  lookupHopsSig:vector  ETV
627704	112563 111 1220 7364 20.366 22.942195318034 4 2 10 24 178
vector 627705  Network.dyn_peer[165]  lookupStabilitySig:vector  ETV
627705	112674 171 1220 7364 20.366 22.942195318034 4 0.090909063816071 0.87272727489471 2.355303004384 1.7566534660521
vector 627706  Network.dyn_peer[165]  lookupTimeSig:vector  ETV
627706	112845 118 1220 7364 20.366 22.942195318034 4 0.2 1.1 2.7 2.25
vector 627407  Network.dyn_peer[66]  lookupHopsSig:vector  ETV
627407	69165 75 1226 10288 20.367 24.673264056446 3 3 20 41 733
vector 627408  Network.dyn_peer[66]  lookupStabilitySig:vector  ETV
627408	69240 118 1226 10288 20.367 24.673264056446 3 0.35483872890472 0.84615384042263 1.6009925454855 1.0018868261192
vector 627409  Network.dyn_peer[66]  lookupTimeSig:vector  ETV
627409	69358 79 1226 10288 20.367 24.673264056446 3 0.3 2.1 4.3 8.11
vector 627752  Network.dyn_peer[181]  lookupHopsSig:vector  ETV
627752	120537 103 1262 5925 20.382 22.297326759577 4 2 10 18 122
vector 627753  Network.dyn_peer[181]  lookupStabilitySig:vector  ETV
627753	120640 151 1262 5925 20.382 22.297326759577 4 0.39999997615814 0.62962964177132 2.254629611969 1.307058459571
vector 627754  Network.dyn_peer[181]  lookupTimeSig:vector  ETV
627754	120791 110 1262 5925 20.382 22.297326759577 4 0.2 1.1 2.1 1.57
vector 627233  Network.dyn_peer[8]  lookupHopsSig:vector  ETV
627233	42534 136 1320 11171 20.409 25.526415146808 5 4 22 51 741
vector 627234  Network.dyn_peer[8]  lookupStabilitySig:vector  ETV
627234	42670 209 1320 11171 20.409 25.526415146808 5 0.13333332538605 0.95833333209157 2.9896127469838 2.4384364961539
vector 627235  Network.dyn_peer[8]  lookupTimeSig:vector  ETV
627235	42879 144 1320 11171 20.409 25.526415146808 5 0.4 2.3 5.5 8.39
vector 627248  Network.dyn_peer[13]  lookupHopsSig:vector  ETV
627248	45230 135 1336 11619 20.414 26.130555024321 5 4 26 57 967
vector 627249  Network.dyn_peer[13]  lookupStabilitySig:vector  ETV
627249	45365 208 1336 11619 20.414 26.130555024321 5 0.13333332538605 0.86764705181122 2.8670758903027 2.1985859839101
vector 627250  Network.dyn_peer[13]  lookupTimeSig:vector  ETV
627250	45573 141 1336 11619 20.414 26.130555024321 5 0.4 2.7 6.1 10.77
vector 627257  Network.dyn_peer[16]  lookupHopsSig:vector  ETV
627257	47337 141 1348 10249 20.417 24.6490967249 5 1 26 42 758
vector 627258  Network.dyn_peer[16]  lookupStabilitySig:vector  ETV
627258	47478 204 1348 10249 20.417 24.6490967249 5 0.125 0.96491228044033 2.9001526087523 2.3047375088318
vector 627259  Network.dyn_peer[16]  lookupTimeSig:vector  ETV
627259	47682 150 1348 10249 20.417 24.6490967249 5 0.2 2.7 4.6 8.38
vector 627260  Network.dyn_peer[17]  lookupHopsSig:vector  ETV
627260	47832 43 1354 5972 20.418 22.318 2 4 18 22 340
vector 627261  Network.dyn_peer[17]  lookupStabilitySig:vector  ETV
627261	47875 72 1354 5972 20.418 22.318 2 0.19999998807907 0.35714286565781 0.55714285373688 0.1675510217219
vector 627262  Network.dyn_peer[17]  lookupTimeSig:vector  ETV
627262	47947 46 1354 5972 20.418 22.318 2 0.4 1.9 2.3 3.77
vector 627269  Network.dyn_peer[20]  lookupHopsSig:vector  ETV
627269	49153 73 1364 6888 20.421 22.723502624955 3 4 16 25 297
vector 627270  Network.dyn_peer[20]  lookupStabilitySig:vector  ETV
627270	49226 117 1364 6888 20.421 22.723502624955 3 0.19999998807907 0.88636363297701 1.3907114341855 0.9182680764525
vector 627271  Network.dyn_peer[20]  lookupTimeSig:vector  ETV
627271	49343 78 1364 6888 20.421 22.723502624955 3 0.4 1.7 2.7 3.41
vector 627284  Network.dyn_peer[25]  lookupHopsSig:vector  ETV
627284	51564 106 1380 10909 20.426 25.231547027205 4 4 22 49 765
vector 627285  Network.dyn_peer[25]  lookupStabilitySig:vector  ETV
627285	51670 163 1380 10909 20.426 25.231547027205 4 0.19999998807907 0.91970802843571 2.4951056838036 1.886807474012
vector 627286  Network.dyn_peer[25]  lookupTimeSig:vector  ETV
627286	51833 111 1380 10909 20.426 25.231547027205 4 0.4 2.3 5.2 8.58
vector 627584  Network.dyn_peer[125]  lookupHopsSig:vector  ETV
627584	93415 101 1384 7739 20.426 23.13583388563 4 3 10 27 225
vector 627585  Network.dyn_peer[125]  lookupStabilitySig:vector  ETV
627585	93516 159 1384 7739 20.426 23.13583388563 4 0.16666668653488 0.93220338970423 2.228599794209 1.5892864211877
vector 627586  Network.dyn_peer[125]  lookupTimeSig:vector  ETV
627586	93675 107 1384 7739 20.426 23.13583388563 4 0.3 1.1 3 2.76
vector 627647  Network.dyn_peer[146]  lookupHopsSig:vector  ETV
627647	104382 164 1434 10934 20.447 25.268142382624 6 2 17 46 536
vector 627648  Network.dyn_peer[146]  lookupStabilitySig:vector  ETV
627648	104546 252 1434 10934 20.447 25.268142382624 6 0.34615385532379 0.97435897402465 4.4426119755954 3.699233798927
vector 627649  Network.dyn_peer[146]  lookupTimeSig:vector  ETV
627649	104798 174 1434 10934 20.447 25.268142382624 6 0.3 1.8 5.1 6.27
vector 627653  Network.dyn_peer[148]  lookupHopsSig:vector  ETV
627653	105686 43 1442 5820 20.449 22.249 2 3 17 20 298
vector 627654  Network.dyn_peer[148]  lookupStabilitySig:vector  ETV
627654	105729 72 1442 5820 20.449 22.249 2 0.34615385532379 0.39999997615814 0.74615383148193 0.27982247248204
vector 627655  Network.dyn_peer[148]  lookupTimeSig:vector  ETV
627655	105801 46 1442 5820 20.449 22.249 2 0.3 1.8 2.1 3.33
vector 627356  Network.dyn_peer[49]  lookupHopsSig:vector  ETV
627356	62567 71 1449 8112 20.45 23.351914712213 3 4 20 31 465
vector 627357  Network.dyn_peer[49]  lookupStabilitySig:vector  ETV
627357	62638 104 1449 8112 20.45 23.351914712213 3 0.19999998807907 0.88888888806105 1.4638888761401 0.97074845055004
vector 627358  Network.dyn_peer[49]  lookupTimeSig:vector  ETV
627358	62742 76 1449 8112 20.45 23.351914712213 3 0.4 2.1 3.3 5.21
vector 627395  Network.dyn_peer[62]  lookupHopsSig:vector  ETV
627395	67329 134 1480 9704 20.463 24.274618426851 5 4 13 38 358
vector 627396  Network.dyn_peer[62]  lookupStabilitySig:vector  ETV
627396	67463 207 1480 9704 20.463 24.274618426851 5 0.15384614467621 0.94366197288036 3.0056081488729 2.4264568810175
vector 627397  Network.dyn_peer[62]  lookupTimeSig:vector  ETV
627397	67670 142 1480 9704 20.463 24.274618426851 5 0.4 1.4 4.2 4.3
vector 627455  Network.dyn_peer[82]  lookupHopsSig:vector  ETV
627455	73734 136 1525 11144 20.483 25.498081170407 5 4 20 50 702
vector 627456  Network.dyn_peer[82]  lookupStabilitySig:vector  ETV
627456	73870 209 1525 11144 20.483 25.498081170407 5 0.19999998807907 0.95901639387012 3.3461625464261 2.7302453584943
vector 627457  Network.dyn_peer[82]  lookupTimeSig:vector  ETV
627457	74079 144 1525 11144 20.483 25.498081170407 5 0.4 2.1 5.4 7.98
vector 627470  Network.dyn_peer[87]  lookupHopsSig:vector  ETV
627470	75593 164 1539 11527 20.488 25.999105214164 6 4 20 54 650
vector 627471  Network.dyn_peer[87]  lookupStabilitySig:vector  ETV
627471	75757 253 1539 11527 20.488 25.999105214164 6 0.19999998807907 0.96153846010566 4.3497236333787 3.6721012233895
vector 627472  Network.dyn_peer[87]  lookupTimeSig:vector  ETV
627472	76010 171 1539 11527 20.488 25.999105214164 6 0.4 2.1 5.9 7.55
vector 627473  Network.dyn_peer[88]  lookupHopsSig:vector  ETV
627473	76181 100 1545 9428 20.489 24.094099668499 4 4 18 37 457
vector 627474  Network.dyn_peer[88]  lookupStabilitySig:vector  ETV
627474	76281 159 1545 9428 20.489 24.094099668499 4 0.19999998807907 0.89655172079802 2.369979724288 1.7871277044457
vector 627475  Network.dyn_peer[88]  lookupTimeSig:vector  ETV
627475	76440 105 1545 9428 20.489 24.094099668499 4 0.4 1.9 4 5.26
vector 627485  Network.dyn_peer[92]  lookupHopsSig:vector  ETV
627485	77982 143 1557 10578 20.493 24.909943766529 5 4 21 44 582
vector 627486  Network.dyn_peer[92]  lookupStabilitySig:vector  ETV
627486	78125 217 1557 10578 20.493 24.909943766529 5 0.19999998807907 0.88372092694044 2.9302242770791 2.1382900293774
vector 627487  Network.dyn_peer[92]  lookupTimeSig:vector  ETV
627487	78342 152 1557 10578 20.493 24.909943766529 5 0.4 2.2 4.8 6.66
vector 627521  Network.dyn_peer[104]  lookupHopsSig:vector  ETV
627521	83362 73 1586 6860 20.505 22.711620061486 3 4 11 24 218
vector 627522  Network.dyn_peer[104]  lookupStabilitySig:vector  ETV
627522	83435 117 1586 6860 20.505 22.711620061486 3 0.19999998807907 0.79069767892361 1.2049833983183 0.71112118933228
vector 627523  Network.dyn_peer[104]  lookupTimeSig:vector  ETV
627523	83552 76 1586 6860 20.505 22.711620061486 3 0.4 1.2 2.6 2.6
vector 627548  Network.dyn_peer[113]  lookupHopsSig:vector  ETV
627548	88273 103 1608 7532 20.514 23.030751279975 4 4 10 26 196
vector 627549  Network.dyn_peer[113]  lookupStabilitySig:vector  ETV
627549	88376 160 1608 7532 20.514 23.030751279975 4 0.19999998807907 0.8214285671711 2.0588616877794 1.3739001248278
vector 627550  Network.dyn_peer[113]  lookupTimeSig:vector  ETV
627550	88536 110 1608 7532 20.514 23.030751279975 4 0.4 1.1 2.9 2.43
vector 627557  Network.dyn_peer[116]  lookupHopsSig:vector  ETV
627557	89482 73 1618 7893 20.517 23.222198104451 3 4 16 29 353
vector 627558  Network.dyn_peer[116]  lookupStabilitySig:vector  ETV
627558	89555 117 1618 7893 20.517 23.222198104451 3 0.19999998807907 0.85245901346207 1.4370743632317 0.91461534131268
vector 627559  Network.dyn_peer[116]  lookupTimeSig:vector  ETV
627559	89672 76 1618 7893 20.517 23.222198104451 3 0.4 1.7 3.1 4.05
vector 627575  Network.dyn_peer[122]  lookupHopsSig:vector  ETV
627575	91856 198 1634 11850 20.523 26.546501551045 7 1 15 58 608
vector 627576  Network.dyn_peer[122]  lookupStabilitySig:vector  ETV
627576	92054 288 1634 11850 20.523 26.546501551045 7 0.19999998807907 0.99401197582483 5.1801900714636 4.4373694656652
vector 627577  Network.dyn_peer[122]  lookupTimeSig:vector  ETV
627577	92342 207 1634 11850 20.523 26.546501551045 7 0.2 1.6 6.4 7.22
vector 627602  Network.dyn_peer[131]  lookupHopsSig:vector  ETV
627602	96621 102 1657 5083 20.532 21.940913656691 4 1 5 15 67
vector 627603  Network.dyn_peer[131]  lookupStabilitySig:vector  ETV
627603	96723 162 1657 5083 20.532 21.940913656691 4 0.19999998807907 0.79999999701977 2.2513368576765 1.4757905157115
vector 627604  Network.dyn_peer[131]  lookupTimeSig:vector  ETV
627604	96885 110 1657 5083 20.532 21.940913656691 4 0.2 0.6 1.8 0.92
vector 627611  Network.dyn_peer[134]  lookupHopsSig:vector  ETV
627611	97530 195 1668 11360 20.535 25.774742024717 7 1 19 50 760
vector 627612  Network.dyn_peer[134]  lookupStabilitySig:vector  ETV
627612	97725 289 1668 11360 20.535 25.774742024717 7 0.19999998807907 0.98666666634381 5.3522882536054 4.7187463280923
vector 627613  Network.dyn_peer[134]  lookupTimeSig:vector  ETV
627613	98014 203 1668 11360 20.535 25.774742024717 7 0.2 2 5.6 8.58
vector 627326  Network.dyn_peer[39]  lookupHopsSig:vector  ETV
627326	58444 132 1681 11015 20.54 25.353163701117 5 5 22 49 679
vector 627327  Network.dyn_peer[39]  lookupStabilitySig:vector  ETV
627327	58576 191 1681 11015 20.54 25.353163701117 5 0 0.93571428209543 2.816266477108 2.2582048905592
vector 627328  Network.dyn_peer[39]  lookupTimeSig:vector  ETV
627328	58767 139 1681 11015 20.54 25.353163701117 5 0.5 2.3 5.3 7.71
vector 627659  Network.dyn_peer[150]  lookupHopsSig:vector  ETV
627659	106111 72 1710 5613 20.551 22.158877905443 3 4 9 18 122
vector 627660  Network.dyn_peer[150]  lookupStabilitySig:vector  ETV
627660	106183 117 1710 5613 20.551 22.158877905443 3 0.19999998807907 0.79166667163372 1.2993589490652 0.76141065913417
vector 627661  Network.dyn_peer[150]  lookupTimeSig:vector  ETV
627661	106300 76 1710 5613 20.551 22.158877905443 3 0.4 1 2 1.52
vector 627365  Network.dyn_peer[52]  lookupHopsSig:vector  ETV
627365	63341 132 1718 8523 20.553 23.571548267404 5 4 13 31 251
vector 627366  Network.dyn_peer[52]  lookupStabilitySig:vector  ETV
627366	63473 191 1718 8523 20.553 23.571548267404 5 0 0.94366197288036 3.042699880898 2.5810617946167
vector 627367  Network.dyn_peer[52]  lookupTimeSig:vector  ETV
627367	63664 141 1718 8523 20.553 23.571548267404 5 0.5 1.4 3.5 3.07
vector 627371  Network.dyn_peer[54]  lookupHopsSig:vector  ETV
627371	64388 43 1726 5357 20.555 22.055 2 5 14 19 221
vector 627372  Network.dyn_peer[54]  lookupStabilitySig:vector  ETV
627372	64431 57 1726 5357 20.555 22.055 2 0 0.33333331346512 0.33333331346512 0.11111109786564
vector 627373  Network.dyn_peer[54]  lookupTimeSig:vector  ETV
627373	64488 46 1726 5357 20.555 22.055 2 0.5 1.5 2 2.5
vector 627437  Network.dyn_peer[76]  lookupHopsSig:vector  ETV
627437	72202 43 1777 6560 20.577 22.577 2 5 19 24 386
vector 627438  Network.dyn_peer[76]  lookupStabilitySig:vector  ETV
627438	72245 48 1777 6560 20.577 22.577 2 0 0.40625 0.40625 0.1650390625
vector 627439  Network.dyn_peer[76]  lookupTimeSig:vector  ETV
627439	72293 44 1777 6560 20.577 22.577 2 0.5 2 2.5 4.25
vector 627440  Network.dyn_peer[77]  lookupHopsSig:vector  ETV
627440	72337 73 1783 6578 20.578 22.584824435598 3 5 11 23 195
vector 627441  Network.dyn_peer[77]  lookupStabilitySig:vector  ETV
627441	72410 102 1783 6578 20.578 22.584824435598 3 0 0.78787878155708 1.0021645128727 0.66667134907333
vector 627442  Network.dyn_peer[77]  lookupTimeSig:vector  ETV
627442	72512 78 1783 6578 20.578 22.584824435598 3 0.5 1.2 2.5 2.33
vector 627776  Network.dyn_peer[189]  lookupHopsSig:vector  ETV
627776	125395 167 1811 12022 20.59 26.912397429871 6 4 13 62 706