file 28821 1369522305                                           
version 2
run Stability2-125-20130526-00:51:44-26640
attr configname Stability2
attr datetime 20130526-00:51:44
attr experiment Stability2
attr inifile omnetpp.ini
attr iterationvars $0=50
attr iterationvars2 "$0=50, $repetition=5"
attr measurement $0=50
attr network Network
attr processid 26640
attr repetition 5
attr replication #5
attr resultdir results
attr runnumber 125
attr seedset 125

vector 378125  Network.churner  inGoingSizeSig:vector  ETV
vector 375125  Network.dyn_peer[0]  lookupHopsSig:vector  ETV
vector 375126  Network.dyn_peer[0]  lookupStabilitySig:vector  ETV
vector 375127  Network.dyn_peer[0]  lookupTimeSig:vector  ETV
vector 375128  Network.dyn_peer[1]  lookupHopsSig:vector  ETV
vector 375129  Network.dyn_peer[1]  lookupStabilitySig:vector  ETV
vector 375130  Network.dyn_peer[1]  lookupTimeSig:vector  ETV
vector 375137  Network.dyn_peer[4]  lookupHopsSig:vector  ETV
vector 375138  Network.dyn_peer[4]  lookupStabilitySig:vector  ETV
vector 375139  Network.dyn_peer[4]  lookupTimeSig:vector  ETV
vector 375164  Network.dyn_peer[13]  lookupHopsSig:vector  ETV
vector 375165  Network.dyn_peer[13]  lookupStabilitySig:vector  ETV
vector 375166  Network.dyn_peer[13]  lookupTimeSig:vector  ETV
vector 375176  Network.dyn_peer[17]  lookupHopsSig:vector  ETV
vector 375177  Network.dyn_peer[17]  lookupStabilitySig:vector  ETV
vector 375178  Network.dyn_peer[17]  lookupTimeSig:vector  ETV
vector 375185  Network.dyn_peer[20]  lookupHopsSig:vector  ETV
vector 375186  Network.dyn_peer[20]  lookupStabilitySig:vector  ETV
vector 375187  Network.dyn_peer[20]  lookupTimeSig:vector  ETV
vector 375269  Network.dyn_peer[48]  lookupHopsSig:vector  ETV
vector 375270  Network.dyn_peer[48]  lookupStabilitySig:vector  ETV
vector 375271  Network.dyn_peer[48]  lookupTimeSig:vector  ETV
vector 375131  Network.dyn_peer[2]  lookupHopsSig:vector  ETV
vector 375132  Network.dyn_peer[2]  lookupStabilitySig:vector  ETV
vector 375133  Network.dyn_peer[2]  lookupTimeSig:vector  ETV
vector 375161  Network.dyn_peer[12]  lookupHopsSig:vector  ETV
vector 375162  Network.dyn_peer[12]  lookupStabilitySig:vector  ETV
vector 375163  Network.dyn_peer[12]  lookupTimeSig:vector  ETV
vector 375167  Network.dyn_peer[14]  lookupHopsSig:vector  ETV
vector 375168  Network.dyn_peer[14]  lookupStabilitySig:vector  ETV
vector 375169  Network.dyn_peer[14]  lookupTimeSig:vector  ETV
vector 375191  Network.dyn_peer[22]  lookupHopsSig:vector  ETV
vector 375192  Network.dyn_peer[22]  lookupStabilitySig:vector  ETV
vector 375193  Network.dyn_peer[22]  lookupTimeSig:vector  ETV
vector 375194  Network.dyn_peer[23]  lookupHopsSig:vector  ETV
vector 375195  Network.dyn_peer[23]  lookupStabilitySig:vector  ETV
vector 375196  Network.dyn_peer[23]  lookupTimeSig:vector  ETV
vector 375215  Network.dyn_peer[30]  lookupHopsSig:vector  ETV
vector 375216  Network.dyn_peer[30]  lookupStabilitySig:vector  ETV
vector 375217  Network.dyn_peer[30]  lookupTimeSig:vector  ETV
vector 375254  Network.dyn_peer[43]  lookupHopsSig:vector  ETV
vector 375255  Network.dyn_peer[43]  lookupStabilitySig:vector  ETV
vector 375256  Network.dyn_peer[43]  lookupTimeSig:vector  ETV
vector 375140  Network.dyn_peer[5]  lookupHopsSig:vector  ETV
vector 375141  Network.dyn_peer[5]  lookupStabilitySig:vector  ETV
vector 375142  Network.dyn_peer[5]  lookupTimeSig:vector  ETV
vector 375143  Network.dyn_peer[6]  lookupHopsSig:vector  ETV
vector 375144  Network.dyn_peer[6]  lookupStabilitySig:vector  ETV
vector 375145  Network.dyn_peer[6]  lookupTimeSig:vector  ETV
vector 375146  Network.dyn_peer[7]  lookupHopsSig:vector  ETV
vector 375147  Network.dyn_peer[7]  lookupStabilitySig:vector  ETV
vector 375148  Network.dyn_peer[7]  lookupTimeSig:vector  ETV
vector 375170  Network.dyn_peer[15]  lookupHopsSig:vector  ETV
vector 375171  Network.dyn_peer[15]  lookupStabilitySig:vector  ETV
vector 375172  Network.dyn_peer[15]  lookupTimeSig:vector  ETV
vector 375203  Network.dyn_peer[26]  lookupHopsSig:vector  ETV
vector 375204  Network.dyn_peer[26]  lookupStabilitySig:vector  ETV
vector 375205  Network.dyn_peer[26]  lookupTimeSig:vector  ETV
vector 375236  Network.dyn_peer[37]  lookupHopsSig:vector  ETV
vector 375237  Network.dyn_peer[37]  lookupStabilitySig:vector  ETV
vector 375238  Network.dyn_peer[37]  lookupTimeSig:vector  ETV
vector 375248  Network.dyn_peer[41]  lookupHopsSig:vector  ETV
vector 375249  Network.dyn_peer[41]  lookupStabilitySig:vector  ETV
vector 375250  Network.dyn_peer[41]  lookupTimeSig:vector  ETV
vector 375179  Network.dyn_peer[18]  lookupHopsSig:vector  ETV
vector 375180  Network.dyn_peer[18]  lookupStabilitySig:vector  ETV
vector 375181  Network.dyn_peer[18]  lookupTimeSig:vector  ETV
vector 375200  Network.dyn_peer[25]  lookupHopsSig:vector  ETV
vector 375201  Network.dyn_peer[25]  lookupStabilitySig:vector  ETV
vector 375202  Network.dyn_peer[25]  lookupTimeSig:vector  ETV
vector 375212  Network.dyn_peer[29]  lookupHopsSig:vector  ETV
vector 375213  Network.dyn_peer[29]  lookupStabilitySig:vector  ETV
vector 375214  Network.dyn_peer[29]  lookupTimeSig:vector  ETV
vector 375263  Network.dyn_peer[46]  lookupHopsSig:vector  ETV
vector 375264  Network.dyn_peer[46]  lookupStabilitySig:vector  ETV
vector 375265  Network.dyn_peer[46]  lookupTimeSig:vector  ETV
vector 375272  Network.dyn_peer[49]  lookupHopsSig:vector  ETV
vector 375273  Network.dyn_peer[49]  lookupStabilitySig:vector  ETV
vector 375274  Network.dyn_peer[49]  lookupTimeSig:vector  ETV
vector 375152  Network.dyn_peer[9]  lookupHopsSig:vector  ETV
vector 375153  Network.dyn_peer[9]  lookupStabilitySig:vector  ETV
vector 375154  Network.dyn_peer[9]  lookupTimeSig:vector  ETV
vector 375158  Network.dyn_peer[11]  lookupHopsSig:vector  ETV
vector 375159  Network.dyn_peer[11]  lookupStabilitySig:vector  ETV
vector 375160  Network.dyn_peer[11]  lookupTimeSig:vector  ETV
vector 375173  Network.dyn_peer[16]  lookupHopsSig:vector  ETV
vector 375174  Network.dyn_peer[16]  lookupStabilitySig:vector  ETV
vector 375175  Network.dyn_peer[16]  lookupTimeSig:vector  ETV
vector 375134  Network.dyn_peer[3]  lookupHopsSig:vector  ETV
vector 375135  Network.dyn_peer[3]  lookupStabilitySig:vector  ETV
vector 375136  Network.dyn_peer[3]  lookupTimeSig:vector  ETV
vector 375182  Network.dyn_peer[19]  lookupHopsSig:vector  ETV
vector 375183  Network.dyn_peer[19]  lookupStabilitySig:vector  ETV
vector 375184  Network.dyn_peer[19]  lookupTimeSig:vector  ETV
vector 375197  Network.dyn_peer[24]  lookupHopsSig:vector  ETV
vector 375198  Network.dyn_peer[24]  lookupStabilitySig:vector  ETV
vector 375199  Network.dyn_peer[24]  lookupTimeSig:vector  ETV
vector 375224  Network.dyn_peer[33]  lookupHopsSig:vector  ETV
vector 375225  Network.dyn_peer[33]  lookupStabilitySig:vector  ETV
vector 375226  Network.dyn_peer[33]  lookupTimeSig:vector  ETV
vector 375245  Network.dyn_peer[40]  lookupHopsSig:vector  ETV
vector 375246  Network.dyn_peer[40]  lookupStabilitySig:vector  ETV
vector 375247  Network.dyn_peer[40]  lookupTimeSig:vector  ETV
vector 375209  Network.dyn_peer[28]  lookupHopsSig:vector  ETV
vector 375210  Network.dyn_peer[28]  lookupStabilitySig:vector  ETV
vector 375211  Network.dyn_peer[28]  lookupTimeSig:vector  ETV
vector 375221  Network.dyn_peer[32]  lookupHopsSig:vector  ETV
vector 375222  Network.dyn_peer[32]  lookupStabilitySig:vector  ETV
vector 375223  Network.dyn_peer[32]  lookupTimeSig:vector  ETV
vector 375230  Network.dyn_peer[35]  lookupHopsSig:vector  ETV
vector 375231  Network.dyn_peer[35]  lookupStabilitySig:vector  ETV
vector 375232  Network.dyn_peer[35]  lookupTimeSig:vector  ETV
vector 375233  Network.dyn_peer[36]  lookupHopsSig:vector  ETV
vector 375234  Network.dyn_peer[36]  lookupStabilitySig:vector  ETV
vector 375235  Network.dyn_peer[36]  lookupTimeSig:vector  ETV
vector 375239  Network.dyn_peer[38]  lookupHopsSig:vector  ETV
vector 375240  Network.dyn_peer[38]  lookupStabilitySig:vector  ETV
vector 375241  Network.dyn_peer[38]  lookupTimeSig:vector  ETV
vector 375149  Network.dyn_peer[8]  lookupHopsSig:vector  ETV
vector 375150  Network.dyn_peer[8]  lookupStabilitySig:vector  ETV
vector 375151  Network.dyn_peer[8]  lookupTimeSig:vector  ETV
vector 375188  Network.dyn_peer[21]  lookupHopsSig:vector  ETV
vector 375189  Network.dyn_peer[21]  lookupStabilitySig:vector  ETV
vector 375190  Network.dyn_peer[21]  lookupTimeSig:vector  ETV
vector 375257  Network.dyn_peer[44]  lookupHopsSig:vector  ETV
vector 375258  Network.dyn_peer[44]  lookupStabilitySig:vector  ETV
vector 375259  Network.dyn_peer[44]  lookupTimeSig:vector  ETV
vector 375155  Network.dyn_peer[10]  lookupHopsSig:vector  ETV
vector 375156  Network.dyn_peer[10]  lookupStabilitySig:vector  ETV
vector 375157  Network.dyn_peer[10]  lookupTimeSig:vector  ETV
vector 375206  Network.dyn_peer[27]  lookupHopsSig:vector  ETV
vector 375207  Network.dyn_peer[27]  lookupStabilitySig:vector  ETV
vector 375208  Network.dyn_peer[27]  lookupTimeSig:vector  ETV
vector 375227  Network.dyn_peer[34]  lookupHopsSig:vector  ETV
vector 375228  Network.dyn_peer[34]  lookupStabilitySig:vector  ETV
vector 375229  Network.dyn_peer[34]  lookupTimeSig:vector  ETV
vector 375266  Network.dyn_peer[47]  lookupHopsSig:vector  ETV
vector 375267  Network.dyn_peer[47]  lookupStabilitySig:vector  ETV
vector 375268  Network.dyn_peer[47]  lookupTimeSig:vector  ETV
vector 375218  Network.dyn_peer[31]  lookupHopsSig:vector  ETV
vector 375219  Network.dyn_peer[31]  lookupStabilitySig:vector  ETV
vector 375220  Network.dyn_peer[31]  lookupTimeSig:vector  ETV
vector 375260  Network.dyn_peer[45]  lookupHopsSig:vector  ETV
vector 375261  Network.dyn_peer[45]  lookupStabilitySig:vector  ETV
vector 375262  Network.dyn_peer[45]  lookupTimeSig:vector  ETV
vector 375251  Network.dyn_peer[42]  lookupHopsSig:vector  ETV
vector 375252  Network.dyn_peer[42]  lookupStabilitySig:vector  ETV
vector 375253  Network.dyn_peer[42]  lookupTimeSig:vector  ETV
vector 375242  Network.dyn_peer[39]  lookupHopsSig:vector  ETV
vector 375243  Network.dyn_peer[39]  lookupStabilitySig:vector  ETV
vector 375244  Network.dyn_peer[39]  lookupTimeSig:vector  ETV
375125	10124 128 17 1257 20.001 21.516048460687 5 0 4 11 33
375126	10252 188 17 1257 20.001 21.516048460687 5 0.19999998807907 1 3.485714264214 2.8273469208272
375127	10440 136 17 1257 20.001 21.516048460687 5 0 0.5 1.5 0.59
375128	10576 165 25 1665 20.002 22.525079750696 6 0 6 20 96
375129	10741 241 25 1665 20.002 22.525079750696 6 -0.20000004768372 1 4.1480807512999 3.8475171547443
375130	10982 175 25 1665 20.002 22.525079750696 6 0 0.7 2.5 1.41
375131	11157 72 202 1469 20.103 21.904368467041 3 1 15 17 227
375132	11229 116 202 1469 20.103 21.904368467041 3 0.34782606363297 0.96551724150777 2.1133433021605 1.6932065094228
375133	11345 77 202 1469 20.103 21.904368467041 3 0.1 1.6 1.9 2.61
375134	11422 50 530 1191 20.504 21.413528462176 2 5 8 13 89
375135	11472 64 530 1191 20.504 21.413528462176 2 0 0.5294117629528 0.5294117629528 0.2802768147528
375136	11536 54 530 1191 20.504 21.413528462176 2 0.5 0.9 1.4 1.06
375137	11590 107 38 1419 20.005 21.820307227098 4 0 7 15 83
375138	11697 153 38 1419 20.005 21.820307227098 4 -0.39999997615814 1 2.2068376168609 2.46414927775
375139	11850 113 38 1419 20.005 21.820307227098 4 0 0.8 1.8 1.16
375140	11963 70 294 1122 20.206 21.310827077959 3 2 6 11 49
375141	12033 100 294 1122 20.206 21.310827077959 3 0 0.79999999701977 1.3999999910593 0.99999998807907
375142	12133 76 294 1122 20.206 21.310827077959 3 0.2 0.7 1.3 0.69
375143	12209 129 299 1748 20.207 22.965485067518 5 2 8 25 149
375144	12338 204 299 1748 20.207 22.965485067518 5 0.22222220897675 0.89189188927412 3.3636379018426 2.5657826436128
375145	12542 139 299 1748 20.207 22.965485067518 5 0.2 0.9 2.9 1.99
375146	12681 100 304 1417 20.208 21.819274199857 4 2 8 15 81
375147	12781 160 304 1417 20.208 21.819274199857 4 0.55555555224419 0.88000000268221 2.6355555430055 1.8030419620449
375148	12941 108 304 1417 20.208 21.819274199857 4 0.2 0.9 1.8 1.1
375149	13049 41 698 1307 20.709 21.609 2 7 8 15 113
375150	13090 72 698 1307 20.709 21.609 2 -0.39999997615814 0.61904761195183 0.21904763579369 0.54321992678978
375151	13162 45 698 1307 20.709 21.609 2 0.7 0.9 1.6 1.3
375152	13207 68 461 1006 20.41 21.115826531529 3 1 4 9 33
375153	13275 113 461 1006 20.41 21.115826531529 3 0.19999998807907 0.90909090638161 1.4424242079258 0.977557369163
375154	13388 74 461 1006 20.41 21.115826531529 3 0.2 0.5 1.1 0.45
375155	13462 101 770 1512 20.811 22.023211327459 4 1 8 17 99
375156	13563 161 770 1512 20.811 22.023211327459 4 -0.60000002384186 0.9545454531908 1.9636535793543 2.5852437923369
375157	13724 109 770 1512 20.811 22.023211327459 4 0.2 0.8 2 1.2
375158	13833 70 469 1012 20.412 21.117306827466 3 1 4 9 33
375159	13903 115 469 1012 20.412 21.117306827466 3 0.19999998807907 0.90909090638161 1.4424242079258 0.977557369163
375160	14018 76 469 1012 20.412 21.117306827466 3 0.2 0.5 1.1 0.45
375161	14094 79 218 1510 20.113 22.021592819261 3 1 9 18 146
375162	14173 124 218 1510 20.113 22.021592819261 3 0.19999998807907 0.79999999701977 1.709677413106 1.1836420422861
375163	14297 83 218 1510 20.113 22.021592819261 3 0.1 1 2 1.82
375164	14380 68 74 862 20.014 20.919198865574 3 0 4 7 25
375165	14448 98 74 862 20.014 20.919198865574 3 0.39999997615814 1 1.8285713791847 1.3436734284187
375166	14546 72 74 862 20.014 20.919198865574 3 0 0.5 0.9 0.41
375167	14618 159 224 1750 20.115 22.96845443325 6 1 7 22 108
375168	14777 248 224 1750 20.115 22.96845443325 6 -0.16666662693024 0.94999999925494 4.249770142138 3.9540019345619
375169	15025 171 224 1750 20.115 22.96845443325 6 0.1 0.8 2.7 1.55
375170	15196 160 318 1741 20.216 22.93895247566 6 2 8 24 122
375171	15356 241 318 1741 20.216 22.93895247566 6 0.27272725105286 0.95918367430568 4.4452316202223 3.6352474639237
375172	15597 172 318 1741 20.216 22.93895247566 6 0.2 0.9 2.9 1.71
375173	15769 100 479 1519 20.417 22.026187360212 4 1 8 17 97
375174	15869 151 479 1519 20.417 22.026187360212 4 0.19999998807907 0.96875 2.4872684776783 1.9219058851712
375175	16020 108 479 1519 20.417 22.026187360212 4 0.2 0.9 2 1.26
375176	16128 69 91 1216 20.018 21.429774107933 3 0 7 12 74
375177	16197 100 91 1216 20.018 21.429774107933 3 -0.39999997615814 1 1.3222222328186 1.6816049000658
375178	16297 73 91 1216 20.018 21.429774107933 3 0 0.8 1.4 1
375179	16370 100 396 1569 20.319 22.131596851191 4 3 6 18 90
375180	16470 160 396 1569 20.319 22.131596851191 4 0.39999997615814 0.83783784508705 2.4711711257696 1.7164166526792
375181	16630 108 396 1569 20.319 22.131596851191 4 0.3 0.7 2.1 1.23
375182	16738 48 558 1320 20.52 21.6242187666 2 5 10 15 125
375183	16786 62 558 1320 20.52 21.6242187666 2 0 0.54545453190804 0.54545453190804 0.29752064637901
375184	16848 51 558 1320 20.52 21.6242187666 2 0.5 1.1 1.6 1.46
375185	16899 102 104 1529 20.021 22.037071935619 4 0 13 17 179
375186	17001 146 104 1529 20.021 22.037071935619 4 0.27777779102325 1 3.1372549142689 2.8093254787828
375187	17147 107 104 1529 20.021 22.037071935619 4 0 1.4 2 2.16
375188	17254 71 721 1426 20.722 21.825293456495 3 2 7 16 102
375189	17325 117 721 1426 20.722 21.825293456495 3 -0.39999997615814 0.92592592537403 1.1759259551764 1.4398388079549
375190	17442 77 721 1426 20.722 21.825293456495 3 0.3 0.8 1.8 1.22
375191	17519 69 238 886 20.123 20.936492587884 3 1 4 7 21
375192	17588 101 238 886 20.123 20.936492587884 3 0.5 0.79999999701977 1.8999999910593 1.2499999880791
375193	17689 75 238 886 20.123 20.936492587884 3 0.1 0.5 0.9 0.35
375194	17764 78 243 822 20.124 20.843851548084 3 1 4 6 18
375195	17842 123 243 822 20.124 20.843851548084 3 0.19999998807907 0.79999999701977 1.7999999821186 1.3199999856949
375196	17965 84 243 822 20.124 20.843851548084 3 0.1 0.5 0.8 0.3
375197	18049 160 566 1720 20.525 22.758745374128 6 2 5 22 88
375198	18209 235 566 1720 20.525 22.758745374128 6 0 0.95348837226629 4.1875463426113 3.5957127505153
375199	18444 172 566 1720 20.525 22.758745374128 6 0.3 0.6 2.7 1.27
375200	18616 102 406 1754 20.326 23.033884904119 4 3 11 27 219
375201	18718 161 406 1754 20.326 23.033884904119 4 0.39999997615814 0.86486487090588 2.5810552984476 1.8403485744446
375202	18879 109 406 1754 20.326 23.033884904119 4 0.3 1.2 3 2.7
375203	18988 70 333 1604 20.227 22.22969885322 3 2 11 20 174
375204	19058 114 333 1604 20.227 22.22969885322 3 0.30000001192093 0.72499999403954 1.625 0.97562499135733
375205	19172 75 333 1604 20.227 22.22969885322 3 0.2 1.2 2.2 2.12
375206	19247 41 800 1086 20.828 21.228 2 3 8 11 73
375207	19288 72 800 1086 20.828 21.228 2 -0.60000002384186 0.78571428358555 0.18571425974369 0.97734696404058
375208	19360 45 800 1086 20.828 21.228 2 0.4 0.8 1.2 0.8
375209	19405 101 639 1608 20.629 22.238380817668 4 2 6 19 101
375210	19506 151 639 1608 20.629 22.238380817668 4 -0.20000004768372 0.94999999925494 2.2083332799375 2.0275694538239
375211	19657 109 639 1608 20.629 22.238380817668 4 0.3 0.7 2.2 1.3
375212	19766 68 414 1035 20.33 21.138415689556 3 2 4 9 29
375213	19834 113 414 1035 20.33 21.138415689556 3 0.19999998807907 0.84615384042263 1.4461538046598 0.91597629782011
375214	19947 74 414 1035 20.33 21.138415689556 3 0.3 0.5 1.1 0.43
375215	20021 109 254 1252 20.131 21.463693566198 4 1 5 11 43
375216	20130 168 254 1252 20.131 21.463693566198 4 0.19999998807907 0.9473684206605 2.6140350624919 2.021951346127
375217	20298 117 254 1252 20.131 21.463693566198 4 0.1 0.6 1.4 0.66
375218	20415 72 958 1527 21.032 22.036944387846 3 2 10 18 140
375219	20487 90 958 1527 21.032 22.036944387846 3 0 0.875 1.698529407382 1.443825684823
375220	20577 75 958 1527 21.032 22.036944387846 3 0.3 1 2 1.58
375221	20652 42 646 1386 20.633 21.733 2 6 10 16 136
375222	20694 72 646 1386 20.633 21.733 2 -0.20000004768372 0.56521740555763 0.36521735787392 0.35947073461879
375223	20766 45 646 1386 20.633 21.733 2 0.6 1.1 1.7 1.57
375224	20811 70 578 1160 20.534 21.338584249192 3 2 5 11 45
375225	20881 89 578 1160 20.534 21.338584249192 3 0 0.875 1.4749999940395 1.1256249928474
375226	20970 76 578 1160 20.534 21.338584249192 3 0.3 0.5 1.3 0.59
375227	21046 101 883 1631 20.935 22.343671593328 4 2 9 20 126
375228	21147 151 883 1631 20.935 22.343671593328 4 -0.125 0.95238095149398 2.4623015783727 2.2622866124012
375229	21298 109 883 1631 20.935 22.343671593328 4 0.3 0.9 2.3 1.51
375230	21407 101 653 1541 20.636 22.045109476827 4 2 6 17 85
375231	21508 151 653 1541 20.636 22.045109476827 4 -0.20000004768372 0.91666666418314 2.2547100931406 2.1045511825351
375232	21659 109 653 1541 20.636 22.045109476827 4 0.3 0.7 2 1.1
375233	21768 130 659 1728 20.637 22.849808475987 5 1 7 24 136
375234	21898 206 659 1728 20.637 22.849808475987 5 -0.20000004768372 0.97872340492904 3.1398344542831 2.90299209405
375235	22104 140 659 1728 20.637 22.849808475987 5 0.2 0.8 2.8 1.76
375236	22244 220 348 1770 20.238 23.259331709363 8 1 7 25 105
375237	22464 318 348 1770 20.238 23.259331709363 8 0.30000001192093 0.98113207519054 6.4062976650894 5.5134710912343
375238	22782 236 348 1770 20.238 23.259331709363 8 0.2 0.8 3.2 1.58
375239	23018 71 668 1579 20.639 22.147468884229 3 4 9 19 133
375240	23089 117 668 1579 20.639 22.147468884229 3 -0.20000004768372 0.89473684132099 1.3034324496984 1.2110644359983
375241	23206 75 668 1579 20.639 22.147468884229 3 0.5 1 2.1 1.61
375242	23281 101 1343 1765 21.64 23.155810124186 4 2 16 28 312
375243	23382 159 1343 1765 21.64 23.155810124186 4 0.30434781312943 0.9333333298564 3.0274247229099 2.566920795662
375244	23541 108 1343 1765 21.64 23.155810124186 4 0.3 1.6 3.1 3.39
375245	23649 70 591 1577 20.541 22.14587554749 3 5 9 19 131
375246	23719 100 591 1577 20.541 22.14587554749 3 0 0.76315788924694 1.4060150235891 0.9956752590945
375247	23819 74 591 1577 20.541 22.14587554749 3 0.5 1 2.1 1.61
375248	23893 72 357 1450 20.242 21.846070738782 3 2 11 16 134
375249	23965 116 357 1450 20.242 21.846070738782 3 0.42105263471603 0.89285714179277 1.9139097705483 1.3344791896991
375250	24081 77 357 1450 20.242 21.846070738782 3 0.2 1.2 1.8 1.64
375251	24158 193 1047 1786 21.143 24.171460830111 7 1 11 35 251
375252	24351 297 1047 1786 21.143 24.171460830111 7 0.21428573131561 0.97222222201526 5.6380837541074 4.9767649500425
375253	24648 206 1047 1786 21.143 24.171460830111 7 0.2 1.1 4.1 3.05
375254	24854 132 276 1730 20.144 22.854555405643 5 1 13 24 212
375255	24986 206 276 1730 20.144 22.854555405643 5 0.38095235824585 0.97872340492904 3.9404565375298 3.328618795312
375256	25192 141 276 1730 20.144 22.854555405643 5 0.1 1.4 2.8 2.62
375257	25333 100 749 1406 20.745 21.756461836572 4 1 7 14 76
375258	25433 161 749 1406 20.745 21.756461836572 4 -0.39999997615814 0.95833333209157 2.2091270051897 2.4490250767745
375259	25594 108 749 1406 20.745 21.756461836572 4 0.2 0.7 1.7 0.93
375260	25702 102 983 1762 21.046 23.061582391079 4 4 10 27 201
375261	25804 134 983 1762 21.046 23.061582391079 4 0 0.92156862467527 2.5382352843881 2.1628998290436
375262	25938 107 983 1762 21.046 23.061582391079 4 0.5 1 3 2.38
375263	26045 159 440 1662 20.347 22.47002631382 6 2 6 19 73
375264	26204 248 440 1662 20.347 22.47002631382 6 0.39999997615814 0.9333333298564 4.4004123359919 3.4660513935185
375265	26452 171 440 1662 20.347 22.47002631382 6 0.3 0.7 2.4 1.1
375266	26623 100 907 1501 20.948 21.95882271637 4 1 9 16 102
375267	26723 144 907 1501 20.948 21.95882271637 4 0 0.9333333298564 2.6879917085171 2.4157756510333
375268	26867 108 907 1501 20.948 21.95882271637 4 0.2 0.9 1.9 1.19
375269	26975 69 192 989 20.049 21.053267240003 3 0 7 8 50
375270	27044 99 192 989 20.049 21.053267240003 3 0.30000001192093 1 2.1000000089407 1.7300000023842
375271	27143 73 192 989 20.049 21.053267240003 3 0 0.8 1 0.68
375272	27216 159 446 1704 20.35 22.66526366943 6 1 10 21 127
375273	27375 247 446 1704 20.35 22.66526366943 6 0.39999997615814 0.97674418613315 4.6525356285274 3.9577973038881
375274	27622 170 446 1704 20.35 22.66526366943 6 0.2 1.1 2.6 1.68
378125	27792 1029 10 193 20 20.05 51 0 49 1225 40425
