version 2
run Stability2-194-20130526-00:52:16-26640
attr configname Stability2
attr datetime 20130526-00:52:16
attr experiment Stability2
attr inifile omnetpp.ini
attr iterationvars $0=200
attr iterationvars2 "$0=200, $repetition=14"
attr measurement $0=200
attr network Network
attr processid 26640
attr repetition 14
attr replication #14
attr resultdir results
attr runnumber 194
attr seedset 194

vector 585194  Network.churner  inGoingSizeSig:vector  ETV
vector 582227  Network.dyn_peer[11]  lookupHopsSig:vector  ETV
vector 582228  Network.dyn_peer[11]  lookupStabilitySig:vector  ETV
vector 582229  Network.dyn_peer[11]  lookupTimeSig:vector  ETV
vector 582230  Network.dyn_peer[12]  lookupHopsSig:vector  ETV
vector 582231  Network.dyn_peer[12]  lookupStabilitySig:vector  ETV
vector 582232  Network.dyn_peer[12]  lookupTimeSig:vector  ETV
vector 582251  Network.dyn_peer[19]  lookupHopsSig:vector  ETV
vector 582252  Network.dyn_peer[19]  lookupStabilitySig:vector  ETV
vector 582253  Network.dyn_peer[19]  lookupTimeSig:vector  ETV
vector 582257  Network.dyn_peer[21]  lookupHopsSig:vector  ETV
vector 582258  Network.dyn_peer[21]  lookupStabilitySig:vector  ETV
vector 582259  Network.dyn_peer[21]  lookupTimeSig:vector  ETV
vector 582290  Network.dyn_peer[32]  lookupHopsSig:vector  ETV
vector 582291  Network.dyn_peer[32]  lookupStabilitySig:vector  ETV
vector 582292  Network.dyn_peer[32]  lookupTimeSig:vector  ETV
vector 582302  Network.dyn_peer[36]  lookupHopsSig:vector  ETV
vector 582303  Network.dyn_peer[36]  lookupStabilitySig:vector  ETV
vector 582304  Network.dyn_peer[36]  lookupTimeSig:vector  ETV
vector 582305  Network.dyn_peer[37]  lookupHopsSig:vector  ETV
vector 582306  Network.dyn_peer[37]  lookupStabilitySig:vector  ETV
vector 582307  Network.dyn_peer[37]  lookupTimeSig:vector  ETV
vector 582323  Network.dyn_peer[43]  lookupHopsSig:vector  ETV
vector 582324  Network.dyn_peer[43]  lookupStabilitySig:vector  ETV
vector 582325  Network.dyn_peer[43]  lookupTimeSig:vector  ETV
vector 582326  Network.dyn_peer[44]  lookupHopsSig:vector  ETV
vector 582327  Network.dyn_peer[44]  lookupStabilitySig:vector  ETV
vector 582328  Network.dyn_peer[44]  lookupTimeSig:vector  ETV
vector 582338  Network.dyn_peer[48]  lookupHopsSig:vector  ETV
vector 582339  Network.dyn_peer[48]  lookupStabilitySig:vector  ETV
vector 582340  Network.dyn_peer[48]  lookupTimeSig:vector  ETV
vector 582365  Network.dyn_peer[57]  lookupHopsSig:vector  ETV
vector 582366  Network.dyn_peer[57]  lookupStabilitySig:vector  ETV
vector 582367  Network.dyn_peer[57]  lookupTimeSig:vector  ETV
vector 582377  Network.dyn_peer[61]  lookupHopsSig:vector  ETV
vector 582378  Network.dyn_peer[61]  lookupStabilitySig:vector  ETV
vector 582379  Network.dyn_peer[61]  lookupTimeSig:vector  ETV
vector 582416  Network.dyn_peer[74]  lookupHopsSig:vector  ETV
vector 582417  Network.dyn_peer[74]  lookupStabilitySig:vector  ETV
vector 582418  Network.dyn_peer[74]  lookupTimeSig:vector  ETV
vector 582203  Network.dyn_peer[3]  lookupHopsSig:vector  ETV
vector 582204  Network.dyn_peer[3]  lookupStabilitySig:vector  ETV
vector 582205  Network.dyn_peer[3]  lookupTimeSig:vector  ETV
vector 582239  Network.dyn_peer[15]  lookupHopsSig:vector  ETV
vector 582240  Network.dyn_peer[15]  lookupStabilitySig:vector  ETV
vector 582241  Network.dyn_peer[15]  lookupTimeSig:vector  ETV
vector 582263  Network.dyn_peer[23]  lookupHopsSig:vector  ETV
vector 582264  Network.dyn_peer[23]  lookupStabilitySig:vector  ETV
vector 582265  Network.dyn_peer[23]  lookupTimeSig:vector  ETV
vector 582269  Network.dyn_peer[25]  lookupHopsSig:vector  ETV
vector 582270  Network.dyn_peer[25]  lookupStabilitySig:vector  ETV
vector 582271  Network.dyn_peer[25]  lookupTimeSig:vector  ETV
vector 582296  Network.dyn_peer[34]  lookupHopsSig:vector  ETV
vector 582297  Network.dyn_peer[34]  lookupStabilitySig:vector  ETV
vector 582298  Network.dyn_peer[34]  lookupTimeSig:vector  ETV
vector 582335  Network.dyn_peer[47]  lookupHopsSig:vector  ETV
vector 582336  Network.dyn_peer[47]  lookupStabilitySig:vector  ETV
vector 582337  Network.dyn_peer[47]  lookupTimeSig:vector  ETV
vector 582362  Network.dyn_peer[56]  lookupHopsSig:vector  ETV
vector 582363  Network.dyn_peer[56]  lookupStabilitySig:vector  ETV
vector 582364  Network.dyn_peer[56]  lookupTimeSig:vector  ETV
vector 582407  Network.dyn_peer[71]  lookupHopsSig:vector  ETV
vector 582408  Network.dyn_peer[71]  lookupStabilitySig:vector  ETV
vector 582409  Network.dyn_peer[71]  lookupTimeSig:vector  ETV
vector 582425  Network.dyn_peer[77]  lookupHopsSig:vector  ETV
vector 582426  Network.dyn_peer[77]  lookupStabilitySig:vector  ETV
vector 582427  Network.dyn_peer[77]  lookupTimeSig:vector  ETV
vector 582434  Network.dyn_peer[80]  lookupHopsSig:vector  ETV
vector 582435  Network.dyn_peer[80]  lookupStabilitySig:vector  ETV
vector 582436  Network.dyn_peer[80]  lookupTimeSig:vector  ETV
vector 582458  Network.dyn_peer[88]  lookupHopsSig:vector  ETV
vector 582459  Network.dyn_peer[88]  lookupStabilitySig:vector  ETV
vector 582460  Network.dyn_peer[88]  lookupTimeSig:vector  ETV
vector 582461  Network.dyn_peer[89]  lookupHopsSig:vector  ETV
vector 582462  Network.dyn_peer[89]  lookupStabilitySig:vector  ETV
vector 582463  Network.dyn_peer[89]  lookupTimeSig:vector  ETV
vector 582473  Network.dyn_peer[93]  lookupHopsSig:vector  ETV
vector 582474  Network.dyn_peer[93]  lookupStabilitySig:vector  ETV
vector 582475  Network.dyn_peer[93]  lookupTimeSig:vector  ETV
vector 582194  Network.dyn_peer[0]  lookupHopsSig:vector  ETV
vector 582195  Network.dyn_peer[0]  lookupStabilitySig:vector  ETV
vector 582196  Network.dyn_peer[0]  lookupTimeSig:vector  ETV
vector 582197  Network.dyn_peer[1]  lookupHopsSig:vector  ETV
vector 582198  Network.dyn_peer[1]  lookupStabilitySig:vector  ETV
vector 582199  Network.dyn_peer[1]  lookupTimeSig:vector  ETV
vector 582206  Network.dyn_peer[4]  lookupHopsSig:vector  ETV
vector 582207  Network.dyn_peer[4]  lookupStabilitySig:vector  ETV
vector 582208  Network.dyn_peer[4]  lookupTimeSig:vector  ETV
vector 582221  Network.dyn_peer[9]  lookupHopsSig:vector  ETV
vector 582222  Network.dyn_peer[9]  lookupStabilitySig:vector  ETV
vector 582223  Network.dyn_peer[9]  lookupTimeSig:vector  ETV
vector 582224  Network.dyn_peer[10]  lookupHopsSig:vector  ETV
vector 582225  Network.dyn_peer[10]  lookupStabilitySig:vector  ETV
vector 582226  Network.dyn_peer[10]  lookupTimeSig:vector  ETV
vector 582260  Network.dyn_peer[22]  lookupHopsSig:vector  ETV
vector 582261  Network.dyn_peer[22]  lookupStabilitySig:vector  ETV
vector 582262  Network.dyn_peer[22]  lookupTimeSig:vector  ETV
vector 582560  Network.dyn_peer[122]  lookupHopsSig:vector  ETV
vector 582561  Network.dyn_peer[122]  lookupStabilitySig:vector  ETV
vector 582562  Network.dyn_peer[122]  lookupTimeSig:vector  ETV
vector 582272  Network.dyn_peer[26]  lookupHopsSig:vector  ETV
vector 582273  Network.dyn_peer[26]  lookupStabilitySig:vector  ETV
vector 582274  Network.dyn_peer[26]  lookupTimeSig:vector  ETV
vector 582284  Network.dyn_peer[30]  lookupHopsSig:vector  ETV
vector 582285  Network.dyn_peer[30]  lookupStabilitySig:vector  ETV
vector 582286  Network.dyn_peer[30]  lookupTimeSig:vector  ETV
vector 582329  Network.dyn_peer[45]  lookupHopsSig:vector  ETV
vector 582330  Network.dyn_peer[45]  lookupStabilitySig:vector  ETV
vector 582331  Network.dyn_peer[45]  lookupTimeSig:vector  ETV
vector 582383  Network.dyn_peer[63]  lookupHopsSig:vector  ETV
vector 582384  Network.dyn_peer[63]  lookupStabilitySig:vector  ETV
vector 582385  Network.dyn_peer[63]  lookupTimeSig:vector  ETV
vector 582386  Network.dyn_peer[64]  lookupHopsSig:vector  ETV
vector 582387  Network.dyn_peer[64]  lookupStabilitySig:vector  ETV
vector 582388  Network.dyn_peer[64]  lookupTimeSig:vector  ETV
vector 582443  Network.dyn_peer[83]  lookupHopsSig:vector  ETV
vector 582444  Network.dyn_peer[83]  lookupStabilitySig:vector  ETV
vector 582445  Network.dyn_peer[83]  lookupTimeSig:vector  ETV
vector 582464  Network.dyn_peer[90]  lookupHopsSig:vector  ETV
vector 582465  Network.dyn_peer[90]  lookupStabilitySig:vector  ETV
vector 582466  Network.dyn_peer[90]  lookupTimeSig:vector  ETV
vector 582485  Network.dyn_peer[97]  lookupHopsSig:vector  ETV
vector 582486  Network.dyn_peer[97]  lookupStabilitySig:vector  ETV
vector 582487  Network.dyn_peer[97]  lookupTimeSig:vector  ETV
vector 582212  Network.dyn_peer[6]  lookupHopsSig:vector  ETV
vector 582213  Network.dyn_peer[6]  lookupStabilitySig:vector  ETV
vector 582214  Network.dyn_peer[6]  lookupTimeSig:vector  ETV
vector 582218  Network.dyn_peer[8]  lookupHopsSig:vector  ETV
vector 582219  Network.dyn_peer[8]  lookupStabilitySig:vector  ETV
vector 582220  Network.dyn_peer[8]  lookupTimeSig:vector  ETV
vector 582233  Network.dyn_peer[13]  lookupHopsSig:vector  ETV
vector 582234  Network.dyn_peer[13]  lookupStabilitySig:vector  ETV
vector 582235  Network.dyn_peer[13]  lookupTimeSig:vector  ETV
vector 582242  Network.dyn_peer[16]  lookupHopsSig:vector  ETV
vector 582243  Network.dyn_peer[16]  lookupStabilitySig:vector  ETV
vector 582244  Network.dyn_peer[16]  lookupTimeSig:vector  ETV
vector 582548  Network.dyn_peer[118]  lookupHopsSig:vector  ETV
vector 582549  Network.dyn_peer[118]  lookupStabilitySig:vector  ETV
vector 582550  Network.dyn_peer[118]  lookupTimeSig:vector  ETV
vector 582551  Network.dyn_peer[119]  lookupHopsSig:vector  ETV
vector 582552  Network.dyn_peer[119]  lookupStabilitySig:vector  ETV
vector 582553  Network.dyn_peer[119]  lookupTimeSig:vector  ETV
vector 582254  Network.dyn_peer[20]  lookupHopsSig:vector  ETV
vector 582255  Network.dyn_peer[20]  lookupStabilitySig:vector  ETV
vector 582256  Network.dyn_peer[20]  lookupTimeSig:vector  ETV
vector 582557  Network.dyn_peer[121]  lookupHopsSig:vector  ETV
vector 582558  Network.dyn_peer[121]  lookupStabilitySig:vector  ETV
vector 582559  Network.dyn_peer[121]  lookupTimeSig:vector  ETV
vector 582665  Network.dyn_peer[157]  lookupHopsSig:vector  ETV
vector 582666  Network.dyn_peer[157]  lookupStabilitySig:vector  ETV
vector 582667  Network.dyn_peer[157]  lookupTimeSig:vector  ETV
vector 582404  Network.dyn_peer[70]  lookupHopsSig:vector  ETV
vector 582405  Network.dyn_peer[70]  lookupStabilitySig:vector  ETV
vector 582406  Network.dyn_peer[70]  lookupTimeSig:vector  ETV
vector 582431  Network.dyn_peer[79]  lookupHopsSig:vector  ETV
vector 582432  Network.dyn_peer[79]  lookupStabilitySig:vector  ETV
vector 582433  Network.dyn_peer[79]  lookupTimeSig:vector  ETV
vector 582509  Network.dyn_peer[105]  lookupHopsSig:vector  ETV
vector 582510  Network.dyn_peer[105]  lookupStabilitySig:vector  ETV
vector 582511  Network.dyn_peer[105]  lookupTimeSig:vector  ETV
vector 582215  Network.dyn_peer[7]  lookupHopsSig:vector  ETV
vector 582216  Network.dyn_peer[7]  lookupStabilitySig:vector  ETV
vector 582217  Network.dyn_peer[7]  lookupTimeSig:vector  ETV
vector 582236  Network.dyn_peer[14]  lookupHopsSig:vector  ETV
vector 582237  Network.dyn_peer[14]  lookupStabilitySig:vector  ETV
vector 582238  Network.dyn_peer[14]  lookupTimeSig:vector  ETV
vector 582578  Network.dyn_peer[128]  lookupHopsSig:vector  ETV
vector 582579  Network.dyn_peer[128]  lookupStabilitySig:vector  ETV
vector 582580  Network.dyn_peer[128]  lookupTimeSig:vector  ETV
vector 582293  Network.dyn_peer[33]  lookupHopsSig:vector  ETV
vector 582294  Network.dyn_peer[33]  lookupStabilitySig:vector  ETV
vector 582295  Network.dyn_peer[33]  lookupTimeSig:vector  ETV
vector 582599  Network.dyn_peer[135]  lookupHopsSig:vector  ETV
vector 582600  Network.dyn_peer[135]  lookupStabilitySig:vector  ETV
vector 582601  Network.dyn_peer[135]  lookupTimeSig:vector  ETV
vector 582641  Network.dyn_peer[149]  lookupHopsSig:vector  ETV
vector 582642  Network.dyn_peer[149]  lookupStabilitySig:vector  ETV
vector 582643  Network.dyn_peer[149]  lookupTimeSig:vector  ETV
vector 582713  Network.dyn_peer[173]  lookupHopsSig:vector  ETV
vector 582714  Network.dyn_peer[173]  lookupStabilitySig:vector  ETV
vector 582715  Network.dyn_peer[173]  lookupTimeSig:vector  ETV
vector 582488  Network.dyn_peer[98]  lookupHopsSig:vector  ETV
vector 582489  Network.dyn_peer[98]  lookupStabilitySig:vector  ETV
vector 582490  Network.dyn_peer[98]  lookupTimeSig:vector  ETV
vector 582518  Network.dyn_peer[108]  lookupHopsSig:vector  ETV
vector 582519  Network.dyn_peer[108]  lookupStabilitySig:vector  ETV
vector 582520  Network.dyn_peer[108]  lookupTimeSig:vector  ETV
vector 582524  Network.dyn_peer[110]  lookupHopsSig:vector  ETV
vector 582525  Network.dyn_peer[110]  lookupStabilitySig:vector  ETV
vector 582526  Network.dyn_peer[110]  lookupTimeSig:vector  ETV
vector 582542  Network.dyn_peer[116]  lookupHopsSig:vector  ETV
vector 582543  Network.dyn_peer[116]  lookupStabilitySig:vector  ETV
vector 582544  Network.dyn_peer[116]  lookupTimeSig:vector  ETV
vector 582248  Network.dyn_peer[18]  lookupHopsSig:vector  ETV
vector 582249  Network.dyn_peer[18]  lookupStabilitySig:vector  ETV
vector 582250  Network.dyn_peer[18]  lookupTimeSig:vector  ETV
vector 582602  Network.dyn_peer[136]  lookupHopsSig:vector  ETV
vector 582603  Network.dyn_peer[136]  lookupStabilitySig:vector  ETV
vector 582604  Network.dyn_peer[136]  lookupTimeSig:vector  ETV
vector 582314  Network.dyn_peer[40]  lookupHopsSig:vector  ETV
vector 582315  Network.dyn_peer[40]  lookupStabilitySig:vector  ETV
vector 582316  Network.dyn_peer[40]  lookupTimeSig:vector  ETV
vector 582620  Network.dyn_peer[142]  lookupHopsSig:vector  ETV
vector 582621  Network.dyn_peer[142]  lookupStabilitySig:vector  ETV
vector 582622  Network.dyn_peer[142]  lookupTimeSig:vector  ETV
vector 582413  Network.dyn_peer[73]  lookupHopsSig:vector  ETV
vector 582414  Network.dyn_peer[73]  lookupStabilitySig:vector  ETV
vector 582415  Network.dyn_peer[73]  lookupTimeSig:vector  ETV
vector 582749  Network.dyn_peer[185]  lookupHopsSig:vector  ETV
vector 582750  Network.dyn_peer[185]  lookupStabilitySig:vector  ETV
vector 582751  Network.dyn_peer[185]  lookupTimeSig:vector  ETV
vector 582245  Network.dyn_peer[17]  lookupHopsSig:vector  ETV
vector 582246  Network.dyn_peer[17]  lookupStabilitySig:vector  ETV
vector 582247  Network.dyn_peer[17]  lookupTimeSig:vector  ETV
vector 582275  Network.dyn_peer[27]  lookupHopsSig:vector  ETV
vector 582276  Network.dyn_peer[27]  lookupStabilitySig:vector  ETV
vector 582277  Network.dyn_peer[27]  lookupTimeSig:vector  ETV
vector 582278  Network.dyn_peer[28]  lookupHopsSig:vector  ETV
vector 582279  Network.dyn_peer[28]  lookupStabilitySig:vector  ETV
vector 582280  Network.dyn_peer[28]  lookupTimeSig:vector  ETV
vector 582281  Network.dyn_peer[29]  lookupHopsSig:vector  ETV
vector 582282  Network.dyn_peer[29]  lookupStabilitySig:vector  ETV
vector 582283  Network.dyn_peer[29]  lookupTimeSig:vector  ETV
vector 582299  Network.dyn_peer[35]  lookupHopsSig:vector  ETV
vector 582300  Network.dyn_peer[35]  lookupStabilitySig:vector  ETV
vector 582301  Network.dyn_peer[35]  lookupTimeSig:vector  ETV
vector 582647  Network.dyn_peer[151]  lookupHopsSig:vector  ETV
vector 582648  Network.dyn_peer[151]  lookupStabilitySig:vector  ETV
vector 582649  Network.dyn_peer[151]  lookupTimeSig:vector  ETV
vector 582656  Network.dyn_peer[154]  lookupHopsSig:vector  ETV
vector 582657  Network.dyn_peer[154]  lookupStabilitySig:vector  ETV
vector 582658  Network.dyn_peer[154]  lookupTimeSig:vector  ETV
vector 582752  Network.dyn_peer[186]  lookupHopsSig:vector  ETV
vector 582753  Network.dyn_peer[186]  lookupStabilitySig:vector  ETV
vector 582754  Network.dyn_peer[186]  lookupTimeSig:vector  ETV
vector 582512  Network.dyn_peer[106]  lookupHopsSig:vector  ETV
vector 582513  Network.dyn_peer[106]  lookupStabilitySig:vector  ETV
vector 582514  Network.dyn_peer[106]  lookupTimeSig:vector  ETV
vector 582521  Network.dyn_peer[109]  lookupHopsSig:vector  ETV
vector 582522  Network.dyn_peer[109]  lookupStabilitySig:vector  ETV
vector 582523  Network.dyn_peer[109]  lookupTimeSig:vector  ETV
vector 582287  Network.dyn_peer[31]  lookupHopsSig:vector  ETV
vector 582288  Network.dyn_peer[31]  lookupStabilitySig:vector  ETV
vector 582289  Network.dyn_peer[31]  lookupTimeSig:vector  ETV
vector 582623  Network.dyn_peer[143]  lookupHopsSig:vector  ETV
vector 582624  Network.dyn_peer[143]  lookupStabilitySig:vector  ETV
vector 582625  Network.dyn_peer[143]  lookupTimeSig:vector  ETV
vector 582395  Network.dyn_peer[67]  lookupHopsSig:vector  ETV
vector 582396  Network.dyn_peer[67]  lookupStabilitySig:vector  ETV
vector 582397  Network.dyn_peer[67]  lookupTimeSig:vector  ETV
vector 582200  Network.dyn_peer[2]  lookupHopsSig:vector  ETV
vector 582201  Network.dyn_peer[2]  lookupStabilitySig:vector  ETV
vector 582202  Network.dyn_peer[2]  lookupTimeSig:vector  ETV
vector 582500  Network.dyn_peer[102]  lookupHopsSig:vector  ETV
vector 582501  Network.dyn_peer[102]  lookupStabilitySig:vector  ETV
vector 582502  Network.dyn_peer[102]  lookupTimeSig:vector  ETV
vector 582266  Network.dyn_peer[24]  lookupHopsSig:vector  ETV
vector 582267  Network.dyn_peer[24]  lookupStabilitySig:vector  ETV
vector 582268  Network.dyn_peer[24]  lookupTimeSig:vector  ETV
vector 582317  Network.dyn_peer[41]  lookupHopsSig:vector  ETV
vector 582318  Network.dyn_peer[41]  lookupStabilitySig:vector  ETV
vector 582319  Network.dyn_peer[41]  lookupTimeSig:vector  ETV
vector 582422  Network.dyn_peer[76]  lookupHopsSig:vector  ETV
vector 582423  Network.dyn_peer[76]  lookupStabilitySig:vector  ETV
vector 582424  Network.dyn_peer[76]  lookupTimeSig:vector  ETV
vector 582746  Network.dyn_peer[184]  lookupHopsSig:vector  ETV
vector 582747  Network.dyn_peer[184]  lookupStabilitySig:vector  ETV
vector 582748  Network.dyn_peer[184]  lookupTimeSig:vector  ETV
vector 582470  Network.dyn_peer[92]  lookupHopsSig:vector  ETV
vector 582471  Network.dyn_peer[92]  lookupStabilitySig:vector  ETV
vector 582472  Network.dyn_peer[92]  lookupTimeSig:vector  ETV
vector 582209  Network.dyn_peer[5]  lookupHopsSig:vector  ETV
vector 582210  Network.dyn_peer[5]  lookupStabilitySig:vector  ETV
vector 582211  Network.dyn_peer[5]  lookupTimeSig:vector  ETV
vector 582533  Network.dyn_peer[113]  lookupHopsSig:vector  ETV
vector 582534  Network.dyn_peer[113]  lookupStabilitySig:vector  ETV
vector 582535  Network.dyn_peer[113]  lookupTimeSig:vector  ETV
vector 582539  Network.dyn_peer[115]  lookupHopsSig:vector  ETV
vector 582540  Network.dyn_peer[115]  lookupStabilitySig:vector  ETV
vector 582541  Network.dyn_peer[115]  lookupTimeSig:vector  ETV
vector 582380  Network.dyn_peer[62]  lookupHopsSig:vector  ETV
vector 582381  Network.dyn_peer[62]  lookupStabilitySig:vector  ETV
vector 582382  Network.dyn_peer[62]  lookupTimeSig:vector  ETV
vector 582419  Network.dyn_peer[75]  lookupHopsSig:vector  ETV
vector 582420  Network.dyn_peer[75]  lookupStabilitySig:vector  ETV
vector 582421  Network.dyn_peer[75]  lookupTimeSig:vector  ETV
vector 582530  Network.dyn_peer[112]  lookupHopsSig:vector  ETV
vector 582531  Network.dyn_peer[112]  lookupStabilitySig:vector  ETV
vector 582532  Network.dyn_peer[112]  lookupTimeSig:vector  ETV
vector 582344  Network.dyn_peer[50]  lookupHopsSig:vector  ETV
vector 582345  Network.dyn_peer[50]  lookupStabilitySig:vector  ETV
vector 582346  Network.dyn_peer[50]  lookupTimeSig:vector  ETV
vector 582374  Network.dyn_peer[60]  lookupHopsSig:vector  ETV
vector 582375  Network.dyn_peer[60]  lookupStabilitySig:vector  ETV
vector 582376  Network.dyn_peer[60]  lookupTimeSig:vector  ETV
vector 582398  Network.dyn_peer[68]  lookupHopsSig:vector  ETV
vector 582399  Network.dyn_peer[68]  lookupStabilitySig:vector  ETV
vector 582400  Network.dyn_peer[68]  lookupTimeSig:vector  ETV
vector 582467  Network.dyn_peer[91]  lookupHopsSig:vector  ETV
vector 582468  Network.dyn_peer[91]  lookupStabilitySig:vector  ETV
vector 582469  Network.dyn_peer[91]  lookupTimeSig:vector  ETV
vector 582545  Network.dyn_peer[117]  lookupHopsSig:vector  ETV
vector 582546  Network.dyn_peer[117]  lookupStabilitySig:vector  ETV
vector 582547  Network.dyn_peer[117]  lookupTimeSig:vector  ETV
vector 582608  Network.dyn_peer[138]  lookupHopsSig:vector  ETV
vector 582609  Network.dyn_peer[138]  lookupStabilitySig:vector  ETV
vector 582610  Network.dyn_peer[138]  lookupTimeSig:vector  ETV
vector 582347  Network.dyn_peer[51]  lookupHopsSig:vector  ETV
vector 582348  Network.dyn_peer[51]  lookupStabilitySig:vector  ETV
vector 582349  Network.dyn_peer[51]  lookupTimeSig:vector  ETV
vector 582689  Network.dyn_peer[165]  lookupHopsSig:vector  ETV
vector 582690  Network.dyn_peer[165]  lookupStabilitySig:vector  ETV
vector 582691  Network.dyn_peer[165]  lookupTimeSig:vector  ETV
vector 582392  Network.dyn_peer[66]  lookupHopsSig:vector  ETV
vector 582393  Network.dyn_peer[66]  lookupStabilitySig:vector  ETV
vector 582394  Network.dyn_peer[66]  lookupTimeSig:vector  ETV
vector 582728  Network.dyn_peer[178]  lookupHopsSig:vector  ETV
vector 582729  Network.dyn_peer[178]  lookupStabilitySig:vector  ETV
vector 582730  Network.dyn_peer[178]  lookupTimeSig:vector  ETV
vector 582497  Network.dyn_peer[101]  lookupHopsSig:vector  ETV
vector 582498  Network.dyn_peer[101]  lookupStabilitySig:vector  ETV
vector 582499  Network.dyn_peer[101]  lookupTimeSig:vector  ETV
vector 582554  Network.dyn_peer[120]  lookupHopsSig:vector  ETV
vector 582555  Network.dyn_peer[120]  lookupStabilitySig:vector  ETV
vector 582556  Network.dyn_peer[120]  lookupTimeSig:vector  ETV
vector 582596  Network.dyn_peer[134]  lookupHopsSig:vector  ETV
vector 582597  Network.dyn_peer[134]  lookupStabilitySig:vector  ETV
vector 582598  Network.dyn_peer[134]  lookupTimeSig:vector  ETV
vector 582401  Network.dyn_peer[69]  lookupHopsSig:vector  ETV
vector 582402  Network.dyn_peer[69]  lookupStabilitySig:vector  ETV
vector 582403  Network.dyn_peer[69]  lookupTimeSig:vector  ETV
vector 582725  Network.dyn_peer[177]  lookupHopsSig:vector  ETV
vector 582726  Network.dyn_peer[177]  lookupStabilitySig:vector  ETV
vector 582727  Network.dyn_peer[177]  lookupTimeSig:vector  ETV
vector 582449  Network.dyn_peer[85]  lookupHopsSig:vector  ETV
vector 582450  Network.dyn_peer[85]  lookupStabilitySig:vector  ETV
vector 582451  Network.dyn_peer[85]  lookupTimeSig:vector  ETV
vector 582761  Network.dyn_peer[189]  lookupHopsSig:vector  ETV
vector 582762  Network.dyn_peer[189]  lookupStabilitySig:vector  ETV
vector 582763  Network.dyn_peer[189]  lookupTimeSig:vector  ETV
vector 582563  Network.dyn_peer[123]  lookupHopsSig:vector  ETV
vector 582564  Network.dyn_peer[123]  lookupStabilitySig:vector  ETV
vector 582565  Network.dyn_peer[123]  lookupTimeSig:vector  ETV
vector 582566  Network.dyn_peer[124]  lookupHopsSig:vector  ETV
vector 582567  Network.dyn_peer[124]  lookupStabilitySig:vector  ETV
vector 582568  Network.dyn_peer[124]  lookupTimeSig:vector  ETV
vector 582581  Network.dyn_peer[129]  lookupHopsSig:vector  ETV
vector 582582  Network.dyn_peer[129]  lookupStabilitySig:vector  ETV
vector 582583  Network.dyn_peer[129]  lookupTimeSig:vector  ETV
vector 582332  Network.dyn_peer[46]  lookupHopsSig:vector  ETV
vector 582333  Network.dyn_peer[46]  lookupStabilitySig:vector  ETV
vector 582334  Network.dyn_peer[46]  lookupTimeSig:vector  ETV
vector 582350  Network.dyn_peer[52]  lookupHopsSig:vector  ETV
vector 582351  Network.dyn_peer[52]  lookupStabilitySig:vector  ETV
vector 582352  Network.dyn_peer[52]  lookupTimeSig:vector  ETV
vector 582668  Network.dyn_peer[158]  lookupHopsSig:vector  ETV
vector 582669  Network.dyn_peer[158]  lookupStabilitySig:vector  ETV
vector 582670  Network.dyn_peer[158]  lookupTimeSig:vector  ETV
vector 582440  Network.dyn_peer[82]  lookupHopsSig:vector  ETV
vector 582441  Network.dyn_peer[82]  lookupStabilitySig:vector  ETV
vector 582442  Network.dyn_peer[82]  lookupTimeSig:vector  ETV
vector 582779  Network.dyn_peer[195]  lookupHopsSig:vector  ETV
vector 582780  Network.dyn_peer[195]  lookupStabilitySig:vector  ETV
vector 582781  Network.dyn_peer[195]  lookupTimeSig:vector  ETV
vector 582680  Network.dyn_peer[162]  lookupHopsSig:vector  ETV
vector 582681  Network.dyn_peer[162]  lookupStabilitySig:vector  ETV
vector 582682  Network.dyn_peer[162]  lookupTimeSig:vector  ETV
vector 582707  Network.dyn_peer[171]  lookupHopsSig:vector  ETV
vector 582708  Network.dyn_peer[171]  lookupStabilitySig:vector  ETV
vector 582709  Network.dyn_peer[171]  lookupTimeSig:vector  ETV
vector 582437  Network.dyn_peer[81]  lookupHopsSig:vector  ETV
vector 582438  Network.dyn_peer[81]  lookupStabilitySig:vector  ETV
vector 582439  Network.dyn_peer[81]  lookupTimeSig:vector  ETV
vector 582605  Network.dyn_peer[137]  lookupHopsSig:vector  ETV
vector 582606  Network.dyn_peer[137]  lookupStabilitySig:vector  ETV
vector 582607  Network.dyn_peer[137]  lookupTimeSig:vector  ETV
vector 582632  Network.dyn_peer[146]  lookupHopsSig:vector  ETV
vector 582633  Network.dyn_peer[146]  lookupStabilitySig:vector  ETV
vector 582634  Network.dyn_peer[146]  lookupTimeSig:vector  ETV
vector 582719  Network.dyn_peer[175]  lookupHopsSig:vector  ETV
vector 582720  Network.dyn_peer[175]  lookupStabilitySig:vector  ETV
vector 582721  Network.dyn_peer[175]  lookupTimeSig:vector  ETV
vector 582482  Network.dyn_peer[96]  lookupHopsSig:vector  ETV
vector 582483  Network.dyn_peer[96]  lookupStabilitySig:vector  ETV
vector 582484  Network.dyn_peer[96]  lookupTimeSig:vector  ETV
vector 582569  Network.dyn_peer[125]  lookupHopsSig:vector  ETV
vector 582570  Network.dyn_peer[125]  lookupStabilitySig:vector  ETV
vector 582571  Network.dyn_peer[125]  lookupTimeSig:vector  ETV
vector 582371  Network.dyn_peer[59]  lookupHopsSig:vector  ETV
vector 582372  Network.dyn_peer[59]  lookupStabilitySig:vector  ETV
vector 582373  Network.dyn_peer[59]  lookupTimeSig:vector  ETV
vector 582704  Network.dyn_peer[170]  lookupHopsSig:vector  ETV
vector 582705  Network.dyn_peer[170]  lookupStabilitySig:vector  ETV
vector 582706  Network.dyn_peer[170]  lookupTimeSig:vector  ETV
vector 582410  Network.dyn_peer[72]  lookupHopsSig:vector  ETV
vector 582411  Network.dyn_peer[72]  lookupStabilitySig:vector  ETV
vector 582412  Network.dyn_peer[72]  lookupTimeSig:vector  ETV
vector 582740  Network.dyn_peer[182]  lookupHopsSig:vector  ETV
vector 582741  Network.dyn_peer[182]  lookupStabilitySig:vector  ETV
vector 582742  Network.dyn_peer[182]  lookupTimeSig:vector  ETV
vector 582506  Network.dyn_peer[104]  lookupHopsSig:vector  ETV
vector 582507  Network.dyn_peer[104]  lookupStabilitySig:vector  ETV
vector 582508  Network.dyn_peer[104]  lookupTimeSig:vector  ETV
vector 582593  Network.dyn_peer[133]  lookupHopsSig:vector  ETV
vector 582594  Network.dyn_peer[133]  lookupStabilitySig:vector  ETV
vector 582595  Network.dyn_peer[133]  lookupTimeSig:vector  ETV
vector 582629  Network.dyn_peer[145]  lookupHopsSig:vector  ETV
vector 582630  Network.dyn_peer[145]  lookupStabilitySig:vector  ETV
vector 582631  Network.dyn_peer[145]  lookupTimeSig:vector  ETV
vector 582341  Network.dyn_peer[49]  lookupHopsSig:vector  ETV
vector 582342  Network.dyn_peer[49]  lookupStabilitySig:vector  ETV
vector 582343  Network.dyn_peer[49]  lookupTimeSig:vector  ETV
vector 582671  Network.dyn_peer[159]  lookupHopsSig:vector  ETV
vector 582672  Network.dyn_peer[159]  lookupStabilitySig:vector  ETV
vector 582673  Network.dyn_peer[159]  lookupTimeSig:vector  ETV
vector 582389  Network.dyn_peer[65]  lookupHopsSig:vector  ETV
vector 582390  Network.dyn_peer[65]  lookupStabilitySig:vector  ETV
vector 582391  Network.dyn_peer[65]  lookupTimeSig:vector  ETV
vector 582446  Network.dyn_peer[84]  lookupHopsSig:vector  ETV
vector 582447  Network.dyn_peer[84]  lookupStabilitySig:vector  ETV
vector 582448  Network.dyn_peer[84]  lookupTimeSig:vector  ETV
vector 582476  Network.dyn_peer[94]  lookupHopsSig:vector  ETV
vector 582477  Network.dyn_peer[94]  lookupStabilitySig:vector  ETV
vector 582478  Network.dyn_peer[94]  lookupTimeSig:vector  ETV
vector 582590  Network.dyn_peer[132]  lookupHopsSig:vector  ETV
vector 582591  Network.dyn_peer[132]  lookupStabilitySig:vector  ETV
vector 582592  Network.dyn_peer[132]  lookupTimeSig:vector  ETV
vector 582356  Network.dyn_peer[54]  lookupHopsSig:vector  ETV
vector 582357  Network.dyn_peer[54]  lookupStabilitySig:vector  ETV
vector 582358  Network.dyn_peer[54]  lookupTimeSig:vector  ETV
vector 582683  Network.dyn_peer[163]  lookupHopsSig:vector  ETV
vector 582684  Network.dyn_peer[163]  lookupStabilitySig:vector  ETV
vector 582685  Network.dyn_peer[163]  lookupTimeSig:vector  ETV
vector 582686  Network.dyn_peer[164]  lookupHopsSig:vector  ETV
vector 582687  Network.dyn_peer[164]  lookupStabilitySig:vector  ETV
vector 582688  Network.dyn_peer[164]  lookupTimeSig:vector  ETV
vector 582455  Network.dyn_peer[87]  lookupHopsSig:vector  ETV
vector 582456  Network.dyn_peer[87]  lookupStabilitySig:vector  ETV
vector 582457  Network.dyn_peer[87]  lookupTimeSig:vector  ETV
vector 582758  Network.dyn_peer[188]  lookupHopsSig:vector  ETV
vector 582759  Network.dyn_peer[188]  lookupStabilitySig:vector  ETV
vector 582760  Network.dyn_peer[188]  lookupTimeSig:vector  ETV
vector 582311  Network.dyn_peer[39]  lookupHopsSig:vector  ETV
vector 582312  Network.dyn_peer[39]  lookupStabilitySig:vector  ETV
vector 582313  Network.dyn_peer[39]  lookupTimeSig:vector  ETV
vector 582644  Network.dyn_peer[150]  lookupHopsSig:vector  ETV
vector 582645  Network.dyn_peer[150]  lookupStabilitySig:vector  ETV
vector 582646  Network.dyn_peer[150]  lookupTimeSig:vector  ETV
vector 582650  Network.dyn_peer[152]  lookupHopsSig:vector  ETV
vector 582651  Network.dyn_peer[152]  lookupStabilitySig:vector  ETV
vector 582652  Network.dyn_peer[152]  lookupTimeSig:vector  ETV
vector 582452  Network.dyn_peer[86]  lookupHopsSig:vector  ETV
vector 582453  Network.dyn_peer[86]  lookupStabilitySig:vector  ETV
vector 582454  Network.dyn_peer[86]  lookupTimeSig:vector  ETV
vector 582638  Network.dyn_peer[148]  lookupHopsSig:vector  ETV