file 24184 1369522298                                           
version 2
run Stability2-105-20130526-00:51:38-26640
attr configname Stability2
attr datetime 20130526-00:51:38
attr experiment Stability2
attr inifile omnetpp.ini
attr iterationvars $0=40
attr iterationvars2 "$0=40, $repetition=15"
attr measurement $0=40
attr network Network
attr processid 26640
attr repetition 15
attr replication #15
attr resultdir results
attr runnumber 105
attr seedset 105

vector 318105  Network.churner  inGoingSizeSig:vector  ETV
vector 315114  Network.dyn_peer[3]  lookupHopsSig:vector  ETV
vector 315115  Network.dyn_peer[3]  lookupStabilitySig:vector  ETV
vector 315116  Network.dyn_peer[3]  lookupTimeSig:vector  ETV
vector 315150  Network.dyn_peer[15]  lookupHopsSig:vector  ETV
vector 315151  Network.dyn_peer[15]  lookupStabilitySig:vector  ETV
vector 315152  Network.dyn_peer[15]  lookupTimeSig:vector  ETV
vector 315177  Network.dyn_peer[24]  lookupHopsSig:vector  ETV
vector 315178  Network.dyn_peer[24]  lookupStabilitySig:vector  ETV
vector 315179  Network.dyn_peer[24]  lookupTimeSig:vector  ETV
vector 315210  Network.dyn_peer[35]  lookupHopsSig:vector  ETV
vector 315211  Network.dyn_peer[35]  lookupStabilitySig:vector  ETV
vector 315212  Network.dyn_peer[35]  lookupTimeSig:vector  ETV
vector 315108  Network.dyn_peer[1]  lookupHopsSig:vector  ETV
vector 315109  Network.dyn_peer[1]  lookupStabilitySig:vector  ETV
vector 315110  Network.dyn_peer[1]  lookupTimeSig:vector  ETV
vector 315120  Network.dyn_peer[5]  lookupHopsSig:vector  ETV
vector 315121  Network.dyn_peer[5]  lookupStabilitySig:vector  ETV
vector 315122  Network.dyn_peer[5]  lookupTimeSig:vector  ETV
vector 315153  Network.dyn_peer[16]  lookupHopsSig:vector  ETV
vector 315154  Network.dyn_peer[16]  lookupStabilitySig:vector  ETV
vector 315155  Network.dyn_peer[16]  lookupTimeSig:vector  ETV
vector 315174  Network.dyn_peer[23]  lookupHopsSig:vector  ETV
vector 315175  Network.dyn_peer[23]  lookupStabilitySig:vector  ETV
vector 315176  Network.dyn_peer[23]  lookupTimeSig:vector  ETV
vector 315192  Network.dyn_peer[29]  lookupHopsSig:vector  ETV
vector 315193  Network.dyn_peer[29]  lookupStabilitySig:vector  ETV
vector 315194  Network.dyn_peer[29]  lookupTimeSig:vector  ETV
vector 315216  Network.dyn_peer[37]  lookupHopsSig:vector  ETV
vector 315217  Network.dyn_peer[37]  lookupStabilitySig:vector  ETV
vector 315218  Network.dyn_peer[37]  lookupTimeSig:vector  ETV
vector 315219  Network.dyn_peer[38]  lookupHopsSig:vector  ETV
vector 315220  Network.dyn_peer[38]  lookupStabilitySig:vector  ETV
vector 315221  Network.dyn_peer[38]  lookupTimeSig:vector  ETV
vector 315126  Network.dyn_peer[7]  lookupHopsSig:vector  ETV
vector 315127  Network.dyn_peer[7]  lookupStabilitySig:vector  ETV
vector 315128  Network.dyn_peer[7]  lookupTimeSig:vector  ETV
vector 315147  Network.dyn_peer[14]  lookupHopsSig:vector  ETV
vector 315148  Network.dyn_peer[14]  lookupStabilitySig:vector  ETV
vector 315149  Network.dyn_peer[14]  lookupTimeSig:vector  ETV
vector 315171  Network.dyn_peer[22]  lookupHopsSig:vector  ETV
vector 315172  Network.dyn_peer[22]  lookupStabilitySig:vector  ETV
vector 315173  Network.dyn_peer[22]  lookupTimeSig:vector  ETV
vector 315183  Network.dyn_peer[26]  lookupHopsSig:vector  ETV
vector 315184  Network.dyn_peer[26]  lookupStabilitySig:vector  ETV
vector 315185  Network.dyn_peer[26]  lookupTimeSig:vector  ETV
vector 315186  Network.dyn_peer[27]  lookupHopsSig:vector  ETV
vector 315187  Network.dyn_peer[27]  lookupStabilitySig:vector  ETV
vector 315188  Network.dyn_peer[27]  lookupTimeSig:vector  ETV
vector 315189  Network.dyn_peer[28]  lookupHopsSig:vector  ETV
vector 315190  Network.dyn_peer[28]  lookupStabilitySig:vector  ETV
vector 315191  Network.dyn_peer[28]  lookupTimeSig:vector  ETV
vector 315117  Network.dyn_peer[4]  lookupHopsSig:vector  ETV
vector 315118  Network.dyn_peer[4]  lookupStabilitySig:vector  ETV
vector 315119  Network.dyn_peer[4]  lookupTimeSig:vector  ETV
vector 315123  Network.dyn_peer[6]  lookupHopsSig:vector  ETV
vector 315124  Network.dyn_peer[6]  lookupStabilitySig:vector  ETV
vector 315125  Network.dyn_peer[6]  lookupTimeSig:vector  ETV
vector 315135  Network.dyn_peer[10]  lookupHopsSig:vector  ETV
vector 315136  Network.dyn_peer[10]  lookupStabilitySig:vector  ETV
vector 315137  Network.dyn_peer[10]  lookupTimeSig:vector  ETV
vector 315156  Network.dyn_peer[17]  lookupHopsSig:vector  ETV
vector 315157  Network.dyn_peer[17]  lookupStabilitySig:vector  ETV
vector 315158  Network.dyn_peer[17]  lookupTimeSig:vector  ETV
vector 315207  Network.dyn_peer[34]  lookupHopsSig:vector  ETV
vector 315208  Network.dyn_peer[34]  lookupStabilitySig:vector  ETV
vector 315209  Network.dyn_peer[34]  lookupTimeSig:vector  ETV
vector 315213  Network.dyn_peer[36]  lookupHopsSig:vector  ETV
vector 315214  Network.dyn_peer[36]  lookupStabilitySig:vector  ETV
vector 315215  Network.dyn_peer[36]  lookupTimeSig:vector  ETV
vector 315129  Network.dyn_peer[8]  lookupHopsSig:vector  ETV
vector 315130  Network.dyn_peer[8]  lookupStabilitySig:vector  ETV
vector 315131  Network.dyn_peer[8]  lookupTimeSig:vector  ETV
vector 315132  Network.dyn_peer[9]  lookupHopsSig:vector  ETV
vector 315133  Network.dyn_peer[9]  lookupStabilitySig:vector  ETV
vector 315134  Network.dyn_peer[9]  lookupTimeSig:vector  ETV
vector 315165  Network.dyn_peer[20]  lookupHopsSig:vector  ETV
vector 315166  Network.dyn_peer[20]  lookupStabilitySig:vector  ETV
vector 315167  Network.dyn_peer[20]  lookupTimeSig:vector  ETV
vector 315111  Network.dyn_peer[2]  lookupHopsSig:vector  ETV
vector 315112  Network.dyn_peer[2]  lookupStabilitySig:vector  ETV
vector 315113  Network.dyn_peer[2]  lookupTimeSig:vector  ETV
vector 315144  Network.dyn_peer[13]  lookupHopsSig:vector  ETV
vector 315145  Network.dyn_peer[13]  lookupStabilitySig:vector  ETV
vector 315146  Network.dyn_peer[13]  lookupTimeSig:vector  ETV
vector 315162  Network.dyn_peer[19]  lookupHopsSig:vector  ETV
vector 315163  Network.dyn_peer[19]  lookupStabilitySig:vector  ETV
vector 315164  Network.dyn_peer[19]  lookupTimeSig:vector  ETV
vector 315168  Network.dyn_peer[21]  lookupHopsSig:vector  ETV
vector 315169  Network.dyn_peer[21]  lookupStabilitySig:vector  ETV
vector 315170  Network.dyn_peer[21]  lookupTimeSig:vector  ETV
vector 315195  Network.dyn_peer[30]  lookupHopsSig:vector  ETV
vector 315196  Network.dyn_peer[30]  lookupStabilitySig:vector  ETV
vector 315197  Network.dyn_peer[30]  lookupTimeSig:vector  ETV
vector 315222  Network.dyn_peer[39]  lookupHopsSig:vector  ETV
vector 315223  Network.dyn_peer[39]  lookupStabilitySig:vector  ETV
vector 315224  Network.dyn_peer[39]  lookupTimeSig:vector  ETV
vector 315105  Network.dyn_peer[0]  lookupHopsSig:vector  ETV
vector 315106  Network.dyn_peer[0]  lookupStabilitySig:vector  ETV
vector 315107  Network.dyn_peer[0]  lookupTimeSig:vector  ETV
vector 315138  Network.dyn_peer[11]  lookupHopsSig:vector  ETV
vector 315139  Network.dyn_peer[11]  lookupStabilitySig:vector  ETV
vector 315140  Network.dyn_peer[11]  lookupTimeSig:vector  ETV
vector 315141  Network.dyn_peer[12]  lookupHopsSig:vector  ETV
vector 315142  Network.dyn_peer[12]  lookupStabilitySig:vector  ETV
vector 315143  Network.dyn_peer[12]  lookupTimeSig:vector  ETV
vector 315201  Network.dyn_peer[32]  lookupHopsSig:vector  ETV
vector 315202  Network.dyn_peer[32]  lookupStabilitySig:vector  ETV
vector 315203  Network.dyn_peer[32]  lookupTimeSig:vector  ETV
vector 315159  Network.dyn_peer[18]  lookupHopsSig:vector  ETV
vector 315160  Network.dyn_peer[18]  lookupStabilitySig:vector  ETV
vector 315161  Network.dyn_peer[18]  lookupTimeSig:vector  ETV
vector 315180  Network.dyn_peer[25]  lookupHopsSig:vector  ETV
vector 315181  Network.dyn_peer[25]  lookupStabilitySig:vector  ETV
vector 315182  Network.dyn_peer[25]  lookupTimeSig:vector  ETV
vector 315204  Network.dyn_peer[33]  lookupHopsSig:vector  ETV
vector 315205  Network.dyn_peer[33]  lookupStabilitySig:vector  ETV
vector 315206  Network.dyn_peer[33]  lookupTimeSig:vector  ETV
vector 315198  Network.dyn_peer[31]  lookupHopsSig:vector  ETV
vector 315199  Network.dyn_peer[31]  lookupStabilitySig:vector  ETV
vector 315200  Network.dyn_peer[31]  lookupTimeSig:vector  ETV
315105	8187 101 563 1370 20.701 22.620189388697 4 3 8 23 147
315106	8288 162 563 1370 20.701 22.620189388697 4 -0.16666662693024 0.88888888806105 2.1461988613009 1.8806983079609
315107	8450 109 563 1370 20.701 22.620189388697 4 0.4 0.9 2.6 1.82
315108	8559 99 157 1029 20.102 21.513202394009 4 1 6 12 54
315109	8658 133 157 1029 20.102 21.513202394009 4 0 0.875 2.4083333164454 1.9434027526114
315110	8791 107 157 1029 20.102 21.513202394009 4 0.1 0.7 1.5 0.79
315111	8898 69 489 929 20.603 21.311488168143 3 2 6 11 49
315112	8967 104 489 929 20.603 21.311488168143 3 -0.20000004768372 0.81818181276321 1.2431817650795 1.10004649781
315113	9071 75 489 929 20.603 21.311488168143 3 0.3 0.6 1.3 0.61
315114	9146 98 27 1118 20.004 21.712010076211 4 0 8 14 82
315115	9244 144 27 1118 20.004 21.712010076211 4 -0.33333337306976 1 2.2360446155071 2.3491780304196
315116	9388 104 27 1118 20.004 21.712010076211 4 0 0.9 1.7 1.13
315117	9492 98 302 815 20.305 21.114039003546 4 1 3 8 20
315118	9590 145 302 815 20.305 21.114039003546 4 0.39999997615814 0.88888888806105 2.6460317149758 1.9348173028481
315119	9735 106 302 815 20.305 21.114039003546 4 0.2 0.4 1.1 0.33
315120	9841 100 165 1204 20.106 21.918988504967 4 1 12 16 150
315121	9941 146 165 1204 20.106 21.918988504967 4 0.5 0.79999999701977 2.6999999880791 1.8899999833107
315122	10087 107 165 1204 20.106 21.918988504967 4 0.1 1.3 1.9 1.83
315123	10194 99 308 1032 20.307 21.517518802445 4 2 4 12 38
315124	10293 122 308 1032 20.307 21.517518802445 4 0.39999997615814 0.75 2.3999999761581 1.5349999809265
315125	10415 107 308 1032 20.307 21.517518802445 4 0.3 0.5 1.5 0.59
315126	10522 40 235 687 20.208 20.908 2 2 6 8 40
315127	10562 55 235 687 20.208 20.908 2 0 0.59999999403954 0.59999999403954 0.35999999284744
315128	10617 44 235 687 20.208 20.908 2 0.2 0.7 0.9 0.53
315129	10661 130 429 1382 20.509 22.731707871587 5 3 6 23 111
315130	10791 177 429 1382 20.509 22.731707871587 5 0 0.88888888806105 2.9572649374604 2.2777046961196
315131	10968 140 429 1382 20.509 22.731707871587 5 0.4 0.7 2.7 1.51
315132	11108 135 434 1339 20.51 22.42853601977 5 2 7 20 98
315133	11243 169 434 1339 20.51 22.42853601977 5 0 0.9411764703691 3.0373303107917 2.4142894700384
315134	11412 145 434 1339 20.51 22.42853601977 5 0.3 0.8 2.4 1.32
315135	11557 69 316 933 20.311 21.313710760191 3 3 5 11 43
315136	11626 102 316 933 20.311 21.313710760191 3 0.28571426868439 0.75 1.4357142448425 0.80413262425637
315137	11728 75 316 933 20.311 21.313710760191 3 0.3 0.6 1.3 0.61
315138	11803 100 580 1206 20.712 21.921512822466 4 2 7 16 78
315139	11903 161 580 1206 20.712 21.921512822466 4 -0.16666662693024 0.91666666418314 2.1833333596587 1.9224999667704
315140	12064 108 580 1206 20.712 21.921512822466 4 0.3 0.7 1.9 0.99
315141	12172 100 585 1209 20.713 21.925271688391 4 2 7 16 78
315142	12272 161 585 1209 20.713 21.925271688391 4 -0.16666662693024 0.92000000178814 2.1866666972637 1.9286221968359
315143	12433 108 585 1209 20.713 21.925271688391 4 0.3 0.7 1.9 0.99
315144	12541 128 504 1273 20.614 22.135018531719 5 1 6 17 81
315145	12669 204 504 1273 20.614 22.135018531719 5 -0.20000004768372 0.92857142537832 3.0285713598132 2.6697959051509
315146	12873 138 504 1273 20.614 22.135018531719 5 0.2 0.7 2.1 1.07
315147	13011 99 251 1169 20.215 21.823004795731 4 2 5 15 63
315148	13110 146 251 1169 20.215 21.823004795731 4 0.39999997615814 0.77272726595402 2.2727272361517 1.3671074013227
315149	13256 107 251 1169 20.215 21.823004795731 4 0.2 0.6 1.8 0.92
315150	13363 68 71 530 20.016 20.622987253758 3 0 3 4 10
315151	13431 98 71 530 20.016 20.622987253758 3 0.39999997615814 1 2.1999999731779 1.7999999761581
315152	13529 72 71 530 20.016 20.622987253758 3 0 0.4 0.6 0.2
315153	13601 69 183 716 20.117 20.923694227759 3 1 5 7 27
315154	13670 114 183 716 20.117 20.923694227759 3 0.28571426868439 0.79999999701977 1.8857142627239 1.3616326337931
315155	13784 75 183 716 20.117 20.923694227759 3 0.1 0.6 0.9 0.41
315156	13859 97 332 955 20.318 21.331688124657 4 2 3 10 26
315157	13956 146 332 955 20.318 21.331688124657 4 0.39999997615814 0.84615384042263 2.4711538106203 1.6266012954359
315158	14102 105 332 955 20.318 21.331688124657 4 0.3 0.4 1.3 0.43
315159	14207 70 645 1038 20.819 21.521534315858 3 1 8 13 81
315160	14277 93 645 1038 20.819 21.521534315858 3 -0.33333337306976 0.875 1.2916666269302 1.4392361376021
315161	14370 76 645 1038 20.819 21.521534315858 3 0.2 0.8 1.5 0.93
315162	14446 97 517 1395 20.62 22.828464989845 4 4 9 25 169
315163	14543 158 517 1395 20.62 22.828464989845 4 -0.20000004768372 0.78571428358555 1.9129869490862 1.5462725553636
315164	14701 103 517 1395 20.62 22.828464989845 4 0.5 1 2.8 2.1
315165	14804 70 454 1178 20.521 21.828737908971 3 4 7 16 90
315166	14874 100 454 1178 20.521 21.828737908971 3 0 0.81818181276321 1.2797202467918 0.8824392048221
315167	14974 76 454 1178 20.521 21.828737908971 3 0.5 0.8 1.8 1.14
315168	15050 129 526 1364 20.622 22.547700608626 5 3 6 21 95
315169	15179 193 526 1364 20.622 22.547700608626 5 -0.20000004768372 0.89189188927412 2.924034692347 2.5181879876216
315170	15372 139 526 1364 20.622 22.547700608626 5 0.4 0.6 2.5 1.29
315171	15511 70 263 1131 20.223 21.732824891737 3 2 8 15 93
315172	15581 103 263 1131 20.223 21.732824891737 3 0.19999998807907 0.75 1.5499999821186 0.96249998807907
315173	15684 76 263 1131 20.223 21.732824891737 3 0.2 0.9 1.7 1.21
315174	15760 99 194 1247 20.124 22.037143800063 4 1 8 17 115
315175	15859 159 194 1247 20.124 22.037143800063 4 0.30000001192093 0.79999999701977 2.6037037074566 1.8651988971152
315176	16018 107 194 1247 20.124 22.037143800063 4 0.1 0.9 2 1.5
315177	16125 128 102 1308 20.025 22.247186692402 5 0 9 18 114
315178	16253 175 102 1308 20.025 22.247186692402 5 0.19999998807907 1 3.3187683224678 2.6200883231202
315179	16428 134 102 1308 20.025 22.247186692402 5 0 1 2.2 1.54
315180	16562 99 659 1301 20.826 22.2323140657 4 1 8 19 117
315181	16661 148 659 1301 20.826 22.2323140657 4 -0.33333337306976 0.9666666649282 2.1101851426065 2.1618321543084
315182	16809 107 659 1301 20.826 22.2323140657 4 0.2 0.8 2.2 1.42
315183	16916 130 271 1360 20.227 22.541169256757 5 1 7 21 119
315184	17046 194 271 1360 20.227 22.541169256757 5 0.125 0.97222222201526 3.262878773734 2.546532285285
315185	17240 140 271 1360 20.227 22.541169256757 5 0.2 0.8 2.5 1.61
315186	17380 40 276 895 20.228 21.228 2 2 9 11 85
315187	17420 70 276 895 20.228 21.228 2 0.10000002384186 0.59999999403954 0.70000001788139 0.36999999761581
315188	17490 42 276 895 20.228 21.228 2 0.2 1 1.2 1.04
315189	17532 99 281 1306 20.229 22.246056122675 4 2 7 19 111
315190	17631 148 281 1306 20.229 22.246056122675 4 0.125 0.90322580933571 2.3365591466427 1.693177980682
315191	17779 107 281 1306 20.229 22.246056122675 4 0.2 0.8 2.2 1.48
315192	17886 69 204 1139 20.13 21.737864563409 3 1 10 15 117
315193	17955 114 204 1139 20.13 21.737864563409 3 0.090909063816071 0.79999999701977 1.6909090578556 1.2882644483472
315194	18069 74 204 1139 20.13 21.737864563409 3 0.1 1.1 1.7 1.47
315195	18143 130 542 1332 20.631 22.356258874076 5 2 6 19 85
315196	18273 190 542 1332 20.631 22.356258874076 5 0 0.91666666418314 3.2297979593277 2.7001900044775
315197	18463 140 542 1332 20.631 22.356258874076 5 0.3 0.6 2.3 1.15
315198	18603 72 845 1278 21.132 22.139171725756 3 4 11 19 153
315199	18675 117 845 1278 21.132 22.139171725756 3 -0.10000002384186 0.85714285075665 1.5349206030369 1.349632140401
315200	18792 77 845 1278 21.132 22.139171725756 3 0.5 1.1 2.1 1.71
315201	18869 41 615 1097 20.733 21.633 2 7 8 15 113
315202	18910 72 615 1097 20.733 21.633 2 -0.16666662693024 0.55555555224419 0.38888892531395 0.33641973616165
315203	18982 45 615 1097 20.733 21.633 2 0.7 0.9 1.6 1.3
315204	19027 161 674 1401 20.834 22.953806996897 6 2 8 24 122
315205	19188 252 674 1401 20.834 22.953806996897 6 -0.33333337306976 0.94285714253783 3.9593576453626 3.8559628337698
315206	19440 173 674 1401 20.834 22.953806996897 6 0.3 0.8 2.9 1.59
315207	19613 129 358 1384 20.335 22.745533470854 5 2 9 23 139
315208	19742 203 358 1384 20.335 22.745533470854 5 0.35714286565781 0.94999999925494 3.4071428366005 2.6433163044967
315209	19945 137 358 1384 20.335 22.745533470854 5 0.3 1 2.7 1.83
315210	20082 250 139 1441 20.036 24.271410004675 9 0 8 34 180
315211	20332 369 139 1441 20.036 24.271410004675 9 0.19999998807907 1 7.0359201356769 6.107776818002
315212	20701 266 139 1441 20.036 24.271410004675 9 0 0.9 4.2 2.56
315213	20967 130 364 1390 20.337 22.757159157348 5 2 8 23 129
315214	21097 205 364 1390 20.337 22.757159157348 5 0.27272725105286 0.92857142537832 3.2644810006022 2.480686725257
315215	21302 140 364 1390 20.337 22.757159157348 5 0.3 0.9 2.7 1.73
315216	21442 139 216 1351 20.138 22.454069473654 5 1 9 20 124
315217	21581 214 216 1351 20.138 22.454069473654 5 0.10000002384186 0.96296296268702 3.5105820298195 2.9422863274259
315218	21795 147 216 1351 20.138 22.454069473654 5 0.1 1 2.4 1.66
315219	21942 337 221 1473 20.139 26.498153613067 12 1 8 52 276
315220	22279 488 221 1473 20.139 26.498153613067 12 0 0.9545454531908 9.6534964740276 8.5103811903876
315221	22767 361 221 1473 20.139 26.498153613067 12 0.1 0.9 6.3 3.89
315222	23128 68 557 1020 20.64 21.441765966424 3 3 6 12 54
315223	23196 98 557 1020 20.64 21.441765966424 3 0 0.78571428358555 1.4523809403181 1.0617913666293
315224	23294 74 557 1020 20.64 21.441765966424 3 0.4 0.6 1.4 0.68
318105	23368 816 11 149 20 20.04 41 0 39 780 20540
