version 2
run Stability2-229-20130526-00:52:46-26640
attr configname Stability2
attr datetime 20130526-00:52:46
attr experiment Stability2
attr inifile omnetpp.ini
attr iterationvars $0=300
attr iterationvars2 "$0=300, $repetition=19"
attr measurement $0=300
attr network Network
attr processid 26640
attr repetition 19
attr replication #19
attr resultdir results
attr runnumber 229
attr seedset 229

vector 690229  Network.churner  inGoingSizeSig:vector  ETV
vector 687241  Network.dyn_peer[4]  lookupHopsSig:vector  ETV
vector 687242  Network.dyn_peer[4]  lookupStabilitySig:vector  ETV
vector 687243  Network.dyn_peer[4]  lookupTimeSig:vector  ETV
vector 687262  Network.dyn_peer[11]  lookupHopsSig:vector  ETV
vector 687263  Network.dyn_peer[11]  lookupStabilitySig:vector  ETV
vector 687264  Network.dyn_peer[11]  lookupTimeSig:vector  ETV
vector 687289  Network.dyn_peer[20]  lookupHopsSig:vector  ETV
vector 687290  Network.dyn_peer[20]  lookupStabilitySig:vector  ETV
vector 687291  Network.dyn_peer[20]  lookupTimeSig:vector  ETV
vector 687307  Network.dyn_peer[26]  lookupHopsSig:vector  ETV
vector 687308  Network.dyn_peer[26]  lookupStabilitySig:vector  ETV
vector 687309  Network.dyn_peer[26]  lookupTimeSig:vector  ETV
vector 687319  Network.dyn_peer[30]  lookupHopsSig:vector  ETV
vector 687320  Network.dyn_peer[30]  lookupStabilitySig:vector  ETV
vector 687321  Network.dyn_peer[30]  lookupTimeSig:vector  ETV
vector 687343  Network.dyn_peer[38]  lookupHopsSig:vector  ETV
vector 687344  Network.dyn_peer[38]  lookupStabilitySig:vector  ETV
vector 687345  Network.dyn_peer[38]  lookupTimeSig:vector  ETV
vector 687349  Network.dyn_peer[40]  lookupHopsSig:vector  ETV
vector 687350  Network.dyn_peer[40]  lookupStabilitySig:vector  ETV
vector 687351  Network.dyn_peer[40]  lookupTimeSig:vector  ETV
vector 687373  Network.dyn_peer[48]  lookupHopsSig:vector  ETV
vector 687374  Network.dyn_peer[48]  lookupStabilitySig:vector  ETV
vector 687375  Network.dyn_peer[48]  lookupTimeSig:vector  ETV
vector 687385  Network.dyn_peer[52]  lookupHopsSig:vector  ETV
vector 687386  Network.dyn_peer[52]  lookupStabilitySig:vector  ETV
vector 687387  Network.dyn_peer[52]  lookupTimeSig:vector  ETV
vector 687454  Network.dyn_peer[75]  lookupHopsSig:vector  ETV
vector 687455  Network.dyn_peer[75]  lookupStabilitySig:vector  ETV
vector 687456  Network.dyn_peer[75]  lookupTimeSig:vector  ETV
vector 687235  Network.dyn_peer[2]  lookupHopsSig:vector  ETV
vector 687236  Network.dyn_peer[2]  lookupStabilitySig:vector  ETV
vector 687237  Network.dyn_peer[2]  lookupTimeSig:vector  ETV
vector 687313  Network.dyn_peer[28]  lookupHopsSig:vector  ETV
vector 687314  Network.dyn_peer[28]  lookupStabilitySig:vector  ETV
vector 687315  Network.dyn_peer[28]  lookupTimeSig:vector  ETV
vector 687331  Network.dyn_peer[34]  lookupHopsSig:vector  ETV
vector 687332  Network.dyn_peer[34]  lookupStabilitySig:vector  ETV
vector 687333  Network.dyn_peer[34]  lookupTimeSig:vector  ETV
vector 687346  Network.dyn_peer[39]  lookupHopsSig:vector  ETV
vector 687347  Network.dyn_peer[39]  lookupStabilitySig:vector  ETV
vector 687348  Network.dyn_peer[39]  lookupTimeSig:vector  ETV
vector 687415  Network.dyn_peer[62]  lookupHopsSig:vector  ETV
vector 687416  Network.dyn_peer[62]  lookupStabilitySig:vector  ETV
vector 687417  Network.dyn_peer[62]  lookupTimeSig:vector  ETV
vector 687424  Network.dyn_peer[65]  lookupHopsSig:vector  ETV
vector 687425  Network.dyn_peer[65]  lookupStabilitySig:vector  ETV
vector 687426  Network.dyn_peer[65]  lookupTimeSig:vector  ETV
vector 687487  Network.dyn_peer[86]  lookupHopsSig:vector  ETV
vector 687488  Network.dyn_peer[86]  lookupStabilitySig:vector  ETV
vector 687489  Network.dyn_peer[86]  lookupTimeSig:vector  ETV
vector 687232  Network.dyn_peer[1]  lookupHopsSig:vector  ETV
vector 687233  Network.dyn_peer[1]  lookupStabilitySig:vector  ETV
vector 687234  Network.dyn_peer[1]  lookupTimeSig:vector  ETV
vector 687244  Network.dyn_peer[5]  lookupHopsSig:vector  ETV
vector 687245  Network.dyn_peer[5]  lookupStabilitySig:vector  ETV
vector 687246  Network.dyn_peer[5]  lookupTimeSig:vector  ETV
vector 687253  Network.dyn_peer[8]  lookupHopsSig:vector  ETV
vector 687254  Network.dyn_peer[8]  lookupStabilitySig:vector  ETV
vector 687255  Network.dyn_peer[8]  lookupTimeSig:vector  ETV
vector 687265  Network.dyn_peer[12]  lookupHopsSig:vector  ETV
vector 687266  Network.dyn_peer[12]  lookupStabilitySig:vector  ETV
vector 687267  Network.dyn_peer[12]  lookupTimeSig:vector  ETV
vector 687277  Network.dyn_peer[16]  lookupHopsSig:vector  ETV
vector 687278  Network.dyn_peer[16]  lookupStabilitySig:vector  ETV
vector 687279  Network.dyn_peer[16]  lookupTimeSig:vector  ETV
vector 687595  Network.dyn_peer[122]  lookupHopsSig:vector  ETV
vector 687596  Network.dyn_peer[122]  lookupStabilitySig:vector  ETV
vector 687597  Network.dyn_peer[122]  lookupTimeSig:vector  ETV
vector 687304  Network.dyn_peer[25]  lookupHopsSig:vector  ETV
vector 687305  Network.dyn_peer[25]  lookupStabilitySig:vector  ETV
vector 687306  Network.dyn_peer[25]  lookupTimeSig:vector  ETV
vector 687322  Network.dyn_peer[31]  lookupHopsSig:vector  ETV
vector 687323  Network.dyn_peer[31]  lookupStabilitySig:vector  ETV
vector 687324  Network.dyn_peer[31]  lookupTimeSig:vector  ETV
vector 687628  Network.dyn_peer[133]  lookupHopsSig:vector  ETV
vector 687629  Network.dyn_peer[133]  lookupStabilitySig:vector  ETV
vector 687630  Network.dyn_peer[133]  lookupTimeSig:vector  ETV
vector 687334  Network.dyn_peer[35]  lookupHopsSig:vector  ETV
vector 687335  Network.dyn_peer[35]  lookupStabilitySig:vector  ETV
vector 687336  Network.dyn_peer[35]  lookupTimeSig:vector  ETV
vector 687661  Network.dyn_peer[144]  lookupHopsSig:vector  ETV
vector 687662  Network.dyn_peer[144]  lookupStabilitySig:vector  ETV
vector 687663  Network.dyn_peer[144]  lookupTimeSig:vector  ETV
vector 687391  Network.dyn_peer[54]  lookupHopsSig:vector  ETV
vector 687392  Network.dyn_peer[54]  lookupStabilitySig:vector  ETV
vector 687393  Network.dyn_peer[54]  lookupTimeSig:vector  ETV
vector 687394  Network.dyn_peer[55]  lookupHopsSig:vector  ETV
vector 687395  Network.dyn_peer[55]  lookupStabilitySig:vector  ETV
vector 687396  Network.dyn_peer[55]  lookupTimeSig:vector  ETV
vector 687406  Network.dyn_peer[59]  lookupHopsSig:vector  ETV
vector 687407  Network.dyn_peer[59]  lookupStabilitySig:vector  ETV
vector 687408  Network.dyn_peer[59]  lookupTimeSig:vector  ETV
vector 687760  Network.dyn_peer[177]  lookupHopsSig:vector  ETV
vector 687761  Network.dyn_peer[177]  lookupStabilitySig:vector  ETV
vector 687762  Network.dyn_peer[177]  lookupTimeSig:vector  ETV
vector 687511  Network.dyn_peer[94]  lookupHopsSig:vector  ETV
vector 687512  Network.dyn_peer[94]  lookupStabilitySig:vector  ETV
vector 687513  Network.dyn_peer[94]  lookupTimeSig:vector  ETV
vector 687517  Network.dyn_peer[96]  lookupHopsSig:vector  ETV
vector 687518  Network.dyn_peer[96]  lookupStabilitySig:vector  ETV
vector 687519  Network.dyn_peer[96]  lookupTimeSig:vector  ETV
vector 687523  Network.dyn_peer[98]  lookupHopsSig:vector  ETV
vector 687524  Network.dyn_peer[98]  lookupStabilitySig:vector  ETV
vector 687525  Network.dyn_peer[98]  lookupTimeSig:vector  ETV
vector 687229  Network.dyn_peer[0]  lookupHopsSig:vector  ETV
vector 687230  Network.dyn_peer[0]  lookupStabilitySig:vector  ETV
vector 687231  Network.dyn_peer[0]  lookupTimeSig:vector  ETV
vector 687547  Network.dyn_peer[106]  lookupHopsSig:vector  ETV
vector 687548  Network.dyn_peer[106]  lookupStabilitySig:vector  ETV
vector 687549  Network.dyn_peer[106]  lookupTimeSig:vector  ETV
vector 687256  Network.dyn_peer[9]  lookupHopsSig:vector  ETV
vector 687257  Network.dyn_peer[9]  lookupStabilitySig:vector  ETV
vector 687258  Network.dyn_peer[9]  lookupTimeSig:vector  ETV
vector 687562  Network.dyn_peer[111]  lookupHopsSig:vector  ETV
vector 687563  Network.dyn_peer[111]  lookupStabilitySig:vector  ETV
vector 687564  Network.dyn_peer[111]  lookupTimeSig:vector  ETV
vector 687865  Network.dyn_peer[212]  lookupHopsSig:vector  ETV
vector 687866  Network.dyn_peer[212]  lookupStabilitySig:vector  ETV
vector 687867  Network.dyn_peer[212]  lookupTimeSig:vector  ETV
vector 687283  Network.dyn_peer[18]  lookupHopsSig:vector  ETV
vector 687284  Network.dyn_peer[18]  lookupStabilitySig:vector  ETV
vector 687285  Network.dyn_peer[18]  lookupTimeSig:vector  ETV
vector 687292  Network.dyn_peer[21]  lookupHopsSig:vector  ETV
vector 687293  Network.dyn_peer[21]  lookupStabilitySig:vector  ETV
vector 687294  Network.dyn_peer[21]  lookupTimeSig:vector  ETV
vector 687604  Network.dyn_peer[125]  lookupHopsSig:vector  ETV
vector 687605  Network.dyn_peer[125]  lookupStabilitySig:vector  ETV
vector 687606  Network.dyn_peer[125]  lookupTimeSig:vector  ETV
vector 687907  Network.dyn_peer[226]  lookupHopsSig:vector  ETV
vector 687908  Network.dyn_peer[226]  lookupStabilitySig:vector  ETV
vector 687909  Network.dyn_peer[226]  lookupTimeSig:vector  ETV
vector 687610  Network.dyn_peer[127]  lookupHopsSig:vector  ETV
vector 687611  Network.dyn_peer[127]  lookupStabilitySig:vector  ETV
vector 687612  Network.dyn_peer[127]  lookupTimeSig:vector  ETV
vector 687658  Network.dyn_peer[143]  lookupHopsSig:vector  ETV
vector 687659  Network.dyn_peer[143]  lookupStabilitySig:vector  ETV
vector 687660  Network.dyn_peer[143]  lookupTimeSig:vector  ETV
vector 687364  Network.dyn_peer[45]  lookupHopsSig:vector  ETV
vector 687365  Network.dyn_peer[45]  lookupStabilitySig:vector  ETV
vector 687366  Network.dyn_peer[45]  lookupTimeSig:vector  ETV
vector 687379  Network.dyn_peer[50]  lookupHopsSig:vector  ETV
vector 687380  Network.dyn_peer[50]  lookupStabilitySig:vector  ETV
vector 687381  Network.dyn_peer[50]  lookupTimeSig:vector  ETV
vector 687991  Network.dyn_peer[254]  lookupHopsSig:vector  ETV
vector 687992  Network.dyn_peer[254]  lookupStabilitySig:vector  ETV
vector 687993  Network.dyn_peer[254]  lookupTimeSig:vector  ETV
vector 687400  Network.dyn_peer[57]  lookupHopsSig:vector  ETV
vector 687401  Network.dyn_peer[57]  lookupStabilitySig:vector  ETV
vector 687402  Network.dyn_peer[57]  lookupTimeSig:vector  ETV
vector 688003  Network.dyn_peer[258]  lookupHopsSig:vector  ETV
vector 688004  Network.dyn_peer[258]  lookupStabilitySig:vector  ETV
vector 688005  Network.dyn_peer[258]  lookupTimeSig:vector  ETV
vector 687421  Network.dyn_peer[64]  lookupHopsSig:vector  ETV
vector 687422  Network.dyn_peer[64]  lookupStabilitySig:vector  ETV
vector 687423  Network.dyn_peer[64]  lookupTimeSig:vector  ETV
vector 687727  Network.dyn_peer[166]  lookupHopsSig:vector  ETV
vector 687728  Network.dyn_peer[166]  lookupStabilitySig:vector  ETV
vector 687729  Network.dyn_peer[166]  lookupTimeSig:vector  ETV
vector 687439  Network.dyn_peer[70]  lookupHopsSig:vector  ETV
vector 687440  Network.dyn_peer[70]  lookupStabilitySig:vector  ETV
vector 687441  Network.dyn_peer[70]  lookupTimeSig:vector  ETV
vector 687451  Network.dyn_peer[74]  lookupHopsSig:vector  ETV
vector 687452  Network.dyn_peer[74]  lookupStabilitySig:vector  ETV
vector 687453  Network.dyn_peer[74]  lookupTimeSig:vector  ETV
vector 687457  Network.dyn_peer[76]  lookupHopsSig:vector  ETV
vector 687458  Network.dyn_peer[76]  lookupStabilitySig:vector  ETV
vector 687459  Network.dyn_peer[76]  lookupTimeSig:vector  ETV
vector 687469  Network.dyn_peer[80]  lookupHopsSig:vector  ETV
vector 687470  Network.dyn_peer[80]  lookupStabilitySig:vector  ETV
vector 687471  Network.dyn_peer[80]  lookupTimeSig:vector  ETV
vector 687481  Network.dyn_peer[84]  lookupHopsSig:vector  ETV
vector 687482  Network.dyn_peer[84]  lookupStabilitySig:vector  ETV
vector 687483  Network.dyn_peer[84]  lookupTimeSig:vector  ETV
vector 687529  Network.dyn_peer[100]  lookupHopsSig:vector  ETV
vector 687530  Network.dyn_peer[100]  lookupStabilitySig:vector  ETV
vector 687531  Network.dyn_peer[100]  lookupTimeSig:vector  ETV
vector 687250  Network.dyn_peer[7]  lookupHopsSig:vector  ETV
vector 687251  Network.dyn_peer[7]  lookupStabilitySig:vector  ETV
vector 687252  Network.dyn_peer[7]  lookupTimeSig:vector  ETV
vector 687259  Network.dyn_peer[10]  lookupHopsSig:vector  ETV
vector 687260  Network.dyn_peer[10]  lookupStabilitySig:vector  ETV
vector 687261  Network.dyn_peer[10]  lookupTimeSig:vector  ETV
vector 687565  Network.dyn_peer[112]  lookupHopsSig:vector  ETV
vector 687566  Network.dyn_peer[112]  lookupStabilitySig:vector  ETV
vector 687567  Network.dyn_peer[112]  lookupTimeSig:vector  ETV
vector 687271  Network.dyn_peer[14]  lookupHopsSig:vector  ETV
vector 687272  Network.dyn_peer[14]  lookupStabilitySig:vector  ETV
vector 687273  Network.dyn_peer[14]  lookupTimeSig:vector  ETV
vector 687571  Network.dyn_peer[114]  lookupHopsSig:vector  ETV
vector 687572  Network.dyn_peer[114]  lookupStabilitySig:vector  ETV
vector 687573  Network.dyn_peer[114]  lookupTimeSig:vector  ETV
vector 687280  Network.dyn_peer[17]  lookupHopsSig:vector  ETV
vector 687281  Network.dyn_peer[17]  lookupStabilitySig:vector  ETV
vector 687282  Network.dyn_peer[17]  lookupTimeSig:vector  ETV
vector 687298  Network.dyn_peer[23]  lookupHopsSig:vector  ETV
vector 687299  Network.dyn_peer[23]  lookupStabilitySig:vector  ETV
vector 687300  Network.dyn_peer[23]  lookupTimeSig:vector  ETV
vector 687310  Network.dyn_peer[27]  lookupHopsSig:vector  ETV
vector 687311  Network.dyn_peer[27]  lookupStabilitySig:vector  ETV
vector 687312  Network.dyn_peer[27]  lookupTimeSig:vector  ETV
vector 687316  Network.dyn_peer[29]  lookupHopsSig:vector  ETV
vector 687317  Network.dyn_peer[29]  lookupStabilitySig:vector  ETV
vector 687318  Network.dyn_peer[29]  lookupTimeSig:vector  ETV
vector 687328  Network.dyn_peer[33]  lookupHopsSig:vector  ETV
vector 687329  Network.dyn_peer[33]  lookupStabilitySig:vector  ETV
vector 687330  Network.dyn_peer[33]  lookupTimeSig:vector  ETV
vector 687637  Network.dyn_peer[136]  lookupHopsSig:vector  ETV
vector 687638  Network.dyn_peer[136]  lookupStabilitySig:vector  ETV
vector 687639  Network.dyn_peer[136]  lookupTimeSig:vector  ETV
vector 687358  Network.dyn_peer[43]  lookupHopsSig:vector  ETV
vector 687359  Network.dyn_peer[43]  lookupStabilitySig:vector  ETV
vector 687360  Network.dyn_peer[43]  lookupTimeSig:vector  ETV
vector 687397  Network.dyn_peer[56]  lookupHopsSig:vector  ETV
vector 687398  Network.dyn_peer[56]  lookupStabilitySig:vector  ETV
vector 687399  Network.dyn_peer[56]  lookupTimeSig:vector  ETV
vector 687997  Network.dyn_peer[256]  lookupHopsSig:vector  ETV
vector 687998  Network.dyn_peer[256]  lookupStabilitySig:vector  ETV
vector 687999  Network.dyn_peer[256]  lookupTimeSig:vector  ETV
vector 687427  Network.dyn_peer[66]  lookupHopsSig:vector  ETV
vector 687428  Network.dyn_peer[66]  lookupStabilitySig:vector  ETV
vector 687429  Network.dyn_peer[66]  lookupTimeSig:vector  ETV
vector 687463  Network.dyn_peer[78]  lookupHopsSig:vector  ETV
vector 687464  Network.dyn_peer[78]  lookupStabilitySig:vector  ETV
vector 687465  Network.dyn_peer[78]  lookupTimeSig:vector  ETV
vector 688066  Network.dyn_peer[279]  lookupHopsSig:vector  ETV
vector 688067  Network.dyn_peer[279]  lookupStabilitySig:vector  ETV
vector 688068  Network.dyn_peer[279]  lookupTimeSig:vector  ETV
vector 687484  Network.dyn_peer[85]  lookupHopsSig:vector  ETV
vector 687485  Network.dyn_peer[85]  lookupStabilitySig:vector  ETV
vector 687486  Network.dyn_peer[85]  lookupTimeSig:vector  ETV
vector 687493  Network.dyn_peer[88]  lookupHopsSig:vector  ETV
vector 687494  Network.dyn_peer[88]  lookupStabilitySig:vector  ETV
vector 687495  Network.dyn_peer[88]  lookupTimeSig:vector  ETV
vector 688114  Network.dyn_peer[295]  lookupHopsSig:vector  ETV
vector 688115  Network.dyn_peer[295]  lookupStabilitySig:vector  ETV
vector 688116  Network.dyn_peer[295]  lookupTimeSig:vector  ETV
vector 687274  Network.dyn_peer[15]  lookupHopsSig:vector  ETV
vector 687275  Network.dyn_peer[15]  lookupStabilitySig:vector  ETV
vector 687276  Network.dyn_peer[15]  lookupTimeSig:vector  ETV
vector 687577  Network.dyn_peer[116]  lookupHopsSig:vector  ETV
vector 687578  Network.dyn_peer[116]  lookupStabilitySig:vector  ETV
vector 687579  Network.dyn_peer[116]  lookupTimeSig:vector  ETV
vector 687589  Network.dyn_peer[120]  lookupHopsSig:vector  ETV
vector 687590  Network.dyn_peer[120]  lookupStabilitySig:vector  ETV
vector 687591  Network.dyn_peer[120]  lookupTimeSig:vector  ETV
vector 687367  Network.dyn_peer[46]  lookupHopsSig:vector  ETV
vector 687368  Network.dyn_peer[46]  lookupStabilitySig:vector  ETV
vector 687369  Network.dyn_peer[46]  lookupTimeSig:vector  ETV
vector 687700  Network.dyn_peer[157]  lookupHopsSig:vector  ETV
vector 687701  Network.dyn_peer[157]  lookupStabilitySig:vector  ETV
vector 687702  Network.dyn_peer[157]  lookupTimeSig:vector  ETV
vector 687418  Network.dyn_peer[63]  lookupHopsSig:vector  ETV
vector 687419  Network.dyn_peer[63]  lookupStabilitySig:vector  ETV
vector 687420  Network.dyn_peer[63]  lookupTimeSig:vector  ETV
vector 688075  Network.dyn_peer[282]  lookupHopsSig:vector  ETV
vector 688076  Network.dyn_peer[282]  lookupStabilitySig:vector  ETV
vector 688077  Network.dyn_peer[282]  lookupTimeSig:vector  ETV
vector 687490  Network.dyn_peer[87]  lookupHopsSig:vector  ETV
vector 687491  Network.dyn_peer[87]  lookupStabilitySig:vector  ETV
vector 687492  Network.dyn_peer[87]  lookupTimeSig:vector  ETV
vector 687526  Network.dyn_peer[99]  lookupHopsSig:vector  ETV
vector 687527  Network.dyn_peer[99]  lookupStabilitySig:vector  ETV
vector 687528  Network.dyn_peer[99]  lookupTimeSig:vector  ETV
vector 687835  Network.dyn_peer[202]  lookupHopsSig:vector  ETV
vector 687836  Network.dyn_peer[202]  lookupStabilitySig:vector  ETV
vector 687837  Network.dyn_peer[202]  lookupTimeSig:vector  ETV
vector 687238  Network.dyn_peer[3]  lookupHopsSig:vector  ETV
vector 687239  Network.dyn_peer[3]  lookupStabilitySig:vector  ETV
vector 687240  Network.dyn_peer[3]  lookupTimeSig:vector  ETV
vector 687544  Network.dyn_peer[105]  lookupHopsSig:vector  ETV
vector 687545  Network.dyn_peer[105]  lookupStabilitySig:vector  ETV
vector 687546  Network.dyn_peer[105]  lookupTimeSig:vector  ETV
vector 687868  Network.dyn_peer[213]  lookupHopsSig:vector  ETV
vector 687869  Network.dyn_peer[213]  lookupStabilitySig:vector  ETV
vector 687870  Network.dyn_peer[213]  lookupTimeSig:vector  ETV
vector 687583  Network.dyn_peer[118]  lookupHopsSig:vector  ETV
vector 687584  Network.dyn_peer[118]  lookupStabilitySig:vector  ETV
vector 687585  Network.dyn_peer[118]  lookupTimeSig:vector  ETV
vector 687616  Network.dyn_peer[129]  lookupHopsSig:vector  ETV
vector 687617  Network.dyn_peer[129]  lookupStabilitySig:vector  ETV
vector 687618  Network.dyn_peer[129]  lookupTimeSig:vector  ETV
vector 687631  Network.dyn_peer[134]  lookupHopsSig:vector  ETV
vector 687632  Network.dyn_peer[134]  lookupStabilitySig:vector  ETV
vector 687633  Network.dyn_peer[134]  lookupTimeSig:vector  ETV
vector 687340  Network.dyn_peer[37]  lookupHopsSig:vector  ETV
vector 687341  Network.dyn_peer[37]  lookupStabilitySig:vector  ETV
vector 687342  Network.dyn_peer[37]  lookupTimeSig:vector  ETV
vector 687952  Network.dyn_peer[241]  lookupHopsSig:vector  ETV
vector 687953  Network.dyn_peer[241]  lookupStabilitySig:vector  ETV
vector 687954  Network.dyn_peer[241]  lookupTimeSig:vector  ETV
vector 687445  Network.dyn_peer[72]  lookupHopsSig:vector  ETV
vector 687446  Network.dyn_peer[72]  lookupStabilitySig:vector  ETV
vector 687447  Network.dyn_peer[72]  lookupTimeSig:vector  ETV
vector 687748  Network.dyn_peer[173]  lookupHopsSig:vector  ETV
vector 687749  Network.dyn_peer[173]  lookupStabilitySig:vector  ETV
vector 687750  Network.dyn_peer[173]  lookupTimeSig:vector  ETV
vector 687769  Network.dyn_peer[180]  lookupHopsSig:vector  ETV
vector 687770  Network.dyn_peer[180]  lookupStabilitySig:vector  ETV
vector 687771  Network.dyn_peer[180]  lookupTimeSig:vector  ETV
vector 687787  Network.dyn_peer[186]  lookupHopsSig:vector  ETV
vector 687788  Network.dyn_peer[186]  lookupStabilitySig:vector  ETV
vector 687789  Network.dyn_peer[186]  lookupTimeSig:vector  ETV
vector 687505  Network.dyn_peer[92]  lookupHopsSig:vector  ETV
vector 687506  Network.dyn_peer[92]  lookupStabilitySig:vector  ETV
vector 687507  Network.dyn_peer[92]  lookupTimeSig:vector  ETV
vector 687838  Network.dyn_peer[203]  lookupHopsSig:vector  ETV
vector 687839  Network.dyn_peer[203]  lookupStabilitySig:vector  ETV
vector 687840  Network.dyn_peer[203]  lookupTimeSig:vector  ETV
vector 687844  Network.dyn_peer[205]  lookupHopsSig:vector  ETV
vector 687845  Network.dyn_peer[205]  lookupStabilitySig:vector  ETV
vector 687846  Network.dyn_peer[205]  lookupTimeSig:vector  ETV
vector 687553  Network.dyn_peer[108]  lookupHopsSig:vector  ETV
vector 687554  Network.dyn_peer[108]  lookupStabilitySig:vector  ETV
vector 687555  Network.dyn_peer[108]  lookupTimeSig:vector  ETV
vector 687556  Network.dyn_peer[109]  lookupHopsSig:vector  ETV
vector 687557  Network.dyn_peer[109]  lookupStabilitySig:vector  ETV
vector 687558  Network.dyn_peer[109]  lookupTimeSig:vector  ETV
vector 687883  Network.dyn_peer[218]  lookupHopsSig:vector  ETV
vector 687884  Network.dyn_peer[218]  lookupStabilitySig:vector  ETV
vector 687885  Network.dyn_peer[218]  lookupTimeSig:vector  ETV
vector 687286  Network.dyn_peer[19]  lookupHopsSig:vector  ETV
vector 687287  Network.dyn_peer[19]  lookupStabilitySig:vector  ETV
vector 687288  Network.dyn_peer[19]  lookupTimeSig:vector  ETV
vector 687586  Network.dyn_peer[119]  lookupHopsSig:vector  ETV
vector 687587  Network.dyn_peer[119]  lookupStabilitySig:vector  ETV
vector 687588  Network.dyn_peer[119]  lookupTimeSig:vector  ETV
vector 687301  Network.dyn_peer[24]  lookupHopsSig:vector  ETV
vector 687302  Network.dyn_peer[24]  lookupStabilitySig:vector  ETV
vector 687303  Network.dyn_peer[24]  lookupTimeSig:vector  ETV
vector 687601  Network.dyn_peer[124]  lookupHopsSig:vector  ETV
vector 687602  Network.dyn_peer[124]  lookupStabilitySig:vector  ETV
vector 687603  Network.dyn_peer[124]  lookupTimeSig:vector  ETV
vector 687976  Network.dyn_peer[249]  lookupHopsSig:vector  ETV
vector 687977  Network.dyn_peer[249]  lookupStabilitySig:vector  ETV
vector 687978  Network.dyn_peer[249]  lookupTimeSig:vector  ETV
vector 687388  Network.dyn_peer[53]  lookupHopsSig:vector  ETV
vector 687389  Network.dyn_peer[53]  lookupStabilitySig:vector  ETV
vector 687390  Network.dyn_peer[53]  lookupTimeSig:vector  ETV
vector 687403  Network.dyn_peer[58]  lookupHopsSig:vector  ETV
vector 687404  Network.dyn_peer[58]  lookupStabilitySig:vector  ETV
vector 687405  Network.dyn_peer[58]  lookupTimeSig:vector  ETV
vector 687448  Network.dyn_peer[73]  lookupHopsSig:vector  ETV
vector 687449  Network.dyn_peer[73]  lookupStabilitySig:vector  ETV
vector 687450  Network.dyn_peer[73]  lookupTimeSig:vector  ETV
vector 687754  Network.dyn_peer[175]  lookupHopsSig:vector  ETV
vector 687755  Network.dyn_peer[175]  lookupStabilitySig:vector  ETV
vector 687756  Network.dyn_peer[175]  lookupTimeSig:vector  ETV
vector 687475  Network.dyn_peer[82]  lookupHopsSig:vector  ETV
vector 687476  Network.dyn_peer[82]  lookupStabilitySig:vector  ETV
vector 687477  Network.dyn_peer[82]  lookupTimeSig:vector  ETV
vector 687778  Network.dyn_peer[183]  lookupHopsSig:vector  ETV
vector 687779  Network.dyn_peer[183]  lookupStabilitySig:vector  ETV
vector 687780  Network.dyn_peer[183]  lookupTimeSig:vector  ETV
vector 688096  Network.dyn_peer[289]  lookupHopsSig:vector  ETV
vector 688097  Network.dyn_peer[289]  lookupStabilitySig:vector  ETV
vector 688098  Network.dyn_peer[289]  lookupTimeSig:vector  ETV
vector 688117  Network.dyn_peer[296]  lookupHopsSig:vector  ETV
vector 688118  Network.dyn_peer[296]  lookupStabilitySig:vector  ETV
vector 688119  Network.dyn_peer[296]  lookupTimeSig:vector  ETV
vector 687520  Network.dyn_peer[97]  lookupHopsSig:vector  ETV
vector 687521  Network.dyn_peer[97]  lookupStabilitySig:vector  ETV
vector 687522  Network.dyn_peer[97]  lookupTimeSig:vector  ETV
vector 687832  Network.dyn_peer[201]  lookupHopsSig:vector  ETV
vector 687833  Network.dyn_peer[201]  lookupStabilitySig:vector  ETV
vector 687834  Network.dyn_peer[201]  lookupTimeSig:vector  ETV
vector 687901  Network.dyn_peer[224]  lookupHopsSig:vector  ETV
vector 687902  Network.dyn_peer[224]  lookupStabilitySig:vector  ETV
vector 687903  Network.dyn_peer[224]  lookupTimeSig:vector  ETV
vector 687934  Network.dyn_peer[235]  lookupHopsSig:vector  ETV
vector 687935  Network.dyn_peer[235]  lookupStabilitySig:vector  ETV
vector 687936  Network.dyn_peer[235]  lookupTimeSig:vector  ETV
vector 687937  Network.dyn_peer[236]  lookupHopsSig:vector  ETV
vector 687938  Network.dyn_peer[236]  lookupStabilitySig:vector  ETV
vector 687939  Network.dyn_peer[236]  lookupTimeSig:vector  ETV
vector 687655  Network.dyn_peer[142]  lookupHopsSig:vector  ETV
vector 687656  Network.dyn_peer[142]  lookupStabilitySig:vector  ETV
vector 687657  Network.dyn_peer[142]  lookupTimeSig:vector  ETV
vector 687376  Network.dyn_peer[49]  lookupHopsSig:vector  ETV
vector 687377  Network.dyn_peer[49]  lookupStabilitySig:vector  ETV
vector 687378  Network.dyn_peer[49]  lookupTimeSig:vector  ETV
vector 687724  Network.dyn_peer[165]  lookupHopsSig:vector  ETV
vector 687725  Network.dyn_peer[165]  lookupStabilitySig:vector  ETV
vector 687726  Network.dyn_peer[165]  lookupTimeSig:vector  ETV
vector 687436  Network.dyn_peer[69]  lookupHopsSig:vector  ETV
vector 687437  Network.dyn_peer[69]  lookupStabilitySig:vector  ETV
vector 687438  Network.dyn_peer[69]  lookupTimeSig:vector  ETV
vector 687736  Network.dyn_peer[169]  lookupHopsSig:vector  ETV
vector 687737  Network.dyn_peer[169]  lookupStabilitySig:vector  ETV
vector 687738  Network.dyn_peer[169]  lookupTimeSig:vector  ETV
vector 687472  Network.dyn_peer[81]  lookupHopsSig:vector  ETV
vector 687473  Network.dyn_peer[81]  lookupStabilitySig:vector  ETV
vector 687474  Network.dyn_peer[81]  lookupTimeSig:vector  ETV
vector 687478  Network.dyn_peer[83]  lookupHopsSig:vector  ETV
vector 687479  Network.dyn_peer[83]  lookupStabilitySig:vector  ETV
vector 687480  Network.dyn_peer[83]  lookupTimeSig:vector  ETV
vector 687790  Network.dyn_peer[187]  lookupHopsSig:vector  ETV
vector 687791  Network.dyn_peer[187]  lookupStabilitySig:vector  ETV
vector 687792  Network.dyn_peer[187]  lookupTimeSig:vector  ETV
vector 687508  Network.dyn_peer[93]  lookupHopsSig:vector  ETV
vector 687509  Network.dyn_peer[93]  lookupStabilitySig:vector  ETV
vector 687510  Network.dyn_peer[93]  lookupTimeSig:vector  ETV
vector 687514  Network.dyn_peer[95]  lookupHopsSig:vector  ETV
vector 687515  Network.dyn_peer[95]  lookupStabilitySig:vector  ETV
vector 687516  Network.dyn_peer[95]  lookupTimeSig:vector  ETV
vector 687829  Network.dyn_peer[200]  lookupHopsSig:vector  ETV
vector 687830  Network.dyn_peer[200]  lookupStabilitySig:vector  ETV
vector 687831  Network.dyn_peer[200]  lookupTimeSig:vector  ETV
vector 687532  Network.dyn_peer[101]  lookupHopsSig:vector  ETV
vector 687533  Network.dyn_peer[101]  lookupStabilitySig:vector  ETV
vector 687534  Network.dyn_peer[101]  lookupTimeSig:vector  ETV
vector 687535  Network.dyn_peer[102]  lookupHopsSig:vector  ETV
vector 687536  Network.dyn_peer[102]  lookupStabilitySig:vector  ETV
vector 687537  Network.dyn_peer[102]  lookupTimeSig:vector  ETV
vector 687550  Network.dyn_peer[107]  lookupHopsSig:vector  ETV
vector 687551  Network.dyn_peer[107]  lookupStabilitySig:vector  ETV
vector 687552  Network.dyn_peer[107]  lookupTimeSig:vector  ETV
vector 687559  Network.dyn_peer[110]  lookupHopsSig:vector  ETV
vector 687560  Network.dyn_peer[110]  lookupStabilitySig:vector  ETV
vector 687561  Network.dyn_peer[110]  lookupTimeSig:vector  ETV
vector 687568  Network.dyn_peer[113]  lookupHopsSig:vector  ETV
vector 687569  Network.dyn_peer[113]  lookupStabilitySig:vector  ETV
vector 687570  Network.dyn_peer[113]  lookupTimeSig:vector  ETV
vector 687574  Network.dyn_peer[115]  lookupHopsSig:vector  ETV
vector 687575  Network.dyn_peer[115]  lookupStabilitySig:vector  ETV
vector 687576  Network.dyn_peer[115]  lookupTimeSig:vector  ETV
vector 687898  Network.dyn_peer[223]  lookupHopsSig:vector  ETV
vector 687899  Network.dyn_peer[223]  lookupStabilitySig:vector  ETV
vector 687900  Network.dyn_peer[223]  lookupTimeSig:vector  ETV
vector 687613  Network.dyn_peer[128]  lookupHopsSig:vector  ETV
vector 687614  Network.dyn_peer[128]  lookupStabilitySig:vector  ETV
vector 687615  Network.dyn_peer[128]  lookupTimeSig:vector  ETV
vector 687370  Network.dyn_peer[47]  lookupHopsSig:vector  ETV
vector 687371  Network.dyn_peer[47]  lookupStabilitySig:vector  ETV
vector 687372  Network.dyn_peer[47]  lookupTimeSig:vector  ETV
vector 687685  Network.dyn_peer[152]  lookupHopsSig:vector  ETV
vector 687686  Network.dyn_peer[152]  lookupStabilitySig:vector  ETV
vector 687687  Network.dyn_peer[152]  lookupTimeSig:vector  ETV
vector 687772  Network.dyn_peer[181]  lookupHopsSig:vector  ETV
vector 687773  Network.dyn_peer[181]  lookupStabilitySig:vector  ETV
vector 687774  Network.dyn_peer[181]  lookupTimeSig:vector  ETV
vector 687619  Network.dyn_peer[130]  lookupHopsSig:vector  ETV
vector 687620  Network.dyn_peer[130]  lookupStabilitySig:vector  ETV
vector 687621  Network.dyn_peer[130]  lookupTimeSig:vector  ETV
vector 687355  Network.dyn_peer[42]  lookupHopsSig:vector  ETV
vector 687356  Network.dyn_peer[42]  lookupStabilitySig:vector  ETV
vector 687357  Network.dyn_peer[42]  lookupTimeSig:vector  ETV
vector 687433  Network.dyn_peer[68]  lookupHopsSig:vector  ETV
vector 687434  Network.dyn_peer[68]  lookupStabilitySig:vector  ETV
vector 687435  Network.dyn_peer[68]  lookupTimeSig:vector  ETV
vector 687757  Network.dyn_peer[176]  lookupHopsSig:vector  ETV
vector 687758  Network.dyn_peer[176]  lookupStabilitySig:vector  ETV
vector 687759  Network.dyn_peer[176]  lookupTimeSig:vector  ETV
vector 687793  Network.dyn_peer[188]  lookupHopsSig:vector  ETV