version 2
run Stability2-11-20130526-00:51:09-26640
attr configname Stability2
attr datetime 20130526-00:51:09
attr experiment Stability2
attr inifile omnetpp.ini
attr iterationvars $0=10
attr iterationvars2 "$0=10, $repetition=11"
attr measurement $0=10
attr network Network
attr processid 26640
attr repetition 11
attr replication #11
attr resultdir results
attr runnumber 11
attr seedset 11

vector 36011  Network.churner  inGoingSizeSig:vector  ETV
vector 33014  Network.dyn_peer[1]  lookupHopsSig:vector  ETV
vector 33015  Network.dyn_peer[1]  lookupStabilitySig:vector  ETV
vector 33016  Network.dyn_peer[1]  lookupTimeSig:vector  ETV
vector 33038  Network.dyn_peer[9]  lookupHopsSig:vector  ETV
vector 33039  Network.dyn_peer[9]  lookupStabilitySig:vector  ETV
vector 33040  Network.dyn_peer[9]  lookupTimeSig:vector  ETV
vector 33011  Network.dyn_peer[0]  lookupHopsSig:vector  ETV
vector 33012  Network.dyn_peer[0]  lookupStabilitySig:vector  ETV
vector 33013  Network.dyn_peer[0]  lookupTimeSig:vector  ETV
vector 33017  Network.dyn_peer[2]  lookupHopsSig:vector  ETV
vector 33018  Network.dyn_peer[2]  lookupStabilitySig:vector  ETV
vector 33019  Network.dyn_peer[2]  lookupTimeSig:vector  ETV
vector 33020  Network.dyn_peer[3]  lookupHopsSig:vector  ETV
vector 33021  Network.dyn_peer[3]  lookupStabilitySig:vector  ETV
vector 33022  Network.dyn_peer[3]  lookupTimeSig:vector  ETV
vector 33023  Network.dyn_peer[4]  lookupHopsSig:vector  ETV
vector 33024  Network.dyn_peer[4]  lookupStabilitySig:vector  ETV
vector 33025  Network.dyn_peer[4]  lookupTimeSig:vector  ETV
vector 33026  Network.dyn_peer[5]  lookupHopsSig:vector  ETV
vector 33027  Network.dyn_peer[5]  lookupStabilitySig:vector  ETV
vector 33028  Network.dyn_peer[5]  lookupTimeSig:vector  ETV
vector 33035  Network.dyn_peer[8]  lookupHopsSig:vector  ETV
vector 33036  Network.dyn_peer[8]  lookupStabilitySig:vector  ETV
vector 33037  Network.dyn_peer[8]  lookupTimeSig:vector  ETV
vector 33029  Network.dyn_peer[6]  lookupHopsSig:vector  ETV
vector 33030  Network.dyn_peer[6]  lookupStabilitySig:vector  ETV
vector 33031  Network.dyn_peer[6]  lookupTimeSig:vector  ETV
vector 33032  Network.dyn_peer[7]  lookupHopsSig:vector  ETV
vector 33033  Network.dyn_peer[7]  lookupStabilitySig:vector  ETV
vector 33034  Network.dyn_peer[7]  lookupTimeSig:vector  ETV
33011	52	20.101	1
33011	119	20.401	2
33011	160	20.606270784865	1
33012	52	20.101	0.79999999701977
33012	119	20.401	0.59999999403954
33012	160	20.606270784865	0.83333332836628
33013	52	20.101	0.1
33013	119	20.401	0.3
33013	160	20.606270784865	0.2
33014	19	20.002	0
33014	99	20.302	2
33014	174	20.703829820247	3
33014	198	20.910939155889	1
33015	19	20.002	1
33015	99	20.302	0.59999999403954
33015	174	20.703829820247	0.5714285671711
33015	198	20.910939155889	0.875
33016	19	20.002	0
33016	99	20.302	0.3
33016	174	20.703829820247	0.4
33016	198	20.910939155889	0.2
33017	58	20.103	1
33017	172	20.703	5
33017	216	21.112649530986	3
33018	58	20.103	0.79999999701977
33018	172	20.703	0.28571426868439
33018	216	21.112649530986	0.72727271914482
33019	58	20.103	0.1
33019	172	20.703	0.6
33019	216	21.112649530986	0.4
33020	63	20.104	1
33020	123	20.404	2
33020	183	20.73394202189	2
33020	207	20.938968911976	1
33021	63	20.104	0.79999999701977
33021	123	20.404	0.59999999403954
33021	183	20.73394202189	0.71428570151329
33021	207	20.938968911976	0.89999999850988
33022	63	20.104	0.1
33022	123	20.404	0.3
33022	183	20.73394202189	0.3
33022	207	20.938968911976	0.2
33023	68	20.105	1
33023	126	20.405	2
33023	201	20.912862448494	4
33024	68	20.105	0.79999999701977
33024	126	20.405	0.59999999403954
33024	201	20.912862448494	0.5
33025	68	20.105	0.1
33025	126	20.405	0.3
33025	201	20.912862448494	0.5
33026	83	20.206	2
33026	151	20.514702669508	2
33026	192	20.822194675603	2
33027	83	20.206	0.59999999403954
33027	151	20.514702669508	0.59999999403954
33027	192	20.822194675603	0.71428570151329
33028	83	20.206	0.2
33028	151	20.514702669508	0.3
33028	192	20.822194675603	0.3
33029	108	20.307	3
33029	186	20.807	4
33029	225	21.213991286484	3
33029	244	21.627556219269	3
33030	108	20.307	0.39999997615814
33030	186	20.807	0.42857140302658
33030	225	21.213991286484	0.75
33030	244	21.627556219269	0.78571428358555
33031	108	20.307	0.3
33031	186	20.807	0.5
33031	225	21.213991286484	0.4
33031	244	21.627556219269	0.4
33032	113	20.308	3
33032	165	20.617204418722	2
33032	221	21.130514424509	4
33032	241	21.537477309508	3
33033	113	20.308	0.39999997615814
33033	165	20.617204418722	0.71428570151329
33033	221	21.130514424509	0.66666665673256
33033	241	21.537477309508	0.76923076808453
33034	113	20.308	0.3
33034	165	20.617204418722	0.3
33034	221	21.130514424509	0.5
33034	241	21.537477309508	0.4
33035	92	20.209	2
33035	131	20.409	1
33035	212	21.023982265971	5
33035	236	21.42962737217	3
33036	92	20.209	0.59999999403954
33036	131	20.409	0.79999999701977
33036	212	21.023982265971	0.54545453190804
33036	236	21.42962737217	0.75
33037	92	20.209	0.2
33037	131	20.409	0.2
33037	212	21.023982265971	0.6
33037	236	21.42962737217	0.4
33038	47	20.01	0
33038	94	20.21	1
33038	149	20.513350032586	2
33039	47	20.01	1
33039	94	20.21	0.79999999701977
33039	149	20.513350032586	0.59999999403954
33040	47	20.01	0
33040	94	20.21	0.2
33040	149	20.513350032586	0.3
36011	9	20	0
36011	10	20.001	0
36011	13	20.002	1
36011	20	20.003	2
36011	23	20.004	3
36011	26	20.005	4
36011	29	20.006	5
36011	32	20.007	6
36011	35	20.008	7
36011	38	20.009	8
36011	41	20.01	9
