version 2
run Stability2-253-20130526-00:53:12-26640
attr configname Stability2
attr datetime 20130526-00:53:12
attr experiment Stability2
attr inifile omnetpp.ini
attr iterationvars $0=400
attr iterationvars2 "$0=400, $repetition=13"
attr measurement $0=400
attr network Network
attr processid 26640
attr repetition 13
attr replication #13
attr resultdir results
attr runnumber 253
attr seedset 253

vector 762253  Network.churner  inGoingSizeSig:vector  ETV
vector 759259  Network.dyn_peer[2]  lookupHopsSig:vector  ETV
vector 759260  Network.dyn_peer[2]  lookupStabilitySig:vector  ETV
vector 759261  Network.dyn_peer[2]  lookupTimeSig:vector  ETV
vector 759262  Network.dyn_peer[3]  lookupHopsSig:vector  ETV
vector 759263  Network.dyn_peer[3]  lookupStabilitySig:vector  ETV
vector 759264  Network.dyn_peer[3]  lookupTimeSig:vector  ETV
vector 759283  Network.dyn_peer[10]  lookupHopsSig:vector  ETV
vector 759284  Network.dyn_peer[10]  lookupStabilitySig:vector  ETV
vector 759285  Network.dyn_peer[10]  lookupTimeSig:vector  ETV
vector 759346  Network.dyn_peer[31]  lookupHopsSig:vector  ETV
vector 759347  Network.dyn_peer[31]  lookupStabilitySig:vector  ETV
vector 759348  Network.dyn_peer[31]  lookupTimeSig:vector  ETV
vector 759355  Network.dyn_peer[34]  lookupHopsSig:vector  ETV
vector 759356  Network.dyn_peer[34]  lookupStabilitySig:vector  ETV
vector 759357  Network.dyn_peer[34]  lookupTimeSig:vector  ETV
vector 759364  Network.dyn_peer[37]  lookupHopsSig:vector  ETV
vector 759365  Network.dyn_peer[37]  lookupStabilitySig:vector  ETV
vector 759366  Network.dyn_peer[37]  lookupTimeSig:vector  ETV
vector 759379  Network.dyn_peer[42]  lookupHopsSig:vector  ETV
vector 759380  Network.dyn_peer[42]  lookupStabilitySig:vector  ETV
vector 759381  Network.dyn_peer[42]  lookupTimeSig:vector  ETV
vector 759409  Network.dyn_peer[52]  lookupHopsSig:vector  ETV
vector 759410  Network.dyn_peer[52]  lookupStabilitySig:vector  ETV
vector 759411  Network.dyn_peer[52]  lookupTimeSig:vector  ETV
vector 759484  Network.dyn_peer[77]  lookupHopsSig:vector  ETV
vector 759485  Network.dyn_peer[77]  lookupStabilitySig:vector  ETV
vector 759486  Network.dyn_peer[77]  lookupTimeSig:vector  ETV
vector 759256  Network.dyn_peer[1]  lookupHopsSig:vector  ETV
vector 759257  Network.dyn_peer[1]  lookupStabilitySig:vector  ETV
vector 759258  Network.dyn_peer[1]  lookupTimeSig:vector  ETV
vector 759265  Network.dyn_peer[4]  lookupHopsSig:vector  ETV
vector 759266  Network.dyn_peer[4]  lookupStabilitySig:vector  ETV
vector 759267  Network.dyn_peer[4]  lookupTimeSig:vector  ETV
vector 759637  Network.dyn_peer[128]  lookupHopsSig:vector  ETV
vector 759638  Network.dyn_peer[128]  lookupStabilitySig:vector  ETV
vector 759639  Network.dyn_peer[128]  lookupTimeSig:vector  ETV
vector 759640  Network.dyn_peer[129]  lookupHopsSig:vector  ETV
vector 759641  Network.dyn_peer[129]  lookupStabilitySig:vector  ETV
vector 759642  Network.dyn_peer[129]  lookupTimeSig:vector  ETV
vector 759376  Network.dyn_peer[41]  lookupHopsSig:vector  ETV
vector 759377  Network.dyn_peer[41]  lookupStabilitySig:vector  ETV
vector 759378  Network.dyn_peer[41]  lookupTimeSig:vector  ETV
vector 759418  Network.dyn_peer[55]  lookupHopsSig:vector  ETV
vector 759419  Network.dyn_peer[55]  lookupStabilitySig:vector  ETV
vector 759420  Network.dyn_peer[55]  lookupTimeSig:vector  ETV
vector 759466  Network.dyn_peer[71]  lookupHopsSig:vector  ETV
vector 759467  Network.dyn_peer[71]  lookupStabilitySig:vector  ETV
vector 759468  Network.dyn_peer[71]  lookupTimeSig:vector  ETV
vector 759817  Network.dyn_peer[188]  lookupHopsSig:vector  ETV
vector 759818  Network.dyn_peer[188]  lookupStabilitySig:vector  ETV
vector 759819  Network.dyn_peer[188]  lookupTimeSig:vector  ETV
vector 759520  Network.dyn_peer[89]  lookupHopsSig:vector  ETV
vector 759521  Network.dyn_peer[89]  lookupStabilitySig:vector  ETV
vector 759522  Network.dyn_peer[89]  lookupTimeSig:vector  ETV
vector 759253  Network.dyn_peer[0]  lookupHopsSig:vector  ETV
vector 759254  Network.dyn_peer[0]  lookupStabilitySig:vector  ETV
vector 759255  Network.dyn_peer[0]  lookupTimeSig:vector  ETV
vector 759271  Network.dyn_peer[6]  lookupHopsSig:vector  ETV
vector 759272  Network.dyn_peer[6]  lookupStabilitySig:vector  ETV
vector 759273  Network.dyn_peer[6]  lookupTimeSig:vector  ETV
vector 759274  Network.dyn_peer[7]  lookupHopsSig:vector  ETV
vector 759275  Network.dyn_peer[7]  lookupStabilitySig:vector  ETV
vector 759276  Network.dyn_peer[7]  lookupTimeSig:vector  ETV
vector 759880  Network.dyn_peer[209]  lookupHopsSig:vector  ETV
vector 759881  Network.dyn_peer[209]  lookupStabilitySig:vector  ETV
vector 759882  Network.dyn_peer[209]  lookupTimeSig:vector  ETV
vector 759616  Network.dyn_peer[121]  lookupHopsSig:vector  ETV
vector 759617  Network.dyn_peer[121]  lookupStabilitySig:vector  ETV
vector 759618  Network.dyn_peer[121]  lookupTimeSig:vector  ETV
vector 759655  Network.dyn_peer[134]  lookupHopsSig:vector  ETV
vector 759656  Network.dyn_peer[134]  lookupStabilitySig:vector  ETV
vector 759657  Network.dyn_peer[134]  lookupTimeSig:vector  ETV
vector 759676  Network.dyn_peer[141]  lookupHopsSig:vector  ETV
vector 759677  Network.dyn_peer[141]  lookupStabilitySig:vector  ETV
vector 759678  Network.dyn_peer[141]  lookupTimeSig:vector  ETV
vector 759688  Network.dyn_peer[145]  lookupHopsSig:vector  ETV
vector 759689  Network.dyn_peer[145]  lookupStabilitySig:vector  ETV
vector 759690  Network.dyn_peer[145]  lookupTimeSig:vector  ETV
vector 759700  Network.dyn_peer[149]  lookupHopsSig:vector  ETV
vector 759701  Network.dyn_peer[149]  lookupStabilitySig:vector  ETV
vector 759702  Network.dyn_peer[149]  lookupTimeSig:vector  ETV
vector 759403  Network.dyn_peer[50]  lookupHopsSig:vector  ETV
vector 759404  Network.dyn_peer[50]  lookupStabilitySig:vector  ETV
vector 759405  Network.dyn_peer[50]  lookupTimeSig:vector  ETV
vector 759448  Network.dyn_peer[65]  lookupHopsSig:vector  ETV
vector 759449  Network.dyn_peer[65]  lookupStabilitySig:vector  ETV
vector 759450  Network.dyn_peer[65]  lookupTimeSig:vector  ETV
vector 759451  Network.dyn_peer[66]  lookupHopsSig:vector  ETV
vector 759452  Network.dyn_peer[66]  lookupStabilitySig:vector  ETV
vector 759453  Network.dyn_peer[66]  lookupTimeSig:vector  ETV
vector 759766  Network.dyn_peer[171]  lookupHopsSig:vector  ETV
vector 759767  Network.dyn_peer[171]  lookupStabilitySig:vector  ETV
vector 759768  Network.dyn_peer[171]  lookupTimeSig:vector  ETV
vector 759472  Network.dyn_peer[73]  lookupHopsSig:vector  ETV
vector 759473  Network.dyn_peer[73]  lookupStabilitySig:vector  ETV
vector 759474  Network.dyn_peer[73]  lookupTimeSig:vector  ETV
vector 759781  Network.dyn_peer[176]  lookupHopsSig:vector  ETV
vector 759782  Network.dyn_peer[176]  lookupStabilitySig:vector  ETV
vector 759783  Network.dyn_peer[176]  lookupTimeSig:vector  ETV
vector 760087  Network.dyn_peer[278]  lookupHopsSig:vector  ETV
vector 760088  Network.dyn_peer[278]  lookupStabilitySig:vector  ETV
vector 760089  Network.dyn_peer[278]  lookupTimeSig:vector  ETV
vector 759493  Network.dyn_peer[80]  lookupHopsSig:vector  ETV
vector 759494  Network.dyn_peer[80]  lookupStabilitySig:vector  ETV
vector 759495  Network.dyn_peer[80]  lookupTimeSig:vector  ETV
vector 759502  Network.dyn_peer[83]  lookupHopsSig:vector  ETV
vector 759503  Network.dyn_peer[83]  lookupStabilitySig:vector  ETV
vector 759504  Network.dyn_peer[83]  lookupTimeSig:vector  ETV
vector 759511  Network.dyn_peer[86]  lookupHopsSig:vector  ETV
vector 759512  Network.dyn_peer[86]  lookupStabilitySig:vector  ETV
vector 759513  Network.dyn_peer[86]  lookupTimeSig:vector  ETV
vector 759268  Network.dyn_peer[5]  lookupHopsSig:vector  ETV
vector 759269  Network.dyn_peer[5]  lookupStabilitySig:vector  ETV
vector 759270  Network.dyn_peer[5]  lookupTimeSig:vector  ETV
vector 759280  Network.dyn_peer[9]  lookupHopsSig:vector  ETV
vector 759281  Network.dyn_peer[9]  lookupStabilitySig:vector  ETV
vector 759282  Network.dyn_peer[9]  lookupTimeSig:vector  ETV
vector 759589  Network.dyn_peer[112]  lookupHopsSig:vector  ETV
vector 759590  Network.dyn_peer[112]  lookupStabilitySig:vector  ETV
vector 759591  Network.dyn_peer[112]  lookupTimeSig:vector  ETV
vector 759295  Network.dyn_peer[14]  lookupHopsSig:vector  ETV
vector 759296  Network.dyn_peer[14]  lookupStabilitySig:vector  ETV
vector 759297  Network.dyn_peer[14]  lookupTimeSig:vector  ETV
vector 759304  Network.dyn_peer[17]  lookupHopsSig:vector  ETV
vector 759305  Network.dyn_peer[17]  lookupStabilitySig:vector  ETV
vector 759306  Network.dyn_peer[17]  lookupTimeSig:vector  ETV
vector 759607  Network.dyn_peer[118]  lookupHopsSig:vector  ETV
vector 759608  Network.dyn_peer[118]  lookupStabilitySig:vector  ETV
vector 759609  Network.dyn_peer[118]  lookupTimeSig:vector  ETV
vector 759334  Network.dyn_peer[27]  lookupHopsSig:vector  ETV
vector 759335  Network.dyn_peer[27]  lookupStabilitySig:vector  ETV
vector 759336  Network.dyn_peer[27]  lookupTimeSig:vector  ETV
vector 759658  Network.dyn_peer[135]  lookupHopsSig:vector  ETV
vector 759659  Network.dyn_peer[135]  lookupStabilitySig:vector  ETV
vector 759660  Network.dyn_peer[135]  lookupTimeSig:vector  ETV
vector 759382  Network.dyn_peer[43]  lookupHopsSig:vector  ETV
vector 759383  Network.dyn_peer[43]  lookupStabilitySig:vector  ETV
vector 759384  Network.dyn_peer[43]  lookupTimeSig:vector  ETV
vector 759460  Network.dyn_peer[69]  lookupHopsSig:vector  ETV
vector 759461  Network.dyn_peer[69]  lookupStabilitySig:vector  ETV
vector 759462  Network.dyn_peer[69]  lookupTimeSig:vector  ETV
vector 759775  Network.dyn_peer[174]  lookupHopsSig:vector  ETV
vector 759776  Network.dyn_peer[174]  lookupStabilitySig:vector  ETV
vector 759777  Network.dyn_peer[174]  lookupTimeSig:vector  ETV
vector 759844  Network.dyn_peer[197]  lookupHopsSig:vector  ETV
vector 759845  Network.dyn_peer[197]  lookupStabilitySig:vector  ETV
vector 759846  Network.dyn_peer[197]  lookupTimeSig:vector  ETV
vector 760159  Network.dyn_peer[302]  lookupHopsSig:vector  ETV
vector 760160  Network.dyn_peer[302]  lookupStabilitySig:vector  ETV
vector 760161  Network.dyn_peer[302]  lookupTimeSig:vector  ETV
vector 759277  Network.dyn_peer[8]  lookupHopsSig:vector  ETV
vector 759278  Network.dyn_peer[8]  lookupStabilitySig:vector  ETV
vector 759279  Network.dyn_peer[8]  lookupTimeSig:vector  ETV
vector 759907  Network.dyn_peer[218]  lookupHopsSig:vector  ETV
vector 759908  Network.dyn_peer[218]  lookupStabilitySig:vector  ETV
vector 759909  Network.dyn_peer[218]  lookupTimeSig:vector  ETV
vector 759631  Network.dyn_peer[126]  lookupHopsSig:vector  ETV
vector 759632  Network.dyn_peer[126]  lookupStabilitySig:vector  ETV
vector 759633  Network.dyn_peer[126]  lookupTimeSig:vector  ETV
vector 759646  Network.dyn_peer[131]  lookupHopsSig:vector  ETV
vector 759647  Network.dyn_peer[131]  lookupStabilitySig:vector  ETV
vector 759648  Network.dyn_peer[131]  lookupTimeSig:vector  ETV
vector 759349  Network.dyn_peer[32]  lookupHopsSig:vector  ETV
vector 759350  Network.dyn_peer[32]  lookupStabilitySig:vector  ETV
vector 759351  Network.dyn_peer[32]  lookupTimeSig:vector  ETV
vector 759673  Network.dyn_peer[140]  lookupHopsSig:vector  ETV
vector 759674  Network.dyn_peer[140]  lookupStabilitySig:vector  ETV
vector 759675  Network.dyn_peer[140]  lookupTimeSig:vector  ETV
vector 759424  Network.dyn_peer[57]  lookupHopsSig:vector  ETV
vector 759425  Network.dyn_peer[57]  lookupStabilitySig:vector  ETV
vector 759426  Network.dyn_peer[57]  lookupTimeSig:vector  ETV
vector 759727  Network.dyn_peer[158]  lookupHopsSig:vector  ETV
vector 759728  Network.dyn_peer[158]  lookupStabilitySig:vector  ETV
vector 759729  Network.dyn_peer[158]  lookupTimeSig:vector  ETV
vector 760036  Network.dyn_peer[261]  lookupHopsSig:vector  ETV
vector 760037  Network.dyn_peer[261]  lookupStabilitySig:vector  ETV
vector 760038  Network.dyn_peer[261]  lookupTimeSig:vector  ETV
vector 759742  Network.dyn_peer[163]  lookupHopsSig:vector  ETV
vector 759743  Network.dyn_peer[163]  lookupStabilitySig:vector  ETV
vector 759744  Network.dyn_peer[163]  lookupTimeSig:vector  ETV
vector 759445  Network.dyn_peer[64]  lookupHopsSig:vector  ETV
vector 759446  Network.dyn_peer[64]  lookupStabilitySig:vector  ETV
vector 759447  Network.dyn_peer[64]  lookupTimeSig:vector  ETV
vector 759745  Network.dyn_peer[164]  lookupHopsSig:vector  ETV
vector 759746  Network.dyn_peer[164]  lookupStabilitySig:vector  ETV
vector 759747  Network.dyn_peer[164]  lookupTimeSig:vector  ETV
vector 760402  Network.dyn_peer[383]  lookupHopsSig:vector  ETV
vector 760403  Network.dyn_peer[383]  lookupStabilitySig:vector  ETV
vector 760404  Network.dyn_peer[383]  lookupTimeSig:vector  ETV
vector 760132  Network.dyn_peer[293]  lookupHopsSig:vector  ETV
vector 760133  Network.dyn_peer[293]  lookupStabilitySig:vector  ETV
vector 760134  Network.dyn_peer[293]  lookupTimeSig:vector  ETV
vector 759535  Network.dyn_peer[94]  lookupHopsSig:vector  ETV
vector 759536  Network.dyn_peer[94]  lookupStabilitySig:vector  ETV
vector 759537  Network.dyn_peer[94]  lookupTimeSig:vector  ETV
vector 759559  Network.dyn_peer[102]  lookupHopsSig:vector  ETV
vector 759560  Network.dyn_peer[102]  lookupStabilitySig:vector  ETV
vector 759561  Network.dyn_peer[102]  lookupTimeSig:vector  ETV
vector 760186  Network.dyn_peer[311]  lookupHopsSig:vector  ETV
vector 760187  Network.dyn_peer[311]  lookupStabilitySig:vector  ETV
vector 760188  Network.dyn_peer[311]  lookupTimeSig:vector  ETV
vector 759604  Network.dyn_peer[117]  lookupHopsSig:vector  ETV
vector 759605  Network.dyn_peer[117]  lookupStabilitySig:vector  ETV
vector 759606  Network.dyn_peer[117]  lookupTimeSig:vector  ETV
vector 759319  Network.dyn_peer[22]  lookupHopsSig:vector  ETV
vector 759320  Network.dyn_peer[22]  lookupStabilitySig:vector  ETV
vector 759321  Network.dyn_peer[22]  lookupTimeSig:vector  ETV
vector 759361  Network.dyn_peer[36]  lookupHopsSig:vector  ETV
vector 759362  Network.dyn_peer[36]  lookupStabilitySig:vector  ETV
vector 759363  Network.dyn_peer[36]  lookupTimeSig:vector  ETV
vector 759670  Network.dyn_peer[139]  lookupHopsSig:vector  ETV
vector 759671  Network.dyn_peer[139]  lookupStabilitySig:vector  ETV
vector 759672  Network.dyn_peer[139]  lookupTimeSig:vector  ETV
vector 760057  Network.dyn_peer[268]  lookupHopsSig:vector  ETV
vector 760058  Network.dyn_peer[268]  lookupStabilitySig:vector  ETV
vector 760059  Network.dyn_peer[268]  lookupTimeSig:vector  ETV
vector 759784  Network.dyn_peer[177]  lookupHopsSig:vector  ETV
vector 759785  Network.dyn_peer[177]  lookupStabilitySig:vector  ETV
vector 759786  Network.dyn_peer[177]  lookupTimeSig:vector  ETV
vector 759799  Network.dyn_peer[182]  lookupHopsSig:vector  ETV
vector 759800  Network.dyn_peer[182]  lookupStabilitySig:vector  ETV
vector 759801  Network.dyn_peer[182]  lookupTimeSig:vector  ETV
vector 759514  Network.dyn_peer[87]  lookupHopsSig:vector  ETV
vector 759515  Network.dyn_peer[87]  lookupStabilitySig:vector  ETV
vector 759516  Network.dyn_peer[87]  lookupTimeSig:vector  ETV
vector 759829  Network.dyn_peer[192]  lookupHopsSig:vector  ETV
vector 759830  Network.dyn_peer[192]  lookupStabilitySig:vector  ETV
vector 759831  Network.dyn_peer[192]  lookupTimeSig:vector  ETV
vector 760135  Network.dyn_peer[294]  lookupHopsSig:vector  ETV
vector 760136  Network.dyn_peer[294]  lookupStabilitySig:vector  ETV
vector 760137  Network.dyn_peer[294]  lookupTimeSig:vector  ETV
vector 760213  Network.dyn_peer[320]  lookupHopsSig:vector  ETV
vector 760214  Network.dyn_peer[320]  lookupStabilitySig:vector  ETV
vector 760215  Network.dyn_peer[320]  lookupTimeSig:vector  ETV
vector 759922  Network.dyn_peer[223]  lookupHopsSig:vector  ETV
vector 759923  Network.dyn_peer[223]  lookupStabilitySig:vector  ETV
vector 759924  Network.dyn_peer[223]  lookupTimeSig:vector  ETV
vector 759343  Network.dyn_peer[30]  lookupHopsSig:vector  ETV
vector 759344  Network.dyn_peer[30]  lookupStabilitySig:vector  ETV
vector 759345  Network.dyn_peer[30]  lookupTimeSig:vector  ETV
vector 760258  Network.dyn_peer[335]  lookupHopsSig:vector  ETV
vector 760259  Network.dyn_peer[335]  lookupStabilitySig:vector  ETV
vector 760260  Network.dyn_peer[335]  lookupTimeSig:vector  ETV
vector 759367  Network.dyn_peer[38]  lookupHopsSig:vector  ETV
vector 759368  Network.dyn_peer[38]  lookupStabilitySig:vector  ETV
vector 759369  Network.dyn_peer[38]  lookupTimeSig:vector  ETV
vector 759970  Network.dyn_peer[239]  lookupHopsSig:vector  ETV
vector 759971  Network.dyn_peer[239]  lookupStabilitySig:vector  ETV
vector 759972  Network.dyn_peer[239]  lookupTimeSig:vector  ETV
vector 759985  Network.dyn_peer[244]  lookupHopsSig:vector  ETV
vector 759986  Network.dyn_peer[244]  lookupStabilitySig:vector  ETV
vector 759987  Network.dyn_peer[244]  lookupTimeSig:vector  ETV
vector 760297  Network.dyn_peer[348]  lookupHopsSig:vector  ETV
vector 760298  Network.dyn_peer[348]  lookupStabilitySig:vector  ETV
vector 760299  Network.dyn_peer[348]  lookupTimeSig:vector  ETV
vector 760105  Network.dyn_peer[284]  lookupHopsSig:vector  ETV
vector 760106  Network.dyn_peer[284]  lookupStabilitySig:vector  ETV
vector 760107  Network.dyn_peer[284]  lookupTimeSig:vector  ETV
vector 759811  Network.dyn_peer[186]  lookupHopsSig:vector  ETV
vector 759812  Network.dyn_peer[186]  lookupStabilitySig:vector  ETV
vector 759813  Network.dyn_peer[186]  lookupTimeSig:vector  ETV
vector 760117  Network.dyn_peer[288]  lookupHopsSig:vector  ETV
vector 760118  Network.dyn_peer[288]  lookupStabilitySig:vector  ETV
vector 760119  Network.dyn_peer[288]  lookupTimeSig:vector  ETV
vector 759523  Network.dyn_peer[90]  lookupHopsSig:vector  ETV
vector 759524  Network.dyn_peer[90]  lookupStabilitySig:vector  ETV
vector 759525  Network.dyn_peer[90]  lookupTimeSig:vector  ETV
vector 760441  Network.dyn_peer[396]  lookupHopsSig:vector  ETV
vector 760442  Network.dyn_peer[396]  lookupStabilitySig:vector  ETV
vector 760443  Network.dyn_peer[396]  lookupTimeSig:vector  ETV
vector 760150  Network.dyn_peer[299]  lookupHopsSig:vector  ETV
vector 760151  Network.dyn_peer[299]  lookupStabilitySig:vector  ETV
vector 760152  Network.dyn_peer[299]  lookupTimeSig:vector  ETV
vector 759574  Network.dyn_peer[107]  lookupHopsSig:vector  ETV
vector 759575  Network.dyn_peer[107]  lookupStabilitySig:vector  ETV
vector 759576  Network.dyn_peer[107]  lookupTimeSig:vector  ETV
vector 759289  Network.dyn_peer[12]  lookupHopsSig:vector  ETV
vector 759290  Network.dyn_peer[12]  lookupStabilitySig:vector  ETV
vector 759291  Network.dyn_peer[12]  lookupTimeSig:vector  ETV
vector 759307  Network.dyn_peer[18]  lookupHopsSig:vector  ETV
vector 759308  Network.dyn_peer[18]  lookupStabilitySig:vector  ETV
vector 759309  Network.dyn_peer[18]  lookupTimeSig:vector  ETV
vector 760207  Network.dyn_peer[318]  lookupHopsSig:vector  ETV
vector 760208  Network.dyn_peer[318]  lookupStabilitySig:vector  ETV
vector 760209  Network.dyn_peer[318]  lookupTimeSig:vector  ETV
vector 759325  Network.dyn_peer[24]  lookupHopsSig:vector  ETV
vector 759326  Network.dyn_peer[24]  lookupStabilitySig:vector  ETV
vector 759327  Network.dyn_peer[24]  lookupTimeSig:vector  ETV
vector 760282  Network.dyn_peer[343]  lookupHopsSig:vector  ETV
vector 760283  Network.dyn_peer[343]  lookupStabilitySig:vector  ETV
vector 760284  Network.dyn_peer[343]  lookupTimeSig:vector  ETV
vector 759385  Network.dyn_peer[44]  lookupHopsSig:vector  ETV
vector 759386  Network.dyn_peer[44]  lookupStabilitySig:vector  ETV
vector 759387  Network.dyn_peer[44]  lookupTimeSig:vector  ETV
vector 760015  Network.dyn_peer[254]  lookupHopsSig:vector  ETV
vector 760016  Network.dyn_peer[254]  lookupStabilitySig:vector  ETV
vector 760017  Network.dyn_peer[254]  lookupTimeSig:vector  ETV
vector 759724  Network.dyn_peer[157]  lookupHopsSig:vector  ETV
vector 759725  Network.dyn_peer[157]  lookupStabilitySig:vector  ETV
vector 759726  Network.dyn_peer[157]  lookupTimeSig:vector  ETV
vector 760387  Network.dyn_peer[378]  lookupHopsSig:vector  ETV
vector 760388  Network.dyn_peer[378]  lookupStabilitySig:vector  ETV
vector 760389  Network.dyn_peer[378]  lookupTimeSig:vector  ETV
vector 760099  Network.dyn_peer[282]  lookupHopsSig:vector  ETV
vector 760100  Network.dyn_peer[282]  lookupStabilitySig:vector  ETV
vector 760101  Network.dyn_peer[282]  lookupTimeSig:vector  ETV
vector 760408  Network.dyn_peer[385]  lookupHopsSig:vector  ETV
vector 760409  Network.dyn_peer[385]  lookupStabilitySig:vector  ETV
vector 760410  Network.dyn_peer[385]  lookupTimeSig:vector  ETV
vector 760114  Network.dyn_peer[287]  lookupHopsSig:vector  ETV
vector 760115  Network.dyn_peer[287]  lookupStabilitySig:vector  ETV
vector 760116  Network.dyn_peer[287]  lookupTimeSig:vector  ETV
vector 759544  Network.dyn_peer[97]  lookupHopsSig:vector  ETV
vector 759545  Network.dyn_peer[97]  lookupStabilitySig:vector  ETV
vector 759546  Network.dyn_peer[97]  lookupTimeSig:vector  ETV
vector 760447  Network.dyn_peer[398]  lookupHopsSig:vector  ETV
vector 760448  Network.dyn_peer[398]  lookupStabilitySig:vector  ETV
vector 760449  Network.dyn_peer[398]  lookupTimeSig:vector  ETV
vector 760450  Network.dyn_peer[399]  lookupHopsSig:vector  ETV
vector 760451  Network.dyn_peer[399]  lookupStabilitySig:vector  ETV
vector 760452  Network.dyn_peer[399]  lookupTimeSig:vector  ETV
vector 759862  Network.dyn_peer[203]  lookupHopsSig:vector  ETV
vector 759863  Network.dyn_peer[203]  lookupStabilitySig:vector  ETV
vector 759864  Network.dyn_peer[203]  lookupTimeSig:vector  ETV
vector 759586  Network.dyn_peer[111]  lookupHopsSig:vector  ETV
vector 759587  Network.dyn_peer[111]  lookupStabilitySig:vector  ETV
vector 759588  Network.dyn_peer[111]  lookupTimeSig:vector  ETV
vector 759322  Network.dyn_peer[23]  lookupHopsSig:vector  ETV
vector 759323  Network.dyn_peer[23]  lookupStabilitySig:vector  ETV
vector 759324  Network.dyn_peer[23]  lookupTimeSig:vector  ETV
vector 760279  Network.dyn_peer[342]  lookupHopsSig:vector  ETV
vector 760280  Network.dyn_peer[342]  lookupStabilitySig:vector  ETV
vector 760281  Network.dyn_peer[342]  lookupTimeSig:vector  ETV
vector 759394  Network.dyn_peer[47]  lookupHopsSig:vector  ETV
vector 759395  Network.dyn_peer[47]  lookupStabilitySig:vector  ETV
vector 759396  Network.dyn_peer[47]  lookupTimeSig:vector  ETV
vector 760021  Network.dyn_peer[256]  lookupHopsSig:vector  ETV
vector 760022  Network.dyn_peer[256]  lookupStabilitySig:vector  ETV
vector 760023  Network.dyn_peer[256]  lookupTimeSig:vector  ETV
vector 760054  Network.dyn_peer[267]  lookupHopsSig:vector  ETV
vector 760055  Network.dyn_peer[267]  lookupStabilitySig:vector  ETV
vector 760056  Network.dyn_peer[267]  lookupTimeSig:vector  ETV
vector 760357  Network.dyn_peer[368]  lookupHopsSig:vector  ETV
vector 760358  Network.dyn_peer[368]  lookupStabilitySig:vector  ETV
vector 760359  Network.dyn_peer[368]  lookupTimeSig:vector  ETV
vector 760420  Network.dyn_peer[389]  lookupHopsSig:vector  ETV
vector 760421  Network.dyn_peer[389]  lookupStabilitySig:vector  ETV
vector 760422  Network.dyn_peer[389]  lookupTimeSig:vector  ETV
vector 759547  Network.dyn_peer[98]  lookupHopsSig:vector  ETV
vector 759548  Network.dyn_peer[98]  lookupStabilitySig:vector  ETV
vector 759549  Network.dyn_peer[98]  lookupTimeSig:vector  ETV
vector 759553  Network.dyn_peer[100]  lookupHopsSig:vector  ETV
vector 759554  Network.dyn_peer[100]  lookupStabilitySig:vector  ETV
vector 759555  Network.dyn_peer[100]  lookupTimeSig:vector  ETV
vector 759562  Network.dyn_peer[103]  lookupHopsSig:vector  ETV
vector 759563  Network.dyn_peer[103]  lookupStabilitySig:vector  ETV
vector 759564  Network.dyn_peer[103]  lookupTimeSig:vector  ETV
vector 759919  Network.dyn_peer[222]  lookupHopsSig:vector  ETV
vector 759920  Network.dyn_peer[222]  lookupStabilitySig:vector  ETV
vector 759921  Network.dyn_peer[222]  lookupTimeSig:vector  ETV
vector 759328  Network.dyn_peer[25]  lookupHopsSig:vector  ETV
vector 759329  Network.dyn_peer[25]  lookupStabilitySig:vector  ETV
vector 759330  Network.dyn_peer[25]  lookupTimeSig:vector  ETV
vector 759358  Network.dyn_peer[35]  lookupHopsSig:vector  ETV
vector 759359  Network.dyn_peer[35]  lookupStabilitySig:vector  ETV
vector 759360  Network.dyn_peer[35]  lookupTimeSig:vector  ETV
vector 759661  Network.dyn_peer[136]  lookupHopsSig:vector  ETV
vector 759662  Network.dyn_peer[136]  lookupStabilitySig:vector  ETV
vector 759663  Network.dyn_peer[136]  lookupTimeSig:vector  ETV
vector 759961  Network.dyn_peer[236]  lookupHopsSig:vector  ETV
vector 759962  Network.dyn_peer[236]  lookupStabilitySig:vector  ETV
vector 759963  Network.dyn_peer[236]  lookupTimeSig:vector  ETV
vector 759997  Network.dyn_peer[248]  lookupHopsSig:vector  ETV
vector 759998  Network.dyn_peer[248]  lookupStabilitySig:vector  ETV
vector 759999  Network.dyn_peer[248]  lookupTimeSig:vector  ETV
vector 759496  Network.dyn_peer[81]  lookupHopsSig:vector  ETV
vector 759497  Network.dyn_peer[81]  lookupStabilitySig:vector  ETV
vector 759498  Network.dyn_peer[81]  lookupTimeSig:vector  ETV
vector 759532  Network.dyn_peer[93]  lookupHopsSig:vector  ETV
vector 759533  Network.dyn_peer[93]  lookupStabilitySig:vector  ETV
vector 759534  Network.dyn_peer[93]  lookupTimeSig:vector  ETV
vector 759583  Network.dyn_peer[110]  lookupHopsSig:vector  ETV
vector 759584  Network.dyn_peer[110]  lookupStabilitySig:vector  ETV
vector 759585  Network.dyn_peer[110]  lookupTimeSig:vector  ETV
vector 759592  Network.dyn_peer[113]  lookupHopsSig:vector  ETV
vector 759593  Network.dyn_peer[113]  lookupStabilitySig:vector  ETV
vector 759594  Network.dyn_peer[113]  lookupTimeSig:vector  ETV
vector 759898  Network.dyn_peer[215]  lookupHopsSig:vector  ETV
vector 759899  Network.dyn_peer[215]  lookupStabilitySig:vector  ETV
vector 759900  Network.dyn_peer[215]  lookupTimeSig:vector  ETV
vector 759904  Network.dyn_peer[217]  lookupHopsSig:vector  ETV
vector 759905  Network.dyn_peer[217]  lookupStabilitySig:vector  ETV
vector 759906  Network.dyn_peer[217]  lookupTimeSig:vector  ETV
vector 759316  Network.dyn_peer[21]  lookupHopsSig:vector  ETV
vector 759317  Network.dyn_peer[21]  lookupStabilitySig:vector  ETV
vector 759318  Network.dyn_peer[21]  lookupTimeSig:vector  ETV
vector 760216  Network.dyn_peer[321]  lookupHopsSig:vector  ETV
vector 760217  Network.dyn_peer[321]  lookupStabilitySig:vector  ETV
vector 760218  Network.dyn_peer[321]  lookupTimeSig:vector  ETV
vector 759925  Network.dyn_peer[224]  lookupHopsSig:vector  ETV
vector 759926  Network.dyn_peer[224]  lookupStabilitySig:vector  ETV
vector 759927  Network.dyn_peer[224]  lookupTimeSig:vector  ETV
vector 759370  Network.dyn_peer[39]  lookupHopsSig:vector  ETV
vector 759371  Network.dyn_peer[39]  lookupStabilitySig:vector  ETV
vector 759372  Network.dyn_peer[39]  lookupTimeSig:vector  ETV
vector 760351  Network.dyn_peer[366]  lookupHopsSig:vector  ETV
vector 760352  Network.dyn_peer[366]  lookupStabilitySig:vector  ETV
vector 760353  Network.dyn_peer[366]  lookupTimeSig:vector  ETV
vector 759457  Network.dyn_peer[68]  lookupHopsSig:vector  ETV
vector 759458  Network.dyn_peer[68]  lookupStabilitySig:vector  ETV
vector 759459  Network.dyn_peer[68]  lookupTimeSig:vector  ETV
vector 759571  Network.dyn_peer[106]  lookupHopsSig:vector  ETV
vector 759572  Network.dyn_peer[106]  lookupStabilitySig:vector  ETV
vector 759573  Network.dyn_peer[106]  lookupTimeSig:vector  ETV
vector 760174  Network.dyn_peer[307]  lookupHopsSig:vector  ETV
vector 760175  Network.dyn_peer[307]  lookupStabilitySig:vector  ETV
vector 760176  Network.dyn_peer[307]  lookupTimeSig:vector  ETV
vector 759886  Network.dyn_peer[211]  lookupHopsSig:vector  ETV
vector 759887  Network.dyn_peer[211]  lookupStabilitySig:vector  ETV
vector 759888  Network.dyn_peer[211]  lookupTimeSig:vector  ETV
vector 759889  Network.dyn_peer[212]  lookupHopsSig:vector  ETV
vector 759890  Network.dyn_peer[212]  lookupStabilitySig:vector  ETV
vector 759891  Network.dyn_peer[212]  lookupTimeSig:vector  ETV
vector 759598  Network.dyn_peer[115]  lookupHopsSig:vector  ETV
vector 759599  Network.dyn_peer[115]  lookupStabilitySig:vector  ETV
vector 759600  Network.dyn_peer[115]  lookupTimeSig:vector  ETV
vector 760228  Network.dyn_peer[325]  lookupHopsSig:vector  ETV
vector 760229  Network.dyn_peer[325]  lookupStabilitySig:vector  ETV
vector 760230  Network.dyn_peer[325]  lookupTimeSig:vector  ETV
vector 759643  Network.dyn_peer[130]  lookupHopsSig:vector  ETV
vector 759644  Network.dyn_peer[130]  lookupStabilitySig:vector  ETV
vector 759645  Network.dyn_peer[130]  lookupTimeSig:vector  ETV
vector 759649  Network.dyn_peer[132]  lookupHopsSig:vector  ETV
vector 759650  Network.dyn_peer[132]  lookupStabilitySig:vector  ETV
vector 759651  Network.dyn_peer[132]  lookupTimeSig:vector  ETV
vector 759958  Network.dyn_peer[235]  lookupHopsSig:vector  ETV
vector 759959  Network.dyn_peer[235]  lookupStabilitySig:vector  ETV
vector 759960  Network.dyn_peer[235]  lookupTimeSig:vector  ETV
vector 760009  Network.dyn_peer[252]  lookupHopsSig:vector  ETV
vector 760010  Network.dyn_peer[252]  lookupStabilitySig:vector  ETV
vector 760011  Network.dyn_peer[252]  lookupTimeSig:vector  ETV
vector 760315  Network.dyn_peer[354]  lookupHopsSig:vector  ETV
vector 760316  Network.dyn_peer[354]  lookupStabilitySig:vector  ETV
vector 760317  Network.dyn_peer[354]  lookupTimeSig:vector  ETV
vector 760072  Network.dyn_peer[273]  lookupHopsSig:vector  ETV
vector 760073  Network.dyn_peer[273]  lookupStabilitySig:vector  ETV
vector 760074  Network.dyn_peer[273]  lookupTimeSig:vector  ETV
vector 760435  Network.dyn_peer[394]  lookupHopsSig:vector  ETV
vector 760436  Network.dyn_peer[394]  lookupStabilitySig:vector  ETV
vector 760437  Network.dyn_peer[394]  lookupTimeSig:vector  ETV
vector 759550  Network.dyn_peer[99]  lookupHopsSig:vector  ETV
vector 759551  Network.dyn_peer[99]  lookupStabilitySig:vector  ETV
vector 759552  Network.dyn_peer[99]  lookupTimeSig:vector  ETV