file 17247 1369522290                                           
version 2
run Stability2-81-20130526-00:51:30-26640
attr configname Stability2
attr datetime 20130526-00:51:30
attr experiment Stability2
attr inifile omnetpp.ini
attr iterationvars $0=30
attr iterationvars2 "$0=30, $repetition=21"
attr measurement $0=30
attr network Network
attr processid 26640
attr repetition 21
attr replication #21
attr resultdir results
attr runnumber 81
attr seedset 81

vector 246081  Network.churner  inGoingSizeSig:vector  ETV
vector 243093  Network.dyn_peer[4]  lookupHopsSig:vector  ETV
vector 243094  Network.dyn_peer[4]  lookupStabilitySig:vector  ETV
vector 243095  Network.dyn_peer[4]  lookupTimeSig:vector  ETV
vector 243114  Network.dyn_peer[11]  lookupHopsSig:vector  ETV
vector 243115  Network.dyn_peer[11]  lookupStabilitySig:vector  ETV
vector 243116  Network.dyn_peer[11]  lookupTimeSig:vector  ETV
vector 243132  Network.dyn_peer[17]  lookupHopsSig:vector  ETV
vector 243133  Network.dyn_peer[17]  lookupStabilitySig:vector  ETV
vector 243134  Network.dyn_peer[17]  lookupTimeSig:vector  ETV
vector 243156  Network.dyn_peer[25]  lookupHopsSig:vector  ETV
vector 243157  Network.dyn_peer[25]  lookupStabilitySig:vector  ETV
vector 243158  Network.dyn_peer[25]  lookupTimeSig:vector  ETV
vector 243090  Network.dyn_peer[3]  lookupHopsSig:vector  ETV
vector 243091  Network.dyn_peer[3]  lookupStabilitySig:vector  ETV
vector 243092  Network.dyn_peer[3]  lookupTimeSig:vector  ETV
vector 243102  Network.dyn_peer[7]  lookupHopsSig:vector  ETV
vector 243103  Network.dyn_peer[7]  lookupStabilitySig:vector  ETV
vector 243104  Network.dyn_peer[7]  lookupTimeSig:vector  ETV
vector 243123  Network.dyn_peer[14]  lookupHopsSig:vector  ETV
vector 243124  Network.dyn_peer[14]  lookupStabilitySig:vector  ETV
vector 243125  Network.dyn_peer[14]  lookupTimeSig:vector  ETV
vector 243138  Network.dyn_peer[19]  lookupHopsSig:vector  ETV
vector 243139  Network.dyn_peer[19]  lookupStabilitySig:vector  ETV
vector 243140  Network.dyn_peer[19]  lookupTimeSig:vector  ETV
vector 243141  Network.dyn_peer[20]  lookupHopsSig:vector  ETV
vector 243142  Network.dyn_peer[20]  lookupStabilitySig:vector  ETV
vector 243143  Network.dyn_peer[20]  lookupTimeSig:vector  ETV
vector 243162  Network.dyn_peer[27]  lookupHopsSig:vector  ETV
vector 243163  Network.dyn_peer[27]  lookupStabilitySig:vector  ETV
vector 243164  Network.dyn_peer[27]  lookupTimeSig:vector  ETV
vector 243168  Network.dyn_peer[29]  lookupHopsSig:vector  ETV
vector 243169  Network.dyn_peer[29]  lookupStabilitySig:vector  ETV
vector 243170  Network.dyn_peer[29]  lookupTimeSig:vector  ETV
vector 243081  Network.dyn_peer[0]  lookupHopsSig:vector  ETV
vector 243082  Network.dyn_peer[0]  lookupStabilitySig:vector  ETV
vector 243083  Network.dyn_peer[0]  lookupTimeSig:vector  ETV
vector 243084  Network.dyn_peer[1]  lookupHopsSig:vector  ETV
vector 243085  Network.dyn_peer[1]  lookupStabilitySig:vector  ETV
vector 243086  Network.dyn_peer[1]  lookupTimeSig:vector  ETV
vector 243117  Network.dyn_peer[12]  lookupHopsSig:vector  ETV
vector 243118  Network.dyn_peer[12]  lookupStabilitySig:vector  ETV
vector 243119  Network.dyn_peer[12]  lookupTimeSig:vector  ETV
vector 243144  Network.dyn_peer[21]  lookupHopsSig:vector  ETV
vector 243145  Network.dyn_peer[21]  lookupStabilitySig:vector  ETV
vector 243146  Network.dyn_peer[21]  lookupTimeSig:vector  ETV
vector 243159  Network.dyn_peer[26]  lookupHopsSig:vector  ETV
vector 243160  Network.dyn_peer[26]  lookupStabilitySig:vector  ETV
vector 243161  Network.dyn_peer[26]  lookupTimeSig:vector  ETV
vector 243165  Network.dyn_peer[28]  lookupHopsSig:vector  ETV
vector 243166  Network.dyn_peer[28]  lookupStabilitySig:vector  ETV
vector 243167  Network.dyn_peer[28]  lookupTimeSig:vector  ETV
vector 243096  Network.dyn_peer[5]  lookupHopsSig:vector  ETV
vector 243097  Network.dyn_peer[5]  lookupStabilitySig:vector  ETV
vector 243098  Network.dyn_peer[5]  lookupTimeSig:vector  ETV
vector 243105  Network.dyn_peer[8]  lookupHopsSig:vector  ETV
vector 243106  Network.dyn_peer[8]  lookupStabilitySig:vector  ETV
vector 243107  Network.dyn_peer[8]  lookupTimeSig:vector  ETV
vector 243108  Network.dyn_peer[9]  lookupHopsSig:vector  ETV
vector 243109  Network.dyn_peer[9]  lookupStabilitySig:vector  ETV
vector 243110  Network.dyn_peer[9]  lookupTimeSig:vector  ETV
vector 243120  Network.dyn_peer[13]  lookupHopsSig:vector  ETV
vector 243121  Network.dyn_peer[13]  lookupStabilitySig:vector  ETV
vector 243122  Network.dyn_peer[13]  lookupTimeSig:vector  ETV
vector 243126  Network.dyn_peer[15]  lookupHopsSig:vector  ETV
vector 243127  Network.dyn_peer[15]  lookupStabilitySig:vector  ETV
vector 243128  Network.dyn_peer[15]  lookupTimeSig:vector  ETV
vector 243147  Network.dyn_peer[22]  lookupHopsSig:vector  ETV
vector 243148  Network.dyn_peer[22]  lookupStabilitySig:vector  ETV
vector 243149  Network.dyn_peer[22]  lookupTimeSig:vector  ETV
vector 243153  Network.dyn_peer[24]  lookupHopsSig:vector  ETV
vector 243154  Network.dyn_peer[24]  lookupStabilitySig:vector  ETV
vector 243155  Network.dyn_peer[24]  lookupTimeSig:vector  ETV
vector 243135  Network.dyn_peer[18]  lookupHopsSig:vector  ETV
vector 243136  Network.dyn_peer[18]  lookupStabilitySig:vector  ETV
vector 243137  Network.dyn_peer[18]  lookupTimeSig:vector  ETV
vector 243099  Network.dyn_peer[6]  lookupHopsSig:vector  ETV
vector 243100  Network.dyn_peer[6]  lookupStabilitySig:vector  ETV
vector 243101  Network.dyn_peer[6]  lookupTimeSig:vector  ETV
vector 243111  Network.dyn_peer[10]  lookupHopsSig:vector  ETV
vector 243112  Network.dyn_peer[10]  lookupStabilitySig:vector  ETV
vector 243113  Network.dyn_peer[10]  lookupTimeSig:vector  ETV
vector 243129  Network.dyn_peer[16]  lookupHopsSig:vector  ETV
vector 243130  Network.dyn_peer[16]  lookupStabilitySig:vector  ETV
vector 243131  Network.dyn_peer[16]  lookupTimeSig:vector  ETV
vector 243087  Network.dyn_peer[2]  lookupHopsSig:vector  ETV
vector 243088  Network.dyn_peer[2]  lookupStabilitySig:vector  ETV
vector 243089  Network.dyn_peer[2]  lookupTimeSig:vector  ETV
vector 243150  Network.dyn_peer[23]  lookupHopsSig:vector  ETV
vector 243151  Network.dyn_peer[23]  lookupStabilitySig:vector  ETV
vector 243152  Network.dyn_peer[23]  lookupTimeSig:vector  ETV
243081	6244 69 187 650 20.201 21.109242443013 3 2 5 9 33
243082	6313 114 187 650 20.201 21.109242443013 3 0.16666668653488 0.81818181276321 1.5848484933376 1.0571992559845
243083	6427 75 187 650 20.201 21.109242443013 3 0.2 0.6 1.1 0.49
243084	6502 69 192 515 20.202 20.807618780595 3 2 2 6 12
243085	6571 114 192 515 20.202 20.807618780595 3 0.59999999403954 0.66666665673256 1.8666666448116 1.1644444168939
243086	6685 75 192 515 20.202 20.807618780595 3 0.2 0.3 0.8 0.22
243087	6760 40 418 724 20.603 21.303 2 6 6 12 72
243088	6800 70 418 724 20.603 21.303 2 -0.20000004768372 0.5714285671711 0.37142851948738 0.3665306264527
243089	6870 44 418 724 20.603 21.303 2 0.6 0.7 1.3 0.85
243090	6914 164 129 937 20.104 22.125220474401 6 1 5 16 62
243091	7078 253 129 937 20.104 22.125220474401 6 0.16666668653488 0.94444444403052 4.3993033803999 3.6446887248679
243092	7331 176 129 937 20.104 22.125220474401 6 0.1 0.6 2.1 0.97
243093	7507 48 30 609 20.005 21.013319235026 2 0 9 9 81
243094	7555 48 30 609 20.005 21.013319235026 2 0 1 1 1
243095	7603 48 30 609 20.005 21.013319235026 2 0 1 1 1
243096	7651 185 255 965 20.306 22.432876552927 7 1 5 18 60
243097	7836 279 255 965 20.306 22.432876552927 7 0.28571426868439 0.96875 5.2274516932666 4.3952219952705
243098	8115 199 255 965 20.306 22.432876552927 7 0.2 0.6 2.4 0.96
243099	8314 127 364 948 20.507 22.230058996198 5 2 5 18 70
243100	8441 173 364 948 20.507 22.230058996198 5 0 0.9333333298564 3.0957264900208 2.5085937513345
243101	8614 137 364 948 20.507 22.230058996198 5 0.3 0.5 2.2 1
243102	8751 69 137 601 20.108 21.008982185606 3 1 5 8 30
243103	8820 102 137 601 20.108 21.008982185606 3 0.16666668653488 0.79999999701977 1.7166666835546 1.2302777796321
243104	8922 75 137 601 20.108 21.008982185606 3 0.1 0.6 1 0.46
243105	8997 78 263 831 20.309 21.624736262731 3 3 6 14 70
243106	9075 111 263 831 20.309 21.624736262731 3 0.33333331346512 0.75 1.4833332896233 0.83361107879215
243107	9186 84 263 831 20.309 21.624736262731 3 0.3 0.7 1.6 0.94
243108	9270 153 268 973 20.31 22.636643737423 6 1 7 21 97
243109	9423 224 268 973 20.31 22.636643737423 6 0.36363637447357 0.93939393758774 4.3538455069065 3.5216563457937
243110	9647 165 268 973 20.31 22.636643737423 6 0.2 0.8 2.6 1.38
243111	9812 40 373 560 20.511 20.911 2 3 5 8 34
243112	9852 54 373 560 20.511 20.911 2 0 0.5714285671711 0.5714285671711 0.32653060737921
243113	9906 44 373 560 20.511 20.911 2 0.4 0.5 0.9 0.41
243114	9950 68 56 732 20.012 21.317809562182 3 0 7 11 65
243115	10018 98 56 732 20.012 21.317809562182 3 0.19999998807907 1 1.7333333194256 1.3244444375568
243116	10116 72 56 732 20.012 21.317809562182 3 0 0.8 1.3 0.89
243117	10188 40 206 656 20.213 21.113 2 2 8 10 68
243118	10228 70 206 656 20.213 21.113 2 0.27272725105286 0.59999999403954 0.87272724509239 0.43438014631429
243119	10298 44 206 656 20.213 21.113 2 0.2 0.9 1.1 0.85
243120	10342 98 277 950 20.314 22.230158048878 4 3 7 19 103
243121	10440 145 277 950 20.314 22.230158048878 4 0.39999997615814 0.76666666567326 2.3137254565954 1.4164628669449
243122	10585 106 277 950 20.314 22.230158048878 4 0.3 0.8 2.2 1.38
243123	10691 40 149 431 20.115 20.615 2 1 4 5 17
243124	10731 70 149 431 20.115 20.615 2 0.19999998807907 0.79999999701977 0.99999998509884 0.67999999046326
243125	10801 44 149 431 20.115 20.615 2 0.1 0.5 0.6 0.26
243126	10845 70 284 880 20.316 21.816224629563 3 3 10 16 118
243127	10915 114 284 880 20.316 21.816224629563 3 0.39999997615814 0.86956521868706 1.6813298761845 1.0856938032752
243128	11029 75 284 880 20.316 21.816224629563 3 0.3 1.1 1.8 1.46
243129	11104 69 387 839 20.517 21.632960205105 3 4 5 14 66
243130	11173 99 387 839 20.517 21.632960205105 3 0 0.80952380597591 1.3928571492434 0.9956065818093
243131	11272 75 387 839 20.517 21.632960205105 3 0.5 0.6 1.6 0.86
243132	11347 106 79 829 20.018 21.624650986212 4 0 9 13 91
243133	11453 138 79 829 20.018 21.624650986212 4 0.5 1 2.8263157755136 2.1670082939232
243134	11591 110 79 829 20.018 21.624650986212 4 0 1 1.6 1.2
243135	11701 98 332 755 20.419 21.337288246957 4 1 4 10 34
243136	11799 135 332 755 20.419 21.337288246957 4 0.19999998807907 0.9375 2.5605769082904 2.0209772458584
243137	11934 106 332 755 20.419 21.337288246957 4 0.2 0.5 1.3 0.49
243138	12040 96 157 816 20.12 21.536358289703 4 1 6 12 54
243139	12136 144 157 816 20.12 21.536358289703 4 0.14285713434219 0.94444444403052 2.6373015753925 2.1148834639242
243140	12280 104 157 816 20.12 21.536358289703 4 0.1 0.7 1.5 0.79
243141	12384 127 163 898 20.121 21.857153677615 5 1 4 14 50
243142	12511 201 163 898 20.121 21.857153677615 5 0.33333331346512 0.9411764703691 3.6068174652755 2.8218141724392
243143	12712 137 163 898 20.121 21.857153677615 5 0.1 0.5 1.8 0.8
243144	12849 98 222 935 20.222 22.124657597934 4 2 9 18 110
243145	12947 158 222 935 20.222 22.124657597934 4 0.30769228935242 0.89285714179277 2.6266363784671 1.9342880678081
243146	13105 104 222 935 20.222 22.124657597934 4 0.2 1 2.1 1.45
243147	13209 98 295 793 20.323 21.448911929642 4 1 4 11 35
243148	13307 158 295 793 20.323 21.448911929642 4 0.39999997615814 0.82352940738201 2.6598930060863 1.8831593248742
243149	13465 106 295 793 20.323 21.448911929642 4 0.2 0.5 1.4 0.54
243150	13571 241 493 993 20.724 23.7523318109 9 1 8 29 151
243151	13812 376 493 993 20.724 23.7523318109 9 -0.16666662693024 0.97058823518455 6.9792848043144 6.5315984349449
243152	14188 259 493 993 20.724 23.7523318109 9 0.2 0.9 3.7 2.03
243153	14447 98 301 893 20.325 21.843709260231 4 2 6 15 65
243154	14545 158 301 893 20.325 21.843709260231 4 0.39999997615814 0.91666666418314 2.4944443926215 1.7652160041071
243155	14703 106 301 893 20.325 21.843709260231 4 0.3 0.7 1.8 0.92
243156	14809 107 108 716 20.026 21.234881060619 4 0 4 9 33
243157	14916 152 108 716 20.026 21.234881060619 4 0.33333331346512 1 2.8256409913301 2.2304010180546
243158	15068 113 108 716 20.026 21.234881060619 4 0 0.5 1.2 0.54
243159	15181 108 230 918 20.227 21.971743802472 4 1 10 16 114
243160	15289 154 230 918 20.227 21.971743802472 4 0.5 0.96296296268702 2.6281803622842 1.8567683758997
243161	15443 115 230 918 20.227 21.971743802472 4 0.2 1.1 1.9 1.45
243162	15558 136 173 915 20.128 21.949949927174 5 1 7 15 71
243163	15694 199 173 915 20.128 21.949949927174 5 0.125 0.95652173832059 3.5693045370281 3.0074049169029
243164	15893 146 173 915 20.128 21.949949927174 5 0.1 0.8 1.9 1.03
243165	16039 98 236 841 20.229 21.634165571211 4 1 5 13 55
243166	16137 158 236 841 20.229 21.634165571211 4 0.28571426868439 0.89999999850988 2.547619022429 1.832131498627
243167	16295 106 236 841 20.229 21.634165571211 4 0.2 0.6 1.6 0.8
243168	16401 67 180 631 20.13 21.033979999145 3 1 5 8 30
243169	16468 99 180 631 20.13 21.033979999145 3 0.5 0.79999999701977 1.8999999910593 1.2499999880791
243170	16567 73 180 631 20.13 21.033979999145 3 0.1 0.6 1 0.46
246081	16640 607 11 119 20 20.03 31 0 29 435 8555
