file 296601 1369674129                                          
version 2
run Stability2-244-20130526-00:53:02-26640
attr configname Stability2
attr datetime 20130526-00:53:02
attr experiment Stability2
attr inifile omnetpp.ini
attr iterationvars $0=400
attr iterationvars2 "$0=400, $repetition=4"
attr measurement $0=400
attr network Network
attr processid 26640
attr repetition 4
attr replication #4
attr resultdir results
attr runnumber 244
attr seedset 244
vector 735244  Network.churner  inGoingSizeSig:vector  ETV
735244	287794 8807 11 2067 20 20.4 401 0 399 79800 21253400
vector 732253  Network.dyn_peer[3]  lookupHopsSig:vector  ETV
732253	79640 83 27 22971 20.004 25.223792430176 3 0 32 50 1348
vector 732254  Network.dyn_peer[3]  lookupStabilitySig:vector  ETV
732254	79723 111 27 22971 20.004 25.223792430176 3 0.28888887166977 1 2.1672672480345 1.8550053522397
vector 732255  Network.dyn_peer[3]  lookupTimeSig:vector  ETV
732255	79834 85 27 22971 20.004 25.223792430176 3 0 3.3 5.2 14.5
vector 732277  Network.dyn_peer[11]  lookupHopsSig:vector  ETV
732277	83530 103 56 15057 20.012 23.226303458073 4 0 18 29 385
vector 732278  Network.dyn_peer[11]  lookupStabilitySig:vector  ETV
732278	83633 120 56 15057 20.012 23.226303458073 4 0 1 2.103658542037 1.7912329063928
vector 732279  Network.dyn_peer[11]  lookupTimeSig:vector  ETV
732279	83753 108 56 15057 20.012 23.226303458073 4 0 1.9 3.2 4.46
vector 732295  Network.dyn_peer[17]  lookupHopsSig:vector  ETV
732295	85742 172 79 26975 20.018 26.663349462797 6 0 18 46 610
vector 732296  Network.dyn_peer[17]  lookupStabilitySig:vector  ETV
732296	85914 245 79 26975 20.018 26.663349462797 6 -0.20000004768372 1 3.9292854052037 3.6945943599033
vector 732297  Network.dyn_peer[17]  lookupTimeSig:vector  ETV
732297	86159 180 79 26975 20.018 26.663349462797 6 0 1.9 5.1 7.07
vector 732307  Network.dyn_peer[21]  lookupHopsSig:vector  ETV
732307	87699 132 96 16409 20.022 23.535262262114 5 0 25 31 643
vector 732308  Network.dyn_peer[21]  lookupStabilitySig:vector  ETV
732308	87831 190 96 16409 20.022 23.535262262114 5 0.3243243098259 1 3.8528957292438 3.2474311404364
vector 732309  Network.dyn_peer[21]  lookupTimeSig:vector  ETV
732309	88021 139 96 16409 20.022 23.535262262114 5 0 2.6 3.5 7.09
vector 732319  Network.dyn_peer[25]  lookupHopsSig:vector  ETV
732319	89189 167 114 25990 20.026 26.244806771277 6 0 16 51 679
vector 732320  Network.dyn_peer[25]  lookupStabilitySig:vector  ETV
732320	89356 228 114 25990 20.026 26.244806771277 6 -0.29999995231628 1 3.8347780555487 3.6080805117689
vector 732321  Network.dyn_peer[25]  lookupTimeSig:vector  ETV
732321	89584 174 114 25990 20.026 26.244806771277 6 0 1.7 5.6 7.86
vector 732328  Network.dyn_peer[28]  lookupHopsSig:vector  ETV
732328	90739 134 129 18967 20.029 24.145825159409 5 0 27 37 775
vector 732329  Network.dyn_peer[28]  lookupStabilitySig:vector  ETV
732329	90873 183 129 18967 20.029 24.145825159409 5 0.39999997615814 1 3.5669117346406 2.8552124485033
vector 732330  Network.dyn_peer[28]  lookupTimeSig:vector  ETV
732330	91056 141 129 18967 20.029 24.145825159409 5 0 2.8 4.1 8.53
vector 732337  Network.dyn_peer[31]  lookupHopsSig:vector  ETV
732337	92512 104 142 18550 20.032 24.044023751404 4 0 19 37 555
vector 732338  Network.dyn_peer[31]  lookupStabilitySig:vector  ETV
732338	92616 137 142 18550 20.032 24.044023751404 4 -0.625 1 1.7773507982492 2.3807209206896
vector 732339  Network.dyn_peer[31]  lookupTimeSig:vector  ETV
732339	92753 106 142 18550 20.032 24.044023751404 4 0 2 4 6.32
vector 732340  Network.dyn_peer[32]  lookupHopsSig:vector  ETV
732340	92859 103 149 24009 20.033 25.542872739477 4 0 32 52 1296
vector 732341  Network.dyn_peer[32]  lookupStabilitySig:vector  ETV
732341	92962 131 149 24009 20.033 25.542872739477 4 0 1 2.0106508731842 1.6971548527534
vector 732342  Network.dyn_peer[32]  lookupTimeSig:vector  ETV
732342	93093 107 149 24009 20.033 25.542872739477 4 0 3.3 5.5 14.03
vector 732508  Network.dyn_peer[88]  lookupHopsSig:vector  ETV
732508	120535 105 321 18770 20.089 24.093059189474 4 0 24 37 661
vector 732509  Network.dyn_peer[88]  lookupStabilitySig:vector  ETV
732509	120640 148 321 18770 20.089 24.093059189474 4 0.040000021457672 1 2.8150992766023 2.5785558267789
vector 732510  Network.dyn_peer[88]  lookupTimeSig:vector  ETV
732510	120788 110 321 18770 20.089 24.093059189474 4 0 2.5 4 7.38
vector 732538  Network.dyn_peer[98]  lookupHopsSig:vector  ETV
732538	125651 83 355 21892 20.099 24.906791867094 3 0 38 46 1508
vector 732539  Network.dyn_peer[98]  lookupStabilitySig:vector  ETV
732539	125734 112 355 21892 20.099 24.906791867094 3 0.49333333969116 1 2.4317948780954 2.1240878431149
vector 732540  Network.dyn_peer[98]  lookupTimeSig:vector  ETV
732540	125846 86 355 21892 20.099 24.906791867094 3 0 3.9 4.8 16.02
vector 732544  Network.dyn_peer[100]  lookupHopsSig:vector  ETV
732544	126290 106 367 25891 20.101 26.205502129407 4 0 25 58 1194
vector 732545  Network.dyn_peer[100]  lookupStabilitySig:vector  ETV
732545	126396 148 367 25891 20.101 26.205502129407 4 -0.44444441795349 1 2.1600111275911 2.5060662462658
vector 732546  Network.dyn_peer[100]  lookupTimeSig:vector  ETV
732546	126544 109 367 25891 20.101 26.205502129407 4 0 2.6 6.1 13.13
vector 732283  Network.dyn_peer[13]  lookupHopsSig:vector  ETV
732283	84133 136 420 26223 20.114 26.33272861892 5 1 28 59 1085
vector 732284  Network.dyn_peer[13]  lookupStabilitySig:vector  ETV
732284	84269 206 420 26223 20.114 26.33272861892 5 0.24324321746826 0.9545454531908 3.8101926445961 3.2541524311364
vector 732285  Network.dyn_peer[13]  lookupTimeSig:vector  ETV
732285	84475 142 420 26223 20.114 26.33272861892 5 0.1 2.9 6.3 12.05
vector 732286  Network.dyn_peer[14]  lookupHopsSig:vector  ETV
732286	84617 107 428 26887 20.115 26.620489406545 4 1 28 63 1395
vector 732287  Network.dyn_peer[14]  lookupStabilitySig:vector  ETV
732287	84724 158 428 26887 20.115 26.620489406545 4 -0.049999952316284 0.88333333283663 2.4302083775401 2.0577875329885
vector 732288  Network.dyn_peer[14]  lookupTimeSig:vector  ETV
732288	84882 112 428 26887 20.115 26.620489406545 4 0.1 2.9 6.6 15.22
vector 732325  Network.dyn_peer[27]  lookupHopsSig:vector  ETV
732325	90143 166 489 24322 20.128 25.641330244728 6 1 25 51 871
vector 732326  Network.dyn_peer[27]  lookupStabilitySig:vector  ETV
732326	90309 254 489 24322 20.128 25.641330244728 6 0.34210526943207 0.98484848439693 4.3657826967537 3.5819679098915
vector 732327  Network.dyn_peer[27]  lookupTimeSig:vector  ETV
732327	90563 176 489 24322 20.128 25.641330244728 6 0.1 2.6 5.6 9.76
vector 732370  Network.dyn_peer[42]  lookupHopsSig:vector  ETV
732370	97516 104 553 24343 20.143 25.646480771722 4 1 29 45 1039
vector 732371  Network.dyn_peer[42]  lookupStabilitySig:vector  ETV
732371	97620 163 553 24343 20.143 25.646480771722 4 -0.39999997615814 0.83798882365227 2.0379888415337 2.1422252399559
vector 732372  Network.dyn_peer[42]  lookupTimeSig:vector  ETV
732372	97783 108 553 24343 20.143 25.646480771722 4 0.1 3 4.8 11.3
vector 732694  Network.dyn_peer[150]  lookupHopsSig:vector  ETV
732694	152002 114 591 26270 20.151 26.354800608733 4 0 31 59 1403
vector 732695  Network.dyn_peer[150]  lookupStabilitySig:vector  ETV
732695	152116 148 591 26270 20.151 26.354800608733 4 -0.1875 1 2.4427173137665 2.3681700564133
vector 732696  Network.dyn_peer[150]  lookupTimeSig:vector  ETV
732696	152264 114 591 26270 20.151 26.354800608733 4 0 3.2 6.2 15.24
vector 732433  Network.dyn_peer[63]  lookupHopsSig:vector  ETV
732433	110184 134 647 20317 20.164 24.476287900675 5 1 17 40 456
vector 732434  Network.dyn_peer[63]  lookupStabilitySig:vector  ETV
732434	110318 183 647 20317 20.164 24.476287900675 5 -0.5 0.94059405848384 2.4830183051527 2.5759109445537
vector 732435  Network.dyn_peer[63]  lookupTimeSig:vector  ETV
732435	110501 141 647 20317 20.164 24.476287900675 5 0.1 1.8 4.4 5.38
vector 732445  Network.dyn_peer[67]  lookupHopsSig:vector  ETV
732445	111483 295 667 31856 20.168 30.500187502881 10 1 21 95 1309
vector 732446  Network.dyn_peer[67]  lookupStabilitySig:vector  ETV
732446	111778 441 667 31856 20.168 30.500187502881 10 0.045454561710358 0.99687499995343 8.4435986157041 7.8844809069154
vector 732447  Network.dyn_peer[67]  lookupTimeSig:vector  ETV
732447	112219 306 667 31856 20.168 30.500187502881 10 0.1 2.2 10.4 15.06
vector 732460  Network.dyn_peer[72]  lookupHopsSig:vector  ETV
732460	113919 75 691 21418 20.173 24.774411704982 3 1 26 45 1001
vector 732461  Network.dyn_peer[72]  lookupStabilitySig:vector  ETV
732461	113994 108 691 21418 20.173 24.774411704982 3 0.1875 0.85123966634274 1.8387396633625 1.3997652147869
vector 732462  Network.dyn_peer[72]  lookupTimeSig:vector  ETV
732462	114102 79 691 21418 20.173 24.774411704982 3 0.1 2.7 4.7 10.91
vector 732490  Network.dyn_peer[82]  lookupHopsSig:vector  ETV
732490	118031 169 735 29734 20.183 28.207094970672 6 1 30 76 1530
vector 732491  Network.dyn_peer[82]  lookupStabilitySig:vector  ETV
732491	118200 255 735 29734 20.183 28.207094970672 6 0.30232560634613 0.9800664447248 4.8794055338949 4.3051138842163
vector 732492  Network.dyn_peer[82]  lookupTimeSig:vector  ETV
732492	118455 176 735 29734 20.183 28.207094970672 6 0.1 3.1 8.1 16.85
vector 732517  Network.dyn_peer[91]  lookupHopsSig:vector  ETV
732517	121432 138 775 28286 20.192 27.305401680063 5 1 34 68 1634
vector 732518  Network.dyn_peer[91]  lookupStabilitySig:vector  ETV
732518	121570 209 775 28286 20.192 27.305401680063 5 0.4603174328804 0.97402597405016 4.081344479695 3.5063713251529
vector 732519  Network.dyn_peer[91]  lookupTimeSig:vector  ETV
732519	121779 143 775 28286 20.192 27.305401680063 5 0.1 3.5 7.2 17.72
vector 732244  Network.dyn_peer[0]  lookupHopsSig:vector  ETV
732244	78927 43 816 10842 20.201 22.301 2 2 20 22 404
vector 732245  Network.dyn_peer[0]  lookupStabilitySig:vector  ETV
732245	78970 74 816 10842 20.201 22.301 2 -0.052631616592407 0.59999999403954 0.54736837744713 0.36277007991258
vector 732246  Network.dyn_peer[0]  lookupTimeSig:vector  ETV
732246	79044 46 816 10842 20.201 22.301 2 0.2 2.1 2.3 4.45
vector 732259  Network.dyn_peer[5]  lookupHopsSig:vector  ETV
732259	80524 145 844 23342 20.206 25.329855864217 5 2 17 46 554
vector 732260  Network.dyn_peer[5]  lookupStabilitySig:vector  ETV
732260	80669 219 844 23342 20.206 25.329855864217 5 -0.21428573131561 0.94230769202113 2.9907785467803 2.6979178383856
vector 732261  Network.dyn_peer[5]  lookupTimeSig:vector  ETV
732261	80888 151 844 23342 20.206 25.329855864217 5 0.2 1.8 5 6.46
vector 732562  Network.dyn_peer[106]  lookupHopsSig:vector  ETV
732562	129118 106 853 27302 20.207 26.813544545052 4 1 25 64 1350
vector 732563  Network.dyn_peer[106]  lookupStabilitySig:vector  ETV
732563	129224 164 853 27302 20.207 26.813544545052 4 -0.28571426868439 0.91935484111309 2.2143423259258 2.1763411950064
vector 732564  Network.dyn_peer[106]  lookupTimeSig:vector  ETV
732564	129388 111 853 27302 20.207 26.813544545052 4 0.1 2.6 6.7 14.79
vector 732877  Network.dyn_peer[211]  lookupHopsSig:vector  ETV
732877	185542 135 885 18914 20.212 24.132525686199 5 0 20 35 481
vector 732878  Network.dyn_peer[211]  lookupStabilitySig:vector  ETV
732878	185677 179 885 18914 20.212 24.132525686199 5 0 1 3.6928571350873 3.4220011202721
vector 732879  Network.dyn_peer[211]  lookupTimeSig:vector  ETV
732879	185856 142 885 18914 20.212 24.132525686199 5 0 2.1 3.9 5.55
vector 732280  Network.dyn_peer[12]  lookupHopsSig:vector  ETV
732280	83861 75 892 20050 20.213 24.416891791063 3 2 30 42 1004
vector 732281  Network.dyn_peer[12]  lookupStabilitySig:vector  ETV
732281	83936 118 892 20050 20.213 24.416891791063 3 0.31818181276321 0.89795918017626 1.816140986979 1.2675703480836
vector 732282  Network.dyn_peer[12]  lookupTimeSig:vector  ETV
732282	84054 79 892 20050 20.213 24.416891791063 3 0.2 3.1 4.4 10.86
vector 732589  Network.dyn_peer[115]  lookupHopsSig:vector  ETV
732589	133570 42 911 9996 20.216 22.116 2 1 18 19 325
vector 732590  Network.dyn_peer[115]  lookupStabilitySig:vector  ETV
732590	133612 72 911 9996 20.216 22.116 2 -0.28571426868439 0.79999999701977 0.51428572833538 0.72163263856149
vector 732591  Network.dyn_peer[115]  lookupTimeSig:vector  ETV
732591	133684 45 911 9996 20.216 22.116 2 0.1 1.9 2 3.62
vector 732889  Network.dyn_peer[215]  lookupHopsSig:vector  ETV
732889	188139 166 917 30209 20.216 28.595496977343 6 0 30 59 1123
vector 732890  Network.dyn_peer[215]  lookupStabilitySig:vector  ETV
732890	188305 224 917 30209 20.216 28.595496977343 6 0 1 3.8417280726135 3.2785136156991
vector 732891  Network.dyn_peer[215]  lookupTimeSig:vector  ETV
732891	188529 174 917 30209 20.216 28.595496977343 6 0 3.1 6.4 12.46
vector 732643  Network.dyn_peer[133]  lookupHopsSig:vector  ETV
732643	142184 76 1017 25461 20.234 26.042680288786 3 1 39 57 1811
vector 732644  Network.dyn_peer[133]  lookupStabilitySig:vector  ETV
732644	142260 119 1017 25461 20.234 26.042680288786 3 0.56179773807526 0.91584158688784 2.2776393219829 1.7943825060113
vector 732645  Network.dyn_peer[133]  lookupTimeSig:vector  ETV
732645	142379 78 1017 25461 20.234 26.042680288786 3 0.1 4 5.9 19.25
vector 732667  Network.dyn_peer[141]  lookupHopsSig:vector  ETV
732667	146310 226 1061 27965 20.242 27.14022442569 8 1 16 60 584
vector 732668  Network.dyn_peer[141]  lookupStabilitySig:vector  ETV
732668	146536 346 1061 27965 20.242 27.14022442569 8 -0.33333337306976 0.94478527456522 5.3233662880957 4.8970239781008
vector 732669  Network.dyn_peer[141]  lookupTimeSig:vector  ETV
732669	146882 237 1061 27965 20.242 27.14022442569 8 0.1 1.7 6.7 7.09
vector 732379  Network.dyn_peer[45]  lookupHopsSig:vector  ETV
732379	98864 384 1085 32775 20.246 32.697381574268 13 2 23 114 1520
vector 732380  Network.dyn_peer[45]  lookupStabilitySig:vector  ETV
732380	99248 566 1085 32775 20.246 32.697381574268 13 -0.1875 0.98963730596006 10.960205045529 10.541573232153
vector 732381  Network.dyn_peer[45]  lookupTimeSig:vector  ETV
732381	99814 405 1085 32775 20.246 32.697381574268 13 0.2 2.4 12.6 17.56
vector 732724  Network.dyn_peer[160]  lookupHopsSig:vector  ETV
732724	157256 85 1165 17438 20.261 23.775361765154 3 1 19 32 506
vector 732725  Network.dyn_peer[160]  lookupStabilitySig:vector  ETV
732725	157341 119 1165 17438 20.261 23.775361765154 3 -0.1875 0.81818181276321 1.430681809783 1.3445777239681
vector 732726  Network.dyn_peer[160]  lookupTimeSig:vector  ETV
732726	157460 87 1165 17438 20.261 23.775361765154 3 0.1 2 3.4 5.7
vector 732436  Network.dyn_peer[64]  lookupHopsSig:vector  ETV
732436	110642 76 1190 17825 20.265 23.867776931927 3 2 20 36 600
vector 732437  Network.dyn_peer[64]  lookupStabilitySig:vector  ETV
732437	110718 120 1190 17825 20.265 23.867776931927 3 0.090909063816071 0.79710145294666 1.4880105108023 1.003635177021
vector 732438  Network.dyn_peer[64]  lookupTimeSig:vector  ETV
732438	110838 80 1190 17825 20.265 23.867776931927 3 0.2 2.1 3.8 6.7
vector 732469  Network.dyn_peer[75]  lookupHopsSig:vector  ETV
732469	114928 140 1250 28256 20.276 27.292848606612 5 2 20 68 1134
vector 732470  Network.dyn_peer[75]  lookupStabilitySig:vector  ETV
732470	115068 210 1250 28256 20.276 27.292848606612 5 0.13043481111526 0.9431818164885 3.4134407304227 2.7882373632386
vector 732471  Network.dyn_peer[75]  lookupTimeSig:vector  ETV
732471	115278 144 1250 28256 20.276 27.292848606612 5 0.2 2.1 7.2 12.7
vector 732511  Network.dyn_peer[89]  lookupHopsSig:vector  ETV
732511	120898 42 1324 13089 20.29 22.79 2 2 24 26 580
vector 732512  Network.dyn_peer[89]  lookupStabilitySig:vector  ETV
732512	120940 71 1324 13089 20.29 22.79 2 0.11111110448837 0.59999999403954 0.71111109852791 0.37234567038807
vector 732513  Network.dyn_peer[89]  lookupTimeSig:vector  ETV
732513	121011 45 1324 13089 20.29 22.79 2 0.2 2.5 2.7 6.29
vector 732820  Network.dyn_peer[192]  lookupHopsSig:vector  ETV
732820	173510 75 1343 14040 20.293 22.995221426484 3 1 21 26 458
vector 732821  Network.dyn_peer[192]  lookupStabilitySig:vector  ETV
732821	173585 108 1343 14040 20.293 22.995221426484 3 0.125 0.88571428507566 1.8107142820954 1.4401147900187
vector 732822  Network.dyn_peer[192]  lookupTimeSig:vector  ETV
732822	173693 80 1343 14040 20.293 22.995221426484 3 0.1 2.2 2.8 5.1
vector 732841  Network.dyn_peer[199]  lookupHopsSig:vector  ETV
732841	178929 71 1381 20430 20.3 24.504849361034 3 1 29 41 963
vector 732842  Network.dyn_peer[199]  lookupStabilitySig:vector  ETV
732842	179000 115 1381 20430 20.3 24.504849361034 3 -0.22222220897675 0.79999999701977 1.2962244004011 1.205548240203
vector 732843  Network.dyn_peer[199]  lookupTimeSig:vector  ETV
732843	179115 73 1381 20430 20.3 24.504849361034 3 0.1 3 4.3 10.45
vector 732247  Network.dyn_peer[1]  lookupHopsSig:vector  ETV
732247	79090 108 1398 26158 20.302 26.304683548482 4 3 27 60 1206
vector 732248  Network.dyn_peer[1]  lookupStabilitySig:vector  ETV
732248	79198 164 1398 26158 20.302 26.304683548482 4 0.28947371244431 0.94470046088099 2.5027872882783 1.8907427567987
vector 732249  Network.dyn_peer[1]  lookupTimeSig:vector  ETV
732249	79362 113 1398 26158 20.302 26.304683548482 4 0.3 2.8 6.3 13.23
vector 732256  Network.dyn_peer[4]  lookupHopsSig:vector  ETV
732256	79919 170 1419 28831 20.305 27.630193573376 6 3 27 71 1227
vector 732257  Network.dyn_peer[4]  lookupStabilitySig:vector  ETV
732257	80089 256 1419 28831 20.305 27.630193573376 6 0.28947371244431 0.96441281214356 4.4237998537719 3.7327941999841
vector 732258  Network.dyn_peer[4]  lookupTimeSig:vector  ETV
732258	80345 179 1419 28831 20.305 27.630193573376 6 0.3 2.8 7.6 13.68
vector 732574  Network.dyn_peer[110]  lookupHopsSig:vector  ETV
732574	131403 85 1459 19149 20.311 24.193043903873 3 2 24 38 724
vector 732575  Network.dyn_peer[110]  lookupStabilitySig:vector  ETV
732575	131488 128 1459 19149 20.311 24.193043903873 3 0.14285713434219 0.86206896603107 1.6049260944128 1.1235710558738
vector 732576  Network.dyn_peer[110]  lookupTimeSig:vector  ETV
732576	131616 89 1459 19149 20.311 24.193043903873 3 0.2 2.5 4 7.98
vector 732583  Network.dyn_peer[113]  lookupHopsSig:vector  ETV
732583	132916 136 1481 26673 20.314 26.526636194657 5 2 26 60 1066
vector 732584  Network.dyn_peer[113]  lookupStabilitySig:vector  ETV
732584	133052 210 1481 26673 20.314 26.526636194657 5 -0.28571426868439 0.96995708160102 2.8547058459371 2.6480557703541
vector 732585  Network.dyn_peer[113]  lookupTimeSig:vector  ETV
732585	133262 142 1481 26673 20.314 26.526636194657 5 0.2 2.7 6.4 11.86
vector 732298  Network.dyn_peer[18]  lookupHopsSig:vector  ETV
732298	86339 135 1517 23386 20.319 25.341979901 5 1 19 49 759
vector 732299  Network.dyn_peer[18]  lookupStabilitySig:vector  ETV
732299	86474 208 1517 23386 20.319 25.341979901 5 0.050000011920929 0.9936305731535 3.1858278177679 2.6781865557433
vector 732300  Network.dyn_peer[18]  lookupTimeSig:vector  ETV
732300	86682 141 1517 23386 20.319 25.341979901 5 0.2 2 5.3 8.55
vector 732352  Network.dyn_peer[36]  lookupHopsSig:vector  ETV
732352	95217 75 1635 18440 20.337 24.016983947304 3 3 24 37 685
vector 732353  Network.dyn_peer[36]  lookupStabilitySig:vector  ETV
732353	95292 107 1635 18440 20.337 24.016983947304 3 -0.25 0.68831169605255 0.83831167221069 0.69627297184925
vector 732354  Network.dyn_peer[36]  lookupTimeSig:vector  ETV
732354	95399 79 1635 18440 20.337 24.016983947304 3 0.3 2.5 3.9 7.55
vector 732361  Network.dyn_peer[39]  lookupHopsSig:vector  ETV
732361	95944 166 1657 29507 20.34 28.064322303736 6 3 27 75 1407
vector 732362  Network.dyn_peer[39]  lookupStabilitySig:vector  ETV
732362	96110 253 1657 29507 20.34 28.064322303736 6 0.39999997615814 0.93127147853374 4.1076722219586 3.1757182364656
vector 732363  Network.dyn_peer[39]  lookupTimeSig:vector  ETV
732363	96363 175 1657 29507 20.34 28.064322303736 6 0.3 2.8 8 15.56
vector 732382  Network.dyn_peer[46]  lookupHopsSig:vector  ETV
732382	100219 137 1705 20634 20.347 24.561422327371 5 3 11 41 379
vector 732383  Network.dyn_peer[46]  lookupStabilitySig:vector  ETV
732383	100356 210 1705 20634 20.347 24.561422327371 5 -0.16666662693024 0.90384615212679 2.4172915145755 1.877762838093
vector 732384  Network.dyn_peer[46]  lookupTimeSig:vector  ETV
732384	100566 144 1705 20634 20.347 24.561422327371 5 0.3 1.2 4.5 4.59
vector 732988  Network.dyn_peer[248]  lookupHopsSig:vector  ETV
732988	207443 74 1721 16046 20.349 23.452957471563 3 1 20 30 482
vector 732989  Network.dyn_peer[248]  lookupStabilitySig:vector  ETV
732989	207517 119 1721 16046 20.349 23.452957471563 3 -0.28571426868439 0.79999999701977 1.1061224490404 1.0719033425364
vector 732990  Network.dyn_peer[248]  lookupTimeSig:vector  ETV
732990	207636 77 1721 16046 20.349 23.452957471563 3 0.1 2.1 3.2 5.42
vector 733294  Network.dyn_peer[350]  lookupHopsSig:vector  ETV
733294	260032 44 1738 19783 20.351 24.351 2 0 39 39 1521
vector 733295  Network.dyn_peer[350]  lookupStabilitySig:vector  ETV
733295	260076 49 1738 19783 20.351 24.351 2 0.59375 1 1.59375 1.3525390625
vector 733296  Network.dyn_peer[350]  lookupTimeSig:vector  ETV
733296	260125 43 1738 19783 20.351 24.351 2 0 4 4 16
vector 732412  Network.dyn_peer[56]  lookupHopsSig:vector  ETV
732412	106351 170 1778 29398 20.357 27.987912644635 6 3 18 70 978
vector 732413  Network.dyn_peer[56]  lookupStabilitySig:vector  ETV
732413	106521 257 1778 29398 20.357 27.987912644635 6 -0.14285719394684 0.93793103471398 3.4336269311607 2.8133063200178
vector 732414  Network.dyn_peer[56]  lookupTimeSig:vector  ETV
732414	106778 178 1778 29398 20.357 27.987912644635 6 0.3 1.9 7.5 11.17
vector 732736  Network.dyn_peer[164]  lookupHopsSig:vector  ETV
732736	159223 265 1829 32546 20.365 31.890969602823 9 2 28 109 1767
vector 732737  Network.dyn_peer[164]  lookupStabilitySig:vector  ETV
732737	159488 394 1829 32546 20.365 31.890969602823 9 -0.14285719394684 0.96901408396661 6.9378762152046 6.4040803417788
vector 732738  Network.dyn_peer[164]  lookupTimeSig:vector  ETV
732738	159882 276 1829 32546 20.365 31.890969602823 9 0.2 2.9 11.7 19.89
vector 732448  Network.dyn_peer[68]  lookupHopsSig:vector  ETV
732448	112525 74 1857 17025 20.369 23.674036632902 3 1 30 34 910
vector 732449  Network.dyn_peer[68]  lookupStabilitySig:vector  ETV
732449	112599 118 1857 17025 20.369 23.674036632902 3 0.39999997615814 0.79999999701977 1.7161290198564 1.0663891689834
vector 732450  Network.dyn_peer[68]  lookupTimeSig:vector  ETV
732450	112717 79 1857 17025 20.369 23.674036632902 3 0.2 3.1 3.6 9.74
vector 733348  Network.dyn_peer[368]  lookupHopsSig:vector  ETV
733348	270191 169 1863 26501 20.369 26.454433055598 6 0 18 46 570
vector 733349  Network.dyn_peer[368]  lookupStabilitySig:vector  ETV
733349	270360 232 1863 26501 20.369 26.454433055598 6 -0.125 1 4.6698693195358 4.62040934712
vector 733350  Network.dyn_peer[368]  lookupTimeSig:vector  ETV
733350	270592 175 1863 26501 20.369 26.454433055598 6 0 1.9 5.1 6.67
vector 732481  Network.dyn_peer[79]  lookupHopsSig:vector  ETV
732481	116691 104 1932 21494 20.38 24.794016760498 4 3 19 44 662
vector 732482  Network.dyn_peer[79]  lookupStabilitySig:vector  ETV
732482	116795 163 1932 21494 20.38 24.794016760498 4 -0.20000004768372 0.84426230192184 1.4288775920868 1.0607078108947
vector 732483  Network.dyn_peer[79]  lookupTimeSig:vector  ETV
732483	116958 108 1932 21494 20.38 24.794016760498 4 0.3 2 4.7 7.47
vector 732514  Network.dyn_peer[90]  lookupHopsSig:vector  ETV
732514	121056 107 2002 23594 20.391 25.408397398529 4 3 16 50 746
vector 732515  Network.dyn_peer[90]  lookupStabilitySig:vector  ETV
732515	121163 157 2002 23594 20.391 25.408397398529 4 -0.14285719394684 0.90123456716537 1.9240023493767 1.5788135444676
vector 732516  Network.dyn_peer[90]  lookupTimeSig:vector  ETV
732516	121320 112 2002 23594 20.391 25.408397398529 4 0.3 1.7 5.3 8.43
vector 732817  Network.dyn_peer[191]  lookupHopsSig:vector  ETV
732817	173236 76 2012 25060 20.392 25.893237182214 3 2 31 55 1449
vector 732818  Network.dyn_peer[191]  lookupStabilitySig:vector  ETV
732818	173312 118 2012 25060 20.392 25.893237182214 3 0.12000000476837 0.8393782377243 1.5593782365322 1.078955819957
vector 732819  Network.dyn_peer[191]  lookupTimeSig:vector  ETV
732819	173430 80 2012 25060 20.392 25.893237182214 3 0.2 3.2 5.7 15.57
vector 733123  Network.dyn_peer[293]  lookupHopsSig:vector  ETV
733123	230160 136 2028 25558 20.394 26.078277567971 5 1 24 52 988
vector 733124  Network.dyn_peer[293]  lookupStabilitySig:vector  ETV
733124	230296 194 2028 25558 20.394 26.078277567971 5 0 0.88461538404226 3.1512820348144 2.5069887993465
vector 733125  Network.dyn_peer[293]  lookupTimeSig:vector  ETV
733125	230490 142 2028 25558 20.394 26.078277567971 5 0.1 2.5 5.6 10.94
vector 733126  Network.dyn_peer[294]  lookupHopsSig:vector  ETV
733126	230632 170 2038 30709 20.395 29.065810980977 6 1 23 81 1483
vector 733127  Network.dyn_peer[294]  lookupStabilitySig:vector  ETV
733127	230802 257 2038 30709 20.395 29.065810980977 6 0.17857140302658 0.97297297231853 4.6996253151447 4.144314965129
vector 733128  Network.dyn_peer[294]  lookupTimeSig:vector  ETV
733128	231059 177 2038 30709 20.395 29.065810980977 6 0.1 2.4 8.6 16.48
vector 732271  Network.dyn_peer[9]  lookupHopsSig:vector  ETV
732271	82587 102 2113 16765 20.41 23.621112486878 4 4 20 33 457
vector 732272  Network.dyn_peer[9]  lookupStabilitySig:vector  ETV
732272	82689 148 2113 16765 20.41 23.621112486878 4 0.19999998807907 0.66666665673256 1.5666666328907 0.77444442166223
vector 732273  Network.dyn_peer[9]  lookupTimeSig:vector  ETV
732273	82837 109 2113 16765 20.41 23.621112486878 4 0.4 2.1 3.6 5.18
vector 732274  Network.dyn_peer[10]  lookupHopsSig:vector  ETV
732274	82946 167 2120 26723 20.411 26.551092143304 6 1 21 56 836
vector 732275  Network.dyn_peer[10]  lookupStabilitySig:vector  ETV
732275	83113 240 2120 26723 20.411 26.551092143304 6 0 0.96581196412444 3.5263345576823 2.8611261708434
vector 732276  Network.dyn_peer[10]  lookupTimeSig:vector  ETV
732276	83353 177 2120 26723 20.411 26.551092143304 6 0.2 2.2 6.1 9.45
vector 733174  Network.dyn_peer[310]  lookupHopsSig:vector  ETV
733174	240235 203 2124 31388 20.411 29.845302534668 7 1 31 89 1697
vector 733175  Network.dyn_peer[310]  lookupStabilitySig:vector  ETV
733175	240438 303 2124 31388 20.411 29.845302534668 7 0.47457629442215 0.98538011685014 6.0343719124794 5.4013055532025
vector 733176  Network.dyn_peer[310]  lookupTimeSig:vector  ETV
733176	240741 212 2124 31388 20.411 29.845302534668 7 0.1 3.2 9.5 18.79
vector 732313  Network.dyn_peer[23]  lookupHopsSig:vector  ETV
732313	88439 106 2182 18482 20.424 24.029124367964 4 3 21 37 547
vector 732314  Network.dyn_peer[23]  lookupStabilitySig:vector  ETV
732314	88545 165 2182 18482 20.424 24.029124367964 4 0.16000002622604 0.96103896200657 2.1734979897738 1.7158822597514
vector 732315  Network.dyn_peer[23]  lookupTimeSig:vector  ETV
732315	88710 111 2182 18482 20.424 24.029124367964 4 0.4 2.2 4 6.16
vector 732922  Network.dyn_peer[226]  lookupHopsSig:vector  ETV
732922	194844 199 2198 31471 20.427 29.948183200232 7 1 61 91 3923
vector 732923  Network.dyn_peer[226]  lookupStabilitySig:vector  ETV
732923	195043 302 2198 31471 20.427 29.948183200232 7 0.59999999403954 0.9971098266542 6.2562314430252 5.7385896033943
vector 732924  Network.dyn_peer[226]  lookupTimeSig:vector  ETV
732924	195345 210 2198 31471 20.427 29.948183200232 7 0.2 6.2 9.7 41.07
vector 732649  Network.dyn_peer[135]  lookupHopsSig:vector  ETV
732649	142842 106 2245 21285 20.436 24.741775985319 4 3 29 43 915
vector 732650  Network.dyn_peer[135]  lookupStabilitySig:vector  ETV
732650	142948 165 2245 21285 20.436 24.741775985319 4 0.39583331346512 0.96551724150777 2.6826988421381 2.0977902468196
vector 732651  Network.dyn_peer[135]  lookupTimeSig:vector  ETV
732651	143113 111 2245 21285 20.436 24.741775985319 4 0.3 3 4.6 9.98
vector 732655  Network.dyn_peer[137]  lookupHopsSig:vector  ETV
732655	143603 168 2257 23425 20.438 25.357623692175 6 3 23 47 661
vector 732656  Network.dyn_peer[137]  lookupStabilitySig:vector  ETV
732656	143771 256 2257 23425 20.438 25.357623692175 6 0.25806450843811 0.97599999979138 4.4246869999915 3.7790311785549
vector 732657  Network.dyn_peer[137]  lookupTimeSig:vector  ETV
732657	144027 179 2257 23425 20.438 25.357623692175 6 0.3 2.4 5.2 7.54
vector 732661  Network.dyn_peer[139]  lookupHopsSig:vector  ETV
732661	145030 166 2270 27809 20.44 27.067126368147 6 3 26 64 1062
vector 732662  Network.dyn_peer[139]  lookupStabilitySig:vector  ETV
732662	145196 253 2270 27809 20.44 27.067126368147 6 0.19999998807907 0.93814432993531 3.4759961329401 2.5368861638969
vector 732663  Network.dyn_peer[139]  lookupTimeSig:vector  ETV
732663	145449 175 2270 27809 20.44 27.067126368147 6 0.3 2.7 6.9 11.89
vector 732673  Network.dyn_peer[143]  lookupHopsSig:vector  ETV
732673	147606 293 2289 32223 20.444 31.095741590185 10 3 23 100 1340
vector 732674  Network.dyn_peer[143]  lookupStabilitySig:vector  ETV
732674	147899 401 2289 32223 20.444 31.095741590185 10 0 0.98907103855163 7.4437436340377 6.5479032282439
vector 732675  Network.dyn_peer[143]  lookupTimeSig:vector  ETV
732675	148300 307 2289 32223 20.444 31.095741590185 10 0.3 2.4 10.9 15.43
vector 732397  Network.dyn_peer[51]  lookupHopsSig:vector  ETV
732397	102781 107 2325 21722 20.452 24.861926109932 4 4 20 45 661
vector 732398  Network.dyn_peer[51]  lookupStabilitySig:vector  ETV
732398	102888 165 2325 21722 20.452 24.861926109932 4 0.19999998807907 0.94399999827147 2.171160466969 1.6553304676178
vector 732399  Network.dyn_peer[51]  lookupTimeSig:vector  ETV
732399	103053 113 2325 21722 20.452 24.861926109932 4 0.4 2.1 4.8 7.46
vector 733000  Network.dyn_peer[252]  lookupHopsSig:vector  ETV
733000	209147 106 2335 22100 20.453 24.966524544015 4 2 28 44 894
vector 733001  Network.dyn_peer[252]  lookupStabilitySig:vector  ETV
733001	209253 165 2335 22100 20.453 24.966524544015 4 0.39130437374115 0.93233082443476 2.8541907444596 2.2482935077601
vector 733002  Network.dyn_peer[252]  lookupTimeSig:vector  ETV