version 2
run Stability2-6-20130526-00:51:08-26640
attr configname Stability2
attr datetime 20130526-00:51:08
attr experiment Stability2
attr inifile omnetpp.ini
attr iterationvars $0=10
attr iterationvars2 "$0=10, $repetition=6"
attr measurement $0=10
attr network Network
attr processid 26640
attr repetition 6
attr replication #6
attr resultdir results
attr runnumber 6
attr seedset 6

vector 21006  Network.churner  inGoingSizeSig:vector  ETV
vector 18006  Network.dyn_peer[0]  lookupHopsSig:vector  ETV
vector 18007  Network.dyn_peer[0]  lookupStabilitySig:vector  ETV
vector 18008  Network.dyn_peer[0]  lookupTimeSig:vector  ETV
vector 18021  Network.dyn_peer[5]  lookupHopsSig:vector  ETV
vector 18022  Network.dyn_peer[5]  lookupStabilitySig:vector  ETV
vector 18023  Network.dyn_peer[5]  lookupTimeSig:vector  ETV
vector 18027  Network.dyn_peer[7]  lookupHopsSig:vector  ETV
vector 18028  Network.dyn_peer[7]  lookupStabilitySig:vector  ETV
vector 18029  Network.dyn_peer[7]  lookupTimeSig:vector  ETV
vector 18012  Network.dyn_peer[2]  lookupHopsSig:vector  ETV
vector 18013  Network.dyn_peer[2]  lookupStabilitySig:vector  ETV
vector 18014  Network.dyn_peer[2]  lookupTimeSig:vector  ETV
vector 18015  Network.dyn_peer[3]  lookupHopsSig:vector  ETV
vector 18016  Network.dyn_peer[3]  lookupStabilitySig:vector  ETV
vector 18017  Network.dyn_peer[3]  lookupTimeSig:vector  ETV
vector 18018  Network.dyn_peer[4]  lookupHopsSig:vector  ETV
vector 18019  Network.dyn_peer[4]  lookupStabilitySig:vector  ETV
vector 18020  Network.dyn_peer[4]  lookupTimeSig:vector  ETV
vector 18024  Network.dyn_peer[6]  lookupHopsSig:vector  ETV
vector 18025  Network.dyn_peer[6]  lookupStabilitySig:vector  ETV
vector 18026  Network.dyn_peer[6]  lookupTimeSig:vector  ETV
vector 18030  Network.dyn_peer[8]  lookupHopsSig:vector  ETV
vector 18031  Network.dyn_peer[8]  lookupStabilitySig:vector  ETV
vector 18032  Network.dyn_peer[8]  lookupTimeSig:vector  ETV
vector 18033  Network.dyn_peer[9]  lookupHopsSig:vector  ETV
vector 18034  Network.dyn_peer[9]  lookupStabilitySig:vector  ETV
vector 18035  Network.dyn_peer[9]  lookupTimeSig:vector  ETV
vector 18009  Network.dyn_peer[1]  lookupHopsSig:vector  ETV
vector 18010  Network.dyn_peer[1]  lookupStabilitySig:vector  ETV
vector 18011  Network.dyn_peer[1]  lookupTimeSig:vector  ETV
18006	44	20.101	1
18006	107	20.301	1
18006	152	20.50446418468	1
18006	215	20.807925297069	2
18007	44	20.101	0.79999999701977
18007	107	20.301	0.79999999701977
18007	152	20.50446418468	0.79999999701977
18007	215	20.807925297069	0.71428570151329
18008	44	20.101	0.1
18008	107	20.301	0.2
18008	152	20.50446418468	0.2
18008	215	20.807925297069	0.3
18009	112	20.302	3
18009	220	20.810353367578	4
18010	112	20.302	0.39999997615814
18010	220	20.810353367578	0.5
18011	112	20.302	0.3
18011	220	20.810353367578	0.5
18012	74	20.203	2
18012	183	20.612888679119	3
18012	228	20.822946995715	1
18012	261	21.129349940311	2
18013	74	20.203	0.59999999403954
18013	183	20.612888679119	0.39999997615814
18013	228	20.822946995715	0.88888888806105
18013	261	21.129349940311	0.84615384042263
18014	74	20.203	0.2
18014	183	20.612888679119	0.4
18014	228	20.822946995715	0.2
18014	261	21.129349940311	0.3
18015	79	20.204	2
18015	172	20.604	3
18016	79	20.204	0.59999999403954
18016	172	20.604	0.39999997615814
18017	79	20.204	0.2
18017	172	20.604	0.4
18018	84	20.205	2
18018	194	20.705	4
18018	251	21.008879207835	2
18019	84	20.205	0.59999999403954
18019	194	20.705	0.33333331346512
18019	251	21.008879207835	0.81818181276321
18020	84	20.205	0.2
18020	194	20.705	0.5
18020	251	21.008879207835	0.3
18021	55	20.106	1
18021	136	20.406	2
18021	213	20.806457126013	3
18022	55	20.106	0.79999999701977
18022	136	20.406	0.59999999403954
18022	213	20.806457126013	0.5
18023	55	20.106	0.1
18023	136	20.406	0.3
18023	213	20.806457126013	0.4
18024	91	20.207	2
18024	177	20.607	3
18024	242	20.913807951591	2
18024	264	21.224566334727	2
18025	91	20.207	0.59999999403954
18025	177	20.607	0.39999997615814
18025	242	20.913807951591	0.81818181276321
18025	264	21.224566334727	0.85714285075665
18026	91	20.207	0.2
18026	177	20.607	0.4
18026	242	20.913807951591	0.3
18026	264	21.224566334727	0.3
18027	61	20.108	1
18027	159	20.508	3
18027	217	20.808549701822	2
18028	61	20.108	0.79999999701977
18028	159	20.508	0.39999997615814
18028	217	20.808549701822	0.71428570151329
18029	61	20.108	0.1
18029	159	20.508	0.4
18029	217	20.808549701822	0.3
18030	97	20.209	2
18030	141	20.409	1
18030	240	20.912852409534	4
18030	258	21.126092916738	1
18031	97	20.209	0.59999999403954
18031	141	20.409	0.79999999701977
18031	240	20.912852409534	0.63636362552643
18031	258	21.126092916738	0.91666666418314
18032	97	20.209	0.2
18032	141	20.409	0.2
18032	240	20.912852409534	0.5
18032	258	21.126092916738	0.2
18033	102	20.21	2
18033	143	20.41	1
18033	187	20.619328669209	1
18033	230	20.823937073493	1
18034	102	20.21	0.59999999403954
18034	143	20.41	0.79999999701977
18034	187	20.619328669209	0.83333332836628
18034	230	20.823937073493	0.88888888806105
18035	102	20.21	0.2
18035	143	20.41	0.2
18035	187	20.619328669209	0.2
18035	230	20.823937073493	0.2
21006	9	20	0
21006	10	20.001	0
21006	13	20.002	1
21006	16	20.003	2
21006	19	20.004	3
21006	22	20.005	4
21006	25	20.006	5
21006	28	20.007	6
21006	31	20.008	7
21006	34	20.009	8
21006	37	20.01	9
