file 66695 1369674128                                           
version 2
run Stability2-170-20130526-00:52:02-26640
attr configname Stability2
attr datetime 20130526-00:52:02
attr experiment Stability2
attr inifile omnetpp.ini
attr iterationvars $0=100
attr iterationvars2 "$0=100, $repetition=20"
attr measurement $0=100
attr network Network
attr processid 26640
attr repetition 20
attr replication #20
attr resultdir results
attr runnumber 170
attr seedset 170
vector 513170  Network.churner  inGoingSizeSig:vector  ETV
513170	64625 2070 10 349 20 20.1 101 0 99 4950 328350
vector 510170  Network.dyn_peer[0]  lookupHopsSig:vector  ETV
510170	19830 101 17 3512 20.001 22.611374637104 4 0 10 23 189
vector 510171  Network.dyn_peer[0]  lookupStabilitySig:vector  ETV
510171	19931 130 17 3512 20.001 22.611374637104 4 0 1 2.0727272480726 1.7143801486985
vector 510172  Network.dyn_peer[0]  lookupTimeSig:vector  ETV
510172	20061 106 17 3512 20.001 22.611374637104 4 0 1.1 2.6 2.38
vector 510182  Network.dyn_peer[4]  lookupHopsSig:vector  ETV
510182	21091 101 33 3428 20.005 22.509678984963 4 0 11 22 206
vector 510183  Network.dyn_peer[4]  lookupStabilitySig:vector  ETV
510183	21192 134 33 3428 20.005 22.509678984963 4 -0.28571426868439 1 2.1785714328289 2.1543367067162
vector 510184  Network.dyn_peer[4]  lookupTimeSig:vector  ETV
510184	21326 104 33 3428 20.005 22.509678984963 4 0 1.2 2.5 2.53
vector 510212  Network.dyn_peer[14]  lookupHopsSig:vector  ETV
510212	25057 109 67 2213 20.015 21.437884695071 4 0 5 11 45
vector 510213  Network.dyn_peer[14]  lookupStabilitySig:vector  ETV
510213	25166 154 67 2213 20.015 21.437884695071 4 0.19999998807907 1 2.2634920328856 1.7265709075909
vector 510214  Network.dyn_peer[14]  lookupTimeSig:vector  ETV
510214	25320 115 67 2213 20.015 21.437884695071 4 0 0.6 1.4 0.7
vector 510224  Network.dyn_peer[18]  lookupHopsSig:vector  ETV
510224	26450 50 83 2186 20.019 21.420688247041 2 0 13 13 169
vector 510225  Network.dyn_peer[18]  lookupStabilitySig:vector  ETV
510225	26500 54 83 2186 20.019 21.420688247041 2 -0.625 1 0.375 1.390625
vector 510226  Network.dyn_peer[18]  lookupTimeSig:vector  ETV
510226	26554 51 83 2186 20.019 21.420688247041 2 0 1.4 1.4 1.96
vector 510332  Network.dyn_peer[54]  lookupHopsSig:vector  ETV
510332	43153 110 199 2870 20.055 21.964660978583 4 0 9 16 118
vector 510333  Network.dyn_peer[54]  lookupStabilitySig:vector  ETV
510333	43263 140 199 2870 20.055 21.964660978583 4 0 1 2.3071428649128 2.0300510250747
vector 510334  Network.dyn_peer[54]  lookupTimeSig:vector  ETV
510334	43403 114 199 2870 20.055 21.964660978583 4 0 1 1.9 1.53
vector 510359  Network.dyn_peer[63]  lookupHopsSig:vector  ETV
510359	47860 101 231 2982 20.064 22.056979325478 4 0 12 16 154
vector 510360  Network.dyn_peer[63]  lookupStabilitySig:vector  ETV
510360	47961 145 231 2982 20.064 22.056979325478 4 0.39999997615814 1 2.7555555254221 2.1086419477875
vector 510361  Network.dyn_peer[63]  lookupTimeSig:vector  ETV
510361	48106 106 231 2982 20.064 22.056979325478 4 0 1.3 1.9 1.89
vector 510368  Network.dyn_peer[66]  lookupHopsSig:vector  ETV
510368	48874 102 244 3487 20.067 22.577615506243 4 0 11 22 206
vector 510369  Network.dyn_peer[66]  lookupStabilitySig:vector  ETV
510369	48976 147 244 3487 20.067 22.577615506243 4 -0.28571426868439 1 2.2040816396475 2.193252787596
vector 510370  Network.dyn_peer[66]  lookupTimeSig:vector  ETV
510370	49123 105 244 3487 20.067 22.577615506243 4 0 1.2 2.5 2.53
vector 510443  Network.dyn_peer[91]  lookupHopsSig:vector  ETV
510443	61280 101 323 2414 20.092 21.601648089601 4 0 6 12 56
vector 510444  Network.dyn_peer[91]  lookupStabilitySig:vector  ETV
510444	61381 131 323 2414 20.092 21.601648089601 4 0 1 2.3506493270397 1.9151627272795
vector 510445  Network.dyn_peer[91]  lookupTimeSig:vector  ETV
510445	61512 107 323 2414 20.092 21.601648089601 4 0 0.7 1.5 0.83
vector 510461  Network.dyn_peer[97]  lookupHopsSig:vector  ETV
510461	63665 101 345 3045 20.098 22.118464133986 4 0 10 17 125
vector 510462  Network.dyn_peer[97]  lookupStabilitySig:vector  ETV
510462	63766 134 345 3045 20.098 22.118464133986 4 -0.42857146263123 1 2.1834975033998 2.4893364007757
vector 510463  Network.dyn_peer[97]  lookupTimeSig:vector  ETV
510463	63900 106 345 3045 20.098 22.118464133986 4 0 1.1 2 1.62
vector 510179  Network.dyn_peer[3]  lookupHopsSig:vector  ETV
510179	20826 72 359 3582 20.104 22.713160375967 3 1 17 25 339
vector 510180  Network.dyn_peer[3]  lookupStabilitySig:vector  ETV
510180	20898 116 359 3582 20.104 22.713160375967 3 0.14999997615814 0.86538460850716 1.8153845816851 1.4113905087202
vector 510181  Network.dyn_peer[3]  lookupTimeSig:vector  ETV
510181	21014 77 359 3582 20.104 22.713160375967 3 0.1 1.8 2.7 3.89
vector 510191  Network.dyn_peer[7]  lookupHopsSig:vector  ETV
510191	22272 102 367 3661 20.108 22.814535660372 4 1 17 25 327
vector 510192  Network.dyn_peer[7]  lookupStabilitySig:vector  ETV
510192	22374 161 367 3661 20.108 22.814535660372 4 0.14999997615814 0.96551724150777 2.8064263053238 2.3884425395096
vector 510193  Network.dyn_peer[7]  lookupTimeSig:vector  ETV
510193	22535 109 367 3661 20.108 22.814535660372 4 0.1 1.8 2.8 3.78
vector 510218  Network.dyn_peer[16]  lookupHopsSig:vector  ETV
510218	25693 102 379 3742 20.117 22.926139785456 4 1 12 26 242
vector 510219  Network.dyn_peer[16]  lookupStabilitySig:vector  ETV
510219	25795 149 379 3742 20.117 22.926139785456 4 -0.5 0.93548387289047 2.0104838758707 2.3657550809085
vector 510220  Network.dyn_peer[16]  lookupTimeSig:vector  ETV
510220	25944 107 379 3742 20.117 22.926139785456 4 0.1 1.3 2.9 2.95
vector 510227  Network.dyn_peer[19]  lookupHopsSig:vector  ETV
510227	26605 130 386 3953 20.12 23.336527323949 5 1 10 29 235
vector 510228  Network.dyn_peer[19]  lookupStabilitySig:vector  ETV
510228	26735 205 386 3953 20.12 23.336527323949 5 -0.28571426868439 0.97142857126892 3.0855360310525 2.9627036208938
vector 510229  Network.dyn_peer[19]  lookupTimeSig:vector  ETV
510229	26940 137 386 3953 20.12 23.336527323949 5 0.1 1.1 3.3 2.95
vector 510239  Network.dyn_peer[23]  lookupHopsSig:vector  ETV
510239	28268 72 395 2692 20.124 21.827183005226 3 1 10 16 126
vector 510240  Network.dyn_peer[23]  lookupStabilitySig:vector  ETV
510240	28340 117 395 2692 20.124 21.827183005226 3 -0.42857146263123 0.79999999701977 1.0773108750582 1.3219433726827
vector 510241  Network.dyn_peer[23]  lookupTimeSig:vector  ETV
510241	28457 77 395 2692 20.124 21.827183005226 3 0.1 1.1 1.8 1.58
vector 510245  Network.dyn_peer[25]  lookupHopsSig:vector  ETV
510245	29104 42 401 3740 20.126 22.926 2 1 27 28 730
vector 510246  Network.dyn_peer[25]  lookupStabilitySig:vector  ETV
510246	29146 70 401 3740 20.126 22.926 2 0.5573770403862 0.79999999701977 1.357377037406 0.95066916038131
vector 510247  Network.dyn_peer[25]  lookupTimeSig:vector  ETV
510247	29216 45 401 3740 20.126 22.926 2 0.1 2.8 2.9 7.85
vector 510266  Network.dyn_peer[32]  lookupHopsSig:vector  ETV
510266	32961 132 413 4224 20.133 23.954426326207 5 1 21 35 519
vector 510267  Network.dyn_peer[32]  lookupStabilitySig:vector  ETV
510267	33093 206 413 4224 20.133 23.954426326207 5 0.41666668653488 0.96969696879387 4.0284940525889 3.451642889328
vector 510268  Network.dyn_peer[32]  lookupTimeSig:vector  ETV
510268	33299 141 413 4224 20.133 23.954426326207 5 0.1 2.2 3.9 5.91
vector 510284  Network.dyn_peer[38]  lookupHopsSig:vector  ETV
510284	35069 141 424 4017 20.139 23.468446622546 5 1 15 30 300
vector 510285  Network.dyn_peer[38]  lookupStabilitySig:vector  ETV
510285	35210 217 424 4017 20.139 23.468446622546 5 -0.071428537368774 0.95833333209157 3.4681414626539 3.1499549448999
vector 510286  Network.dyn_peer[38]  lookupTimeSig:vector  ETV
510286	35427 150 424 4017 20.139 23.468446622546 5 0.1 1.6 3.4 3.62
vector 510290  Network.dyn_peer[40]  lookupHopsSig:vector  ETV
510290	36084 190 430 4397 20.141 24.57377533302 7 1 14 39 331
vector 510291  Network.dyn_peer[40]  lookupStabilitySig:vector  ETV
510291	36274 295 430 4397 20.141 24.57377533302 7 -0.16666662693024 0.96511627733707 5.2599166296422 4.9599980036717
vector 510292  Network.dyn_peer[40]  lookupTimeSig:vector  ETV
510292	36569 203 430 4397 20.141 24.57377533302 7 0.1 1.5 4.5 4.13
vector 510308  Network.dyn_peer[46]  lookupHopsSig:vector  ETV
510308	39062 192 441 4723 20.147 26.467762936275 7 1 32 58 1158
vector 510309  Network.dyn_peer[46]  lookupStabilitySig:vector  ETV
510309	39254 295 441 4723 20.147 26.467762936275 7 0.55555555224419 0.95959595963359 6.0771747641265 5.4085397693259
vector 510310  Network.dyn_peer[46]  lookupTimeSig:vector  ETV
510310	39549 205 441 4723 20.147 26.467762936275 7 0.1 3.3 6.4 12.78
vector 510314  Network.dyn_peer[48]  lookupHopsSig:vector  ETV
510314	40338 102 447 3293 20.149 22.354843322241 4 1 10 20 142
vector 510315  Network.dyn_peer[48]  lookupStabilitySig:vector  ETV
510315	40440 162 447 3293 20.149 22.354843322241 4 -0.42857146263123 0.87179486453533 1.9575091004372 2.09390384303
vector 510316  Network.dyn_peer[48]  lookupTimeSig:vector  ETV
510316	40602 109 447 3293 20.149 22.354843322241 4 0.1 1.1 2.3 1.83
vector 510341  Network.dyn_peer[57]  lookupHopsSig:vector  ETV
510341	44259 101 460 3770 20.158 22.97276771211 4 1 13 26 260
vector 510342  Network.dyn_peer[57]  lookupStabilitySig:vector  ETV
510342	44360 160 460 3770 20.158 22.97276771211 4 0.35000002384186 0.85714285075665 2.4071428477764 1.6571938594507
vector 510343  Network.dyn_peer[57]  lookupTimeSig:vector  ETV
510343	44520 106 460 3770 20.158 22.97276771211 4 0.1 1.4 2.9 3.13
vector 510344  Network.dyn_peer[58]  lookupHopsSig:vector  ETV
510344	44626 51 465 2627 20.159 21.775134163556 2 1 15 16 226
vector 510345  Network.dyn_peer[58]  lookupStabilitySig:vector  ETV
510345	44677 82 465 2627 20.159 21.775134163556 2 -0.071428537368774 0.79999999701977 0.728571459651 0.64510203118227
vector 510346  Network.dyn_peer[58]  lookupTimeSig:vector  ETV
510346	44759 54 465 2627 20.159 21.775134163556 2 0.1 1.6 1.7 2.57
vector 510380  Network.dyn_peer[70]  lookupHopsSig:vector  ETV
510380	50027 131 484 2890 20.171 21.987106844491 5 1 7 15 71
vector 510381  Network.dyn_peer[70]  lookupStabilitySig:vector  ETV
510381	50158 206 484 2890 20.171 21.987106844491 5 0.19999998807907 0.92307692021132 3.1321678236127 2.4485172743084
vector 510382  Network.dyn_peer[70]  lookupTimeSig:vector  ETV
510382	50364 141 484 2890 20.171 21.987106844491 5 0.1 0.8 1.9 1.03
vector 510383  Network.dyn_peer[71]  lookupHopsSig:vector  ETV
510383	50505 71 489 2630 20.172 21.776102997295 3 1 12 15 149
vector 510384  Network.dyn_peer[71]  lookupStabilitySig:vector  ETV
510384	50576 115 489 2630 20.172 21.776102997295 3 0.14285713434219 0.79999999701977 1.5428571254015 1.0204081489115
vector 510385  Network.dyn_peer[71]  lookupTimeSig:vector  ETV
510385	50691 76 489 2630 20.172 21.776102997295 3 0.1 1.3 1.7 1.79
vector 510431  Network.dyn_peer[87]  lookupHopsSig:vector  ETV
510431	59483 191 510 4600 20.188 25.514106446701 7 1 20 48 550
vector 510432  Network.dyn_peer[87]  lookupStabilitySig:vector  ETV
510432	59674 294 510 4600 20.188 25.514106446701 7 0.42857140302658 0.9545454531908 5.8837176039815 5.1586713568709
vector 510433  Network.dyn_peer[87]  lookupTimeSig:vector  ETV
510433	59968 204 510 4600 20.188 25.514106446701 7 0.1 2.1 5.4 6.5
vector 510452  Network.dyn_peer[94]  lookupHopsSig:vector  ETV
510452	62795 41 522 1525 20.195 20.895 2 1 6 7 37
vector 510453  Network.dyn_peer[94]  lookupStabilitySig:vector  ETV
510453	62836 56 522 1525 20.195 20.895 2 0 0.79999999701977 0.79999999701977 0.63999999523163
vector 510454  Network.dyn_peer[94]  lookupTimeSig:vector  ETV
510454	62892 45 522 1525 20.195 20.895 2 0.1 0.7 0.8 0.5
vector 510458  Network.dyn_peer[96]  lookupHopsSig:vector  ETV
510458	63293 102 528 3669 20.197 22.819293696146 4 1 12 24 206
vector 510459  Network.dyn_peer[96]  lookupStabilitySig:vector  ETV
510459	63395 161 528 3669 20.197 22.819293696146 4 0.16666668653488 0.89285714179277 2.4457307085395 1.8086101651843
vector 510460  Network.dyn_peer[96]  lookupTimeSig:vector  ETV
510460	63556 109 528 3669 20.197 22.819293696146 4 0.1 1.3 2.7 2.55
vector 510464  Network.dyn_peer[98]  lookupHopsSig:vector  ETV
510464	64006 102 535 4134 20.199 23.713624962389 4 1 17 33 403
vector 510465  Network.dyn_peer[98]  lookupStabilitySig:vector  ETV
510465	64108 161 535 4134 20.199 23.713624962389 4 0.26086956262589 0.89333333075047 2.824573263526 2.2636419501882
vector 510466  Network.dyn_peer[98]  lookupTimeSig:vector  ETV
510466	64269 109 535 4134 20.199 23.713624962389 4 0.1 1.8 3.6 4.7
vector 510176  Network.dyn_peer[2]  lookupHopsSig:vector  ETV
510176	20564 72 543 3423 20.203 22.505764788609 3 2 19 23 369
vector 510177  Network.dyn_peer[2]  lookupStabilitySig:vector  ETV
510177	20636 115 543 3423 20.203 22.505764788609 3 0.44117647409439 0.9545454531908 1.9957219213247 1.465793696349
vector 510178  Network.dyn_peer[2]  lookupTimeSig:vector  ETV
510178	20751 75 543 3423 20.203 22.505764788609 3 0.2 2 2.5 4.13
vector 510185  Network.dyn_peer[5]  lookupHopsSig:vector  ETV
510185	21430 133 551 4050 20.206 23.524687437904 5 2 12 31 277
vector 510186  Network.dyn_peer[5]  lookupStabilitySig:vector  ETV
510186	21563 208 551 4050 20.206 23.524687437904 5 -0.090909123420715 0.97260273993015 3.2092298418284 2.8145440123843
vector 510187  Network.dyn_peer[5]  lookupTimeSig:vector  ETV
510187	21771 141 551 4050 20.206 23.524687437904 5 0.2 1.3 3.5 3.39
vector 510275  Network.dyn_peer[35]  lookupHopsSig:vector  ETV
510275	34066 128 587 3818 20.236 23.0532418693 5 1 11 26 200
vector 510276  Network.dyn_peer[35]  lookupStabilitySig:vector  ETV
510276	34194 203 587 3818 20.236 23.0532418693 5 -0.22222220897675 0.97058823518455 3.0499977152795 2.8029187180246
vector 510277  Network.dyn_peer[35]  lookupTimeSig:vector  ETV
510277	34397 137 587 3818 20.236 23.0532418693 5 0.2 1.2 3 2.52
vector 510293  Network.dyn_peer[41]  lookupHopsSig:vector  ETV
510293	36772 72 596 3176 20.242 22.246944813223 3 2 15 20 238
vector 510294  Network.dyn_peer[41]  lookupStabilitySig:vector  ETV
510294	36844 116 596 3176 20.242 22.246944813223 3 0.16666668653488 0.91176470369101 1.6784313842654 1.2190926521447
vector 510295  Network.dyn_peer[41]  lookupTimeSig:vector  ETV
510295	36960 77 596 3176 20.242 22.246944813223 3 0.2 1.6 2.2 2.76
vector 510296  Network.dyn_peer[42]  lookupHopsSig:vector  ETV
510296	37037 132 601 4231 20.243 23.957744325526 5 2 17 35 397
vector 510297  Network.dyn_peer[42]  lookupStabilitySig:vector  ETV
510297	37169 206 601 4231 20.243 23.957744325526 5 0.34615385532379 0.96969696879387 3.7026432678103 3.0165355444134
vector 510298  Network.dyn_peer[42]  lookupTimeSig:vector  ETV
510298	37375 141 601 4231 20.243 23.957744325526 5 0.2 1.8 3.9 4.67
vector 510338  Network.dyn_peer[56]  lookupHopsSig:vector  ETV
510338	43786 130 619 3894 20.257 23.180031354575 5 1 17 27 331
vector 510339  Network.dyn_peer[56]  lookupStabilitySig:vector  ETV
510339	43916 204 619 3894 20.257 23.180031354575 5 0.37037038803101 0.97674418613315 3.8303078431636 3.2261917662969
vector 510340  Network.dyn_peer[56]  lookupTimeSig:vector  ETV
510340	44120 139 619 3894 20.257 23.180031354575 5 0.2 1.8 3.1 3.85
vector 510356  Network.dyn_peer[62]  lookupHopsSig:vector  ETV
510356	47594 72 629 2868 20.263 21.964396660539 3 2 11 17 141
vector 510357  Network.dyn_peer[62]  lookupStabilitySig:vector  ETV
510357	47666 117 629 2868 20.263 21.964396660539 3 -0.10000002384186 0.79999999701977 1.2999999672174 1.0099999928475
vector 510358  Network.dyn_peer[62]  lookupTimeSig:vector  ETV
510358	47783 77 629 2868 20.263 21.964396660539 3 0.2 1.2 1.9 1.73
vector 510392  Network.dyn_peer[74]  lookupHopsSig:vector  ETV
510392	51532 42 645 2498 20.275 21.675 2 2 13 15 173
vector 510393  Network.dyn_peer[74]  lookupStabilitySig:vector  ETV
510393	51574 73 645 2498 20.275 21.675 2 -0.083333373069763 0.59999999403954 0.51666662096978 0.36694444391463
vector 510394  Network.dyn_peer[74]  lookupTimeSig:vector  ETV
510394	51647 45 645 2498 20.275 21.675 2 0.2 1.4 1.6 2
vector 510404  Network.dyn_peer[78]  lookupHopsSig:vector  ETV
510404	55001 102 654 3644 20.279 22.793223545174 4 2 11 24 190
vector 510405  Network.dyn_peer[78]  lookupStabilitySig:vector  ETV
510405	55103 162 654 3644 20.279 22.793223545174 4 -0.10000002384186 0.86792452633381 2.1861063092947 1.7927144597641
vector 510406  Network.dyn_peer[78]  lookupTimeSig:vector  ETV
510406	55265 109 654 3644 20.279 22.793223545174 4 0.2 1.2 2.7 2.37
vector 510428  Network.dyn_peer[86]  lookupHopsSig:vector  ETV
510428	59202 81 666 3020 20.287 22.095290020897 3 2 14 18 204
vector 510429  Network.dyn_peer[86]  lookupStabilitySig:vector  ETV
510429	59283 114 666 3020 20.287 22.095290020897 3 0.125 0.92857142537832 1.6535714194179 1.2378698848766
vector 510430  Network.dyn_peer[86]  lookupTimeSig:vector  ETV
510430	59397 86 666 3020 20.287 22.095290020897 3 0.2 1.5 2 2.38
vector 510188  Network.dyn_peer[6]  lookupHopsSig:vector  ETV
510188	21912 102 694 3800 20.307 23.016568881985 4 3 15 27 275
vector 510189  Network.dyn_peer[6]  lookupStabilitySig:vector  ETV
510189	22014 149 694 3800 20.307 23.016568881985 4 0.25 0.92307692021132 2.4730768948793 1.8845709788711
vector 510190  Network.dyn_peer[6]  lookupTimeSig:vector  ETV
510190	22163 109 694 3800 20.307 23.016568881985 4 0.3 1.6 3 3.26
vector 510200  Network.dyn_peer[10]  lookupHopsSig:vector  ETV
510200	23386 101 702 2959 20.311 22.043672140933 4 2 8 17 93
vector 510201  Network.dyn_peer[10]  lookupStabilitySig:vector  ETV
510201	23487 162 702 2959 20.311 22.043672140933 4 -0.14285719394684 0.84615384042263 1.9214784353971 1.5658059591873
vector 510202  Network.dyn_peer[10]  lookupTimeSig:vector  ETV
510202	23649 109 702 2959 20.311 22.043672140933 4 0.3 0.9 2 1.24
vector 510260  Network.dyn_peer[30]  lookupHopsSig:vector  ETV
510260	31880 101 727 3361 20.331 22.441231998616 4 3 8 21 123
vector 510261  Network.dyn_peer[30]  lookupStabilitySig:vector  ETV
510261	31981 151 727 3361 20.331 22.441231998616 4 -0.14285719394684 0.875 1.854364991188 1.4676380779281
vector 510262  Network.dyn_peer[30]  lookupTimeSig:vector  ETV
510262	32132 109 727 3361 20.331 22.441231998616 4 0.3 0.9 2.4 1.62
vector 510263  Network.dyn_peer[31]  lookupHopsSig:vector  ETV
510263	32241 203 732 4666 20.332 25.952737975324 7 2 19 53 643
vector 510264  Network.dyn_peer[31]  lookupStabilitySig:vector  ETV
510264	32444 305 732 4666 20.332 25.952737975324 7 0.39999997615814 0.97674418613315 5.5004526600242 4.6806988527575
vector 510265  Network.dyn_peer[31]  lookupTimeSig:vector  ETV
510265	32749 212 732 4666 20.332 25.952737975324 7 0.3 2 5.9 7.49
vector 510269  Network.dyn_peer[33]  lookupHopsSig:vector  ETV
510269	33440 102 738 3285 20.334 22.350146499548 4 2 12 20 166
vector 510270  Network.dyn_peer[33]  lookupStabilitySig:vector  ETV
510270	33542 146 738 3285 20.334 22.350146499548 4 0 0.91891892254353 2.2189188972115 1.8144119644529
vector 510271  Network.dyn_peer[33]  lookupTimeSig:vector  ETV
510271	33688 109 738 3285 20.334 22.350146499548 4 0.3 1.3 2.3 2.03
vector 510305  Network.dyn_peer[45]  lookupHopsSig:vector  ETV
510305	38797 71 755 3078 20.346 22.149169402491 3 3 8 19 137
vector 510306  Network.dyn_peer[45]  lookupStabilitySig:vector  ETV
510306	38868 117 755 3078 20.346 22.149169402491 3 -0.14285719394684 0.74193549156189 0.99907827377319 0.73087643242806
vector 510307  Network.dyn_peer[45]  lookupTimeSig:vector  ETV
510307	38985 77 755 3078 20.346 22.149169402491 3 0.3 0.9 2.1 1.71
vector 510326  Network.dyn_peer[52]  lookupHopsSig:vector  ETV
510326	42303 42 766 3372 20.353 22.453 2 3 20 23 409
vector 510327  Network.dyn_peer[52]  lookupStabilitySig:vector  ETV
510327	42345 71 766 3372 20.353 22.453 2 0.39999997615814 0.51219511032104 0.91219508647918 0.42234381196329
vector 510328  Network.dyn_peer[52]  lookupTimeSig:vector  ETV
510328	42416 45 766 3372 20.353 22.453 2 0.3 2.1 2.4 4.5
vector 510353  Network.dyn_peer[61]  lookupHopsSig:vector  ETV
510353	46812 221 779 4643 20.362 25.797447619372 8 2 15 50 442
vector 510354  Network.dyn_peer[61]  lookupStabilitySig:vector  ETV
510354	47033 327 779 4643 20.362 25.797447619372 8 0.25 0.97826086916029 6.2380570415407 5.4371698552741
vector 510355  Network.dyn_peer[61]  lookupTimeSig:vector  ETV
510355	47360 234 779 4643 20.362 25.797447619372 8 0.3 1.6 5.7 5.43
vector 510389  Network.dyn_peer[73]  lookupHopsSig:vector  ETV
510389	51142 111 795 3782 20.374 22.988794706543 4 2 14 26 258
vector 510390  Network.dyn_peer[73]  lookupStabilitySig:vector  ETV
510390	51253 161 795 3782 20.374 22.988794706543 4 0.2631579041481 0.93939393758774 2.493176817894 1.9049259240437
vector 510391  Network.dyn_peer[73]  lookupTimeSig:vector  ETV
510391	51414 118 795 3782 20.374 22.988794706543 4 0.3 1.5 2.9 3.07
vector 510410  Network.dyn_peer[80]  lookupHopsSig:vector  ETV
510410	55635 132 808 3729 20.381 22.905765483756 5 2 14 24 222
vector 510411  Network.dyn_peer[80]  lookupStabilitySig:vector  ETV
510411	55767 205 808 3729 20.381 22.905765483756 5 0.2631579041481 0.95348837226629 3.5060401894152 2.9233531080501
vector 510412  Network.dyn_peer[80]  lookupTimeSig:vector  ETV
510412	55972 141 808 3729 20.381 22.905765483756 5 0.3 1.5 2.8 2.68
vector 510425  Network.dyn_peer[85]  lookupHopsSig:vector  ETV
510425	58912 80 817 2153 20.386 21.398597605119 3 3 5 11 43
vector 510426  Network.dyn_peer[85]  lookupStabilitySig:vector  ETV
510426	58992 124 817 2153 20.386 21.398597605119 3 0.28571426868439 0.5714285671711 1.2571428120136 0.56816323163558
vector 510427  Network.dyn_peer[85]  lookupTimeSig:vector  ETV
510427	59116 86 817 2153 20.386 21.398597605119 3 0.3 0.6 1.3 0.61
vector 510206  Network.dyn_peer[12]  lookupHopsSig:vector  ETV
510206	24327 102 852 3260 20.413 22.329765820667 4 1 10 20 142
vector 510207  Network.dyn_peer[12]  lookupStabilitySig:vector  ETV
510207	24429 162 852 3260 20.413 22.329765820667 4 0.090909063816071 0.92307692021132 2.0711288228631 1.6350293203456
vector 510208  Network.dyn_peer[12]  lookupTimeSig:vector  ETV
510208	24591 109 852 3260 20.413 22.329765820667 4 0.2 1.1 2.3 1.77
vector 510221  Network.dyn_peer[17]  lookupHopsSig:vector  ETV
510221	26051 112 860 4315 20.418 24.232608970917 4 4 13 39 429
vector 510222  Network.dyn_peer[17]  lookupStabilitySig:vector  ETV
510222	26163 170 860 4315 20.418 24.232608970917 4 0.076923072338104 0.88095238059759 1.9666989669204 1.4761897472285
vector 510223  Network.dyn_peer[17]  lookupTimeSig:vector  ETV
510223	26333 117 860 4315 20.418 24.232608970917 4 0.4 1.4 4.2 5.02
vector 510233  Network.dyn_peer[21]  lookupHopsSig:vector  ETV
510233	27771 101 869 3059 20.422 22.130957175267 4 2 9 18 110
vector 510234  Network.dyn_peer[21]  lookupStabilitySig:vector  ETV
510234	27872 140 869 3059 20.422 22.130957175267 4 -0.125 0.9333333298564 1.8208333179355 1.5868923498525
vector 510235  Network.dyn_peer[21]  lookupTimeSig:vector  ETV
510235	28012 107 869 3059 20.422 22.130957175267 4 0.3 1 2.1 1.41
vector 510248  Network.dyn_peer[26]  lookupHopsSig:vector  ETV
510248	29261 220 880 4498 20.427 24.973730753629 8 1 16 42 362
vector 510249  Network.dyn_peer[26]  lookupStabilitySig:vector  ETV
510249	29481 339 880 4498 20.427 24.973730753629 8 0.19999998807907 0.98275862075388 6.3604086320847 5.6630288850926
vector 510250  Network.dyn_peer[26]  lookupTimeSig:vector  ETV
510250	29820 235 880 4498 20.427 24.973730753629 8 0.2 1.7 4.9 4.45
vector 510251  Network.dyn_peer[27]  lookupHopsSig:vector  ETV
510251	30055 250 885 4653 20.428 25.86365582259 9 1 13 50 360
vector 510252  Network.dyn_peer[27]  lookupStabilitySig:vector  ETV
510252	30305 383 885 4653 20.428 25.86365582259 9 0.19999998807907 0.96000000089407 7.0154360421002 6.227006863792
vector 510253  Network.dyn_peer[27]  lookupTimeSig:vector  ETV
510253	30688 267 885 4653 20.428 25.86365582259 9 0.2 1.4 5.8 4.6
vector 510254  Network.dyn_peer[28]  lookupHopsSig:vector  ETV
510254	30955 101 890 3271 20.429 22.336997797571 4 4 7 20 106
vector 510255  Network.dyn_peer[28]  lookupStabilitySig:vector  ETV
510255	31056 146 890 3271 20.429 22.336997797571 4 0 0.88888888806105 1.8111110851169 1.3517283696893
vector 510256  Network.dyn_peer[28]  lookupTimeSig:vector  ETV
510256	31202 109 890 3271 20.429 22.336997797571 4 0.4 0.8 2.3 1.41
vector 510299  Network.dyn_peer[43]  lookupHopsSig:vector  ETV
510299	37516 282 909 4697 20.444 26.185668298084 10 3 11 52 334
vector 510300  Network.dyn_peer[43]  lookupStabilitySig:vector  ETV
510300	37798 431 909 4697 20.444 26.185668298084 10 0.19999998807907 0.96938775479794 7.7194343283772 6.6455674897749
vector 510301  Network.dyn_peer[43]  lookupTimeSig:vector  ETV
510301	38229 299 909 4697 20.444 26.185668298084 10 0.4 1.2 6.1 4.39
vector 510311  Network.dyn_peer[47]  lookupHopsSig:vector  ETV
510311	39754 161 917 3558 20.448 22.675613371209 6 1 6 21 99
vector 510312  Network.dyn_peer[47]  lookupStabilitySig:vector  ETV
510312	39915 250 917 3558 20.448 22.675613371209 6 0.14285713434219 0.98039215616882 3.8984897155315 3.2796685656442
vector 510313  Network.dyn_peer[47]  lookupTimeSig:vector  ETV
510313	40165 173 917 3558 20.448 22.675613371209 6 0.2 0.7 2.6 1.38
vector 510329  Network.dyn_peer[53]  lookupHopsSig:vector  ETV
510329	42461 192 928 4327 20.454 24.281791864856 7 1 11 36 246
vector 510330  Network.dyn_peer[53]  lookupStabilitySig:vector  ETV
510330	42653 295 928 4327 20.454 24.281791864856 7 0.083333313465118 0.98648648615927 4.9190959623084 4.3587598147849
vector 510331  Network.dyn_peer[53]  lookupTimeSig:vector  ETV
510331	42948 205 928 4327 20.454 24.281791864856 7 0.2 1.2 4.2 3.16
vector 510413  Network.dyn_peer[81]  lookupHopsSig:vector  ETV
510413	56113 170 965 4208 20.482 23.908295621989 6 1 11 33 255
vector 510414  Network.dyn_peer[81]  lookupStabilitySig:vector  ETV
510414	56283 258 965 4208 20.482 23.908295621989 6 0.15384614467621 0.97058823518455 4.03274554573 3.4553149298954
vector 510415  Network.dyn_peer[81]  lookupTimeSig:vector  ETV
510415	56541 181 965 4208 20.482 23.908295621989 6 0.2 1.2 3.8 3.18
vector 510416  Network.dyn_peer[82]  lookupHopsSig:vector  ETV
510416	56722 349 970 4776 20.483 27.333102843198 12 2 20 61 599
vector 510417  Network.dyn_peer[82]  lookupStabilitySig:vector  ETV
510417	57071 527 970 4776 20.483 27.333102843198 12 0.19999998807907 0.98019802011549 10.374920804054 9.5735083818996
vector 510418  Network.dyn_peer[82]  lookupTimeSig:vector  ETV
510418	57598 370 970 4776 20.483 27.333102843198 12 0.3 2.1 7.2 7.24
vector 510440  Network.dyn_peer[90]  lookupHopsSig:vector  ETV
510440	61098 50 984 2281 20.491 21.494245944401 2 4 9 13 97
vector 510441  Network.dyn_peer[90]  lookupStabilitySig:vector  ETV
510441	61148 80 984 2281 20.491 21.494245944401 2 0.10000002384186 0.19999998807907 0.30000001192093 0.050000000000001
vector 510442  Network.dyn_peer[90]  lookupTimeSig:vector  ETV
510442	61228 52 984 2281 20.491 21.494245944401 2 0.4 1 1.4 1.16
vector 510467  Network.dyn_peer[99]  lookupHopsSig:vector  ETV
510467	64378 66 1000 2909 20.5 22.002788412689 3 4 9 17 113
vector 510468  Network.dyn_peer[99]  lookupStabilitySig:vector  ETV
510468	64444 111 1000 2909 20.5 22.002788412689 3 0.19999998807907 0.60869565606117 1.2372670471668 0.59418384443154
vector 510469  Network.dyn_peer[99]  lookupTimeSig:vector  ETV
510469	64555 70 1000 2909 20.5 22.002788412689 3 0.4 1 1.9 1.41
vector 510209  Network.dyn_peer[13]  lookupHopsSig:vector  ETV
510209	24700 102 1019 3446 20.514 22.524578057141 4 3 9 22 140
vector 510210  Network.dyn_peer[13]  lookupStabilitySig:vector  ETV
510210	24802 147 1019 3446 20.514 22.524578057141 4 0 0.80851063132286 1.8214976191521 1.2642476923042
vector 510211  Network.dyn_peer[13]  lookupTimeSig:vector  ETV
510211	24949 108 1019 3446 20.514 22.524578057141 4 0.4 1 2.5 1.77
vector 510242  Network.dyn_peer[24]  lookupHopsSig:vector  ETV
510242	28534 162 1034 4144 20.525 23.751619019651 6 1 14 32 276
vector 510243  Network.dyn_peer[24]  lookupStabilitySig:vector  ETV
510243	28696 235 1034 4144 20.525 23.751619019651 6 0 0.98591549322009 4.2291166111827 3.788352085985
vector 510244  Network.dyn_peer[24]  lookupTimeSig:vector  ETV
510244	28931 173 1034 4144 20.525 23.751619019651 6 0.2 1.5 3.7 3.35
vector 510320  Network.dyn_peer[50]  lookupHopsSig:vector  ETV
510320	41291 43 1067 2598 20.551 21.751 2 5 11 16 146
vector 510321  Network.dyn_peer[50]  lookupStabilitySig:vector  ETV
510321	41334 57 1067 2598 20.551 21.751 2 0 0.15384614467621 0.15384614467621 0.023668636231733
vector 510322  Network.dyn_peer[50]  lookupTimeSig:vector  ETV
510322	41391 46 1067 2598 20.551 21.751 2 0.5 1.2 1.7 1.69
vector 510323  Network.dyn_peer[51]  lookupHopsSig:vector  ETV
510323	41437 251 1072 4726 20.552 26.48792702442 9 3 13 56 424
vector 510324  Network.dyn_peer[51]  lookupStabilitySig:vector  ETV
510324	41688 349 1072 4726 20.552 26.48792702442 9 0 0.96739130467176 6.8534860536456 6.1708317183004
vector 510325  Network.dyn_peer[51]  lookupTimeSig:vector  ETV
510325	42037 266 1072 4726 20.552 26.48792702442 9 0.4 1.4 6.4 5.34
vector 510371  Network.dyn_peer[67]  lookupHopsSig:vector  ETV
510371	49228 82 1093 3126 20.568 22.196621439771 3 1 13 19 195
vector 510372  Network.dyn_peer[67]  lookupStabilitySig:vector  ETV
510372	49310 110 1093 3126 20.568 22.196621439771 3 0 0.83333332836628 1.4393939226866 1.0617538801539
vector 510373  Network.dyn_peer[67]  lookupTimeSig:vector  ETV
510373	49420 87 1093 3126 20.568 22.196621439771 3 0.2 1.4 2.1 2.25
vector 510401  Network.dyn_peer[77]  lookupHopsSig:vector  ETV
510401	54124 253 1108 4682 20.578 26.017538681609 9 3 16 51 419
vector 510402  Network.dyn_peer[77]  lookupStabilitySig:vector  ETV
510402	54377 354 1108 4682 20.578 26.017538681609 9 0 0.96875 7.1686470508575 6.5690562494212
vector 510403  Network.dyn_peer[77]  lookupTimeSig:vector  ETV
510403	54731 270 1108 4682 20.578 26.017538681609 9 0.4 1.7 5.9 5.19