version 2
run Stability2-243-20130526-00:53:00-26640
attr configname Stability2
attr datetime 20130526-00:53:00
attr experiment Stability2
attr inifile omnetpp.ini
attr iterationvars $0=400
attr iterationvars2 "$0=400, $repetition=3"
attr measurement $0=400
attr network Network
attr processid 26640
attr repetition 3
attr replication #3
attr resultdir results
attr runnumber 243
attr seedset 243

vector 732243  Network.churner  inGoingSizeSig:vector  ETV
vector 729261  Network.dyn_peer[6]  lookupHopsSig:vector  ETV
vector 729262  Network.dyn_peer[6]  lookupStabilitySig:vector  ETV
vector 729263  Network.dyn_peer[6]  lookupTimeSig:vector  ETV
vector 729285  Network.dyn_peer[14]  lookupHopsSig:vector  ETV
vector 729286  Network.dyn_peer[14]  lookupStabilitySig:vector  ETV
vector 729287  Network.dyn_peer[14]  lookupTimeSig:vector  ETV
vector 729297  Network.dyn_peer[18]  lookupHopsSig:vector  ETV
vector 729298  Network.dyn_peer[18]  lookupStabilitySig:vector  ETV
vector 729299  Network.dyn_peer[18]  lookupTimeSig:vector  ETV
vector 729357  Network.dyn_peer[38]  lookupHopsSig:vector  ETV
vector 729358  Network.dyn_peer[38]  lookupStabilitySig:vector  ETV
vector 729359  Network.dyn_peer[38]  lookupTimeSig:vector  ETV
vector 729369  Network.dyn_peer[42]  lookupHopsSig:vector  ETV
vector 729370  Network.dyn_peer[42]  lookupStabilitySig:vector  ETV
vector 729371  Network.dyn_peer[42]  lookupTimeSig:vector  ETV
vector 729375  Network.dyn_peer[44]  lookupHopsSig:vector  ETV
vector 729376  Network.dyn_peer[44]  lookupStabilitySig:vector  ETV
vector 729377  Network.dyn_peer[44]  lookupTimeSig:vector  ETV
vector 729528  Network.dyn_peer[95]  lookupHopsSig:vector  ETV
vector 729529  Network.dyn_peer[95]  lookupStabilitySig:vector  ETV
vector 729530  Network.dyn_peer[95]  lookupTimeSig:vector  ETV
vector 729249  Network.dyn_peer[2]  lookupHopsSig:vector  ETV
vector 729250  Network.dyn_peer[2]  lookupStabilitySig:vector  ETV
vector 729251  Network.dyn_peer[2]  lookupTimeSig:vector  ETV
vector 729252  Network.dyn_peer[3]  lookupHopsSig:vector  ETV
vector 729253  Network.dyn_peer[3]  lookupStabilitySig:vector  ETV
vector 729254  Network.dyn_peer[3]  lookupTimeSig:vector  ETV
vector 729255  Network.dyn_peer[4]  lookupHopsSig:vector  ETV
vector 729256  Network.dyn_peer[4]  lookupStabilitySig:vector  ETV
vector 729257  Network.dyn_peer[4]  lookupTimeSig:vector  ETV
vector 729258  Network.dyn_peer[5]  lookupHopsSig:vector  ETV
vector 729259  Network.dyn_peer[5]  lookupStabilitySig:vector  ETV
vector 729260  Network.dyn_peer[5]  lookupTimeSig:vector  ETV
vector 729561  Network.dyn_peer[106]  lookupHopsSig:vector  ETV
vector 729562  Network.dyn_peer[106]  lookupStabilitySig:vector  ETV
vector 729563  Network.dyn_peer[106]  lookupTimeSig:vector  ETV
vector 729267  Network.dyn_peer[8]  lookupHopsSig:vector  ETV
vector 729268  Network.dyn_peer[8]  lookupStabilitySig:vector  ETV
vector 729269  Network.dyn_peer[8]  lookupTimeSig:vector  ETV
vector 729282  Network.dyn_peer[13]  lookupHopsSig:vector  ETV
vector 729283  Network.dyn_peer[13]  lookupStabilitySig:vector  ETV
vector 729284  Network.dyn_peer[13]  lookupTimeSig:vector  ETV
vector 729588  Network.dyn_peer[115]  lookupHopsSig:vector  ETV
vector 729589  Network.dyn_peer[115]  lookupStabilitySig:vector  ETV
vector 729590  Network.dyn_peer[115]  lookupTimeSig:vector  ETV
vector 729309  Network.dyn_peer[22]  lookupHopsSig:vector  ETV
vector 729310  Network.dyn_peer[22]  lookupStabilitySig:vector  ETV
vector 729311  Network.dyn_peer[22]  lookupTimeSig:vector  ETV
vector 729384  Network.dyn_peer[47]  lookupHopsSig:vector  ETV
vector 729385  Network.dyn_peer[47]  lookupStabilitySig:vector  ETV
vector 729386  Network.dyn_peer[47]  lookupTimeSig:vector  ETV
vector 729714  Network.dyn_peer[157]  lookupHopsSig:vector  ETV
vector 729715  Network.dyn_peer[157]  lookupStabilitySig:vector  ETV
vector 729716  Network.dyn_peer[157]  lookupTimeSig:vector  ETV
vector 729435  Network.dyn_peer[64]  lookupHopsSig:vector  ETV
vector 729436  Network.dyn_peer[64]  lookupStabilitySig:vector  ETV
vector 729437  Network.dyn_peer[64]  lookupTimeSig:vector  ETV
vector 729744  Network.dyn_peer[167]  lookupHopsSig:vector  ETV
vector 729745  Network.dyn_peer[167]  lookupStabilitySig:vector  ETV
vector 729746  Network.dyn_peer[167]  lookupTimeSig:vector  ETV
vector 729456  Network.dyn_peer[71]  lookupHopsSig:vector  ETV
vector 729457  Network.dyn_peer[71]  lookupStabilitySig:vector  ETV
vector 729458  Network.dyn_peer[71]  lookupTimeSig:vector  ETV
vector 729492  Network.dyn_peer[83]  lookupHopsSig:vector  ETV
vector 729493  Network.dyn_peer[83]  lookupStabilitySig:vector  ETV
vector 729494  Network.dyn_peer[83]  lookupTimeSig:vector  ETV
vector 729504  Network.dyn_peer[87]  lookupHopsSig:vector  ETV
vector 729505  Network.dyn_peer[87]  lookupStabilitySig:vector  ETV
vector 729506  Network.dyn_peer[87]  lookupTimeSig:vector  ETV
vector 729537  Network.dyn_peer[98]  lookupHopsSig:vector  ETV
vector 729538  Network.dyn_peer[98]  lookupStabilitySig:vector  ETV
vector 729539  Network.dyn_peer[98]  lookupTimeSig:vector  ETV
vector 729558  Network.dyn_peer[105]  lookupHopsSig:vector  ETV
vector 729559  Network.dyn_peer[105]  lookupStabilitySig:vector  ETV
vector 729560  Network.dyn_peer[105]  lookupTimeSig:vector  ETV
vector 729270  Network.dyn_peer[9]  lookupHopsSig:vector  ETV
vector 729271  Network.dyn_peer[9]  lookupStabilitySig:vector  ETV
vector 729272  Network.dyn_peer[9]  lookupTimeSig:vector  ETV
vector 729273  Network.dyn_peer[10]  lookupHopsSig:vector  ETV
vector 729274  Network.dyn_peer[10]  lookupStabilitySig:vector  ETV
vector 729275  Network.dyn_peer[10]  lookupTimeSig:vector  ETV
vector 729276  Network.dyn_peer[11]  lookupHopsSig:vector  ETV
vector 729277  Network.dyn_peer[11]  lookupStabilitySig:vector  ETV
vector 729278  Network.dyn_peer[11]  lookupTimeSig:vector  ETV
vector 729288  Network.dyn_peer[15]  lookupHopsSig:vector  ETV
vector 729289  Network.dyn_peer[15]  lookupStabilitySig:vector  ETV
vector 729290  Network.dyn_peer[15]  lookupTimeSig:vector  ETV
vector 729300  Network.dyn_peer[19]  lookupHopsSig:vector  ETV
vector 729301  Network.dyn_peer[19]  lookupStabilitySig:vector  ETV
vector 729302  Network.dyn_peer[19]  lookupTimeSig:vector  ETV
vector 729306  Network.dyn_peer[21]  lookupHopsSig:vector  ETV
vector 729307  Network.dyn_peer[21]  lookupStabilitySig:vector  ETV
vector 729308  Network.dyn_peer[21]  lookupTimeSig:vector  ETV
vector 729315  Network.dyn_peer[24]  lookupHopsSig:vector  ETV
vector 729316  Network.dyn_peer[24]  lookupStabilitySig:vector  ETV
vector 729317  Network.dyn_peer[24]  lookupTimeSig:vector  ETV
vector 729651  Network.dyn_peer[136]  lookupHopsSig:vector  ETV
vector 729652  Network.dyn_peer[136]  lookupStabilitySig:vector  ETV
vector 729653  Network.dyn_peer[136]  lookupTimeSig:vector  ETV
vector 729381  Network.dyn_peer[46]  lookupHopsSig:vector  ETV
vector 729382  Network.dyn_peer[46]  lookupStabilitySig:vector  ETV
vector 729383  Network.dyn_peer[46]  lookupTimeSig:vector  ETV
vector 729690  Network.dyn_peer[149]  lookupHopsSig:vector  ETV
vector 729691  Network.dyn_peer[149]  lookupStabilitySig:vector  ETV
vector 729692  Network.dyn_peer[149]  lookupTimeSig:vector  ETV
vector 729426  Network.dyn_peer[61]  lookupHopsSig:vector  ETV
vector 729427  Network.dyn_peer[61]  lookupStabilitySig:vector  ETV
vector 729428  Network.dyn_peer[61]  lookupTimeSig:vector  ETV
vector 729729  Network.dyn_peer[162]  lookupHopsSig:vector  ETV
vector 729730  Network.dyn_peer[162]  lookupStabilitySig:vector  ETV
vector 729731  Network.dyn_peer[162]  lookupTimeSig:vector  ETV
vector 729447  Network.dyn_peer[68]  lookupHopsSig:vector  ETV
vector 729448  Network.dyn_peer[68]  lookupStabilitySig:vector  ETV
vector 729449  Network.dyn_peer[68]  lookupTimeSig:vector  ETV
vector 730065  Network.dyn_peer[274]  lookupHopsSig:vector  ETV
vector 730066  Network.dyn_peer[274]  lookupStabilitySig:vector  ETV
vector 730067  Network.dyn_peer[274]  lookupTimeSig:vector  ETV
vector 729480  Network.dyn_peer[79]  lookupHopsSig:vector  ETV
vector 729481  Network.dyn_peer[79]  lookupStabilitySig:vector  ETV
vector 729482  Network.dyn_peer[79]  lookupTimeSig:vector  ETV
vector 729789  Network.dyn_peer[182]  lookupHopsSig:vector  ETV
vector 729790  Network.dyn_peer[182]  lookupStabilitySig:vector  ETV
vector 729791  Network.dyn_peer[182]  lookupTimeSig:vector  ETV
vector 729525  Network.dyn_peer[94]  lookupHopsSig:vector  ETV
vector 729526  Network.dyn_peer[94]  lookupStabilitySig:vector  ETV
vector 729527  Network.dyn_peer[94]  lookupTimeSig:vector  ETV
vector 729534  Network.dyn_peer[97]  lookupHopsSig:vector  ETV
vector 729535  Network.dyn_peer[97]  lookupStabilitySig:vector  ETV
vector 729536  Network.dyn_peer[97]  lookupTimeSig:vector  ETV
vector 729246  Network.dyn_peer[1]  lookupHopsSig:vector  ETV
vector 729247  Network.dyn_peer[1]  lookupStabilitySig:vector  ETV
vector 729248  Network.dyn_peer[1]  lookupTimeSig:vector  ETV
vector 729279  Network.dyn_peer[12]  lookupHopsSig:vector  ETV
vector 729280  Network.dyn_peer[12]  lookupStabilitySig:vector  ETV
vector 729281  Network.dyn_peer[12]  lookupTimeSig:vector  ETV
vector 729582  Network.dyn_peer[113]  lookupHopsSig:vector  ETV
vector 729583  Network.dyn_peer[113]  lookupStabilitySig:vector  ETV
vector 729584  Network.dyn_peer[113]  lookupTimeSig:vector  ETV
vector 729291  Network.dyn_peer[16]  lookupHopsSig:vector  ETV
vector 729292  Network.dyn_peer[16]  lookupStabilitySig:vector  ETV
vector 729293  Network.dyn_peer[16]  lookupTimeSig:vector  ETV
vector 729597  Network.dyn_peer[118]  lookupHopsSig:vector  ETV
vector 729598  Network.dyn_peer[118]  lookupStabilitySig:vector  ETV
vector 729599  Network.dyn_peer[118]  lookupTimeSig:vector  ETV
vector 729303  Network.dyn_peer[20]  lookupHopsSig:vector  ETV
vector 729304  Network.dyn_peer[20]  lookupStabilitySig:vector  ETV
vector 729305  Network.dyn_peer[20]  lookupTimeSig:vector  ETV
vector 729603  Network.dyn_peer[120]  lookupHopsSig:vector  ETV
vector 729604  Network.dyn_peer[120]  lookupStabilitySig:vector  ETV
vector 729605  Network.dyn_peer[120]  lookupTimeSig:vector  ETV
vector 729336  Network.dyn_peer[31]  lookupHopsSig:vector  ETV
vector 729337  Network.dyn_peer[31]  lookupStabilitySig:vector  ETV
vector 729338  Network.dyn_peer[31]  lookupTimeSig:vector  ETV
vector 729348  Network.dyn_peer[35]  lookupHopsSig:vector  ETV
vector 729349  Network.dyn_peer[35]  lookupStabilitySig:vector  ETV
vector 729350  Network.dyn_peer[35]  lookupTimeSig:vector  ETV
vector 729675  Network.dyn_peer[144]  lookupHopsSig:vector  ETV
vector 729676  Network.dyn_peer[144]  lookupStabilitySig:vector  ETV
vector 729677  Network.dyn_peer[144]  lookupTimeSig:vector  ETV
vector 730296  Network.dyn_peer[351]  lookupHopsSig:vector  ETV
vector 730297  Network.dyn_peer[351]  lookupStabilitySig:vector  ETV
vector 730298  Network.dyn_peer[351]  lookupTimeSig:vector  ETV
vector 729414  Network.dyn_peer[57]  lookupHopsSig:vector  ETV
vector 729415  Network.dyn_peer[57]  lookupStabilitySig:vector  ETV
vector 729416  Network.dyn_peer[57]  lookupTimeSig:vector  ETV
vector 730014  Network.dyn_peer[257]  lookupHopsSig:vector  ETV
vector 730015  Network.dyn_peer[257]  lookupStabilitySig:vector  ETV
vector 730016  Network.dyn_peer[257]  lookupTimeSig:vector  ETV
vector 729444  Network.dyn_peer[67]  lookupHopsSig:vector  ETV
vector 729445  Network.dyn_peer[67]  lookupStabilitySig:vector  ETV
vector 729446  Network.dyn_peer[67]  lookupTimeSig:vector  ETV
vector 729477  Network.dyn_peer[78]  lookupHopsSig:vector  ETV
vector 729478  Network.dyn_peer[78]  lookupStabilitySig:vector  ETV
vector 729479  Network.dyn_peer[78]  lookupTimeSig:vector  ETV
vector 730098  Network.dyn_peer[285]  lookupHopsSig:vector  ETV
vector 730099  Network.dyn_peer[285]  lookupStabilitySig:vector  ETV
vector 730100  Network.dyn_peer[285]  lookupTimeSig:vector  ETV
vector 729501  Network.dyn_peer[86]  lookupHopsSig:vector  ETV
vector 729502  Network.dyn_peer[86]  lookupStabilitySig:vector  ETV
vector 729503  Network.dyn_peer[86]  lookupTimeSig:vector  ETV
vector 730104  Network.dyn_peer[287]  lookupHopsSig:vector  ETV
vector 730105  Network.dyn_peer[287]  lookupStabilitySig:vector  ETV
vector 730106  Network.dyn_peer[287]  lookupTimeSig:vector  ETV
vector 729507  Network.dyn_peer[88]  lookupHopsSig:vector  ETV
vector 729508  Network.dyn_peer[88]  lookupStabilitySig:vector  ETV
vector 729509  Network.dyn_peer[88]  lookupTimeSig:vector  ETV
vector 730137  Network.dyn_peer[298]  lookupHopsSig:vector  ETV
vector 730138  Network.dyn_peer[298]  lookupStabilitySig:vector  ETV
vector 730139  Network.dyn_peer[298]  lookupTimeSig:vector  ETV
vector 729849  Network.dyn_peer[202]  lookupHopsSig:vector  ETV
vector 729850  Network.dyn_peer[202]  lookupStabilitySig:vector  ETV
vector 729851  Network.dyn_peer[202]  lookupTimeSig:vector  ETV
vector 729264  Network.dyn_peer[7]  lookupHopsSig:vector  ETV
vector 729265  Network.dyn_peer[7]  lookupStabilitySig:vector  ETV
vector 729266  Network.dyn_peer[7]  lookupTimeSig:vector  ETV
vector 729591  Network.dyn_peer[116]  lookupHopsSig:vector  ETV
vector 729592  Network.dyn_peer[116]  lookupStabilitySig:vector  ETV
vector 729593  Network.dyn_peer[116]  lookupTimeSig:vector  ETV
vector 729294  Network.dyn_peer[17]  lookupHopsSig:vector  ETV
vector 729295  Network.dyn_peer[17]  lookupStabilitySig:vector  ETV
vector 729296  Network.dyn_peer[17]  lookupTimeSig:vector  ETV
vector 729906  Network.dyn_peer[221]  lookupHopsSig:vector  ETV
vector 729907  Network.dyn_peer[221]  lookupStabilitySig:vector  ETV
vector 729908  Network.dyn_peer[221]  lookupTimeSig:vector  ETV
vector 729318  Network.dyn_peer[25]  lookupHopsSig:vector  ETV
vector 729319  Network.dyn_peer[25]  lookupStabilitySig:vector  ETV
vector 729320  Network.dyn_peer[25]  lookupTimeSig:vector  ETV
vector 729624  Network.dyn_peer[127]  lookupHopsSig:vector  ETV
vector 729625  Network.dyn_peer[127]  lookupStabilitySig:vector  ETV
vector 729626  Network.dyn_peer[127]  lookupTimeSig:vector  ETV
vector 729351  Network.dyn_peer[36]  lookupHopsSig:vector  ETV
vector 729352  Network.dyn_peer[36]  lookupStabilitySig:vector  ETV
vector 729353  Network.dyn_peer[36]  lookupTimeSig:vector  ETV
vector 729366  Network.dyn_peer[41]  lookupHopsSig:vector  ETV
vector 729367  Network.dyn_peer[41]  lookupStabilitySig:vector  ETV
vector 729368  Network.dyn_peer[41]  lookupTimeSig:vector  ETV
vector 729681  Network.dyn_peer[146]  lookupHopsSig:vector  ETV
vector 729682  Network.dyn_peer[146]  lookupStabilitySig:vector  ETV
vector 729683  Network.dyn_peer[146]  lookupTimeSig:vector  ETV
vector 729387  Network.dyn_peer[48]  lookupHopsSig:vector  ETV
vector 729388  Network.dyn_peer[48]  lookupStabilitySig:vector  ETV
vector 729389  Network.dyn_peer[48]  lookupTimeSig:vector  ETV
vector 729396  Network.dyn_peer[51]  lookupHopsSig:vector  ETV
vector 729397  Network.dyn_peer[51]  lookupStabilitySig:vector  ETV
vector 729398  Network.dyn_peer[51]  lookupTimeSig:vector  ETV
vector 729402  Network.dyn_peer[53]  lookupHopsSig:vector  ETV
vector 729403  Network.dyn_peer[53]  lookupStabilitySig:vector  ETV
vector 729404  Network.dyn_peer[53]  lookupTimeSig:vector  ETV
vector 729702  Network.dyn_peer[153]  lookupHopsSig:vector  ETV
vector 729703  Network.dyn_peer[153]  lookupStabilitySig:vector  ETV
vector 729704  Network.dyn_peer[153]  lookupTimeSig:vector  ETV
vector 730029  Network.dyn_peer[262]  lookupHopsSig:vector  ETV
vector 730030  Network.dyn_peer[262]  lookupStabilitySig:vector  ETV
vector 730031  Network.dyn_peer[262]  lookupTimeSig:vector  ETV
vector 729762  Network.dyn_peer[173]  lookupHopsSig:vector  ETV
vector 729763  Network.dyn_peer[173]  lookupStabilitySig:vector  ETV
vector 729764  Network.dyn_peer[173]  lookupTimeSig:vector  ETV
vector 729471  Network.dyn_peer[76]  lookupHopsSig:vector  ETV
vector 729472  Network.dyn_peer[76]  lookupStabilitySig:vector  ETV
vector 729473  Network.dyn_peer[76]  lookupTimeSig:vector  ETV
vector 729777  Network.dyn_peer[178]  lookupHopsSig:vector  ETV
vector 729778  Network.dyn_peer[178]  lookupStabilitySig:vector  ETV
vector 729779  Network.dyn_peer[178]  lookupTimeSig:vector  ETV
vector 730080  Network.dyn_peer[279]  lookupHopsSig:vector  ETV
vector 730081  Network.dyn_peer[279]  lookupStabilitySig:vector  ETV
vector 730082  Network.dyn_peer[279]  lookupTimeSig:vector  ETV
vector 729483  Network.dyn_peer[80]  lookupHopsSig:vector  ETV
vector 729484  Network.dyn_peer[80]  lookupStabilitySig:vector  ETV
vector 729485  Network.dyn_peer[80]  lookupTimeSig:vector  ETV
vector 729489  Network.dyn_peer[82]  lookupHopsSig:vector  ETV
vector 729490  Network.dyn_peer[82]  lookupStabilitySig:vector  ETV
vector 729491  Network.dyn_peer[82]  lookupTimeSig:vector  ETV
vector 730101  Network.dyn_peer[286]  lookupHopsSig:vector  ETV
vector 730102  Network.dyn_peer[286]  lookupStabilitySig:vector  ETV
vector 730103  Network.dyn_peer[286]  lookupTimeSig:vector  ETV
vector 729540  Network.dyn_peer[99]  lookupHopsSig:vector  ETV
vector 729541  Network.dyn_peer[99]  lookupStabilitySig:vector  ETV
vector 729542  Network.dyn_peer[99]  lookupTimeSig:vector  ETV
vector 729885  Network.dyn_peer[214]  lookupHopsSig:vector  ETV
vector 729886  Network.dyn_peer[214]  lookupStabilitySig:vector  ETV
vector 729887  Network.dyn_peer[214]  lookupTimeSig:vector  ETV
vector 729891  Network.dyn_peer[216]  lookupHopsSig:vector  ETV
vector 729892  Network.dyn_peer[216]  lookupStabilitySig:vector  ETV
vector 729893  Network.dyn_peer[216]  lookupTimeSig:vector  ETV
vector 729594  Network.dyn_peer[117]  lookupHopsSig:vector  ETV
vector 729595  Network.dyn_peer[117]  lookupStabilitySig:vector  ETV
vector 729596  Network.dyn_peer[117]  lookupTimeSig:vector  ETV
vector 730233  Network.dyn_peer[330]  lookupHopsSig:vector  ETV
vector 730234  Network.dyn_peer[330]  lookupStabilitySig:vector  ETV
vector 730235  Network.dyn_peer[330]  lookupTimeSig:vector  ETV
vector 729360  Network.dyn_peer[39]  lookupHopsSig:vector  ETV
vector 729361  Network.dyn_peer[39]  lookupStabilitySig:vector  ETV
vector 729362  Network.dyn_peer[39]  lookupTimeSig:vector  ETV
vector 729990  Network.dyn_peer[249]  lookupHopsSig:vector  ETV
vector 729991  Network.dyn_peer[249]  lookupStabilitySig:vector  ETV
vector 729992  Network.dyn_peer[249]  lookupTimeSig:vector  ETV
vector 729417  Network.dyn_peer[58]  lookupHopsSig:vector  ETV
vector 729418  Network.dyn_peer[58]  lookupStabilitySig:vector  ETV
vector 729419  Network.dyn_peer[58]  lookupTimeSig:vector  ETV
vector 730323  Network.dyn_peer[360]  lookupHopsSig:vector  ETV
vector 730324  Network.dyn_peer[360]  lookupStabilitySig:vector  ETV
vector 730325  Network.dyn_peer[360]  lookupTimeSig:vector  ETV
vector 729432  Network.dyn_peer[63]  lookupHopsSig:vector  ETV
vector 729433  Network.dyn_peer[63]  lookupStabilitySig:vector  ETV
vector 729434  Network.dyn_peer[63]  lookupTimeSig:vector  ETV
vector 730335  Network.dyn_peer[364]  lookupHopsSig:vector  ETV
vector 730336  Network.dyn_peer[364]  lookupStabilitySig:vector  ETV
vector 730337  Network.dyn_peer[364]  lookupTimeSig:vector  ETV
vector 729441  Network.dyn_peer[66]  lookupHopsSig:vector  ETV
vector 729442  Network.dyn_peer[66]  lookupStabilitySig:vector  ETV
vector 729443  Network.dyn_peer[66]  lookupTimeSig:vector  ETV
vector 729753  Network.dyn_peer[170]  lookupHopsSig:vector  ETV
vector 729754  Network.dyn_peer[170]  lookupStabilitySig:vector  ETV
vector 729755  Network.dyn_peer[170]  lookupTimeSig:vector  ETV
vector 730422  Network.dyn_peer[393]  lookupHopsSig:vector  ETV
vector 730423  Network.dyn_peer[393]  lookupStabilitySig:vector  ETV
vector 730424  Network.dyn_peer[393]  lookupTimeSig:vector  ETV
vector 729576  Network.dyn_peer[111]  lookupHopsSig:vector  ETV
vector 729577  Network.dyn_peer[111]  lookupStabilitySig:vector  ETV
vector 729578  Network.dyn_peer[111]  lookupTimeSig:vector  ETV
vector 729312  Network.dyn_peer[23]  lookupHopsSig:vector  ETV
vector 729313  Network.dyn_peer[23]  lookupStabilitySig:vector  ETV
vector 729314  Network.dyn_peer[23]  lookupTimeSig:vector  ETV
vector 730215  Network.dyn_peer[324]  lookupHopsSig:vector  ETV
vector 730216  Network.dyn_peer[324]  lookupStabilitySig:vector  ETV
vector 730217  Network.dyn_peer[324]  lookupTimeSig:vector  ETV
vector 729327  Network.dyn_peer[28]  lookupHopsSig:vector  ETV
vector 729328  Network.dyn_peer[28]  lookupStabilitySig:vector  ETV
vector 729329  Network.dyn_peer[28]  lookupTimeSig:vector  ETV
vector 729639  Network.dyn_peer[132]  lookupHopsSig:vector  ETV
vector 729640  Network.dyn_peer[132]  lookupStabilitySig:vector  ETV
vector 729641  Network.dyn_peer[132]  lookupTimeSig:vector  ETV
vector 729342  Network.dyn_peer[33]  lookupHopsSig:vector  ETV
vector 729343  Network.dyn_peer[33]  lookupStabilitySig:vector  ETV
vector 729344  Network.dyn_peer[33]  lookupTimeSig:vector  ETV
vector 730263  Network.dyn_peer[340]  lookupHopsSig:vector  ETV
vector 730264  Network.dyn_peer[340]  lookupStabilitySig:vector  ETV
vector 730265  Network.dyn_peer[340]  lookupTimeSig:vector  ETV
vector 730302  Network.dyn_peer[353]  lookupHopsSig:vector  ETV
vector 730303  Network.dyn_peer[353]  lookupStabilitySig:vector  ETV
vector 730304  Network.dyn_peer[353]  lookupTimeSig:vector  ETV
vector 730032  Network.dyn_peer[263]  lookupHopsSig:vector  ETV
vector 730033  Network.dyn_peer[263]  lookupStabilitySig:vector  ETV
vector 730034  Network.dyn_peer[263]  lookupTimeSig:vector  ETV
vector 729474  Network.dyn_peer[77]  lookupHopsSig:vector  ETV
vector 729475  Network.dyn_peer[77]  lookupStabilitySig:vector  ETV
vector 729476  Network.dyn_peer[77]  lookupTimeSig:vector  ETV
vector 729495  Network.dyn_peer[84]  lookupHopsSig:vector  ETV
vector 729496  Network.dyn_peer[84]  lookupStabilitySig:vector  ETV
vector 729497  Network.dyn_peer[84]  lookupTimeSig:vector  ETV
vector 730431  Network.dyn_peer[396]  lookupHopsSig:vector  ETV
vector 730432  Network.dyn_peer[396]  lookupStabilitySig:vector  ETV
vector 730433  Network.dyn_peer[396]  lookupTimeSig:vector  ETV
vector 730434  Network.dyn_peer[397]  lookupHopsSig:vector  ETV
vector 730435  Network.dyn_peer[397]  lookupStabilitySig:vector  ETV
vector 730436  Network.dyn_peer[397]  lookupTimeSig:vector  ETV
vector 729840  Network.dyn_peer[199]  lookupHopsSig:vector  ETV
vector 729841  Network.dyn_peer[199]  lookupStabilitySig:vector  ETV
vector 729842  Network.dyn_peer[199]  lookupTimeSig:vector  ETV
vector 729564  Network.dyn_peer[107]  lookupHopsSig:vector  ETV
vector 729565  Network.dyn_peer[107]  lookupStabilitySig:vector  ETV
vector 729566  Network.dyn_peer[107]  lookupTimeSig:vector  ETV
vector 729567  Network.dyn_peer[108]  lookupHopsSig:vector  ETV
vector 729568  Network.dyn_peer[108]  lookupStabilitySig:vector  ETV
vector 729569  Network.dyn_peer[108]  lookupTimeSig:vector  ETV
vector 729354  Network.dyn_peer[37]  lookupHopsSig:vector  ETV
vector 729355  Network.dyn_peer[37]  lookupStabilitySig:vector  ETV
vector 729356  Network.dyn_peer[37]  lookupTimeSig:vector  ETV
vector 730269  Network.dyn_peer[342]  lookupHopsSig:vector  ETV
vector 730270  Network.dyn_peer[342]  lookupStabilitySig:vector  ETV
vector 730271  Network.dyn_peer[342]  lookupTimeSig:vector  ETV
vector 730005  Network.dyn_peer[254]  lookupHopsSig:vector  ETV
vector 730006  Network.dyn_peer[254]  lookupStabilitySig:vector  ETV
vector 730007  Network.dyn_peer[254]  lookupTimeSig:vector  ETV
vector 730359  Network.dyn_peer[372]  lookupHopsSig:vector  ETV
vector 730360  Network.dyn_peer[372]  lookupStabilitySig:vector  ETV
vector 730361  Network.dyn_peer[372]  lookupTimeSig:vector  ETV
vector 729462  Network.dyn_peer[73]  lookupHopsSig:vector  ETV
vector 729463  Network.dyn_peer[73]  lookupStabilitySig:vector  ETV
vector 729464  Network.dyn_peer[73]  lookupTimeSig:vector  ETV
vector 730380  Network.dyn_peer[379]  lookupHopsSig:vector  ETV
vector 730381  Network.dyn_peer[379]  lookupStabilitySig:vector  ETV
vector 730382  Network.dyn_peer[379]  lookupTimeSig:vector  ETV
vector 729798  Network.dyn_peer[185]  lookupHopsSig:vector  ETV
vector 729799  Network.dyn_peer[185]  lookupStabilitySig:vector  ETV
vector 729800  Network.dyn_peer[185]  lookupTimeSig:vector  ETV
vector 729801  Network.dyn_peer[186]  lookupHopsSig:vector  ETV
vector 729802  Network.dyn_peer[186]  lookupStabilitySig:vector  ETV
vector 729803  Network.dyn_peer[186]  lookupTimeSig:vector  ETV
vector 729861  Network.dyn_peer[206]  lookupHopsSig:vector  ETV
vector 729862  Network.dyn_peer[206]  lookupStabilitySig:vector  ETV
vector 729863  Network.dyn_peer[206]  lookupTimeSig:vector  ETV
vector 729864  Network.dyn_peer[207]  lookupHopsSig:vector  ETV
vector 729865  Network.dyn_peer[207]  lookupStabilitySig:vector  ETV
vector 729866  Network.dyn_peer[207]  lookupTimeSig:vector  ETV
vector 730173  Network.dyn_peer[310]  lookupHopsSig:vector  ETV
vector 730174  Network.dyn_peer[310]  lookupStabilitySig:vector  ETV
vector 730175  Network.dyn_peer[310]  lookupTimeSig:vector  ETV
vector 729333  Network.dyn_peer[30]  lookupHopsSig:vector  ETV
vector 729334  Network.dyn_peer[30]  lookupStabilitySig:vector  ETV
vector 729335  Network.dyn_peer[30]  lookupTimeSig:vector  ETV
vector 729363  Network.dyn_peer[40]  lookupHopsSig:vector  ETV
vector 729364  Network.dyn_peer[40]  lookupStabilitySig:vector  ETV
vector 729365  Network.dyn_peer[40]  lookupTimeSig:vector  ETV
vector 730314  Network.dyn_peer[357]  lookupHopsSig:vector  ETV
vector 730315  Network.dyn_peer[357]  lookupStabilitySig:vector  ETV
vector 730316  Network.dyn_peer[357]  lookupTimeSig:vector  ETV
vector 729438  Network.dyn_peer[65]  lookupHopsSig:vector  ETV
vector 729439  Network.dyn_peer[65]  lookupStabilitySig:vector  ETV
vector 729440  Network.dyn_peer[65]  lookupTimeSig:vector  ETV
vector 729453  Network.dyn_peer[70]  lookupHopsSig:vector  ETV
vector 729454  Network.dyn_peer[70]  lookupStabilitySig:vector  ETV
vector 729455  Network.dyn_peer[70]  lookupTimeSig:vector  ETV
vector 729774  Network.dyn_peer[177]  lookupHopsSig:vector  ETV
vector 729775  Network.dyn_peer[177]  lookupStabilitySig:vector  ETV
vector 729776  Network.dyn_peer[177]  lookupTimeSig:vector  ETV
vector 730392  Network.dyn_peer[383]  lookupHopsSig:vector  ETV
vector 730393  Network.dyn_peer[383]  lookupStabilitySig:vector  ETV
vector 730394  Network.dyn_peer[383]  lookupTimeSig:vector  ETV
vector 729795  Network.dyn_peer[184]  lookupHopsSig:vector  ETV
vector 729796  Network.dyn_peer[184]  lookupStabilitySig:vector  ETV
vector 729797  Network.dyn_peer[184]  lookupTimeSig:vector  ETV
vector 730395  Network.dyn_peer[384]  lookupHopsSig:vector  ETV
vector 730396  Network.dyn_peer[384]  lookupStabilitySig:vector  ETV
vector 730397  Network.dyn_peer[384]  lookupTimeSig:vector  ETV
vector 729522  Network.dyn_peer[93]  lookupHopsSig:vector  ETV
vector 729523  Network.dyn_peer[93]  lookupStabilitySig:vector  ETV
vector 729524  Network.dyn_peer[93]  lookupTimeSig:vector  ETV
vector 729873  Network.dyn_peer[210]  lookupHopsSig:vector  ETV
vector 729874  Network.dyn_peer[210]  lookupStabilitySig:vector  ETV
vector 729875  Network.dyn_peer[210]  lookupTimeSig:vector  ETV
vector 729894  Network.dyn_peer[217]  lookupHopsSig:vector  ETV
vector 729895  Network.dyn_peer[217]  lookupStabilitySig:vector  ETV
vector 729896  Network.dyn_peer[217]  lookupTimeSig:vector  ETV
vector 729321  Network.dyn_peer[26]  lookupHopsSig:vector  ETV
vector 729322  Network.dyn_peer[26]  lookupStabilitySig:vector  ETV
vector 729323  Network.dyn_peer[26]  lookupTimeSig:vector  ETV
vector 729636  Network.dyn_peer[131]  lookupHopsSig:vector  ETV
vector 729637  Network.dyn_peer[131]  lookupStabilitySig:vector  ETV
vector 729638  Network.dyn_peer[131]  lookupTimeSig:vector  ETV
vector 729339  Network.dyn_peer[32]  lookupHopsSig:vector  ETV
vector 729340  Network.dyn_peer[32]  lookupStabilitySig:vector  ETV
vector 729341  Network.dyn_peer[32]  lookupTimeSig:vector  ETV
vector 729642  Network.dyn_peer[133]  lookupHopsSig:vector  ETV
vector 729643  Network.dyn_peer[133]  lookupStabilitySig:vector  ETV
vector 729644  Network.dyn_peer[133]  lookupTimeSig:vector  ETV
vector 729345  Network.dyn_peer[34]  lookupHopsSig:vector  ETV
vector 729346  Network.dyn_peer[34]  lookupStabilitySig:vector  ETV
vector 729347  Network.dyn_peer[34]  lookupTimeSig:vector  ETV
vector 729657  Network.dyn_peer[138]  lookupHopsSig:vector  ETV
vector 729658  Network.dyn_peer[138]  lookupStabilitySig:vector  ETV
vector 729659  Network.dyn_peer[138]  lookupTimeSig:vector  ETV
vector 729960  Network.dyn_peer[239]  lookupHopsSig:vector  ETV
vector 729961  Network.dyn_peer[239]  lookupStabilitySig:vector  ETV
vector 729962  Network.dyn_peer[239]  lookupTimeSig:vector  ETV
vector 729978  Network.dyn_peer[245]  lookupHopsSig:vector  ETV
vector 729979  Network.dyn_peer[245]  lookupStabilitySig:vector  ETV
vector 729980  Network.dyn_peer[245]  lookupTimeSig:vector  ETV
vector 730017  Network.dyn_peer[258]  lookupHopsSig:vector  ETV
vector 730018  Network.dyn_peer[258]  lookupStabilitySig:vector  ETV
vector 730019  Network.dyn_peer[258]  lookupTimeSig:vector  ETV
vector 729420  Network.dyn_peer[59]  lookupHopsSig:vector  ETV
vector 729421  Network.dyn_peer[59]  lookupStabilitySig:vector  ETV
vector 729422  Network.dyn_peer[59]  lookupTimeSig:vector  ETV
vector 730023  Network.dyn_peer[260]  lookupHopsSig:vector  ETV
vector 730024  Network.dyn_peer[260]  lookupStabilitySig:vector  ETV
vector 730025  Network.dyn_peer[260]  lookupTimeSig:vector  ETV
vector 730326  Network.dyn_peer[361]  lookupHopsSig:vector  ETV
vector 730327  Network.dyn_peer[361]  lookupStabilitySig:vector  ETV
vector 730328  Network.dyn_peer[361]  lookupTimeSig:vector  ETV
vector 730041  Network.dyn_peer[266]  lookupHopsSig:vector  ETV
vector 730042  Network.dyn_peer[266]  lookupStabilitySig:vector  ETV
vector 730043  Network.dyn_peer[266]  lookupTimeSig:vector  ETV