file 5854 1369522275                                            
version 2
run Stability2-29-20130526-00:51:14-26640
attr configname Stability2
attr datetime 20130526-00:51:14
attr experiment Stability2
attr inifile omnetpp.ini
attr iterationvars $0=10
attr iterationvars2 "$0=10, $repetition=29"
attr measurement $0=10
attr network Network
attr processid 26640
attr repetition 29
attr replication #29
attr resultdir results
attr runnumber 29
attr seedset 29

vector 90029  Network.churner  inGoingSizeSig:vector  ETV
vector 87029  Network.dyn_peer[0]  lookupHopsSig:vector  ETV
vector 87030  Network.dyn_peer[0]  lookupStabilitySig:vector  ETV
vector 87031  Network.dyn_peer[0]  lookupTimeSig:vector  ETV
vector 87032  Network.dyn_peer[1]  lookupHopsSig:vector  ETV
vector 87033  Network.dyn_peer[1]  lookupStabilitySig:vector  ETV
vector 87034  Network.dyn_peer[1]  lookupTimeSig:vector  ETV
vector 87047  Network.dyn_peer[6]  lookupHopsSig:vector  ETV
vector 87048  Network.dyn_peer[6]  lookupStabilitySig:vector  ETV
vector 87049  Network.dyn_peer[6]  lookupTimeSig:vector  ETV
vector 87050  Network.dyn_peer[7]  lookupHopsSig:vector  ETV
vector 87051  Network.dyn_peer[7]  lookupStabilitySig:vector  ETV
vector 87052  Network.dyn_peer[7]  lookupTimeSig:vector  ETV
vector 87053  Network.dyn_peer[8]  lookupHopsSig:vector  ETV
vector 87054  Network.dyn_peer[8]  lookupStabilitySig:vector  ETV
vector 87055  Network.dyn_peer[8]  lookupTimeSig:vector  ETV
vector 87035  Network.dyn_peer[2]  lookupHopsSig:vector  ETV
vector 87036  Network.dyn_peer[2]  lookupStabilitySig:vector  ETV
vector 87037  Network.dyn_peer[2]  lookupTimeSig:vector  ETV
vector 87038  Network.dyn_peer[3]  lookupHopsSig:vector  ETV
vector 87039  Network.dyn_peer[3]  lookupStabilitySig:vector  ETV
vector 87040  Network.dyn_peer[3]  lookupTimeSig:vector  ETV
vector 87041  Network.dyn_peer[4]  lookupHopsSig:vector  ETV
vector 87042  Network.dyn_peer[4]  lookupStabilitySig:vector  ETV
vector 87043  Network.dyn_peer[4]  lookupTimeSig:vector  ETV
vector 87044  Network.dyn_peer[5]  lookupHopsSig:vector  ETV
vector 87045  Network.dyn_peer[5]  lookupStabilitySig:vector  ETV
vector 87046  Network.dyn_peer[5]  lookupTimeSig:vector  ETV
vector 87056  Network.dyn_peer[9]  lookupHopsSig:vector  ETV
vector 87057  Network.dyn_peer[9]  lookupStabilitySig:vector  ETV
vector 87058  Network.dyn_peer[9]  lookupTimeSig:vector  ETV
87029	2333 93 45 206 20.101 20.912757402011 4 1 2 6 10
87030	2426 153 45 206 20.101 20.912757402011 4 0.59999999403954 0.85714285075665 2.9238094985485 2.1791382858813
87031	2579 101 45 206 20.101 20.912757402011 4 0.1 0.3 0.9 0.23
87032	2680 93 50 226 20.102 21.012781689961 4 1 2 7 13
87033	2773 153 50 226 20.102 21.012781689961 4 0.59999999403954 0.79999999701977 2.7777777612209 1.9649382499559
87034	2926 101 50 226 20.102 21.012781689961 4 0.1 0.3 1 0.28
87035	3027 101 77 250 20.203 21.122776095698 4 1 3 8 18
87036	3128 161 77 250 20.203 21.122776095698 4 0.39999997615814 0.90909090638161 2.6233765780926 1.856650313226
87037	3289 109 77 250 20.203 21.122776095698 4 0.2 0.4 1.1 0.33
87038	3398 93 82 194 20.204 20.807906180897 4 1 2 5 7
87039	3491 153 82 194 20.204 20.807906180897 4 0.59999999403954 0.83333332836628 3.0333333164454 2.3344444194767
87040	3644 101 82 194 20.204 20.807906180897 4 0.2 0.2 0.8 0.16
87041	3745 130 87 266 20.205 21.327893295552 5 1 3 9 19
87042	3875 205 87 266 20.205 21.327893295552 5 0.39999997615814 0.91666666418314 3.5400432422757 2.6969280864507
87043	4080 140 87 266 20.205 21.327893295552 5 0.2 0.4 1.3 0.37
87044	4220 65 92 213 20.206 20.913292514452 3 2 3 7 17
87045	4285 110 92 213 20.206 20.913292514452 3 0.39999997615814 0.71428570151329 1.714285671711 1.0302040371603
87046	4395 71 92 213 20.206 20.913292514452 3 0.2 0.4 0.9 0.29
87047	4466 92 59 275 20.107 21.434134466169 4 1 6 11 45
87048	4558 137 59 275 20.107 21.434134466169 4 0 0.85714285075665 2.4753246605396 2.0441153405714
87049	4695 100 59 275 20.107 21.434134466169 4 0.1 0.7 1.4 0.68
87050	4795 65 64 180 20.108 20.708370313301 3 1 3 5 11
87051	4860 110 64 180 20.108 20.708370313301 3 0.39999997615814 0.79999999701977 1.9999999701977 1.4399999713898
87052	4970 71 64 180 20.108 20.708370313301 3 0.1 0.4 0.7 0.21
87053	5041 65 69 230 20.109 21.016190800317 3 1 4 8 26
87054	5106 110 69 230 20.109 21.016190800317 3 0.19999998807907 0.79999999701977 1.6666666418314 1.1244444216622
87055	5216 71 69 230 20.109 21.016190800317 3 0.1 0.5 1 0.42
87056	5287 102 103 272 20.21 21.345299037748 4 2 3 10 26
87057	5389 162 103 272 20.21 21.345299037748 4 0.39999997615814 0.84615384042263 2.5734265297651 1.7649019034482
87058	5551 110 103 272 20.21 21.345299037748 4 0.2 0.4 1.3 0.45
90029	5661 193 10 38 20 20.01 11 0 9 45 285
