version 2
run Stability2-78-20130526-00:51:29-26640
attr configname Stability2
attr datetime 20130526-00:51:29
attr experiment Stability2
attr inifile omnetpp.ini
attr iterationvars $0=30
attr iterationvars2 "$0=30, $repetition=18"
attr measurement $0=30
attr network Network
attr processid 26640
attr repetition 18
attr replication #18
attr resultdir results
attr runnumber 78
attr seedset 78

vector 237078  Network.churner  inGoingSizeSig:vector  ETV
vector 234081  Network.dyn_peer[1]  lookupHopsSig:vector  ETV
vector 234082  Network.dyn_peer[1]  lookupStabilitySig:vector  ETV
vector 234083  Network.dyn_peer[1]  lookupTimeSig:vector  ETV
vector 234114  Network.dyn_peer[12]  lookupHopsSig:vector  ETV
vector 234115  Network.dyn_peer[12]  lookupStabilitySig:vector  ETV
vector 234116  Network.dyn_peer[12]  lookupTimeSig:vector  ETV
vector 234120  Network.dyn_peer[14]  lookupHopsSig:vector  ETV
vector 234121  Network.dyn_peer[14]  lookupStabilitySig:vector  ETV
vector 234122  Network.dyn_peer[14]  lookupTimeSig:vector  ETV
vector 234126  Network.dyn_peer[16]  lookupHopsSig:vector  ETV
vector 234127  Network.dyn_peer[16]  lookupStabilitySig:vector  ETV
vector 234128  Network.dyn_peer[16]  lookupTimeSig:vector  ETV
vector 234150  Network.dyn_peer[24]  lookupHopsSig:vector  ETV
vector 234151  Network.dyn_peer[24]  lookupStabilitySig:vector  ETV
vector 234152  Network.dyn_peer[24]  lookupTimeSig:vector  ETV
vector 234165  Network.dyn_peer[29]  lookupHopsSig:vector  ETV
vector 234166  Network.dyn_peer[29]  lookupStabilitySig:vector  ETV
vector 234167  Network.dyn_peer[29]  lookupTimeSig:vector  ETV
vector 234084  Network.dyn_peer[2]  lookupHopsSig:vector  ETV
vector 234085  Network.dyn_peer[2]  lookupStabilitySig:vector  ETV
vector 234086  Network.dyn_peer[2]  lookupTimeSig:vector  ETV
vector 234093  Network.dyn_peer[5]  lookupHopsSig:vector  ETV
vector 234094  Network.dyn_peer[5]  lookupStabilitySig:vector  ETV
vector 234095  Network.dyn_peer[5]  lookupTimeSig:vector  ETV
vector 234108  Network.dyn_peer[10]  lookupHopsSig:vector  ETV
vector 234109  Network.dyn_peer[10]  lookupStabilitySig:vector  ETV
vector 234110  Network.dyn_peer[10]  lookupTimeSig:vector  ETV
vector 234123  Network.dyn_peer[15]  lookupHopsSig:vector  ETV
vector 234124  Network.dyn_peer[15]  lookupStabilitySig:vector  ETV
vector 234125  Network.dyn_peer[15]  lookupTimeSig:vector  ETV
vector 234144  Network.dyn_peer[22]  lookupHopsSig:vector  ETV
vector 234145  Network.dyn_peer[22]  lookupStabilitySig:vector  ETV
vector 234146  Network.dyn_peer[22]  lookupTimeSig:vector  ETV
vector 234159  Network.dyn_peer[27]  lookupHopsSig:vector  ETV
vector 234160  Network.dyn_peer[27]  lookupStabilitySig:vector  ETV
vector 234161  Network.dyn_peer[27]  lookupTimeSig:vector  ETV
vector 234078  Network.dyn_peer[0]  lookupHopsSig:vector  ETV
vector 234079  Network.dyn_peer[0]  lookupStabilitySig:vector  ETV
vector 234080  Network.dyn_peer[0]  lookupTimeSig:vector  ETV
vector 234087  Network.dyn_peer[3]  lookupHopsSig:vector  ETV
vector 234088  Network.dyn_peer[3]  lookupStabilitySig:vector  ETV
vector 234089  Network.dyn_peer[3]  lookupTimeSig:vector  ETV
vector 234096  Network.dyn_peer[6]  lookupHopsSig:vector  ETV
vector 234097  Network.dyn_peer[6]  lookupStabilitySig:vector  ETV
vector 234098  Network.dyn_peer[6]  lookupTimeSig:vector  ETV
vector 234099  Network.dyn_peer[7]  lookupHopsSig:vector  ETV
vector 234100  Network.dyn_peer[7]  lookupStabilitySig:vector  ETV
vector 234101  Network.dyn_peer[7]  lookupTimeSig:vector  ETV
vector 234102  Network.dyn_peer[8]  lookupHopsSig:vector  ETV
vector 234103  Network.dyn_peer[8]  lookupStabilitySig:vector  ETV
vector 234104  Network.dyn_peer[8]  lookupTimeSig:vector  ETV
vector 234132  Network.dyn_peer[18]  lookupHopsSig:vector  ETV
vector 234133  Network.dyn_peer[18]  lookupStabilitySig:vector  ETV
vector 234134  Network.dyn_peer[18]  lookupTimeSig:vector  ETV
vector 234138  Network.dyn_peer[20]  lookupHopsSig:vector  ETV
vector 234139  Network.dyn_peer[20]  lookupStabilitySig:vector  ETV
vector 234140  Network.dyn_peer[20]  lookupTimeSig:vector  ETV
vector 234147  Network.dyn_peer[23]  lookupHopsSig:vector  ETV
vector 234148  Network.dyn_peer[23]  lookupStabilitySig:vector  ETV
vector 234149  Network.dyn_peer[23]  lookupTimeSig:vector  ETV
vector 234156  Network.dyn_peer[26]  lookupHopsSig:vector  ETV
vector 234157  Network.dyn_peer[26]  lookupStabilitySig:vector  ETV
vector 234158  Network.dyn_peer[26]  lookupTimeSig:vector  ETV
vector 234090  Network.dyn_peer[4]  lookupHopsSig:vector  ETV
vector 234091  Network.dyn_peer[4]  lookupStabilitySig:vector  ETV
vector 234092  Network.dyn_peer[4]  lookupTimeSig:vector  ETV
vector 234111  Network.dyn_peer[11]  lookupHopsSig:vector  ETV
vector 234112  Network.dyn_peer[11]  lookupStabilitySig:vector  ETV
vector 234113  Network.dyn_peer[11]  lookupTimeSig:vector  ETV
vector 234117  Network.dyn_peer[13]  lookupHopsSig:vector  ETV
vector 234118  Network.dyn_peer[13]  lookupStabilitySig:vector  ETV
vector 234119  Network.dyn_peer[13]  lookupTimeSig:vector  ETV
vector 234129  Network.dyn_peer[17]  lookupHopsSig:vector  ETV
vector 234130  Network.dyn_peer[17]  lookupStabilitySig:vector  ETV
vector 234131  Network.dyn_peer[17]  lookupTimeSig:vector  ETV
vector 234141  Network.dyn_peer[21]  lookupHopsSig:vector  ETV
vector 234142  Network.dyn_peer[21]  lookupStabilitySig:vector  ETV
vector 234143  Network.dyn_peer[21]  lookupTimeSig:vector  ETV
vector 234105  Network.dyn_peer[9]  lookupHopsSig:vector  ETV
vector 234106  Network.dyn_peer[9]  lookupStabilitySig:vector  ETV
vector 234107  Network.dyn_peer[9]  lookupTimeSig:vector  ETV
vector 234162  Network.dyn_peer[28]  lookupHopsSig:vector  ETV
vector 234163  Network.dyn_peer[28]  lookupStabilitySig:vector  ETV
vector 234164  Network.dyn_peer[28]  lookupTimeSig:vector  ETV
vector 234153  Network.dyn_peer[25]  lookupHopsSig:vector  ETV
vector 234154  Network.dyn_peer[25]  lookupStabilitySig:vector  ETV
vector 234155  Network.dyn_peer[25]  lookupTimeSig:vector  ETV
vector 234135  Network.dyn_peer[19]  lookupHopsSig:vector  ETV
vector 234136  Network.dyn_peer[19]  lookupStabilitySig:vector  ETV
vector 234137  Network.dyn_peer[19]  lookupTimeSig:vector  ETV
234078	193	20.201	2
234078	504	20.801	5
234078	732	21.308768602862	4
234078	801	21.51166257357	1
234078	878	21.819290121605	2
234078	904	22.021404772614	1
234078	941	22.329282404385	2
234078	981	22.834009235974	4
234078	1002	23.143954414099	2
234078	1015	23.454626356099	2
234079	193	20.201	0.59999999403954
234079	504	20.801	0.16666668653488
234079	732	21.308768602862	0.73333331942558
234079	801	21.51166257357	0.9473684206605
234079	878	21.819290121605	0.92307692021132
234079	904	22.021404772614	0.96428571268916
234079	941	22.329282404385	0.93103448301554
234079	981	22.834009235974	0.86666665971279
234079	1002	23.143954414099	0.9375
234079	1015	23.454626356099	0.93939393758774
234080	193	20.201	0.2
234080	504	20.801	0.6
234080	732	21.308768602862	0.5
234080	801	21.51166257357	0.2
234080	878	21.819290121605	0.3
234080	904	22.021404772614	0.2
234080	941	22.329282404385	0.3
234080	981	22.834009235974	0.5
234080	1002	23.143954414099	0.3
234080	1015	23.454626356099	0.3
234081	20	20.002	0
234081	385	20.518162040191	4
234081	545	20.832102376587	2
234081	721	21.23930928954	3
234082	20	20.002	1
234082	385	20.518162040191	0.19999998807907
234082	545	20.832102376587	0.66666665673256
234082	721	21.23930928954	0.76923076808453
234083	20	20.002	0
234083	385	20.518162040191	0.5
234083	545	20.832102376587	0.3
234083	721	21.23930928954	0.4
234084	135	20.103	1
234084	318	20.403	2
234084	466	20.710006208085	2
234084	744	21.315951032832	5
234085	135	20.103	0.79999999701977
234085	318	20.403	0.59999999403954
234085	466	20.710006208085	0.59999999403954
234085	744	21.315951032832	0.66666665673256
234086	135	20.103	0.1
234086	318	20.403	0.3
234086	466	20.710006208085	0.3
234086	744	21.315951032832	0.6
234087	199	20.204	2
234087	730	21.305772121826	10
234087	874	21.810928316421	4
234088	199	20.204	0.59999999403954
234088	730	21.305772121826	0.33333331346512
234088	874	21.810928316421	0.84000000357628
234089	199	20.204	0.2
234089	730	21.305772121826	1.1
234089	874	21.810928316421	0.5
234090	268	20.305	3
234090	691	21.205	8
234090	857	21.713529493287	4
234090	926	22.2144471921	4
234090	965	22.618144340882	3
234090	996	23.127512945773	4
234091	268	20.305	0.39999997615814
234091	691	21.205	0.33333331346512
234091	857	21.713529493287	0.83333332836628
234091	926	22.2144471921	0.85714285075665
234091	965	22.618144340882	0.89999999850988
234091	996	23.127512945773	0.87096774578094
234092	268	20.305	0.3
234092	691	21.205	0.9
234092	857	21.713529493287	0.5
234092	926	22.2144471921	0.5
234092	965	22.618144340882	0.4
234092	996	23.127512945773	0.5
234093	142	20.106	1
234093	444	20.626180501937	4
234093	635	21.028825683002	3
234093	766	21.337102243543	2
234094	142	20.106	0.79999999701977
234094	444	20.626180501937	0.19999998807907
234094	635	21.028825683002	0.625
234094	766	21.337102243543	0.88888888806105
234095	142	20.106	0.1
234095	444	20.626180501937	0.5
234095	635	21.028825683002	0.4
234095	766	21.337102243543	0.3
234096	206	20.207	2
234096	562	20.907	6
234096	667	21.120041936727	1
234096	753	21.323767700821	1
234096	868	21.732877497309	3
234097	206	20.207	0.59999999403954
234097	562	20.907	0
234097	667	21.120041936727	0.89999999850988
234097	753	21.323767700821	0.9411764703691
234097	868	21.732877497309	0.875
234098	206	20.207	0.2
234098	562	20.907	0.7
234098	667	21.120041936727	0.2
234098	753	21.323767700821	0.2
234098	868	21.732877497309	0.4
234099	211	20.208	2
234099	372	20.508	2
234099	742	21.314676273818	7
234100	211	20.208	0.59999999403954
234100	372	20.508	0.59999999403954
234100	742	21.314676273818	0.53333333134651
234101	211	20.208	0.2
234101	372	20.508	0.3
234101	742	21.314676273818	0.8
234102	216	20.209	2
234102	772	21.409	11
234102	860	21.718052422859	2
234102	916	22.118374938856	3
234102	957	22.527187458882	3
234102	973	22.728114102703	1
234102	1008	23.229394791814	4
234103	216	20.209	0.59999999403954
234103	772	21.409	0.42105263471603
234103	860	21.718052422859	0.91666666418314
234103	916	22.118374938856	0.89285714179277
234103	957	22.527187458882	0.89999999850988
234103	973	22.728114102703	0.9666666649282
234103	1008	23.229394791814	0.875
234104	216	20.209	0.2
234104	772	21.409	1.2
234104	860	21.718052422859	0.3
234104	916	22.118374938856	0.4
234104	957	22.527187458882	0.4
234104	973	22.728114102703	0.2
234104	1008	23.229394791814	0.5
234105	329	20.41	4
234105	566	20.91	4
234105	804	21.517344859547	5
234106	329	20.41	0.19999998807907
234106	566	20.91	0.33333331346512
234106	804	21.517344859547	0.7368420958519
234107	329	20.41	0.4
234107	566	20.91	0.5
234107	804	21.517344859547	0.6
234108	151	20.111	1
234108	657	21.111	9
234109	151	20.111	0.79999999701977
234109	657	21.111	0.10000002384186
234110	151	20.111	0.1
234110	657	21.111	1
234111	280	20.312	3
234111	471	20.712	3
234111	573	20.912929501676	1
234111	808	21.52064889749	5
234112	280	20.312	0.39999997615814
234112	471	20.712	0.39999997615814
234112	573	20.912929501676	0.83333332836628
234112	808	21.52064889749	0.7368420958519
234113	280	20.312	0.3
234113	471	20.712	0.4
234113	573	20.912929501676	0.2
234113	808	21.52064889749	0.6
234114	58	20.013	0
234114	222	20.213	1
234114	480	20.718053148206	4
234114	707	21.227670635812	4
234115	58	20.013	1
234115	222	20.213	0.79999999701977
234115	480	20.718053148206	0.19999998807907
234115	707	21.227670635812	0.66666665673256
234116	58	20.013	0
234116	222	20.213	0.2
234116	480	20.718053148206	0.5
234116	707	21.227670635812	0.5
234117	286	20.314	3
234117	779	21.414	10
234117	864	21.721012418271	2
234117	906	22.021643335112	2
234117	929	22.221975688085	1
234117	960	22.530734330311	2
234117	983	22.83410130795	2
234118	286	20.314	0.39999997615814
234118	779	21.414	0.4736841917038
234118	864	21.721012418271	0.91666666418314
234118	906	22.021643335112	0.92857142537832
234118	929	22.221975688085	0.96428571268916
234118	960	22.530734330311	0.9333333298564
234118	983	22.83410130795	0.9333333298564
234119	286	20.314	0.3
234119	779	21.414	1.1
234119	864	21.721012418271	0.3
234119	906	22.021643335112	0.3
234119	929	22.221975688085	0.2
234119	960	22.530734330311	0.3
234119	983	22.83410130795	0.3
234120	68	20.015	0
234120	234	20.220068197974	1
234120	588	20.925772597752	6
234121	68	20.015	1
234121	234	20.220068197974	0.79999999701977
234121	588	20.925772597752	0
234122	68	20.015	0
234122	234	20.220068197974	0.2
234122	588	20.925772597752	0.7
234123	160	20.116	1
234123	343	20.420159090274	2
234123	530	20.824301645188	3
234123	639	21.0296633385	1
234124	160	20.116	0.79999999701977
234124	343	20.420159090274	0.59999999403954
234124	530	20.824301645188	0.5
234124	639	21.0296633385	0.875
234125	160	20.116	0.1
234125	343	20.420159090274	0.3
234125	530	20.824301645188	0.4
234125	639	21.0296633385	0.2
234126	78	20.017	0
234126	532	20.825770382597	7
234126	762	21.332731242379	4
234126	830	21.542352101911	1
234126	889	21.845558471736	2
234126	936	22.250341193401	3
234127	78	20.017	1
234127	532	20.825770382597	-0.16666662693024
234127	762	21.332731242379	0.77777777612209
234127	830	21.542352101911	0.9545454531908
234127	889	21.845558471736	0.92592592537403
234127	936	22.250341193401	0.89285714179277
234128	78	20.017	0
234128	532	20.825770382597	0.8
234128	762	21.332731242379	0.5
234128	830	21.542352101911	0.2
234128	889	21.845558471736	0.3
234128	936	22.250341193401	0.4
234129	291	20.318	3
234129	519	20.818	4
234129	748	21.320739544839	4
234130	291	20.318	0.39999997615814
234130	519	20.818	0.33333331346512
234130	748	21.320739544839	0.73333331942558
234131	291	20.318	0.3
234131	519	20.818	0.5
234131	748	21.320739544839	0.5
234132	231	20.219	2
234132	428	20.619	3
234132	625	21.022161161104	3
234132	817	21.530298243771	4
234133	231	20.219	0.59999999403954
234133	428	20.619	0.39999997615814
234133	625	21.022161161104	0.5714285671711
234133	817	21.530298243771	0.80952380597591
234134	231	20.219	0.2
234134	428	20.619	0.4
234134	625	21.022161161104	0.4
234134	817	21.530298243771	0.5
234135	434	20.62	6
234135	665	21.12	4
234135	813	21.528170525515	3
234135	882	21.831568056092	2
234136	434	20.62	-0.20000004768372
234136	665	21.12	0.59999999403954
234136	813	21.528170525515	0.85714285075665
234136	882	21.831568056092	0.92307692021132
234137	434	20.62	0.6
234137	665	21.12	0.5
234137	813	21.528170525515	0.4
234137	882	21.831568056092	0.3
234138	240	20.221	2
234138	672	21.121	8
234138	844	21.624771028828	4
234139	240	20.221	0.59999999403954
234139	672	21.121	0.27272725105286
234139	844	21.624771028828	0.81818181276321
234140	240	20.221	0.2
234140	672	21.121	0.9
234140	844	21.624771028828	0.5
234141	303	20.322	3
234141	526	20.822	4
234141	631	21.027234617709	1
234141	847	21.62952527075	5
234142	303	20.322	0.39999997615814
234142	526	20.822	0.33333331346512
234142	631	21.027234617709	0.875
234142	847	21.62952527075	0.78260870277882
234143	303	20.322	0.3
234143	526	20.822	0.5
234143	631	21.027234617709	0.2
234143	847	21.62952527075	0.6
234144	174	20.123	1
234144	451	20.630062388234	4
234144	554	20.841008335075	1
234144	689	21.166253759023	2
234145	174	20.123	0.79999999701977
234145	451	20.630062388234	0.19999998807907
234145	554	20.841008335075	0.83333332836628
234145	689	21.166253759023	0.81818181276321
234146	174	20.123	0.1
234146	451	20.630062388234	0.5
234146	554	20.841008335075	0.2
234146	689	21.166253759023	0.3
234147	246	20.224	2
234147	627	21.024	7
234148	246	20.224	0.59999999403954
234148	627	21.024	0
234149	246	20.224	0.2
234149	627	21.024	0.8
234150	108	20.025	0
234150	364	20.432998660677	3
234150	500	20.738775787169	2
234151	108	20.025	1
234151	364	20.432998660677	0.39999997615814
234151	500	20.738775787169	0.59999999403954
234152	108	20.025	0
234152	364	20.432998660677	0.4
234152	500	20.738775787169	0.3
234153	400	20.526	5
234153	629	21.026	4
234153	788	21.428961513218	3
234153	885	21.834480788096	3
234153	922	22.139015773481	2
234153	946	22.348938221996	1
234154	400	20.526	0
234154	629	21.026	0.5
234154	788	21.428961513218	0.84210526943207
234154	885	21.834480788096	0.88888888806105
234154	922	22.139015773481	0.92857142537832
234154	946	22.348938221996	0.96551724150777
234155	400	20.526	0.5
234155	629	21.026	0.5
234155	788	21.428961513218	0.4
234155	885	21.834480788096	0.4
234155	922	22.139015773481	0.3
234155	946	22.348938221996	0.2
234156	255	20.227	2
234156	403	20.527	2
234156	821	21.534432678339	9
234156	910	22.034552897305	4
234156	953	22.434804924211	3
234156	1000	23.142047134944	6
234156	1019	23.64934480123	4
234156	1026	24.154852958568	4
234156	1031	24.459536612878	2
234157	255	20.227	0.59999999403954
234157	403	20.527	0.59999999403954
234157	821	21.534432678339	0.5714285671711
234157	910	22.034552897305	0.85714285075665
234157	953	22.434804924211	0.89999999850988
234157	1000	23.142047134944	0.8125
234157	1019	23.64934480123	0.8823529407382
234157	1026	24.154852958568	0.8823529407382
234157	1031	24.459536612878	0.9411764703691
234158	255	20.227	0.2
234158	403	20.527	0.3
234158	821	21.534432678339	1
234158	910	22.034552897305	0.5
234158	953	22.434804924211	0.4
234158	1000	23.142047134944	0.7
234158	1019	23.64934480123	0.5
234158	1026	24.154852958568	0.5
234158	1031	24.459536612878	0.3
234159	184	20.128	1
234159	355	20.428	2
234159	598	20.935254038478	4
234159	723	21.241594020843	2
234160	184	20.128	0.79999999701977
234160	355	20.428	0.59999999403954
234160	598	20.935254038478	0.42857140302658
234160	723	21.241594020843	0.84615384042263
234161	184	20.128	0.1
234161	355	20.428	0.3
234161	598	20.935254038478	0.5
234161	723	21.241594020843	0.3
234162	360	20.429	4
234162	448	20.629	1
234162	826	21.538783958136	8
234162	892	21.854801321129	2
234163	360	20.429	0.19999998807907
234163	448	20.629	0.79999999701977
234163	826	21.538783958136	0.63636362552643
234163	892	21.854801321129	0.92592592537403
234164	360	20.429	0.4
234164	448	20.629	0.2
234164	826	21.538783958136	0.9
234164	892	21.854801321129	0.3
234165	128	20.03	0
234165	543	20.83	7
234165	646	21.039023835989	1
234166	128	20.03	1
234166	543	20.83	-0.16666662693024
234166	646	21.039023835989	0.88888888806105
234167	128	20.03	0
234167	543	20.83	0.8
234167	646	21.039023835989	0.2
237078	10	20	0
237078	11	20.001	0
237078	14	20.002	1
237078	21	20.003	2
237078	24	20.004	3
237078	27	20.005	4
237078	30	20.006	5
237078	33	20.007	6
237078	36	20.008	7
237078	39	20.009	8
237078	43	20.01	9
237078	46	20.011	10
237078	49	20.012	11
237078	52	20.013	12
237078	59	20.014	13
237078	62	20.015	14
237078	69	20.016	15
237078	72	20.017	16
237078	79	20.018	17
237078	83	20.019	18
237078	86	20.02	19
237078	90	20.021	20
237078	93	20.022	21
237078	96	20.023	22
237078	99	20.024	23
237078	102	20.025	24
237078	110	20.026	25
237078	113	20.027	26
237078	116	20.028	27
237078	119	20.029	28
237078	122	20.03	29
