version 2
run Stability2-8-20130526-00:51:09-26640
attr configname Stability2
attr datetime 20130526-00:51:09
attr experiment Stability2
attr inifile omnetpp.ini
attr iterationvars $0=10
attr iterationvars2 "$0=10, $repetition=8"
attr measurement $0=10
attr network Network
attr processid 26640
attr repetition 8
attr replication #8
attr resultdir results
attr runnumber 8
attr seedset 8

vector 27008  Network.churner  inGoingSizeSig:vector  ETV
vector 24008  Network.dyn_peer[0]  lookupHopsSig:vector  ETV
vector 24009  Network.dyn_peer[0]  lookupStabilitySig:vector  ETV
vector 24010  Network.dyn_peer[0]  lookupTimeSig:vector  ETV
vector 24017  Network.dyn_peer[3]  lookupHopsSig:vector  ETV
vector 24018  Network.dyn_peer[3]  lookupStabilitySig:vector  ETV
vector 24019  Network.dyn_peer[3]  lookupTimeSig:vector  ETV
vector 24023  Network.dyn_peer[5]  lookupHopsSig:vector  ETV
vector 24024  Network.dyn_peer[5]  lookupStabilitySig:vector  ETV
vector 24025  Network.dyn_peer[5]  lookupTimeSig:vector  ETV
vector 24011  Network.dyn_peer[1]  lookupHopsSig:vector  ETV
vector 24012  Network.dyn_peer[1]  lookupStabilitySig:vector  ETV
vector 24013  Network.dyn_peer[1]  lookupTimeSig:vector  ETV
vector 24032  Network.dyn_peer[8]  lookupHopsSig:vector  ETV
vector 24033  Network.dyn_peer[8]  lookupStabilitySig:vector  ETV
vector 24034  Network.dyn_peer[8]  lookupTimeSig:vector  ETV
vector 24014  Network.dyn_peer[2]  lookupHopsSig:vector  ETV
vector 24015  Network.dyn_peer[2]  lookupStabilitySig:vector  ETV
vector 24016  Network.dyn_peer[2]  lookupTimeSig:vector  ETV
vector 24029  Network.dyn_peer[7]  lookupHopsSig:vector  ETV
vector 24030  Network.dyn_peer[7]  lookupStabilitySig:vector  ETV
vector 24031  Network.dyn_peer[7]  lookupTimeSig:vector  ETV
vector 24035  Network.dyn_peer[9]  lookupHopsSig:vector  ETV
vector 24036  Network.dyn_peer[9]  lookupStabilitySig:vector  ETV
vector 24037  Network.dyn_peer[9]  lookupTimeSig:vector  ETV
vector 24020  Network.dyn_peer[4]  lookupHopsSig:vector  ETV
vector 24021  Network.dyn_peer[4]  lookupStabilitySig:vector  ETV
vector 24022  Network.dyn_peer[4]  lookupTimeSig:vector  ETV
vector 24026  Network.dyn_peer[6]  lookupHopsSig:vector  ETV
vector 24027  Network.dyn_peer[6]  lookupStabilitySig:vector  ETV
vector 24028  Network.dyn_peer[6]  lookupTimeSig:vector  ETV
24008	18	20.001	0
24008	107	20.301	2
24008	169	20.602760355457	2
24009	18	20.001	1
24009	107	20.301	0.59999999403954
24009	169	20.602760355457	0.59999999403954
24010	18	20.001	0
24010	107	20.301	0.3
24010	169	20.602760355457	0.3
24011	64	20.102	1
24011	181	20.608269018181	4
24012	64	20.102	0.79999999701977
24012	181	20.608269018181	0.33333331346512
24013	64	20.102	0.1
24013	181	20.608269018181	0.5
24014	88	20.203	2
24014	171	20.603	3
24014	247	20.925229710354	2
24014	285	21.229923197379	2
24015	88	20.203	0.59999999403954
24015	171	20.603	0.39999997615814
24015	247	20.925229710354	0.75
24015	285	21.229923197379	0.83333332836628
24016	88	20.203	0.2
24016	171	20.603	0.4
24016	247	20.925229710354	0.3
24016	285	21.229923197379	0.3
24017	31	20.004	0
24017	173	20.604465407953	5
24017	270	21.112432619794	4
24018	31	20.004	1
24018	173	20.604465407953	0
24018	270	21.112432619794	0.55555555224419
24019	31	20.004	0
24019	173	20.604465407953	0.6
24019	270	21.112432619794	0.5
24020	136	20.405	4
24020	175	20.605	1
24020	264	21.019479019989	3
24021	136	20.405	0.19999998807907
24021	175	20.605	0.79999999701977
24021	264	21.019479019989	0.625
24022	136	20.405	0.4
24022	175	20.605	0.2
24022	264	21.019479019989	0.4
24023	43	20.006	0
24023	138	20.406	3
24023	210	20.713920633035	2
24024	43	20.006	1
24024	138	20.406	0.39999997615814
24024	210	20.713920633035	0.71428570151329
24025	43	20.006	0
24025	138	20.406	0.4
24025	210	20.713920633035	0.3
24026	156	20.507	5
24026	234	20.907	3
24026	292	21.330910581038	3
24027	156	20.507	0
24027	234	20.907	0.625
24027	292	21.330910581038	0.78571428358555
24028	156	20.507	0.5
24028	234	20.907	0.4
24028	292	21.330910581038	0.4
24029	99	20.208	2
24029	205	20.708	4
24029	254	21.008018031056	2
24029	289	21.31582105655	2
24030	99	20.208	0.59999999403954
24030	205	20.708	0.42857140302658
24030	254	21.008018031056	0.75
24030	289	21.31582105655	0.84615384042263
24031	99	20.208	0.2
24031	205	20.708	0.5
24031	254	21.008018031056	0.3
24031	289	21.31582105655	0.3
24032	78	20.109	1
24032	225	20.811000609023	6
24032	272	21.113716103655	2
24033	78	20.109	0.79999999701977
24033	225	20.811000609023	0.25
24033	272	21.113716103655	0.79999999701977
24034	78	20.109	0.1
24034	225	20.811000609023	0.7
24034	272	21.113716103655	0.3
24035	121	20.31	3
24035	184	20.61	2
24035	244	20.924637478193	2
24035	279	21.134102536796	1
24036	121	20.31	0.39999997615814
24036	184	20.61	0.71428570151329
24036	244	20.924637478193	0.75
24036	279	21.134102536796	0.90909090638161
24037	121	20.31	0.3
24037	184	20.61	0.3
24037	244	20.924637478193	0.3
24037	279	21.134102536796	0.2
27008	11	20	0
27008	12	20.001	0
27008	19	20.002	1
27008	22	20.003	2
27008	25	20.004	3
27008	33	20.005	4
27008	37	20.006	5
27008	44	20.007	6
27008	47	20.008	7
27008	50	20.009	8
27008	54	20.01	9
