file 5173 1369522274                                            
version 2
run Stability2-27-20130526-00:51:14-26640
attr configname Stability2
attr datetime 20130526-00:51:14
attr experiment Stability2
attr inifile omnetpp.ini
attr iterationvars $0=10
attr iterationvars2 "$0=10, $repetition=27"
attr measurement $0=10
attr network Network
attr processid 26640
attr repetition 27
attr replication #27
attr resultdir results
attr runnumber 27
attr seedset 27

vector 84027  Network.churner  inGoingSizeSig:vector  ETV
vector 81027  Network.dyn_peer[0]  lookupHopsSig:vector  ETV
vector 81028  Network.dyn_peer[0]  lookupStabilitySig:vector  ETV
vector 81029  Network.dyn_peer[0]  lookupTimeSig:vector  ETV
vector 81033  Network.dyn_peer[2]  lookupHopsSig:vector  ETV
vector 81034  Network.dyn_peer[2]  lookupStabilitySig:vector  ETV
vector 81035  Network.dyn_peer[2]  lookupTimeSig:vector  ETV
vector 81042  Network.dyn_peer[5]  lookupHopsSig:vector  ETV
vector 81043  Network.dyn_peer[5]  lookupStabilitySig:vector  ETV
vector 81044  Network.dyn_peer[5]  lookupTimeSig:vector  ETV
vector 81048  Network.dyn_peer[7]  lookupHopsSig:vector  ETV
vector 81049  Network.dyn_peer[7]  lookupStabilitySig:vector  ETV
vector 81050  Network.dyn_peer[7]  lookupTimeSig:vector  ETV
vector 81036  Network.dyn_peer[3]  lookupHopsSig:vector  ETV
vector 81037  Network.dyn_peer[3]  lookupStabilitySig:vector  ETV
vector 81038  Network.dyn_peer[3]  lookupTimeSig:vector  ETV
vector 81054  Network.dyn_peer[9]  lookupHopsSig:vector  ETV
vector 81055  Network.dyn_peer[9]  lookupStabilitySig:vector  ETV
vector 81056  Network.dyn_peer[9]  lookupTimeSig:vector  ETV
vector 81030  Network.dyn_peer[1]  lookupHopsSig:vector  ETV
vector 81031  Network.dyn_peer[1]  lookupStabilitySig:vector  ETV
vector 81032  Network.dyn_peer[1]  lookupTimeSig:vector  ETV
vector 81039  Network.dyn_peer[4]  lookupHopsSig:vector  ETV
vector 81040  Network.dyn_peer[4]  lookupStabilitySig:vector  ETV
vector 81041  Network.dyn_peer[4]  lookupTimeSig:vector  ETV
vector 81045  Network.dyn_peer[6]  lookupHopsSig:vector  ETV
vector 81046  Network.dyn_peer[6]  lookupStabilitySig:vector  ETV
vector 81047  Network.dyn_peer[6]  lookupTimeSig:vector  ETV
vector 81051  Network.dyn_peer[8]  lookupHopsSig:vector  ETV
vector 81052  Network.dyn_peer[8]  lookupStabilitySig:vector  ETV
vector 81053  Network.dyn_peer[8]  lookupTimeSig:vector  ETV
81027	2333 93 18 253 20.001 21.016084701351 4 0 5 7 27
81028	2426 112 18 253 20.001 21.016084701351 4 0 1 2.7980769202113 2.6176960006268
81029	2538 99 18 253 20.001 21.016084701351 4 0 0.6 1 0.44
81030	2637 65 90 185 20.202 20.613201925577 3 1 2 4 6
81031	2702 110 90 185 20.202 20.613201925577 3 0.59999999403954 0.79999999701977 2.1999999880791 1.6399999833107
81032	2812 71 90 185 20.202 20.613201925577 3 0.2 0.2 0.6 0.12
81033	2883 65 30 217 20.003 20.806191745728 3 0 3 6 18
81034	2948 84 30 217 20.003 20.806191745728 3 0.39999997615814 1 2.0249999761581 1.5506249809265
81035	3032 69 30 217 20.003 20.806191745728 3 0 0.4 0.8 0.32
81036	3101 65 72 181 20.104 20.610813062918 3 1 2 4 6
81037	3166 110 72 181 20.104 20.610813062918 3 0.59999999403954 0.79999999701977 2.1999999880791 1.6399999833107
81038	3276 71 72 181 20.104 20.610813062918 3 0.1 0.3 0.6 0.14
81039	3347 66 130 246 20.405 21.005219472351 3 2 4 8 24
81040	3413 111 130 246 20.405 21.005219472351 3 0.19999998807907 0.81818181276321 1.7324675023556 1.2196255373545
81041	3524 72 130 246 20.405 21.005219472351 3 0.3 0.4 1 0.34
81042	3596 102 44 240 20.006 20.921181025805 4 0 3 6 14
81043	3698 147 44 240 20.006 20.921181025805 4 0.39999997615814 1 3.0142856761813 2.4802040416306
81044	3845 108 44 240 20.006 20.921181025805 4 0 0.4 0.9 0.29
81045	3953 66 136 258 20.407 21.112970901749 3 2 4 9 29
81046	4019 100 136 258 20.407 21.112970901749 3 0.19999998807907 0.85714285075665 1.6821428388357 1.1653188618349
81047	4119 72 136 258 20.407 21.112970901749 3 0.3 0.4 1.1 0.41
81048	4191 92 54 223 20.008 20.81195312571 4 0 2 5 9
81049	4283 125 54 223 20.008 20.81195312571 4 0.59999999403954 1 3.1499999910593 2.5624999880791
81050	4408 98 54 223 20.008 20.81195312571 4 0 0.3 0.8 0.22
81051	4506 66 158 249 20.509 21.010910491024 3 1 5 8 30
81052	4572 96 158 249 20.509 21.010910491024 3 0 0.85714285075665 1.6904761791229 1.4291383027693
81053	4668 72 158 249 20.509 21.010910491024 3 0.2 0.5 1 0.38
81054	4740 63 82 209 20.11 20.718882104966 3 1 2 5 9
81055	4803 108 82 209 20.11 20.718882104966 3 0.59999999403954 0.79999999701977 2.1142856925726 1.5102040514654
81056	4911 69 82 209 20.11 20.718882104966 3 0.1 0.3 0.7 0.19
84027	4980 193 11 59 20 20.01 11 0 9 45 285
