file 18983 1369522283                                           
version 2
run Stability2-60-20130526-00:51:23-26640
attr configname Stability2
attr datetime 20130526-00:51:23
attr experiment Stability2
attr inifile omnetpp.ini
attr iterationvars $0=30
attr iterationvars2 "$0=30, $repetition=0"
attr measurement $0=30
attr network Network
attr processid 26640
attr repetition 0
attr replication #0
attr resultdir results
attr runnumber 60
attr seedset 60

vector 183060  Network.churner  inGoingSizeSig:vector  ETV
vector 180084  Network.dyn_peer[8]  lookupHopsSig:vector  ETV
vector 180085  Network.dyn_peer[8]  lookupStabilitySig:vector  ETV
vector 180086  Network.dyn_peer[8]  lookupTimeSig:vector  ETV
vector 180090  Network.dyn_peer[10]  lookupHopsSig:vector  ETV
vector 180091  Network.dyn_peer[10]  lookupStabilitySig:vector  ETV
vector 180092  Network.dyn_peer[10]  lookupTimeSig:vector  ETV
vector 180093  Network.dyn_peer[11]  lookupHopsSig:vector  ETV
vector 180094  Network.dyn_peer[11]  lookupStabilitySig:vector  ETV
vector 180095  Network.dyn_peer[11]  lookupTimeSig:vector  ETV
vector 180108  Network.dyn_peer[16]  lookupHopsSig:vector  ETV
vector 180109  Network.dyn_peer[16]  lookupStabilitySig:vector  ETV
vector 180110  Network.dyn_peer[16]  lookupTimeSig:vector  ETV
vector 180123  Network.dyn_peer[21]  lookupHopsSig:vector  ETV
vector 180124  Network.dyn_peer[21]  lookupStabilitySig:vector  ETV
vector 180125  Network.dyn_peer[21]  lookupTimeSig:vector  ETV
vector 180126  Network.dyn_peer[22]  lookupHopsSig:vector  ETV
vector 180127  Network.dyn_peer[22]  lookupStabilitySig:vector  ETV
vector 180128  Network.dyn_peer[22]  lookupTimeSig:vector  ETV
vector 180063  Network.dyn_peer[1]  lookupHopsSig:vector  ETV
vector 180064  Network.dyn_peer[1]  lookupStabilitySig:vector  ETV
vector 180065  Network.dyn_peer[1]  lookupTimeSig:vector  ETV
vector 180066  Network.dyn_peer[2]  lookupHopsSig:vector  ETV
vector 180067  Network.dyn_peer[2]  lookupStabilitySig:vector  ETV
vector 180068  Network.dyn_peer[2]  lookupTimeSig:vector  ETV
vector 180072  Network.dyn_peer[4]  lookupHopsSig:vector  ETV
vector 180073  Network.dyn_peer[4]  lookupStabilitySig:vector  ETV
vector 180074  Network.dyn_peer[4]  lookupTimeSig:vector  ETV
vector 180078  Network.dyn_peer[6]  lookupHopsSig:vector  ETV
vector 180079  Network.dyn_peer[6]  lookupStabilitySig:vector  ETV
vector 180080  Network.dyn_peer[6]  lookupTimeSig:vector  ETV
vector 180096  Network.dyn_peer[12]  lookupHopsSig:vector  ETV
vector 180097  Network.dyn_peer[12]  lookupStabilitySig:vector  ETV
vector 180098  Network.dyn_peer[12]  lookupTimeSig:vector  ETV
vector 180102  Network.dyn_peer[14]  lookupHopsSig:vector  ETV
vector 180103  Network.dyn_peer[14]  lookupStabilitySig:vector  ETV
vector 180104  Network.dyn_peer[14]  lookupTimeSig:vector  ETV
vector 180105  Network.dyn_peer[15]  lookupHopsSig:vector  ETV
vector 180106  Network.dyn_peer[15]  lookupStabilitySig:vector  ETV
vector 180107  Network.dyn_peer[15]  lookupTimeSig:vector  ETV
vector 180111  Network.dyn_peer[17]  lookupHopsSig:vector  ETV
vector 180112  Network.dyn_peer[17]  lookupStabilitySig:vector  ETV
vector 180113  Network.dyn_peer[17]  lookupTimeSig:vector  ETV
vector 180117  Network.dyn_peer[19]  lookupHopsSig:vector  ETV
vector 180118  Network.dyn_peer[19]  lookupStabilitySig:vector  ETV
vector 180119  Network.dyn_peer[19]  lookupTimeSig:vector  ETV
vector 180129  Network.dyn_peer[23]  lookupHopsSig:vector  ETV
vector 180130  Network.dyn_peer[23]  lookupStabilitySig:vector  ETV
vector 180131  Network.dyn_peer[23]  lookupTimeSig:vector  ETV
vector 180138  Network.dyn_peer[26]  lookupHopsSig:vector  ETV
vector 180139  Network.dyn_peer[26]  lookupStabilitySig:vector  ETV
vector 180140  Network.dyn_peer[26]  lookupTimeSig:vector  ETV
vector 180069  Network.dyn_peer[3]  lookupHopsSig:vector  ETV
vector 180070  Network.dyn_peer[3]  lookupStabilitySig:vector  ETV
vector 180071  Network.dyn_peer[3]  lookupTimeSig:vector  ETV
vector 180087  Network.dyn_peer[9]  lookupHopsSig:vector  ETV
vector 180088  Network.dyn_peer[9]  lookupStabilitySig:vector  ETV
vector 180089  Network.dyn_peer[9]  lookupTimeSig:vector  ETV
vector 180120  Network.dyn_peer[20]  lookupHopsSig:vector  ETV
vector 180121  Network.dyn_peer[20]  lookupStabilitySig:vector  ETV
vector 180122  Network.dyn_peer[20]  lookupTimeSig:vector  ETV
vector 180135  Network.dyn_peer[25]  lookupHopsSig:vector  ETV
vector 180136  Network.dyn_peer[25]  lookupStabilitySig:vector  ETV
vector 180137  Network.dyn_peer[25]  lookupTimeSig:vector  ETV
vector 180141  Network.dyn_peer[27]  lookupHopsSig:vector  ETV
vector 180142  Network.dyn_peer[27]  lookupStabilitySig:vector  ETV
vector 180143  Network.dyn_peer[27]  lookupTimeSig:vector  ETV
vector 180060  Network.dyn_peer[0]  lookupHopsSig:vector  ETV
vector 180061  Network.dyn_peer[0]  lookupStabilitySig:vector  ETV
vector 180062  Network.dyn_peer[0]  lookupTimeSig:vector  ETV
vector 180081  Network.dyn_peer[7]  lookupHopsSig:vector  ETV
vector 180082  Network.dyn_peer[7]  lookupStabilitySig:vector  ETV
vector 180083  Network.dyn_peer[7]  lookupTimeSig:vector  ETV
vector 180114  Network.dyn_peer[18]  lookupHopsSig:vector  ETV
vector 180115  Network.dyn_peer[18]  lookupStabilitySig:vector  ETV
vector 180116  Network.dyn_peer[18]  lookupTimeSig:vector  ETV
vector 180147  Network.dyn_peer[29]  lookupHopsSig:vector  ETV
vector 180148  Network.dyn_peer[29]  lookupStabilitySig:vector  ETV
vector 180149  Network.dyn_peer[29]  lookupTimeSig:vector  ETV
vector 180075  Network.dyn_peer[5]  lookupHopsSig:vector  ETV
vector 180076  Network.dyn_peer[5]  lookupStabilitySig:vector  ETV
vector 180077  Network.dyn_peer[5]  lookupTimeSig:vector  ETV
vector 180099  Network.dyn_peer[13]  lookupHopsSig:vector  ETV
vector 180100  Network.dyn_peer[13]  lookupStabilitySig:vector  ETV
vector 180101  Network.dyn_peer[13]  lookupTimeSig:vector  ETV
vector 180144  Network.dyn_peer[28]  lookupHopsSig:vector  ETV
vector 180145  Network.dyn_peer[28]  lookupStabilitySig:vector  ETV
vector 180146  Network.dyn_peer[28]  lookupTimeSig:vector  ETV
vector 180132  Network.dyn_peer[24]  lookupHopsSig:vector  ETV
vector 180133  Network.dyn_peer[24]  lookupStabilitySig:vector  ETV
vector 180134  Network.dyn_peer[24]  lookupTimeSig:vector  ETV
180060	6241 40 266 625 20.301 21.101 2 3 7 10 58
180061	6281 70 266 625 20.301 21.101 2 0.39999997615814 0.46153843402863 0.86153841018677 0.37301770701211
180062	6351 44 266 625 20.301 21.101 2 0.3 0.8 1.1 0.73
180063	6395 98 133 761 20.102 21.509424195163 4 1 7 12 60
180064	6493 158 133 761 20.102 21.509424195163 4 0.39999997615814 0.79999999701977 2.6818181574345 1.9048760118366
180065	6651 106 133 761 20.102 21.509424195163 4 0.1 0.8 1.5 0.85
180066	6757 107 138 565 20.103 20.921844138959 4 1 3 6 12
180067	6864 167 138 565 20.103 20.921844138959 4 0.39999997615814 0.85714285075665 2.8571428209543 2.174693837993
180068	7031 115 138 565 20.103 20.921844138959 4 0.1 0.4 0.9 0.25
180069	7146 127 213 808 20.204 21.720675122167 5 1 6 13 51
180070	7273 202 213 808 20.204 21.720675122167 5 0.14285713434219 0.96000000089407 3.5009937733412 2.9203967169759
180071	7475 137 213 808 20.204 21.720675122167 5 0.2 0.7 1.7 0.77
180072	7612 155 144 858 20.105 22.127310385894 6 1 7 16 70
180073	7767 230 144 858 20.105 22.127310385894 6 0 0.96428571268916 4.4552794955671 3.9854293681578
180074	7997 167 144 858 20.105 22.127310385894 6 0.1 0.8 2.1 1.05
180075	8164 98 321 864 20.406 22.135760186108 4 3 6 18 86
180076	8262 157 321 864 20.406 22.135760186108 4 0.19999998807907 0.86956521868706 2.4685799777508 1.8075731969036
180077	8419 106 321 864 20.406 22.135760186108 4 0.4 0.7 2.1 1.17
180078	8525 98 150 790 20.107 21.620529611672 4 1 8 13 73
180079	8623 157 150 790 20.107 21.620529611672 4 0.19999998807907 0.91666666418314 2.7990195900202 2.2988244757173
180080	8780 106 150 790 20.107 21.620529611672 4 0.1 0.9 1.6 1
180081	8886 40 276 593 20.308 21.008 2 3 6 9 45
180082	8926 70 276 593 20.308 21.008 2 0.39999997615814 0.39999997615814 0.79999995231628 0.31999996185303
180083	8996 44 276 593 20.308 21.008 2 0.3 0.7 1 0.58
180084	9040 77 42 562 20.009 20.921173336403 3 0 5 7 29
180085	9117 92 42 562 20.009 20.921173336403 3 0 1 1.7142857015133 1.5102040633863
180086	9209 81 42 562 20.009 20.921173336403 3 0 0.6 0.9 0.45
180087	9290 270 223 967 20.21 24.233014121411 10 2 8 33 141
180088	9560 379 223 967 20.21 24.233014121411 10 0.42857140302658 0.93939393758774 8.260961279273 7.0915838260251
180089	9939 290 223 967 20.21 24.233014121411 10 0.2 0.9 4.2 2.12
180090	10229 97 52 719 20.011 21.322594501544 4 0 5 10 38
180091	10326 142 52 719 20.011 21.322594501544 4 0.39999997615814 1 2.8343433961272 2.2476440826239
180092	10468 103 52 719 20.011 21.322594501544 4 0 0.6 1.3 0.61
180093	10571 106 59 525 20.012 20.825271619043 4 0 2 5 9
180094	10677 151 59 525 20.012 20.825271619043 4 0.59999999403954 1 3.0666666477919 2.444444419278
180095	10828 112 59 525 20.012 20.825271619043 4 0 0.3 0.8 0.22
180096	10940 69 160 471 20.113 20.720511458212 3 1 3 5 11
180097	11009 114 160 471 20.113 20.720511458212 3 0.39999997615814 0.79999999701977 1.9999999701977 1.4399999713898
180098	11123 75 160 471 20.113 20.720511458212 3 0.1 0.4 0.7 0.21
180099	11198 98 335 656 20.414 21.129811913727 4 1 4 8 22
180100	11296 158 335 656 20.414 21.129811913727 4 0.19999998807907 0.85714285075665 2.6904761642218 2.1091382932325
180101	11454 106 335 656 20.414 21.129811913727 4 0.2 0.4 1.1 0.33
180102	11560 96 166 684 20.115 21.2217872346 4 1 4 9 25
180103	11656 156 166 684 20.115 21.2217872346 4 0.59999999403954 0.79999999701977 2.7333333045244 1.8977777383063
180104	11812 104 166 684 20.115 21.2217872346 4 0.1 0.5 1.2 0.44
180105	11916 106 171 755 20.116 21.442290196846 4 1 5 11 39
180106	12022 151 171 755 20.116 21.442290196846 4 0 0.90476190298796 2.5047618970275 2.0985940915616
180107	12173 114 171 755 20.116 21.442290196846 4 0.1 0.6 1.4 0.62
180108	12287 97 78 826 20.017 21.827040258844 4 0 6 15 77
180109	12384 127 78 826 20.017 21.827040258844 4 0 1 2.5128204971552 2.1604207528609
180110	12511 103 78 826 20.017 21.827040258844 4 0 0.7 1.8 1.1
180111	12614 68 178 603 20.118 21.02057493521 3 1 5 8 30
180112	12682 113 178 603 20.118 21.02057493521 3 0.54545453190804 0.79999999701977 1.9454545229673 1.2975206344581
180113	12795 74 178 603 20.118 21.02057493521 3 0.1 0.6 1 0.46
180114	12869 40 291 679 20.319 21.219 2 3 8 11 73
180115	12909 70 291 679 20.319 21.219 2 0.39999997615814 0.46666663885117 0.86666661500931 0.37777773274316
180116	12979 44 291 679 20.319 21.219 2 0.3 0.9 1.2 0.9
180117	13023 67 184 709 20.12 21.320051088279 3 1 6 11 53
180118	13090 112 184 709 20.12 21.320051088279 3 0.19999998807907 0.79999999701977 1.6470587998629 1.0986851002271
180119	13202 73 184 709 20.12 21.320051088279 3 0.1 0.7 1.3 0.75
180120	13275 243 238 949 20.221 23.674908317247 9 2 11 28 158
180121	13518 327 238 949 20.221 23.674908317247 9 0.44999998807907 0.9375 7.5506867915392 6.601820501832
180122	13845 260 238 949 20.221 23.674908317247 9 0.2 1.2 3.6 2.18
180123	14105 68 99 579 20.022 20.930186986278 3 0 6 7 37
180124	14173 98 99 579 20.022 20.930186986278 3 0.33333331346512 1 2.1333333104849 1.7511110930973
180125	14271 72 99 579 20.022 20.930186986278 3 0 0.7 0.9 0.53
180126	14343 98 106 747 20.023 21.430586583687 4 0 5 11 45
180127	14441 143 106 747 20.023 21.430586583687 4 0.19999998807907 1 2.7428571209311 2.2632652877241
180128	14584 104 106 747 20.023 21.430586583687 4 0 0.6 1.4 0.7
180129	14688 67 194 779 20.124 21.5337582755 3 1 7 13 75
180130	14755 97 194 779 20.124 21.5337582755 3 0 0.79999999701977 1.4956521838903 1.1239319603294
180131	14852 73 194 779 20.124 21.5337582755 3 0.1 0.8 1.5 1.01
180132	14925 155 487 882 20.725 22.26063539079 6 1 7 17 71
180133	15080 234 487 882 20.725 22.26063539079 6 -0.39999997615814 0.92857142537832 4.1058168634772 4.2225112208598
180134	15314 167 487 882 20.725 22.26063539079 6 0.2 0.7 2.2 0.96
180135	15481 96 251 731 20.226 21.340998729922 4 1 5 10 34
180136	15577 156 251 731 20.226 21.340998729922 4 0.28571426868439 0.92307692021132 2.7035280242562 2.0942576520212
180137	15733 104 251 731 20.226 21.340998729922 4 0.2 0.6 1.3 0.53
180138	15837 49 202 613 20.127 21.027083213734 2 1 8 9 65
180139	15886 79 202 613 20.127 21.027083213734 2 0.33333331346512 0.79999999701977 1.1333333104849 0.75111109309726
180140	15965 53 202 613 20.127 21.027083213734 2 0.1 0.9 1 0.82
180141	16018 127 258 831 20.228 21.843351489872 5 1 8 14 74
180142	16145 201 258 831 20.228 21.843351489872 5 0.42857140302658 0.96296296268702 3.8589027822018 3.2148780356015
180143	16346 137 258 831 20.228 21.843351489872 5 0.2 0.9 1.8 1.02
180144	16483 156 406 872 20.529 22.152809061214 6 1 5 16 52
180145	16639 230 406 872 20.529 22.152809061214 6 0 0.9333333298564 4.3278388082981 3.7962206348628
180146	16869 168 406 872 20.529 22.152809061214 6 0.2 0.5 2.1 0.79
180147	17037 384 311 987 20.33 25.40909985644 14 1 7 40 146
180148	17421 540 311 987 20.33 25.40909985644 14 0.39999997615814 0.96875 11.929420787841 10.559890654551
180149	17961 412 311 987 20.33 25.40909985644 14 0.2 0.8 5.3 2.33
183060	18373 610 11 125 20 20.03 31 0 29 435 8555
