version 2
run Stability2-95-20130526-00:51:35-26640
attr configname Stability2
attr datetime 20130526-00:51:35
attr experiment Stability2
attr inifile omnetpp.ini
attr iterationvars $0=40
attr iterationvars2 "$0=40, $repetition=5"
attr measurement $0=40
attr network Network
attr processid 26640
attr repetition 5
attr replication #5
attr resultdir results
attr runnumber 95
attr seedset 95

vector 288095  Network.churner  inGoingSizeSig:vector  ETV
vector 285116  Network.dyn_peer[7]  lookupHopsSig:vector  ETV
vector 285117  Network.dyn_peer[7]  lookupStabilitySig:vector  ETV
vector 285118  Network.dyn_peer[7]  lookupTimeSig:vector  ETV
vector 285143  Network.dyn_peer[16]  lookupHopsSig:vector  ETV
vector 285144  Network.dyn_peer[16]  lookupStabilitySig:vector  ETV
vector 285145  Network.dyn_peer[16]  lookupTimeSig:vector  ETV
vector 285152  Network.dyn_peer[19]  lookupHopsSig:vector  ETV
vector 285153  Network.dyn_peer[19]  lookupStabilitySig:vector  ETV
vector 285154  Network.dyn_peer[19]  lookupTimeSig:vector  ETV
vector 285179  Network.dyn_peer[28]  lookupHopsSig:vector  ETV
vector 285180  Network.dyn_peer[28]  lookupStabilitySig:vector  ETV
vector 285181  Network.dyn_peer[28]  lookupTimeSig:vector  ETV
vector 285119  Network.dyn_peer[8]  lookupHopsSig:vector  ETV
vector 285120  Network.dyn_peer[8]  lookupStabilitySig:vector  ETV
vector 285121  Network.dyn_peer[8]  lookupTimeSig:vector  ETV
vector 285125  Network.dyn_peer[10]  lookupHopsSig:vector  ETV
vector 285126  Network.dyn_peer[10]  lookupStabilitySig:vector  ETV
vector 285127  Network.dyn_peer[10]  lookupTimeSig:vector  ETV
vector 285167  Network.dyn_peer[24]  lookupHopsSig:vector  ETV
vector 285168  Network.dyn_peer[24]  lookupStabilitySig:vector  ETV
vector 285169  Network.dyn_peer[24]  lookupTimeSig:vector  ETV
vector 285182  Network.dyn_peer[29]  lookupHopsSig:vector  ETV
vector 285183  Network.dyn_peer[29]  lookupStabilitySig:vector  ETV
vector 285184  Network.dyn_peer[29]  lookupTimeSig:vector  ETV
vector 285188  Network.dyn_peer[31]  lookupHopsSig:vector  ETV
vector 285189  Network.dyn_peer[31]  lookupStabilitySig:vector  ETV
vector 285190  Network.dyn_peer[31]  lookupTimeSig:vector  ETV
vector 285194  Network.dyn_peer[33]  lookupHopsSig:vector  ETV
vector 285195  Network.dyn_peer[33]  lookupStabilitySig:vector  ETV
vector 285196  Network.dyn_peer[33]  lookupTimeSig:vector  ETV
vector 285200  Network.dyn_peer[35]  lookupHopsSig:vector  ETV
vector 285201  Network.dyn_peer[35]  lookupStabilitySig:vector  ETV
vector 285202  Network.dyn_peer[35]  lookupTimeSig:vector  ETV
vector 285095  Network.dyn_peer[0]  lookupHopsSig:vector  ETV
vector 285096  Network.dyn_peer[0]  lookupStabilitySig:vector  ETV
vector 285097  Network.dyn_peer[0]  lookupTimeSig:vector  ETV
vector 285098  Network.dyn_peer[1]  lookupHopsSig:vector  ETV
vector 285099  Network.dyn_peer[1]  lookupStabilitySig:vector  ETV
vector 285100  Network.dyn_peer[1]  lookupTimeSig:vector  ETV
vector 285101  Network.dyn_peer[2]  lookupHopsSig:vector  ETV
vector 285102  Network.dyn_peer[2]  lookupStabilitySig:vector  ETV
vector 285103  Network.dyn_peer[2]  lookupTimeSig:vector  ETV
vector 285128  Network.dyn_peer[11]  lookupHopsSig:vector  ETV
vector 285129  Network.dyn_peer[11]  lookupStabilitySig:vector  ETV
vector 285130  Network.dyn_peer[11]  lookupTimeSig:vector  ETV
vector 285140  Network.dyn_peer[15]  lookupHopsSig:vector  ETV
vector 285141  Network.dyn_peer[15]  lookupStabilitySig:vector  ETV
vector 285142  Network.dyn_peer[15]  lookupTimeSig:vector  ETV
vector 285191  Network.dyn_peer[32]  lookupHopsSig:vector  ETV
vector 285192  Network.dyn_peer[32]  lookupStabilitySig:vector  ETV
vector 285193  Network.dyn_peer[32]  lookupTimeSig:vector  ETV
vector 285212  Network.dyn_peer[39]  lookupHopsSig:vector  ETV
vector 285213  Network.dyn_peer[39]  lookupStabilitySig:vector  ETV
vector 285214  Network.dyn_peer[39]  lookupTimeSig:vector  ETV
vector 285107  Network.dyn_peer[4]  lookupHopsSig:vector  ETV
vector 285108  Network.dyn_peer[4]  lookupStabilitySig:vector  ETV
vector 285109  Network.dyn_peer[4]  lookupTimeSig:vector  ETV
vector 285113  Network.dyn_peer[6]  lookupHopsSig:vector  ETV
vector 285114  Network.dyn_peer[6]  lookupStabilitySig:vector  ETV
vector 285115  Network.dyn_peer[6]  lookupTimeSig:vector  ETV
vector 285131  Network.dyn_peer[12]  lookupHopsSig:vector  ETV
vector 285132  Network.dyn_peer[12]  lookupStabilitySig:vector  ETV
vector 285133  Network.dyn_peer[12]  lookupTimeSig:vector  ETV
vector 285161  Network.dyn_peer[22]  lookupHopsSig:vector  ETV
vector 285162  Network.dyn_peer[22]  lookupStabilitySig:vector  ETV
vector 285163  Network.dyn_peer[22]  lookupTimeSig:vector  ETV
vector 285185  Network.dyn_peer[30]  lookupHopsSig:vector  ETV
vector 285186  Network.dyn_peer[30]  lookupStabilitySig:vector  ETV
vector 285187  Network.dyn_peer[30]  lookupTimeSig:vector  ETV
vector 285197  Network.dyn_peer[34]  lookupHopsSig:vector  ETV
vector 285198  Network.dyn_peer[34]  lookupStabilitySig:vector  ETV
vector 285199  Network.dyn_peer[34]  lookupTimeSig:vector  ETV
vector 285104  Network.dyn_peer[3]  lookupHopsSig:vector  ETV
vector 285105  Network.dyn_peer[3]  lookupStabilitySig:vector  ETV
vector 285106  Network.dyn_peer[3]  lookupTimeSig:vector  ETV
vector 285110  Network.dyn_peer[5]  lookupHopsSig:vector  ETV
vector 285111  Network.dyn_peer[5]  lookupStabilitySig:vector  ETV
vector 285112  Network.dyn_peer[5]  lookupTimeSig:vector  ETV
vector 285146  Network.dyn_peer[17]  lookupHopsSig:vector  ETV
vector 285147  Network.dyn_peer[17]  lookupStabilitySig:vector  ETV
vector 285148  Network.dyn_peer[17]  lookupTimeSig:vector  ETV
vector 285173  Network.dyn_peer[26]  lookupHopsSig:vector  ETV
vector 285174  Network.dyn_peer[26]  lookupStabilitySig:vector  ETV
vector 285175  Network.dyn_peer[26]  lookupTimeSig:vector  ETV
vector 285170  Network.dyn_peer[25]  lookupHopsSig:vector  ETV
vector 285171  Network.dyn_peer[25]  lookupStabilitySig:vector  ETV
vector 285172  Network.dyn_peer[25]  lookupTimeSig:vector  ETV
vector 285122  Network.dyn_peer[9]  lookupHopsSig:vector  ETV
vector 285123  Network.dyn_peer[9]  lookupStabilitySig:vector  ETV
vector 285124  Network.dyn_peer[9]  lookupTimeSig:vector  ETV
vector 285134  Network.dyn_peer[13]  lookupHopsSig:vector  ETV
vector 285135  Network.dyn_peer[13]  lookupStabilitySig:vector  ETV
vector 285136  Network.dyn_peer[13]  lookupTimeSig:vector  ETV
vector 285164  Network.dyn_peer[23]  lookupHopsSig:vector  ETV
vector 285165  Network.dyn_peer[23]  lookupStabilitySig:vector  ETV
vector 285166  Network.dyn_peer[23]  lookupTimeSig:vector  ETV
vector 285209  Network.dyn_peer[38]  lookupHopsSig:vector  ETV
vector 285210  Network.dyn_peer[38]  lookupStabilitySig:vector  ETV
vector 285211  Network.dyn_peer[38]  lookupTimeSig:vector  ETV
vector 285137  Network.dyn_peer[14]  lookupHopsSig:vector  ETV
vector 285138  Network.dyn_peer[14]  lookupStabilitySig:vector  ETV
vector 285139  Network.dyn_peer[14]  lookupTimeSig:vector  ETV
vector 285155  Network.dyn_peer[20]  lookupHopsSig:vector  ETV
vector 285156  Network.dyn_peer[20]  lookupStabilitySig:vector  ETV
vector 285157  Network.dyn_peer[20]  lookupTimeSig:vector  ETV
vector 285158  Network.dyn_peer[21]  lookupHopsSig:vector  ETV
vector 285159  Network.dyn_peer[21]  lookupStabilitySig:vector  ETV
vector 285160  Network.dyn_peer[21]  lookupTimeSig:vector  ETV
vector 285149  Network.dyn_peer[18]  lookupHopsSig:vector  ETV
vector 285150  Network.dyn_peer[18]  lookupStabilitySig:vector  ETV
vector 285151  Network.dyn_peer[18]  lookupTimeSig:vector  ETV
vector 285206  Network.dyn_peer[37]  lookupHopsSig:vector  ETV
vector 285207  Network.dyn_peer[37]  lookupStabilitySig:vector  ETV
vector 285208  Network.dyn_peer[37]  lookupTimeSig:vector  ETV
vector 285176  Network.dyn_peer[27]  lookupHopsSig:vector  ETV
vector 285177  Network.dyn_peer[27]  lookupStabilitySig:vector  ETV
vector 285178  Network.dyn_peer[27]  lookupTimeSig:vector  ETV
vector 285203  Network.dyn_peer[36]  lookupHopsSig:vector  ETV
vector 285204  Network.dyn_peer[36]  lookupStabilitySig:vector  ETV
vector 285205  Network.dyn_peer[36]  lookupTimeSig:vector  ETV
285095	230	20.201	2
285095	568	20.701	4
285095	748	21.005707512131	2
285096	230	20.201	0.59999999403954
285096	568	20.701	0.33333331346512
285096	748	21.005707512131	0.66666665673256
285097	230	20.201	0.2
285097	568	20.701	0.5
285097	748	21.005707512131	0.3
285098	235	20.202	2
285098	620	20.802	5
285098	807	21.102453351992	2
285098	1227	22.003027323475	8
285099	235	20.202	0.59999999403954
285099	620	20.802	0.16666668653488
285099	807	21.102453351992	0.71428570151329
285099	1227	22.003027323475	0.66666665673256
285100	235	20.202	0.2
285100	620	20.802	0.6
285100	807	21.102453351992	0.3
285100	1227	22.003027323475	0.9
285101	240	20.203	2
285101	375	20.403	1
285101	753	21.009818168237	5
285101	880	21.212501006132	1
285102	240	20.203	0.59999999403954
285102	375	20.403	0.79999999701977
285102	753	21.009818168237	0.28571426868439
285102	880	21.212501006132	0.88888888806105
285103	240	20.203	0.2
285103	375	20.403	0.2
285103	753	21.009818168237	0.6
285103	880	21.212501006132	0.2
285104	380	20.404	4
285104	1113	21.704	12
285104	1258	22.115504744828	3
285105	380	20.404	0.19999998807907
285105	1113	21.704	0.39999997615814
285105	1258	22.115504744828	0.88461538404226
285106	380	20.404	0.4
285106	1113	21.704	1.3
285106	1258	22.115504744828	0.4
285107	307	20.305	3
285107	975	21.405	10
285108	307	20.305	0.39999997615814
285108	975	21.405	0.33333331346512
285109	307	20.305	0.3
285109	975	21.405	1.1
285110	386	20.406	4
285110	874	21.206	7
285111	386	20.406	0.19999998807907
285111	874	21.206	0.125
285112	386	20.406	0.4
285112	874	21.206	0.8
285113	313	20.307	3
285113	685	20.909717954658	5
285113	932	21.309758898299	3
285113	1079	21.615604792043	2
285114	313	20.307	0.39999997615814
285114	685	20.909717954658	0.16666668653488
285114	932	21.309758898299	0.78571428358555
285114	1079	21.615604792043	0.88888888806105
285115	313	20.307	0.3
285115	685	20.909717954658	0.6
285115	932	21.309758898299	0.4
285115	1079	21.615604792043	0.3
285116	39	20.008	0
285116	445	20.508	4
285116	690	20.911252453873	3
285116	946	21.322242098675	3
285117	39	20.008	1
285117	445	20.508	0.19999998807907
285117	690	20.911252453873	0.5
285117	946	21.322242098675	0.78571428358555
285118	39	20.008	0
285118	445	20.508	0.5
285118	690	20.911252453873	0.4
285118	946	21.322242098675	0.4
285119	167	20.109	1
285119	575	20.709	5
285119	884	21.215885797402	4
285119	1042	21.524774874863	2
285119	1166	21.827835565944	2
285119	1277	22.137581489187	2
285119	1349	22.455247903399	2
285120	167	20.109	0.79999999701977
285120	575	20.709	0.16666668653488
285120	884	21.215885797402	0.59999999403954
285120	1042	21.524774874863	0.8823529407382
285120	1166	21.827835565944	0.90909090638161
285120	1277	22.137581489187	0.9333333298564
285120	1349	22.455247903399	0.94594594463706
285121	167	20.109	0.1
285121	575	20.709	0.6
285121	884	21.215885797402	0.5
285121	1042	21.524774874863	0.3
285121	1166	21.827835565944	0.3
285121	1277	22.137581489187	0.3
285121	1349	22.455247903399	0.3
285122	513	20.61	6
285122	755	21.01	3
285122	1260	22.118492616838	10
285123	513	20.61	0
285123	755	21.01	0.5714285671711
285123	1260	22.118492616838	0.61538460850716
285124	513	20.61	0.6
285124	755	21.01	0.4
285124	1260	22.118492616838	1.1
285125	174	20.111	1
285125	321	20.311	1
285125	461	20.518027961588	1
285125	833	21.123158018941	2
285125	1170	21.829981270092	6
285126	174	20.111	0.79999999701977
285126	321	20.311	0.79999999701977
285126	461	20.518027961588	0.79999999701977
285126	833	21.123158018941	0.71428570151329
285126	1170	21.829981270092	0.73913043737411
285127	174	20.111	0.1
285127	321	20.311	0.2
285127	461	20.518027961588	0.2
285127	833	21.123158018941	0.3
285127	1170	21.829981270092	0.7
285128	255	20.212	2
285128	935	21.312	10
285128	1077	21.614785063057	2
285128	1157	21.820256844654	1
285129	255	20.212	0.59999999403954
285129	935	21.312	0.28571426868439
285129	1077	21.614785063057	0.88888888806105
285129	1157	21.820256844654	0.9545454531908
285130	255	20.212	0.2
285130	935	21.312	1.1
285130	1077	21.614785063057	0.3
285130	1157	21.820256844654	0.2
285131	327	20.313	3
285131	1117	21.713	13
285132	327	20.313	0.39999997615814
285132	1117	21.713	0.35000002384186
285133	327	20.313	0.3
285133	1117	21.713	1.4
285134	522	20.614	6
285134	886	21.21680616055	5
285135	522	20.614	0
285135	886	21.21680616055	0.5
285136	522	20.614	0.6
285136	886	21.21680616055	0.6
285137	638	20.815	8
285137	982	21.415	5
285137	1340	22.422123847365	9
285137	1363	22.632001559032	1
285137	1408	23.333282298092	6
285138	638	20.815	-0.33333337306976
285138	982	21.415	0.6875
285138	1340	22.422123847365	0.75675675272942
285138	1363	22.632001559032	0.97368421033025
285138	1408	23.333282298092	0.8604651093483
285139	638	20.815	0.8
285139	982	21.415	0.6
285139	1340	22.422123847365	1
285139	1363	22.632001559032	0.2
285139	1408	23.333282298092	0.7
285140	263	20.216	2
285140	528	20.619679674062	3
285140	826	21.121588598085	4
285140	1194	21.921994073232	7
285140	1298	22.231656109792	2
285141	263	20.216	0.59999999403954
285141	528	20.619679674062	0.5
285141	826	21.121588598085	0.42857140302658
285141	1194	21.921994073232	0.69565218687057
285141	1298	22.231656109792	0.93548387289047
285142	263	20.216	0.2
285142	528	20.619679674062	0.4
285142	826	21.121588598085	0.5
285142	1194	21.921994073232	0.8
285142	1298	22.231656109792	0.3
285143	73	20.017	0
285143	776	21.026786345981	9
285143	1005	21.429696510286	3
285144	73	20.017	1
285144	776	21.026786345981	-0.28571426868439
285144	1005	21.429696510286	0.8125
285145	73	20.017	0
285145	776	21.026786345981	1
285145	1005	21.429696510286	0.4
285146	404	20.418	4
285146	1154	21.818	13
285146	1268	22.127595863502	2
285146	1352	22.527622784119	3
285146	1389	22.934308598231	3
285147	404	20.418	0.19999998807907
285147	1154	21.818	0.40909093618393
285147	1268	22.127595863502	0.93103448301554
285147	1352	22.527622784119	0.92105263471603
285147	1389	22.934308598231	0.92499999701977
285148	404	20.418	0.4
285148	1154	21.818	1.4
285148	1268	22.127595863502	0.3
285148	1352	22.527622784119	0.4
285148	1389	22.934308598231	0.4
285149	704	20.919	9
285149	890	21.219	2
285149	1162	21.82566490657	5
285149	1317	22.331597433239	4
285150	704	20.919	-0.5
285150	890	21.219	0.79999999701977
285150	1162	21.82566490657	0.77272726595402
285150	1317	22.331597433239	0.875
285151	704	20.919	0.9
285151	890	21.219	0.3
285151	1162	21.82566490657	0.6
285151	1317	22.331597433239	0.5
285152	87	20.02	0
285152	707	20.92	8
285152	1197	21.924107168661	9
285152	1265	22.126334092437	1
285153	87	20.02	1
285153	707	20.92	-0.33333337306976
285153	1197	21.924107168661	0.60869565606117
285153	1265	22.126334092437	0.96428571268916
285154	87	20.02	0
285154	707	20.92	0.9
285154	1197	21.924107168661	1
285154	1265	22.126334092437	0.2
285155	648	20.821	8
285155	989	21.421	5
285155	1315	22.329333811478	8
285156	648	20.821	-0.33333337306976
285156	989	21.421	0.6875
285156	1315	22.329333811478	0.75
285157	648	20.821	0.8
285157	989	21.421	0.6
285157	1315	22.329333811478	0.9
285158	654	20.822	8
285158	1037	21.522	6
285158	1128	21.723438297978	1
285158	1207	21.932701134935	1
285158	1281	22.139942264991	1
285159	654	20.822	-0.33333337306976
285159	1037	21.522	0.64705881476402
285159	1128	21.723438297978	0.95238095149398
285159	1207	21.932701134935	0.95652173832059
285159	1281	22.139942264991	0.9666666649282
285160	654	20.822	0.8
285160	1037	21.522	0.7
285160	1128	21.723438297978	0.2
285160	1207	21.932701134935	0.2
285160	1281	22.139942264991	0.2
285161	343	20.323	3
285161	852	21.129985617307	7
285161	1100	21.636635727166	4
285162	343	20.323	0.39999997615814
285162	852	21.129985617307	0
285162	1100	21.636635727166	0.78947368264198
285163	343	20.323	0.3
285163	852	21.129985617307	0.8
285163	1100	21.636635727166	0.5
285164	539	20.624	6
285164	948	21.324	6
285164	1046	21.527338369834	1
285164	1243	22.032220065766	4
285164	1367	22.64187990867	5
285165	539	20.624	0
285165	948	21.324	0.5714285671711
285165	1046	21.527338369834	0.9411764703691
285165	1243	22.032220065766	0.84615384042263
285165	1367	22.64187990867	0.86842104792595
285166	539	20.624	0.6
285166	948	21.324	0.7
285166	1046	21.527338369834	0.2
285166	1243	22.032220065766	0.5
285166	1367	22.64187990867	0.6
285167	193	20.125	1
285167	720	20.925	7
285167	1051	21.528193371244	5
285168	193	20.125	0.79999999701977
285168	720	20.925	-0.16666662693024
285168	1051	21.528193371244	0.70588234066963
285169	193	20.125	0.1
285169	720	20.925	0.8
285169	1051	21.528193371244	0.6
285170	476	20.526	5
285170	598	20.726	1
285170	841	21.127791627882	3
285170	1272	22.130154261688	9
285171	476	20.526	0.16666668653488
285171	598	20.726	0.83333332836628
285171	841	21.127791627882	0.5714285671711
285171	1272	22.130154261688	0.68965518474579
285172	476	20.526	0.5
285172	598	20.726	0.2
285172	841	21.127791627882	0.4
285172	1272	22.130154261688	1
285173	421	20.427	4
285173	1236	22.027	15
285174	421	20.427	0.19999998807907
285174	1236	22.027	0.39999997615814
285175	421	20.427	0.4
285175	1236	22.027	1.6
285176	846	21.128	11
285176	1049	21.528	3
285176	1178	21.833105902422	2
285176	1279	22.138648255953	2
285176	1369	22.64561674062	4
285176	1395	22.949396548509	2
285177	846	21.128	-0.57142853736877
285177	1049	21.528	0.82352940738201
285177	1178	21.833105902422	0.91304347664118
285177	1279	22.138648255953	0.9333333298564
285177	1369	22.64561674062	0.89473684132099
285177	1395	22.949396548509	0.95121951401234
285178	846	21.128	1.1
285178	1049	21.528	0.4
285178	1178	21.833105902422	0.3
285178	1279	22.138648255953	0.3
285178	1369	22.64561674062	0.5
285178	1395	22.949396548509	0.3
285179	121	20.029	0
285179	546	20.629	5
285179	906	21.229775284855	5
285180	121	20.029	1
285180	546	20.629	0.16666668653488
285180	906	21.229775284855	0.54545453190804
285181	121	20.029	0
285181	546	20.629	0.6
285181	906	21.229775284855	0.6
285182	203	20.13	1
285182	729	20.93	7
285182	966	21.336786605136	3
285182	1067	21.539368410275	1
285182	1219	21.944973829669	3
285183	203	20.13	0.79999999701977
285183	729	20.93	-0.16666662693024
285183	966	21.336786605136	0.79999999701977
285183	1067	21.539368410275	0.94444444403052
285183	1219	21.944973829669	0.86956521868706
285184	203	20.13	0.1
285184	729	20.93	0.8
285184	966	21.336786605136	0.4
285184	1067	21.539368410275	0.2
285184	1219	21.944973829669	0.4
285185	357	20.331	3
285185	607	20.731	3
285185	800	21.039737165785	2
285185	1145	21.741342285341	6
285186	357	20.331	0.39999997615814
285186	607	20.731	0.5
285186	800	21.039737165785	0.71428570151329
285186	1145	21.741342285341	0.71428570151329
285187	357	20.331	0.3
285187	607	20.731	0.4
285187	800	21.039737165785	0.3
285187	1145	21.741342285341	0.7
285188	209	20.132	1
285188	785	21.032	8
285188	1175	21.832269357776	7
285188	1319	22.337330029078	4
285189	209	20.132	0.79999999701977
285189	785	21.032	-0.14285719394684
285189	1175	21.832269357776	0.69565218687057
285189	1319	22.337330029078	0.875
285190	209	20.132	0.1
285190	785	21.032	0.9
285190	1175	21.832269357776	0.8
285190	1319	22.337330029078	0.5
285191	287	20.233	2
285191	1058	21.533	12
285191	1209	21.934065796881	3
285191	1333	22.349598276478	3
285191	1375	22.650350747257	2
285192	287	20.233	0.59999999403954
285192	1058	21.533	0.33333331346512
285192	1209	21.934065796881	0.86956521868706
285192	1333	22.349598276478	0.91666666418314
285192	1375	22.650350747257	0.94871794804931
285193	287	20.233	0.2
285193	1058	21.533	1.3
285193	1209	21.934065796881	0.4
285193	1333	22.349598276478	0.4
285193	1375	22.650350747257	0.3
285194	215	20.134	1
285194	487	20.534	3
285194	737	20.938131593101	3
285194	920	21.238397370929	2
285195	215	20.134	0.79999999701977
285195	487	20.534	0.5
285195	737	20.938131593101	0.5
285195	920	21.238397370929	0.83333332836628
285196	215	20.134	0.1
285196	487	20.534	0.4
285196	737	20.938131593101	0.4
285196	920	21.238397370929	0.3
285197	366	20.335	3
285197	1062	21.535	11
285197	1357	22.543570589066	9
285197	1392	22.94758923689	3
285197	1411	23.355131942372	3
285197	1418	23.863092784833	4
285197	1423	24.06816935606	1
285197	1429	24.380195844731	2
285197	1436	24.793593147807	3
285198	366	20.335	0.39999997615814
285198	1062	21.535	0.38888889551163
285198	1357	22.543570589066	0.76315788924694
285198	1392	22.94758923689	0.92682927101851
285198	1411	23.355131942372	0.93181817978621
285198	1418	23.863092784833	0.90909090638161
285198	1423	24.06816935606	0.9772727265954
285198	1429	24.380195844731	0.9545454531908
285198	1436	24.793593147807	0.93181817978621
285199	366	20.335	0.3
285199	1062	21.535	1.2
285199	1357	22.543570589066	1
285199	1392	22.94758923689	0.4
285199	1411	23.355131942372	0.4
285199	1418	23.863092784833	0.5
285199	1423	24.06816935606	0.2
285199	1429	24.380195844731	0.3
285199	1436	24.793593147807	0.4
285200	221	20.136	1
285200	491	20.536	3
285200	918	21.238271390508	6
285201	221	20.136	0.79999999701977
285201	491	20.536	0.5
285201	918	21.238271390508	0.45454543828964
285202	221	20.136	0.1
285202	491	20.536	0.4
285202	918	21.238271390508	0.7
285203	1016	21.437	14
285203	1245	22.037	5
285203	1323	22.340710503971	2
285203	1400	23.048860764286	6
285204	1016	21.437	0.125
285204	1245	22.037	0.80769230425358
285204	1323	22.340710503971	0.9411764703691
285204	1400	23.048860764286	0.85714285075665
285205	1016	21.437	1.4
285205	1245	22.037	0.6
285205	1323	22.340710503971	0.3
285205	1400	23.048860764286	0.7
285206	795	21.038	10
285206	1019	21.438	3
285206	1108	21.645068292242	1
285206	1224	21.95584220528	2
285206	1337	22.359545732972	3
285207	795	21.038	-0.42857146263123
285207	1019	21.438	0.82352940738201
285207	1108	21.645068292242	0.94999999925494
285207	1224	21.95584220528	0.91666666418314
285207	1337	22.359545732972	0.91666666418314
285208	795	21.038	1
285208	1019	21.438	0.4
285208	1108	21.645068292242	0.2
285208	1224	21.95584220528	0.3
285208	1337	22.359545732972	0.4
285209	564	20.639	6
285209	1143	21.739	10
285209	1329	22.34699622945	5
285210	564	20.639	0
285210	1143	21.739	0.52380952239037
285210	1329	22.34699622945	0.85714285075665
285211	564	20.639	0.6
285211	1143	21.739	1.1
285211	1329	22.34699622945	0.6
285212	298	20.24	2
285212	437	20.44	1
285212	868	21.149650756579	6
285213	298	20.24	0.59999999403954
285213	437	20.44	0.79999999701977
285213	868	21.149650756579	0.14285713434219
285214	298	20.24	0.2
285214	437	20.44	0.2
285214	868	21.149650756579	0.7
288095	11	20	0
288095	12	20.001	0
288095	15	20.002	1
288095	18	20.003	2
288095	21	20.004	3
288095	24	20.005	4
288095	27	20.006	5
288095	30	20.007	6
288095	33	20.008	7
288095	40	20.009	8
288095	43	20.01	9
288095	47	20.011	10
288095	50	20.012	11
288095	54	20.013	12
288095	58	20.014	13
288095	61	20.015	14
288095	64	20.016	15
288095	67	20.017	16
288095	75	20.018	17
288095	78	20.019	18
288095	81	20.02	19
288095	89	20.021	20
288095	92	20.022	21
288095	96	20.023	22
288095	99	20.024	23
288095	102	20.025	24
288095	105	20.026	25
288095	109	20.027	26
288095	112	20.028	27
288095	115	20.029	28
288095	122	20.03	29
288095	125	20.031	30
288095	128	20.032	31
288095	131	20.033	32
288095	134	20.034	33
288095	137	20.035	34
288095	140	20.036	35
288095	143	20.037	36
288095	146	20.038	37
288095	149	20.039	38
288095	152	20.04	39
