file 23286 1369674127                                           
version 2
run Stability2-110-20130526-00:51:39-26640
attr configname Stability2
attr datetime 20130526-00:51:39
attr experiment Stability2
attr inifile omnetpp.ini
attr iterationvars $0=40
attr iterationvars2 "$0=40, $repetition=20"
attr measurement $0=40
attr network Network
attr processid 26640
attr repetition 20
attr replication #20
attr resultdir results
attr runnumber 110
attr seedset 110
vector 333110  Network.churner  inGoingSizeSig:vector  ETV
333110	22469 817 11 157 20 20.04 41 0 39 780 20540
vector 330110  Network.dyn_peer[0]  lookupHopsSig:vector  ETV
330110	8187 128 18 1294 20.001 22.807068399299 5 0 8 24 152
vector 330111  Network.dyn_peer[0]  lookupStabilitySig:vector  ETV
330111	8315 189 18 1294 20.001 22.807068399299 5 -0.20000004768372 1 3.1667501702905 2.9316764506941
vector 330112  Network.dyn_peer[0]  lookupTimeSig:vector  ETV
330112	8504 136 18 1294 20.001 22.807068399299 5 0 0.9 2.8 2.04
vector 330116  Network.dyn_peer[2]  lookupHopsSig:vector  ETV
330116	8871 97 28 930 20.003 21.308988695939 4 0 5 10 38
vector 330117  Network.dyn_peer[2]  lookupStabilitySig:vector  ETV
330117	8968 127 28 930 20.003 21.308988695939 4 0 1 2.3857142776251 1.9773469282778
vector 330118  Network.dyn_peer[2]  lookupTimeSig:vector  ETV
330118	9095 103 28 930 20.003 21.308988695939 4 0 0.6 1.3 0.61
vector 330143  Network.dyn_peer[11]  lookupHopsSig:vector  ETV
330143	11600 68 59 784 20.012 21.021172431495 3 0 5 8 34
vector 330144  Network.dyn_peer[11]  lookupStabilitySig:vector  ETV
330144	11668 85 59 784 20.012 21.021172431495 3 0.39999997615814 1 1.8999999761581 1.4099999809265
vector 330145  Network.dyn_peer[11]  lookupTimeSig:vector  ETV
330145	11753 72 59 784 20.012 21.021172431495 3 0 0.6 1 0.52
vector 330152  Network.dyn_peer[14]  lookupHopsSig:vector  ETV
330152	12426 158 72 1189 20.015 22.026526646068 6 0 8 15 77
vector 330153  Network.dyn_peer[14]  lookupStabilitySig:vector  ETV
330153	12584 232 72 1189 20.015 22.026526646068 6 0.38461536169052 1 4.8003999739885 4.1524119373867
vector 330154  Network.dyn_peer[14]  lookupTimeSig:vector  ETV
330154	12816 168 72 1189 20.015 22.026526646068 6 0 0.9 2 1.12
vector 330179  Network.dyn_peer[23]  lookupHopsSig:vector  ETV
330179	16102 99 103 1039 20.024 21.536685174866 4 0 5 12 50
vector 330180  Network.dyn_peer[23]  lookupStabilitySig:vector  ETV
330180	16201 144 103 1039 20.024 21.536685174866 4 0.33333331346512 1 2.5060605555773 1.8682185063409
vector 330181  Network.dyn_peer[23]  lookupTimeSig:vector  ETV
330181	16345 105 103 1039 20.024 21.536685174866 4 0 0.6 1.5 0.77
vector 330194  Network.dyn_peer[28]  lookupHopsSig:vector  ETV
330194	18318 160 122 1298 20.029 22.863581967045 6 0 8 23 123
vector 330195  Network.dyn_peer[28]  lookupStabilitySig:vector  ETV
330195	18478 236 122 1298 20.029 22.863581967045 6 -0.33333337306976 1 4.1863956153393 4.2209785663732
vector 330196  Network.dyn_peer[28]  lookupTimeSig:vector  ETV
330196	18714 170 122 1298 20.029 22.863581967045 6 0 0.9 2.8 1.74
vector 330206  Network.dyn_peer[32]  lookupHopsSig:vector  ETV
330206	19864 69 138 754 20.033 20.942678212134 3 0 5 7 29
vector 330207  Network.dyn_peer[32]  lookupStabilitySig:vector  ETV
330207	19933 72 138 754 20.033 20.942678212134 3 0 1 1.75 1.5625
vector 330208  Network.dyn_peer[32]  lookupTimeSig:vector  ETV
330208	20005 73 138 754 20.033 20.942678212134 3 0 0.6 0.9 0.45
vector 330227  Network.dyn_peer[39]  lookupHopsSig:vector  ETV
330227	22204 77 163 759 20.04 20.963568555158 3 0 6 7 37
vector 330228  Network.dyn_peer[39]  lookupStabilitySig:vector  ETV
330228	22281 107 163 759 20.04 20.963568555158 3 0.33333331346512 1 2.1333333104849 1.7511110930973
vector 330229  Network.dyn_peer[39]  lookupTimeSig:vector  ETV
330229	22388 81 163 759 20.04 20.963568555158 3 0 0.7 0.9 0.53
vector 330128  Network.dyn_peer[6]  lookupHopsSig:vector  ETV
330128	10176 71 178 1060 20.107 21.609332702637 3 1 11 14 126
vector 330129  Network.dyn_peer[6]  lookupStabilitySig:vector  ETV
330129	10247 115 178 1060 20.107 21.609332702637 3 0.21428573131561 0.91304347664118 1.9273292049766 1.5195667601141
vector 330130  Network.dyn_peer[6]  lookupTimeSig:vector  ETV
330130	10362 76 178 1060 20.107 21.609332702637 3 0.1 1.2 1.6 1.54
vector 330131  Network.dyn_peer[7]  lookupHopsSig:vector  ETV
330131	10438 41 183 928 20.108 21.308 2 1 11 12 122
vector 330132  Network.dyn_peer[7]  lookupStabilitySig:vector  ETV
330132	10479 70 183 928 20.108 21.308 2 0.21428573131561 0.79999999701977 1.0142857283354 0.6859183698771
vector 330133  Network.dyn_peer[7]  lookupTimeSig:vector  ETV
330133	10549 44 183 928 20.108 21.308 2 0.1 1.2 1.3 1.45
vector 330140  Network.dyn_peer[10]  lookupHopsSig:vector  ETV
330140	11319 77 190 948 20.111 21.323949548581 3 1 8 11 69
vector 330141  Network.dyn_peer[10]  lookupStabilitySig:vector  ETV
330141	11396 121 190 948 20.111 21.323949548581 3 0.5294117629528 0.79999999701977 1.9294117540121 1.2802768028319
vector 330142  Network.dyn_peer[10]  lookupTimeSig:vector  ETV
330142	11517 83 190 948 20.111 21.323949548581 3 0.1 0.9 1.3 0.91
vector 330170  Network.dyn_peer[20]  lookupHopsSig:vector  ETV
330170	14700 98 205 897 20.121 21.225258042273 4 1 4 9 25
vector 330171  Network.dyn_peer[20]  lookupStabilitySig:vector  ETV
330171	14798 158 205 897 20.121 21.225258042273 4 0.19999998807907 0.84615384042263 2.512820482254 1.8404207433242
vector 330172  Network.dyn_peer[20]  lookupTimeSig:vector  ETV
330172	14956 106 205 897 20.121 21.225258042273 4 0.1 0.5 1.2 0.44
vector 330173  Network.dyn_peer[21]  lookupHopsSig:vector  ETV
330173	15062 131 210 1251 20.122 22.337589003887 5 1 12 19 157
vector 330174  Network.dyn_peer[21]  lookupStabilitySig:vector  ETV
330174	15193 205 210 1251 20.122 22.337589003887 5 0.36842107772827 0.94444444403052 3.9867571443319 3.4235141934048
vector 330175  Network.dyn_peer[21]  lookupTimeSig:vector  ETV
330175	15398 140 210 1251 20.122 22.337589003887 5 0.1 1.3 2.3 1.97
vector 330188  Network.dyn_peer[26]  lookupHopsSig:vector  ETV
330188	17058 279 219 1323 20.127 24.366906829652 10 1 11 34 190
vector 330189  Network.dyn_peer[26]  lookupStabilitySig:vector  ETV
330189	17337 425 219 1323 20.127 24.366906829652 10 0.42105263471603 0.9772727265954 8.656842879951 7.7353921832515
vector 330190  Network.dyn_peer[26]  lookupTimeSig:vector  ETV
330190	17762 298 219 1323 20.127 24.366906829652 10 0.1 1.2 4.3 2.65
vector 330212  Network.dyn_peer[34]  lookupHopsSig:vector  ETV
330212	20339 128 231 1180 20.135 21.94976651845 5 1 9 15 93
vector 330213  Network.dyn_peer[34]  lookupStabilitySig:vector  ETV
330213	20467 190 231 1180 20.135 21.94976651845 5 0.25 0.96969696879387 3.867065384984 3.3503191283022
vector 330214  Network.dyn_peer[34]  lookupTimeSig:vector  ETV
330214	20657 136 231 1180 20.135 21.94976651845 5 0.1 1 1.9 1.25
vector 330113  Network.dyn_peer[1]  lookupHopsSig:vector  ETV
330113	8640 69 242 881 20.202 21.211920441703 3 2 5 10 38
vector 330114  Network.dyn_peer[1]  lookupStabilitySig:vector  ETV
330114	8709 87 242 881 20.202 21.211920441703 3 0 0.75 1.3499999940395 0.92249999284745
vector 330115  Network.dyn_peer[1]  lookupTimeSig:vector  ETV
330115	8796 75 242 881 20.202 21.211920441703 3 0.2 0.6 1.2 0.56
vector 330122  Network.dyn_peer[4]  lookupHopsSig:vector  ETV
330122	9553 99 249 1064 20.205 21.616651091814 4 2 5 13 47
vector 330123  Network.dyn_peer[4]  lookupStabilitySig:vector  ETV
330123	9652 159 249 1064 20.205 21.616651091814 4 0.39999997615814 0.79166667163372 2.4916666299105 1.6367360760603
vector 330124  Network.dyn_peer[4]  lookupTimeSig:vector  ETV
330124	9811 107 249 1064 20.205 21.616651091814 4 0.2 0.6 1.6 0.72
vector 330125  Network.dyn_peer[5]  lookupHopsSig:vector  ETV
330125	9918 69 254 709 20.206 20.914367670094 3 2 3 7 17
vector 330126  Network.dyn_peer[5]  lookupStabilitySig:vector  ETV
330126	9987 114 254 709 20.206 20.914367670094 3 0.39999997615814 0.59999999403954 1.5999999642372 0.87999996662141
vector 330127  Network.dyn_peer[5]  lookupTimeSig:vector  ETV
330127	10101 75 254 709 20.206 20.914367670094 3 0.2 0.4 0.9 0.29
vector 330164  Network.dyn_peer[18]  lookupHopsSig:vector  ETV
330164	13872 158 272 1280 20.219 22.630505154533 6 2 5 21 83
vector 330165  Network.dyn_peer[18]  lookupStabilitySig:vector  ETV
330165	14030 248 272 1280 20.219 22.630505154533 6 0.39999997615814 0.90909090638161 4.2819846346974 3.2696605468445
vector 330166  Network.dyn_peer[18]  lookupTimeSig:vector  ETV
330166	14278 170 272 1280 20.219 22.630505154533 6 0.2 0.6 2.6 1.26
vector 330182  Network.dyn_peer[24]  lookupHopsSig:vector  ETV
330182	16450 98 284 997 20.225 21.433601664604 4 1 5 11 39
vector 330183  Network.dyn_peer[24]  lookupStabilitySig:vector  ETV
330183	16548 143 284 997 20.225 21.433601664604 4 0 0.94999999925494 2.319230761379 1.8542159659997
vector 330184  Network.dyn_peer[24]  lookupTimeSig:vector  ETV
330184	16691 106 284 997 20.225 21.433601664604 4 0.2 0.6 1.4 0.6
vector 330191  Network.dyn_peer[27]  lookupHopsSig:vector  ETV
330191	18060 69 291 736 20.228 20.931958158643 3 2 3 7 17
vector 330192  Network.dyn_peer[27]  lookupStabilitySig:vector  ETV
330192	18129 114 291 736 20.228 20.931958158643 3 0.39999997615814 0.66666665673256 1.6666666269302 0.96444440497293
vector 330193  Network.dyn_peer[27]  lookupTimeSig:vector  ETV
330193	18243 75 291 736 20.228 20.931958158643 3 0.2 0.4 0.9 0.29
vector 330200  Network.dyn_peer[30]  lookupHopsSig:vector  ETV
330200	19140 130 298 1254 20.231 22.344305134414 5 2 7 19 89
vector 330201  Network.dyn_peer[30]  lookupStabilitySig:vector  ETV
330201	19270 204 298 1254 20.231 22.344305134414 5 0.41666668653488 0.9333333298564 3.6679788529873 2.8826130216725
vector 330202  Network.dyn_peer[30]  lookupTimeSig:vector  ETV
330202	19474 140 298 1254 20.231 22.344305134414 5 0.2 0.8 2.3 1.27
vector 330134  Network.dyn_peer[8]  lookupHopsSig:vector  ETV
330134	10593 138 324 1213 20.309 22.051806426837 5 2 5 16 58
vector 330135  Network.dyn_peer[8]  lookupStabilitySig:vector  ETV
330135	10731 212 324 1213 20.309 22.051806426837 5 0.16666668653488 0.94285714253783 3.242857132107 2.5878684564141
vector 330136  Network.dyn_peer[8]  lookupTimeSig:vector  ETV
330136	10943 148 324 1213 20.309 22.051806426837 5 0.3 0.6 2 0.88
vector 330137  Network.dyn_peer[9]  lookupHopsSig:vector  ETV
330137	11091 68 329 1103 20.31 21.711964460555 3 3 7 15 83
vector 330138  Network.dyn_peer[9]  lookupStabilitySig:vector  ETV
330138	11159 86 329 1103 20.31 21.711964460555 3 0 0.75 1.1499999761581 0.72249998092651
vector 330139  Network.dyn_peer[9]  lookupTimeSig:vector  ETV
330139	11245 74 329 1103 20.31 21.711964460555 3 0.3 0.8 1.7 1.09
vector 330155  Network.dyn_peer[15]  lookupHopsSig:vector  ETV
330155	12984 49 341 954 20.316 21.325695439818 2 3 9 12 90
vector 330156  Network.dyn_peer[15]  lookupStabilitySig:vector  ETV
330156	13033 66 341 954 20.316 21.325695439818 2 0.39999997615814 0.5 0.89999997615814 0.40999998092651
vector 330157  Network.dyn_peer[15]  lookupTimeSig:vector  ETV
330157	13099 51 341 954 20.316 21.325695439818 2 0.3 1 1.3 1.09
vector 330158  Network.dyn_peer[16]  lookupHopsSig:vector  ETV
330158	13150 69 346 945 20.317 21.322984046319 3 2 6 11 49
vector 330159  Network.dyn_peer[16]  lookupStabilitySig:vector  ETV
330159	13219 103 346 945 20.317 21.322984046319 3 0.39999997615814 0.875 1.6749999523163 1.085624961853
vector 330160  Network.dyn_peer[16]  lookupTimeSig:vector  ETV
330160	13322 75 346 945 20.317 21.322984046319 3 0.3 0.7 1.3 0.67
vector 330161  Network.dyn_peer[17]  lookupHopsSig:vector  ETV
330161	13397 130 352 1265 20.318 22.431188262538 5 3 6 20 88
vector 330162  Network.dyn_peer[17]  lookupStabilitySig:vector  ETV
330162	13527 205 352 1265 20.318 22.431188262538 5 0.39999997615814 0.92105263471603 3.4328172877431 2.6396527878988
vector 330163  Network.dyn_peer[17]  lookupTimeSig:vector  ETV
330163	13732 140 352 1265 20.318 22.431188262538 5 0.3 0.7 2.4 1.26
vector 330167  Network.dyn_peer[19]  lookupHopsSig:vector  ETV
330167	14448 67 358 985 20.32 21.421140019961 3 3 6 12 54
vector 330168  Network.dyn_peer[19]  lookupStabilitySig:vector  ETV
330168	14515 112 358 985 20.32 21.421140019961 3 0.39999997615814 0.84210526943207 1.6421052217483 1.0291412466583
vector 330169  Network.dyn_peer[19]  lookupTimeSig:vector  ETV
330169	14627 73 358 985 20.32 21.421140019961 3 0.3 0.7 1.4 0.74
vector 330176  Network.dyn_peer[22]  lookupHopsSig:vector  ETV
330176	15538 158 367 1286 20.323 22.648235314661 6 2 5 21 79
vector 330177  Network.dyn_peer[22]  lookupStabilitySig:vector  ETV
330177	15696 236 367 1286 20.323 22.648235314661 6 0.19999998807907 0.92000000178814 4.0870634540915 3.2528816115429
vector 330178  Network.dyn_peer[22]  lookupTimeSig:vector  ETV
330178	15932 170 367 1286 20.323 22.648235314661 6 0.3 0.6 2.6 1.2
vector 330185  Network.dyn_peer[25]  lookupHopsSig:vector  ETV
330185	16797 70 375 1083 20.326 21.637337074273 3 3 7 14 74
vector 330186  Network.dyn_peer[25]  lookupStabilitySig:vector  ETV
330186	16867 115 375 1083 20.326 21.637337074273 3 0.39999997615814 0.84615384042263 1.6628205031156 1.0495874302564
vector 330187  Network.dyn_peer[25]  lookupTimeSig:vector  ETV
330187	16982 76 375 1083 20.326 21.637337074273 3 0.3 0.8 1.6 0.98
vector 330209  Network.dyn_peer[33]  lookupHopsSig:vector  ETV
330209	20078 70 388 1120 20.334 21.735048948962 3 3 7 15 83
vector 330210  Network.dyn_peer[33]  lookupStabilitySig:vector  ETV
330210	20148 115 388 1120 20.334 21.735048948962 3 0.39999997615814 0.82758620381355 1.6442528665066 1.018510033337
vector 330211  Network.dyn_peer[33]  lookupTimeSig:vector  ETV
330211	20263 76 388 1120 20.334 21.735048948962 3 0.3 0.8 1.7 1.09
vector 330119  Network.dyn_peer[3]  lookupHopsSig:vector  ETV
330119	9198 100 402 1100 20.404 21.707472647913 4 1 6 14 62
vector 330120  Network.dyn_peer[3]  lookupStabilitySig:vector  ETV
330120	9298 147 402 1100 20.404 21.707472647913 4 0.19999998807907 0.96296296268702 2.5265993103385 1.9631654243141
vector 330121  Network.dyn_peer[3]  lookupTimeSig:vector  ETV
330121	9445 108 402 1100 20.404 21.707472647913 4 0.2 0.7 1.7 0.85
vector 330146  Network.dyn_peer[12]  lookupHopsSig:vector  ETV
330146	11825 69 416 772 20.413 21.013972964623 3 1 4 8 26
vector 330147  Network.dyn_peer[12]  lookupStabilitySig:vector  ETV
330147	11894 114 416 772 20.413 21.013972964623 3 0.19999998807907 0.89999999850988 1.4999999627471 1.0099999734759
vector 330148  Network.dyn_peer[12]  lookupTimeSig:vector  ETV
330148	12008 75 416 772 20.413 21.013972964623 3 0.2 0.4 1 0.36
vector 330215  Network.dyn_peer[35]  lookupHopsSig:vector  ETV
330215	20793 69 452 1173 20.436 21.94017644859 3 4 8 17 105
vector 330216  Network.dyn_peer[35]  lookupStabilitySig:vector  ETV
330216	20862 102 452 1173 20.436 21.94017644859 3 0.19999998807907 0.75 1.5333333313465 0.9427777845992
vector 330217  Network.dyn_peer[35]  lookupTimeSig:vector  ETV
330217	20964 75 452 1173 20.436 21.94017644859 3 0.4 0.9 1.9 1.33
vector 330149  Network.dyn_peer[13]  lookupHopsSig:vector  ETV
330149	12083 100 475 1165 20.514 21.925577612598 4 1 7 16 84
vector 330150  Network.dyn_peer[13]  lookupStabilitySig:vector  ETV
330150	12183 135 475 1165 20.514 21.925577612598 4 0 0.96774193644524 2.4267936572433 2.0567356936207
vector 330151  Network.dyn_peer[13]  lookupTimeSig:vector  ETV
330151	12318 108 475 1165 20.514 21.925577612598 4 0.2 0.8 1.9 1.09
vector 330218  Network.dyn_peer[36]  lookupHopsSig:vector  ETV
330218	21039 40 508 748 20.537 20.937 2 3 5 8 34
vector 330219  Network.dyn_peer[36]  lookupStabilitySig:vector  ETV
330219	21079 42 508 748 20.537 20.937 2 0 0.5 0.5 0.25
vector 330220  Network.dyn_peer[36]  lookupTimeSig:vector  ETV
330220	21121 44 508 748 20.537 20.937 2 0.4 0.5 0.9 0.41
vector 330224  Network.dyn_peer[38]  lookupHopsSig:vector  ETV
330224	21855 99 514 1158 20.539 21.85125892671 4 2 5 15 61
vector 330225  Network.dyn_peer[38]  lookupStabilitySig:vector  ETV
330225	21954 143 514 1158 20.539 21.85125892671 4 0 0.9333333298564 2.4260869398713 1.9979751902031
vector 330226  Network.dyn_peer[38]  lookupTimeSig:vector  ETV
330226	22097 107 514 1158 20.539 21.85125892671 4 0.3 0.5 1.8 0.84
vector 330197  Network.dyn_peer[29]  lookupHopsSig:vector  ETV
330197	18884 68 563 1003 20.63 21.436452969491 3 2 6 12 56
vector 330198  Network.dyn_peer[29]  lookupStabilitySig:vector  ETV
330198	18952 114 563 1003 20.63 21.436452969491 3 -0.20000004768372 0.89999999850988 1.3666666075587 1.2944444475902
vector 330199  Network.dyn_peer[29]  lookupTimeSig:vector  ETV
330199	19066 74 563 1003 20.63 21.436452969491 3 0.3 0.6 1.4 0.7
vector 330203  Network.dyn_peer[31]  lookupHopsSig:vector  ETV
330203	19614 70 572 1080 20.632 21.634928125064 3 3 6 14 70
vector 330204  Network.dyn_peer[31]  lookupStabilitySig:vector  ETV
330204	19684 104 572 1080 20.632 21.634928125064 3 -0.20000004768372 0.79999999701977 1.349999949336 1.2425000143051
vector 330205  Network.dyn_peer[31]  lookupTimeSig:vector  ETV
330205	19788 76 572 1080 20.632 21.634928125064 3 0.4 0.6 1.6 0.88
vector 330221  Network.dyn_peer[37]  lookupHopsSig:vector  ETV
330221	21165 190 584 1288 20.638 22.656577542471 7 1 6 20 84
vector 330222  Network.dyn_peer[37]  lookupStabilitySig:vector  ETV
330222	21355 296 584 1288 20.638 22.656577542471 7 -0.20000004768372 0.97560975700617 5.1745718419552 4.9397618617488
vector 330223  Network.dyn_peer[37]  lookupTimeSig:vector  ETV
330223	21651 204 584 1288 20.638 22.656577542471 7 0.2 0.6 2.6 1.18
