file 30397 1369674127                                           
version 2
run Stability2-131-20130526-00:51:46-26640
attr configname Stability2
attr datetime 20130526-00:51:46
attr experiment Stability2
attr inifile omnetpp.ini
attr iterationvars $0=50
attr iterationvars2 "$0=50, $repetition=11"
attr measurement $0=50
attr network Network
attr processid 26640
attr repetition 11
attr replication #11
attr resultdir results
attr runnumber 131
attr seedset 131
vector 396131  Network.churner  inGoingSizeSig:vector  ETV
396131	29366 1031 11 200 20 20.05 51 0 49 1225 40425
vector 393134  Network.dyn_peer[1]  lookupHopsSig:vector  ETV
393134	10270 97 21 734 20.002 20.811643551289 4 0 2 5 9
vector 393135  Network.dyn_peer[1]  lookupStabilitySig:vector  ETV
393135	10367 142 21 734 20.002 20.811643551289 4 0.59999999403954 1 3.1142856925726 2.5102040514654
vector 393136  Network.dyn_peer[1]  lookupTimeSig:vector  ETV
393136	10509 103 21 734 20.002 20.811643551289 4 0 0.3 0.8 0.22
vector 393146  Network.dyn_peer[5]  lookupHopsSig:vector  ETV
393146	11840 98 37 1321 20.006 21.716969337808 4 0 8 14 82
vector 393147  Network.dyn_peer[5]  lookupStabilitySig:vector  ETV
393147	11938 143 37 1321 20.006 21.716969337808 4 0.11111110448837 1 2.8042057305574 2.4466900319139
vector 393148  Network.dyn_peer[5]  lookupTimeSig:vector  ETV
393148	12081 104 37 1321 20.006 21.716969337808 4 0 0.9 1.7 1.13
vector 393155  Network.dyn_peer[8]  lookupHopsSig:vector  ETV
393155	13012 106 50 696 20.009 20.728555000917 4 0 2 4 6
vector 393156  Network.dyn_peer[8]  lookupStabilitySig:vector  ETV
393156	13118 151 50 696 20.009 20.728555000917 4 0.59999999403954 1 3.2333333194256 2.6944444242451
vector 393157  Network.dyn_peer[8]  lookupTimeSig:vector  ETV
393157	13269 112 50 696 20.009 20.728555000917 4 0 0.3 0.7 0.17
vector 393158  Network.dyn_peer[9]  lookupHopsSig:vector  ETV
393158	13381 128 58 1643 20.01 22.724697799434 5 0 15 23 249
vector 393159  Network.dyn_peer[9]  lookupStabilitySig:vector  ETV
393159	13509 187 58 1643 20.01 22.724697799434 5 0.19999998807907 1 3.6868217028677 3.1919178592306
vector 393160  Network.dyn_peer[9]  lookupTimeSig:vector  ETV
393160	13696 135 58 1643 20.01 22.724697799434 5 0 1.6 2.7 2.99
vector 393161  Network.dyn_peer[10]  lookupHopsSig:vector  ETV
393161	13831 78 66 1065 20.011 21.228739463985 3 0 5 10 50
vector 393162  Network.dyn_peer[10]  lookupStabilitySig:vector  ETV
393162	13909 98 66 1065 20.011 21.228739463985 3 0.16666668653488 1 1.8541666865349 1.5004340344005
vector 393163  Network.dyn_peer[10]  lookupTimeSig:vector  ETV
393163	14007 82 66 1065 20.011 21.228739463985 3 0 0.6 1.2 0.72
vector 393176  Network.dyn_peer[15]  lookupHopsSig:vector  ETV
393176	15560 68 87 928 20.016 21.025509109498 3 0 7 8 50
vector 393177  Network.dyn_peer[15]  lookupStabilitySig:vector  ETV
393177	15628 87 87 928 20.016 21.025509109498 3 0.125 1 2.0340909063816 1.8420712760657
vector 393178  Network.dyn_peer[15]  lookupTimeSig:vector  ETV
393178	15715 72 87 928 20.016 21.025509109498 3 0 0.8 1 0.68
vector 393188  Network.dyn_peer[19]  lookupHopsSig:vector  ETV
393188	16539 38 106 543 20.02 20.52 2 0 4 4 16
vector 393189  Network.dyn_peer[19]  lookupStabilitySig:vector  ETV
393189	16577 53 106 543 20.02 20.52 2 0.19999998807907 1 1.1999999880791 1.0399999952316
vector 393190  Network.dyn_peer[19]  lookupTimeSig:vector  ETV
393190	16630 40 106 543 20.02 20.52 2 0 0.5 0.5 0.25
vector 393236  Network.dyn_peer[35]  lookupHopsSig:vector  ETV
393236	23434 69 160 874 20.036 20.939710459677 3 0 4 7 25
vector 393237  Network.dyn_peer[35]  lookupStabilitySig:vector  ETV
393237	23503 99 160 874 20.036 20.939710459677 3 0.39999997615814 1 1.9999999701977 1.519999973774
vector 393238  Network.dyn_peer[35]  lookupTimeSig:vector  ETV
393238	23602 73 160 874 20.036 20.939710459677 3 0 0.5 0.9 0.41
vector 393131  Network.dyn_peer[0]  lookupHopsSig:vector  ETV
393131	10127 40 207 811 20.101 20.901 2 1 7 8 50
vector 393132  Network.dyn_peer[0]  lookupStabilitySig:vector  ETV
393132	10167 59 207 811 20.101 20.901 2 0.125 0.79999999701977 0.92499999701977 0.65562499523163
vector 393133  Network.dyn_peer[0]  lookupTimeSig:vector  ETV
393133	10226 44 207 811 20.101 20.901 2 0.1 0.8 0.9 0.65
vector 393137  Network.dyn_peer[2]  lookupHopsSig:vector  ETV
393137	10612 79 213 1046 20.103 21.216227049956 3 1 5 10 42
vector 393138  Network.dyn_peer[2]  lookupStabilitySig:vector  ETV
393138	10691 124 213 1046 20.103 21.216227049956 3 0.33333331346512 0.79999999701977 1.7999999672174 1.1955555242962
vector 393139  Network.dyn_peer[2]  lookupTimeSig:vector  ETV
393139	10815 85 213 1046 20.103 21.216227049956 3 0.1 0.6 1.2 0.62
vector 393152  Network.dyn_peer[7]  lookupHopsSig:vector  ETV
393152	12444 159 222 1578 20.108 22.425101965705 6 1 6 19 81
vector 393153  Network.dyn_peer[7]  lookupStabilitySig:vector  ETV
393153	12603 238 222 1578 20.108 22.425101965705 6 0.45454543828964 0.89655172079802 4.6496265605092 3.734242218822
vector 393154  Network.dyn_peer[7]  lookupTimeSig:vector  ETV
393154	12841 171 222 1578 20.108 22.425101965705 6 0.1 0.7 2.4 1.22
vector 393167  Network.dyn_peer[12]  lookupHopsSig:vector  ETV
393167	14350 100 231 1413 20.113 21.915325418024 4 1 5 16 76
vector 393168  Network.dyn_peer[12]  lookupStabilitySig:vector  ETV
393168	14450 160 231 1413 20.113 21.915325418024 4 0.16666668653488 0.83870968222618 2.5112587064505 1.8694815895613
vector 393169  Network.dyn_peer[12]  lookupTimeSig:vector  ETV
393169	14610 108 231 1413 20.113 21.915325418024 4 0.1 0.6 1.9 1.09
vector 393179  Network.dyn_peer[16]  lookupHopsSig:vector  ETV
393179	15787 42 240 1372 20.117 21.817 2 1 16 17 257
vector 393180  Network.dyn_peer[16]  lookupStabilitySig:vector  ETV
393180	15829 71 240 1372 20.117 21.817 2 0.42857140302658 0.79999999701977 1.2285714000463 0.8236734427238
vector 393181  Network.dyn_peer[16]  lookupTimeSig:vector  ETV
393181	15900 45 240 1372 20.117 21.817 2 0.1 1.7 1.8 2.9
vector 393254  Network.dyn_peer[41]  lookupHopsSig:vector  ETV
393254	25071 189 272 1663 20.142 22.770598165523 7 1 6 21 87
vector 393255  Network.dyn_peer[41]  lookupStabilitySig:vector  ETV
393255	25260 292 272 1663 20.142 22.770598165523 7 0.54545453190804 0.9545454531908 5.7106442302466 4.7640191570002
vector 393256  Network.dyn_peer[41]  lookupTimeSig:vector  ETV
393256	25552 203 272 1663 20.142 22.770598165523 7 0.1 0.7 2.7 1.33
vector 393149  Network.dyn_peer[6]  lookupHopsSig:vector  ETV
393149	12185 70 290 1318 20.207 21.715077070491 3 2 9 15 101
vector 393150  Network.dyn_peer[6]  lookupStabilitySig:vector  ETV
393150	12255 115 290 1318 20.207 21.715077070491 3 0.33333331346512 0.59999999403954 1.524242401123 0.82028464763399
vector 393151  Network.dyn_peer[6]  lookupTimeSig:vector  ETV
393151	12370 74 290 1318 20.207 21.715077070491 3 0.2 1 1.7 1.29
vector 393239  Network.dyn_peer[36]  lookupHopsSig:vector  ETV
393239	23675 70 330 1290 20.237 21.639894370148 3 2 6 14 76
vector 393240  Network.dyn_peer[36]  lookupStabilitySig:vector  ETV
393240	23745 115 330 1290 20.237 21.639894370148 3 0.33333331346512 0.66666665673256 1.5999999642372 0.91555552191205
vector 393241  Network.dyn_peer[36]  lookupTimeSig:vector  ETV
393241	23860 76 330 1290 20.237 21.639894370148 3 0.2 0.7 1.6 1.02
vector 393275  Network.dyn_peer[48]  lookupHopsSig:vector  ETV
393275	28320 70 346 1364 20.249 21.752969491112 3 2 8 15 93
vector 393276  Network.dyn_peer[48]  lookupStabilitySig:vector  ETV
393276	28390 104 346 1364 20.249 21.752969491112 3 0.375 0.70370370149612 1.6787036955357 0.99582389234679
vector 393277  Network.dyn_peer[48]  lookupTimeSig:vector  ETV
393277	28494 76 346 1364 20.249 21.752969491112 3 0.2 0.9 1.7 1.21
vector 393143  Network.dyn_peer[4]  lookupHopsSig:vector  ETV
393143	11469 101 357 1520 20.305 22.214483528896 4 2 8 19 113
vector 393144  Network.dyn_peer[4]  lookupStabilitySig:vector  ETV
393144	11570 161 357 1520 20.305 22.214483528896 4 0.39999997615814 0.94594594463706 2.6190641783178 1.9229556761762
vector 393145  Network.dyn_peer[4]  lookupTimeSig:vector  ETV
393145	11731 109 357 1520 20.305 22.214483528896 4 0.3 0.9 2.2 1.48
vector 393170  Network.dyn_peer[13]  lookupHopsSig:vector  ETV
393170	14718 78 374 981 20.314 21.122297763932 3 2 4 9 29
vector 393171  Network.dyn_peer[13]  lookupStabilitySig:vector  ETV
393171	14796 110 374 981 20.314 21.122297763932 3 0.39999997615814 0.84615384042263 1.7461538165808 1.1259763025885
vector 393172  Network.dyn_peer[13]  lookupTimeSig:vector  ETV
393172	14906 84 374 981 20.314 21.122297763932 3 0.3 0.5 1.1 0.43
vector 393173  Network.dyn_peer[14]  lookupHopsSig:vector  ETV
393173	14990 160 379 1738 20.315 23.4375944484 6 3 10 29 177
vector 393174  Network.dyn_peer[14]  lookupStabilitySig:vector  ETV
393174	15150 239 379 1738 20.315 23.4375944484 6 0.39999997615814 0.9375 4.4220969676971 3.5933423680566
vector 393175  Network.dyn_peer[14]  lookupTimeSig:vector  ETV
393175	15389 171 379 1738 20.315 23.4375944484 6 0.3 1.1 3.4 2.34
vector 393194  Network.dyn_peer[21]  lookupHopsSig:vector  ETV
393194	17029 106 394 1240 20.322 21.528538343812 4 1 5 12 44
vector 393195  Network.dyn_peer[21]  lookupStabilitySig:vector  ETV
393195	17135 166 394 1240 20.322 21.528538343812 4 0.39999997615814 0.92857142537832 2.596545226872 1.8979763984286
vector 393196  Network.dyn_peer[21]  lookupTimeSig:vector  ETV
393196	17301 114 394 1240 20.322 21.528538343812 4 0.2 0.6 1.5 0.65
vector 393200  Network.dyn_peer[23]  lookupHopsSig:vector  ETV
393200	18205 99 401 1349 20.324 21.739645800984 4 2 5 14 54
vector 393201  Network.dyn_peer[23]  lookupStabilitySig:vector  ETV
393201	18304 159 401 1349 20.324 21.739645800984 4 0.39999997615814 0.79999999701977 2.5809523314238 1.7546484707434
vector 393202  Network.dyn_peer[23]  lookupTimeSig:vector  ETV
393202	18463 107 401 1349 20.324 21.739645800984 4 0.3 0.6 1.7 0.79
vector 393215  Network.dyn_peer[28]  lookupHopsSig:vector  ETV
393215	20454 69 411 1390 20.329 21.83877920586 3 3 9 16 106
vector 393216  Network.dyn_peer[28]  lookupStabilitySig:vector  ETV
393216	20523 101 411 1390 20.329 21.83877920586 3 0.39999997615814 0.68965518474579 1.5896551609039 0.88562425477326
vector 393217  Network.dyn_peer[28]  lookupTimeSig:vector  ETV
393217	20624 73 411 1390 20.329 21.83877920586 3 0.3 1 1.8 1.34
vector 393257  Network.dyn_peer[42]  lookupHopsSig:vector  ETV
393257	25755 69 430 965 20.343 21.069274527652 3 2 3 8 22
vector 393258  Network.dyn_peer[42]  lookupStabilitySig:vector  ETV
393258	25824 102 430 965 20.343 21.069274527652 3 0.39999997615814 0.75 1.8166666328907 1.1669444121255
vector 393259  Network.dyn_peer[42]  lookupTimeSig:vector  ETV
393259	25926 75 430 965 20.343 21.069274527652 3 0.3 0.4 1 0.34
vector 393140  Network.dyn_peer[3]  lookupHopsSig:vector  ETV
393140	10900 160 445 1575 20.404 22.424239910102 6 2 5 19 67
vector 393141  Network.dyn_peer[3]  lookupStabilitySig:vector  ETV
393141	11060 237 445 1575 20.404 22.424239910102 6 0.19999998807907 0.9411764703691 4.3689839281142 3.623130496503
vector 393142  Network.dyn_peer[3]  lookupTimeSig:vector  ETV
393142	11297 172 445 1575 20.404 22.424239910102 6 0.3 0.6 2.4 1.02
vector 393185  Network.dyn_peer[18]  lookupHopsSig:vector  ETV
393185	16298 70 465 1421 20.419 21.92216963087 3 4 7 17 101
vector 393186  Network.dyn_peer[18]  lookupStabilitySig:vector  ETV
393186	16368 95 465 1421 20.419 21.92216963087 3 0.19999998807907 0.8125 1.5749999880791 1.0165624952316
vector 393187  Network.dyn_peer[18]  lookupTimeSig:vector  ETV
393187	16463 76 465 1421 20.419 21.92216963087 3 0.4 0.8 1.9 1.29
vector 393212  Network.dyn_peer[27]  lookupHopsSig:vector  ETV
393212	20087 100 481 1501 20.428 22.137435350614 4 3 6 18 86
vector 393213  Network.dyn_peer[27]  lookupStabilitySig:vector  ETV
393213	20187 159 481 1501 20.428 22.137435350614 4 0.19999998807907 0.91666666418314 2.4880952164531 1.8468083710671
vector 393214  Network.dyn_peer[27]  lookupTimeSig:vector  ETV
393214	20346 108 481 1501 20.428 22.137435350614 4 0.4 0.7 2.1 1.17
vector 393242  Network.dyn_peer[37]  lookupHopsSig:vector  ETV
393242	23936 100 496 1303 20.438 21.649888695453 4 1 5 13 51
vector 393243  Network.dyn_peer[37]  lookupStabilitySig:vector  ETV
393243	24036 159 496 1303 20.438 21.649888695453 4 0.19999998807907 0.9411764703691 2.5666150711477 1.9752322177809
vector 393244  Network.dyn_peer[37]  lookupTimeSig:vector  ETV
393244	24195 108 496 1303 20.438 21.649888695453 4 0.2 0.6 1.6 0.72
vector 393164  Network.dyn_peer[11]  lookupHopsSig:vector  ETV
393164	14089 79 525 1336 20.512 21.725993390248 3 2 8 15 93
vector 393165  Network.dyn_peer[11]  lookupStabilitySig:vector  ETV
393165	14168 97 525 1336 20.512 21.725993390248 3 0 0.75 1.4166666567326 1.006944431199
vector 393166  Network.dyn_peer[11]  lookupTimeSig:vector  ETV
393166	14265 85 525 1336 20.512 21.725993390248 3 0.3 0.9 1.7 1.15
vector 393206  Network.dyn_peer[25]  lookupHopsSig:vector  ETV
393206	19047 160 555 1668 20.526 22.838669226397 6 2 5 23 95
vector 393207  Network.dyn_peer[25]  lookupStabilitySig:vector  ETV
393207	19207 249 555 1668 20.526 22.838669226397 6 0.16666668653488 0.92000000178814 4.301664955914 3.4940747745897
vector 393208  Network.dyn_peer[25]  lookupTimeSig:vector  ETV
393208	19456 172 555 1668 20.526 22.838669226397 6 0.3 0.6 2.8 1.36
vector 393245  Network.dyn_peer[38]  lookupHopsSig:vector  ETV
393245	24303 40 572 871 20.539 20.939 2 3 5 8 34
vector 393246  Network.dyn_peer[38]  lookupStabilitySig:vector  ETV
393246	24343 70 572 871 20.539 20.939 2 0.16666668653488 0.66666665673256 0.83333334326744 0.47222221559948
vector 393247  Network.dyn_peer[38]  lookupTimeSig:vector  ETV
393247	24413 44 572 871 20.539 20.939 2 0.4 0.5 0.9 0.41
vector 393218  Network.dyn_peer[29]  lookupHopsSig:vector  ETV
393218	20697 78 625 1019 20.63 21.141264823462 3 1 6 9 41
vector 393219  Network.dyn_peer[29]  lookupStabilitySig:vector  ETV
393219	20775 97 625 1019 20.63 21.141264823462 3 0 0.875 1.7321428507567 1.5003188666032
vector 393220  Network.dyn_peer[29]  lookupTimeSig:vector  ETV
393220	20872 84 625 1019 20.63 21.141264823462 3 0.2 0.6 1.1 0.49
vector 393251  Network.dyn_peer[40]  lookupHopsSig:vector  ETV
393251	24715 101 642 1566 20.641 22.358510640948 4 4 6 20 102
vector 393252  Network.dyn_peer[40]  lookupStabilitySig:vector  ETV
393252	24816 146 642 1566 20.641 22.358510640948 4 0 0.89743589609861 2.4420279189944 2.0070949975355
vector 393253  Network.dyn_peer[40]  lookupTimeSig:vector  ETV
393253	24962 109 642 1566 20.641 22.358510640948 4 0.5 0.6 2.3 1.33
vector 393269  Network.dyn_peer[46]  lookupHopsSig:vector  ETV
393269	26753 190 653 1758 20.647 23.565824385675 7 2 7 29 147
vector 393270  Network.dyn_peer[46]  lookupStabilitySig:vector  ETV
393270	26943 268 653 1758 20.647 23.565824385675 7 0 0.9545454531908 5.203349519521 4.6117167156698
vector 393271  Network.dyn_peer[46]  lookupTimeSig:vector  ETV
393271	27211 204 653 1758 20.647 23.565824385675 7 0.3 0.8 3.5 1.99
vector 393227  Network.dyn_peer[32]  lookupHopsSig:vector  ETV
393227	22201 101 706 1470 20.733 22.045724752481 4 1 7 17 91
vector 393228  Network.dyn_peer[32]  lookupStabilitySig:vector  ETV
393228	22302 160 706 1470 20.733 22.045724752481 4 -0.16666662693024 0.9411764703691 2.3921568952501 2.2258746381255
vector 393229  Network.dyn_peer[32]  lookupTimeSig:vector  ETV
393229	22462 109 706 1470 20.733 22.045724752481 4 0.2 0.7 2 1.14
vector 393221  Network.dyn_peer[30]  lookupHopsSig:vector  ETV
393221	20956 100 770 1436 20.831 21.941682375798 4 2 8 16 86
vector 393222  Network.dyn_peer[30]  lookupStabilitySig:vector  ETV
393222	21056 145 770 1436 20.831 21.941682375798 4 0 0.90909090638161 2.5995670855045 2.255584578835
vector 393223  Network.dyn_peer[30]  lookupTimeSig:vector  ETV
393223	21201 108 770 1436 20.831 21.941682375798 4 0.3 0.8 1.9 1.05
vector 393224  Network.dyn_peer[31]  lookupHopsSig:vector  ETV
393224	21309 252 775 1839 20.832 25.274712944579 9 2 11 44 286
vector 393225  Network.dyn_peer[31]  lookupStabilitySig:vector  ETV
393225	21561 371 775 1839 20.832 25.274712944579 9 0 0.96226415038109 7.1665422730148 6.4793584522288
vector 393226  Network.dyn_peer[31]  lookupTimeSig:vector  ETV
393226	21932 269 775 1839 20.832 25.274712944579 9 0.3 1.2 5.2 3.66
vector 393263  Network.dyn_peer[44]  lookupHopsSig:vector  ETV
393263	26264 99 795 1309 20.845 21.6543266278 4 1 8 13 75
vector 393264  Network.dyn_peer[44]  lookupStabilitySig:vector  ETV
393264	26363 143 795 1309 20.845 21.6543266278 4 0 0.95238095149398 2.7170868292451 2.471043309968
vector 393265  Network.dyn_peer[44]  lookupTimeSig:vector  ETV
393265	26506 107 795 1309 20.845 21.6543266278 4 0.2 0.8 1.6 0.88
vector 393266  Network.dyn_peer[45]  lookupHopsSig:vector  ETV
393266	26613 41 800 1397 20.846 21.846 2 8 9 17 145
vector 393267  Network.dyn_peer[45]  lookupStabilitySig:vector  ETV
393267	26654 56 800 1397 20.846 21.846 2 0 0.69999998807907 0.69999998807907 0.4899999833107
vector 393268  Network.dyn_peer[45]  lookupTimeSig:vector  ETV
393268	26710 43 800 1397 20.846 21.846 2 0.8 1 1.8 1.64
vector 393182  Network.dyn_peer[17]  lookupHopsSig:vector  ETV
393182	15945 100 829 1546 20.918 22.32155251612 4 3 9 20 122
vector 393183  Network.dyn_peer[17]  lookupStabilitySig:vector  ETV
393183	16045 145 829 1546 20.918 22.32155251612 4 0 0.89473684132099 2.5803352147341 2.2219176022339
vector 393184  Network.dyn_peer[17]  lookupTimeSig:vector  ETV
393184	16190 108 829 1546 20.918 22.32155251612 4 0.4 0.9 2.3 1.47
vector 393209  Network.dyn_peer[26]  lookupHopsSig:vector  ETV
393209	19628 130 849 1613 20.927 22.546763969168 5 1 9 21 135
vector 393210  Network.dyn_peer[26]  lookupStabilitySig:vector  ETV
393210	19758 189 849 1613 20.927 22.546763969168 5 0 0.97619047574699 3.5485886596143 3.1815427765321
vector 393211  Network.dyn_peer[26]  lookupTimeSig:vector  ETV
393211	19947 140 849 1613 20.927 22.546763969168 5 0.2 0.9 2.5 1.63
vector 393233  Network.dyn_peer[34]  lookupHopsSig:vector  ETV
393233	22838 170 863 1743 20.935 23.457629848107 6 2 9 29 177
vector 393234  Network.dyn_peer[34]  lookupStabilitySig:vector  ETV
393234	23008 244 863 1743 20.935 23.457629848107 6 0 0.9473684206605 4.4092220142484 3.9012432443794
vector 393235  Network.dyn_peer[34]  lookupTimeSig:vector  ETV
393235	23252 182 863 1743 20.935 23.457629848107 6 0.3 0.9 3.4 2.22
vector 393248  Network.dyn_peer[39]  lookupHopsSig:vector  ETV
393248	24457 69 880 1307 20.94 21.653170426126 3 1 9 14 98
vector 393249  Network.dyn_peer[39]  lookupStabilitySig:vector  ETV
393249	24526 114 880 1307 20.94 21.653170426126 3 0.10000002384186 0.92857142537832 1.82857144624 1.5122448920291
vector 393250  Network.dyn_peer[39]  lookupTimeSig:vector  ETV
393250	24640 75 880 1307 20.94 21.653170426126 3 0.2 0.9 1.6 1.1
vector 393191  Network.dyn_peer[20]  lookupHopsSig:vector  ETV
393191	16670 102 918 1693 21.021 23.034224091552 4 3 10 27 209
vector 393192  Network.dyn_peer[20]  lookupStabilitySig:vector  ETV
393192	16772 150 918 1693 21.021 23.034224091552 4 0.090909063816071 0.92307692021132 2.6335512027145 2.178979128061
vector 393193  Network.dyn_peer[20]  lookupTimeSig:vector  ETV
393193	16922 107 918 1693 21.021 23.034224091552 4 0.4 1 3 2.46
vector 393203  Network.dyn_peer[24]  lookupHopsSig:vector  ETV
393203	18570 132 926 1713 21.025 23.149908728157 5 1 10 27 199
vector 393204  Network.dyn_peer[24]  lookupStabilitySig:vector  ETV
393204	18702 206 926 1713 21.025 23.149908728157 5 0.090909063816071 0.9772727265954 3.6428801342845 3.1897392219986
vector 393205  Network.dyn_peer[24]  lookupTimeSig:vector  ETV
393205	18908 139 926 1713 21.025 23.149908728157 5 0.2 1 3.1 2.37
vector 393260  Network.dyn_peer[43]  lookupHopsSig:vector  ETV
393260	26001 72 955 1478 21.044 22.049069575838 3 3 10 18 134
vector 393261  Network.dyn_peer[43]  lookupStabilitySig:vector  ETV
393261	26073 116 955 1478 21.044 22.049069575838 3 0.16666668653488 0.85294117033482 1.8431372642517 1.4334871092756
vector 393262  Network.dyn_peer[43]  lookupTimeSig:vector  ETV
393262	26189 75 955 1478 21.044 22.049069575838 3 0.4 1 2 1.52
vector 393230  Network.dyn_peer[33]  lookupHopsSig:vector  ETV
393230	22571 73 1005 1354 21.134 21.744071876649 3 2 11 15 129
vector 393231  Network.dyn_peer[33]  lookupStabilitySig:vector  ETV
393231	22644 116 1005 1354 21.134 21.744071876649 3 0.21428573131561 0.92307692021132 2.0197155922651 1.6765360873016
vector 393232  Network.dyn_peer[33]  lookupTimeSig:vector  ETV
393232	22760 78 1005 1354 21.134 21.744071876649 3 0.3 1.1 1.7 1.39
vector 393197  Network.dyn_peer[22]  lookupHopsSig:vector  ETV
393197	17415 223 1059 1814 21.223 24.555386284267 8 2 12 38 250
vector 393198  Network.dyn_peer[22]  lookupStabilitySig:vector  ETV
393198	17638 329 1059 1814 21.223 24.555386284267 8 0.25 0.95238095149398 6.6093669161201 5.8501892378635
vector 393199  Network.dyn_peer[22]  lookupTimeSig:vector  ETV
393199	17967 238 1059 1814 21.223 24.555386284267 8 0.3 1.2 4.5 3.09
vector 393278  Network.dyn_peer[49]  lookupHopsSig:vector  ETV
393278	28570 221 1154 1808 21.35 24.395832866605 8 1 13 36 266
vector 393279  Network.dyn_peer[49]  lookupStabilitySig:vector  ETV
393279	28791 339 1154 1808 21.35 24.395832866605 8 0.23529410362244 0.98039215616882 6.7134730126709 6.0684170345626
vector 393280  Network.dyn_peer[49]  lookupTimeSig:vector  ETV
393280	29130 236 1154 1808 21.35 24.395832866605 8 0.2 1.3 4.3 3.19
vector 393272  Network.dyn_peer[47]  lookupHopsSig:vector  ETV
393272	27415 252 1476 1845 22.048 25.609824614767 9 1 20 47 505
vector 393273  Network.dyn_peer[47]  lookupStabilitySig:vector  ETV
393273	27667 386 1476 1845 22.048 25.609824614767 9 0.41176468133926 0.98113207519054 7.8692500665784 7.1271794289017
vector 393274  Network.dyn_peer[47]  lookupTimeSig:vector  ETV
393274	28053 267 1476 1845 22.048 25.609824614767 9 0.2 2 5.5 5.67
