file 28484 1369522309                                           
version 2
run Stability2-136-20130526-00:51:48-26640
attr configname Stability2
attr datetime 20130526-00:51:48
attr experiment Stability2
attr inifile omnetpp.ini
attr iterationvars $0=50
attr iterationvars2 "$0=50, $repetition=16"
attr measurement $0=50
attr network Network
attr processid 26640
attr repetition 16
attr replication #16
attr resultdir results
attr runnumber 136
attr seedset 136

vector 411136  Network.churner  inGoingSizeSig:vector  ETV
vector 408136  Network.dyn_peer[0]  lookupHopsSig:vector  ETV
vector 408137  Network.dyn_peer[0]  lookupStabilitySig:vector  ETV
vector 408138  Network.dyn_peer[0]  lookupTimeSig:vector  ETV
vector 408145  Network.dyn_peer[3]  lookupHopsSig:vector  ETV
vector 408146  Network.dyn_peer[3]  lookupStabilitySig:vector  ETV
vector 408147  Network.dyn_peer[3]  lookupTimeSig:vector  ETV
vector 408184  Network.dyn_peer[16]  lookupHopsSig:vector  ETV
vector 408185  Network.dyn_peer[16]  lookupStabilitySig:vector  ETV
vector 408186  Network.dyn_peer[16]  lookupTimeSig:vector  ETV
vector 408193  Network.dyn_peer[19]  lookupHopsSig:vector  ETV
vector 408194  Network.dyn_peer[19]  lookupStabilitySig:vector  ETV
vector 408195  Network.dyn_peer[19]  lookupTimeSig:vector  ETV
vector 408217  Network.dyn_peer[27]  lookupHopsSig:vector  ETV
vector 408218  Network.dyn_peer[27]  lookupStabilitySig:vector  ETV
vector 408219  Network.dyn_peer[27]  lookupTimeSig:vector  ETV
vector 408241  Network.dyn_peer[35]  lookupHopsSig:vector  ETV
vector 408242  Network.dyn_peer[35]  lookupStabilitySig:vector  ETV
vector 408243  Network.dyn_peer[35]  lookupTimeSig:vector  ETV
vector 408139  Network.dyn_peer[1]  lookupHopsSig:vector  ETV
vector 408140  Network.dyn_peer[1]  lookupStabilitySig:vector  ETV
vector 408141  Network.dyn_peer[1]  lookupTimeSig:vector  ETV
vector 408154  Network.dyn_peer[6]  lookupHopsSig:vector  ETV
vector 408155  Network.dyn_peer[6]  lookupStabilitySig:vector  ETV
vector 408156  Network.dyn_peer[6]  lookupTimeSig:vector  ETV
vector 408160  Network.dyn_peer[8]  lookupHopsSig:vector  ETV
vector 408161  Network.dyn_peer[8]  lookupStabilitySig:vector  ETV
vector 408162  Network.dyn_peer[8]  lookupTimeSig:vector  ETV
vector 408166  Network.dyn_peer[10]  lookupHopsSig:vector  ETV
vector 408167  Network.dyn_peer[10]  lookupStabilitySig:vector  ETV
vector 408168  Network.dyn_peer[10]  lookupTimeSig:vector  ETV
vector 408175  Network.dyn_peer[13]  lookupHopsSig:vector  ETV
vector 408176  Network.dyn_peer[13]  lookupStabilitySig:vector  ETV
vector 408177  Network.dyn_peer[13]  lookupTimeSig:vector  ETV
vector 408196  Network.dyn_peer[20]  lookupHopsSig:vector  ETV
vector 408197  Network.dyn_peer[20]  lookupStabilitySig:vector  ETV
vector 408198  Network.dyn_peer[20]  lookupTimeSig:vector  ETV
vector 408199  Network.dyn_peer[21]  lookupHopsSig:vector  ETV
vector 408200  Network.dyn_peer[21]  lookupStabilitySig:vector  ETV
vector 408201  Network.dyn_peer[21]  lookupTimeSig:vector  ETV
vector 408208  Network.dyn_peer[24]  lookupHopsSig:vector  ETV
vector 408209  Network.dyn_peer[24]  lookupStabilitySig:vector  ETV
vector 408210  Network.dyn_peer[24]  lookupTimeSig:vector  ETV
vector 408238  Network.dyn_peer[34]  lookupHopsSig:vector  ETV
vector 408239  Network.dyn_peer[34]  lookupStabilitySig:vector  ETV
vector 408240  Network.dyn_peer[34]  lookupTimeSig:vector  ETV
vector 408253  Network.dyn_peer[39]  lookupHopsSig:vector  ETV
vector 408254  Network.dyn_peer[39]  lookupStabilitySig:vector  ETV
vector 408255  Network.dyn_peer[39]  lookupTimeSig:vector  ETV
vector 408277  Network.dyn_peer[47]  lookupHopsSig:vector  ETV
vector 408278  Network.dyn_peer[47]  lookupStabilitySig:vector  ETV
vector 408279  Network.dyn_peer[47]  lookupTimeSig:vector  ETV
vector 408151  Network.dyn_peer[5]  lookupHopsSig:vector  ETV
vector 408152  Network.dyn_peer[5]  lookupStabilitySig:vector  ETV
vector 408153  Network.dyn_peer[5]  lookupTimeSig:vector  ETV
vector 408163  Network.dyn_peer[9]  lookupHopsSig:vector  ETV
vector 408164  Network.dyn_peer[9]  lookupStabilitySig:vector  ETV
vector 408165  Network.dyn_peer[9]  lookupTimeSig:vector  ETV
vector 408169  Network.dyn_peer[11]  lookupHopsSig:vector  ETV
vector 408170  Network.dyn_peer[11]  lookupStabilitySig:vector  ETV
vector 408171  Network.dyn_peer[11]  lookupTimeSig:vector  ETV
vector 408178  Network.dyn_peer[14]  lookupHopsSig:vector  ETV
vector 408179  Network.dyn_peer[14]  lookupStabilitySig:vector  ETV
vector 408180  Network.dyn_peer[14]  lookupTimeSig:vector  ETV
vector 408187  Network.dyn_peer[17]  lookupHopsSig:vector  ETV
vector 408188  Network.dyn_peer[17]  lookupStabilitySig:vector  ETV
vector 408189  Network.dyn_peer[17]  lookupTimeSig:vector  ETV
vector 408232  Network.dyn_peer[32]  lookupHopsSig:vector  ETV
vector 408233  Network.dyn_peer[32]  lookupStabilitySig:vector  ETV
vector 408234  Network.dyn_peer[32]  lookupTimeSig:vector  ETV
vector 408235  Network.dyn_peer[33]  lookupHopsSig:vector  ETV
vector 408236  Network.dyn_peer[33]  lookupStabilitySig:vector  ETV
vector 408237  Network.dyn_peer[33]  lookupTimeSig:vector  ETV
vector 408262  Network.dyn_peer[42]  lookupHopsSig:vector  ETV
vector 408263  Network.dyn_peer[42]  lookupStabilitySig:vector  ETV
vector 408264  Network.dyn_peer[42]  lookupTimeSig:vector  ETV
vector 408265  Network.dyn_peer[43]  lookupHopsSig:vector  ETV
vector 408266  Network.dyn_peer[43]  lookupStabilitySig:vector  ETV
vector 408267  Network.dyn_peer[43]  lookupTimeSig:vector  ETV
vector 408280  Network.dyn_peer[48]  lookupHopsSig:vector  ETV
vector 408281  Network.dyn_peer[48]  lookupStabilitySig:vector  ETV
vector 408282  Network.dyn_peer[48]  lookupTimeSig:vector  ETV
vector 408157  Network.dyn_peer[7]  lookupHopsSig:vector  ETV
vector 408158  Network.dyn_peer[7]  lookupStabilitySig:vector  ETV
vector 408159  Network.dyn_peer[7]  lookupTimeSig:vector  ETV
vector 408181  Network.dyn_peer[15]  lookupHopsSig:vector  ETV
vector 408182  Network.dyn_peer[15]  lookupStabilitySig:vector  ETV
vector 408183  Network.dyn_peer[15]  lookupTimeSig:vector  ETV
vector 408190  Network.dyn_peer[18]  lookupHopsSig:vector  ETV
vector 408191  Network.dyn_peer[18]  lookupStabilitySig:vector  ETV
vector 408192  Network.dyn_peer[18]  lookupTimeSig:vector  ETV
vector 408220  Network.dyn_peer[28]  lookupHopsSig:vector  ETV
vector 408221  Network.dyn_peer[28]  lookupStabilitySig:vector  ETV
vector 408222  Network.dyn_peer[28]  lookupTimeSig:vector  ETV
vector 408223  Network.dyn_peer[29]  lookupHopsSig:vector  ETV
vector 408224  Network.dyn_peer[29]  lookupStabilitySig:vector  ETV
vector 408225  Network.dyn_peer[29]  lookupTimeSig:vector  ETV
vector 408229  Network.dyn_peer[31]  lookupHopsSig:vector  ETV
vector 408230  Network.dyn_peer[31]  lookupStabilitySig:vector  ETV
vector 408231  Network.dyn_peer[31]  lookupTimeSig:vector  ETV
vector 408247  Network.dyn_peer[37]  lookupHopsSig:vector  ETV
vector 408248  Network.dyn_peer[37]  lookupStabilitySig:vector  ETV
vector 408249  Network.dyn_peer[37]  lookupTimeSig:vector  ETV
vector 408256  Network.dyn_peer[40]  lookupHopsSig:vector  ETV
vector 408257  Network.dyn_peer[40]  lookupStabilitySig:vector  ETV
vector 408258  Network.dyn_peer[40]  lookupTimeSig:vector  ETV
vector 408268  Network.dyn_peer[44]  lookupHopsSig:vector  ETV
vector 408269  Network.dyn_peer[44]  lookupStabilitySig:vector  ETV
vector 408270  Network.dyn_peer[44]  lookupTimeSig:vector  ETV
vector 408148  Network.dyn_peer[4]  lookupHopsSig:vector  ETV
vector 408149  Network.dyn_peer[4]  lookupStabilitySig:vector  ETV
vector 408150  Network.dyn_peer[4]  lookupTimeSig:vector  ETV
vector 408205  Network.dyn_peer[23]  lookupHopsSig:vector  ETV
vector 408206  Network.dyn_peer[23]  lookupStabilitySig:vector  ETV
vector 408207  Network.dyn_peer[23]  lookupTimeSig:vector  ETV
vector 408211  Network.dyn_peer[25]  lookupHopsSig:vector  ETV
vector 408212  Network.dyn_peer[25]  lookupStabilitySig:vector  ETV
vector 408213  Network.dyn_peer[25]  lookupTimeSig:vector  ETV
vector 408259  Network.dyn_peer[41]  lookupHopsSig:vector  ETV
vector 408260  Network.dyn_peer[41]  lookupStabilitySig:vector  ETV
vector 408261  Network.dyn_peer[41]  lookupTimeSig:vector  ETV
vector 408142  Network.dyn_peer[2]  lookupHopsSig:vector  ETV
vector 408143  Network.dyn_peer[2]  lookupStabilitySig:vector  ETV
vector 408144  Network.dyn_peer[2]  lookupTimeSig:vector  ETV
vector 408172  Network.dyn_peer[12]  lookupHopsSig:vector  ETV
vector 408173  Network.dyn_peer[12]  lookupStabilitySig:vector  ETV
vector 408174  Network.dyn_peer[12]  lookupTimeSig:vector  ETV
vector 408214  Network.dyn_peer[26]  lookupHopsSig:vector  ETV
vector 408215  Network.dyn_peer[26]  lookupStabilitySig:vector  ETV
vector 408216  Network.dyn_peer[26]  lookupTimeSig:vector  ETV
vector 408226  Network.dyn_peer[30]  lookupHopsSig:vector  ETV
vector 408227  Network.dyn_peer[30]  lookupStabilitySig:vector  ETV
vector 408228  Network.dyn_peer[30]  lookupTimeSig:vector  ETV
vector 408244  Network.dyn_peer[36]  lookupHopsSig:vector  ETV
vector 408245  Network.dyn_peer[36]  lookupStabilitySig:vector  ETV
vector 408246  Network.dyn_peer[36]  lookupTimeSig:vector  ETV
vector 408250  Network.dyn_peer[38]  lookupHopsSig:vector  ETV
vector 408251  Network.dyn_peer[38]  lookupStabilitySig:vector  ETV
vector 408252  Network.dyn_peer[38]  lookupTimeSig:vector  ETV
vector 408271  Network.dyn_peer[45]  lookupHopsSig:vector  ETV
vector 408272  Network.dyn_peer[45]  lookupStabilitySig:vector  ETV
vector 408273  Network.dyn_peer[45]  lookupTimeSig:vector  ETV
vector 408202  Network.dyn_peer[22]  lookupHopsSig:vector  ETV
vector 408203  Network.dyn_peer[22]  lookupStabilitySig:vector  ETV
vector 408204  Network.dyn_peer[22]  lookupTimeSig:vector  ETV
vector 408283  Network.dyn_peer[49]  lookupHopsSig:vector  ETV
vector 408284  Network.dyn_peer[49]  lookupStabilitySig:vector  ETV
vector 408285  Network.dyn_peer[49]  lookupTimeSig:vector  ETV
vector 408274  Network.dyn_peer[46]  lookupHopsSig:vector  ETV
vector 408275  Network.dyn_peer[46]  lookupStabilitySig:vector  ETV
vector 408276  Network.dyn_peer[46]  lookupTimeSig:vector  ETV
408136	10127 97 18 911 20.001 21.008482602979 4 0 4 7 21
408137	10224 142 18 911 20.001 21.008482602979 4 0.19999998807907 1 2.5999999791384 2.0399999833107
408138	10366 103 18 911 20.001 21.008482602979 4 0 0.5 1 0.38
408139	10469 100 191 1349 20.102 21.709340552938 4 1 8 14 82
408140	10569 150 191 1349 20.102 21.709340552938 4 -0.60000002384186 0.875 1.9149999767542 2.47122502985
408141	10719 108 191 1349 20.102 21.709340552938 4 0.1 0.9 1.7 1.11
408142	10827 100 548 1442 20.503 21.914137774932 4 2 6 16 74
408143	10927 144 548 1442 20.503 21.914137774932 4 0 0.9411764703691 2.0411764346063 1.5358131126137
408144	11071 108 548 1442 20.503 21.914137774932 4 0.3 0.7 1.9 0.99
408145	11179 70 31 1543 20.004 22.307603997086 3 0 14 21 245
408146	11249 100 31 1543 20.004 22.307603997086 3 -0.39999997615814 1 1.2666666805744 1.6044444121255
408147	11349 73 31 1543 20.004 22.307603997086 3 0 1.5 2.3 2.89
408148	11422 70 480 1299 20.405 21.614986633928 3 3 7 14 74
408149	11492 115 480 1299 20.405 21.614986633928 3 0.19999998807907 0.65000000596046 1.2499999701977 0.62249998390675
408150	11607 76 480 1299 20.405 21.614986633928 3 0.4 0.8 1.6 0.96
408151	11683 132 292 1585 20.206 22.520015367303 5 2 13 21 185
408152	11815 205 292 1585 20.206 22.520015367303 5 0.35000002384186 0.95555555447936 3.7979515567422 3.1862181394474
408153	12020 141 292 1585 20.206 22.520015367303 5 0.2 1.4 2.5 2.27
408154	12161 70 200 1404 20.107 21.809668271767 3 1 9 16 118
408155	12231 116 200 1404 20.107 21.809668271767 3 -0.20000004768372 0.79999999701977 1.3096773773432 1.1836420661279
408156	12347 74 200 1404 20.107 21.809668271767 3 0.1 1 1.8 1.5
408157	12421 71 390 1476 20.308 22.017611894302 3 3 9 18 126
408158	12492 106 390 1476 20.308 22.017611894302 3 -0.125 0.84615384042263 1.1211538165808 0.89160130258848
408159	12598 75 390 1476 20.308 22.017611894302 3 0.3 1 2 1.58
408160	12673 100 206 1322 20.109 21.629768067413 4 1 9 13 87
408161	12773 150 206 1322 20.109 21.629768067413 4 -0.125 0.91666666418314 2.3916666582227 2.1359027636879
408162	12923 106 206 1322 20.109 21.629768067413 4 0.1 1 1.6 1.14
408163	13029 98 300 1317 20.21 21.625610939817 4 2 5 13 49
408164	13127 147 300 1317 20.21 21.625610939817 4 0.19999998807907 0.91304347664118 2.0880434587598 1.3742733783161
408165	13274 106 300 1317 20.21 21.625610939817 4 0.2 0.6 1.6 0.74
408166	13380 70 212 1190 20.111 21.413606335354 3 1 7 12 66
408167	13450 116 212 1190 20.111 21.413606335354 3 -0.39999997615814 0.79999999701977 1.0666666775942 1.2444444073571
408168	13566 76 212 1190 20.111 21.413606335354 3 0.1 0.8 1.4 0.9
408169	13642 99 306 1304 20.212 21.621274985752 4 1 6 13 57
408170	13741 149 306 1304 20.212 21.621274985752 4 -0.20000004768372 0.875 2.0845237523317 1.8209538043627
408171	13890 107 306 1304 20.212 21.621274985752 4 0.2 0.7 1.6 0.82
408172	13997 70 562 1201 20.513 21.421533688206 3 3 5 12 50
408173	14067 100 562 1201 20.513 21.421533688206 3 0 0.76923076808453 1.1025640815496 0.70282707243354
408174	14167 76 562 1201 20.513 21.421533688206 3 0.4 0.5 1.4 0.66
408175	14243 130 219 1590 20.114 22.541346287561 5 1 9 21 131
408176	14373 185 219 1590 20.114 22.541346287561 5 -0.125 0.95652173832059 3.3725931607187 3.0929599731406
408177	14558 138 219 1590 20.114 22.541346287561 5 0.1 1 2.5 1.75
408178	14696 100 313 1547 20.215 22.324698445414 4 2 7 20 114
408179	14796 161 313 1547 20.215 22.324698445414 4 -0.16666662693024 0.88372092694044 2.0862850621343 1.7604564086601
408180	14957 108 313 1547 20.215 22.324698445414 4 0.2 0.8 2.3 1.53
408181	15065 102 404 1570 20.316 22.436421378799 4 3 10 21 143
408182	15167 152 404 1570 20.316 22.436421378799 4 0.23076921701431 0.90625 2.4233828261495 1.8201839648121
408183	15319 109 404 1570 20.316 22.436421378799 4 0.3 1.1 2.4 1.82
408184	15428 100 74 1523 20.017 22.224760901711 4 0 13 19 189
408185	15528 144 74 1523 20.017 22.224760901711 4 0.19999998807907 1 2.7797909229994 2.3399205902518
408186	15672 105 74 1523 20.017 22.224760901711 4 0 1.4 2.2 2.3
408187	15777 72 320 1358 20.218 21.719358391544 3 2 10 15 113
408188	15849 105 320 1358 20.218 21.719358391544 3 -0.25 0.88461538404226 1.2346153780818 1.2050443705317
408189	15954 77 320 1358 20.218 21.719358391544 3 0.2 1.1 1.7 1.41
408190	16031 99 411 1373 20.319 21.731226188282 4 3 5 14 52
408191	16130 133 411 1373 20.319 21.731226188282 4 0 0.89285714179277 1.9178571179509 1.3478188565769
408192	16263 107 411 1373 20.319 21.731226188282 4 0.3 0.6 1.7 0.77
408193	16370 95 87 937 20.02 21.026514604346 4 0 4 7 21
408194	16465 140 87 937 20.02 21.026514604346 4 0.19999998807907 1 2.6333333104849 2.0944444242451
408195	16605 101 87 937 20.02 21.026514604346 4 0 0.5 1 0.38
408196	16706 72 230 1360 20.121 21.721303683178 3 1 10 15 117
408197	16778 105 230 1360 20.121 21.721303683178 3 -0.25 0.84615384042263 1.3961538374424 1.4184763168936
408198	16883 77 230 1360 20.121 21.721303683178 3 0.1 1.1 1.7 1.47
408199	16960 102 235 1453 20.122 21.928773265844 4 1 10 16 114
408200	17062 150 235 1453 20.122 21.928773265844 4 -0.25 0.94285714253783 2.35649349913 2.3373473480417
408201	17212 109 235 1453 20.122 21.928773265844 4 0.1 1.1 1.9 1.47
408202	17321 280 718 1702 20.723 25.476245702713 10 2 7 45 225
408203	17601 431 718 1702 20.723 25.476245702713 10 -0.39999997615814 0.96296296268702 7.5937971137464 7.350866577243
408204	18032 300 718 1702 20.723 25.476245702713 10 0.3 0.8 5.4 3.1
408205	18332 161 505 1617 20.424 22.745891195082 6 1 7 22 104
408206	18493 231 505 1617 20.424 22.745891195082 6 0.125 0.97777777723968 4.0334325227886 3.5042361068223
408207	18724 173 505 1617 20.424 22.745891195082 6 0.2 0.8 2.7 1.45
408208	18897 42 242 1314 20.125 21.625 2 1 14 15 197
408209	18939 71 242 1314 20.125 21.625 2 0.36363637447357 0.79999999701977 1.1636363714933 0.77223140807191
408210	19010 45 242 1314 20.125 21.625 2 0.1 1.5 1.6 2.26
408211	19055 41 511 1209 20.426 21.426 2 4 9 13 97
408212	19096 71 511 1209 20.426 21.426 2 0.19999998807907 0.35714286565781 0.55714285373688 0.1675510217219
408213	19167 43 511 1209 20.426 21.426 2 0.4 1 1.4 1.16
408214	19210 41 586 1139 20.527 21.327 2 5 7 12 74
408215	19251 45 586 1139 20.527 21.327 2 0 0.125 0.125 0.015625
408216	19296 45 586 1139 20.527 21.327 2 0.5 0.8 1.3 0.89
408217	19341 70 115 1150 20.028 21.333452209026 3 0 6 11 61
408218	19411 85 115 1150 20.028 21.333452209026 3 0 1 1.3999999761581 1.1599999809265
408219	19496 74 115 1150 20.028 21.333452209026 3 0 0.7 1.3 0.85
408220	19570 131 427 1606 20.329 22.634636037514 5 3 8 22 114
408221	19701 191 427 1606 20.329 22.634636037514 5 0 0.92682927101851 3.0988657176495 2.5907366805438
408222	19892 141 427 1606 20.329 22.634636037514 5 0.3 0.9 2.6 1.56
408223	20033 39 432 1145 20.33 21.33 2 3 9 12 90
408224	20072 54 432 1145 20.33 21.33 2 0 0.39999997615814 0.39999997615814 0.15999998092651
408225	20126 41 432 1145 20.33 21.33 2 0.3 1 1.3 1.09
408226	20167 71 654 1218 20.631 21.436435722917 3 1 6 12 62
408227	20238 105 654 1218 20.631 21.436435722917 3 -0.20000004768372 0.9333333298564 1.1083332821727 1.0517361236943
408228	20343 77 654 1218 20.631 21.436435722917 3 0.2 0.6 1.4 0.76
408229	20420 128 438 1432 20.332 21.853761348668 5 1 4 14 46
408230	20548 192 438 1432 20.332 21.853761348668 5 0.39999997615814 0.875 3.3369047045708 2.4437428598163
408231	20740 138 438 1432 20.332 21.853761348668 5 0.2 0.5 1.8 0.72
408232	20878 101 341 1465 20.233 21.949702947224 4 1 8 16 94
408233	20979 146 341 1465 20.233 21.949702947224 4 0 0.97368421033025 2.4012704081833 1.9929598590364
408234	21125 109 341 1465 20.233 21.949702947224 4 0.2 0.9 1.9 1.25
408235	21234 69 346 1274 20.234 21.54476960347 3 2 7 13 69
408236	21303 99 346 1274 20.234 21.54476960347 3 0 0.77777777612209 1.3777777701616 0.96493826187687
408237	21402 75 346 1274 20.234 21.54476960347 3 0.2 0.8 1.5 0.93
408238	21477 70 257 1222 20.135 21.440679446361 3 1 6 12 62
408239	21547 89 257 1222 20.135 21.440679446361 3 0 0.79999999701977 1.4249999970198 1.0306249952316
408240	21636 76 257 1222 20.135 21.440679446361 3 0.1 0.7 1.4 0.86
408241	21712 100 143 1462 20.036 21.940883527962 4 0 8 16 98
408242	21812 134 143 1462 20.036 21.940883527962 4 -0.60000002384186 1 2.014864847064 2.6704912735373
408243	21946 106 143 1462 20.036 21.940883527962 4 0 0.9 1.9 1.33
408244	22052 49 665 1153 20.637 21.33703303881 2 6 6 12 72
408245	22101 80 665 1153 20.637 21.33703303881 2 -0.20000004768372 0.39999997615814 0.19999992847443 0.2
408246	22181 53 665 1153 20.637 21.33703303881 2 0.6 0.7 1.3 0.85
408247	22234 100 448 1428 20.338 21.851650973644 4 3 5 15 59
408248	22334 140 448 1428 20.338 21.851650973644 4 0.19999998807907 0.84375 2.0687499642372 1.3025390386581
408249	22474 108 448 1428 20.338 21.851650973644 4 0.3 0.6 1.8 0.86
408250	22582 42 672 1459 20.639 21.939 2 6 12 18 180
408251	22624 72 672 1459 20.639 21.939 2 -0.20000004768372 0.66666665673256 0.46666660904884 0.48444445027246
408252	22696 45 672 1459 20.639 21.939 2 0.6 1.3 1.9 2.05
408253	22741 218 267 1675 20.14 23.689887361666 8 1 8 29 153
408254	22959 339 267 1675 20.14 23.689887361666 8 -0.20000004768372 0.96226415038109 6.0361456125975 5.6521515753641
408255	23298 234 267 1675 20.14 23.689887361666 8 0.1 0.9 3.6 2.16
408256	23532 40 456 956 20.341 21.041 2 3 6 9 45
408257	23572 70 456 956 20.341 21.041 2 0.14285713434219 0.39999997615814 0.54285711050034 0.18040814175898
408258	23642 44 456 956 20.341 21.041 2 0.3 0.7 1 0.58
408259	23686 161 533 1639 20.442 22.972943847446 6 1 8 24 124
408260	23847 250 533 1639 20.442 22.972943847446 6 0.19999998807907 0.97872340492904 4.2384203393012 3.5882510861564
408261	24097 173 533 1639 20.442 22.972943847446 6 0.2 0.9 2.9 1.69
408262	24270 70 360 1279 20.243 21.54751567267 3 2 8 13 77
408263	24340 100 360 1279 20.243 21.54751567267 3 0 0.83333332836628 1.4333333224058 1.0544444290135
408264	24440 76 360 1279 20.243 21.54751567267 3 0.2 0.9 1.5 1.01
408265	24516 129 365 1620 20.244 22.75517092488 5 2 6 23 117
408266	24645 205 365 1620 20.244 22.75517092488 5 -0.20000004768372 0.91836734861135 2.9593196809292 2.5970757039509
408267	24850 139 365 1620 20.244 22.75517092488 5 0.2 0.7 2.7 1.63
408268	24989 71 464 1386 20.345 21.747277165423 3 3 9 15 99
408269	25060 104 464 1386 20.345 21.747277165423 3 0.25 0.89655172079802 1.5465516969562 1.0263049689924
408270	25164 75 464 1386 20.345 21.747277165423 3 0.3 1 1.7 1.25
408271	25239 221 685 1670 20.646 23.577667803219 8 2 6 28 112
408272	25460 331 685 1670 20.646 23.577667803219 8 -0.20000004768372 0.96153846010566 5.7574553489685 5.3799358890845
408273	25791 237 685 1670 20.646 23.577667803219 8 0.3 0.6 3.5 1.63
408274	26028 101 892 1644 20.947 23.060685349446 4 3 9 27 203
408275	26129 162 892 1644 20.947 23.060685349446 4 -0.79999995231628 0.92682927101851 1.7285872623324 2.7853982003545
408276	26291 109 892 1644 20.947 23.060685349446 4 0.4 0.9 3 2.42
408277	26400 99 279 1399 20.148 21.757720666629 4 1 7 14 70
408278	26499 158 279 1399 20.148 21.757720666629 4 -0.39999997615814 0.9333333298564 2.0980392321944 2.2558861659436
408279	26657 107 279 1399 20.148 21.757720666629 4 0.1 0.8 1.7 0.99
408280	26764 99 374 1242 20.249 21.46377578777 4 1 6 11 45
408281	26863 148 374 1242 20.249 21.46377578777 4 -0.20000004768372 0.8823529407382 2.157352887094 1.9441717239503
408282	27011 107 374 1242 20.249 21.46377578777 4 0.2 0.7 1.4 0.66
408283	27118 98 755 1492 20.75 22.05702398555 4 2 7 17 87
408284	27216 136 755 1492 20.75 22.05702398555 4 -0.39999997615814 0.8823529407382 1.9823529645801 2.0947966929559
408285	27352 106 755 1492 20.75 22.05702398555 4 0.3 0.7 2 1.1
411136	27458 1026 11 183 20 20.05 51 0 49 1225 40425
