file 6388 1369522273                                            
version 2
run Stability2-23-20130526-00:51:13-26640
attr configname Stability2
attr datetime 20130526-00:51:13
attr experiment Stability2
attr inifile omnetpp.ini
attr iterationvars $0=10
attr iterationvars2 "$0=10, $repetition=23"
attr measurement $0=10
attr network Network
attr processid 26640
attr repetition 23
attr replication #23
attr resultdir results
attr runnumber 23
attr seedset 23

vector 72023  Network.churner  inGoingSizeSig:vector  ETV
vector 69026  Network.dyn_peer[1]  lookupHopsSig:vector  ETV
vector 69027  Network.dyn_peer[1]  lookupStabilitySig:vector  ETV
vector 69028  Network.dyn_peer[1]  lookupTimeSig:vector  ETV
vector 69029  Network.dyn_peer[2]  lookupHopsSig:vector  ETV
vector 69030  Network.dyn_peer[2]  lookupStabilitySig:vector  ETV
vector 69031  Network.dyn_peer[2]  lookupTimeSig:vector  ETV
vector 69032  Network.dyn_peer[3]  lookupHopsSig:vector  ETV
vector 69033  Network.dyn_peer[3]  lookupStabilitySig:vector  ETV
vector 69034  Network.dyn_peer[3]  lookupTimeSig:vector  ETV
vector 69041  Network.dyn_peer[6]  lookupHopsSig:vector  ETV
vector 69042  Network.dyn_peer[6]  lookupStabilitySig:vector  ETV
vector 69043  Network.dyn_peer[6]  lookupTimeSig:vector  ETV
vector 69023  Network.dyn_peer[0]  lookupHopsSig:vector  ETV
vector 69024  Network.dyn_peer[0]  lookupStabilitySig:vector  ETV
vector 69025  Network.dyn_peer[0]  lookupTimeSig:vector  ETV
vector 69035  Network.dyn_peer[4]  lookupHopsSig:vector  ETV
vector 69036  Network.dyn_peer[4]  lookupStabilitySig:vector  ETV
vector 69037  Network.dyn_peer[4]  lookupTimeSig:vector  ETV
vector 69044  Network.dyn_peer[7]  lookupHopsSig:vector  ETV
vector 69045  Network.dyn_peer[7]  lookupStabilitySig:vector  ETV
vector 69046  Network.dyn_peer[7]  lookupTimeSig:vector  ETV
vector 69050  Network.dyn_peer[9]  lookupHopsSig:vector  ETV
vector 69051  Network.dyn_peer[9]  lookupStabilitySig:vector  ETV
vector 69052  Network.dyn_peer[9]  lookupTimeSig:vector  ETV
vector 69047  Network.dyn_peer[8]  lookupHopsSig:vector  ETV
vector 69048  Network.dyn_peer[8]  lookupStabilitySig:vector  ETV
vector 69049  Network.dyn_peer[8]  lookupTimeSig:vector  ETV
vector 69038  Network.dyn_peer[5]  lookupHopsSig:vector  ETV
vector 69039  Network.dyn_peer[5]  lookupStabilitySig:vector  ETV
vector 69040  Network.dyn_peer[5]  lookupTimeSig:vector  ETV
69023	2333 92 73 234 20.201 21.036386863397 4 1 3 7 15
69024	2425 130 73 234 20.201 21.036386863397 4 0.39999997615814 0.875 2.7499999701977 2.051249973774
69025	2555 100 73 234 20.201 21.036386863397 4 0.2 0.4 1 0.28
69026	2655 92 47 176 20.102 20.707741255154 4 1 1 4 4
69027	2747 152 47 176 20.102 20.707741255154 4 0.79999999701977 0.83333332836628 3.2333333194256 2.6144444218609
69028	2899 100 47 176 20.102 20.707741255154 4 0.1 0.2 0.7 0.13
69029	2999 102 52 252 20.103 21.221338379733 4 1 5 9 31
69030	3101 151 52 252 20.103 21.221338379733 4 0.375 0.89999999850988 2.6749999895692 1.9506249853969
69031	3252 110 52 252 20.103 21.221338379733 4 0.1 0.6 1.2 0.5
69032	3362 65 57 159 20.104 20.606223196192 3 1 2 4 6
69033	3427 110 57 159 20.104 20.606223196192 3 0.59999999403954 0.79999999701977 2.1999999880791 1.6399999833107
69034	3537 71 57 159 20.104 20.606223196192 3 0.1 0.3 0.6 0.14
69035	3608 121 80 267 20.205 21.418964606559 5 1 3 10 22
69036	3729 172 80 267 20.205 21.418964606559 5 0.59999999403954 0.83333332836628 3.5333333164454 2.5394444218609
69037	3901 131 80 267 20.205 21.418964606559 5 0.2 0.4 1.4 0.42
69038	4032 233 135 302 20.506 23.44213380259 9 2 5 26 86
69039	4265 328 135 302 20.506 23.44213380259 9 0 0.85714285075665 6.2499999552965 4.9961733964025
69040	4593 251 135 302 20.506 23.44213380259 9 0.3 0.5 3.4 1.36
69041	4844 93 64 255 20.107 21.225840296968 4 1 3 9 23
69042	4937 142 64 255 20.107 21.225840296968 4 0.39999997615814 0.81818181276321 2.6431817859411 1.8600464548946
69043	5079 101 64 255 20.107 21.225840296968 4 0.1 0.4 1.2 0.42
69044	5180 93 87 246 20.208 21.128584415416 4 2 2 8 16
69045	5273 141 87 246 20.208 21.128584415416 4 0.59999999403954 0.77777777612209 2.7277777642012 1.8874382547243
69046	5414 101 87 246 20.208 21.128584415416 4 0.2 0.3 1.1 0.31
69047	5515 122 111 272 20.309 21.541108619426 5 1 5 11 37
69048	5637 186 111 272 20.309 21.541108619426 5 0.375 0.92307692021132 3.5036324486136 2.7830972100964
69049	5823 132 111 272 20.309 21.541108619426 5 0.2 0.6 1.5 0.57
69050	5955 63 94 185 20.21 20.712460086729 3 1 2 5 9
69051	6018 108 94 185 20.21 20.712460086729 3 0.59999999403954 0.85714285075665 2.0571428388357 1.4546938522981
69052	6126 69 94 185 20.21 20.712460086729 3 0.2 0.3 0.7 0.17
72023	6195 193 11 39 20 20.01 11 0 9 45 285
