version 2
run Stability2-125-20130526-00:51:44-26640
attr configname Stability2
attr datetime 20130526-00:51:44
attr experiment Stability2
attr inifile omnetpp.ini
attr iterationvars $0=50
attr iterationvars2 "$0=50, $repetition=5"
attr measurement $0=50
attr network Network
attr processid 26640
attr repetition 5
attr replication #5
attr resultdir results
attr runnumber 125
attr seedset 125

vector 378125  Network.churner  inGoingSizeSig:vector  ETV
vector 375125  Network.dyn_peer[0]  lookupHopsSig:vector  ETV
vector 375126  Network.dyn_peer[0]  lookupStabilitySig:vector  ETV
vector 375127  Network.dyn_peer[0]  lookupTimeSig:vector  ETV
vector 375128  Network.dyn_peer[1]  lookupHopsSig:vector  ETV
vector 375129  Network.dyn_peer[1]  lookupStabilitySig:vector  ETV
vector 375130  Network.dyn_peer[1]  lookupTimeSig:vector  ETV
vector 375137  Network.dyn_peer[4]  lookupHopsSig:vector  ETV
vector 375138  Network.dyn_peer[4]  lookupStabilitySig:vector  ETV
vector 375139  Network.dyn_peer[4]  lookupTimeSig:vector  ETV
vector 375164  Network.dyn_peer[13]  lookupHopsSig:vector  ETV
vector 375165  Network.dyn_peer[13]  lookupStabilitySig:vector  ETV
vector 375166  Network.dyn_peer[13]  lookupTimeSig:vector  ETV
vector 375176  Network.dyn_peer[17]  lookupHopsSig:vector  ETV
vector 375177  Network.dyn_peer[17]  lookupStabilitySig:vector  ETV
vector 375178  Network.dyn_peer[17]  lookupTimeSig:vector  ETV
vector 375185  Network.dyn_peer[20]  lookupHopsSig:vector  ETV
vector 375186  Network.dyn_peer[20]  lookupStabilitySig:vector  ETV
vector 375187  Network.dyn_peer[20]  lookupTimeSig:vector  ETV
vector 375269  Network.dyn_peer[48]  lookupHopsSig:vector  ETV
vector 375270  Network.dyn_peer[48]  lookupStabilitySig:vector  ETV
vector 375271  Network.dyn_peer[48]  lookupTimeSig:vector  ETV
vector 375131  Network.dyn_peer[2]  lookupHopsSig:vector  ETV
vector 375132  Network.dyn_peer[2]  lookupStabilitySig:vector  ETV
vector 375133  Network.dyn_peer[2]  lookupTimeSig:vector  ETV
vector 375161  Network.dyn_peer[12]  lookupHopsSig:vector  ETV
vector 375162  Network.dyn_peer[12]  lookupStabilitySig:vector  ETV
vector 375163  Network.dyn_peer[12]  lookupTimeSig:vector  ETV
vector 375167  Network.dyn_peer[14]  lookupHopsSig:vector  ETV
vector 375168  Network.dyn_peer[14]  lookupStabilitySig:vector  ETV
vector 375169  Network.dyn_peer[14]  lookupTimeSig:vector  ETV
vector 375191  Network.dyn_peer[22]  lookupHopsSig:vector  ETV
vector 375192  Network.dyn_peer[22]  lookupStabilitySig:vector  ETV
vector 375193  Network.dyn_peer[22]  lookupTimeSig:vector  ETV
vector 375194  Network.dyn_peer[23]  lookupHopsSig:vector  ETV
vector 375195  Network.dyn_peer[23]  lookupStabilitySig:vector  ETV
vector 375196  Network.dyn_peer[23]  lookupTimeSig:vector  ETV
vector 375215  Network.dyn_peer[30]  lookupHopsSig:vector  ETV
vector 375216  Network.dyn_peer[30]  lookupStabilitySig:vector  ETV
vector 375217  Network.dyn_peer[30]  lookupTimeSig:vector  ETV
vector 375254  Network.dyn_peer[43]  lookupHopsSig:vector  ETV
vector 375255  Network.dyn_peer[43]  lookupStabilitySig:vector  ETV
vector 375256  Network.dyn_peer[43]  lookupTimeSig:vector  ETV
vector 375140  Network.dyn_peer[5]  lookupHopsSig:vector  ETV
vector 375141  Network.dyn_peer[5]  lookupStabilitySig:vector  ETV
vector 375142  Network.dyn_peer[5]  lookupTimeSig:vector  ETV
vector 375143  Network.dyn_peer[6]  lookupHopsSig:vector  ETV
vector 375144  Network.dyn_peer[6]  lookupStabilitySig:vector  ETV
vector 375145  Network.dyn_peer[6]  lookupTimeSig:vector  ETV
vector 375146  Network.dyn_peer[7]  lookupHopsSig:vector  ETV
vector 375147  Network.dyn_peer[7]  lookupStabilitySig:vector  ETV
vector 375148  Network.dyn_peer[7]  lookupTimeSig:vector  ETV
vector 375170  Network.dyn_peer[15]  lookupHopsSig:vector  ETV
vector 375171  Network.dyn_peer[15]  lookupStabilitySig:vector  ETV
vector 375172  Network.dyn_peer[15]  lookupTimeSig:vector  ETV
vector 375203  Network.dyn_peer[26]  lookupHopsSig:vector  ETV
vector 375204  Network.dyn_peer[26]  lookupStabilitySig:vector  ETV
vector 375205  Network.dyn_peer[26]  lookupTimeSig:vector  ETV
vector 375236  Network.dyn_peer[37]  lookupHopsSig:vector  ETV
vector 375237  Network.dyn_peer[37]  lookupStabilitySig:vector  ETV
vector 375238  Network.dyn_peer[37]  lookupTimeSig:vector  ETV
vector 375248  Network.dyn_peer[41]  lookupHopsSig:vector  ETV
vector 375249  Network.dyn_peer[41]  lookupStabilitySig:vector  ETV
vector 375250  Network.dyn_peer[41]  lookupTimeSig:vector  ETV
vector 375179  Network.dyn_peer[18]  lookupHopsSig:vector  ETV
vector 375180  Network.dyn_peer[18]  lookupStabilitySig:vector  ETV
vector 375181  Network.dyn_peer[18]  lookupTimeSig:vector  ETV
vector 375200  Network.dyn_peer[25]  lookupHopsSig:vector  ETV
vector 375201  Network.dyn_peer[25]  lookupStabilitySig:vector  ETV
vector 375202  Network.dyn_peer[25]  lookupTimeSig:vector  ETV
vector 375212  Network.dyn_peer[29]  lookupHopsSig:vector  ETV
vector 375213  Network.dyn_peer[29]  lookupStabilitySig:vector  ETV
vector 375214  Network.dyn_peer[29]  lookupTimeSig:vector  ETV
vector 375263  Network.dyn_peer[46]  lookupHopsSig:vector  ETV
vector 375264  Network.dyn_peer[46]  lookupStabilitySig:vector  ETV
vector 375265  Network.dyn_peer[46]  lookupTimeSig:vector  ETV
vector 375272  Network.dyn_peer[49]  lookupHopsSig:vector  ETV
vector 375273  Network.dyn_peer[49]  lookupStabilitySig:vector  ETV
vector 375274  Network.dyn_peer[49]  lookupTimeSig:vector  ETV
vector 375152  Network.dyn_peer[9]  lookupHopsSig:vector  ETV
vector 375153  Network.dyn_peer[9]  lookupStabilitySig:vector  ETV
vector 375154  Network.dyn_peer[9]  lookupTimeSig:vector  ETV
vector 375158  Network.dyn_peer[11]  lookupHopsSig:vector  ETV
vector 375159  Network.dyn_peer[11]  lookupStabilitySig:vector  ETV
vector 375160  Network.dyn_peer[11]  lookupTimeSig:vector  ETV
vector 375173  Network.dyn_peer[16]  lookupHopsSig:vector  ETV
vector 375174  Network.dyn_peer[16]  lookupStabilitySig:vector  ETV
vector 375175  Network.dyn_peer[16]  lookupTimeSig:vector  ETV
vector 375134  Network.dyn_peer[3]  lookupHopsSig:vector  ETV
vector 375135  Network.dyn_peer[3]  lookupStabilitySig:vector  ETV
vector 375136  Network.dyn_peer[3]  lookupTimeSig:vector  ETV
vector 375182  Network.dyn_peer[19]  lookupHopsSig:vector  ETV
vector 375183  Network.dyn_peer[19]  lookupStabilitySig:vector  ETV
vector 375184  Network.dyn_peer[19]  lookupTimeSig:vector  ETV
vector 375197  Network.dyn_peer[24]  lookupHopsSig:vector  ETV
vector 375198  Network.dyn_peer[24]  lookupStabilitySig:vector  ETV
vector 375199  Network.dyn_peer[24]  lookupTimeSig:vector  ETV
vector 375224  Network.dyn_peer[33]  lookupHopsSig:vector  ETV
vector 375225  Network.dyn_peer[33]  lookupStabilitySig:vector  ETV
vector 375226  Network.dyn_peer[33]  lookupTimeSig:vector  ETV
vector 375245  Network.dyn_peer[40]  lookupHopsSig:vector  ETV
vector 375246  Network.dyn_peer[40]  lookupStabilitySig:vector  ETV
vector 375247  Network.dyn_peer[40]  lookupTimeSig:vector  ETV
vector 375209  Network.dyn_peer[28]  lookupHopsSig:vector  ETV
vector 375210  Network.dyn_peer[28]  lookupStabilitySig:vector  ETV
vector 375211  Network.dyn_peer[28]  lookupTimeSig:vector  ETV
vector 375221  Network.dyn_peer[32]  lookupHopsSig:vector  ETV
vector 375222  Network.dyn_peer[32]  lookupStabilitySig:vector  ETV
vector 375223  Network.dyn_peer[32]  lookupTimeSig:vector  ETV
vector 375230  Network.dyn_peer[35]  lookupHopsSig:vector  ETV
vector 375231  Network.dyn_peer[35]  lookupStabilitySig:vector  ETV
vector 375232  Network.dyn_peer[35]  lookupTimeSig:vector  ETV
vector 375233  Network.dyn_peer[36]  lookupHopsSig:vector  ETV
vector 375234  Network.dyn_peer[36]  lookupStabilitySig:vector  ETV
vector 375235  Network.dyn_peer[36]  lookupTimeSig:vector  ETV
vector 375239  Network.dyn_peer[38]  lookupHopsSig:vector  ETV
vector 375240  Network.dyn_peer[38]  lookupStabilitySig:vector  ETV
vector 375241  Network.dyn_peer[38]  lookupTimeSig:vector  ETV
vector 375149  Network.dyn_peer[8]  lookupHopsSig:vector  ETV
vector 375150  Network.dyn_peer[8]  lookupStabilitySig:vector  ETV
vector 375151  Network.dyn_peer[8]  lookupTimeSig:vector  ETV
vector 375188  Network.dyn_peer[21]  lookupHopsSig:vector  ETV
vector 375189  Network.dyn_peer[21]  lookupStabilitySig:vector  ETV
vector 375190  Network.dyn_peer[21]  lookupTimeSig:vector  ETV
vector 375257  Network.dyn_peer[44]  lookupHopsSig:vector  ETV
vector 375258  Network.dyn_peer[44]  lookupStabilitySig:vector  ETV
vector 375259  Network.dyn_peer[44]  lookupTimeSig:vector  ETV
vector 375155  Network.dyn_peer[10]  lookupHopsSig:vector  ETV
vector 375156  Network.dyn_peer[10]  lookupStabilitySig:vector  ETV
vector 375157  Network.dyn_peer[10]  lookupTimeSig:vector  ETV
vector 375206  Network.dyn_peer[27]  lookupHopsSig:vector  ETV
vector 375207  Network.dyn_peer[27]  lookupStabilitySig:vector  ETV
vector 375208  Network.dyn_peer[27]  lookupTimeSig:vector  ETV
vector 375227  Network.dyn_peer[34]  lookupHopsSig:vector  ETV
vector 375228  Network.dyn_peer[34]  lookupStabilitySig:vector  ETV
vector 375229  Network.dyn_peer[34]  lookupTimeSig:vector  ETV
vector 375266  Network.dyn_peer[47]  lookupHopsSig:vector  ETV
vector 375267  Network.dyn_peer[47]  lookupStabilitySig:vector  ETV
vector 375268  Network.dyn_peer[47]  lookupTimeSig:vector  ETV
vector 375218  Network.dyn_peer[31]  lookupHopsSig:vector  ETV
vector 375219  Network.dyn_peer[31]  lookupStabilitySig:vector  ETV
vector 375220  Network.dyn_peer[31]  lookupTimeSig:vector  ETV
vector 375260  Network.dyn_peer[45]  lookupHopsSig:vector  ETV
vector 375261  Network.dyn_peer[45]  lookupStabilitySig:vector  ETV
vector 375262  Network.dyn_peer[45]  lookupTimeSig:vector  ETV
vector 375251  Network.dyn_peer[42]  lookupHopsSig:vector  ETV
vector 375252  Network.dyn_peer[42]  lookupStabilitySig:vector  ETV
vector 375253  Network.dyn_peer[42]  lookupTimeSig:vector  ETV
vector 375242  Network.dyn_peer[39]  lookupHopsSig:vector  ETV
vector 375243  Network.dyn_peer[39]  lookupStabilitySig:vector  ETV
vector 375244  Network.dyn_peer[39]  lookupTimeSig:vector  ETV
375125	17	20.001	0
375125	523	20.501	4
375125	763	20.809750801675	2
375125	1068	21.211055975974	3
375125	1257	21.516048460687	2
375126	17	20.001	1
375126	523	20.501	0.19999998807907
375126	763	20.809750801675	0.59999999403954
375126	1068	21.211055975974	0.78571428358555
375126	1257	21.516048460687	0.89999999850988
375127	17	20.001	0
375127	523	20.501	0.5
375127	763	20.809750801675	0.3
375127	1068	21.211055975974	0.4
375127	1257	21.516048460687	0.3
375128	25	20.002	0
375128	691	20.7052685856	6
375128	919	21.010597933581	2
375128	1126	21.314115313686	2
375128	1414	21.816669449644	4
375128	1665	22.525079750696	6
375129	25	20.002	1
375129	691	20.7052685856	-0.20000004768372
375129	919	21.010597933581	0.77777777612209
375129	1126	21.314115313686	0.86666665971279
375129	1414	21.816669449644	0.84000000357628
375129	1665	22.525079750696	0.86363635957241
375130	25	20.002	0
375130	691	20.7052685856	0.7
375130	919	21.010597933581	0.3
375130	1126	21.314115313686	0.3
375130	1414	21.816669449644	0.5
375130	1665	22.525079750696	0.7
375131	202	20.103	1
375131	1368	21.703	15
375131	1469	21.904368467041	1
375132	202	20.103	0.79999999701977
375132	1368	21.703	0.34782606363297
375132	1469	21.904368467041	0.96551724150777
375133	202	20.103	0.1
375133	1368	21.703	1.6
375133	1469	21.904368467041	0.2
375134	530	20.504	5
375134	1191	21.413528462176	8
375135	530	20.504	0
375135	1191	21.413528462176	0.5294117629528
375136	530	20.504	0.5
375136	1191	21.413528462176	0.9
375137	38	20.005	0
375137	773	20.81168283245	7
375137	1193	21.415441429709	5
375137	1419	21.820307227098	3
375138	38	20.005	1
375138	773	20.81168283245	-0.39999997615814
375138	1193	21.415441429709	0.72222220897675
375138	1419	21.820307227098	0.88461538404226
375139	38	20.005	0
375139	773	20.81168283245	0.8
375139	1193	21.415441429709	0.6
375139	1419	21.820307227098	0.4
375140	294	20.206	2
375140	836	20.906	6
375140	1122	21.310827077959	3
375141	294	20.206	0.59999999403954
375141	836	20.906	0
375141	1122	21.310827077959	0.79999999701977
375142	294	20.206	0.2
375142	836	20.906	0.7
375142	1122	21.310827077959	0.4
375143	299	20.207	2
375143	916	21.007	7
375143	1301	21.55415762917	4
375143	1559	22.060527472794	4
375143	1748	22.965485067518	8
375144	299	20.207	0.59999999403954
375144	916	21.007	0.22222220897675
375144	1301	21.55415762917	0.80952380597591
375144	1559	22.060527472794	0.89189188927412
375144	1748	22.965485067518	0.84000000357628
375145	299	20.207	0.2
375145	916	21.007	0.8
375145	1301	21.55415762917	0.5
375145	1559	22.060527472794	0.5
375145	1748	22.965485067518	0.9
375146	304	20.208	2
375146	535	20.508	2
375146	1197	21.416950524064	8
375146	1417	21.819274199857	3
375147	304	20.208	0.59999999403954
375147	535	20.508	0.59999999403954
375147	1197	21.416950524064	0.55555555224419
375147	1417	21.819274199857	0.88000000268221
375148	304	20.208	0.2
375148	535	20.508	0.3
375148	1197	21.416950524064	0.9
375148	1417	21.819274199857	0.4
375149	698	20.709	7
375149	1307	21.609	8
375150	698	20.709	-0.39999997615814
375150	1307	21.609	0.61904761195183
375151	698	20.709	0.7
375151	1307	21.609	0.9
375152	461	20.41	4
375152	840	20.91	4
375152	1006	21.115826531529	1
375153	461	20.41	0.19999998807907
375153	840	20.91	0.33333331346512
375153	1006	21.115826531529	0.90909090638161
375154	461	20.41	0.4
375154	840	20.91	0.5
375154	1006	21.115826531529	0.2
375155	770	20.811	8
375155	1189	21.411	5
375155	1311	21.618319821529	1
375155	1512	22.023211327459	3
375156	770	20.811	-0.60000002384186
375156	1189	21.411	0.70588234066963
375156	1311	21.618319821529	0.9545454531908
375156	1512	22.023211327459	0.90322580933571
375157	770	20.811	0.8
375157	1189	21.411	0.6
375157	1311	21.618319821529	0.2
375157	1512	22.023211327459	0.4
375158	469	20.412	4
375158	846	20.912	4
375158	1012	21.117306827466	1
375159	469	20.412	0.19999998807907
375159	846	20.912	0.33333331346512
375159	1012	21.117306827466	0.90909090638161
375160	469	20.412	0.4
375160	846	20.912	0.5
375160	1012	21.117306827466	0.2
375161	218	20.113	1
375161	928	21.015729997709	8
375161	1510	22.021592819261	9
375162	218	20.113	0.79999999701977
375162	928	21.015729997709	0.19999998807907
375162	1510	22.021592819261	0.70967742800713
375163	218	20.113	0.1
375163	928	21.015729997709	0.9
375163	1510	22.021592819261	1
375164	74	20.014	0
375164	471	20.414	3
375164	862	20.919198865574	4
375165	74	20.014	1
375165	471	20.414	0.39999997615814
375165	862	20.919198865574	0.42857140302658
375166	74	20.014	0
375166	471	20.414	0.4
375166	862	20.919198865574	0.5
375167	224	20.115	1
375167	849	20.915	7
375167	1458	21.851366339793	6
375167	1594	22.159789462432	2
375167	1680	22.564256281892	3
375167	1750	22.96845443325	3
375168	224	20.115	0.79999999701977
375168	849	20.915	-0.16666662693024
375168	1458	21.851366339793	0.79310344159603
375168	1594	22.159789462432	0.94999999925494
375168	1680	22.564256281892	0.9333333298564
375168	1750	22.96845443325	0.9400000013411
375169	224	20.115	0.1
375169	849	20.915	0.8
375169	1458	21.851366339793	0.7
375169	1594	22.159789462432	0.3
375169	1680	22.564256281892	0.4
375169	1750	22.96845443325	0.4
375170	318	20.216	2
375170	1008	21.116	8
375170	1317	21.621881510523	4
375170	1516	22.025426845453	3
375170	1688	22.635376932262	5
375170	1741	22.93895247566	2
375171	318	20.216	0.59999999403954
375171	1008	21.116	0.27272725105286
375171	1317	21.621881510523	0.81818181276321
375171	1516	22.025426845453	0.90625
375171	1688	22.635376932262	0.88888888806105
375171	1741	22.93895247566	0.95918367430568
375172	318	20.216	0.2
375172	1008	21.116	0.9
375172	1317	21.621881510523	0.5
375172	1516	22.025426845453	0.4
375172	1688	22.635376932262	0.6
375172	1741	22.93895247566	0.3
375173	479	20.417	4
375173	1132	21.317	8
375173	1421	21.82138640316	4
375173	1519	22.026187360212	1
375174	479	20.417	0.19999998807907
375174	1132	21.317	0.46666663885117
375174	1421	21.82138640316	0.85185185074806
375174	1519	22.026187360212	0.96875
375175	479	20.417	0.4
375175	1132	21.317	0.9
375175	1421	21.82138640316	0.5
375175	1519	22.026187360212	0.2
375176	91	20.018	0
375176	784	20.818	7
375176	1216	21.429774107933	5
375177	91	20.018	1
375177	784	20.818	-0.39999997615814
375177	1216	21.429774107933	0.72222220897675
375178	91	20.018	0
375178	784	20.818	0.8
375178	1216	21.429774107933	0.6
375179	396	20.319	3
375179	937	21.019	6
375179	1209	21.422388233832	3
375179	1569	22.131596851191	6
375180	396	20.319	0.39999997615814
375180	937	21.019	0.39999997615814
375180	1209	21.422388233832	0.83333332836628
375180	1569	22.131596851191	0.83783784508705
375181	396	20.319	0.3
375181	937	21.019	0.7
375181	1209	21.422388233832	0.4
375181	1569	22.131596851191	0.7
375182	558	20.52	5
375182	1320	21.6242187666	10
375183	558	20.52	0
375183	1320	21.6242187666	0.54545453190804
375184	558	20.52	0.5
375184	1320	21.6242187666	1.1
375185	104	20.021	0
375185	1203	21.421	13
375185	1432	21.829651883609	3
375185	1529	22.037071935619	1
375186	104	20.021	1
375186	1203	21.421	0.27777779102325
375186	1432	21.829651883609	0.88888888806105
375186	1529	22.037071935619	0.97058823518455
375187	104	20.021	0
375187	1203	21.421	1.4
375187	1432	21.829651883609	0.4
375187	1529	22.037071935619	0.2
375188	721	20.722	7
375188	1266	21.522	7
375188	1426	21.825293456495	2
375189	721	20.722	-0.39999997615814
375189	1266	21.522	0.65000000596046
375189	1426	21.825293456495	0.92592592537403
375190	721	20.722	0.7
375190	1266	21.522	0.8
375190	1426	21.825293456495	0.3
375191	238	20.123	1
375191	488	20.423	2
375191	886	20.936492587884	4
375192	238	20.123	0.79999999701977
375192	488	20.423	0.59999999403954
375192	886	20.936492587884	0.5
375193	238	20.123	0.1
375193	488	20.423	0.3
375193	886	20.936492587884	0.5
375194	243	20.124	1
375194	424	20.338606880915	1
375194	822	20.843851548084	4
375195	243	20.124	0.79999999701977
375195	424	20.338606880915	0.79999999701977
375195	822	20.843851548084	0.19999998807907
375196	243	20.124	0.1
375196	424	20.338606880915	0.2
375196	822	20.843851548084	0.5
375197	566	20.525	5
375197	945	21.025	4
375197	1333	21.633355381505	5
375197	1544	22.046293136875	3
375197	1635	22.350249559163	2
375197	1720	22.758745374128	3
375198	566	20.525	0
375198	945	21.025	0.59999999403954
375198	1333	21.633355381505	0.78260870277882
375198	1544	22.046293136875	0.91666666418314
375198	1635	22.350249559163	0.95348837226629
375198	1720	22.758745374128	0.93478260934353
375199	566	20.525	0.5
375199	945	21.025	0.5
375199	1333	21.633355381505	0.6
375199	1544	22.046293136875	0.4
375199	1635	22.350249559163	0.3
375199	1720	22.758745374128	0.4
375200	406	20.326	3
375200	1272	21.526	11
375200	1566	22.128850454167	5
375200	1754	23.033884904119	8
375201	406	20.326	0.39999997615814
375201	1272	21.526	0.47619044780731
375201	1566	22.128850454167	0.86486487090588
375201	1754	23.033884904119	0.84000000357628
375202	406	20.326	0.3
375202	1272	21.526	1.2
375202	1566	22.128850454167	0.6
375202	1754	23.033884904119	0.9
375203	333	20.227	2
375203	949	21.027	7
375203	1604	22.22969885322	11
375204	333	20.227	0.59999999403954
375204	949	21.027	0.30000001192093
375204	1604	22.22969885322	0.72499999403954
375205	333	20.227	0.2
375205	949	21.027	0.8
375205	1604	22.22969885322	1.2
375206	800	20.828	8
375206	1086	21.228	3
375207	800	20.828	-0.60000002384186
375207	1086	21.228	0.78571428358555
375208	800	20.828	0.8
375208	1086	21.228	0.4
375209	639	20.629	6
375209	1146	21.329	6
375209	1480	21.930451490551	5
375209	1608	22.238380817668	2
375210	639	20.629	-0.20000004768372
375210	1146	21.329	0.625
375210	1480	21.930451490551	0.83333332836628
375210	1608	22.238380817668	0.94999999925494
375211	639	20.629	0.6
375211	1146	21.329	0.7
375211	1480	21.930451490551	0.6
375211	1608	22.238380817668	0.3
375212	414	20.33	3
375212	804	20.83	4
375212	1035	21.138415689556	2
375213	414	20.33	0.39999997615814
375213	804	20.83	0.19999998807907
375213	1035	21.138415689556	0.84615384042263
375214	414	20.33	0.3
375214	804	20.83	0.5
375214	1035	21.138415689556	0.3
375215	254	20.131	1
375215	676	20.644917420973	4
375215	1116	21.256143783077	5
375215	1252	21.463693566198	1
375216	254	20.131	0.79999999701977
375216	676	20.644917420973	0.19999998807907
375216	1116	21.256143783077	0.66666665673256
375216	1252	21.463693566198	0.9473684206605
375217	254	20.131	0.1
375217	676	20.644917420973	0.5
375217	1116	21.256143783077	0.6
375217	1252	21.463693566198	0.2
375218	958	21.032	10
375218	1151	21.332	2
375218	1527	22.036944387846	6
375219	958	21.032	0
375219	1151	21.332	0.875
375219	1527	22.036944387846	0.82352940738201
375220	958	21.032	1
375220	1151	21.332	0.3
375220	1527	22.036944387846	0.7
375221	646	20.633	6
375221	1386	21.733	10
375222	646	20.633	-0.20000004768372
375222	1386	21.733	0.56521740555763
375223	646	20.633	0.6
375223	1386	21.733	1.1
375224	578	20.534	5
375224	962	21.034	4
375224	1160	21.338584249192	2
375225	578	20.534	0
375225	962	21.034	0.59999999403954
375225	1160	21.338584249192	0.875
375226	578	20.534	0.5
375226	962	21.034	0.5
375226	1160	21.338584249192	0.3
375227	883	20.935	9
375227	1222	21.435	4
375227	1531	22.037081002255	5
375227	1631	22.343671593328	2
375228	883	20.935	-0.125
375228	1222	21.435	0.77777777612209
375228	1531	22.037081002255	0.85714285075665
375228	1631	22.343671593328	0.95238095149398
375229	883	20.935	0.9
375229	1222	21.435	0.5
375229	1531	22.037081002255	0.6
375229	1631	22.343671593328	0.3
375230	653	20.636	6
375230	1156	21.336	6
375230	1346	21.640980247248	2
375230	1541	22.045109476827	3
375231	653	20.636	-0.20000004768372
375231	1156	21.336	0.625
375231	1346	21.640980247248	0.91304347664118
375231	1541	22.045109476827	0.91666666418314
375232	653	20.636	0.6
375232	1156	21.336	0.7
375232	1346	21.640980247248	0.3
375232	1541	22.045109476827	0.4
375233	659	20.637	6
375233	1225	21.437	7
375233	1535	22.03903587535	5
375233	1691	22.643269498995	5
375233	1728	22.849808475987	1
375234	659	20.637	-0.20000004768372
375234	1225	21.437	0.61111110448837
375234	1535	22.03903587535	0.86111110448837
375234	1691	22.643269498995	0.88888888806105
375234	1728	22.849808475987	0.97872340492904
375235	659	20.637	0.6
375235	1225	21.437	0.8
375235	1535	22.03903587535	0.6
375235	1691	22.643269498995	0.6
375235	1728	22.849808475987	0.2
375236	348	20.238	2
375236	967	21.038	7
375236	1165	21.341413968794	2
375236	1393	21.743131909737	3
375236	1585	22.151991472166	3
375236	1716	22.755043527976	5
375236	1759	23.056290308824	2
375236	1770	23.259331709363	1
375237	348	20.238	0.59999999403954
375237	967	21.038	0.30000001192093
375237	1165	21.341413968794	0.875
375237	1393	21.743131909737	0.875
375237	1585	22.151991472166	0.92307692021132
375237	1716	22.755043527976	0.89130435138941
375237	1759	23.056290308824	0.96078431233764
375237	1770	23.259331709363	0.98113207519054
375238	348	20.238	0.2
375238	967	21.038	0.8
375238	1165	21.341413968794	0.3
375238	1393	21.743131909737	0.4
375238	1585	22.151991472166	0.4
375238	1716	22.755043527976	0.6
375238	1759	23.056290308824	0.3
375238	1770	23.259331709363	0.2
375239	668	20.639	6
375239	1337	21.639	9
375239	1579	22.147468884229	4
375240	668	20.639	-0.20000004768372
375240	1337	21.639	0.60869565606117
375240	1579	22.147468884229	0.89473684132099
375241	668	20.639	0.6
375241	1337	21.639	1
375241	1579	22.147468884229	0.5
375242	1343	21.64	16
375242	1488	21.94	2
375242	1693	22.648490551479	6
375242	1765	23.155810124186	4
375243	1343	21.64	0.30434781312943
375243	1488	21.94	0.9333333298564
375243	1693	22.648490551479	0.86666665971279
375243	1765	23.155810124186	0.92307692021132
375244	1343	21.64	1.6
375244	1488	21.94	0.3
375244	1693	22.648490551479	0.7
375244	1765	23.155810124186	0.5
375245	591	20.541	5
375245	1040	21.141	5
375245	1577	22.14587554749	9
375246	591	20.541	0
375246	1040	21.141	0.64285713434219
375246	1577	22.14587554749	0.76315788924694
375247	591	20.541	0.5
375247	1040	21.141	0.6
375247	1577	22.14587554749	1
375248	357	20.242	2
375248	1233	21.442	11
375248	1450	21.846070738782	3
375249	357	20.242	0.59999999403954
375249	1233	21.442	0.42105263471603
375249	1450	21.846070738782	0.89285714179277
375250	357	20.242	0.2
375250	1233	21.442	1.2
375250	1450	21.846070738782	0.4
375251	1047	21.143	11
375251	1443	21.843	6
375251	1539	22.044857996415	1
375251	1712	22.750477304762	6
375251	1775	23.554640687336	7
375251	1780	23.860007929389	2
375251	1786	24.171460830111	2
375252	1047	21.143	0.21428573131561
375252	1443	21.843	0.78571428358555
375252	1539	22.044857996415	0.97222222201526
375252	1712	22.750477304762	0.86956521868706
375252	1775	23.554640687336	0.87037037312984
375252	1780	23.860007929389	0.96296296268702
375252	1786	24.171460830111	0.96296296268702
375253	1047	21.143	1.1
375253	1443	21.843	0.7
375253	1539	22.044857996415	0.2
375253	1712	22.750477304762	0.7
375253	1775	23.554640687336	0.8
375253	1780	23.860007929389	0.3
375253	1786	24.171460830111	0.3
375254	276	20.144	1
375254	1289	21.544	13
375254	1553	22.052545025251	4
375254	1697	22.653258447202	5
375254	1730	22.854555405643	1
375255	276	20.144	0.79999999701977
375255	1289	21.544	0.38095235824585
375255	1553	22.052545025251	0.89189188927412
375255	1697	22.653258447202	0.88888888806105
375255	1730	22.854555405643	0.97872340492904
375256	276	20.144	0.1
375256	1289	21.544	1.4
375256	1553	22.052545025251	0.5
375256	1697	22.653258447202	0.6
375256	1730	22.854555405643	0.2
375257	749	20.745	7
375257	899	20.945	1
375257	1295	21.548833040307	5
375257	1406	21.756461836572	1
375258	749	20.745	-0.39999997615814
375258	899	20.945	0.88888888806105
375258	1295	21.548833040307	0.76190476119518
375258	1406	21.756461836572	0.95833333209157
375259	749	20.745	0.7
375259	899	20.945	0.2
375259	1295	21.548833040307	0.6
375259	1406	21.756461836572	0.2
375260	983	21.046	10
375260	1448	21.846	7
375260	1676	22.555395155336	6
375260	1762	23.061582391079	4
375261	983	21.046	0
375261	1448	21.846	0.75
375261	1676	22.555395155336	0.86666665971279
375261	1762	23.061582391079	0.92156862467527
375262	983	21.046	1
375262	1448	21.846	0.8
375262	1676	22.555395155336	0.7
375262	1762	23.061582391079	0.5
375263	440	20.347	3
375263	681	20.647	2
375263	1179	21.349410690009	6
375263	1363	21.657740931273	2
375263	1505	21.961368998391	2
375263	1662	22.47002631382	4
375264	440	20.347	0.39999997615814
375264	681	20.647	0.59999999403954
375264	1179	21.349410690009	0.64705881476402
375264	1363	21.657740931273	0.91304347664118
375264	1505	21.961368998391	0.9333333298564
375264	1662	22.47002631382	0.90697674453259
375265	440	20.347	0.3
375265	681	20.647	0.3
375265	1179	21.349410690009	0.7
375265	1363	21.657740931273	0.3
375265	1505	21.961368998391	0.3
375265	1662	22.47002631382	0.5
375266	907	20.948	9
375266	1054	21.148	1
375266	1357	21.649338322269	4
375266	1501	21.95882271637	2
375267	907	20.948	0
375267	1054	21.148	0.92857142537832
375267	1357	21.649338322269	0.82608695328236
375267	1501	21.95882271637	0.9333333298564
375268	907	20.948	0.9
375268	1054	21.148	0.2
375268	1357	21.649338322269	0.5
375268	1501	21.95882271637	0.3
375269	192	20.049	0
375269	367	20.249	1
375269	989	21.053267240003	7
375270	192	20.049	1
375270	367	20.249	0.79999999701977
375270	989	21.053267240003	0.30000001192093
375271	192	20.049	0
375271	367	20.249	0.2
375271	989	21.053267240003	0.8
375272	446	20.35	3
375272	1246	21.45	10
375272	1456	21.850218476073	3
375272	1591	22.155766176203	2
375272	1642	22.358939679233	1
375272	1704	22.66526366943	2
375273	446	20.35	0.39999997615814
375273	1246	21.45	0.4736841917038
375273	1456	21.850218476073	0.89655172079802
375273	1591	22.155766176203	0.94999999925494
375273	1642	22.358939679233	0.97674418613315
375273	1704	22.66526366943	0.95555555447936
375274	446	20.35	0.3
375274	1246	21.45	1.1
375274	1456	21.850218476073	0.4
375274	1591	22.155766176203	0.3
375274	1642	22.358939679233	0.2
375274	1704	22.66526366943	0.3
378125	10	20	0
378125	11	20.001	0
378125	19	20.002	1
378125	26	20.003	2
378125	29	20.004	3
378125	32	20.005	4
378125	40	20.006	5
378125	43	20.007	6
378125	47	20.008	7
378125	51	20.009	8
378125	54	20.01	9
378125	57	20.011	10
378125	62	20.012	11
378125	65	20.013	12
378125	68	20.014	13
378125	75	20.015	14
378125	78	20.016	15
378125	81	20.017	16
378125	85	20.018	17
378125	92	20.019	18
378125	95	20.02	19
378125	98	20.021	20
378125	105	20.022	21
378125	108	20.023	22
378125	111	20.024	23
378125	114	20.025	24
378125	117	20.026	25
378125	120	20.027	26
378125	123	20.028	27
378125	126	20.029	28
378125	129	20.03	29
378125	132	20.031	30
378125	135	20.032	31
378125	138	20.033	32
378125	141	20.034	33
378125	144	20.035	34
378125	147	20.036	35
378125	150	20.037	36
378125	153	20.038	37
378125	156	20.039	38
378125	159	20.04	39
378125	162	20.041	40
378125	165	20.042	41
378125	168	20.043	42
378125	171	20.044	43
378125	174	20.045	44
378125	177	20.046	45
378125	180	20.047	46
378125	183	20.048	47
378125	186	20.049	48
378125	193	20.05	49
