version 2
run Stability2-277-20130526-00:53:43-26640
attr configname Stability2
attr datetime 20130526-00:53:43
attr experiment Stability2
attr inifile omnetpp.ini
attr iterationvars $0=500
attr iterationvars2 "$0=500, $repetition=7"
attr measurement $0=500
attr network Network
attr processid 26640
attr repetition 7
attr replication #7
attr resultdir results
attr runnumber 277
attr seedset 277

vector 834277  Network.churner  inGoingSizeSig:vector  ETV
vector 831295  Network.dyn_peer[6]  lookupHopsSig:vector  ETV
vector 831296  Network.dyn_peer[6]  lookupStabilitySig:vector  ETV
vector 831297  Network.dyn_peer[6]  lookupTimeSig:vector  ETV
vector 831331  Network.dyn_peer[18]  lookupHopsSig:vector  ETV
vector 831332  Network.dyn_peer[18]  lookupStabilitySig:vector  ETV
vector 831333  Network.dyn_peer[18]  lookupTimeSig:vector  ETV
vector 831340  Network.dyn_peer[21]  lookupHopsSig:vector  ETV
vector 831341  Network.dyn_peer[21]  lookupStabilitySig:vector  ETV
vector 831342  Network.dyn_peer[21]  lookupTimeSig:vector  ETV
vector 831373  Network.dyn_peer[32]  lookupHopsSig:vector  ETV
vector 831374  Network.dyn_peer[32]  lookupStabilitySig:vector  ETV
vector 831375  Network.dyn_peer[32]  lookupTimeSig:vector  ETV
vector 831382  Network.dyn_peer[35]  lookupHopsSig:vector  ETV
vector 831383  Network.dyn_peer[35]  lookupStabilitySig:vector  ETV
vector 831384  Network.dyn_peer[35]  lookupTimeSig:vector  ETV
vector 831385  Network.dyn_peer[36]  lookupHopsSig:vector  ETV
vector 831386  Network.dyn_peer[36]  lookupStabilitySig:vector  ETV
vector 831387  Network.dyn_peer[36]  lookupTimeSig:vector  ETV
vector 831427  Network.dyn_peer[50]  lookupHopsSig:vector  ETV
vector 831428  Network.dyn_peer[50]  lookupStabilitySig:vector  ETV
vector 831429  Network.dyn_peer[50]  lookupTimeSig:vector  ETV
vector 831448  Network.dyn_peer[57]  lookupHopsSig:vector  ETV
vector 831449  Network.dyn_peer[57]  lookupStabilitySig:vector  ETV
vector 831450  Network.dyn_peer[57]  lookupTimeSig:vector  ETV
vector 831457  Network.dyn_peer[60]  lookupHopsSig:vector  ETV
vector 831458  Network.dyn_peer[60]  lookupStabilitySig:vector  ETV
vector 831459  Network.dyn_peer[60]  lookupTimeSig:vector  ETV
vector 831283  Network.dyn_peer[2]  lookupHopsSig:vector  ETV
vector 831284  Network.dyn_peer[2]  lookupStabilitySig:vector  ETV
vector 831285  Network.dyn_peer[2]  lookupTimeSig:vector  ETV
vector 831286  Network.dyn_peer[3]  lookupHopsSig:vector  ETV
vector 831287  Network.dyn_peer[3]  lookupStabilitySig:vector  ETV
vector 831288  Network.dyn_peer[3]  lookupTimeSig:vector  ETV
vector 831310  Network.dyn_peer[11]  lookupHopsSig:vector  ETV
vector 831311  Network.dyn_peer[11]  lookupStabilitySig:vector  ETV
vector 831312  Network.dyn_peer[11]  lookupTimeSig:vector  ETV
vector 831337  Network.dyn_peer[20]  lookupHopsSig:vector  ETV
vector 831338  Network.dyn_peer[20]  lookupStabilitySig:vector  ETV
vector 831339  Network.dyn_peer[20]  lookupTimeSig:vector  ETV
vector 831391  Network.dyn_peer[38]  lookupHopsSig:vector  ETV
vector 831392  Network.dyn_peer[38]  lookupStabilitySig:vector  ETV
vector 831393  Network.dyn_peer[38]  lookupTimeSig:vector  ETV
vector 831397  Network.dyn_peer[40]  lookupHopsSig:vector  ETV
vector 831398  Network.dyn_peer[40]  lookupStabilitySig:vector  ETV
vector 831399  Network.dyn_peer[40]  lookupTimeSig:vector  ETV
vector 831715  Network.dyn_peer[146]  lookupHopsSig:vector  ETV
vector 831716  Network.dyn_peer[146]  lookupStabilitySig:vector  ETV
vector 831717  Network.dyn_peer[146]  lookupTimeSig:vector  ETV
vector 831451  Network.dyn_peer[58]  lookupHopsSig:vector  ETV
vector 831452  Network.dyn_peer[58]  lookupStabilitySig:vector  ETV
vector 831453  Network.dyn_peer[58]  lookupTimeSig:vector  ETV
vector 831460  Network.dyn_peer[61]  lookupHopsSig:vector  ETV
vector 831461  Network.dyn_peer[61]  lookupStabilitySig:vector  ETV
vector 831462  Network.dyn_peer[61]  lookupTimeSig:vector  ETV
vector 831517  Network.dyn_peer[80]  lookupHopsSig:vector  ETV
vector 831518  Network.dyn_peer[80]  lookupStabilitySig:vector  ETV
vector 831519  Network.dyn_peer[80]  lookupTimeSig:vector  ETV
vector 831307  Network.dyn_peer[10]  lookupHopsSig:vector  ETV
vector 831308  Network.dyn_peer[10]  lookupStabilitySig:vector  ETV
vector 831309  Network.dyn_peer[10]  lookupTimeSig:vector  ETV
vector 831910  Network.dyn_peer[211]  lookupHopsSig:vector  ETV
vector 831911  Network.dyn_peer[211]  lookupStabilitySig:vector  ETV
vector 831912  Network.dyn_peer[211]  lookupTimeSig:vector  ETV
vector 831619  Network.dyn_peer[114]  lookupHopsSig:vector  ETV
vector 831620  Network.dyn_peer[114]  lookupStabilitySig:vector  ETV
vector 831621  Network.dyn_peer[114]  lookupTimeSig:vector  ETV
vector 831652  Network.dyn_peer[125]  lookupHopsSig:vector  ETV
vector 831653  Network.dyn_peer[125]  lookupStabilitySig:vector  ETV
vector 831654  Network.dyn_peer[125]  lookupTimeSig:vector  ETV
vector 831403  Network.dyn_peer[42]  lookupHopsSig:vector  ETV
vector 831404  Network.dyn_peer[42]  lookupStabilitySig:vector  ETV
vector 831405  Network.dyn_peer[42]  lookupTimeSig:vector  ETV
vector 831409  Network.dyn_peer[44]  lookupHopsSig:vector  ETV
vector 831410  Network.dyn_peer[44]  lookupStabilitySig:vector  ETV
vector 831411  Network.dyn_peer[44]  lookupTimeSig:vector  ETV
vector 831463  Network.dyn_peer[62]  lookupHopsSig:vector  ETV
vector 831464  Network.dyn_peer[62]  lookupStabilitySig:vector  ETV
vector 831465  Network.dyn_peer[62]  lookupTimeSig:vector  ETV
vector 831466  Network.dyn_peer[63]  lookupHopsSig:vector  ETV
vector 831467  Network.dyn_peer[63]  lookupStabilitySig:vector  ETV
vector 831468  Network.dyn_peer[63]  lookupTimeSig:vector  ETV
vector 831487  Network.dyn_peer[70]  lookupHopsSig:vector  ETV
vector 831488  Network.dyn_peer[70]  lookupStabilitySig:vector  ETV
vector 831489  Network.dyn_peer[70]  lookupTimeSig:vector  ETV
vector 831499  Network.dyn_peer[74]  lookupHopsSig:vector  ETV
vector 831500  Network.dyn_peer[74]  lookupStabilitySig:vector  ETV
vector 831501  Network.dyn_peer[74]  lookupTimeSig:vector  ETV
vector 831805  Network.dyn_peer[176]  lookupHopsSig:vector  ETV
vector 831806  Network.dyn_peer[176]  lookupStabilitySig:vector  ETV
vector 831807  Network.dyn_peer[176]  lookupTimeSig:vector  ETV
vector 831514  Network.dyn_peer[79]  lookupHopsSig:vector  ETV
vector 831515  Network.dyn_peer[79]  lookupStabilitySig:vector  ETV
vector 831516  Network.dyn_peer[79]  lookupTimeSig:vector  ETV
vector 831532  Network.dyn_peer[85]  lookupHopsSig:vector  ETV
vector 831533  Network.dyn_peer[85]  lookupStabilitySig:vector  ETV
vector 831534  Network.dyn_peer[85]  lookupTimeSig:vector  ETV
vector 831832  Network.dyn_peer[185]  lookupHopsSig:vector  ETV
vector 831833  Network.dyn_peer[185]  lookupStabilitySig:vector  ETV
vector 831834  Network.dyn_peer[185]  lookupTimeSig:vector  ETV
vector 831544  Network.dyn_peer[89]  lookupHopsSig:vector  ETV
vector 831545  Network.dyn_peer[89]  lookupStabilitySig:vector  ETV
vector 831546  Network.dyn_peer[89]  lookupTimeSig:vector  ETV
vector 832183  Network.dyn_peer[302]  lookupHopsSig:vector  ETV
vector 832184  Network.dyn_peer[302]  lookupStabilitySig:vector  ETV
vector 832185  Network.dyn_peer[302]  lookupTimeSig:vector  ETV
vector 831289  Network.dyn_peer[4]  lookupHopsSig:vector  ETV
vector 831290  Network.dyn_peer[4]  lookupStabilitySig:vector  ETV
vector 831291  Network.dyn_peer[4]  lookupTimeSig:vector  ETV
vector 831889  Network.dyn_peer[204]  lookupHopsSig:vector  ETV
vector 831890  Network.dyn_peer[204]  lookupStabilitySig:vector  ETV
vector 831891  Network.dyn_peer[204]  lookupTimeSig:vector  ETV
vector 832192  Network.dyn_peer[305]  lookupHopsSig:vector  ETV
vector 832193  Network.dyn_peer[305]  lookupStabilitySig:vector  ETV
vector 832194  Network.dyn_peer[305]  lookupTimeSig:vector  ETV
vector 831952  Network.dyn_peer[225]  lookupHopsSig:vector  ETV
vector 831953  Network.dyn_peer[225]  lookupStabilitySig:vector  ETV
vector 831954  Network.dyn_peer[225]  lookupTimeSig:vector  ETV
vector 831964  Network.dyn_peer[229]  lookupHopsSig:vector  ETV
vector 831965  Network.dyn_peer[229]  lookupStabilitySig:vector  ETV
vector 831966  Network.dyn_peer[229]  lookupTimeSig:vector  ETV
vector 831376  Network.dyn_peer[33]  lookupHopsSig:vector  ETV
vector 831377  Network.dyn_peer[33]  lookupStabilitySig:vector  ETV
vector 831378  Network.dyn_peer[33]  lookupTimeSig:vector  ETV
vector 831679  Network.dyn_peer[134]  lookupHopsSig:vector  ETV
vector 831680  Network.dyn_peer[134]  lookupStabilitySig:vector  ETV
vector 831681  Network.dyn_peer[134]  lookupTimeSig:vector  ETV
vector 831682  Network.dyn_peer[135]  lookupHopsSig:vector  ETV
vector 831683  Network.dyn_peer[135]  lookupStabilitySig:vector  ETV
vector 831684  Network.dyn_peer[135]  lookupTimeSig:vector  ETV
vector 831481  Network.dyn_peer[68]  lookupHopsSig:vector  ETV
vector 831482  Network.dyn_peer[68]  lookupStabilitySig:vector  ETV
vector 831483  Network.dyn_peer[68]  lookupTimeSig:vector  ETV
vector 831814  Network.dyn_peer[179]  lookupHopsSig:vector  ETV
vector 831815  Network.dyn_peer[179]  lookupStabilitySig:vector  ETV
vector 831816  Network.dyn_peer[179]  lookupTimeSig:vector  ETV
vector 831520  Network.dyn_peer[81]  lookupHopsSig:vector  ETV
vector 831521  Network.dyn_peer[81]  lookupStabilitySig:vector  ETV
vector 831522  Network.dyn_peer[81]  lookupTimeSig:vector  ETV
vector 831526  Network.dyn_peer[83]  lookupHopsSig:vector  ETV
vector 831527  Network.dyn_peer[83]  lookupStabilitySig:vector  ETV
vector 831528  Network.dyn_peer[83]  lookupTimeSig:vector  ETV
vector 831562  Network.dyn_peer[95]  lookupHopsSig:vector  ETV
vector 831563  Network.dyn_peer[95]  lookupStabilitySig:vector  ETV
vector 831564  Network.dyn_peer[95]  lookupTimeSig:vector  ETV
vector 831277  Network.dyn_peer[0]  lookupHopsSig:vector  ETV
vector 831278  Network.dyn_peer[0]  lookupStabilitySig:vector  ETV
vector 831279  Network.dyn_peer[0]  lookupTimeSig:vector  ETV
vector 831589  Network.dyn_peer[104]  lookupHopsSig:vector  ETV
vector 831590  Network.dyn_peer[104]  lookupStabilitySig:vector  ETV
vector 831591  Network.dyn_peer[104]  lookupTimeSig:vector  ETV
vector 831898  Network.dyn_peer[207]  lookupHopsSig:vector  ETV
vector 831899  Network.dyn_peer[207]  lookupStabilitySig:vector  ETV
vector 831900  Network.dyn_peer[207]  lookupTimeSig:vector  ETV
vector 832201  Network.dyn_peer[308]  lookupHopsSig:vector  ETV
vector 832202  Network.dyn_peer[308]  lookupStabilitySig:vector  ETV
vector 832203  Network.dyn_peer[308]  lookupTimeSig:vector  ETV
vector 831610  Network.dyn_peer[111]  lookupHopsSig:vector  ETV
vector 831611  Network.dyn_peer[111]  lookupStabilitySig:vector  ETV
vector 831612  Network.dyn_peer[111]  lookupTimeSig:vector  ETV
vector 831913  Network.dyn_peer[212]  lookupHopsSig:vector  ETV
vector 831914  Network.dyn_peer[212]  lookupStabilitySig:vector  ETV
vector 831915  Network.dyn_peer[212]  lookupTimeSig:vector  ETV
vector 831319  Network.dyn_peer[14]  lookupHopsSig:vector  ETV
vector 831320  Network.dyn_peer[14]  lookupStabilitySig:vector  ETV
vector 831321  Network.dyn_peer[14]  lookupTimeSig:vector  ETV
vector 831922  Network.dyn_peer[215]  lookupHopsSig:vector  ETV
vector 831923  Network.dyn_peer[215]  lookupStabilitySig:vector  ETV
vector 831924  Network.dyn_peer[215]  lookupTimeSig:vector  ETV
vector 831358  Network.dyn_peer[27]  lookupHopsSig:vector  ETV
vector 831359  Network.dyn_peer[27]  lookupStabilitySig:vector  ETV
vector 831360  Network.dyn_peer[27]  lookupTimeSig:vector  ETV
vector 831664  Network.dyn_peer[129]  lookupHopsSig:vector  ETV
vector 831665  Network.dyn_peer[129]  lookupStabilitySig:vector  ETV
vector 831666  Network.dyn_peer[129]  lookupTimeSig:vector  ETV
vector 831988  Network.dyn_peer[237]  lookupHopsSig:vector  ETV
vector 831989  Network.dyn_peer[237]  lookupStabilitySig:vector  ETV
vector 831990  Network.dyn_peer[237]  lookupTimeSig:vector  ETV
vector 832324  Network.dyn_peer[349]  lookupHopsSig:vector  ETV
vector 832325  Network.dyn_peer[349]  lookupStabilitySig:vector  ETV
vector 832326  Network.dyn_peer[349]  lookupTimeSig:vector  ETV
vector 832069  Network.dyn_peer[264]  lookupHopsSig:vector  ETV
vector 832070  Network.dyn_peer[264]  lookupStabilitySig:vector  ETV
vector 832071  Network.dyn_peer[264]  lookupTimeSig:vector  ETV
vector 832075  Network.dyn_peer[266]  lookupHopsSig:vector  ETV
vector 832076  Network.dyn_peer[266]  lookupStabilitySig:vector  ETV
vector 832077  Network.dyn_peer[266]  lookupTimeSig:vector  ETV
vector 832099  Network.dyn_peer[274]  lookupHopsSig:vector  ETV
vector 832100  Network.dyn_peer[274]  lookupStabilitySig:vector  ETV
vector 832101  Network.dyn_peer[274]  lookupTimeSig:vector  ETV
vector 832717  Network.dyn_peer[480]  lookupHopsSig:vector  ETV
vector 832718  Network.dyn_peer[480]  lookupStabilitySig:vector  ETV
vector 832719  Network.dyn_peer[480]  lookupTimeSig:vector  ETV
vector 832720  Network.dyn_peer[481]  lookupHopsSig:vector  ETV
vector 832721  Network.dyn_peer[481]  lookupStabilitySig:vector  ETV
vector 832722  Network.dyn_peer[481]  lookupTimeSig:vector  ETV
vector 832138  Network.dyn_peer[287]  lookupHopsSig:vector  ETV
vector 832139  Network.dyn_peer[287]  lookupStabilitySig:vector  ETV
vector 832140  Network.dyn_peer[287]  lookupTimeSig:vector  ETV
vector 831859  Network.dyn_peer[194]  lookupHopsSig:vector  ETV
vector 831860  Network.dyn_peer[194]  lookupStabilitySig:vector  ETV
vector 831861  Network.dyn_peer[194]  lookupTimeSig:vector  ETV
vector 832489  Network.dyn_peer[404]  lookupHopsSig:vector  ETV
vector 832490  Network.dyn_peer[404]  lookupStabilitySig:vector  ETV
vector 832491  Network.dyn_peer[404]  lookupTimeSig:vector  ETV
vector 831601  Network.dyn_peer[108]  lookupHopsSig:vector  ETV
vector 831602  Network.dyn_peer[108]  lookupStabilitySig:vector  ETV
vector 831603  Network.dyn_peer[108]  lookupTimeSig:vector  ETV
vector 832243  Network.dyn_peer[322]  lookupHopsSig:vector  ETV
vector 832244  Network.dyn_peer[322]  lookupStabilitySig:vector  ETV
vector 832245  Network.dyn_peer[322]  lookupTimeSig:vector  ETV
vector 831658  Network.dyn_peer[127]  lookupHopsSig:vector  ETV
vector 831659  Network.dyn_peer[127]  lookupStabilitySig:vector  ETV
vector 831660  Network.dyn_peer[127]  lookupTimeSig:vector  ETV
vector 832261  Network.dyn_peer[328]  lookupHopsSig:vector  ETV
vector 832262  Network.dyn_peer[328]  lookupStabilitySig:vector  ETV
vector 832263  Network.dyn_peer[328]  lookupTimeSig:vector  ETV
vector 832570  Network.dyn_peer[431]  lookupHopsSig:vector  ETV
vector 832571  Network.dyn_peer[431]  lookupStabilitySig:vector  ETV
vector 832572  Network.dyn_peer[431]  lookupTimeSig:vector  ETV
vector 831685  Network.dyn_peer[136]  lookupHopsSig:vector  ETV
vector 831686  Network.dyn_peer[136]  lookupStabilitySig:vector  ETV
vector 831687  Network.dyn_peer[136]  lookupTimeSig:vector  ETV
vector 831994  Network.dyn_peer[239]  lookupHopsSig:vector  ETV
vector 831995  Network.dyn_peer[239]  lookupStabilitySig:vector  ETV
vector 831996  Network.dyn_peer[239]  lookupTimeSig:vector  ETV
vector 832615  Network.dyn_peer[446]  lookupHopsSig:vector  ETV
vector 832616  Network.dyn_peer[446]  lookupStabilitySig:vector  ETV
vector 832617  Network.dyn_peer[446]  lookupTimeSig:vector  ETV
vector 832048  Network.dyn_peer[257]  lookupHopsSig:vector  ETV
vector 832049  Network.dyn_peer[257]  lookupStabilitySig:vector  ETV
vector 832050  Network.dyn_peer[257]  lookupTimeSig:vector  ETV
vector 832348  Network.dyn_peer[357]  lookupHopsSig:vector  ETV
vector 832349  Network.dyn_peer[357]  lookupStabilitySig:vector  ETV
vector 832350  Network.dyn_peer[357]  lookupTimeSig:vector  ETV
vector 832351  Network.dyn_peer[358]  lookupHopsSig:vector  ETV
vector 832352  Network.dyn_peer[358]  lookupStabilitySig:vector  ETV
vector 832353  Network.dyn_peer[358]  lookupTimeSig:vector  ETV
vector 832054  Network.dyn_peer[259]  lookupHopsSig:vector  ETV
vector 832055  Network.dyn_peer[259]  lookupStabilitySig:vector  ETV
vector 832056  Network.dyn_peer[259]  lookupTimeSig:vector  ETV
vector 832363  Network.dyn_peer[362]  lookupHopsSig:vector  ETV
vector 832364  Network.dyn_peer[362]  lookupStabilitySig:vector  ETV
vector 832365  Network.dyn_peer[362]  lookupTimeSig:vector  ETV
vector 831508  Network.dyn_peer[77]  lookupHopsSig:vector  ETV
vector 831509  Network.dyn_peer[77]  lookupStabilitySig:vector  ETV
vector 831510  Network.dyn_peer[77]  lookupTimeSig:vector  ETV
vector 832108  Network.dyn_peer[277]  lookupHopsSig:vector  ETV
vector 832109  Network.dyn_peer[277]  lookupStabilitySig:vector  ETV
vector 832110  Network.dyn_peer[277]  lookupTimeSig:vector  ETV
vector 832123  Network.dyn_peer[282]  lookupHopsSig:vector  ETV
vector 832124  Network.dyn_peer[282]  lookupStabilitySig:vector  ETV
vector 832125  Network.dyn_peer[282]  lookupTimeSig:vector  ETV
vector 831529  Network.dyn_peer[84]  lookupHopsSig:vector  ETV
vector 831530  Network.dyn_peer[84]  lookupStabilitySig:vector  ETV
vector 831531  Network.dyn_peer[84]  lookupTimeSig:vector  ETV
vector 831850  Network.dyn_peer[191]  lookupHopsSig:vector  ETV
vector 831851  Network.dyn_peer[191]  lookupStabilitySig:vector  ETV
vector 831852  Network.dyn_peer[191]  lookupTimeSig:vector  ETV
vector 832750  Network.dyn_peer[491]  lookupHopsSig:vector  ETV
vector 832751  Network.dyn_peer[491]  lookupStabilitySig:vector  ETV
vector 832752  Network.dyn_peer[491]  lookupTimeSig:vector  ETV
vector 831856  Network.dyn_peer[193]  lookupHopsSig:vector  ETV
vector 831857  Network.dyn_peer[193]  lookupStabilitySig:vector  ETV
vector 831858  Network.dyn_peer[193]  lookupTimeSig:vector  ETV
vector 832159  Network.dyn_peer[294]  lookupHopsSig:vector  ETV
vector 832160  Network.dyn_peer[294]  lookupStabilitySig:vector  ETV
vector 832161  Network.dyn_peer[294]  lookupTimeSig:vector  ETV
vector 832468  Network.dyn_peer[397]  lookupHopsSig:vector  ETV
vector 832469  Network.dyn_peer[397]  lookupStabilitySig:vector  ETV
vector 832470  Network.dyn_peer[397]  lookupTimeSig:vector  ETV
vector 831292  Network.dyn_peer[5]  lookupHopsSig:vector  ETV
vector 831293  Network.dyn_peer[5]  lookupStabilitySig:vector  ETV
vector 831294  Network.dyn_peer[5]  lookupTimeSig:vector  ETV
vector 832267  Network.dyn_peer[330]  lookupHopsSig:vector  ETV
vector 832268  Network.dyn_peer[330]  lookupStabilitySig:vector  ETV
vector 832269  Network.dyn_peer[330]  lookupTimeSig:vector  ETV
vector 832591  Network.dyn_peer[438]  lookupHopsSig:vector  ETV
vector 832592  Network.dyn_peer[438]  lookupStabilitySig:vector  ETV
vector 832593  Network.dyn_peer[438]  lookupTimeSig:vector  ETV
vector 832315  Network.dyn_peer[346]  lookupHopsSig:vector  ETV
vector 832316  Network.dyn_peer[346]  lookupStabilitySig:vector  ETV
vector 832317  Network.dyn_peer[346]  lookupTimeSig:vector  ETV
vector 831430  Network.dyn_peer[51]  lookupHopsSig:vector  ETV
vector 831431  Network.dyn_peer[51]  lookupStabilitySig:vector  ETV
vector 831432  Network.dyn_peer[51]  lookupTimeSig:vector  ETV
vector 832330  Network.dyn_peer[351]  lookupHopsSig:vector  ETV
vector 832331  Network.dyn_peer[351]  lookupStabilitySig:vector  ETV
vector 832332  Network.dyn_peer[351]  lookupTimeSig:vector  ETV
vector 832645  Network.dyn_peer[456]  lookupHopsSig:vector  ETV
vector 832646  Network.dyn_peer[456]  lookupStabilitySig:vector  ETV
vector 832647  Network.dyn_peer[456]  lookupTimeSig:vector  ETV
vector 831478  Network.dyn_peer[67]  lookupHopsSig:vector  ETV
vector 831479  Network.dyn_peer[67]  lookupStabilitySig:vector  ETV
vector 831480  Network.dyn_peer[67]  lookupTimeSig:vector  ETV
vector 832129  Network.dyn_peer[284]  lookupHopsSig:vector  ETV
vector 832130  Network.dyn_peer[284]  lookupStabilitySig:vector  ETV
vector 832131  Network.dyn_peer[284]  lookupTimeSig:vector  ETV
vector 831568  Network.dyn_peer[97]  lookupHopsSig:vector  ETV
vector 831569  Network.dyn_peer[97]  lookupStabilitySig:vector  ETV
vector 831570  Network.dyn_peer[97]  lookupTimeSig:vector  ETV
vector 831877  Network.dyn_peer[200]  lookupHopsSig:vector  ETV
vector 831878  Network.dyn_peer[200]  lookupStabilitySig:vector  ETV
vector 831879  Network.dyn_peer[200]  lookupTimeSig:vector  ETV
vector 832177  Network.dyn_peer[300]  lookupHopsSig:vector  ETV
vector 832178  Network.dyn_peer[300]  lookupStabilitySig:vector  ETV
vector 832179  Network.dyn_peer[300]  lookupTimeSig:vector  ETV
vector 831919  Network.dyn_peer[214]  lookupHopsSig:vector  ETV
vector 831920  Network.dyn_peer[214]  lookupStabilitySig:vector  ETV
vector 831921  Network.dyn_peer[214]  lookupTimeSig:vector  ETV
vector 831325  Network.dyn_peer[16]  lookupHopsSig:vector  ETV
vector 831326  Network.dyn_peer[16]  lookupStabilitySig:vector  ETV
vector 831327  Network.dyn_peer[16]  lookupTimeSig:vector  ETV
vector 831328  Network.dyn_peer[17]  lookupHopsSig:vector  ETV
vector 831329  Network.dyn_peer[17]  lookupStabilitySig:vector  ETV
vector 831330  Network.dyn_peer[17]  lookupTimeSig:vector  ETV
vector 832528  Network.dyn_peer[417]  lookupHopsSig:vector  ETV
vector 832529  Network.dyn_peer[417]  lookupStabilitySig:vector  ETV
vector 832530  Network.dyn_peer[417]  lookupTimeSig:vector  ETV
vector 831634  Network.dyn_peer[119]  lookupHopsSig:vector  ETV
vector 831635  Network.dyn_peer[119]  lookupStabilitySig:vector  ETV
vector 831636  Network.dyn_peer[119]  lookupTimeSig:vector  ETV
vector 831346  Network.dyn_peer[23]  lookupHopsSig:vector  ETV
vector 831347  Network.dyn_peer[23]  lookupStabilitySig:vector  ETV
vector 831348  Network.dyn_peer[23]  lookupTimeSig:vector  ETV
vector 832294  Network.dyn_peer[339]  lookupHopsSig:vector  ETV
vector 832295  Network.dyn_peer[339]  lookupStabilitySig:vector  ETV
vector 832296  Network.dyn_peer[339]  lookupTimeSig:vector  ETV
vector 832300  Network.dyn_peer[341]  lookupHopsSig:vector  ETV
vector 832301  Network.dyn_peer[341]  lookupStabilitySig:vector  ETV
vector 832302  Network.dyn_peer[341]  lookupTimeSig:vector  ETV
vector 832303  Network.dyn_peer[342]  lookupHopsSig:vector  ETV
vector 832304  Network.dyn_peer[342]  lookupStabilitySig:vector  ETV
vector 832305  Network.dyn_peer[342]  lookupTimeSig:vector  ETV
vector 832309  Network.dyn_peer[344]  lookupHopsSig:vector  ETV
vector 832310  Network.dyn_peer[344]  lookupStabilitySig:vector  ETV
vector 832311  Network.dyn_peer[344]  lookupTimeSig:vector  ETV
vector 831469  Network.dyn_peer[64]  lookupHopsSig:vector  ETV
vector 831470  Network.dyn_peer[64]  lookupStabilitySig:vector  ETV
vector 831471  Network.dyn_peer[64]  lookupTimeSig:vector  ETV
vector 831769  Network.dyn_peer[164]  lookupHopsSig:vector  ETV
vector 831770  Network.dyn_peer[164]  lookupStabilitySig:vector  ETV
vector 831771  Network.dyn_peer[164]  lookupTimeSig:vector  ETV
vector 832381  Network.dyn_peer[368]  lookupHopsSig:vector  ETV
vector 832382  Network.dyn_peer[368]  lookupStabilitySig:vector  ETV
vector 832383  Network.dyn_peer[368]  lookupTimeSig:vector  ETV
vector 832393  Network.dyn_peer[372]  lookupHopsSig:vector  ETV
vector 832394  Network.dyn_peer[372]  lookupStabilitySig:vector  ETV
vector 832395  Network.dyn_peer[372]  lookupTimeSig:vector  ETV
vector 832420  Network.dyn_peer[381]  lookupHopsSig:vector  ETV
vector 832421  Network.dyn_peer[381]  lookupStabilitySig:vector  ETV
vector 832422  Network.dyn_peer[381]  lookupTimeSig:vector  ETV
vector 832432  Network.dyn_peer[385]  lookupHopsSig:vector  ETV
vector 832433  Network.dyn_peer[385]  lookupStabilitySig:vector  ETV
vector 832434  Network.dyn_peer[385]  lookupTimeSig:vector  ETV
vector 831865  Network.dyn_peer[196]  lookupHopsSig:vector  ETV
vector 831866  Network.dyn_peer[196]  lookupStabilitySig:vector  ETV
vector 831867  Network.dyn_peer[196]  lookupTimeSig:vector  ETV
vector 831871  Network.dyn_peer[198]  lookupHopsSig:vector  ETV
vector 831872  Network.dyn_peer[198]  lookupStabilitySig:vector  ETV
vector 831873  Network.dyn_peer[198]  lookupTimeSig:vector  ETV
vector 832498  Network.dyn_peer[407]  lookupHopsSig:vector  ETV
vector 832499  Network.dyn_peer[407]  lookupStabilitySig:vector  ETV
vector 832500  Network.dyn_peer[407]  lookupTimeSig:vector  ETV
vector 831604  Network.dyn_peer[109]  lookupHopsSig:vector  ETV
vector 831605  Network.dyn_peer[109]  lookupStabilitySig:vector  ETV
vector 831606  Network.dyn_peer[109]  lookupTimeSig:vector  ETV
vector 832216  Network.dyn_peer[313]  lookupHopsSig:vector  ETV
vector 832217  Network.dyn_peer[313]  lookupStabilitySig:vector  ETV
vector 832218  Network.dyn_peer[313]  lookupTimeSig:vector  ETV
vector 832234  Network.dyn_peer[319]  lookupHopsSig:vector  ETV
vector 832235  Network.dyn_peer[319]  lookupStabilitySig:vector  ETV
vector 832236  Network.dyn_peer[319]  lookupTimeSig:vector  ETV
vector 832552  Network.dyn_peer[425]  lookupHopsSig:vector  ETV
vector 832553  Network.dyn_peer[425]  lookupStabilitySig:vector  ETV
vector 832554  Network.dyn_peer[425]  lookupTimeSig:vector  ETV
vector 832291  Network.dyn_peer[338]  lookupHopsSig:vector  ETV
vector 832292  Network.dyn_peer[338]  lookupStabilitySig:vector  ETV
vector 832293  Network.dyn_peer[338]  lookupTimeSig:vector  ETV
vector 831406  Network.dyn_peer[43]  lookupHopsSig:vector  ETV
vector 831407  Network.dyn_peer[43]  lookupStabilitySig:vector  ETV
vector 831408  Network.dyn_peer[43]  lookupTimeSig:vector  ETV
vector 831706  Network.dyn_peer[143]  lookupHopsSig:vector  ETV
vector 831707  Network.dyn_peer[143]  lookupStabilitySig:vector  ETV
vector 831708  Network.dyn_peer[143]  lookupTimeSig:vector  ETV
vector 831418  Network.dyn_peer[47]  lookupHopsSig:vector  ETV
vector 831419  Network.dyn_peer[47]  lookupStabilitySig:vector  ETV
vector 831420  Network.dyn_peer[47]  lookupTimeSig:vector  ETV
vector 832321  Network.dyn_peer[348]  lookupHopsSig:vector  ETV
vector 832322  Network.dyn_peer[348]  lookupStabilitySig:vector  ETV
vector 832323  Network.dyn_peer[348]  lookupTimeSig:vector  ETV
vector 831736  Network.dyn_peer[153]  lookupHopsSig:vector  ETV
vector 831737  Network.dyn_peer[153]  lookupStabilitySig:vector  ETV
vector 831738  Network.dyn_peer[153]  lookupTimeSig:vector  ETV
vector 831472  Network.dyn_peer[65]  lookupHopsSig:vector  ETV
vector 831473  Network.dyn_peer[65]  lookupStabilitySig:vector  ETV
vector 831474  Network.dyn_peer[65]  lookupTimeSig:vector  ETV
vector 832426  Network.dyn_peer[383]  lookupHopsSig:vector  ETV
vector 832427  Network.dyn_peer[383]  lookupStabilitySig:vector  ETV
vector 832428  Network.dyn_peer[383]  lookupTimeSig:vector  ETV
vector 831838  Network.dyn_peer[187]  lookupHopsSig:vector  ETV
vector 831839  Network.dyn_peer[187]  lookupStabilitySig:vector  ETV
vector 831840  Network.dyn_peer[187]  lookupTimeSig:vector  ETV
vector 831280  Network.dyn_peer[1]  lookupHopsSig:vector  ETV
vector 831281  Network.dyn_peer[1]  lookupStabilitySig:vector  ETV
vector 831282  Network.dyn_peer[1]  lookupTimeSig:vector  ETV
vector 831586  Network.dyn_peer[103]  lookupHopsSig:vector  ETV
vector 831587  Network.dyn_peer[103]  lookupStabilitySig:vector  ETV
vector 831588  Network.dyn_peer[103]  lookupTimeSig:vector  ETV
vector 831592  Network.dyn_peer[105]  lookupHopsSig:vector  ETV
vector 831593  Network.dyn_peer[105]  lookupStabilitySig:vector  ETV
vector 831594  Network.dyn_peer[105]  lookupTimeSig:vector  ETV
vector 832195  Network.dyn_peer[306]  lookupHopsSig:vector  ETV
vector 832196  Network.dyn_peer[306]  lookupStabilitySig:vector  ETV
vector 832197  Network.dyn_peer[306]  lookupTimeSig:vector  ETV
vector 832210  Network.dyn_peer[311]  lookupHopsSig:vector  ETV
vector 832211  Network.dyn_peer[311]  lookupStabilitySig:vector  ETV
vector 832212  Network.dyn_peer[311]  lookupTimeSig:vector  ETV
vector 832237  Network.dyn_peer[320]  lookupHopsSig:vector  ETV
vector 832238  Network.dyn_peer[320]  lookupStabilitySig:vector  ETV
vector 832239  Network.dyn_peer[320]  lookupTimeSig:vector  ETV
vector 832246  Network.dyn_peer[323]  lookupHopsSig:vector  ETV
vector 832247  Network.dyn_peer[323]  lookupStabilitySig:vector  ETV
vector 832248  Network.dyn_peer[323]  lookupTimeSig:vector  ETV
vector 831649  Network.dyn_peer[124]  lookupHopsSig:vector  ETV
vector 831650  Network.dyn_peer[124]  lookupStabilitySig:vector  ETV
vector 831651  Network.dyn_peer[124]  lookupTimeSig:vector  ETV
vector 831958  Network.dyn_peer[227]  lookupHopsSig:vector  ETV
vector 831959  Network.dyn_peer[227]  lookupStabilitySig:vector  ETV
vector 831960  Network.dyn_peer[227]  lookupTimeSig:vector  ETV
vector 831394  Network.dyn_peer[39]  lookupHopsSig:vector  ETV
vector 831395  Network.dyn_peer[39]  lookupStabilitySig:vector  ETV
vector 831396  Network.dyn_peer[39]  lookupTimeSig:vector  ETV
vector 832033  Network.dyn_peer[252]  lookupHopsSig:vector  ETV
vector 832034  Network.dyn_peer[252]  lookupStabilitySig:vector  ETV
vector 832035  Network.dyn_peer[252]  lookupTimeSig:vector  ETV
vector 831436  Network.dyn_peer[53]  lookupHopsSig:vector  ETV
vector 831437  Network.dyn_peer[53]  lookupStabilitySig:vector  ETV
vector 831438  Network.dyn_peer[53]  lookupTimeSig:vector  ETV
vector 832639  Network.dyn_peer[454]  lookupHopsSig:vector  ETV
vector 832640  Network.dyn_peer[454]  lookupStabilitySig:vector  ETV
vector 832641  Network.dyn_peer[454]  lookupTimeSig:vector  ETV
vector 831484  Network.dyn_peer[69]  lookupHopsSig:vector  ETV
vector 831485  Network.dyn_peer[69]  lookupStabilitySig:vector  ETV
vector 831486  Network.dyn_peer[69]  lookupTimeSig:vector  ETV
vector 832423  Network.dyn_peer[382]  lookupHopsSig:vector  ETV
vector 832424  Network.dyn_peer[382]  lookupStabilitySig:vector  ETV
vector 832425  Network.dyn_peer[382]  lookupTimeSig:vector  ETV
vector 831841  Network.dyn_peer[188]  lookupHopsSig:vector  ETV
vector 831842  Network.dyn_peer[188]  lookupStabilitySig:vector  ETV
vector 831843  Network.dyn_peer[188]  lookupTimeSig:vector  ETV
vector 832150  Network.dyn_peer[291]  lookupHopsSig:vector  ETV
vector 832151  Network.dyn_peer[291]  lookupStabilitySig:vector  ETV