version 2
run Stability2-138-20130526-00:51:49-26640
attr configname Stability2
attr datetime 20130526-00:51:49
attr experiment Stability2
attr inifile omnetpp.ini
attr iterationvars $0=50
attr iterationvars2 "$0=50, $repetition=18"
attr measurement $0=50
attr network Network
attr processid 26640
attr repetition 18
attr replication #18
attr resultdir results
attr runnumber 138
attr seedset 138

vector 417138  Network.churner  inGoingSizeSig:vector  ETV
vector 414165  Network.dyn_peer[9]  lookupHopsSig:vector  ETV
vector 414166  Network.dyn_peer[9]  lookupStabilitySig:vector  ETV
vector 414167  Network.dyn_peer[9]  lookupTimeSig:vector  ETV
vector 414189  Network.dyn_peer[17]  lookupHopsSig:vector  ETV
vector 414190  Network.dyn_peer[17]  lookupStabilitySig:vector  ETV
vector 414191  Network.dyn_peer[17]  lookupTimeSig:vector  ETV
vector 414204  Network.dyn_peer[22]  lookupHopsSig:vector  ETV
vector 414205  Network.dyn_peer[22]  lookupStabilitySig:vector  ETV
vector 414206  Network.dyn_peer[22]  lookupTimeSig:vector  ETV
vector 414246  Network.dyn_peer[36]  lookupHopsSig:vector  ETV
vector 414247  Network.dyn_peer[36]  lookupStabilitySig:vector  ETV
vector 414248  Network.dyn_peer[36]  lookupTimeSig:vector  ETV
vector 414258  Network.dyn_peer[40]  lookupHopsSig:vector  ETV
vector 414259  Network.dyn_peer[40]  lookupStabilitySig:vector  ETV
vector 414260  Network.dyn_peer[40]  lookupTimeSig:vector  ETV
vector 414267  Network.dyn_peer[43]  lookupHopsSig:vector  ETV
vector 414268  Network.dyn_peer[43]  lookupStabilitySig:vector  ETV
vector 414269  Network.dyn_peer[43]  lookupTimeSig:vector  ETV
vector 414144  Network.dyn_peer[2]  lookupHopsSig:vector  ETV
vector 414145  Network.dyn_peer[2]  lookupStabilitySig:vector  ETV
vector 414146  Network.dyn_peer[2]  lookupTimeSig:vector  ETV
vector 414162  Network.dyn_peer[8]  lookupHopsSig:vector  ETV
vector 414163  Network.dyn_peer[8]  lookupStabilitySig:vector  ETV
vector 414164  Network.dyn_peer[8]  lookupTimeSig:vector  ETV
vector 414201  Network.dyn_peer[21]  lookupHopsSig:vector  ETV
vector 414202  Network.dyn_peer[21]  lookupStabilitySig:vector  ETV
vector 414203  Network.dyn_peer[21]  lookupTimeSig:vector  ETV
vector 414216  Network.dyn_peer[26]  lookupHopsSig:vector  ETV
vector 414217  Network.dyn_peer[26]  lookupStabilitySig:vector  ETV
vector 414218  Network.dyn_peer[26]  lookupTimeSig:vector  ETV
vector 414222  Network.dyn_peer[28]  lookupHopsSig:vector  ETV
vector 414223  Network.dyn_peer[28]  lookupStabilitySig:vector  ETV
vector 414224  Network.dyn_peer[28]  lookupTimeSig:vector  ETV
vector 414249  Network.dyn_peer[37]  lookupHopsSig:vector  ETV
vector 414250  Network.dyn_peer[37]  lookupStabilitySig:vector  ETV
vector 414251  Network.dyn_peer[37]  lookupTimeSig:vector  ETV
vector 414273  Network.dyn_peer[45]  lookupHopsSig:vector  ETV
vector 414274  Network.dyn_peer[45]  lookupStabilitySig:vector  ETV
vector 414275  Network.dyn_peer[45]  lookupTimeSig:vector  ETV
vector 414279  Network.dyn_peer[47]  lookupHopsSig:vector  ETV
vector 414280  Network.dyn_peer[47]  lookupStabilitySig:vector  ETV
vector 414281  Network.dyn_peer[47]  lookupTimeSig:vector  ETV
vector 414147  Network.dyn_peer[3]  lookupHopsSig:vector  ETV
vector 414148  Network.dyn_peer[3]  lookupStabilitySig:vector  ETV
vector 414149  Network.dyn_peer[3]  lookupTimeSig:vector  ETV
vector 414153  Network.dyn_peer[5]  lookupHopsSig:vector  ETV
vector 414154  Network.dyn_peer[5]  lookupStabilitySig:vector  ETV
vector 414155  Network.dyn_peer[5]  lookupTimeSig:vector  ETV
vector 414159  Network.dyn_peer[7]  lookupHopsSig:vector  ETV
vector 414160  Network.dyn_peer[7]  lookupStabilitySig:vector  ETV
vector 414161  Network.dyn_peer[7]  lookupTimeSig:vector  ETV
vector 414186  Network.dyn_peer[16]  lookupHopsSig:vector  ETV
vector 414187  Network.dyn_peer[16]  lookupStabilitySig:vector  ETV
vector 414188  Network.dyn_peer[16]  lookupTimeSig:vector  ETV
vector 414252  Network.dyn_peer[38]  lookupHopsSig:vector  ETV
vector 414253  Network.dyn_peer[38]  lookupStabilitySig:vector  ETV
vector 414254  Network.dyn_peer[38]  lookupTimeSig:vector  ETV
vector 414255  Network.dyn_peer[39]  lookupHopsSig:vector  ETV
vector 414256  Network.dyn_peer[39]  lookupStabilitySig:vector  ETV
vector 414257  Network.dyn_peer[39]  lookupTimeSig:vector  ETV
vector 414141  Network.dyn_peer[1]  lookupHopsSig:vector  ETV
vector 414142  Network.dyn_peer[1]  lookupStabilitySig:vector  ETV
vector 414143  Network.dyn_peer[1]  lookupTimeSig:vector  ETV
vector 414156  Network.dyn_peer[6]  lookupHopsSig:vector  ETV
vector 414157  Network.dyn_peer[6]  lookupStabilitySig:vector  ETV
vector 414158  Network.dyn_peer[6]  lookupTimeSig:vector  ETV
vector 414174  Network.dyn_peer[12]  lookupHopsSig:vector  ETV
vector 414175  Network.dyn_peer[12]  lookupStabilitySig:vector  ETV
vector 414176  Network.dyn_peer[12]  lookupTimeSig:vector  ETV
vector 414237  Network.dyn_peer[33]  lookupHopsSig:vector  ETV
vector 414238  Network.dyn_peer[33]  lookupStabilitySig:vector  ETV
vector 414239  Network.dyn_peer[33]  lookupTimeSig:vector  ETV
vector 414264  Network.dyn_peer[42]  lookupHopsSig:vector  ETV
vector 414265  Network.dyn_peer[42]  lookupStabilitySig:vector  ETV
vector 414266  Network.dyn_peer[42]  lookupTimeSig:vector  ETV
vector 414168  Network.dyn_peer[10]  lookupHopsSig:vector  ETV
vector 414169  Network.dyn_peer[10]  lookupStabilitySig:vector  ETV
vector 414170  Network.dyn_peer[10]  lookupTimeSig:vector  ETV
vector 414171  Network.dyn_peer[11]  lookupHopsSig:vector  ETV
vector 414172  Network.dyn_peer[11]  lookupStabilitySig:vector  ETV
vector 414173  Network.dyn_peer[11]  lookupTimeSig:vector  ETV
vector 414177  Network.dyn_peer[13]  lookupHopsSig:vector  ETV
vector 414178  Network.dyn_peer[13]  lookupStabilitySig:vector  ETV
vector 414179  Network.dyn_peer[13]  lookupTimeSig:vector  ETV
vector 414180  Network.dyn_peer[14]  lookupHopsSig:vector  ETV
vector 414181  Network.dyn_peer[14]  lookupStabilitySig:vector  ETV
vector 414182  Network.dyn_peer[14]  lookupTimeSig:vector  ETV
vector 414183  Network.dyn_peer[15]  lookupHopsSig:vector  ETV
vector 414184  Network.dyn_peer[15]  lookupStabilitySig:vector  ETV
vector 414185  Network.dyn_peer[15]  lookupTimeSig:vector  ETV
vector 414207  Network.dyn_peer[23]  lookupHopsSig:vector  ETV
vector 414208  Network.dyn_peer[23]  lookupStabilitySig:vector  ETV
vector 414209  Network.dyn_peer[23]  lookupTimeSig:vector  ETV
vector 414225  Network.dyn_peer[29]  lookupHopsSig:vector  ETV
vector 414226  Network.dyn_peer[29]  lookupStabilitySig:vector  ETV
vector 414227  Network.dyn_peer[29]  lookupTimeSig:vector  ETV
vector 414276  Network.dyn_peer[46]  lookupHopsSig:vector  ETV
vector 414277  Network.dyn_peer[46]  lookupStabilitySig:vector  ETV
vector 414278  Network.dyn_peer[46]  lookupTimeSig:vector  ETV
vector 414138  Network.dyn_peer[0]  lookupHopsSig:vector  ETV
vector 414139  Network.dyn_peer[0]  lookupStabilitySig:vector  ETV
vector 414140  Network.dyn_peer[0]  lookupTimeSig:vector  ETV
vector 414195  Network.dyn_peer[19]  lookupHopsSig:vector  ETV
vector 414196  Network.dyn_peer[19]  lookupStabilitySig:vector  ETV
vector 414197  Network.dyn_peer[19]  lookupTimeSig:vector  ETV
vector 414261  Network.dyn_peer[41]  lookupHopsSig:vector  ETV
vector 414262  Network.dyn_peer[41]  lookupStabilitySig:vector  ETV
vector 414263  Network.dyn_peer[41]  lookupTimeSig:vector  ETV
vector 414150  Network.dyn_peer[4]  lookupHopsSig:vector  ETV
vector 414151  Network.dyn_peer[4]  lookupStabilitySig:vector  ETV
vector 414152  Network.dyn_peer[4]  lookupTimeSig:vector  ETV
vector 414198  Network.dyn_peer[20]  lookupHopsSig:vector  ETV
vector 414199  Network.dyn_peer[20]  lookupStabilitySig:vector  ETV
vector 414200  Network.dyn_peer[20]  lookupTimeSig:vector  ETV
vector 414231  Network.dyn_peer[31]  lookupHopsSig:vector  ETV
vector 414232  Network.dyn_peer[31]  lookupStabilitySig:vector  ETV
vector 414233  Network.dyn_peer[31]  lookupTimeSig:vector  ETV
vector 414282  Network.dyn_peer[48]  lookupHopsSig:vector  ETV
vector 414283  Network.dyn_peer[48]  lookupStabilitySig:vector  ETV
vector 414284  Network.dyn_peer[48]  lookupTimeSig:vector  ETV
vector 414228  Network.dyn_peer[30]  lookupHopsSig:vector  ETV
vector 414229  Network.dyn_peer[30]  lookupStabilitySig:vector  ETV
vector 414230  Network.dyn_peer[30]  lookupTimeSig:vector  ETV
vector 414240  Network.dyn_peer[34]  lookupHopsSig:vector  ETV
vector 414241  Network.dyn_peer[34]  lookupStabilitySig:vector  ETV
vector 414242  Network.dyn_peer[34]  lookupTimeSig:vector  ETV
vector 414270  Network.dyn_peer[44]  lookupHopsSig:vector  ETV
vector 414271  Network.dyn_peer[44]  lookupStabilitySig:vector  ETV
vector 414272  Network.dyn_peer[44]  lookupTimeSig:vector  ETV
vector 414285  Network.dyn_peer[49]  lookupHopsSig:vector  ETV
vector 414286  Network.dyn_peer[49]  lookupStabilitySig:vector  ETV
vector 414287  Network.dyn_peer[49]  lookupTimeSig:vector  ETV
vector 414219  Network.dyn_peer[27]  lookupHopsSig:vector  ETV
vector 414220  Network.dyn_peer[27]  lookupStabilitySig:vector  ETV
vector 414221  Network.dyn_peer[27]  lookupTimeSig:vector  ETV
vector 414243  Network.dyn_peer[35]  lookupHopsSig:vector  ETV
vector 414244  Network.dyn_peer[35]  lookupStabilitySig:vector  ETV
vector 414245  Network.dyn_peer[35]  lookupTimeSig:vector  ETV
vector 414234  Network.dyn_peer[32]  lookupHopsSig:vector  ETV
vector 414235  Network.dyn_peer[32]  lookupStabilitySig:vector  ETV
vector 414236  Network.dyn_peer[32]  lookupTimeSig:vector  ETV
vector 414210  Network.dyn_peer[24]  lookupHopsSig:vector  ETV
vector 414211  Network.dyn_peer[24]  lookupStabilitySig:vector  ETV
vector 414212  Network.dyn_peer[24]  lookupTimeSig:vector  ETV
vector 414192  Network.dyn_peer[18]  lookupHopsSig:vector  ETV
vector 414193  Network.dyn_peer[18]  lookupStabilitySig:vector  ETV
vector 414194  Network.dyn_peer[18]  lookupTimeSig:vector  ETV
vector 414213  Network.dyn_peer[25]  lookupHopsSig:vector  ETV
vector 414214  Network.dyn_peer[25]  lookupStabilitySig:vector  ETV
vector 414215  Network.dyn_peer[25]  lookupTimeSig:vector  ETV
414138	555	20.501	5
414138	917	21.001	4
414138	1396	21.709860181998	6
414138	1516	21.911198460807	1
414139	555	20.501	0
414139	917	21.001	0.5
414139	1396	21.709860181998	0.73913043737411
414139	1516	21.911198460807	0.96153846010566
414140	555	20.501	0.5
414140	917	21.001	0.5
414140	1396	21.709860181998	0.7
414140	1516	21.911198460807	0.2
414141	382	20.302	3
414141	778	20.802	4
414141	927	21.011203179734	1
414141	1172	21.322763325883	2
414142	382	20.302	0.39999997615814
414142	778	20.802	0.33333331346512
414142	927	21.011203179734	0.875
414142	1172	21.322763325883	0.83333332836628
414143	382	20.302	0.3
414143	778	20.802	0.5
414143	927	21.011203179734	0.2
414143	1172	21.322763325883	0.3
414144	209	20.103	1
414144	787	20.810823005201	6
414144	1028	21.12493740264	2
414144	1252	21.432920718105	2
414145	209	20.103	0.79999999701977
414145	787	20.810823005201	0
414145	1028	21.12493740264	0.77777777612209
414145	1252	21.432920718105	0.86666665971279
414146	209	20.103	0.1
414146	787	20.810823005201	0.7
414146	1028	21.12493740264	0.3
414146	1252	21.432920718105	0.3
414147	300	20.204	2
414147	919	21.004	7
414147	1292	21.506433385902	4
414147	1719	22.411548783041	8
414147	1827	22.817705093305	3
414147	1928	23.324608142354	4
414147	1971	23.527514541627	1
414147	2005	23.736143953346	1
414148	300	20.204	0.59999999403954
414148	919	21.004	0.125
414148	1292	21.506433385902	0.77777777612209
414148	1719	22.411548783041	0.77142857015133
414148	1827	22.817705093305	0.92682927101851
414148	1928	23.324608142354	0.90697674453259
414148	1971	23.527514541627	0.9772727265954
414148	2005	23.736143953346	0.97777777723968
414149	300	20.204	0.2
414149	919	21.004	0.8
414149	1292	21.506433385902	0.5
414149	1719	22.411548783041	0.9
414149	1827	22.817705093305	0.4
414149	1928	23.324608142354	0.5
414149	1971	23.527514541627	0.2
414149	2005	23.736143953346	0.2
414150	629	20.605	6
414150	1152	21.305	6
414150	1724	22.414473588895	10
414151	629	20.605	-0.20000004768372
414151	1152	21.305	0.45454543828964
414151	1724	22.414473588895	0.71428570151329
414152	629	20.605	0.6
414152	1152	21.305	0.7
414152	1724	22.414473588895	1.1
414153	306	20.206	2
414153	783	20.806	5
414153	1068	21.150933271176	2
414153	1510	21.859967542353	6
414154	306	20.206	0.59999999403954
414154	783	20.806	0.16666668653488
414154	1068	21.150933271176	0.79999999701977
414154	1510	21.859967542353	0.76923076808453
414155	306	20.206	0.2
414155	783	20.806	0.6
414155	1068	21.150933271176	0.3
414155	1510	21.859967542353	0.7
414156	390	20.307	3
414156	923	21.007	6
414156	1560	22.013399061293	9
414156	1721	22.413508211418	3
414157	390	20.307	0.39999997615814
414157	923	21.007	0.25
414157	1560	22.013399061293	0.6785714328289
414157	1721	22.413508211418	0.9142857119441
414158	390	20.307	0.3
414158	923	21.007	0.7
414158	1560	22.013399061293	1
414158	1721	22.413508211418	0.4
414159	312	20.208	2
414159	1009	21.108	8
414159	1645	22.210686280516	10
414159	1781	22.613871770713	3
414159	1892	23.124312123528	4
414159	1950	23.424730364363	2
414159	2017	23.832718941787	3
414159	2108	24.542960287298	6
414160	312	20.208	0.59999999403954
414160	1009	21.108	0.11111110448837
414160	1645	22.210686280516	0.67741936445236
414160	1781	22.613871770713	0.92682927101851
414160	1892	23.124312123528	0.90476190298796
414160	1950	23.424730364363	0.9545454531908
414160	2017	23.832718941787	0.93478260934353
414160	2108	24.542960287298	0.87234042584896
414161	312	20.208	0.2
414161	1009	21.108	0.9
414161	1645	22.210686280516	1.1
414161	1781	22.613871770713	0.4
414161	1892	23.124312123528	0.5
414161	1950	23.424730364363	0.3
414161	2017	23.832718941787	0.4
414161	2108	24.542960287298	0.7
414162	220	20.109	1
414162	563	20.509	3
414162	1651	22.215561745293	16
414163	220	20.109	0.79999999701977
414163	563	20.509	0.39999997615814
414163	1651	22.215561745293	0.48387098312378
414164	220	20.109	0.1
414164	563	20.509	0.4
414164	1651	22.215561745293	1.7
414165	45	20.01	0
414165	394	20.31	2
414165	706	20.711660449663	3
414166	45	20.01	1
414166	394	20.31	0.59999999403954
414166	706	20.711660449663	0.39999997615814
414167	45	20.01	0
414167	394	20.31	0.3
414167	706	20.711660449663	0.4
414168	469	20.411	4
414168	1305	21.520230185064	10
414168	1663	22.229426149116	6
414168	1735	22.431930112328	1
414168	1840	22.840649069744	3
414168	1880	23.041036333572	1
414168	1961	23.443649624613	3
414168	2024	23.851331203502	3
414168	2050	24.052926359813	1
414168	2098	24.456996098506	3
414168	2139	24.858474626895	3
414169	469	20.411	0.19999998807907
414169	1305	21.520230185064	0.44444441795349
414169	1663	22.229426149116	0.8125
414169	1735	22.431930112328	0.97297297231853
414169	1840	22.840649069744	0.92682927101851
414169	1880	23.041036333572	0.97619047574699
414169	1961	23.443649624613	0.93181817978621
414169	2024	23.851331203502	0.93478260934353
414169	2050	24.052926359813	0.97826086916029
414169	2098	24.456996098506	0.93617021292448
414169	2139	24.858474626895	0.9400000013411
414170	469	20.411	0.4
414170	1305	21.520230185064	1.1
414170	1663	22.229426149116	0.7
414170	1735	22.431930112328	0.2
414170	1840	22.840649069744	0.4
414170	1880	23.041036333572	0.2
414170	1961	23.443649624613	0.4
414170	2024	23.851331203502	0.4
414170	2050	24.052926359813	0.2
414170	2098	24.456996098506	0.4
414170	2139	24.858474626895	0.4
414171	475	20.412	4
414171	1157	21.312	8
414171	1461	21.817633602295	4
414171	1565	22.017991206901	1
414171	1655	22.219410136743	1
414171	1763	22.522723437927	2
414172	475	20.412	0.19999998807907
414172	1157	21.312	0.27272725105286
414172	1461	21.817633602295	0.84000000357628
414172	1565	22.017991206901	0.96428571268916
414172	1655	22.219410136743	0.96875
414172	1763	22.522723437927	0.94999999925494
414173	475	20.412	0.4
414173	1157	21.312	0.9
414173	1461	21.817633602295	0.5
414173	1565	22.017991206901	0.2
414173	1655	22.219410136743	0.2
414173	1763	22.522723437927	0.3
414174	403	20.313	3
414174	792	20.813	4
414174	943	21.02061151428	1
414174	1183	21.330501119239	2
414175	403	20.313	0.39999997615814
414175	792	20.813	0.42857140302658
414175	943	21.02061151428	0.875
414175	1183	21.330501119239	0.83333332836628
414176	403	20.313	0.3
414176	792	20.813	0.5
414176	943	21.02061151428	0.2
414176	1183	21.330501119239	0.3
414177	481	20.414	4
414177	932	21.014	5
414177	1165	21.317621646049	2
414178	481	20.414	0.19999998807907
414178	932	21.014	0.375
414178	1165	21.317621646049	0.81818181276321
414179	481	20.414	0.4
414179	932	21.014	0.6
414179	1165	21.317621646049	0.3
414180	486	20.415	4
414180	859	20.915	4
414180	1094	21.218519788477	2
414180	1423	21.731691544389	4
414181	486	20.415	0.19999998807907
414181	859	20.915	0.42857140302658
414181	1094	21.218519788477	0.79999999701977
414181	1423	21.731691544389	0.82608695328236
414182	486	20.415	0.4
414182	859	20.915	0.5
414182	1094	21.218519788477	0.3
414182	1423	21.731691544389	0.5
414183	491	20.416	4
414183	1300	21.516	10
414183	1571	22.024582017631	4
414183	1694	22.324772058239	2
414183	1796	22.634514680232	2
414183	1957	23.439771191482	7
414183	2036	23.947727728595	4
414183	2096	24.449269579841	4
414183	2121	24.658034915629	1
414184	491	20.416	0.19999998807907
414184	1300	21.516	0.44444441795349
414184	1571	22.024582017631	0.85714285075665
414184	1694	22.324772058239	0.9411764703691
414184	1796	22.634514680232	0.95121951401234
414184	1957	23.439771191482	0.84090909361839
414184	2036	23.947727728595	0.91304347664118
414184	2096	24.449269579841	0.91489361971617
414184	2121	24.658034915629	0.97916666604578
414185	491	20.416	0.4
414185	1300	21.516	1.1
414185	1571	22.024582017631	0.5
414185	1694	22.324772058239	0.3
414185	1796	22.634514680232	0.3
414185	1957	23.439771191482	0.8
414185	2036	23.947727728595	0.5
414185	2096	24.449269579841	0.5
414185	2121	24.658034915629	0.2
414186	326	20.217	2
414186	863	20.917	6
414186	1522	21.917043817267	9
414187	326	20.217	0.59999999403954
414187	863	20.917	0.14285713434219
414187	1522	21.917043817267	0.65384614467621
414188	326	20.217	0.2
414188	863	20.917	0.7
414188	1522	21.917043817267	1
414189	77	20.018	0
414189	643	20.618	5
414189	1240	21.425416759096	7
414189	1531	21.928709217856	4
414189	1620	22.138392662204	1
414190	77	20.018	1
414190	643	20.618	0
414190	1240	21.425416759096	0.53333333134651
414190	1531	21.928709217856	0.85714285075665
414190	1620	22.138392662204	0.9666666649282
414191	77	20.018	0
414191	643	20.618	0.6
414191	1240	21.425416759096	0.8
414191	1531	21.928709217856	0.5
414191	1620	22.138392662204	0.2
414192	1409	21.719	17
414192	1653	22.219	4
414192	1786	22.627570121186	3
414192	1896	23.131236661363	4
414192	1988	23.631559544429	4
414192	2071	24.234855562716	5
414192	2130	24.741101047091	4
414193	1409	21.719	0.26086956262589
414193	1653	22.219	0.875
414193	1786	22.627570121186	0.92682927101851
414193	1896	23.131236661363	0.90476190298796
414193	1988	23.631559544429	0.90909090638161
414193	2071	24.234855562716	0.89361701905727
414193	2130	24.741101047091	0.91836734861135
414194	1409	21.719	1.7
414194	1653	22.219	0.5
414194	1786	22.627570121186	0.4
414194	1896	23.131236661363	0.5
414194	1988	23.631559544429	0.5
414194	2071	24.234855562716	0.6
414194	2130	24.741101047091	0.5
414195	579	20.52	5
414195	1098	21.22	6
414196	579	20.52	0
414196	1098	21.22	0.39999997615814
414197	579	20.52	0.5
414197	1098	21.22	0.7
414198	651	20.621	6
414198	1569	22.021	13
414198	1831	22.82844190983	7
414198	1872	23.031794257766	1
414198	1955	23.435848202639	3
414198	1994	23.643324966094	1
414199	651	20.621	-0.20000004768372
414199	1569	22.021	0.53571429848671
414199	1831	22.82844190983	0.8292682915926
414199	1872	23.031794257766	0.97619047574699
414199	1955	23.435848202639	0.93181817978621
414199	1994	23.643324966094	0.9772727265954
414200	651	20.621	0.6
414200	1569	22.021	1.4
414200	1831	22.82844190983	0.8
414200	1872	23.031794257766	0.2
414200	1955	23.435848202639	0.4
414200	1994	23.643324966094	0.2
414201	239	20.122	1
414201	518	20.430010335084	2
414201	1198	21.33844553548	8
414202	239	20.122	0.79999999701977
414202	518	20.430010335084	0.59999999403954
414202	1198	21.33844553548	0.42857140302658
414203	239	20.122	0.1
414203	518	20.430010335084	0.3
414203	1198	21.33844553548	0.9
414204	99	20.023	0
414204	1053	21.135699374076	10
414205	99	20.023	1
414205	1053	21.135699374076	-0.11111116409302
414206	99	20.023	0
414206	1053	21.135699374076	1.1
414207	503	20.424	4
414207	1026	21.124	6
414207	1581	22.032725627576	8
414207	1669	22.235223281218	1
414207	1772	22.538488856542	2
414207	1819	22.745225510829	1
414207	1919	23.249503299071	4
414207	1979	23.549992900268	2
414207	2055	24.058020323282	4
414208	503	20.424	0.19999998807907
414208	1026	21.124	0.33333331346512
414208	1581	22.032725627576	0.71428570151329
414208	1669	22.235223281218	0.96875
414208	1772	22.538488856542	0.95121951401234
414208	1819	22.745225510829	0.97560975700617
414208	1919	23.249503299071	0.90476190298796
414208	1979	23.549992900268	0.9545454531908
414208	2055	24.058020323282	0.91304347664118
414209	503	20.424	0.4
414209	1026	21.124	0.7
414209	1581	22.032725627576	0.9
414209	1669	22.235223281218	0.2
414209	1772	22.538488856542	0.3
414209	1819	22.745225510829	0.2
414209	1919	23.249503299071	0.5
414209	1979	23.549992900268	0.3
414209	2055	24.058020323282	0.5
414210	1106	21.225	12
414210	1467	21.825	5
414210	1729	22.426883465363	5
414210	1812	22.730224167822	2
414210	1876	23.037999079589	2
414210	1934	23.338902413519	2
414210	2045	24.040251572057	6
414210	2118	24.644065032142	5
414210	2149	24.952763561726	2
414210	2171	25.354523979021	3
414210	2183	25.661878361802	2
414210	2191	25.9717469998	2
414210	2201	26.274542527791	2
414211	1106	21.225	-0.20000004768372
414211	1467	21.825	0.79999999701977
414211	1729	22.426883465363	0.86486487090588
414211	1812	22.730224167822	0.95121951401234
414211	1876	23.037999079589	0.95238095149398
414211	1934	23.338902413519	0.95348837226629
414211	2045	24.040251572057	0.86956521868706
414211	2118	24.644065032142	0.89583333581686
414211	2149	24.952763561726	0.96078431233764
414211	2171	25.354523979021	0.94230769202113
414211	2183	25.661878361802	0.96226415038109
414211	2191	25.9717469998	0.96226415038109
414211	2201	26.274542527791	0.96226415038109
414212	1106	21.225	1.2
414212	1467	21.825	0.6
414212	1729	22.426883465363	0.6
414212	1812	22.730224167822	0.3
414212	1876	23.037999079589	0.3
414212	1934	23.338902413519	0.3
414212	2045	24.040251572057	0.7
414212	2118	24.644065032142	0.6
414212	2149	24.952763561726	0.3
414212	2171	25.354523979021	0.4
414212	2183	25.661878361802	0.3
414212	2191	25.9717469998	0.3
414212	2201	26.274542527791	0.3
414213	1472	21.826	18
414213	1574	22.026	1
414213	1699	22.328517357189	2
414213	1789	22.62887429409	2
414213	1835	22.832004379835	1
414213	1900	23.137924365308	2
414213	1938	23.341605015699	1
414214	1472	21.826	0.27999997138977
414214	1574	22.026	0.96428571268916
414214	1699	22.328517357189	0.9411764703691
414214	1789	22.62887429409	0.95121951401234
414214	1835	22.832004379835	0.97560975700617
414214	1900	23.137924365308	0.95238095149398
414214	1938	23.341605015699	0.97674418613315
414215	1472	21.826	1.8
414215	1574	22.026	0.2
414215	1699	22.328517357189	0.3
414215	1789	22.62887429409	0.3
414215	1835	22.832004379835	0.2
414215	1900	23.137924365308	0.3
414215	1938	23.341605015699	0.2
414216	250	20.127	1
414216	1178	21.327	11
414216	1420	21.730553492061	3
414217	250	20.127	0.79999999701977
414217	1178	21.327	0.083333313465118
414217	1420	21.730553492061	0.86956521868706
414218	250	20.127	0.1
414218	1178	21.327	1.2
414218	1420	21.730553492061	0.4
414219	958	21.028	10
414219	1113	21.228	1
414219	1248	21.430999550136	1
414219	1430	21.738919146716	2
414219	1544	21.944407137763	1
414219	1633	22.152849565688	1
414219	1713	22.356369433644	1
414219	1850	22.858490325444	4
414220	958	21.028	-0.25
414220	1113	21.228	0.89999999850988
414220	1248	21.430999550136	0.9333333298564
414220	1430	21.738919146716	0.91666666418314
414220	1544	21.944407137763	0.96428571268916
414220	1633	22.152849565688	0.96774193644524
414220	1713	22.356369433644	0.97142857126892
414220	1850	22.858490325444	0.90243902802467
414221	958	21.028	1
414221	1113	21.228	0.2
414221	1248	21.430999550136	0.2
414221	1430	21.738919146716	0.3
414221	1544	21.944407137763	0.2
414221	1633	22.152849565688	0.2
414221	1713	22.356369433644	0.2
414221	1850	22.858490325444	0.5
414222	256	20.129	1
414222	960	21.029	8
414222	1258	21.437474920927	3
414223	256	20.129	0.79999999701977
414223	960	21.029	0
414223	1258	21.437474920927	0.8125
414224	256	20.129	0.1
414224	960	21.029	0.9
414224	1258	21.437474920927	0.4
414225	516	20.43	4
414225	1244	21.43	9
414225	1427	21.736804364398	2
414225	1676	22.251715994572	4
414226	516	20.43	0.19999998807907
414226	1244	21.43	0.39999997615814
414226	1427	21.736804364398	0.91666666418314
414226	1676	22.251715994572	0.875
414227	516	20.43	0.4
414227	1244	21.43	1
414227	1427	21.736804364398	0.3
414227	1676	22.251715994572	0.5
414228	733	20.731	7
414228	978	21.039438212475	2
414228	1283	21.457114796007	3
414228	1506	21.859126894322	3
414229	733	20.731	-0.16666662693024
414229	978	21.039438212475	0.75
414229	1283	21.457114796007	0.83333332836628
414229	1506	21.859126894322	0.88000000268221
414230	733	20.731	0.7
414230	978	21.039438212475	0.3
414230	1283	21.457114796007	0.4
414230	1506	21.859126894322	0.4
414231	671	20.632	6
414231	885	20.932	2
414231	1076	21.153977885497	1
414231	1341	21.559101587123	3
414232	671	20.632	-0.20000004768372
414232	885	20.932	0.71428570151329
414232	1076	21.153977885497	0.89999999850988
414232	1341	21.559101587123	0.84210526943207
414233	671	20.632	0.6
414233	885	20.932	0.3
414233	1076	21.153977885497	0.2
414233	1341	21.559101587123	0.4
414234	1050	21.133	11
414234	1367	21.633	4
414234	1483	21.840174575303	1
414234	1741	22.440716300529	5
414234	1862	22.946931120798	4
414234	1943	23.353150476718	3
414234	1982	23.554316127612	1
414234	2052	24.05608639358	4
414234	2102	24.461371318787	3
414234	2142	24.869306325957	3
414234	2166	25.269819644333	3
414235	1050	21.133	-0.22222220897675
414235	1367	21.633	0.80952380597591
414235	1483	21.840174575303	0.96000000089407
414235	1741	22.440716300529	0.86486487090588
414235	1862	22.946931120798	0.90476190298796
414235	1943	23.353150476718	0.93181817978621
414235	1982	23.554316127612	0.9772727265954
414235	2052	24.05608639358	0.91304347664118
414235	2102	24.461371318787	0.93617021292448
414235	2142	24.869306325957	0.9411764703691
414235	2166	25.269819644333	0.9411764703691
414236	1050	21.133	1.1
414236	1367	21.633	0.5
414236	1483	21.840174575303	0.2
414236	1741	22.440716300529	0.6
414236	1862	22.946931120798	0.5
414236	1943	23.353150476718	0.4
414236	1982	23.554316127612	0.2
414236	2052	24.05608639358	0.5
414236	2102	24.461371318787	0.4
414236	2142	24.869306325957	0.4
414236	2166	25.269819644333	0.4
414237	433	20.334	3
414237	738	20.734	3
414237	1203	21.343083379036	5
414237	1546	21.944713075917	5
414237	1747	22.451219979451	4
414237	1847	22.855328158548	3
414237	1946	23.358870328066	4
414237	2013	23.767367374924	3
414237	2059	24.075197338125	2
414237	2089	24.379671394846	2
414237	2145	24.885722377712	4
414237	2198	26.19387779561	12
414237	2205	26.401915059228	1
414237	2210	26.708511138997	2
414237	2215	27.013732136344	2
414237	2220	27.317571276445	2
414237	2226	27.721475657287	3
414237	2231	28.02306287394	2
414238	433	20.334	0.39999997615814
414238	738	20.734	0.5
414238	1203	21.343083379036	0.66666665673256
414238	1546	21.944713075917	0.8214285671711
414238	1747	22.451219979451	0.89473684132099
414238	1847	22.855328158548	0.92682927101851
414238	1946	23.358870328066	0.90909090638161
414238	2013	23.767367374924	0.93478260934353
414238	2059	24.075197338125	0.95744680985808
414238	2089	24.379671394846	0.95744680985808
414238	2145	24.885722377712	0.92156862467527
414238	2198	26.19387779561	0.77358490228653
414238	2205	26.401915059228	0.98148148134351
414238	2210	26.708511138997	0.96296296268702
414238	2215	27.013732136344	0.96296296268702
414238	2220	27.317571276445	0.96296296268702
414238	2226	27.721475657287	0.94444444403052
414238	2231	28.02306287394	0.96296296268702
414239	433	20.334	0.3
414239	738	20.734	0.4
414239	1203	21.343083379036	0.6
414239	1546	21.944713075917	0.6
414239	1747	22.451219979451	0.5
414239	1847	22.855328158548	0.4
414239	1946	23.358870328066	0.5
414239	2013	23.767367374924	0.4
414239	2059	24.075197338125	0.3
414239	2089	24.379671394846	0.3
414239	2145	24.885722377712	0.5
414239	2198	26.19387779561	1.3
414239	2205	26.401915059228	0.2
414239	2210	26.708511138997	0.3
414239	2215	27.013732136344	0.3
414239	2220	27.317571276445	0.3
414239	2226	27.721475657287	0.4
414239	2231	28.02306287394	0.3
414240	743	20.735	7
414240	1536	21.935	11
414240	1743	22.441680832842	4
414241	743	20.735	-0.16666662693024
414241	1536	21.935	0.60714286565781
414241	1743	22.441680832842	0.89189188927412
414242	743	20.735	0.7
414242	1536	21.935	1.2
414242	1743	22.441680832842	0.5
414243	973	21.036	10
414243	1129	21.236	1
414243	1270	21.445011802945	1
414243	1385	21.653518834731	1
414243	1508	21.859233194691	1
414243	1603	22.064982127674	1
414243	1686	22.273173278799	1
414244	973	21.036	-0.25
414244	1129	21.236	0.90909090638161
414244	1270	21.445011802945	0.9411764703691
414244	1385	21.653518834731	0.9545454531908
414244	1508	21.859233194691	0.96153846010566
414244	1603	22.064982127674	0.9666666649282
414244	1686	22.273173278799	0.96969696879387
414245	973	21.036	1
414245	1129	21.236	0.2
414245	1270	21.445011802945	0.2
414245	1385	21.653518834731	0.2
414245	1508	21.859233194691	0.2
414245	1603	22.064982127674	0.2
414245	1686	22.273173278799	0.2
414246	155	20.037	0
414246	602	20.537	4
414246	980	21.041014366948	4
414246	1436	21.741955329349	6
414246	1625	22.142472700489	3
414246	1708	22.347254531824	1
414247	155	20.037	1
414247	602	20.537	0.19999998807907
414247	980	21.041014366948	0.5
414247	1436	21.741955329349	0.76000000536442
414247	1625	22.142472700489	0.90322580933571