file 286799 1369674130                                          
version 2
run Stability2-262-20130526-00:53:23-26640
attr configname Stability2
attr datetime 20130526-00:53:23
attr experiment Stability2
attr inifile omnetpp.ini
attr iterationvars $0=400
attr iterationvars2 "$0=400, $repetition=22"
attr measurement $0=400
attr network Network
attr processid 26640
attr repetition 22
attr replication #22
attr resultdir results
attr runnumber 262
attr seedset 262
vector 789262  Network.churner  inGoingSizeSig:vector  ETV
789262	278000 8799 10 2049 20 20.4 401 0 399 79800 21253400
vector 786268  Network.dyn_peer[2]  lookupHopsSig:vector  ETV
786268	80249 199 23 28238 20.003 28.399958677254 7 0 19 75 1231
vector 786269  Network.dyn_peer[2]  lookupStabilitySig:vector  ETV
786269	80448 285 23 28238 20.003 28.399958677254 7 -0.58333337306976 1 5.0702527891844 5.6918815133932
vector 786270  Network.dyn_peer[2]  lookupTimeSig:vector  ETV
786270	80733 205 23 28238 20.003 28.399958677254 7 0 2 8.1 13.87
vector 786271  Network.dyn_peer[3]  lookupHopsSig:vector  ETV
786271	80938 73 30 24282 20.004 26.006013351547 3 0 39 58 1882
vector 786272  Network.dyn_peer[3]  lookupStabilitySig:vector  ETV
786272	81011 102 30 24282 20.004 26.006013351547 3 -0.58333337306976 1 1.2441002577543 2.0249242375557
vector 786273  Network.dyn_peer[3]  lookupTimeSig:vector  ETV
786273	81113 71 30 24282 20.004 26.006013351547 3 0 4 6 20
vector 786367  Network.dyn_peer[35]  lookupHopsSig:vector  ETV
786367	96469 74 134 11989 20.036 22.538830197035 3 0 13 23 269
vector 786368  Network.dyn_peer[35]  lookupStabilitySig:vector  ETV
786368	96543 102 134 11989 20.036 22.538830197035 3 -1.1666667461395 1 0.49999991059306 2.8055557277467
vector 786369  Network.dyn_peer[35]  lookupTimeSig:vector  ETV
786369	96645 76 134 11989 20.036 22.538830197035 3 0 1.4 2.5 3.17
vector 786370  Network.dyn_peer[36]  lookupHopsSig:vector  ETV
786370	96721 43 141 16645 20.037 23.637 2 0 35 35 1225
vector 786371  Network.dyn_peer[36]  lookupStabilitySig:vector  ETV
786371	96764 57 141 16645 20.037 23.637 2 0.57317072153091 1 1.5731707215309 1.3285246760203
vector 786372  Network.dyn_peer[36]  lookupTimeSig:vector  ETV
786372	96821 44 141 16645 20.037 23.637 2 0 3.6 3.6 12.96
vector 786400  Network.dyn_peer[46]  lookupHopsSig:vector  ETV
786400	100601 134 175 21110 20.047 24.862920058149 5 0 29 44 970
vector 786401  Network.dyn_peer[46]  lookupStabilitySig:vector  ETV
786401	100735 193 175 21110 20.047 24.862920058149 5 -0.10000002384186 1 2.9152865856886 2.3946922655809
vector 786402  Network.dyn_peer[46]  lookupTimeSig:vector  ETV
786402	100928 138 175 21110 20.047 24.862920058149 5 0 3 4.8 10.62
vector 786403  Network.dyn_peer[47]  lookupHopsSig:vector  ETV
786403	101066 105 182 21132 20.048 24.866719682671 4 0 22 45 789
vector 786404  Network.dyn_peer[47]  lookupStabilitySig:vector  ETV
786404	101171 149 182 21132 20.048 24.866719682671 4 -0.77777779102325 1 1.8571752607822 2.9452208641332
vector 786405  Network.dyn_peer[47]  lookupTimeSig:vector  ETV
786405	101320 109 182 21132 20.048 24.866719682671 4 0 2.3 4.8 8.82
vector 786409  Network.dyn_peer[49]  lookupHopsSig:vector  ETV
786409	101921 41 192 11587 20.05 22.45 2 0 23 23 529
vector 786410  Network.dyn_peer[49]  lookupStabilitySig:vector  ETV
786410	101962 55 192 11587 20.05 22.45 2 0.11538463830948 1 1.1153846383095 1.0133136147578
vector 786411  Network.dyn_peer[49]  lookupTimeSig:vector  ETV
786411	102017 42 192 11587 20.05 22.45 2 0 2.4 2.4 5.76
vector 786442  Network.dyn_peer[60]  lookupHopsSig:vector  ETV
786442	107126 74 229 18328 20.061 24.067358358648 3 0 32 38 1060
vector 786443  Network.dyn_peer[60]  lookupStabilitySig:vector  ETV
786443	107200 103 229 18328 20.061 24.067358358648 3 0.50769230723381 1 2.4482863657176 2.1424686616795
vector 786444  Network.dyn_peer[60]  lookupTimeSig:vector  ETV
786444	107303 77 229 18328 20.061 24.067358358648 3 0 3.3 4 11.38
vector 786550  Network.dyn_peer[96]  lookupHopsSig:vector  ETV
786550	123461 204 341 28543 20.097 28.674771814034 7 0 34 79 1875
vector 786551  Network.dyn_peer[96]  lookupStabilitySig:vector  ETV
786551	123665 278 341 28543 20.097 28.674771814034 7 -0.5 1 4.3515398167074 4.4258527669039
vector 786552  Network.dyn_peer[96]  lookupTimeSig:vector  ETV
786552	123943 212 341 28543 20.097 28.674771814034 7 0 3.5 8.5 20.39
vector 786280  Network.dyn_peer[6]  lookupHopsSig:vector  ETV
786280	81619 106 382 17339 20.107 23.811790237462 4 1 13 35 391
vector 786281  Network.dyn_peer[6]  lookupStabilitySig:vector  ETV
786281	81725 164 382 17339 20.107 23.811790237462 4 -0.85714280605316 0.88764044642448 1.5249420851469 2.6448524383478
vector 786282  Network.dyn_peer[6]  lookupTimeSig:vector  ETV
786282	81889 111 382 17339 20.107 23.811790237462 4 0.1 1.4 3.8 4.62
vector 786307  Network.dyn_peer[15]  lookupHopsSig:vector  ETV
786307	86474 104 424 18153 20.116 24.020038721078 4 1 21 37 615
vector 786308  Network.dyn_peer[15]  lookupStabilitySig:vector  ETV
786308	86578 163 424 18153 20.116 24.020038721078 4 -0.29999995231628 0.79999999701977 1.8857143223286 1.7073468948992
vector 786309  Network.dyn_peer[15]  lookupTimeSig:vector  ETV
786309	86741 110 424 18153 20.116 24.020038721078 4 0.1 2.2 4 6.9
vector 786328  Network.dyn_peer[22]  lookupHopsSig:vector  ETV
786328	89241 84 456 19647 20.123 24.432271370197 3 1 23 42 854
vector 786329  Network.dyn_peer[22]  lookupStabilitySig:vector  ETV
786329	89325 127 456 19647 20.123 24.432271370197 3 0.23333334922791 0.84999999403954 1.8833333402872 1.4169444369608
vector 786330  Network.dyn_peer[22]  lookupTimeSig:vector  ETV
786330	89452 88 456 19647 20.123 24.432271370197 3 0.1 2.4 4.4 9.38
vector 786343  Network.dyn_peer[27]  lookupHopsSig:vector  ETV
786343	91887 104 481 15446 20.128 23.342519528313 4 1 12 30 294
vector 786344  Network.dyn_peer[27]  lookupStabilitySig:vector  ETV
786344	91991 153 481 15446 20.128 23.342519528313 4 -0.66666662693024 0.8125 1.4073718041182 1.9576183627798
vector 786345  Network.dyn_peer[27]  lookupTimeSig:vector  ETV
786345	92144 110 481 15446 20.128 23.342519528313 4 0.1 1.3 3.3 3.55
vector 786376  Network.dyn_peer[38]  lookupHopsSig:vector  ETV
786376	97139 75 529 25628 20.139 26.647089999016 3 1 41 64 2166
vector 786377  Network.dyn_peer[38]  lookupStabilitySig:vector  ETV
786377	97214 118 529 25628 20.139 26.647089999016 3 0.15384614467621 0.84469696879387 1.7985431104899 1.3771816005529
vector 786378  Network.dyn_peer[38]  lookupTimeSig:vector  ETV
786378	97332 79 529 25628 20.139 26.647089999016 3 0.1 4.2 6.6 22.94
vector 786430  Network.dyn_peer[56]  lookupHopsSig:vector  ETV
786430	105119 82 605 17560 20.157 23.864931645649 3 1 32 36 1034
vector 786431  Network.dyn_peer[56]  lookupStabilitySig:vector  ETV
786431	105201 126 605 17560 20.157 23.864931645649 3 0.39999997615814 0.79999999701977 1.8444444090128 1.2153086070367
vector 786432  Network.dyn_peer[56]  lookupTimeSig:vector  ETV
786432	105327 87 605 17560 20.157 23.864931645649 3 0.1 3.3 3.8 11.06
vector 786469  Network.dyn_peer[69]  lookupHopsSig:vector  ETV
786469	111292 103 662 18352 20.17 24.076454501305 4 1 18 37 489
vector 786470  Network.dyn_peer[69]  lookupStabilitySig:vector  ETV
786470	111395 162 662 18352 20.17 24.076454501305 4 -0.60000002384186 0.82352940738201 1.4679737985134 1.8757315493148
vector 786471  Network.dyn_peer[69]  lookupTimeSig:vector  ETV
786471	111557 109 662 18352 20.17 24.076454501305 4 0.1 1.9 4 5.64
vector 786844  Network.dyn_peer[194]  lookupHopsSig:vector  ETV
786844	171659 84 769 19868 20.195 24.499509504094 3 0 23 41 853
vector 786845  Network.dyn_peer[194]  lookupStabilitySig:vector  ETV
786845	171743 112 769 19868 20.195 24.499509504094 3 0.30303031206131 1 2.1566888540983 1.8205602764207
vector 786846  Network.dyn_peer[194]  lookupTimeSig:vector  ETV
786846	171855 86 769 19868 20.195 24.499509504094 3 0 2.4 4.3 9.37
vector 786274  Network.dyn_peer[4]  lookupHopsSig:vector  ETV
786274	81184 74 818 14477 20.205 23.109557517594 3 2 17 29 393
vector 786275  Network.dyn_peer[4]  lookupStabilitySig:vector  ETV
786275	81258 118 818 14477 20.205 23.109557517594 3 -0.66666662693024 0.67924529314041 0.61257866024971 1.2658185525634
vector 786276  Network.dyn_peer[4]  lookupTimeSig:vector  ETV
786276	81376 78 818 14477 20.205 23.109557517594 3 0.2 1.8 3.1 4.49
vector 786580  Network.dyn_peer[106]  lookupHopsSig:vector  ETV
786580	129419 105 832 20304 20.207 24.619640440946 4 1 22 42 778
vector 786581  Network.dyn_peer[106]  lookupStabilitySig:vector  ETV
786581	129524 163 832 20304 20.207 24.619640440946 4 0.44999998807907 0.87313432991505 2.7231343090534 1.9648635354264
vector 786582  Network.dyn_peer[106]  lookupTimeSig:vector  ETV
786582	129687 111 832 20304 20.207 24.619640440946 4 0.1 2.3 4.5 8.63
vector 786610  Network.dyn_peer[116]  lookupHopsSig:vector  ETV
786610	136069 100 889 7767 20.217 21.62354997568 4 1 5 12 46
vector 786611  Network.dyn_peer[116]  lookupStabilitySig:vector  ETV
786611	136169 148 889 7767 20.217 21.62354997568 4 0.16666668653488 0.79999999701977 1.9166666716337 1.2702777748638
vector 786612  Network.dyn_peer[116]  lookupTimeSig:vector  ETV
786612	136317 108 889 7767 20.217 21.62354997568 4 0.1 0.6 1.5 0.71
vector 786631  Network.dyn_peer[123]  lookupHopsSig:vector  ETV
786631	139691 107 929 23324 20.224 25.633038537698 4 1 22 52 918
vector 786632  Network.dyn_peer[123]  lookupStabilitySig:vector  ETV
786632	139798 163 929 23324 20.224 25.633038537698 4 0.26666665077209 0.94029850885272 2.860413428396 2.3236463361717
vector 786633  Network.dyn_peer[123]  lookupTimeSig:vector  ETV
786633	139961 112 929 23324 20.224 25.633038537698 4 0.1 2.3 5.5 10.23
vector 786646  Network.dyn_peer[128]  lookupHopsSig:vector  ETV
786646	141725 84 958 24132 20.229 25.950292050079 3 1 37 55 1659
vector 786647  Network.dyn_peer[128]  lookupStabilitySig:vector  ETV
786647	141809 126 958 24132 20.229 25.950292050079 3 0.6262626349926 0.92307692021132 2.3493395522237 1.8842758838463
vector 786648  Network.dyn_peer[128]  lookupTimeSig:vector  ETV
786648	141935 88 958 24132 20.229 25.950292050079 3 0.1 3.8 5.7 17.69
vector 786394  Network.dyn_peer[44]  lookupHopsSig:vector  ETV
786394	99959 136 1045 23133 20.245 25.554148650299 5 2 16 45 511
vector 786395  Network.dyn_peer[44]  lookupStabilitySig:vector  ETV
786395	100095 199 1045 23133 20.245 25.554148650299 5 -0.83333337306976 0.95431471988559 2.2459813468158 3.1532860958582
vector 786396  Network.dyn_peer[44]  lookupTimeSig:vector  ETV
786396	100294 142 1045 23133 20.245 25.554148650299 5 0.2 1.7 4.9 6.01
vector 786739  Network.dyn_peer[159]  lookupHopsSig:vector  ETV
786739	156159 105 1123 25499 20.26 26.573835284604 4 1 37 61 1719
vector 786740  Network.dyn_peer[159]  lookupStabilitySig:vector  ETV
786740	156264 163 1123 25499 20.26 26.573835284604 4 0.62999999523163 0.98084291256964 3.3297618273646 2.8433647945701
vector 786741  Network.dyn_peer[159]  lookupTimeSig:vector  ETV
786741	156427 111 1123 25499 20.26 26.573835284604 4 0.1 3.8 6.4 18.42
vector 786445  Network.dyn_peer[61]  lookupHopsSig:vector  ETV
786445	107380 76 1137 19076 20.262 24.274794355021 3 2 20 40 728
vector 786446  Network.dyn_peer[61]  lookupStabilitySig:vector  ETV
786446	107456 109 1137 19076 20.262 24.274794355021 3 -0.125 0.81651376187801 1.2915137559176 1.0423197161836
vector 786447  Network.dyn_peer[61]  lookupTimeSig:vector  ETV
786447	107565 80 1137 19076 20.262 24.274794355021 3 0.2 2.1 4.2 8.06
vector 787057  Network.dyn_peer[265]  lookupHopsSig:vector  ETV
787057	206809 108 1164 24684 20.266 26.182364279871 4 0 22 56 1064
vector 787058  Network.dyn_peer[265]  lookupStabilitySig:vector  ETV
787058	206917 152 1164 24684 20.266 26.182364279871 4 -0.058823585510254 1 2.6740430295467 2.5081292236037
vector 787059  Network.dyn_peer[265]  lookupTimeSig:vector  ETV
787059	207069 111 1164 24684 20.266 26.182364279871 4 0 2.3 5.9 11.79
vector 787072  Network.dyn_peer[270]  lookupHopsSig:vector  ETV
787072	209044 107 1193 19101 20.271 24.280854157992 4 0 17 37 489
vector 787073  Network.dyn_peer[270]  lookupStabilitySig:vector  ETV
787073	209151 150 1193 19101 20.271 24.280854157992 4 -0.66666662693024 1 1.9449976757169 2.7648396639835
vector 787074  Network.dyn_peer[270]  lookupTimeSig:vector  ETV
787074	209301 110 1193 19101 20.271 24.280854157992 4 0 1.8 4 5.66
vector 786493  Network.dyn_peer[77]  lookupHopsSig:vector  ETV
786493	115330 113 1231 13980 20.278 22.993217536248 4 1 17 26 330
vector 786494  Network.dyn_peer[77]  lookupStabilitySig:vector  ETV
786494	115443 157 1231 13980 20.278 22.993217536248 4 0 0.79999999701977 2.0304347723722 1.3974480015682
vector 786495  Network.dyn_peer[77]  lookupTimeSig:vector  ETV
786495	115600 120 1231 13980 20.278 22.993217536248 4 0.2 1.8 2.9 3.81
vector 786520  Network.dyn_peer[86]  lookupHopsSig:vector  ETV
786520	120228 105 1281 15652 20.287 23.389239985083 4 2 11 30 270
vector 786521  Network.dyn_peer[86]  lookupStabilitySig:vector  ETV
786521	120333 165 1281 15652 20.287 23.389239985083 4 -0.33333337306976 0.86363635957241 1.6903029829264 1.5305788946953
vector 786522  Network.dyn_peer[86]  lookupTimeSig:vector  ETV
786522	120498 110 1281 15652 20.287 23.389239985083 4 0.2 1.2 3.3 3.29
vector 786526  Network.dyn_peer[88]  lookupHopsSig:vector  ETV
786526	121108 44 1295 24472 20.289 26.089 2 2 57 59 3253
vector 786527  Network.dyn_peer[88]  lookupStabilitySig:vector  ETV
786527	121152 73 1295 24472 20.289 26.089 2 0.59999999403954 0.75217391550541 1.352173909545 0.92576559201419
vector 786528  Network.dyn_peer[88]  lookupTimeSig:vector  ETV
786528	121225 47 1295 24472 20.289 26.089 2 0.2 5.8 6 33.68
vector 786832  Network.dyn_peer[190]  lookupHopsSig:vector  ETV
786832	169474 104 1309 14433 20.291 23.100641878662 4 1 11 26 222
vector 786833  Network.dyn_peer[190]  lookupStabilitySig:vector  ETV
786833	169578 164 1309 14433 20.291 23.100641878662 4 -0.20000004768372 0.79999999701977 1.6570409238338 1.369528184556
vector 786834  Network.dyn_peer[190]  lookupTimeSig:vector  ETV
786834	169742 111 1309 14433 20.291 23.100641878662 4 0.1 1.2 2.9 2.75
vector 787150  Network.dyn_peer[296]  lookupHopsSig:vector  ETV
787150	223571 167 1343 25939 20.297 26.811829966505 6 0 32 60 1234
vector 787151  Network.dyn_peer[296]  lookupStabilitySig:vector  ETV
787151	223738 225 1343 25939 20.297 26.811829966505 6 0 1 3.7882231138647 3.2651557712384
vector 787152  Network.dyn_peer[296]  lookupTimeSig:vector  ETV
787152	223963 175 1343 25939 20.297 26.811829966505 6 0 3.3 6.5 13.59
vector 786865  Network.dyn_peer[201]  lookupHopsSig:vector  ETV
786865	174655 139 1374 26437 20.302 27.111293945656 5 1 25 65 1247
vector 786866  Network.dyn_peer[201]  lookupStabilitySig:vector  ETV
786866	174794 210 1374 26437 20.302 27.111293945656 5 0.19999998807907 0.97474747523665 3.7755768969655 3.256649050504
vector 786867  Network.dyn_peer[201]  lookupTimeSig:vector  ETV
786867	175004 146 1374 26437 20.302 27.111293945656 5 0.1 2.6 6.9 13.79
vector 786874  Network.dyn_peer[204]  lookupHopsSig:vector  ETV
786874	175685 260 1397 29079 20.305 29.215695005626 9 1 21 78 978
vector 786875  Network.dyn_peer[204]  lookupStabilitySig:vector  ETV
786875	175945 393 1397 29079 20.305 29.215695005626 9 -0.28571426868439 0.98029556684196 6.7399147301912 6.3796754096356
vector 786876  Network.dyn_peer[204]  lookupTimeSig:vector  ETV
786876	176338 271 1397 29079 20.305 29.215695005626 9 0.1 2.2 8.6 11.4
vector 786289  Network.dyn_peer[9]  lookupHopsSig:vector  ETV
786289	83872 198 1432 24111 20.31 25.941411178063 7 1 22 53 703
vector 786290  Network.dyn_peer[9]  lookupStabilitySig:vector  ETV
786290	84070 301 1432 24111 20.31 25.941411178063 7 0.33333331346512 0.99543379014358 5.5040437779389 4.8315436271034
vector 786291  Network.dyn_peer[9]  lookupTimeSig:vector  ETV
786291	84371 210 1432 24111 20.31 25.941411178063 7 0.2 2.3 5.9 8.09
vector 786595  Network.dyn_peer[111]  lookupHopsSig:vector  ETV
786595	132521 198 1448 26527 20.312 27.173657465407 7 1 25 50 754
vector 786596  Network.dyn_peer[111]  lookupStabilitySig:vector  ETV
786596	132719 302 1448 26527 20.312 27.173657465407 7 0.43181818723679 0.99607843114063 5.8917893706821 5.271979622471
vector 786597  Network.dyn_peer[111]  lookupTimeSig:vector  ETV
786597	133021 211 1448 26527 20.312 27.173657465407 7 0.2 2.6 5.6 8.56
vector 786319  Network.dyn_peer[19]  lookupHopsSig:vector  ETV
786319	87665 137 1500 23851 20.32 25.837672915781 5 3 23 54 818
vector 786320  Network.dyn_peer[19]  lookupStabilitySig:vector  ETV
786320	87802 209 1500 23851 20.32 25.837672915781 5 0.36111110448837 0.95804195851088 3.5497556999326 2.886648827788
vector 786321  Network.dyn_peer[19]  lookupTimeSig:vector  ETV
786321	88011 144 1500 23851 20.32 25.837672915781 5 0.3 2.4 5.8 9.24
vector 786325  Network.dyn_peer[21]  lookupHopsSig:vector  ETV
786325	88872 107 1516 23860 20.322 25.839044400618 4 3 21 55 955
vector 786326  Network.dyn_peer[21]  lookupStabilitySig:vector  ETV
786326	88979 152 1516 23860 20.322 25.839044400618 4 -0.5 0.91121495515108 1.5778815969825 1.8280904516721
vector 786327  Network.dyn_peer[21]  lookupTimeSig:vector  ETV
786327	89131 110 1516 23860 20.322 25.839044400618 4 0.3 2.2 5.8 10.62
vector 786625  Network.dyn_peer[121]  lookupHopsSig:vector  ETV
786625	138701 136 1520 18953 20.322 24.237078866625 5 2 11 37 325
vector 786626  Network.dyn_peer[121]  lookupStabilitySig:vector  ETV
786626	138837 210 1520 18953 20.322 24.237078866625 5 -0.57142853736877 0.94392523542047 2.5744829289615 2.8787974878857
vector 786627  Network.dyn_peer[121]  lookupTimeSig:vector  ETV
786627	139047 144 1520 18953 20.322 24.237078866625 5 0.2 1.2 4.1 3.99
vector 786331  Network.dyn_peer[23]  lookupHopsSig:vector  ETV
786331	89540 104 1536 16234 20.324 23.534161899807 4 3 20 32 454
vector 786332  Network.dyn_peer[23]  lookupStabilitySig:vector  ETV
786332	89644 148 1536 16234 20.324 23.534161899807 4 0 0.74025973677635 1.5402596890926 0.86798443974522
vector 786333  Network.dyn_peer[23]  lookupTimeSig:vector  ETV
786333	89792 111 1536 16234 20.324 23.534161899807 4 0.3 2.1 3.5 5.15
vector 786931  Network.dyn_peer[223]  lookupHopsSig:vector  ETV
786931	184665 104 1540 13294 20.324 22.835051297124 4 1 14 23 231
vector 786932  Network.dyn_peer[223]  lookupStabilitySig:vector  ETV
786932	184769 164 1540 13294 20.324 22.835051297124 4 -0.39999997615814 0.92682927101851 2.1345215961337 2.3113793321253
vector 786933  Network.dyn_peer[223]  lookupTimeSig:vector  ETV
786933	184933 111 1540 13294 20.324 22.835051297124 4 0.1 1.5 2.6 2.78
vector 786940  Network.dyn_peer[226]  lookupHopsSig:vector  ETV
786940	185402 107 1562 25020 20.327 26.329111342581 4 1 34 58 1462
vector 786941  Network.dyn_peer[226]  lookupStabilitySig:vector  ETV
786941	185509 165 1562 25020 20.327 26.329111342581 4 0.62222221493721 0.97165991924703 3.3122494798154 2.8146820656596
vector 786942  Network.dyn_peer[226]  lookupTimeSig:vector  ETV
786942	185674 113 1562 25020 20.327 26.329111342581 4 0.1 3.5 6.1 15.79
vector 786649  Network.dyn_peer[129]  lookupHopsSig:vector  ETV
786649	142023 42 1584 18557 20.33 24.13 2 2 37 39 1373
vector 786650  Network.dyn_peer[129]  lookupStabilitySig:vector  ETV
786650	142065 71 1584 18557 20.33 24.13 2 0.59999999403954 0.64423078298569 1.2442307770252 0.7750332945938
vector 786651  Network.dyn_peer[129]  lookupTimeSig:vector  ETV
786651	142136 45 1584 18557 20.33 24.13 2 0.2 3.8 4 14.48
vector 786661  Network.dyn_peer[133]  lookupHopsSig:vector  ETV
786661	143856 137 1614 25827 20.334 26.751229109875 5 2 38 62 1620
vector 786662  Network.dyn_peer[133]  lookupStabilitySig:vector  ETV
786662	143993 211 1614 25827 20.334 26.751229109875 5 -0.20000004768372 0.97785977832973 3.1010627727956 2.8588718107621
vector 786663  Network.dyn_peer[133]  lookupTimeSig:vector  ETV
786663	144204 145 1614 25827 20.334 26.751229109875 5 0.2 3.9 6.6 17.44
vector 786973  Network.dyn_peer[237]  lookupHopsSig:vector  ETV
786973	190710 106 1642 19708 20.338 24.451075912499 4 1 19 39 543
vector 786974  Network.dyn_peer[237]  lookupStabilitySig:vector  ETV
786974	190816 165 1642 19708 20.338 24.451075912499 4 -0.66666662693024 0.84297519922256 1.6301547139883 2.2225663541064
vector 786975  Network.dyn_peer[237]  lookupTimeSig:vector  ETV
786975	190981 108 1642 19708 20.338 24.451075912499 4 0.1 2 4.2 6.22
vector 786982  Network.dyn_peer[240]  lookupHopsSig:vector  ETV
786982	192289 138 1664 26025 20.341 26.861554442623 5 1 26 62 1258
vector 786983  Network.dyn_peer[240]  lookupStabilitySig:vector  ETV
786983	192427 204 1664 26025 20.341 26.861554442623 5 0.45833331346512 0.94999999925494 4.0588841177523 3.4648774997479
vector 786984  Network.dyn_peer[240]  lookupTimeSig:vector  ETV
786984	192631 144 1664 26025 20.341 26.861554442623 5 0.1 2.7 6.6 13.84
vector 786742  Network.dyn_peer[160]  lookupHopsSig:vector  ETV
786742	156538 138 1789 23698 20.361 25.776414859983 5 2 24 52 854
vector 786743  Network.dyn_peer[160]  lookupStabilitySig:vector  ETV
786743	156676 209 1789 23698 20.361 25.776414859983 5 0.45454543828964 0.98543689306825 3.8668730808422 3.2080003617009
vector 786744  Network.dyn_peer[160]  lookupTimeSig:vector  ETV
786744	156885 145 1789 23698 20.361 25.776414859983 5 0.2 2.5 5.6 9.58
vector 787345  Network.dyn_peer[361]  lookupHopsSig:vector  ETV
787345	259350 137 1801 25312 20.362 26.473668127231 5 0 39 57 1655
vector 787346  Network.dyn_peer[361]  lookupStabilitySig:vector  ETV
787346	259487 194 1801 25312 20.362 26.473668127231 5 0.66949152946472 1 4.5839200713672 4.2803326659796
vector 787347  Network.dyn_peer[361]  lookupTimeSig:vector  ETV
787347	259681 140 1801 25312 20.362 26.473668127231 5 0 4 6.1 17.73
vector 786463  Network.dyn_peer[67]  lookupHopsSig:vector  ETV
786463	110443 74 1840 12561 20.368 22.668454583847 3 3 12 24 234
vector 786464  Network.dyn_peer[67]  lookupStabilitySig:vector  ETV
786464	110517 106 1840 12561 20.368 22.668454583847 3 -0.5 0.65714284777641 0.55714282393455 0.8418367033102
vector 786465  Network.dyn_peer[67]  lookupTimeSig:vector  ETV
786465	110623 77 1840 12561 20.368 22.668454583847 3 0.3 1.3 2.6 2.78
vector 786466  Network.dyn_peer[68]  lookupHopsSig:vector  ETV
786466	110700 164 1850 17220 20.369 23.78252980533 6 2 13 32 256
vector 786467  Network.dyn_peer[68]  lookupStabilitySig:vector  ETV
786467	110864 253 1850 17220 20.369 23.78252980533 6 0.19999998807907 0.92000000178814 3.3785111755133 2.4366069741143
vector 786468  Network.dyn_peer[68]  lookupTimeSig:vector  ETV
786468	111117 175 1850 17220 20.369 23.78252980533 6 0.3 1.4 3.7 3.19
vector 786769  Network.dyn_peer[169]  lookupHopsSig:vector  ETV
786769	160984 73 1860 23693 20.37 25.77375072469 3 2 35 54 1518
vector 786770  Network.dyn_peer[169]  lookupStabilitySig:vector  ETV
786770	161057 100 1860 23693 20.37 25.77375072469 3 0 0.8300970941782 1.4300970882177 1.0490611786105
vector 786771  Network.dyn_peer[169]  lookupTimeSig:vector  ETV
786771	161157 77 1860 23693 20.37 25.77375072469 3 0.2 3.6 5.6 16.24
vector 787111  Network.dyn_peer[283]  lookupHopsSig:vector  ETV
787111	216316 292 1948 27766 20.384 28.024059178877 10 1 13 68 624
vector 787112  Network.dyn_peer[283]  lookupStabilitySig:vector  ETV
787112	216608 439 1948 27766 20.384 28.024059178877 10 -0.29999995231628 0.98928571399301 8.0323256095871 7.8592938242956
vector 787113  Network.dyn_peer[283]  lookupTimeSig:vector  ETV
787113	217047 307 1948 27766 20.384 28.024059178877 10 0.1 1.4 7.7 7.67
vector 786514  Network.dyn_peer[84]  lookupHopsSig:vector  ETV
786514	118797 105 1958 22159 20.385 25.210768560465 4 3 33 48 1178
vector 786515  Network.dyn_peer[84]  lookupStabilitySig:vector  ETV
786515	118902 165 1958 22159 20.385 25.210768560465 4 -0.33333337306976 0.97790055163205 1.8105245996267 1.8140914148181
vector 786516  Network.dyn_peer[84]  lookupTimeSig:vector  ETV
786516	119067 112 1958 22159 20.385 25.210768560465 4 0.3 3.4 5.1 12.71
vector 786262  Network.dyn_peer[0]  lookupHopsSig:vector  ETV
786262	78930 168 2059 20666 20.401 24.728336976912 6 2 21 42 550
vector 786263  Network.dyn_peer[0]  lookupStabilitySig:vector  ETV
786263	79098 256 2059 20666 20.401 24.728336976912 6 0.19999998807907 0.98601398617029 4.3704378884286 3.7999084672425
vector 786264  Network.dyn_peer[0]  lookupTimeSig:vector  ETV
786264	79354 179 2059 20666 20.401 24.728336976912 6 0.3 2.2 4.7 6.31
vector 786334  Network.dyn_peer[24]  lookupHopsSig:vector  ETV
786334	89903 231 2163 28634 20.425 28.759706667943 8 2 28 80 1240
vector 786335  Network.dyn_peer[24]  lookupStabilitySig:vector  ETV
786335	90134 326 2163 28634 20.425 28.759706667943 8 -0.375 0.99326599342749 5.4630490313284 5.5093493436
vector 786336  Network.dyn_peer[24]  lookupTimeSig:vector  ETV
786336	90460 242 2163 28634 20.425 28.759706667943 8 0.3 2.9 8.7 13.99
vector 786979  Network.dyn_peer[239]  lookupHopsSig:vector  ETV
786979	192131 42 2229 19322 20.44 24.34 2 2 38 40 1448
vector 786980  Network.dyn_peer[239]  lookupStabilitySig:vector  ETV
786980	192173 71 2229 19322 20.44 24.34 2 0.59999999403954 0.67241379618645 1.272413790226 0.81214030614932
vector 786981  Network.dyn_peer[239]  lookupTimeSig:vector  ETV
786981	192244 45 2229 19322 20.44 24.34 2 0.2 3.9 4.1 15.25
vector 786682  Network.dyn_peer[140]  lookupHopsSig:vector  ETV
786682	146941 73 2237 10630 20.441 22.244308923121 3 3 9 19 139
vector 786683  Network.dyn_peer[140]  lookupStabilitySig:vector  ETV
786683	147014 106 2237 10630 20.441 22.244308923121 3 -0.5 0.63157895207405 0.53157892823219 0.80889195362947
vector 786684  Network.dyn_peer[140]  lookupTimeSig:vector  ETV
786684	147120 77 2237 10630 20.441 22.244308923121 3 0.3 1 2.1 1.73
vector 786985  Network.dyn_peer[241]  lookupHopsSig:vector  ETV
786985	192775 295 2245 30657 20.442 31.450152779361 10 1 25 88 1226
vector 786986  Network.dyn_peer[241]  lookupStabilitySig:vector  ETV
786986	193070 440 2245 30657 20.442 31.450152779361 10 0.47916668653488 0.99658703082241 8.8096380655188 8.0632588888208
vector 786987  Network.dyn_peer[241]  lookupTimeSig:vector  ETV
786987	193510 309 2245 30657 20.442 31.450152779361 10 0.2 2.6 9.7 14.07
vector 786415  Network.dyn_peer[51]  lookupHopsSig:vector  ETV
786415	102658 103 2289 18472 20.452 24.10691295971 4 2 10 19 129
vector 786416  Network.dyn_peer[51]  lookupStabilitySig:vector  ETV
786416	102761 162 2289 18472 20.452 24.10691295971 4 0.19999998807907 0.90384615212679 2.1038461104035 1.37693783572
vector 786417  Network.dyn_peer[51]  lookupTimeSig:vector  ETV
786417	102923 110 2289 18472 20.452 24.10691295971 4 0.3 1.1 2.2 1.62
vector 786439  Network.dyn_peer[59]  lookupHopsSig:vector  ETV
786439	106830 82 2324 22039 20.46 25.168752338422 3 4 38 49 1509
vector 786440  Network.dyn_peer[59]  lookupStabilitySig:vector  ETV
786440	106912 127 2324 22039 20.46 25.168752338422 3 -0.16666662693024 0.78651686012745 0.81985022127628 0.68638653102867
vector 786441  Network.dyn_peer[59]  lookupTimeSig:vector  ETV
786441	107039 87 2324 22039 20.46 25.168752338422 3 0.4 3.9 5.1 16.01
vector 786451  Network.dyn_peer[63]  lookupHopsSig:vector  ETV
786451	108579 165 2345 22352 20.464 25.27989436008 6 1 12 34 266
vector 786452  Network.dyn_peer[63]  lookupStabilitySig:vector  ETV
786452	108744 256 2345 22352 20.464 25.27989436008 6 -0.090909123420715 0.97267759591341 3.7782374881208 3.4327305695035
vector 786453  Network.dyn_peer[63]  lookupTimeSig:vector  ETV
786453	109000 176 2345 22352 20.464 25.27989436008 6 0.2 1.3 3.9 3.31
vector 787351  Network.dyn_peer[363]  lookupHopsSig:vector  ETV
787351	259985 44 2349 10262 20.464 22.164 2 1 16 17 257
vector 787352  Network.dyn_peer[363]  lookupStabilitySig:vector  ETV
787352	260029 58 2349 10262 20.464 22.164 2 0 0.79999999701977 0.79999999701977 0.63999999523163
vector 787353  Network.dyn_peer[363]  lookupTimeSig:vector  ETV
787353	260087 47 2349 10262 20.464 22.164 2 0.1 1.7 1.8 2.9
vector 787372  Network.dyn_peer[370]  lookupHopsSig:vector  ETV
787372	263532 74 2382 21765 20.471 25.07357564783 3 1 34 45 1257
vector 787373  Network.dyn_peer[370]  lookupStabilitySig:vector  ETV
787373	263606 118 2382 21765 20.471 25.07357564783 3 -0.42857146263123 0.80116958916187 1.1725981235504 1.4655462044113
vector 787374  Network.dyn_peer[370]  lookupTimeSig:vector  ETV
787374	263724 78 2382 21765 20.471 25.07357564783 3 0.1 3.5 4.7 13.47
vector 786487  Network.dyn_peer[75]  lookupHopsSig:vector  ETV
786487	114569 106 2407 18053 20.476 23.993794552281 4 4 15 36 398
vector 786488  Network.dyn_peer[75]  lookupStabilitySig:vector  ETV
786488	114675 166 2407 18053 20.476 23.993794552281 4 -0.071428537368774 0.93814432993531 1.8863879181445 1.597079227964
vector 786489  Network.dyn_peer[75]  lookupTimeSig:vector  ETV
786489	114841 112 2407 18053 20.476 23.993794552281 4 0.4 1.6 3.9 4.65
vector 786511  Network.dyn_peer[83]  lookupHopsSig:vector  ETV
786511	118525 75 2442 15235 20.484 23.28973691515 3 4 16 30 372
vector 786512  Network.dyn_peer[83]  lookupStabilitySig:vector  ETV
786512	118600 118 2442 15235 20.484 23.28973691515 3 0.11111110448837 0.83606557548046 1.1471766680479 0.75135131927573
vector 786513  Network.dyn_peer[83]  lookupTimeSig:vector  ETV
786513	118718 79 2442 15235 20.484 23.28973691515 3 0.4 1.7 3.2 4.26
vector 787138  Network.dyn_peer[292]  lookupHopsSig:vector  ETV
787138	221488 107 2485 28971 20.493 29.102158267662 4 2 60 85 3893
vector 787139  Network.dyn_peer[292]  lookupStabilitySig:vector  ETV
787139	221595 165 2485 28971 20.493 29.102158267662 4 0.59999999403954 0.97611940279603 3.3002118133008 2.8153223912138
vector 787140  Network.dyn_peer[292]  lookupTimeSig:vector  ETV
787140	221760 113 2485 28971 20.493 29.102158267662 4 0.2 6.1 8.8 40.62
vector 786541  Network.dyn_peer[93]  lookupHopsSig:vector  ETV
786541	122671 104 2493 14438 20.494 23.10157899221 4 2 12 27 245
vector 786542  Network.dyn_peer[93]  lookupStabilitySig:vector  ETV
786542	122775 151 2493 14438 20.494 23.10157899221 4 -0.5 0.96078431233764 1.353091981262 1.6923964150231