file 228643 1369522352                                          
version 2
run Stability2-214-20130526-00:52:31-26640
attr configname Stability2
attr datetime 20130526-00:52:31
attr experiment Stability2
attr inifile omnetpp.ini
attr iterationvars $0=300
attr iterationvars2 "$0=300, $repetition=4"
attr measurement $0=300
attr network Network
attr processid 26640
attr repetition 4
attr replication #4
attr resultdir results
attr runnumber 214
attr seedset 214

vector 645214  Network.churner  inGoingSizeSig:vector  ETV
vector 642220  Network.dyn_peer[2]  lookupHopsSig:vector  ETV
vector 642221  Network.dyn_peer[2]  lookupStabilitySig:vector  ETV
vector 642222  Network.dyn_peer[2]  lookupTimeSig:vector  ETV
vector 642229  Network.dyn_peer[5]  lookupHopsSig:vector  ETV
vector 642230  Network.dyn_peer[5]  lookupStabilitySig:vector  ETV
vector 642231  Network.dyn_peer[5]  lookupTimeSig:vector  ETV
vector 642247  Network.dyn_peer[11]  lookupHopsSig:vector  ETV
vector 642248  Network.dyn_peer[11]  lookupStabilitySig:vector  ETV
vector 642249  Network.dyn_peer[11]  lookupTimeSig:vector  ETV
vector 642280  Network.dyn_peer[22]  lookupHopsSig:vector  ETV
vector 642281  Network.dyn_peer[22]  lookupStabilitySig:vector  ETV
vector 642282  Network.dyn_peer[22]  lookupTimeSig:vector  ETV
vector 642286  Network.dyn_peer[24]  lookupHopsSig:vector  ETV
vector 642287  Network.dyn_peer[24]  lookupStabilitySig:vector  ETV
vector 642288  Network.dyn_peer[24]  lookupTimeSig:vector  ETV
vector 642313  Network.dyn_peer[33]  lookupHopsSig:vector  ETV
vector 642314  Network.dyn_peer[33]  lookupStabilitySig:vector  ETV
vector 642315  Network.dyn_peer[33]  lookupTimeSig:vector  ETV
vector 642355  Network.dyn_peer[47]  lookupHopsSig:vector  ETV
vector 642356  Network.dyn_peer[47]  lookupStabilitySig:vector  ETV
vector 642357  Network.dyn_peer[47]  lookupTimeSig:vector  ETV
vector 642481  Network.dyn_peer[89]  lookupHopsSig:vector  ETV
vector 642482  Network.dyn_peer[89]  lookupStabilitySig:vector  ETV
vector 642483  Network.dyn_peer[89]  lookupTimeSig:vector  ETV
vector 642484  Network.dyn_peer[90]  lookupHopsSig:vector  ETV
vector 642485  Network.dyn_peer[90]  lookupStabilitySig:vector  ETV
vector 642486  Network.dyn_peer[90]  lookupTimeSig:vector  ETV
vector 642214  Network.dyn_peer[0]  lookupHopsSig:vector  ETV
vector 642215  Network.dyn_peer[0]  lookupStabilitySig:vector  ETV
vector 642216  Network.dyn_peer[0]  lookupTimeSig:vector  ETV
vector 642217  Network.dyn_peer[1]  lookupHopsSig:vector  ETV
vector 642218  Network.dyn_peer[1]  lookupStabilitySig:vector  ETV
vector 642219  Network.dyn_peer[1]  lookupTimeSig:vector  ETV
vector 642523  Network.dyn_peer[103]  lookupHopsSig:vector  ETV
vector 642524  Network.dyn_peer[103]  lookupStabilitySig:vector  ETV
vector 642525  Network.dyn_peer[103]  lookupTimeSig:vector  ETV
vector 642256  Network.dyn_peer[14]  lookupHopsSig:vector  ETV
vector 642257  Network.dyn_peer[14]  lookupStabilitySig:vector  ETV
vector 642258  Network.dyn_peer[14]  lookupTimeSig:vector  ETV
vector 642259  Network.dyn_peer[15]  lookupHopsSig:vector  ETV
vector 642260  Network.dyn_peer[15]  lookupStabilitySig:vector  ETV
vector 642261  Network.dyn_peer[15]  lookupTimeSig:vector  ETV
vector 642289  Network.dyn_peer[25]  lookupHopsSig:vector  ETV
vector 642290  Network.dyn_peer[25]  lookupStabilitySig:vector  ETV
vector 642291  Network.dyn_peer[25]  lookupTimeSig:vector  ETV
vector 642298  Network.dyn_peer[28]  lookupHopsSig:vector  ETV
vector 642299  Network.dyn_peer[28]  lookupStabilitySig:vector  ETV
vector 642300  Network.dyn_peer[28]  lookupTimeSig:vector  ETV
vector 642301  Network.dyn_peer[29]  lookupHopsSig:vector  ETV
vector 642302  Network.dyn_peer[29]  lookupStabilitySig:vector  ETV
vector 642303  Network.dyn_peer[29]  lookupTimeSig:vector  ETV
vector 642307  Network.dyn_peer[31]  lookupHopsSig:vector  ETV
vector 642308  Network.dyn_peer[31]  lookupStabilitySig:vector  ETV
vector 642309  Network.dyn_peer[31]  lookupTimeSig:vector  ETV
vector 642607  Network.dyn_peer[131]  lookupHopsSig:vector  ETV
vector 642608  Network.dyn_peer[131]  lookupStabilitySig:vector  ETV
vector 642609  Network.dyn_peer[131]  lookupTimeSig:vector  ETV
vector 642337  Network.dyn_peer[41]  lookupHopsSig:vector  ETV
vector 642338  Network.dyn_peer[41]  lookupStabilitySig:vector  ETV
vector 642339  Network.dyn_peer[41]  lookupTimeSig:vector  ETV
vector 642427  Network.dyn_peer[71]  lookupHopsSig:vector  ETV
vector 642428  Network.dyn_peer[71]  lookupStabilitySig:vector  ETV
vector 642429  Network.dyn_peer[71]  lookupTimeSig:vector  ETV
vector 642466  Network.dyn_peer[84]  lookupHopsSig:vector  ETV
vector 642467  Network.dyn_peer[84]  lookupStabilitySig:vector  ETV
vector 642468  Network.dyn_peer[84]  lookupTimeSig:vector  ETV
vector 642490  Network.dyn_peer[92]  lookupHopsSig:vector  ETV
vector 642491  Network.dyn_peer[92]  lookupStabilitySig:vector  ETV
vector 642492  Network.dyn_peer[92]  lookupTimeSig:vector  ETV
vector 642526  Network.dyn_peer[104]  lookupHopsSig:vector  ETV
vector 642527  Network.dyn_peer[104]  lookupStabilitySig:vector  ETV
vector 642528  Network.dyn_peer[104]  lookupTimeSig:vector  ETV
vector 642265  Network.dyn_peer[17]  lookupHopsSig:vector  ETV
vector 642266  Network.dyn_peer[17]  lookupStabilitySig:vector  ETV
vector 642267  Network.dyn_peer[17]  lookupTimeSig:vector  ETV
vector 642598  Network.dyn_peer[128]  lookupHopsSig:vector  ETV
vector 642599  Network.dyn_peer[128]  lookupStabilitySig:vector  ETV
vector 642600  Network.dyn_peer[128]  lookupTimeSig:vector  ETV
vector 642898  Network.dyn_peer[228]  lookupHopsSig:vector  ETV
vector 642899  Network.dyn_peer[228]  lookupStabilitySig:vector  ETV
vector 642900  Network.dyn_peer[228]  lookupTimeSig:vector  ETV
vector 642310  Network.dyn_peer[32]  lookupHopsSig:vector  ETV
vector 642311  Network.dyn_peer[32]  lookupStabilitySig:vector  ETV
vector 642312  Network.dyn_peer[32]  lookupTimeSig:vector  ETV
vector 642625  Network.dyn_peer[137]  lookupHopsSig:vector  ETV
vector 642626  Network.dyn_peer[137]  lookupStabilitySig:vector  ETV
vector 642627  Network.dyn_peer[137]  lookupTimeSig:vector  ETV
vector 642631  Network.dyn_peer[139]  lookupHopsSig:vector  ETV
vector 642632  Network.dyn_peer[139]  lookupStabilitySig:vector  ETV
vector 642633  Network.dyn_peer[139]  lookupTimeSig:vector  ETV
vector 642334  Network.dyn_peer[40]  lookupHopsSig:vector  ETV
vector 642335  Network.dyn_peer[40]  lookupStabilitySig:vector  ETV
vector 642336  Network.dyn_peer[40]  lookupTimeSig:vector  ETV
vector 642640  Network.dyn_peer[142]  lookupHopsSig:vector  ETV
vector 642641  Network.dyn_peer[142]  lookupStabilitySig:vector  ETV
vector 642642  Network.dyn_peer[142]  lookupTimeSig:vector  ETV
vector 642352  Network.dyn_peer[46]  lookupHopsSig:vector  ETV
vector 642353  Network.dyn_peer[46]  lookupStabilitySig:vector  ETV
vector 642354  Network.dyn_peer[46]  lookupTimeSig:vector  ETV
vector 642655  Network.dyn_peer[147]  lookupHopsSig:vector  ETV
vector 642656  Network.dyn_peer[147]  lookupStabilitySig:vector  ETV
vector 642657  Network.dyn_peer[147]  lookupTimeSig:vector  ETV
vector 642358  Network.dyn_peer[48]  lookupHopsSig:vector  ETV
vector 642359  Network.dyn_peer[48]  lookupStabilitySig:vector  ETV
vector 642360  Network.dyn_peer[48]  lookupTimeSig:vector  ETV
vector 642697  Network.dyn_peer[161]  lookupHopsSig:vector  ETV
vector 642698  Network.dyn_peer[161]  lookupStabilitySig:vector  ETV
vector 642699  Network.dyn_peer[161]  lookupTimeSig:vector  ETV
vector 642721  Network.dyn_peer[169]  lookupHopsSig:vector  ETV
vector 642722  Network.dyn_peer[169]  lookupStabilitySig:vector  ETV
vector 642723  Network.dyn_peer[169]  lookupTimeSig:vector  ETV
vector 642424  Network.dyn_peer[70]  lookupHopsSig:vector  ETV
vector 642425  Network.dyn_peer[70]  lookupStabilitySig:vector  ETV
vector 642426  Network.dyn_peer[70]  lookupTimeSig:vector  ETV
vector 642433  Network.dyn_peer[73]  lookupHopsSig:vector  ETV
vector 642434  Network.dyn_peer[73]  lookupStabilitySig:vector  ETV
vector 642435  Network.dyn_peer[73]  lookupTimeSig:vector  ETV
vector 642436  Network.dyn_peer[74]  lookupHopsSig:vector  ETV
vector 642437  Network.dyn_peer[74]  lookupStabilitySig:vector  ETV
vector 642438  Network.dyn_peer[74]  lookupTimeSig:vector  ETV
vector 642472  Network.dyn_peer[86]  lookupHopsSig:vector  ETV
vector 642473  Network.dyn_peer[86]  lookupStabilitySig:vector  ETV
vector 642474  Network.dyn_peer[86]  lookupTimeSig:vector  ETV
vector 642223  Network.dyn_peer[3]  lookupHopsSig:vector  ETV
vector 642224  Network.dyn_peer[3]  lookupStabilitySig:vector  ETV
vector 642225  Network.dyn_peer[3]  lookupTimeSig:vector  ETV
vector 642877  Network.dyn_peer[221]  lookupHopsSig:vector  ETV
vector 642878  Network.dyn_peer[221]  lookupStabilitySig:vector  ETV
vector 642879  Network.dyn_peer[221]  lookupTimeSig:vector  ETV
vector 642304  Network.dyn_peer[30]  lookupHopsSig:vector  ETV
vector 642305  Network.dyn_peer[30]  lookupStabilitySig:vector  ETV
vector 642306  Network.dyn_peer[30]  lookupTimeSig:vector  ETV
vector 642919  Network.dyn_peer[235]  lookupHopsSig:vector  ETV
vector 642920  Network.dyn_peer[235]  lookupStabilitySig:vector  ETV
vector 642921  Network.dyn_peer[235]  lookupTimeSig:vector  ETV
vector 642940  Network.dyn_peer[242]  lookupHopsSig:vector  ETV
vector 642941  Network.dyn_peer[242]  lookupStabilitySig:vector  ETV
vector 642942  Network.dyn_peer[242]  lookupTimeSig:vector  ETV
vector 642373  Network.dyn_peer[53]  lookupHopsSig:vector  ETV
vector 642374  Network.dyn_peer[53]  lookupStabilitySig:vector  ETV
vector 642375  Network.dyn_peer[53]  lookupTimeSig:vector  ETV
vector 642673  Network.dyn_peer[153]  lookupHopsSig:vector  ETV
vector 642674  Network.dyn_peer[153]  lookupStabilitySig:vector  ETV
vector 642675  Network.dyn_peer[153]  lookupTimeSig:vector  ETV
vector 642403  Network.dyn_peer[63]  lookupHopsSig:vector  ETV
vector 642404  Network.dyn_peer[63]  lookupStabilitySig:vector  ETV
vector 642405  Network.dyn_peer[63]  lookupTimeSig:vector  ETV
vector 642718  Network.dyn_peer[168]  lookupHopsSig:vector  ETV
vector 642719  Network.dyn_peer[168]  lookupStabilitySig:vector  ETV
vector 642720  Network.dyn_peer[168]  lookupTimeSig:vector  ETV
vector 643075  Network.dyn_peer[287]  lookupHopsSig:vector  ETV
vector 643076  Network.dyn_peer[287]  lookupStabilitySig:vector  ETV
vector 643077  Network.dyn_peer[287]  lookupTimeSig:vector  ETV
vector 642535  Network.dyn_peer[107]  lookupHopsSig:vector  ETV
vector 642536  Network.dyn_peer[107]  lookupStabilitySig:vector  ETV
vector 642537  Network.dyn_peer[107]  lookupTimeSig:vector  ETV
vector 642859  Network.dyn_peer[215]  lookupHopsSig:vector  ETV
vector 642860  Network.dyn_peer[215]  lookupStabilitySig:vector  ETV
vector 642861  Network.dyn_peer[215]  lookupTimeSig:vector  ETV
vector 642577  Network.dyn_peer[121]  lookupHopsSig:vector  ETV
vector 642578  Network.dyn_peer[121]  lookupStabilitySig:vector  ETV
vector 642579  Network.dyn_peer[121]  lookupTimeSig:vector  ETV
vector 642295  Network.dyn_peer[27]  lookupHopsSig:vector  ETV
vector 642296  Network.dyn_peer[27]  lookupStabilitySig:vector  ETV
vector 642297  Network.dyn_peer[27]  lookupTimeSig:vector  ETV
vector 642961  Network.dyn_peer[249]  lookupHopsSig:vector  ETV
vector 642962  Network.dyn_peer[249]  lookupStabilitySig:vector  ETV
vector 642963  Network.dyn_peer[249]  lookupTimeSig:vector  ETV
vector 642367  Network.dyn_peer[51]  lookupHopsSig:vector  ETV
vector 642368  Network.dyn_peer[51]  lookupStabilitySig:vector  ETV
vector 642369  Network.dyn_peer[51]  lookupTimeSig:vector  ETV
vector 642979  Network.dyn_peer[255]  lookupHopsSig:vector  ETV
vector 642980  Network.dyn_peer[255]  lookupStabilitySig:vector  ETV
vector 642981  Network.dyn_peer[255]  lookupTimeSig:vector  ETV
vector 642985  Network.dyn_peer[257]  lookupHopsSig:vector  ETV
vector 642986  Network.dyn_peer[257]  lookupStabilitySig:vector  ETV
vector 642987  Network.dyn_peer[257]  lookupTimeSig:vector  ETV
vector 642691  Network.dyn_peer[159]  lookupHopsSig:vector  ETV
vector 642692  Network.dyn_peer[159]  lookupStabilitySig:vector  ETV
vector 642693  Network.dyn_peer[159]  lookupTimeSig:vector  ETV
vector 643006  Network.dyn_peer[264]  lookupHopsSig:vector  ETV
vector 643007  Network.dyn_peer[264]  lookupStabilitySig:vector  ETV
vector 643008  Network.dyn_peer[264]  lookupTimeSig:vector  ETV
vector 642493  Network.dyn_peer[93]  lookupHopsSig:vector  ETV
vector 642494  Network.dyn_peer[93]  lookupStabilitySig:vector  ETV
vector 642495  Network.dyn_peer[93]  lookupTimeSig:vector  ETV
vector 642808  Network.dyn_peer[198]  lookupHopsSig:vector  ETV
vector 642809  Network.dyn_peer[198]  lookupStabilitySig:vector  ETV
vector 642810  Network.dyn_peer[198]  lookupTimeSig:vector  ETV
vector 642238  Network.dyn_peer[8]  lookupHopsSig:vector  ETV
vector 642239  Network.dyn_peer[8]  lookupStabilitySig:vector  ETV
vector 642240  Network.dyn_peer[8]  lookupTimeSig:vector  ETV
vector 642562  Network.dyn_peer[116]  lookupHopsSig:vector  ETV
vector 642563  Network.dyn_peer[116]  lookupStabilitySig:vector  ETV
vector 642564  Network.dyn_peer[116]  lookupTimeSig:vector  ETV
vector 642892  Network.dyn_peer[226]  lookupHopsSig:vector  ETV
vector 642893  Network.dyn_peer[226]  lookupStabilitySig:vector  ETV
vector 642894  Network.dyn_peer[226]  lookupTimeSig:vector  ETV
vector 642361  Network.dyn_peer[49]  lookupHopsSig:vector  ETV
vector 642362  Network.dyn_peer[49]  lookupStabilitySig:vector  ETV
vector 642363  Network.dyn_peer[49]  lookupTimeSig:vector  ETV
vector 642991  Network.dyn_peer[259]  lookupHopsSig:vector  ETV
vector 642992  Network.dyn_peer[259]  lookupStabilitySig:vector  ETV
vector 642993  Network.dyn_peer[259]  lookupTimeSig:vector  ETV
vector 642700  Network.dyn_peer[162]  lookupHopsSig:vector  ETV
vector 642701  Network.dyn_peer[162]  lookupStabilitySig:vector  ETV
vector 642702  Network.dyn_peer[162]  lookupTimeSig:vector  ETV
vector 642418  Network.dyn_peer[68]  lookupHopsSig:vector  ETV
vector 642419  Network.dyn_peer[68]  lookupStabilitySig:vector  ETV
vector 642420  Network.dyn_peer[68]  lookupTimeSig:vector  ETV
vector 642442  Network.dyn_peer[76]  lookupHopsSig:vector  ETV
vector 642443  Network.dyn_peer[76]  lookupStabilitySig:vector  ETV
vector 642444  Network.dyn_peer[76]  lookupTimeSig:vector  ETV
vector 642817  Network.dyn_peer[201]  lookupHopsSig:vector  ETV
vector 642818  Network.dyn_peer[201]  lookupStabilitySig:vector  ETV
vector 642819  Network.dyn_peer[201]  lookupTimeSig:vector  ETV
vector 642541  Network.dyn_peer[109]  lookupHopsSig:vector  ETV
vector 642542  Network.dyn_peer[109]  lookupStabilitySig:vector  ETV
vector 642543  Network.dyn_peer[109]  lookupTimeSig:vector  ETV
vector 642253  Network.dyn_peer[13]  lookupHopsSig:vector  ETV
vector 642254  Network.dyn_peer[13]  lookupStabilitySig:vector  ETV
vector 642255  Network.dyn_peer[13]  lookupTimeSig:vector  ETV
vector 642262  Network.dyn_peer[16]  lookupHopsSig:vector  ETV
vector 642263  Network.dyn_peer[16]  lookupStabilitySig:vector  ETV
vector 642264  Network.dyn_peer[16]  lookupTimeSig:vector  ETV
vector 642880  Network.dyn_peer[222]  lookupHopsSig:vector  ETV
vector 642881  Network.dyn_peer[222]  lookupStabilitySig:vector  ETV
vector 642882  Network.dyn_peer[222]  lookupTimeSig:vector  ETV
vector 642895  Network.dyn_peer[227]  lookupHopsSig:vector  ETV
vector 642896  Network.dyn_peer[227]  lookupStabilitySig:vector  ETV
vector 642897  Network.dyn_peer[227]  lookupTimeSig:vector  ETV
vector 642901  Network.dyn_peer[229]  lookupHopsSig:vector  ETV
vector 642902  Network.dyn_peer[229]  lookupStabilitySig:vector  ETV
vector 642903  Network.dyn_peer[229]  lookupTimeSig:vector  ETV
vector 642322  Network.dyn_peer[36]  lookupHopsSig:vector  ETV
vector 642323  Network.dyn_peer[36]  lookupStabilitySig:vector  ETV
vector 642324  Network.dyn_peer[36]  lookupTimeSig:vector  ETV
vector 642649  Network.dyn_peer[145]  lookupHopsSig:vector  ETV
vector 642650  Network.dyn_peer[145]  lookupStabilitySig:vector  ETV
vector 642651  Network.dyn_peer[145]  lookupTimeSig:vector  ETV
vector 642376  Network.dyn_peer[54]  lookupHopsSig:vector  ETV
vector 642377  Network.dyn_peer[54]  lookupStabilitySig:vector  ETV
vector 642378  Network.dyn_peer[54]  lookupTimeSig:vector  ETV
vector 642400  Network.dyn_peer[62]  lookupHopsSig:vector  ETV
vector 642401  Network.dyn_peer[62]  lookupStabilitySig:vector  ETV
vector 642402  Network.dyn_peer[62]  lookupTimeSig:vector  ETV
vector 643012  Network.dyn_peer[266]  lookupHopsSig:vector  ETV
vector 643013  Network.dyn_peer[266]  lookupStabilitySig:vector  ETV
vector 643014  Network.dyn_peer[266]  lookupTimeSig:vector  ETV
vector 642430  Network.dyn_peer[72]  lookupHopsSig:vector  ETV
vector 642431  Network.dyn_peer[72]  lookupStabilitySig:vector  ETV
vector 642432  Network.dyn_peer[72]  lookupTimeSig:vector  ETV
vector 642448  Network.dyn_peer[78]  lookupHopsSig:vector  ETV
vector 642449  Network.dyn_peer[78]  lookupStabilitySig:vector  ETV
vector 642450  Network.dyn_peer[78]  lookupTimeSig:vector  ETV
vector 643063  Network.dyn_peer[283]  lookupHopsSig:vector  ETV
vector 643064  Network.dyn_peer[283]  lookupStabilitySig:vector  ETV
vector 643065  Network.dyn_peer[283]  lookupTimeSig:vector  ETV
vector 642796  Network.dyn_peer[194]  lookupHopsSig:vector  ETV
vector 642797  Network.dyn_peer[194]  lookupStabilitySig:vector  ETV
vector 642798  Network.dyn_peer[194]  lookupTimeSig:vector  ETV
vector 642811  Network.dyn_peer[199]  lookupHopsSig:vector  ETV
vector 642812  Network.dyn_peer[199]  lookupStabilitySig:vector  ETV
vector 642813  Network.dyn_peer[199]  lookupTimeSig:vector  ETV
vector 642550  Network.dyn_peer[112]  lookupHopsSig:vector  ETV
vector 642551  Network.dyn_peer[112]  lookupStabilitySig:vector  ETV
vector 642552  Network.dyn_peer[112]  lookupTimeSig:vector  ETV
vector 642268  Network.dyn_peer[18]  lookupHopsSig:vector  ETV
vector 642269  Network.dyn_peer[18]  lookupStabilitySig:vector  ETV
vector 642270  Network.dyn_peer[18]  lookupTimeSig:vector  ETV
vector 642574  Network.dyn_peer[120]  lookupHopsSig:vector  ETV
vector 642575  Network.dyn_peer[120]  lookupStabilitySig:vector  ETV
vector 642576  Network.dyn_peer[120]  lookupTimeSig:vector  ETV
vector 642604  Network.dyn_peer[130]  lookupHopsSig:vector  ETV
vector 642605  Network.dyn_peer[130]  lookupStabilitySig:vector  ETV
vector 642606  Network.dyn_peer[130]  lookupTimeSig:vector  ETV
vector 642325  Network.dyn_peer[37]  lookupHopsSig:vector  ETV
vector 642326  Network.dyn_peer[37]  lookupStabilitySig:vector  ETV
vector 642327  Network.dyn_peer[37]  lookupTimeSig:vector  ETV
vector 642370  Network.dyn_peer[52]  lookupHopsSig:vector  ETV
vector 642371  Network.dyn_peer[52]  lookupStabilitySig:vector  ETV
vector 642372  Network.dyn_peer[52]  lookupTimeSig:vector  ETV
vector 642676  Network.dyn_peer[154]  lookupHopsSig:vector  ETV
vector 642677  Network.dyn_peer[154]  lookupStabilitySig:vector  ETV
vector 642678  Network.dyn_peer[154]  lookupTimeSig:vector  ETV
vector 642478  Network.dyn_peer[88]  lookupHopsSig:vector  ETV
vector 642479  Network.dyn_peer[88]  lookupStabilitySig:vector  ETV
vector 642480  Network.dyn_peer[88]  lookupTimeSig:vector  ETV
vector 642244  Network.dyn_peer[10]  lookupHopsSig:vector  ETV
vector 642245  Network.dyn_peer[10]  lookupStabilitySig:vector  ETV
vector 642246  Network.dyn_peer[10]  lookupTimeSig:vector  ETV
vector 642907  Network.dyn_peer[231]  lookupHopsSig:vector  ETV
vector 642908  Network.dyn_peer[231]  lookupStabilitySig:vector  ETV
vector 642909  Network.dyn_peer[231]  lookupTimeSig:vector  ETV
vector 642619  Network.dyn_peer[135]  lookupHopsSig:vector  ETV
vector 642620  Network.dyn_peer[135]  lookupStabilitySig:vector  ETV
vector 642621  Network.dyn_peer[135]  lookupTimeSig:vector  ETV
vector 642340  Network.dyn_peer[42]  lookupHopsSig:vector  ETV
vector 642341  Network.dyn_peer[42]  lookupStabilitySig:vector  ETV
vector 642342  Network.dyn_peer[42]  lookupTimeSig:vector  ETV
vector 642379  Network.dyn_peer[55]  lookupHopsSig:vector  ETV
vector 642380  Network.dyn_peer[55]  lookupStabilitySig:vector  ETV
vector 642381  Network.dyn_peer[55]  lookupTimeSig:vector  ETV
vector 642382  Network.dyn_peer[56]  lookupHopsSig:vector  ETV
vector 642383  Network.dyn_peer[56]  lookupStabilitySig:vector  ETV
vector 642384  Network.dyn_peer[56]  lookupTimeSig:vector  ETV
vector 642391  Network.dyn_peer[59]  lookupHopsSig:vector  ETV
vector 642392  Network.dyn_peer[59]  lookupStabilitySig:vector  ETV
vector 642393  Network.dyn_peer[59]  lookupTimeSig:vector  ETV
vector 643000  Network.dyn_peer[262]  lookupHopsSig:vector  ETV
vector 643001  Network.dyn_peer[262]  lookupStabilitySig:vector  ETV
vector 643002  Network.dyn_peer[262]  lookupTimeSig:vector  ETV
vector 643009  Network.dyn_peer[265]  lookupHopsSig:vector  ETV
vector 643010  Network.dyn_peer[265]  lookupStabilitySig:vector  ETV
vector 643011  Network.dyn_peer[265]  lookupTimeSig:vector  ETV
vector 642724  Network.dyn_peer[170]  lookupHopsSig:vector  ETV
vector 642725  Network.dyn_peer[170]  lookupStabilitySig:vector  ETV
vector 642726  Network.dyn_peer[170]  lookupTimeSig:vector  ETV
vector 642772  Network.dyn_peer[186]  lookupHopsSig:vector  ETV
vector 642773  Network.dyn_peer[186]  lookupStabilitySig:vector  ETV
vector 642774  Network.dyn_peer[186]  lookupTimeSig:vector  ETV
vector 642232  Network.dyn_peer[6]  lookupHopsSig:vector  ETV
vector 642233  Network.dyn_peer[6]  lookupStabilitySig:vector  ETV
vector 642234  Network.dyn_peer[6]  lookupTimeSig:vector  ETV
vector 642844  Network.dyn_peer[210]  lookupHopsSig:vector  ETV
vector 642845  Network.dyn_peer[210]  lookupStabilitySig:vector  ETV
vector 642846  Network.dyn_peer[210]  lookupTimeSig:vector  ETV
vector 642565  Network.dyn_peer[117]  lookupHopsSig:vector  ETV
vector 642566  Network.dyn_peer[117]  lookupStabilitySig:vector  ETV
vector 642567  Network.dyn_peer[117]  lookupTimeSig:vector  ETV
vector 642316  Network.dyn_peer[34]  lookupHopsSig:vector  ETV
vector 642317  Network.dyn_peer[34]  lookupStabilitySig:vector  ETV
vector 642318  Network.dyn_peer[34]  lookupTimeSig:vector  ETV
vector 642328  Network.dyn_peer[38]  lookupHopsSig:vector  ETV
vector 642329  Network.dyn_peer[38]  lookupStabilitySig:vector  ETV
vector 642330  Network.dyn_peer[38]  lookupTimeSig:vector  ETV
vector 642628  Network.dyn_peer[138]  lookupHopsSig:vector  ETV
vector 642629  Network.dyn_peer[138]  lookupStabilitySig:vector  ETV
vector 642630  Network.dyn_peer[138]  lookupTimeSig:vector  ETV
vector 643030  Network.dyn_peer[272]  lookupHopsSig:vector  ETV
vector 643031  Network.dyn_peer[272]  lookupStabilitySig:vector  ETV
vector 643032  Network.dyn_peer[272]  lookupTimeSig:vector  ETV
vector 643036  Network.dyn_peer[274]  lookupHopsSig:vector  ETV
vector 643037  Network.dyn_peer[274]  lookupStabilitySig:vector  ETV
vector 643038  Network.dyn_peer[274]  lookupTimeSig:vector  ETV
vector 643060  Network.dyn_peer[282]  lookupHopsSig:vector  ETV
vector 643061  Network.dyn_peer[282]  lookupStabilitySig:vector  ETV
vector 643062  Network.dyn_peer[282]  lookupTimeSig:vector  ETV
vector 643081  Network.dyn_peer[289]  lookupHopsSig:vector  ETV
vector 643082  Network.dyn_peer[289]  lookupStabilitySig:vector  ETV
vector 643083  Network.dyn_peer[289]  lookupTimeSig:vector  ETV
vector 643099  Network.dyn_peer[295]  lookupHopsSig:vector  ETV
vector 643100  Network.dyn_peer[295]  lookupStabilitySig:vector  ETV
vector 643101  Network.dyn_peer[295]  lookupTimeSig:vector  ETV
vector 642802  Network.dyn_peer[196]  lookupHopsSig:vector  ETV
vector 642803  Network.dyn_peer[196]  lookupStabilitySig:vector  ETV
vector 642804  Network.dyn_peer[196]  lookupTimeSig:vector  ETV
vector 642556  Network.dyn_peer[114]  lookupHopsSig:vector  ETV
vector 642557  Network.dyn_peer[114]  lookupStabilitySig:vector  ETV
vector 642558  Network.dyn_peer[114]  lookupTimeSig:vector  ETV
vector 642586  Network.dyn_peer[124]  lookupHopsSig:vector  ETV
vector 642587  Network.dyn_peer[124]  lookupStabilitySig:vector  ETV
vector 642588  Network.dyn_peer[124]  lookupTimeSig:vector  ETV
vector 643024  Network.dyn_peer[270]  lookupHopsSig:vector  ETV
vector 643025  Network.dyn_peer[270]  lookupStabilitySig:vector  ETV
vector 643026  Network.dyn_peer[270]  lookupTimeSig:vector  ETV
vector 642454  Network.dyn_peer[80]  lookupHopsSig:vector  ETV
vector 642455  Network.dyn_peer[80]  lookupStabilitySig:vector  ETV
vector 642456  Network.dyn_peer[80]  lookupTimeSig:vector  ETV
vector 642763  Network.dyn_peer[183]  lookupHopsSig:vector  ETV
vector 642764  Network.dyn_peer[183]  lookupStabilitySig:vector  ETV
vector 642765  Network.dyn_peer[183]  lookupTimeSig:vector  ETV
vector 643069  Network.dyn_peer[285]  lookupHopsSig:vector  ETV
vector 643070  Network.dyn_peer[285]  lookupStabilitySig:vector  ETV
vector 643071  Network.dyn_peer[285]  lookupTimeSig:vector  ETV
vector 643090  Network.dyn_peer[292]  lookupHopsSig:vector  ETV
vector 643091  Network.dyn_peer[292]  lookupStabilitySig:vector  ETV
vector 643092  Network.dyn_peer[292]  lookupTimeSig:vector  ETV
vector 642496  Network.dyn_peer[94]  lookupHopsSig:vector  ETV
vector 642497  Network.dyn_peer[94]  lookupStabilitySig:vector  ETV
vector 642498  Network.dyn_peer[94]  lookupTimeSig:vector  ETV
vector 642799  Network.dyn_peer[195]  lookupHopsSig:vector  ETV
vector 642800  Network.dyn_peer[195]  lookupStabilitySig:vector  ETV
vector 642801  Network.dyn_peer[195]  lookupTimeSig:vector  ETV
vector 642847  Network.dyn_peer[211]  lookupHopsSig:vector  ETV
vector 642848  Network.dyn_peer[211]  lookupStabilitySig:vector  ETV
vector 642849  Network.dyn_peer[211]  lookupTimeSig:vector  ETV
vector 642277  Network.dyn_peer[21]  lookupHopsSig:vector  ETV
vector 642278  Network.dyn_peer[21]  lookupStabilitySig:vector  ETV
vector 642279  Network.dyn_peer[21]  lookupTimeSig:vector  ETV
vector 642886  Network.dyn_peer[224]  lookupHopsSig:vector  ETV
vector 642887  Network.dyn_peer[224]  lookupStabilitySig:vector  ETV
vector 642888  Network.dyn_peer[224]  lookupTimeSig:vector  ETV
vector 642613  Network.dyn_peer[133]  lookupHopsSig:vector  ETV
vector 642614  Network.dyn_peer[133]  lookupStabilitySig:vector  ETV
vector 642615  Network.dyn_peer[133]  lookupTimeSig:vector  ETV
vector 642661  Network.dyn_peer[149]  lookupHopsSig:vector  ETV
vector 642662  Network.dyn_peer[149]  lookupStabilitySig:vector  ETV
vector 642663  Network.dyn_peer[149]  lookupTimeSig:vector  ETV
vector 642964  Network.dyn_peer[250]  lookupHopsSig:vector  ETV
vector 642965  Network.dyn_peer[250]  lookupStabilitySig:vector  ETV
vector 642966  Network.dyn_peer[250]  lookupTimeSig:vector  ETV
vector 642967  Network.dyn_peer[251]  lookupHopsSig:vector  ETV
vector 642968  Network.dyn_peer[251]  lookupStabilitySig:vector  ETV
vector 642969  Network.dyn_peer[251]  lookupTimeSig:vector  ETV
vector 642688  Network.dyn_peer[158]  lookupHopsSig:vector  ETV
vector 642689  Network.dyn_peer[158]  lookupStabilitySig:vector  ETV
vector 642690  Network.dyn_peer[158]  lookupTimeSig:vector  ETV
vector 642415  Network.dyn_peer[67]  lookupHopsSig:vector  ETV
vector 642416  Network.dyn_peer[67]  lookupStabilitySig:vector  ETV
vector 642417  Network.dyn_peer[67]  lookupTimeSig:vector  ETV
vector 643033  Network.dyn_peer[273]  lookupHopsSig:vector  ETV
vector 643034  Network.dyn_peer[273]  lookupStabilitySig:vector  ETV
vector 643035  Network.dyn_peer[273]  lookupTimeSig:vector  ETV
vector 642469  Network.dyn_peer[85]  lookupHopsSig:vector  ETV
vector 642470  Network.dyn_peer[85]  lookupStabilitySig:vector  ETV
vector 642471  Network.dyn_peer[85]  lookupTimeSig:vector  ETV
vector 642787  Network.dyn_peer[191]  lookupHopsSig:vector  ETV
vector 642788  Network.dyn_peer[191]  lookupStabilitySig:vector  ETV
vector 642789  Network.dyn_peer[191]  lookupTimeSig:vector  ETV
vector 643087  Network.dyn_peer[291]  lookupHopsSig:vector  ETV
vector 643088  Network.dyn_peer[291]  lookupStabilitySig:vector  ETV
vector 643089  Network.dyn_peer[291]  lookupTimeSig:vector  ETV
vector 643105  Network.dyn_peer[297]  lookupHopsSig:vector  ETV
vector 643106  Network.dyn_peer[297]  lookupStabilitySig:vector  ETV
vector 643107  Network.dyn_peer[297]  lookupTimeSig:vector  ETV
vector 642511  Network.dyn_peer[99]  lookupHopsSig:vector  ETV
vector 642512  Network.dyn_peer[99]  lookupStabilitySig:vector  ETV
vector 642513  Network.dyn_peer[99]  lookupTimeSig:vector  ETV
vector 642856  Network.dyn_peer[214]  lookupHopsSig:vector  ETV
vector 642857  Network.dyn_peer[214]  lookupStabilitySig:vector  ETV
vector 642858  Network.dyn_peer[214]  lookupTimeSig:vector  ETV
vector 642871  Network.dyn_peer[219]  lookupHopsSig:vector  ETV
vector 642872  Network.dyn_peer[219]  lookupStabilitySig:vector  ETV
vector 642873  Network.dyn_peer[219]  lookupTimeSig:vector  ETV
vector 642595  Network.dyn_peer[127]  lookupHopsSig:vector  ETV
vector 642596  Network.dyn_peer[127]  lookupStabilitySig:vector  ETV
vector 642597  Network.dyn_peer[127]  lookupTimeSig:vector  ETV
vector 642634  Network.dyn_peer[140]  lookupHopsSig:vector  ETV
vector 642635  Network.dyn_peer[140]  lookupStabilitySig:vector  ETV
vector 642636  Network.dyn_peer[140]  lookupTimeSig:vector  ETV
vector 642349  Network.dyn_peer[45]  lookupHopsSig:vector  ETV
vector 642350  Network.dyn_peer[45]  lookupStabilitySig:vector  ETV
vector 642351  Network.dyn_peer[45]  lookupTimeSig:vector  ETV
vector 642685  Network.dyn_peer[157]  lookupHopsSig:vector  ETV
vector 642686  Network.dyn_peer[157]  lookupStabilitySig:vector  ETV
vector 642687  Network.dyn_peer[157]  lookupTimeSig:vector  ETV
vector 642409  Network.dyn_peer[65]  lookupHopsSig:vector  ETV
vector 642410  Network.dyn_peer[65]  lookupStabilitySig:vector  ETV
vector 642411  Network.dyn_peer[65]  lookupTimeSig:vector  ETV
vector 642445  Network.dyn_peer[77]  lookupHopsSig:vector  ETV
vector 642446  Network.dyn_peer[77]  lookupStabilitySig:vector  ETV