file 18331 1369674134                                           
version 2
run Stability2-63-20130526-00:51:24-26640
attr configname Stability2
attr datetime 20130526-00:51:24
attr experiment Stability2
attr inifile omnetpp.ini
attr iterationvars $0=30
attr iterationvars2 "$0=30, $repetition=3"
attr measurement $0=30
attr network Network
attr processid 26640
attr repetition 3
attr replication #3
attr resultdir results
attr runnumber 63
attr seedset 63
vector 192063  Network.churner  inGoingSizeSig:vector  ETV
192063	17721 610 10 126 20 20.03 31 0 29 435 8555
vector 189084  Network.dyn_peer[7]  lookupHopsSig:vector  ETV
189084	8709 106 38 617 20.008 20.933071222367 4 0 3 6 14
vector 189085  Network.dyn_peer[7]  lookupStabilitySig:vector  ETV
189085	8815 151 38 617 20.008 20.933071222367 4 0.39999997615814 1 3.0868686586618 2.5913845260217
vector 189086  Network.dyn_peer[7]  lookupTimeSig:vector  ETV
189086	8966 112 38 617 20.008 20.933071222367 4 0 0.4 0.9 0.29
vector 189102  Network.dyn_peer[13]  lookupHopsSig:vector  ETV
189102	11133 126 64 738 20.014 21.232988555659 5 0 5 8 28
vector 189103  Network.dyn_peer[13]  lookupStabilitySig:vector  ETV
189103	11259 185 64 738 20.014 21.232988555659 5 0.28571426868439 1 4.0499676577747 3.6295167896509
vector 189104  Network.dyn_peer[13]  lookupTimeSig:vector  ETV
189104	11444 134 64 738 20.014 21.232988555659 5 0 0.6 1.2 0.48
vector 189105  Network.dyn_peer[14]  lookupHopsSig:vector  ETV
189105	11578 155 73 829 20.015 21.530959204724 6 0 3 9 19
vector 189106  Network.dyn_peer[14]  lookupStabilitySig:vector  ETV
189106	11733 230 73 829 20.015 21.530959204724 6 0.59999999403954 1 5.0433333106339 4.3796555234051
vector 189107  Network.dyn_peer[14]  lookupTimeSig:vector  ETV
189107	11963 165 73 829 20.015 21.530959204724 6 0 0.4 1.4 0.42
vector 189138  Network.dyn_peer[25]  lookupHopsSig:vector  ETV
189138	16463 99 116 852 20.026 21.636652693537 4 0 10 13 105
vector 189139  Network.dyn_peer[25]  lookupStabilitySig:vector  ETV
189139	16562 143 116 852 20.026 21.636652693537 4 0.33333331346512 1 3.2063767910004 2.8663594898193
vector 189140  Network.dyn_peer[25]  lookupTimeSig:vector  ETV
189140	16705 104 116 852 20.026 21.636652693537 4 0 1.1 1.6 1.34
vector 189150  Network.dyn_peer[29]  lookupHopsSig:vector  ETV
189150	17571 48 132 469 20.03 20.637059980728 2 0 5 5 25
vector 189151  Network.dyn_peer[29]  lookupStabilitySig:vector  ETV
189151	17619 52 132 469 20.03 20.637059980728 2 0.375 1 1.375 1.140625
vector 189152  Network.dyn_peer[29]  lookupTimeSig:vector  ETV
189152	17671 50 132 469 20.03 20.637059980728 2 0 0.6 0.6 0.36
vector 189063  Network.dyn_peer[0]  lookupHopsSig:vector  ETV
189063	6241 107 138 702 20.101 21.135843820632 4 1 4 8 22
vector 189064  Network.dyn_peer[0]  lookupStabilitySig:vector  ETV
189064	6348 167 138 702 20.101 21.135843820632 4 0.42857140302658 0.89999999850988 2.995238058269 2.3847845390993
vector 189065  Network.dyn_peer[0]  lookupTimeSig:vector  ETV
189065	6515 115 138 702 20.101 21.135843820632 4 0.1 0.5 1.1 0.39
vector 189072  Network.dyn_peer[3]  lookupHopsSig:vector  ETV
189072	7449 76 145 392 20.104 20.52119452317 3 1 1 3 3
vector 189073  Network.dyn_peer[3]  lookupStabilitySig:vector  ETV
189073	7525 121 145 392 20.104 20.52119452317 3 0.79999999701977 0.79999999701977 2.3999999910593 1.9199999856949
vector 189074  Network.dyn_peer[3]  lookupTimeSig:vector  ETV
189074	7646 82 145 392 20.104 20.52119452317 3 0.1 0.2 0.5 0.09
vector 189075  Network.dyn_peer[4]  lookupHopsSig:vector  ETV
189075	7728 69 150 745 20.105 21.314607808308 3 1 8 11 69
vector 189076  Network.dyn_peer[4]  lookupStabilitySig:vector  ETV
189076	7797 114 150 745 20.105 21.314607808308 3 0.33333331346512 0.89473684132099 2.0280701518059 1.5516651083143
vector 189077  Network.dyn_peer[4]  lookupTimeSig:vector  ETV
189077	7911 75 150 745 20.105 21.314607808308 3 0.1 0.9 1.3 0.91
vector 189081  Network.dyn_peer[6]  lookupHopsSig:vector  ETV
189081	8451 69 157 779 20.107 21.414839055203 3 1 8 12 74
vector 189082  Network.dyn_peer[6]  lookupStabilitySig:vector  ETV
189082	8520 114 157 779 20.107 21.414839055203 3 0.39999997615814 0.79999999701977 1.8190475851297 1.1832199220214
vector 189083  Network.dyn_peer[6]  lookupTimeSig:vector  ETV
189083	8634 75 157 779 20.107 21.414839055203 3 0.1 0.9 1.4 0.98
vector 189114  Network.dyn_peer[17]  lookupHopsSig:vector  ETV
189114	13167 97 175 572 20.118 20.838390094711 4 1 2 5 7
vector 189115  Network.dyn_peer[17]  lookupStabilitySig:vector  ETV
189115	13264 157 175 572 20.118 20.838390094711 4 0.79999999701977 0.83333332836628 3.2333333194256 2.6144444218609
vector 189116  Network.dyn_peer[17]  lookupTimeSig:vector  ETV
189116	13421 105 175 572 20.118 20.838390094711 4 0.1 0.3 0.8 0.18
vector 189120  Network.dyn_peer[19]  lookupHopsSig:vector  ETV
189120	13771 77 182 466 20.12 20.634658492501 3 1 2 4 6
vector 189121  Network.dyn_peer[19]  lookupStabilitySig:vector  ETV
189121	13848 122 182 466 20.12 20.634658492501 3 0.59999999403954 0.85714285075665 2.257142841816 1.7346938546823
vector 189122  Network.dyn_peer[19]  lookupTimeSig:vector  ETV
189122	13970 83 182 466 20.12 20.634658492501 3 0.1 0.3 0.6 0.14
vector 189132  Network.dyn_peer[23]  lookupHopsSig:vector  ETV
189132	15856 40 192 396 20.124 20.524 2 1 3 4 10
vector 189133  Network.dyn_peer[23]  lookupStabilitySig:vector  ETV
189133	15896 57 192 396 20.124 20.524 2 0.5 0.79999999701977 1.2999999970198 0.88999999523163
vector 189134  Network.dyn_peer[23]  lookupTimeSig:vector  ETV
189134	15953 44 192 396 20.124 20.524 2 0.1 0.4 0.5 0.17
vector 189066  Network.dyn_peer[1]  lookupHopsSig:vector  ETV
189066	6630 69 204 776 20.202 21.410586107676 3 1 9 12 86
vector 189067  Network.dyn_peer[1]  lookupStabilitySig:vector  ETV
189067	6699 114 204 776 20.202 21.410586107676 3 0.47058820724487 0.94999999925494 2.0205882005394 1.4839532522298
vector 189068  Network.dyn_peer[1]  lookupTimeSig:vector  ETV
189068	6813 73 204 776 20.202 21.410586107676 3 0.2 1 1.4 1.08
vector 189069  Network.dyn_peer[2]  lookupHopsSig:vector  ETV
189069	6886 154 209 965 20.203 22.739097004986 6 2 6 22 94
vector 189070  Network.dyn_peer[2]  lookupStabilitySig:vector  ETV
189070	7040 243 209 965 20.203 22.739097004986 6 0.45454543828964 0.92000000178814 4.5126406550407 3.5613675314973
vector 189071  Network.dyn_peer[2]  lookupTimeSig:vector  ETV
189071	7283 166 209 965 20.203 22.739097004986 6 0.2 0.7 2.7 1.39
vector 189078  Network.dyn_peer[5]  lookupHopsSig:vector  ETV
189078	7986 127 215 790 20.206 21.422093876218 5 1 3 10 22
vector 189079  Network.dyn_peer[5]  lookupStabilitySig:vector  ETV
189079	8113 201 215 790 20.206 21.422093876218 5 0.5714285671711 0.90909090638161 3.8376623168588 3.0576707402134
vector 189080  Network.dyn_peer[5]  lookupTimeSig:vector  ETV
189080	8314 137 215 790 20.206 21.422093876218 5 0.2 0.4 1.4 0.42
vector 189093  Network.dyn_peer[10]  lookupHopsSig:vector  ETV
189093	10280 98 224 634 20.211 21.017347717055 4 1 3 7 15
vector 189094  Network.dyn_peer[10]  lookupStabilitySig:vector  ETV
189094	10378 146 224 634 20.211 21.017347717055 4 0.59999999403954 0.85714285075665 3.007142841816 2.2971938546823
vector 189095  Network.dyn_peer[10]  lookupTimeSig:vector  ETV
189095	10524 106 224 634 20.211 21.017347717055 4 0.2 0.4 1 0.28
vector 189096  Network.dyn_peer[11]  lookupHopsSig:vector  ETV
189096	10630 69 229 814 20.212 21.517722199652 3 2 9 13 89
vector 189097  Network.dyn_peer[11]  lookupStabilitySig:vector  ETV
189097	10699 103 229 814 20.212 21.517722199652 3 0.59999999403954 0.625 1.8249999880791 1.1106249856949
vector 189098  Network.dyn_peer[11]  lookupTimeSig:vector  ETV
189098	10802 73 229 814 20.212 21.517722199652 3 0.2 1 1.5 1.13
vector 189117  Network.dyn_peer[18]  lookupHopsSig:vector  ETV
189117	13526 69 245 731 20.219 21.227164395669 3 2 5 10 38
vector 189118  Network.dyn_peer[18]  lookupStabilitySig:vector  ETV
189118	13595 101 245 731 20.219 21.227164395669 3 0.5 0.82352940738201 1.9235294014216 1.2882006776704
vector 189119  Network.dyn_peer[18]  lookupTimeSig:vector  ETV
189119	13696 75 245 731 20.219 21.227164395669 3 0.2 0.6 1.2 0.56
vector 189135  Network.dyn_peer[24]  lookupHopsSig:vector  ETV
189135	15997 127 256 811 20.225 21.444841410681 5 1 4 10 26
vector 189136  Network.dyn_peer[24]  lookupStabilitySig:vector  ETV
189136	16124 202 256 811 20.225 21.444841410681 5 0.59999999403954 0.91666666418314 3.9205313846469 3.1276356847165
vector 189137  Network.dyn_peer[24]  lookupTimeSig:vector  ETV
189137	16326 137 256 811 20.225 21.444841410681 5 0.2 0.5 1.4 0.46
vector 189126  Network.dyn_peer[21]  lookupHopsSig:vector  ETV
189126	14623 127 334 869 20.422 21.743338982682 5 2 4 13 37
vector 189127  Network.dyn_peer[21]  lookupStabilitySig:vector  ETV
189127	14750 202 334 869 20.422 21.743338982682 5 0.19999998807907 0.92592592537403 3.6056360378861 2.9720982871168
vector 189128  Network.dyn_peer[21]  lookupTimeSig:vector  ETV
189128	14952 137 334 869 20.422 21.743338982682 5 0.3 0.4 1.7 0.59
vector 189087  Network.dyn_peer[8]  lookupHopsSig:vector  ETV
189087	9078 69 366 675 20.509 21.119335371528 3 2 5 9 33
vector 189088  Network.dyn_peer[8]  lookupStabilitySig:vector  ETV
189088	9147 99 366 675 20.509 21.119335371528 3 0 0.85714285075665 1.6571428477764 1.3746938618349
vector 189089  Network.dyn_peer[8]  lookupTimeSig:vector  ETV
189089	9246 75 366 675 20.509 21.119335371528 3 0.3 0.5 1.1 0.43
vector 189090  Network.dyn_peer[9]  lookupHopsSig:vector  ETV
189090	9321 272 371 1009 20.51 23.580989866005 10 1 5 26 80
vector 189091  Network.dyn_peer[9]  lookupStabilitySig:vector  ETV
189091	9593 395 371 1009 20.51 23.580989866005 10 0 0.97058823518455 8.0666879732162 7.2710659197401
vector 189092  Network.dyn_peer[9]  lookupTimeSig:vector  ETV
189092	9988 292 371 1009 20.51 23.580989866005 10 0.2 0.5 3.5 1.31
vector 189147  Network.dyn_peer[28]  lookupHopsSig:vector  ETV
189147	17417 40 409 655 20.529 21.029 2 4 5 9 41
vector 189148  Network.dyn_peer[28]  lookupStabilitySig:vector  ETV
189148	17457 70 409 655 20.529 21.029 2 0.28571426868439 0.69230768084526 0.97802194952965 0.5609225682872
vector 189149  Network.dyn_peer[28]  lookupTimeSig:vector  ETV
189149	17527 44 409 655 20.529 21.029 2 0.5 0.5 1 0.5
vector 189099  Network.dyn_peer[12]  lookupHopsSig:vector  ETV
189099	10875 69 429 850 20.613 21.634679443943 3 4 6 14 68
vector 189100  Network.dyn_peer[12]  lookupStabilitySig:vector  ETV
189100	10944 114 429 850 20.613 21.634679443943 3 0.14285713434219 0.84000000357628 1.6971428394318 1.2362122302269
vector 189101  Network.dyn_peer[12]  lookupTimeSig:vector  ETV
189101	11058 75 429 850 20.613 21.634679443943 3 0.5 0.6 1.6 0.86
vector 189144  Network.dyn_peer[27]  lookupHopsSig:vector  ETV
189144	17159 69 462 704 20.628 21.136159437663 3 1 6 9 41
vector 189145  Network.dyn_peer[27]  lookupStabilitySig:vector  ETV
189145	17228 114 462 704 20.628 21.136159437663 3 0.14285713434219 0.89999999850988 1.9095237925649 1.581519257208
vector 189146  Network.dyn_peer[27]  lookupTimeSig:vector  ETV
189146	17342 75 462 704 20.628 21.136159437663 3 0.2 0.6 1.1 0.49
vector 189129  Network.dyn_peer[22]  lookupHopsSig:vector  ETV
189129	15089 214 498 996 20.723 23.177636236783 8 1 7 24 106
vector 189130  Network.dyn_peer[22]  lookupStabilitySig:vector  ETV
189130	15303 323 498 996 20.723 23.177636236783 8 0.22222220897675 0.96774193644524 6.5711389705539 5.8466787316884
vector 189131  Network.dyn_peer[22]  lookupTimeSig:vector  ETV
189131	15626 230 498 996 20.723 23.177636236783 8 0.2 0.7 3.1 1.47
vector 189141  Network.dyn_peer[26]  lookupHopsSig:vector  ETV
189141	16809 98 508 941 20.727 22.447007927419 4 1 8 21 139
vector 189142  Network.dyn_peer[26]  lookupStabilitySig:vector  ETV
189142	16907 146 508 941 20.727 22.447007927419 4 0.22222220897675 0.96000000089407 2.6465079113841 2.0436867752655
vector 189143  Network.dyn_peer[26]  lookupTimeSig:vector  ETV
189143	17053 106 508 941 20.727 22.447007927419 4 0.2 0.9 2.4 1.7
vector 189108  Network.dyn_peer[15]  lookupHopsSig:vector  ETV
189108	12128 127 538 945 20.816 22.523723459238 5 2 8 21 113
vector 189109  Network.dyn_peer[15]  lookupStabilitySig:vector  ETV
189109	12255 202 538 945 20.816 22.523723459238 5 0.19999998807907 0.93103448301554 3.6760080084205 3.0793567548105
vector 189110  Network.dyn_peer[15]  lookupTimeSig:vector  ETV
189110	12457 137 538 945 20.816 22.523723459238 5 0.3 0.8 2.5 1.43
vector 189111  Network.dyn_peer[16]  lookupHopsSig:vector  ETV
189111	12594 157 589 1001 20.917 23.336609255533 6 2 9 28 162
vector 189112  Network.dyn_peer[16]  lookupStabilitySig:vector  ETV
189112	12751 247 589 1001 20.917 23.336609255533 6 0.18181818723679 0.93548387289047 4.4938731789589 3.7634658866951
vector 189113  Network.dyn_peer[16]  lookupTimeSig:vector  ETV
189113	12998 169 589 1001 20.917 23.336609255533 6 0.3 0.9 3.3 2.05
vector 189123  Network.dyn_peer[20]  lookupHopsSig:vector  ETV
189123	14053 156 601 981 20.921 22.946727685562 6 1 9 24 136
vector 189124  Network.dyn_peer[20]  lookupStabilitySig:vector  ETV
189124	14209 246 601 981 20.921 22.946727685562 6 0.18181818723679 0.96000000089407 4.6201382502913 3.9869520324026
vector 189125  Network.dyn_peer[20]  lookupTimeSig:vector  ETV
189125	14455 168 601 981 20.921 22.946727685562 6 0.2 0.9 2.9 1.71
