file 5381 1369522267                                            
version 2
run Stability2-1-20130526-00:51:07-26640
attr configname Stability2
attr datetime 20130526-00:51:07
attr experiment Stability2
attr inifile omnetpp.ini
attr iterationvars $0=10
attr iterationvars2 "$0=10, $repetition=1"
attr measurement $0=10
attr network Network
attr processid 26640
attr repetition 1
attr replication #1
attr resultdir results
attr runnumber 1
attr seedset 1

vector 6001  Network.churner  inGoingSizeSig:vector  ETV
vector 3001  Network.dyn_peer[0]  lookupHopsSig:vector  ETV
vector 3002  Network.dyn_peer[0]  lookupStabilitySig:vector  ETV
vector 3003  Network.dyn_peer[0]  lookupTimeSig:vector  ETV
vector 3004  Network.dyn_peer[1]  lookupHopsSig:vector  ETV
vector 3005  Network.dyn_peer[1]  lookupStabilitySig:vector  ETV
vector 3006  Network.dyn_peer[1]  lookupTimeSig:vector  ETV
vector 3007  Network.dyn_peer[2]  lookupHopsSig:vector  ETV
vector 3008  Network.dyn_peer[2]  lookupStabilitySig:vector  ETV
vector 3009  Network.dyn_peer[2]  lookupTimeSig:vector  ETV
vector 3013  Network.dyn_peer[4]  lookupHopsSig:vector  ETV
vector 3014  Network.dyn_peer[4]  lookupStabilitySig:vector  ETV
vector 3015  Network.dyn_peer[4]  lookupTimeSig:vector  ETV
vector 3016  Network.dyn_peer[5]  lookupHopsSig:vector  ETV
vector 3017  Network.dyn_peer[5]  lookupStabilitySig:vector  ETV
vector 3018  Network.dyn_peer[5]  lookupTimeSig:vector  ETV
vector 3022  Network.dyn_peer[7]  lookupHopsSig:vector  ETV
vector 3023  Network.dyn_peer[7]  lookupStabilitySig:vector  ETV
vector 3024  Network.dyn_peer[7]  lookupTimeSig:vector  ETV
vector 3025  Network.dyn_peer[8]  lookupHopsSig:vector  ETV
vector 3026  Network.dyn_peer[8]  lookupStabilitySig:vector  ETV
vector 3027  Network.dyn_peer[8]  lookupTimeSig:vector  ETV
vector 3010  Network.dyn_peer[3]  lookupHopsSig:vector  ETV
vector 3011  Network.dyn_peer[3]  lookupStabilitySig:vector  ETV
vector 3012  Network.dyn_peer[3]  lookupTimeSig:vector  ETV
vector 3019  Network.dyn_peer[6]  lookupHopsSig:vector  ETV
vector 3020  Network.dyn_peer[6]  lookupStabilitySig:vector  ETV
vector 3021  Network.dyn_peer[6]  lookupTimeSig:vector  ETV
vector 3028  Network.dyn_peer[9]  lookupHopsSig:vector  ETV
vector 3029  Network.dyn_peer[9]  lookupStabilitySig:vector  ETV
vector 3030  Network.dyn_peer[9]  lookupTimeSig:vector  ETV
3001	2296 88 18 229 20.001 20.715599428537 4 0 2 4 6
3002	2384 133 18 229 20.001 20.715599428537 4 0.59999999403954 1 3.2333333194256 2.6944444242451
3003	2517 94 18 229 20.001 20.715599428537 4 0 0.3 0.7 0.17
3004	2611 97 51 326 20.102 21.422605162357 4 1 4 11 37
3005	2708 157 51 326 20.102 21.422605162357 4 0.19999998807907 0.83333332836628 2.4696969389915 1.7794030905224
3006	2865 105 51 326 20.102 21.422605162357 4 0.1 0.5 1.4 0.6
3007	2970 124 56 332 20.103 21.67941017689 5 1 4 12 38
3008	3094 186 56 332 20.103 21.67941017689 5 0.5 0.85714285075665 3.6238095015287 2.7091382882655
3009	3280 134 56 332 20.103 21.67941017689 5 0.1 0.5 1.6 0.64
3010	3414 63 118 282 20.304 20.922751543049 3 1 3 7 19
3011	3477 108 118 282 20.304 20.922751543049 3 0.39999997615814 0.88888888806105 1.6888888403773 1.1101234171714
3012	3585 69 118 282 20.304 20.922751543049 3 0.2 0.4 0.9 0.29
3013	3654 35 88 221 20.205 20.705 2 2 4 6 20
3014	3689 65 88 221 20.205 20.705 2 0.19999998807907 0.59999999403954 0.79999998211861 0.39999998807907
3015	3754 39 88 221 20.205 20.705 2 0.2 0.5 0.7 0.29
3016	3793 70 93 255 20.206 20.81130044221 3 1 3 6 14
3017	3863 115 93 255 20.206 20.81130044221 3 0.39999997615814 0.85714285075665 1.8571428209543 1.2546938403772
3018	3978 76 93 255 20.206 20.81130044221 3 0.2 0.4 0.8 0.24
3019	4054 90 124 324 20.307 21.415335988281 4 1 4 11 35
3020	4144 138 124 324 20.307 21.415335988281 4 0.39999997615814 0.79999999701977 2.5499999672174 1.7224999690056
3021	4282 98 124 324 20.307 21.415335988281 4 0.2 0.5 1.4 0.54
3022	4380 90 100 318 20.208 21.325689750711 4 2 3 10 26
3023	4470 150 100 318 20.208 21.325689750711 4 0.39999997615814 0.81818181276321 2.51818177104 1.6794214358212
3024	4620 98 100 318 20.208 21.325689750711 4 0.2 0.4 1.3 0.45
3025	4718 63 106 275 20.209 20.909576548099 3 2 3 7 17
3026	4781 96 106 275 20.209 20.909576548099 3 0.39999997615814 0.75 1.7499999701977 1.082499973774
3027	4877 69 106 275 20.209 20.909576548099 3 0.2 0.4 0.9 0.29
3028	4946 71 154 299 20.41 21.034478408175 3 1 4 8 26
3029	5017 105 154 299 20.41 21.034478408175 3 0.19999998807907 0.89999999850988 1.724999986589 1.2406249925494
3030	5122 77 154 299 20.41 21.034478408175 3 0.2 0.4 1 0.36
6001	5199 182 11 43 20 20.01 11 0 9 45 285
