version 2
run Stability2-133-20130526-00:51:47-26640
attr configname Stability2
attr datetime 20130526-00:51:47
attr experiment Stability2
attr inifile omnetpp.ini
attr iterationvars $0=50
attr iterationvars2 "$0=50, $repetition=13"
attr measurement $0=50
attr network Network
attr processid 26640
attr repetition 13
attr replication #13
attr resultdir results
attr runnumber 133
attr seedset 133

vector 402133  Network.churner  inGoingSizeSig:vector  ETV
vector 399154  Network.dyn_peer[7]  lookupHopsSig:vector  ETV
vector 399155  Network.dyn_peer[7]  lookupStabilitySig:vector  ETV
vector 399156  Network.dyn_peer[7]  lookupTimeSig:vector  ETV
vector 399217  Network.dyn_peer[28]  lookupHopsSig:vector  ETV
vector 399218  Network.dyn_peer[28]  lookupStabilitySig:vector  ETV
vector 399219  Network.dyn_peer[28]  lookupTimeSig:vector  ETV
vector 399223  Network.dyn_peer[30]  lookupHopsSig:vector  ETV
vector 399224  Network.dyn_peer[30]  lookupStabilitySig:vector  ETV
vector 399225  Network.dyn_peer[30]  lookupTimeSig:vector  ETV
vector 399241  Network.dyn_peer[36]  lookupHopsSig:vector  ETV
vector 399242  Network.dyn_peer[36]  lookupStabilitySig:vector  ETV
vector 399243  Network.dyn_peer[36]  lookupTimeSig:vector  ETV
vector 399265  Network.dyn_peer[44]  lookupHopsSig:vector  ETV
vector 399266  Network.dyn_peer[44]  lookupStabilitySig:vector  ETV
vector 399267  Network.dyn_peer[44]  lookupTimeSig:vector  ETV
vector 399142  Network.dyn_peer[3]  lookupHopsSig:vector  ETV
vector 399143  Network.dyn_peer[3]  lookupStabilitySig:vector  ETV
vector 399144  Network.dyn_peer[3]  lookupTimeSig:vector  ETV
vector 399145  Network.dyn_peer[4]  lookupHopsSig:vector  ETV
vector 399146  Network.dyn_peer[4]  lookupStabilitySig:vector  ETV
vector 399147  Network.dyn_peer[4]  lookupTimeSig:vector  ETV
vector 399163  Network.dyn_peer[10]  lookupHopsSig:vector  ETV
vector 399164  Network.dyn_peer[10]  lookupStabilitySig:vector  ETV
vector 399165  Network.dyn_peer[10]  lookupTimeSig:vector  ETV
vector 399178  Network.dyn_peer[15]  lookupHopsSig:vector  ETV
vector 399179  Network.dyn_peer[15]  lookupStabilitySig:vector  ETV
vector 399180  Network.dyn_peer[15]  lookupTimeSig:vector  ETV
vector 399193  Network.dyn_peer[20]  lookupHopsSig:vector  ETV
vector 399194  Network.dyn_peer[20]  lookupStabilitySig:vector  ETV
vector 399195  Network.dyn_peer[20]  lookupTimeSig:vector  ETV
vector 399199  Network.dyn_peer[22]  lookupHopsSig:vector  ETV
vector 399200  Network.dyn_peer[22]  lookupStabilitySig:vector  ETV
vector 399201  Network.dyn_peer[22]  lookupTimeSig:vector  ETV
vector 399202  Network.dyn_peer[23]  lookupHopsSig:vector  ETV
vector 399203  Network.dyn_peer[23]  lookupStabilitySig:vector  ETV
vector 399204  Network.dyn_peer[23]  lookupTimeSig:vector  ETV
vector 399250  Network.dyn_peer[39]  lookupHopsSig:vector  ETV
vector 399251  Network.dyn_peer[39]  lookupStabilitySig:vector  ETV
vector 399252  Network.dyn_peer[39]  lookupTimeSig:vector  ETV
vector 399274  Network.dyn_peer[47]  lookupHopsSig:vector  ETV
vector 399275  Network.dyn_peer[47]  lookupStabilitySig:vector  ETV
vector 399276  Network.dyn_peer[47]  lookupTimeSig:vector  ETV
vector 399277  Network.dyn_peer[48]  lookupHopsSig:vector  ETV
vector 399278  Network.dyn_peer[48]  lookupStabilitySig:vector  ETV
vector 399279  Network.dyn_peer[48]  lookupTimeSig:vector  ETV
vector 399133  Network.dyn_peer[0]  lookupHopsSig:vector  ETV
vector 399134  Network.dyn_peer[0]  lookupStabilitySig:vector  ETV
vector 399135  Network.dyn_peer[0]  lookupTimeSig:vector  ETV
vector 399139  Network.dyn_peer[2]  lookupHopsSig:vector  ETV
vector 399140  Network.dyn_peer[2]  lookupStabilitySig:vector  ETV
vector 399141  Network.dyn_peer[2]  lookupTimeSig:vector  ETV
vector 399151  Network.dyn_peer[6]  lookupHopsSig:vector  ETV
vector 399152  Network.dyn_peer[6]  lookupStabilitySig:vector  ETV
vector 399153  Network.dyn_peer[6]  lookupTimeSig:vector  ETV
vector 399211  Network.dyn_peer[26]  lookupHopsSig:vector  ETV
vector 399212  Network.dyn_peer[26]  lookupStabilitySig:vector  ETV
vector 399213  Network.dyn_peer[26]  lookupTimeSig:vector  ETV
vector 399220  Network.dyn_peer[29]  lookupHopsSig:vector  ETV
vector 399221  Network.dyn_peer[29]  lookupStabilitySig:vector  ETV
vector 399222  Network.dyn_peer[29]  lookupTimeSig:vector  ETV
vector 399229  Network.dyn_peer[32]  lookupHopsSig:vector  ETV
vector 399230  Network.dyn_peer[32]  lookupStabilitySig:vector  ETV
vector 399231  Network.dyn_peer[32]  lookupTimeSig:vector  ETV
vector 399268  Network.dyn_peer[45]  lookupHopsSig:vector  ETV
vector 399269  Network.dyn_peer[45]  lookupStabilitySig:vector  ETV
vector 399270  Network.dyn_peer[45]  lookupTimeSig:vector  ETV
vector 399136  Network.dyn_peer[1]  lookupHopsSig:vector  ETV
vector 399137  Network.dyn_peer[1]  lookupStabilitySig:vector  ETV
vector 399138  Network.dyn_peer[1]  lookupTimeSig:vector  ETV
vector 399166  Network.dyn_peer[11]  lookupHopsSig:vector  ETV
vector 399167  Network.dyn_peer[11]  lookupStabilitySig:vector  ETV
vector 399168  Network.dyn_peer[11]  lookupTimeSig:vector  ETV
vector 399205  Network.dyn_peer[24]  lookupHopsSig:vector  ETV
vector 399206  Network.dyn_peer[24]  lookupStabilitySig:vector  ETV
vector 399207  Network.dyn_peer[24]  lookupTimeSig:vector  ETV
vector 399247  Network.dyn_peer[38]  lookupHopsSig:vector  ETV
vector 399248  Network.dyn_peer[38]  lookupStabilitySig:vector  ETV
vector 399249  Network.dyn_peer[38]  lookupTimeSig:vector  ETV
vector 399148  Network.dyn_peer[5]  lookupHopsSig:vector  ETV
vector 399149  Network.dyn_peer[5]  lookupStabilitySig:vector  ETV
vector 399150  Network.dyn_peer[5]  lookupTimeSig:vector  ETV
vector 399157  Network.dyn_peer[8]  lookupHopsSig:vector  ETV
vector 399158  Network.dyn_peer[8]  lookupStabilitySig:vector  ETV
vector 399159  Network.dyn_peer[8]  lookupTimeSig:vector  ETV
vector 399169  Network.dyn_peer[12]  lookupHopsSig:vector  ETV
vector 399170  Network.dyn_peer[12]  lookupStabilitySig:vector  ETV
vector 399171  Network.dyn_peer[12]  lookupTimeSig:vector  ETV
vector 399175  Network.dyn_peer[14]  lookupHopsSig:vector  ETV
vector 399176  Network.dyn_peer[14]  lookupStabilitySig:vector  ETV
vector 399177  Network.dyn_peer[14]  lookupTimeSig:vector  ETV
vector 399181  Network.dyn_peer[16]  lookupHopsSig:vector  ETV
vector 399182  Network.dyn_peer[16]  lookupStabilitySig:vector  ETV
vector 399183  Network.dyn_peer[16]  lookupTimeSig:vector  ETV
vector 399187  Network.dyn_peer[18]  lookupHopsSig:vector  ETV
vector 399188  Network.dyn_peer[18]  lookupStabilitySig:vector  ETV
vector 399189  Network.dyn_peer[18]  lookupTimeSig:vector  ETV
vector 399196  Network.dyn_peer[21]  lookupHopsSig:vector  ETV
vector 399197  Network.dyn_peer[21]  lookupStabilitySig:vector  ETV
vector 399198  Network.dyn_peer[21]  lookupTimeSig:vector  ETV
vector 399208  Network.dyn_peer[25]  lookupHopsSig:vector  ETV
vector 399209  Network.dyn_peer[25]  lookupStabilitySig:vector  ETV
vector 399210  Network.dyn_peer[25]  lookupTimeSig:vector  ETV
vector 399259  Network.dyn_peer[42]  lookupHopsSig:vector  ETV
vector 399260  Network.dyn_peer[42]  lookupStabilitySig:vector  ETV
vector 399261  Network.dyn_peer[42]  lookupTimeSig:vector  ETV
vector 399172  Network.dyn_peer[13]  lookupHopsSig:vector  ETV
vector 399173  Network.dyn_peer[13]  lookupStabilitySig:vector  ETV
vector 399174  Network.dyn_peer[13]  lookupTimeSig:vector  ETV
vector 399244  Network.dyn_peer[37]  lookupHopsSig:vector  ETV
vector 399245  Network.dyn_peer[37]  lookupStabilitySig:vector  ETV
vector 399246  Network.dyn_peer[37]  lookupTimeSig:vector  ETV
vector 399214  Network.dyn_peer[27]  lookupHopsSig:vector  ETV
vector 399215  Network.dyn_peer[27]  lookupStabilitySig:vector  ETV
vector 399216  Network.dyn_peer[27]  lookupTimeSig:vector  ETV
vector 399235  Network.dyn_peer[34]  lookupHopsSig:vector  ETV
vector 399236  Network.dyn_peer[34]  lookupStabilitySig:vector  ETV
vector 399237  Network.dyn_peer[34]  lookupTimeSig:vector  ETV
vector 399238  Network.dyn_peer[35]  lookupHopsSig:vector  ETV
vector 399239  Network.dyn_peer[35]  lookupStabilitySig:vector  ETV
vector 399240  Network.dyn_peer[35]  lookupTimeSig:vector  ETV
vector 399160  Network.dyn_peer[9]  lookupHopsSig:vector  ETV
vector 399161  Network.dyn_peer[9]  lookupStabilitySig:vector  ETV
vector 399162  Network.dyn_peer[9]  lookupTimeSig:vector  ETV
vector 399190  Network.dyn_peer[19]  lookupHopsSig:vector  ETV
vector 399191  Network.dyn_peer[19]  lookupStabilitySig:vector  ETV
vector 399192  Network.dyn_peer[19]  lookupTimeSig:vector  ETV
vector 399232  Network.dyn_peer[33]  lookupHopsSig:vector  ETV
vector 399233  Network.dyn_peer[33]  lookupStabilitySig:vector  ETV
vector 399234  Network.dyn_peer[33]  lookupTimeSig:vector  ETV
vector 399271  Network.dyn_peer[46]  lookupHopsSig:vector  ETV
vector 399272  Network.dyn_peer[46]  lookupStabilitySig:vector  ETV
vector 399273  Network.dyn_peer[46]  lookupTimeSig:vector  ETV
vector 399184  Network.dyn_peer[17]  lookupHopsSig:vector  ETV
vector 399185  Network.dyn_peer[17]  lookupStabilitySig:vector  ETV
vector 399186  Network.dyn_peer[17]  lookupTimeSig:vector  ETV
vector 399262  Network.dyn_peer[43]  lookupHopsSig:vector  ETV
vector 399263  Network.dyn_peer[43]  lookupStabilitySig:vector  ETV
vector 399264  Network.dyn_peer[43]  lookupTimeSig:vector  ETV
vector 399253  Network.dyn_peer[40]  lookupHopsSig:vector  ETV
vector 399254  Network.dyn_peer[40]  lookupStabilitySig:vector  ETV
vector 399255  Network.dyn_peer[40]  lookupTimeSig:vector  ETV
vector 399256  Network.dyn_peer[41]  lookupHopsSig:vector  ETV
vector 399257  Network.dyn_peer[41]  lookupStabilitySig:vector  ETV
vector 399258  Network.dyn_peer[41]  lookupTimeSig:vector  ETV
vector 399280  Network.dyn_peer[49]  lookupHopsSig:vector  ETV
vector 399281  Network.dyn_peer[49]  lookupStabilitySig:vector  ETV
vector 399282  Network.dyn_peer[49]  lookupTimeSig:vector  ETV
vector 399226  Network.dyn_peer[31]  lookupHopsSig:vector  ETV
vector 399227  Network.dyn_peer[31]  lookupStabilitySig:vector  ETV
vector 399228  Network.dyn_peer[31]  lookupTimeSig:vector  ETV
399133	293	20.201	2
399133	598	20.601	3
399133	1050	21.207694134026	5
399134	293	20.201	0.59999999403954
399134	598	20.601	0.39999997615814
399134	1050	21.207694134026	0.28571426868439
399135	293	20.201	0.2
399135	598	20.601	0.4
399135	1050	21.207694134026	0.6
399136	378	20.302	3
399136	1262	21.502	11
399136	1574	22.10274507896	5
399136	1683	22.403053676189	2
399137	378	20.302	0.39999997615814
399137	1262	21.502	0.3125
399137	1574	22.10274507896	0.84375
399137	1683	22.403053676189	0.94444444403052
399138	378	20.302	0.3
399138	1262	21.502	1.2
399138	1574	22.10274507896	0.6
399138	1683	22.403053676189	0.3
399139	299	20.203	2
399139	1122	21.303	10
399139	1376	21.706154557796	3
399139	1526	22.009864732025	2
399139	1836	23.214959005937	11
399140	299	20.203	0.59999999403954
399140	1122	21.303	0.090909063816071
399140	1376	21.706154557796	0.86956521868706
399140	1526	22.009864732025	0.93103448301554
399140	1836	23.214959005937	0.77083332836628
399141	299	20.203	0.2
399141	1122	21.303	1.1
399141	1376	21.706154557796	0.4
399141	1526	22.009864732025	0.3
399141	1836	23.214959005937	1.2
399142	200	20.104	1
399142	519	20.504	3
399142	987	21.113659028134	5
399142	1143	21.324600324515	1
399143	200	20.104	0.79999999701977
399143	519	20.504	0.39999997615814
399143	987	21.113659028134	0.16666668653488
399143	1143	21.324600324515	0.91666666418314
399144	200	20.104	0.1
399144	519	20.504	0.4
399144	987	21.113659028134	0.6
399144	1143	21.324600324515	0.2
399145	205	20.105	1
399145	1047	21.205	10
399145	1266	21.507418260844	2
399145	1421	21.808648313222	2
399146	205	20.105	0.79999999701977
399146	1047	21.205	-0.42857146263123
399146	1266	21.507418260844	0.875
399146	1421	21.808648313222	0.91666666418314
399147	205	20.105	0.1
399147	1047	21.205	1.1
399147	1266	21.507418260844	0.3
399147	1421	21.808648313222	0.3
399148	452	20.406	4
399148	831	20.906	4
399148	1199	21.412328580034	4
399149	452	20.406	0.19999998807907
399149	831	20.906	0.33333331346512
399149	1199	21.412328580034	0.71428570151329
399150	452	20.406	0.4
399150	831	20.906	0.5
399150	1199	21.412328580034	0.5
399151	307	20.207	2
399151	833	20.907	6
399151	992	21.11657857416	1
399151	1339	21.626030791043	4
399152	307	20.207	0.59999999403954
399152	833	20.907	0
399152	992	21.11657857416	0.83333332836628
399152	1339	21.626030791043	0.78947368264198
399153	307	20.207	0.2
399153	833	20.907	0.7
399153	992	21.11657857416	0.2
399153	1339	21.626030791043	0.5
399154	39	20.008	0
399154	606	20.608	5
399154	850	20.916784316068	2
399154	1140	21.322764598705	3
399154	1565	22.058666689614	6
399154	1680	22.366931678733	2
399155	39	20.008	1
399155	606	20.608	0
399155	850	20.916784316068	0.66666665673256
399155	1140	21.322764598705	0.72727271914482
399155	1565	22.058666689614	0.8125
399155	1680	22.366931678733	0.94444444403052
399156	39	20.008	0
399156	606	20.608	0.6
399156	850	20.916784316068	0.3
399156	1140	21.322764598705	0.4
399156	1565	22.058666689614	0.7
399156	1680	22.366931678733	0.3
399157	459	20.409	4
399157	1274	21.515696259062	10
399157	1434	21.819480301195	2
399158	459	20.409	0.19999998807907
399158	1274	21.515696259062	0.375
399158	1434	21.819480301195	0.92000000178814
399159	459	20.409	0.4
399159	1274	21.515696259062	1.1
399159	1434	21.819480301195	0.3
399160	755	20.81	8
399160	1324	21.61	7
399160	1618	22.216045730649	5
399160	1689	22.421267746443	1
399160	1785	22.824199998102	3
399161	755	20.81	-0.60000002384186
399161	1324	21.61	0.63157895207405
399161	1618	22.216045730649	0.84848484396935
399161	1689	22.421267746443	0.97297297231853
399161	1785	22.824199998102	0.9333333298564
399162	755	20.81	0.8
399162	1324	21.61	0.8
399162	1618	22.216045730649	0.6
399162	1689	22.421267746443	0.2
399162	1785	22.824199998102	0.4
399163	215	20.111	1
399163	1053	21.211	10
399163	1528	22.013048745362	7
399163	1625	22.222584496792	1
399164	215	20.111	0.79999999701977
399164	1053	21.211	-0.42857146263123
399164	1528	22.013048745362	0.75862069427967
399164	1625	22.222584496792	0.96969696879387
399165	215	20.111	0.1
399165	1053	21.211	1.1
399165	1528	22.013048745362	0.8
399165	1625	22.222584496792	0.2
399166	392	20.312	3
399166	1482	21.912	15
399166	1622	22.218051739016	2
399166	1727	22.527091103917	2
399166	1847	23.339684510978	7
399166	1889	23.855651181726	4
399167	392	20.312	0.39999997615814
399167	1482	21.912	0.44444441795349
399167	1622	22.218051739016	0.93939393758774
399167	1727	22.527091103917	0.95121951401234
399167	1847	23.339684510978	0.85999999940395
399167	1889	23.855651181726	0.92307692021132
399168	392	20.312	0.3
399168	1482	21.912	1.6
399168	1622	22.218051739016	0.3
399168	1727	22.527091103917	0.3
399168	1847	23.339684510978	0.8
399168	1889	23.855651181726	0.5
399169	467	20.413	4
399169	1327	21.613	11
399169	1426	21.814828153359	1
399169	1541	22.029313061788	1
399170	467	20.413	0.19999998807907
399170	1327	21.613	0.42105263471603
399170	1426	21.814828153359	0.96000000089407
399170	1541	22.029313061788	0.96551724150777
399171	467	20.413	0.4
399171	1327	21.613	1.2
399171	1426	21.814828153359	0.2
399171	1541	22.029313061788	0.2
399172	617	20.614	6
399172	1060	21.214	5
399172	1428	21.815249571547	5
399172	1581	22.119954523959	2
399172	1693	22.423146946453	2
399172	1766	22.724692466342	2
399172	1815	23.026025298707	2
399172	1838	23.23268547183	1
399173	617	20.614	-0.20000004768372
399173	1060	21.214	0.28571426868439
399173	1428	21.815249571547	0.79999999701977
399173	1581	22.119954523959	0.9375
399173	1693	22.423146946453	0.94594594463706
399173	1766	22.724692466342	0.9545454531908
399173	1815	23.026025298707	0.95833333209157
399173	1838	23.23268547183	0.97959183715284
399174	617	20.614	0.6
399174	1060	21.214	0.6
399174	1428	21.815249571547	0.6
399174	1581	22.119954523959	0.3
399174	1693	22.423146946453	0.3
399174	1766	22.724692466342	0.3
399174	1815	23.026025298707	0.3
399174	1838	23.23268547183	0.2
399175	475	20.415	4
399175	1204	21.415	9
399175	1432	21.818504948813	3
399175	1586	22.127036605287	2
399175	1698	22.435112804566	2
399176	475	20.415	0.19999998807907
399176	1204	21.415	0.39999997615814
399176	1432	21.818504948813	0.88000000268221
399176	1586	22.127036605287	0.9375
399176	1698	22.435112804566	0.94594594463706
399177	475	20.415	0.4
399177	1204	21.415	1
399177	1432	21.818504948813	0.4
399177	1586	22.127036605287	0.3
399177	1698	22.435112804566	0.3
399178	226	20.116	1
399178	846	20.916	7
399178	1069	21.221101915039	2
399179	226	20.116	0.79999999701977
399179	846	20.916	-0.16666662693024
399179	1069	21.221101915039	0.75
399180	226	20.116	0.1
399180	846	20.916	0.8
399180	1069	21.221101915039	0.3
399181	539	20.517	5
399181	931	21.026993651222	4
399181	1295	21.534695057186	4
399182	539	20.517	0
399182	931	21.026993651222	0.33333331346512
399182	1295	21.534695057186	0.75
399183	539	20.517	0.5
399183	931	21.026993651222	0.5
399183	1295	21.534695057186	0.5
399184	855	20.918	9
399184	1148	21.32508321768	3
399184	1449	21.834204127468	4
399185	855	20.918	-0.5
399185	1148	21.32508321768	0.78571428358555
399185	1449	21.834204127468	0.84615384042263
399186	855	20.918	0.9
399186	1148	21.32508321768	0.4
399186	1449	21.834204127468	0.5
399187	546	20.519	5
399187	691	20.719	1
399187	923	21.022659062364	2
399187	1723	22.522787397383	14
399188	546	20.519	0
399188	691	20.719	0.79999999701977
399188	923	21.022659062364	0.66666665673256
399188	1723	22.522787397383	0.65000000596046
399189	546	20.519	0.5
399189	691	20.719	0.2
399189	923	21.022659062364	0.3
399189	1723	22.522787397383	1.5
399190	775	20.82	8
399190	1138	21.32	4
399190	1283	21.528073881606	1
399190	1497	21.933832904137	3
399190	1633	22.236517725013	2
399190	1769	22.738576847644	4
399191	775	20.82	-0.60000002384186
399191	1138	21.32	0.63636362552643
399191	1283	21.528073881606	0.9375
399191	1497	21.933832904137	0.88888888806105
399191	1633	22.236517725013	0.9411764703691
399191	1769	22.738576847644	0.90909090638161
399192	775	20.82	0.8
399192	1138	21.32	0.5
399192	1283	21.528073881606	0.2
399192	1497	21.933832904137	0.4
399192	1633	22.236517725013	0.3
399192	1769	22.738576847644	0.5
399193	236	20.121	1
399193	939	21.030921143362	8
399193	1089	21.233947334996	1
399194	236	20.121	0.79999999701977
399194	939	21.030921143362	-0.33333337306976
399194	1089	21.233947334996	0.89999999850988
399195	236	20.121	0.1
399195	939	21.030921143362	0.9
399195	1089	21.233947334996	0.2
399196	552	20.522	5
399196	696	20.722	1
399196	1219	21.429915035616	6
399196	1349	21.633432801803	1
399197	552	20.522	0
399197	696	20.722	0.79999999701977
399197	1219	21.429915035616	0.59999999403954
399197	1349	21.633432801803	0.95238095149398
399198	552	20.522	0.5
399198	696	20.722	0.2
399198	1219	21.429915035616	0.7
399198	1349	21.633432801803	0.2
399199	242	20.123	1
399199	554	20.523	3
399199	701	20.725680327289	1
399199	1347	21.632076001096	8
399200	242	20.123	0.79999999701977
399200	554	20.523	0.39999997615814
399200	701	20.725680327289	0.79999999701977
399200	1347	21.632076001096	0.59999999403954
399201	242	20.123	0.1
399201	554	20.523	0.4
399201	701	20.725680327289	0.2
399201	1347	21.632076001096	0.9
399202	247	20.124	1
399202	1001	21.124	9
399202	1153	21.327186598217	1
399202	1589	22.128337879455	7
399203	247	20.124	0.79999999701977
399203	1001	21.124	-0.5
399203	1153	21.327186598217	0.92857142537832
399203	1589	22.128337879455	0.78125
399204	247	20.124	0.1
399204	1001	21.124	1
399204	1153	21.327186598217	0.2
399204	1589	22.128337879455	0.8
399205	411	20.325	3
399205	1146	21.325	9
399206	411	20.325	0.39999997615814
399206	1146	21.325	0.30769228935242
399207	411	20.325	0.3
399207	1146	21.325	1
399208	562	20.526	5
399208	1150	21.326	7
399208	1453	21.835853154979	4
399208	1602	22.144806958043	2
399208	1707	22.451409761115	2
399208	1806	22.958817758675	4
399209	562	20.526	0
399209	1150	21.326	0.5
399209	1453	21.835853154979	0.84615384042263
399209	1602	22.144806958043	0.93939393758774
399209	1707	22.451409761115	0.9473684206605
399209	1806	22.958817758675	0.91489361971617
399210	562	20.526	0.5
399210	1150	21.326	0.8
399210	1453	21.835853154979	0.5
399210	1602	22.144806958043	0.3
399210	1707	22.451409761115	0.3
399210	1806	22.958817758675	0.5
399211	333	20.227	2
399211	784	20.827	5
399211	1024	21.138487234339	2
399212	333	20.227	0.59999999403954
399212	784	20.827	0
399212	1024	21.138487234339	0.66666665673256
399213	333	20.227	0.2
399213	784	20.827	0.6
399213	1024	21.138487234339	0.3
399214	710	20.728	7
399214	1657	22.328	15
399215	710	20.728	-0.39999997615814
399215	1657	22.328	0.55882352590561
399216	710	20.728	0.7
399216	1657	22.328	1.6
399217	109	20.029	0
399217	1035	21.14788545799	10
399217	1416	21.756063809476	5
399218	109	20.029	1
399218	1035	21.14788545799	-0.42857146263123
399218	1416	21.756063809476	0.78260870277882
399219	109	20.029	0
399219	1035	21.14788545799	1.1
399219	1416	21.756063809476	0.6
399220	339	20.23	2
399220	1494	21.93	16
399220	1592	22.132707043392	1
399220	1660	22.337527735286	1
399220	1755	22.643231487818	2
399220	1819	23.043988739423	3
399220	1862	23.445604535477	3
399221	339	20.23	0.59999999403954
399221	1494	21.93	0.40740740299225
399221	1592	22.132707043392	0.96969696879387
399221	1660	22.337527735286	0.97142857126892
399221	1755	22.643231487818	0.9545454531908
399221	1819	23.043988739423	0.9375
399221	1862	23.445604535477	0.9411764703691
399222	339	20.23	0.2
399222	1494	21.93	1.7
399222	1592	22.132707043392	0.2
399222	1660	22.337527735286	0.2
399222	1755	22.643231487818	0.3
399222	1819	23.043988739423	0.4
399222	1862	23.445604535477	0.4
399223	120	20.031	0
399223	342	20.231	1
399223	1087	21.2332231171	9
399224	120	20.031	1
399224	342	20.231	0.79999999701977
399224	1087	21.2332231171	0
399225	120	20.031	0
399225	342	20.231	0.2
399225	1087	21.2332231171	1
399226	1225	21.432	14
399226	1393	21.732	2
399226	1597	22.139347034283	3
399226	1733	22.54452716652	3
399227	1225	21.432	0.066666662693024
399227	1393	21.732	0.91304347664118
399227	1597	22.139347034283	0.90909090638161
399227	1733	22.54452716652	0.92682927101851
399228	1225	21.432	1.4
399228	1393	21.732	0.3
399228	1597	22.139347034283	0.4
399228	1733	22.54452716652	0.4
399229	348	20.233	2
399229	571	20.533	2
399229	1232	21.434651800819	8
399229	1462	21.843279419945	3
399229	1666	22.344122200825	4
399230	348	20.233	0.59999999403954
399230	571	20.533	0.59999999403954
399230	1232	21.434651800819	0.46666663885117
399230	1462	21.843279419945	0.88888888806105
399230	1666	22.344122200825	0.88571428507566
399231	348	20.233	0.2
399231	571	20.533	0.3
399231	1232	21.434651800819	0.9
399231	1462	21.843279419945	0.4
399231	1666	22.344122200825	0.5
399232	798	20.834	8
399232	1229	21.434	5
399232	1501	21.942154218717	4
399233	798	20.834	-0.60000002384186
399233	1229	21.434	0.66666665673256
399233	1501	21.942154218717	0.85185185074806
399234	798	20.834	0.8
399234	1229	21.434	0.6
399234	1501	21.942154218717	0.5
399235	723	20.735	7
399235	1451	21.835	10
399235	1663	22.343144505815	4
399235	1735	22.550729851046	1
399235	1803	22.957092276931	3
399235	1852	23.357188611096	3
399236	723	20.735	-0.39999997615814
399236	1451	21.835	0.61538460850716
399236	1663	22.343144505815	0.88571428507566
399236	1735	22.550729851046	0.97560975700617
399236	1803	22.957092276931	0.93617021292448
399236	1852	23.357188611096	0.9400000013411
399237	723	20.735	0.7
399237	1451	21.835	1.1
399237	1663	22.343144505815	0.5
399237	1735	22.550729851046	0.2
399237	1803	22.957092276931	0.4
399237	1852	23.357188611096	0.4
399238	728	20.736	7
399238	1170	21.336	5
399238	1509	21.945653031457	5
399239	728	20.736	-0.39999997615814
399239	1170	21.336	0.64285713434219
399239	1509	21.945653031457	0.8214285671711
399240	728	20.736	0.7
399240	1170	21.336	0.6
399240	1509	21.945653031457	0.6
399241	142	20.037	0
399241	1259	21.463367790416	13
399242	142	20.037	1
399242	1259	21.463367790416	0.13333332538605
399243	142	20.037	0
399243	1259	21.463367790416	1.4
399244	648	20.638	6
399244	1399	21.738	10
399244	1507	21.944911257377	1
399244	1704	22.449110585385	4
399245	648	20.638	-0.20000004768372
399245	1399	21.738	0.56521740555763
399245	1507	21.944911257377	0.96428571268916
399245	1704	22.449110585385	0.89473684132099
399246	648	20.638	0.6
399246	1399	21.738	1.1
399246	1507	21.944911257377	0.2
399246	1704	22.449110585385	0.5
399247	428	20.339	3
399247	954	21.039	6
399247	1550	22.044866527264	9
399248	428	20.339	0.39999997615814
399248	954	21.039	0
399248	1550	22.044866527264	0.69999998807907
399249	428	20.339	0.3
399249	954	21.039	0.7
399249	1550	22.044866527264	1
399250	266	20.14	1
399250	806	20.84	6
399250	1027	21.142439229921	2
399250	1555	22.05217761594	8
399251	266	20.14	0.79999999701977
399251	806	20.84	-0.20000004768372
399251	1027	21.142439229921	0.66666665673256
399251	1555	22.05217761594	0.74193549156189
399252	266	20.14	0.1
399252	806	20.84	0.7
399252	1027	21.142439229921	0.3
399252	1555	22.05217761594	0.9
399253	959	21.041	10
399253	1364	21.646609447108	5
399254	959	21.041	-0.66666662693024
399254	1364	21.646609447108	0.77272726595402
399255	959	21.041	1
399255	1364	21.646609447108	0.6
399256	1101	21.242	12
399256	1458	21.842	5
399256	1709	22.451924647058	5
399256	1791	22.853472775379	3
399257	1101	21.242	-0.20000004768372
399257	1458	21.842	0.81481482088566
399257	1709	22.451924647058	0.86842104792595
399257	1791	22.853472775379	0.93478260934353
399258	1101	21.242	1.2
399258	1458	21.842	0.6
399258	1709	22.451924647058	0.6
399258	1791	22.853472775379	0.4
399259	587	20.543	5
399259	963	21.043	4
399259	1310	21.551241463599	4
399260	587	20.543	0
399260	963	21.043	0.33333331346512
399260	1310	21.551241463599	0.7647058814764
399261	587	20.543	0.5
399261	963	21.043	0.5
399261	1310	21.551241463599	0.5
399262	890	20.944	9
399262	1360	21.644	6
399262	1557	22.052381169429	3
399262	1779	22.761022959643	6
399262	1808	22.962582735501	1
399262	1857	23.371158581983	3
399262	1872	23.580008202362	1
399262	1886	23.788944936745	1
399262	1898	24.091875647614	2
399263	890	20.944	-0.5
399263	1360	21.644	0.72727271914482
399263	1557	22.052381169429	0.90322580933571
399263	1779	22.761022959643	0.86666665971279
399263	1808	22.962582735501	0.97872340492904
399263	1857	23.371158581983	0.9411764703691
399263	1872	23.580008202362	0.98076923005283
399263	1886	23.788944936745	0.98076923005283
399263	1898	24.091875647614	0.96226415038109
399264	890	20.944	0.9
399264	1360	21.644	0.7
399264	1557	22.052381169429	0.4
399264	1779	22.761022959643	0.7
399264	1808	22.962582735501	0.2
399264	1857	23.371158581983	0.4
399264	1872	23.580008202362	0.2
399264	1886	23.788944936745	0.2
399264	1898	24.091875647614	0.3
399265	171	20.045	0
399265	658	20.645	5
399265	813	20.845454685413	1
399265	1079	21.227289182368	2
399265	1286	21.528685934526	2
399265	1445	21.830566116917	2
399266	171	20.045	1
399266	658	20.645	0
399266	813	20.845454685413	0.79999999701977
399266	1079	21.227289182368	0.77777777612209
399266	1286	21.528685934526	0.875
399266	1445	21.830566116917	0.92307692021132
399267	171	20.045	0
399267	658	20.645	0.6
399267	813	20.845454685413	0.2
399267	1079	21.227289182368	0.3
399267	1286	21.528685934526	0.3
399267	1445	21.830566116917	0.3
399268	366	20.246	2
399268	1106	21.246	9
399268	1512	21.94758205924	6
399268	1715	22.461015205271	4
399269	366	20.246	0.59999999403954
399269	1106	21.246	0.18181818723679
399269	1512	21.94758205924	0.79310344159603
399269	1715	22.461015205271	0.89743589609861
399270	366	20.246	0.2
399270	1106	21.246	1
399270	1512	21.94758205924	0.7
399270	1715	22.461015205271	0.5
399271	819	20.847	8
399271	1469	21.847	9
399271	1562	22.05553062116	1
399271	1743	22.56151931663	4
399272	819	20.847	-0.60000002384186
399272	1469	21.847	0.66666665673256
399272	1562	22.05553062116	0.96875
399272	1743	22.56151931663	0.90476190298796
399273	819	20.847	0.8
399273	1469	21.847	1
399273	1562	22.05553062116	0.2
399273	1743	22.56151931663	0.5
399274	280	20.148	1
399274	1559	22.053456406958	18
399274	1747	22.565963467769	4
399275	280	20.148	0.79999999701977
399275	1559	22.053456406958	0.41935485601425
399275	1747	22.565963467769	0.90697674453259
399276	280	20.148	0.1
399276	1559	22.053456406958	1.9
399276	1747	22.565963467769	0.5
399277	285	20.149	1
399277	895	20.949	7
399277	1317	21.556173042483	5
399278	285	20.149	0.79999999701977
399278	895	20.949	-0.16666662693024
399278	1317	21.556173042483	0.72222220897675
399279	285	20.149	0.1
399279	895	20.949	0.8
399279	1317	21.556173042483	0.6
399280	1184	21.35	13
399280	1605	22.15	7
399280	1776	22.7577149463	5
399280	1855	23.363264616043	5
399280	1870	23.572628877516	1
399280	1893	23.987459766848	3
399280	1903	24.389874429467	3
399281	1184	21.35	0.071428596973419
399281	1605	22.15	0.78787878155708
399281	1776	22.7577149463	0.88888888806105
399281	1855	23.363264616043	0.90196078270674
399281	1870	23.572628877516	0.98076923005283
399281	1893	23.987459766848	0.94339622557163
399281	1903	24.389874429467	0.94444444403052
399282	1184	21.35	1.3
399282	1605	22.15	0.8
399282	1776	22.7577149463	0.6
399282	1855	23.363264616043	0.6
399282	1870	23.572628877516	0.2
399282	1893	23.987459766848	0.4
399282	1903	24.389874429467	0.4
402133	11	20	0
402133	12	20.001	0
402133	15	20.002	1
402133	18	20.003	2
402133	21	20.004	3
402133	24	20.005	4
402133	27	20.006	5
402133	30	20.007	6
402133	33	20.008	7
402133	40	20.009	8
402133	43	20.01	9
402133	46	20.011	10
402133	49	20.012	11
402133	52	20.013	12
402133	56	20.014	13
402133	60	20.015	14
402133	63	20.016	15
402133	66	20.017	16
402133	70	20.018	17
402133	73	20.019	18
402133	76	20.02	19
402133	79	20.021	20
402133	82	20.022	21
402133	85	20.023	22
402133	88	20.024	23
402133	91	20.025	24
402133	94	20.026	25
402133	97	20.027	26
402133	100	20.028	27
402133	103	20.029	28
402133	111	20.03	29
402133	114	20.031	30
402133	121	20.032	31
402133	124	20.033	32
402133	127	20.034	33
402133	130	20.035	34
402133	133	20.036	35
402133	136	20.037	36
402133	143	20.038	37
402133	147	20.039	38
402133	150	20.04	39
402133	153	20.041	40
402133	156	20.042	41
402133	159	20.043	42
402133	162	20.044	43
402133	165	20.045	44