file 18417 1369674134                                           
version 2
run Stability2-68-20130526-00:51:26-26640
attr configname Stability2
attr datetime 20130526-00:51:26
attr experiment Stability2
attr inifile omnetpp.ini
attr iterationvars $0=30
attr iterationvars2 "$0=30, $repetition=8"
attr measurement $0=30
attr network Network
attr processid 26640
attr repetition 8
attr replication #8
attr resultdir results
attr runnumber 68
attr seedset 68
vector 207068  Network.churner  inGoingSizeSig:vector  ETV
207068	17806 611 10 131 20 20.03 31 0 29 435 8555
vector 204074  Network.dyn_peer[2]  lookupHopsSig:vector  ETV
204074	6860 68 23 482 20.003 20.711091788447 3 0 3 5 13
vector 204075  Network.dyn_peer[2]  lookupStabilitySig:vector  ETV
204075	6928 98 23 482 20.003 20.711091788447 3 0.39999997615814 1 2.1777777522802 1.7649382499559
vector 204076  Network.dyn_peer[2]  lookupTimeSig:vector  ETV
204076	7026 72 23 482 20.003 20.711091788447 3 0 0.4 0.7 0.25
vector 204080  Network.dyn_peer[4]  lookupHopsSig:vector  ETV
204080	7252 126 33 878 20.005 22.416979253777 5 0 8 20 118
vector 204081  Network.dyn_peer[4]  lookupStabilitySig:vector  ETV
204081	7378 186 33 878 20.005 22.416979253777 5 0.33333331346512 1 3.7987739294768 3.1674395509774
vector 204082  Network.dyn_peer[4]  lookupTimeSig:vector  ETV
204082	7564 134 33 878 20.005 22.416979253777 5 0 0.9 2.4 1.62
vector 204083  Network.dyn_peer[5]  lookupHopsSig:vector  ETV
204083	7698 68 40 658 20.006 21.114217596106 3 0 8 9 65
vector 204084  Network.dyn_peer[5]  lookupStabilitySig:vector  ETV
204084	7766 98 40 658 20.006 21.114217596106 3 0.59999999403954 1 2.3999999910593 1.9999999880791
vector 204085  Network.dyn_peer[5]  lookupTimeSig:vector  ETV
204085	7864 72 40 658 20.006 21.114217596106 3 0 0.9 1.1 0.85
vector 204089  Network.dyn_peer[7]  lookupHopsSig:vector  ETV
204089	8286 77 50 450 20.008 20.624697136849 3 0 3 4 10
vector 204090  Network.dyn_peer[7]  lookupStabilitySig:vector  ETV
204090	8363 96 50 450 20.008 20.624697136849 3 0.39999997615814 1 2.2749999761581 1.9256249809265
vector 204091  Network.dyn_peer[7]  lookupTimeSig:vector  ETV
204091	8459 81 50 450 20.008 20.624697136849 3 0 0.4 0.6 0.2
vector 204092  Network.dyn_peer[8]  lookupHopsSig:vector  ETV
204092	8540 68 58 433 20.009 20.610061786301 3 0 3 4 10
vector 204093  Network.dyn_peer[8]  lookupStabilitySig:vector  ETV
204093	8608 98 58 433 20.009 20.610061786301 3 0.39999997615814 1 2.2571428269148 1.8946938475297
vector 204094  Network.dyn_peer[8]  lookupTimeSig:vector  ETV
204094	8706 72 58 433 20.009 20.610061786301 3 0 0.4 0.6 0.2
vector 204107  Network.dyn_peer[13]  lookupHopsSig:vector  ETV
204107	10025 104 77 644 20.014 21.039521673929 4 0 3 7 19
vector 204108  Network.dyn_peer[13]  lookupStabilitySig:vector  ETV
204108	10129 149 77 644 20.014 21.039521673929 4 0.66666665673256 1 3.3087719231844 2.7935857112359
vector 204109  Network.dyn_peer[13]  lookupTimeSig:vector  ETV
204109	10278 110 77 644 20.014 21.039521673929 4 0 0.4 1 0.36
vector 204128  Network.dyn_peer[20]  lookupHopsSig:vector  ETV
204128	12163 106 103 635 20.021 21.030609492212 4 0 3 7 17
vector 204129  Network.dyn_peer[20]  lookupStabilitySig:vector  ETV
204129	12269 139 103 635 20.021 21.030609492212 4 0.59999999403954 1 3.1735294014216 2.6007006776704
vector 204130  Network.dyn_peer[20]  lookupTimeSig:vector  ETV
204130	12408 112 103 635 20.021 21.030609492212 4 0 0.4 1 0.34
vector 204155  Network.dyn_peer[29]  lookupHopsSig:vector  ETV
204155	17437 106 137 754 20.03 21.453730916779 4 0 5 11 51
vector 204156  Network.dyn_peer[29]  lookupStabilitySig:vector  ETV
204156	17543 151 137 754 20.03 21.453730916779 4 0.58333334326744 1 3.1750000119209 2.6070139035748
vector 204157  Network.dyn_peer[29]  lookupTimeSig:vector  ETV
204157	17694 112 137 754 20.03 21.453730916779 4 0 0.6 1.4 0.76
vector 204095  Network.dyn_peer[9]  lookupHopsSig:vector  ETV
204095	8778 38 151 328 20.11 20.41 2 1 2 3 5
vector 204096  Network.dyn_peer[9]  lookupStabilitySig:vector  ETV
204096	8816 68 151 328 20.11 20.41 2 0.59999999403954 0.79999999701977 1.3999999910593 0.99999998807908
vector 204097  Network.dyn_peer[9]  lookupTimeSig:vector  ETV
204097	8884 42 151 328 20.11 20.41 2 0.1 0.3 0.4 0.1
vector 204098  Network.dyn_peer[10]  lookupHopsSig:vector  ETV
204098	8926 78 156 623 20.111 21.025144552979 3 1 5 8 30
vector 204099  Network.dyn_peer[10]  lookupStabilitySig:vector  ETV
204099	9004 123 156 623 20.111 21.025144552979 3 0.59999999403954 0.79999999701977 2.0666666477919 1.444444419278
vector 204100  Network.dyn_peer[10]  lookupTimeSig:vector  ETV
204100	9127 84 156 623 20.111 21.025144552979 3 0.1 0.6 1 0.46
vector 204104  Network.dyn_peer[12]  lookupHopsSig:vector  ETV
204104	9767 69 162 656 20.113 21.113403064822 3 1 7 9 51
vector 204105  Network.dyn_peer[12]  lookupStabilitySig:vector  ETV
204105	9836 114 162 656 20.113 21.113403064822 3 0.41666668653488 0.94999999925494 2.1666666828096 1.716111121484
vector 204106  Network.dyn_peer[12]  lookupTimeSig:vector  ETV
204106	9950 75 162 656 20.113 21.113403064822 3 0.1 0.8 1.1 0.69
vector 204119  Network.dyn_peer[17]  lookupHopsSig:vector  ETV
204119	11396 69 171 497 20.118 20.722150153612 3 1 3 5 11
vector 204120  Network.dyn_peer[17]  lookupStabilitySig:vector  ETV
204120	11465 113 171 497 20.118 20.722150153612 3 0.5714285671711 0.89999999850988 2.2714285627007 1.7765305999286
vector 204121  Network.dyn_peer[17]  lookupTimeSig:vector  ETV
204121	11578 75 171 497 20.118 20.722150153612 3 0.1 0.4 0.7 0.21
vector 204143  Network.dyn_peer[25]  lookupHopsSig:vector  ETV
204143	15991 98 184 725 20.126 21.338017228185 4 1 5 10 36
vector 204144  Network.dyn_peer[25]  lookupStabilitySig:vector  ETV
204144	16089 158 184 725 20.126 21.338017228185 4 0.58333334326744 0.86363635957241 3.0469696968794 2.3661455414063
vector 204145  Network.dyn_peer[25]  lookupTimeSig:vector  ETV
204145	16247 106 184 725 20.126 21.338017228185 4 0.1 0.6 1.3 0.57
vector 204152  Network.dyn_peer[28]  lookupHopsSig:vector  ETV
204152	17283 40 191 631 20.129 21.029 2 1 8 9 65
vector 204153  Network.dyn_peer[28]  lookupStabilitySig:vector  ETV
204153	17323 70 191 631 20.129 21.029 2 0.46666663885117 0.79999999701977 1.2666666358709 0.85777774704828
vector 204154  Network.dyn_peer[28]  lookupTimeSig:vector  ETV
204154	17393 44 191 631 20.129 21.029 2 0.1 0.9 1 0.82
vector 204101  Network.dyn_peer[11]  lookupHopsSig:vector  ETV
204101	9211 156 209 861 20.212 22.233836919093 6 1 6 17 71
vector 204102  Network.dyn_peer[11]  lookupStabilitySig:vector  ETV
204102	9367 232 209 861 20.212 22.233836919093 6 0.5 0.96000000089407 4.7504761777818 3.9536521355221
vector 204103  Network.dyn_peer[11]  lookupTimeSig:vector  ETV
204103	9599 168 209 861 20.212 22.233836919093 6 0.2 0.7 2.2 1.06
vector 204110  Network.dyn_peer[14]  lookupHopsSig:vector  ETV
204110	10388 107 216 603 20.215 20.947913488105 4 1 2 6 10
vector 204111  Network.dyn_peer[14]  lookupStabilitySig:vector  ETV
204111	10495 167 216 603 20.215 20.947913488105 4 0.59999999403954 0.92307692021132 3.137362614274 2.5322750541784
vector 204112  Network.dyn_peer[14]  lookupTimeSig:vector  ETV
204112	10662 115 216 603 20.215 20.947913488105 4 0.2 0.3 0.9 0.21
vector 204116  Network.dyn_peer[16]  lookupHopsSig:vector  ETV
204116	11242 40 223 342 20.217 20.417 2 1 2 3 5
vector 204117  Network.dyn_peer[16]  lookupStabilitySig:vector  ETV
204117	11282 70 223 342 20.217 20.417 2 0.59999999403954 0.79999999701977 1.3999999910593 0.99999998807908
vector 204118  Network.dyn_peer[16]  lookupTimeSig:vector  ETV
204118	11352 44 223 342 20.217 20.417 2 0.2 0.2 0.4 0.08
vector 204122  Network.dyn_peer[18]  lookupHopsSig:vector  ETV
204122	11653 98 231 590 20.219 20.930270325448 4 1 2 6 10
vector 204123  Network.dyn_peer[18]  lookupStabilitySig:vector  ETV
204123	11751 158 231 590 20.219 20.930270325448 4 0.59999999403954 0.91666666418314 3.1166666522622 2.4802777565354
vector 204124  Network.dyn_peer[18]  lookupTimeSig:vector  ETV
204124	11909 106 231 590 20.219 20.930270325448 4 0.2 0.3 0.9 0.21
vector 204131  Network.dyn_peer[21]  lookupHopsSig:vector  ETV
204131	12520 330 239 967 20.222 25.483976780465 12 2 10 43 219
vector 204132  Network.dyn_peer[21]  lookupStabilitySig:vector  ETV
204132	12850 505 239 967 20.222 25.483976780465 12 0.54545453190804 0.9411764703691 10.183031301945 8.8415099846315
vector 204133  Network.dyn_peer[21]  lookupTimeSig:vector  ETV
204133	13355 353 239 967 20.222 25.483976780465 12 0.2 1.1 5.4 3.12
vector 204140  Network.dyn_peer[24]  lookupHopsSig:vector  ETV
204140	15345 183 247 927 20.225 23.16069522988 7 1 10 25 147
vector 204141  Network.dyn_peer[24]  lookupStabilitySig:vector  ETV
204141	15528 267 247 927 20.225 23.16069522988 7 0.59999999403954 0.96875 5.5376732870937 4.5608644776127
vector 204142  Network.dyn_peer[24]  lookupTimeSig:vector  ETV
204142	15795 196 247 927 20.225 23.16069522988 7 0.2 1.1 3.1 1.99
vector 204146  Network.dyn_peer[26]  lookupHopsSig:vector  ETV
204146	16353 156 253 852 20.227 22.140273868678 6 1 8 16 80
vector 204147  Network.dyn_peer[26]  lookupStabilitySig:vector  ETV
204147	16509 245 253 852 20.227 22.140273868678 6 0.59999999403954 0.96296296268702 5.0057238861919 4.3208344692802
vector 204148  Network.dyn_peer[26]  lookupTimeSig:vector  ETV
204148	16754 168 253 852 20.227 22.140273868678 6 0.2 0.9 2.1 1.13
vector 204068  Network.dyn_peer[0]  lookupHopsSig:vector  ETV
204068	6241 98 268 794 20.301 21.717603558823 4 2 6 14 58
vector 204069  Network.dyn_peer[0]  lookupStabilitySig:vector  ETV
204069	6339 158 268 794 20.301 21.717603558823 4 0.39999997615814 0.88461538404226 2.7261737808585 1.9816740300094
vector 204070  Network.dyn_peer[0]  lookupTimeSig:vector  ETV
204070	6497 106 268 794 20.301 21.717603558823 4 0.3 0.7 1.7 0.83
vector 204125  Network.dyn_peer[19]  lookupHopsSig:vector  ETV
204125	12015 38 291 541 20.32 20.82 2 3 4 7 25
vector 204126  Network.dyn_peer[19]  lookupStabilitySig:vector  ETV
204126	12053 68 291 541 20.32 20.82 2 0.39999997615814 0.63636362552643 1.0363636016846 0.56495864481965
vector 204127  Network.dyn_peer[19]  lookupTimeSig:vector  ETV
204127	12121 42 291 541 20.32 20.82 2 0.3 0.5 0.8 0.34
vector 204137  Network.dyn_peer[23]  lookupHopsSig:vector  ETV
204137	14463 243 299 908 20.324 22.769992660498 9 1 6 19 61
vector 204138  Network.dyn_peer[23]  lookupStabilitySig:vector  ETV
204138	14706 378 299 908 20.324 22.769992660498 9 0.39999997615814 0.96774193644524 7.6237598545849 6.7913196637855
vector 204139  Network.dyn_peer[23]  lookupTimeSig:vector  ETV
204139	15084 261 299 908 20.324 22.769992660498 9 0.2 0.7 2.7 1.01
vector 204077  Network.dyn_peer[3]  lookupHopsSig:vector  ETV
204077	7098 40 322 608 20.404 21.004 2 4 5 9 41
vector 204078  Network.dyn_peer[3]  lookupStabilitySig:vector  ETV
204078	7138 70 322 608 20.404 21.004 2 0.19999998807907 0.64285713434219 0.84285712242126 0.45326529040628
vector 204079  Network.dyn_peer[3]  lookupTimeSig:vector  ETV
204079	7208 44 322 608 20.404 21.004 2 0.4 0.6 1 0.52
vector 204113  Network.dyn_peer[15]  lookupHopsSig:vector  ETV
204113	10777 127 338 881 20.416 22.429903051117 5 1 7 20 100
vector 204114  Network.dyn_peer[15]  lookupStabilitySig:vector  ETV
204114	10904 201 338 881 20.416 22.429903051117 5 0.19999998807907 0.9666666649282 3.5561568029225 2.9004375447472
vector 204115  Network.dyn_peer[15]  lookupTimeSig:vector  ETV
204115	11105 137 338 881 20.416 22.429903051117 5 0.2 0.8 2.4 1.36
vector 204134  Network.dyn_peer[22]  lookupHopsSig:vector  ETV
204134	13708 213 359 925 20.423 23.151334484105 8 1 5 24 88
vector 204135  Network.dyn_peer[22]  lookupStabilitySig:vector  ETV
204135	13921 313 359 925 20.423 23.151334484105 8 0.33333331346512 0.96000000089407 6.4621315076947 5.541154361832
vector 204136  Network.dyn_peer[22]  lookupTimeSig:vector  ETV
204136	14234 229 359 925 20.423 23.151334484105 8 0.2 0.6 3.1 1.35
vector 204149  Network.dyn_peer[27]  lookupHopsSig:vector  ETV
204149	16922 98 372 786 20.428 21.636777748985 4 1 6 13 57
vector 204150  Network.dyn_peer[27]  lookupStabilitySig:vector  ETV
204150	17020 157 372 786 20.428 21.636777748985 4 0.42857140302658 0.9545454531908 3.0303895771503 2.4701560810019
vector 204151  Network.dyn_peer[27]  lookupTimeSig:vector  ETV
204151	17177 106 372 786 20.428 21.636777748985 4 0.2 0.7 1.6 0.78
vector 204071  Network.dyn_peer[1]  lookupHopsSig:vector  ETV
204071	6603 69 385 637 20.502 21.032291686552 3 1 5 8 30
vector 204072  Network.dyn_peer[1]  lookupStabilitySig:vector  ETV
204072	6672 113 385 637 20.502 21.032291686552 3 0.28571426868439 0.88888888806105 2.0569560974836 1.6503028106776
vector 204073  Network.dyn_peer[1]  lookupTimeSig:vector  ETV
204073	6785 75 385 637 20.502 21.032291686552 3 0.2 0.5 1 0.38
vector 204086  Network.dyn_peer[6]  lookupHopsSig:vector  ETV
204086	7936 98 392 736 20.507 21.409847717681 4 1 5 11 39
vector 204087  Network.dyn_peer[6]  lookupStabilitySig:vector  ETV
204087	8034 146 392 736 20.507 21.409847717681 4 0.28571426868439 0.94999999925494 2.8987577445805 2.3802810321513
vector 204088  Network.dyn_peer[6]  lookupTimeSig:vector  ETV
204088	8180 106 392 736 20.507 21.409847717681 4 0.2 0.5 1.4 0.54
