file 15746 1369522287                                           
version 2
run Stability2-71-20130526-00:51:27-26640
attr configname Stability2
attr datetime 20130526-00:51:27
attr experiment Stability2
attr inifile omnetpp.ini
attr iterationvars $0=30
attr iterationvars2 "$0=30, $repetition=11"
attr measurement $0=30
attr network Network
attr processid 26640
attr repetition 11
attr replication #11
attr resultdir results
attr runnumber 71
attr seedset 71

vector 216071  Network.churner  inGoingSizeSig:vector  ETV
vector 213098  Network.dyn_peer[9]  lookupHopsSig:vector  ETV
vector 213099  Network.dyn_peer[9]  lookupStabilitySig:vector  ETV
vector 213100  Network.dyn_peer[9]  lookupTimeSig:vector  ETV
vector 213101  Network.dyn_peer[10]  lookupHopsSig:vector  ETV
vector 213102  Network.dyn_peer[10]  lookupStabilitySig:vector  ETV
vector 213103  Network.dyn_peer[10]  lookupTimeSig:vector  ETV
vector 213116  Network.dyn_peer[15]  lookupHopsSig:vector  ETV
vector 213117  Network.dyn_peer[15]  lookupStabilitySig:vector  ETV
vector 213118  Network.dyn_peer[15]  lookupTimeSig:vector  ETV
vector 213119  Network.dyn_peer[16]  lookupHopsSig:vector  ETV
vector 213120  Network.dyn_peer[16]  lookupStabilitySig:vector  ETV
vector 213121  Network.dyn_peer[16]  lookupTimeSig:vector  ETV
vector 213134  Network.dyn_peer[21]  lookupHopsSig:vector  ETV
vector 213135  Network.dyn_peer[21]  lookupStabilitySig:vector  ETV
vector 213136  Network.dyn_peer[21]  lookupTimeSig:vector  ETV
vector 213140  Network.dyn_peer[23]  lookupHopsSig:vector  ETV
vector 213141  Network.dyn_peer[23]  lookupStabilitySig:vector  ETV
vector 213142  Network.dyn_peer[23]  lookupTimeSig:vector  ETV
vector 213074  Network.dyn_peer[1]  lookupHopsSig:vector  ETV
vector 213075  Network.dyn_peer[1]  lookupStabilitySig:vector  ETV
vector 213076  Network.dyn_peer[1]  lookupTimeSig:vector  ETV
vector 213077  Network.dyn_peer[2]  lookupHopsSig:vector  ETV
vector 213078  Network.dyn_peer[2]  lookupStabilitySig:vector  ETV
vector 213079  Network.dyn_peer[2]  lookupTimeSig:vector  ETV
vector 213083  Network.dyn_peer[4]  lookupHopsSig:vector  ETV
vector 213084  Network.dyn_peer[4]  lookupStabilitySig:vector  ETV
vector 213085  Network.dyn_peer[4]  lookupTimeSig:vector  ETV
vector 213071  Network.dyn_peer[0]  lookupHopsSig:vector  ETV
vector 213072  Network.dyn_peer[0]  lookupStabilitySig:vector  ETV
vector 213073  Network.dyn_peer[0]  lookupTimeSig:vector  ETV
vector 213086  Network.dyn_peer[5]  lookupHopsSig:vector  ETV
vector 213087  Network.dyn_peer[5]  lookupStabilitySig:vector  ETV
vector 213088  Network.dyn_peer[5]  lookupTimeSig:vector  ETV
vector 213095  Network.dyn_peer[8]  lookupHopsSig:vector  ETV
vector 213096  Network.dyn_peer[8]  lookupStabilitySig:vector  ETV
vector 213097  Network.dyn_peer[8]  lookupTimeSig:vector  ETV
vector 213110  Network.dyn_peer[13]  lookupHopsSig:vector  ETV
vector 213111  Network.dyn_peer[13]  lookupStabilitySig:vector  ETV
vector 213112  Network.dyn_peer[13]  lookupTimeSig:vector  ETV
vector 213125  Network.dyn_peer[18]  lookupHopsSig:vector  ETV
vector 213126  Network.dyn_peer[18]  lookupStabilitySig:vector  ETV
vector 213127  Network.dyn_peer[18]  lookupTimeSig:vector  ETV
vector 213131  Network.dyn_peer[20]  lookupHopsSig:vector  ETV
vector 213132  Network.dyn_peer[20]  lookupStabilitySig:vector  ETV
vector 213133  Network.dyn_peer[20]  lookupTimeSig:vector  ETV
vector 213158  Network.dyn_peer[29]  lookupHopsSig:vector  ETV
vector 213159  Network.dyn_peer[29]  lookupStabilitySig:vector  ETV
vector 213160  Network.dyn_peer[29]  lookupTimeSig:vector  ETV
vector 213080  Network.dyn_peer[3]  lookupHopsSig:vector  ETV
vector 213081  Network.dyn_peer[3]  lookupStabilitySig:vector  ETV
vector 213082  Network.dyn_peer[3]  lookupTimeSig:vector  ETV
vector 213089  Network.dyn_peer[6]  lookupHopsSig:vector  ETV
vector 213090  Network.dyn_peer[6]  lookupStabilitySig:vector  ETV
vector 213091  Network.dyn_peer[6]  lookupTimeSig:vector  ETV
vector 213104  Network.dyn_peer[11]  lookupHopsSig:vector  ETV
vector 213105  Network.dyn_peer[11]  lookupStabilitySig:vector  ETV
vector 213106  Network.dyn_peer[11]  lookupTimeSig:vector  ETV
vector 213107  Network.dyn_peer[12]  lookupHopsSig:vector  ETV
vector 213108  Network.dyn_peer[12]  lookupStabilitySig:vector  ETV
vector 213109  Network.dyn_peer[12]  lookupTimeSig:vector  ETV
vector 213113  Network.dyn_peer[14]  lookupHopsSig:vector  ETV
vector 213114  Network.dyn_peer[14]  lookupStabilitySig:vector  ETV
vector 213115  Network.dyn_peer[14]  lookupTimeSig:vector  ETV
vector 213092  Network.dyn_peer[7]  lookupHopsSig:vector  ETV
vector 213093  Network.dyn_peer[7]  lookupStabilitySig:vector  ETV
vector 213094  Network.dyn_peer[7]  lookupTimeSig:vector  ETV
vector 213122  Network.dyn_peer[17]  lookupHopsSig:vector  ETV
vector 213123  Network.dyn_peer[17]  lookupStabilitySig:vector  ETV
vector 213124  Network.dyn_peer[17]  lookupTimeSig:vector  ETV
vector 213143  Network.dyn_peer[24]  lookupHopsSig:vector  ETV
vector 213144  Network.dyn_peer[24]  lookupStabilitySig:vector  ETV
vector 213145  Network.dyn_peer[24]  lookupTimeSig:vector  ETV
vector 213146  Network.dyn_peer[25]  lookupHopsSig:vector  ETV
vector 213147  Network.dyn_peer[25]  lookupStabilitySig:vector  ETV
vector 213148  Network.dyn_peer[25]  lookupTimeSig:vector  ETV
vector 213149  Network.dyn_peer[26]  lookupHopsSig:vector  ETV
vector 213150  Network.dyn_peer[26]  lookupStabilitySig:vector  ETV
vector 213151  Network.dyn_peer[26]  lookupTimeSig:vector  ETV
vector 213152  Network.dyn_peer[27]  lookupHopsSig:vector  ETV
vector 213153  Network.dyn_peer[27]  lookupStabilitySig:vector  ETV
vector 213154  Network.dyn_peer[27]  lookupTimeSig:vector  ETV
vector 213137  Network.dyn_peer[22]  lookupHopsSig:vector  ETV
vector 213138  Network.dyn_peer[22]  lookupStabilitySig:vector  ETV
vector 213139  Network.dyn_peer[22]  lookupTimeSig:vector  ETV
vector 213155  Network.dyn_peer[28]  lookupHopsSig:vector  ETV
vector 213156  Network.dyn_peer[28]  lookupStabilitySig:vector  ETV
vector 213157  Network.dyn_peer[28]  lookupTimeSig:vector  ETV
vector 213128  Network.dyn_peer[19]  lookupHopsSig:vector  ETV
vector 213129  Network.dyn_peer[19]  lookupStabilitySig:vector  ETV
vector 213130  Network.dyn_peer[19]  lookupTimeSig:vector  ETV
213071	6244 69 196 737 20.201 21.306414434715 3 2 6 11 49
213072	6313 114 196 737 20.201 21.306414434715 3 0.33333331346512 0.84999999403954 1.7833333015442 1.1936110805803
213073	6427 75 196 737 20.201 21.306414434715 3 0.2 0.7 1.3 0.69
213074	6502 69 148 426 20.102 20.604315026796 3 1 2 4 6
213075	6571 114 148 426 20.102 20.604315026796 3 0.59999999403954 0.79999999701977 2.1999999880791 1.6399999833107
213076	6685 75 148 426 20.102 20.604315026796 3 0.1 0.3 0.6 0.14
213077	6760 98 153 721 20.103 21.222821951029 4 1 4 9 25
213078	6858 158 153 721 20.103 21.222821951029 4 0.55555555224419 0.88888888806105 2.8444444313645 2.0987654150268
213079	7016 106 153 721 20.103 21.222821951029 4 0.1 0.5 1.2 0.44
213080	7122 97 273 850 20.304 21.913925378404 4 1 6 16 82
213081	7219 157 273 850 20.304 21.913925378404 4 0.39999997615814 0.96428571268916 2.5420634411275 1.8547851665789
213082	7376 105 273 850 20.304 21.913925378404 4 0.2 0.7 1.9 1.11
213083	7481 78 159 810 20.105 21.615979858919 3 1 7 14 86
213084	7559 111 159 810 20.105 21.615979858919 3 0.25 0.79999999701977 1.7807692140341 1.2365236437673
213085	7670 84 159 810 20.105 21.615979858919 3 0.1 0.8 1.6 1.14
213086	7754 98 204 786 20.206 21.516798412714 4 1 6 12 50
213087	7852 158 204 786 20.206 21.516798412714 4 0.33333331346512 0.95652173832059 2.7398550398648 2.1085449164601
213088	8010 106 204 786 20.206 21.516798412714 4 0.2 0.7 1.5 0.73
213089	8116 98 280 854 20.307 21.923747388049 4 3 5 16 66
213090	8214 158 280 854 20.307 21.923747388049 4 0.39999997615814 0.86206896603107 2.5246951729059 1.7701152025069
213091	8372 106 280 854 20.307 21.923747388049 4 0.3 0.6 1.9 0.95
213092	8478 69 376 633 20.508 21.015292285414 3 1 5 8 30
213093	8547 87 376 633 20.508 21.015292285414 3 0 0.90909090638161 1.6590909063816 1.3889462760657
213094	8634 75 376 633 20.508 21.015292285414 3 0.2 0.5 1 0.38
213095	8709 98 211 770 20.209 21.420337981023 4 2 4 11 33
213096	8807 158 211 770 20.209 21.420337981023 4 0.33333331346512 0.86363635957241 2.6303029954433 1.9114232884546
213097	8965 106 211 770 20.209 21.420337981023 4 0.2 0.5 1.4 0.54
213098	9071 76 45 642 20.01 21.018786469117 3 0 5 8 34
213099	9147 94 45 642 20.01 21.018786469117 3 0.16666668653488 1 1.9166666865349 1.5902777844005
213100	9241 80 45 642 20.01 21.018786469117 3 0 0.6 1 0.52
213101	9321 48 52 543 20.011 20.811238007439 2 0 7 7 49
213102	9369 52 52 543 20.011 20.811238007439 2 0.125 1 1.125 1.015625
213103	9421 50 52 543 20.011 20.811238007439 2 0 0.8 0.8 0.64
213104	9471 69 289 717 20.312 21.220075393233 3 3 4 10 34
213105	9540 101 289 717 20.312 21.220075393233 3 0.39999997615814 0.82352940738201 1.7235293835402 1.0882006657495
213106	9641 75 289 717 20.312 21.220075393233 3 0.3 0.5 1.2 0.5
213107	9716 69 333 630 20.413 21.014307604291 3 1 4 8 26
213108	9785 114 333 630 20.413 21.014307604291 3 0.19999998807907 0.83333332836628 1.7333333045244 1.2244444147083
213109	9899 75 333 630 20.413 21.014307604291 3 0.2 0.4 1 0.36
213110	9974 69 223 520 20.214 20.728524673606 3 1 2 5 9
213111	10043 114 223 520 20.214 20.728524673606 3 0.59999999403954 0.83333332836628 2.0333333164454 1.4144444218609
213112	10157 75 223 520 20.214 20.728524673606 3 0.2 0.3 0.7 0.17
213113	10232 40 341 681 20.415 21.115 2 4 6 10 52
213114	10272 70 341 681 20.415 21.115 2 0.19999998807907 0.59999999403954 0.79999998211861 0.39999998807907
213115	10342 44 341 681 20.415 21.115 2 0.4 0.7 1.1 0.65
213116	10386 77 76 602 20.016 20.920235837585 3 0 4 7 25
213117	10463 107 76 602 20.016 20.920235837585 3 0.19999998807907 1 1.8666666448116 1.4844444264306
213118	10570 81 76 602 20.016 20.920235837585 3 0 0.5 0.9 0.41
213119	10651 126 85 859 20.017 21.935679864922 5 0 9 15 99
213120	10777 173 85 859 20.017 21.935679864922 5 0.25 1 4.0129629559815 3.6186865447564
213121	10950 132 85 859 20.017 21.935679864922 5 0 1 1.9 1.33
213122	11082 98 397 832 20.518 21.734939838343 4 2 5 14 54
213123	11180 143 397 832 20.518 21.734939838343 4 0 0.90476190298796 2.4603174477816 2.0531619876158
213124	11323 106 397 832 20.518 21.734939838343 4 0.3 0.5 1.7 0.75
213125	11429 40 234 684 20.219 21.119 2 2 8 10 68
213126	11469 70 234 684 20.219 21.119 2 0.46666663885117 0.59999999403954 1.0666666328907 0.57777774466409
213127	11539 44 234 684 20.219 21.119 2 0.2 0.9 1.1 0.85
213128	11583 97 689 871 21.12 22.122438182099 4 1 11 18 142
213129	11680 136 689 871 21.12 22.122438182099 4 0.3125 0.96428571268916 3.0661375634372 2.6320610113193
213130	11816 104 689 871 21.12 22.122438182099 4 0.2 1.1 2.1 1.59
213131	11920 98 241 665 20.221 21.038263305929 4 1 2 7 13
213132	12018 158 241 665 20.221 21.038263305929 4 0.59999999403954 0.84615384042263 2.9128204882145 2.16042074094
213133	12176 106 241 665 20.221 21.038263305929 4 0.2 0.3 1 0.26
213134	12282 69 108 523 20.022 20.729881374164 3 0 4 5 17
213135	12351 99 108 523 20.022 20.729881374164 3 0.33333331346512 1 2.1333333104849 1.7511110930973
213136	12450 73 108 523 20.022 20.729881374164 3 0 0.5 0.7 0.29
213137	12523 98 513 878 20.723 22.246653559704 4 2 7 19 111
213138	12621 159 513 878 20.723 22.246653559704 4 -0.16666662693024 0.92857142537832 2.3820028454065 2.2230736566426
213139	12780 106 513 878 20.723 22.246653559704 4 0.3 0.8 2.2 1.38
213140	12886 126 119 673 20.024 21.051787857947 5 0 3 6 12
213141	13012 186 119 673 20.024 21.051787857947 5 0.78571428358555 1 4.2190476059914 3.5917913620596
213142	13198 134 119 673 20.024 21.051787857947 5 0 0.4 1 0.28
213143	13332 126 455 875 20.625 22.23015496707 5 1 7 18 96
213144	13458 186 455 875 20.625 22.23015496707 5 0 0.96969696879387 3.5259482339025 3.157962507591
213145	13644 136 455 875 20.625 22.23015496707 5 0.2 0.8 2.2 1.24
213146	13780 69 460 731 20.626 21.242640346036 3 2 6 10 44
213147	13849 99 460 731 20.626 21.242640346036 3 0 0.89473684132099 1.6947368383408 1.4405540104487
213148	13948 75 460 731 20.626 21.242640346036 3 0.3 0.6 1.2 0.54
213149	14023 69 468 754 20.627 21.328179573973 3 2 6 11 49
213150	14092 99 468 754 20.627 21.328179573973 3 0 0.90476190298796 1.6739926710725 1.4103100756663
213151	14191 75 468 754 20.627 21.328179573973 3 0.3 0.6 1.3 0.61
213152	14266 69 473 864 20.628 22.028499303094 3 4 8 18 116
213153	14335 99 473 864 20.628 22.028499303094 3 0 0.87096774578094 1.5376344025135 1.2030292453897
213154	14434 75 473 864 20.628 22.028499303094 3 0.5 0.9 2 1.42
213155	14509 79 661 805 21.029 21.550902776477 3 1 10 13 105
213156	14588 123 661 805 21.029 21.550902776477 3 0.23076921701431 0.96000000089407 2.09986012429 1.8013007093037
213157	14711 82 661 805 21.029 21.550902776477 3 0.2 1 1.5 1.13
213158	14793 95 262 801 20.23 21.53493183046 4 2 5 12 42
213159	14888 144 262 801 20.23 21.53493183046 4 0.59999999403954 0.875 2.7808823287487 1.9838948645641
213160	15032 103 262 801 20.23 21.53493183046 4 0.2 0.6 1.5 0.65
216071	15135 611 11 138 20 20.03 31 0 29 435 8555
