version 2
run Stability2-17-20130526-00:51:11-26640
attr configname Stability2
attr datetime 20130526-00:51:11
attr experiment Stability2
attr inifile omnetpp.ini
attr iterationvars $0=10
attr iterationvars2 "$0=10, $repetition=17"
attr measurement $0=10
attr network Network
attr processid 26640
attr repetition 17
attr replication #17
attr resultdir results
attr runnumber 17
attr seedset 17

vector 54017  Network.churner  inGoingSizeSig:vector  ETV
vector 51029  Network.dyn_peer[4]  lookupHopsSig:vector  ETV
vector 51030  Network.dyn_peer[4]  lookupStabilitySig:vector  ETV
vector 51031  Network.dyn_peer[4]  lookupTimeSig:vector  ETV
vector 51038  Network.dyn_peer[7]  lookupHopsSig:vector  ETV
vector 51039  Network.dyn_peer[7]  lookupStabilitySig:vector  ETV
vector 51040  Network.dyn_peer[7]  lookupTimeSig:vector  ETV
vector 51041  Network.dyn_peer[8]  lookupHopsSig:vector  ETV
vector 51042  Network.dyn_peer[8]  lookupStabilitySig:vector  ETV
vector 51043  Network.dyn_peer[8]  lookupTimeSig:vector  ETV
vector 51020  Network.dyn_peer[1]  lookupHopsSig:vector  ETV
vector 51021  Network.dyn_peer[1]  lookupStabilitySig:vector  ETV
vector 51022  Network.dyn_peer[1]  lookupTimeSig:vector  ETV
vector 51026  Network.dyn_peer[3]  lookupHopsSig:vector  ETV
vector 51027  Network.dyn_peer[3]  lookupStabilitySig:vector  ETV
vector 51028  Network.dyn_peer[3]  lookupTimeSig:vector  ETV
vector 51044  Network.dyn_peer[9]  lookupHopsSig:vector  ETV
vector 51045  Network.dyn_peer[9]  lookupStabilitySig:vector  ETV
vector 51046  Network.dyn_peer[9]  lookupTimeSig:vector  ETV
vector 51023  Network.dyn_peer[2]  lookupHopsSig:vector  ETV
vector 51024  Network.dyn_peer[2]  lookupStabilitySig:vector  ETV
vector 51025  Network.dyn_peer[2]  lookupTimeSig:vector  ETV
vector 51032  Network.dyn_peer[5]  lookupHopsSig:vector  ETV
vector 51033  Network.dyn_peer[5]  lookupStabilitySig:vector  ETV
vector 51034  Network.dyn_peer[5]  lookupTimeSig:vector  ETV
vector 51035  Network.dyn_peer[6]  lookupHopsSig:vector  ETV
vector 51036  Network.dyn_peer[6]  lookupStabilitySig:vector  ETV
vector 51037  Network.dyn_peer[6]  lookupTimeSig:vector  ETV
vector 51017  Network.dyn_peer[0]  lookupHopsSig:vector  ETV
vector 51018  Network.dyn_peer[0]  lookupStabilitySig:vector  ETV
vector 51019  Network.dyn_peer[0]  lookupTimeSig:vector  ETV
51017	101	20.301	3
51017	201	20.901	5
51017	223	21.112974993047	1
51017	231	21.325696215594	1
51018	101	20.301	0.39999997615814
51018	201	20.901	0.44444441795349
51018	223	21.112974993047	0.92307692021132
51018	231	21.325696215594	0.92857142537832
51019	101	20.301	0.3
51019	201	20.901	0.6
51019	223	21.112974993047	0.2
51019	231	21.325696215594	0.2
51020	57	20.102	1
51020	177	20.710335782731	5
51021	57	20.102	0.79999999701977
51021	177	20.710335782731	0
51022	57	20.102	0.1
51022	177	20.710335782731	0.6
51023	80	20.203	2
51023	122	20.403	1
51023	173	20.709587420108	2
51023	213	20.919322085163	1
51024	80	20.203	0.59999999403954
51024	122	20.403	0.79999999701977
51024	173	20.709587420108	0.59999999403954
51024	213	20.919322085163	0.88888888806105
51025	80	20.203	0.2
51025	122	20.403	0.2
51025	173	20.709587420108	0.3
51025	213	20.919322085163	0.2
51026	63	20.104	1
51026	104	20.304	1
51026	181	20.712408256194	3
51027	63	20.104	0.79999999701977
51027	104	20.304	0.79999999701977
51027	181	20.712408256194	0.39999997615814
51028	63	20.104	0.1
51028	104	20.304	0.2
51028	181	20.712408256194	0.4
51029	28	20.005	0
51029	106	20.305	2
51029	138	20.509426759993	1
51029	218	20.943671017634	3
51030	28	20.005	1
51030	106	20.305	0.59999999403954
51030	138	20.509426759993	0.79999999701977
51030	218	20.943671017634	0.75
51031	28	20.005	0
51031	106	20.305	0.3
51031	138	20.509426759993	0.2
51031	218	20.943671017634	0.4
51032	87	20.206	2
51032	167	20.706	4
51032	204	20.908555952782	1
51032	225	21.116471781117	1
51033	87	20.206	0.59999999403954
51033	167	20.706	0.19999998807907
51033	204	20.908555952782	0.88888888806105
51033	225	21.116471781117	0.92307692021132
51034	87	20.206	0.2
51034	167	20.706	0.5
51034	204	20.908555952782	0.2
51034	225	21.116471781117	0.2
51035	92	20.207	2
51035	135	20.507	2
51035	175	20.71008493162	1
51035	210	20.913631199076	1
51036	92	20.207	0.59999999403954
51036	135	20.507	0.59999999403954
51036	175	20.71008493162	0.79999999701977
51036	210	20.913631199076	0.88888888806105
51037	92	20.207	0.2
51037	135	20.507	0.3
51037	175	20.71008493162	0.2
51037	210	20.913631199076	0.2
51038	41	20.008	0
51038	169	20.708	6
51038	207	20.912731481407	1
51039	41	20.008	1
51039	169	20.708	-0.20000004768372
51039	207	20.912731481407	0.88888888806105
51040	41	20.008	0
51040	169	20.708	0.7
51040	207	20.912731481407	0.2
51041	48	20.009	0
51041	111	20.309	2
51041	161	20.620783788445	2
51041	197	20.833597747866	1
51042	48	20.009	1
51042	111	20.309	0.59999999403954
51042	161	20.620783788445	0.59999999403954
51042	197	20.833597747866	0.875
51043	48	20.009	0
51043	111	20.309	0.3
51043	161	20.620783788445	0.3
51043	197	20.833597747866	0.2
51044	73	20.11	1
51044	141	20.51	3
51044	185	20.715612968725	1
51045	73	20.11	0.79999999701977
51045	141	20.51	0.39999997615814
51045	185	20.715612968725	0.83333332836628
51046	73	20.11	0.1
51046	141	20.51	0.4
51046	185	20.715612968725	0.2
54017	9	20	0
54017	10	20.001	0
54017	13	20.002	1
54017	16	20.003	2
54017	19	20.004	3
54017	22	20.005	4
54017	29	20.006	5
54017	32	20.007	6
54017	35	20.008	7
54017	42	20.009	8
54017	49	20.01	9
