version 2
run Stability2-62-20130526-00:51:24-26640
attr configname Stability2
attr datetime 20130526-00:51:24
attr experiment Stability2
attr inifile omnetpp.ini
attr iterationvars $0=30
attr iterationvars2 "$0=30, $repetition=2"
attr measurement $0=30
attr network Network
attr processid 26640
attr repetition 2
attr replication #2
attr resultdir results
attr runnumber 62
attr seedset 62

vector 189062  Network.churner  inGoingSizeSig:vector  ETV
vector 186062  Network.dyn_peer[0]  lookupHopsSig:vector  ETV
vector 186063  Network.dyn_peer[0]  lookupStabilitySig:vector  ETV
vector 186064  Network.dyn_peer[0]  lookupTimeSig:vector  ETV
vector 186071  Network.dyn_peer[3]  lookupHopsSig:vector  ETV
vector 186072  Network.dyn_peer[3]  lookupStabilitySig:vector  ETV
vector 186073  Network.dyn_peer[3]  lookupTimeSig:vector  ETV
vector 186077  Network.dyn_peer[5]  lookupHopsSig:vector  ETV
vector 186078  Network.dyn_peer[5]  lookupStabilitySig:vector  ETV
vector 186079  Network.dyn_peer[5]  lookupTimeSig:vector  ETV
vector 186080  Network.dyn_peer[6]  lookupHopsSig:vector  ETV
vector 186081  Network.dyn_peer[6]  lookupStabilitySig:vector  ETV
vector 186082  Network.dyn_peer[6]  lookupTimeSig:vector  ETV
vector 186083  Network.dyn_peer[7]  lookupHopsSig:vector  ETV
vector 186084  Network.dyn_peer[7]  lookupStabilitySig:vector  ETV
vector 186085  Network.dyn_peer[7]  lookupTimeSig:vector  ETV
vector 186128  Network.dyn_peer[22]  lookupHopsSig:vector  ETV
vector 186129  Network.dyn_peer[22]  lookupStabilitySig:vector  ETV
vector 186130  Network.dyn_peer[22]  lookupTimeSig:vector  ETV
vector 186068  Network.dyn_peer[2]  lookupHopsSig:vector  ETV
vector 186069  Network.dyn_peer[2]  lookupStabilitySig:vector  ETV
vector 186070  Network.dyn_peer[2]  lookupTimeSig:vector  ETV
vector 186074  Network.dyn_peer[4]  lookupHopsSig:vector  ETV
vector 186075  Network.dyn_peer[4]  lookupStabilitySig:vector  ETV
vector 186076  Network.dyn_peer[4]  lookupTimeSig:vector  ETV
vector 186107  Network.dyn_peer[15]  lookupHopsSig:vector  ETV
vector 186108  Network.dyn_peer[15]  lookupStabilitySig:vector  ETV
vector 186109  Network.dyn_peer[15]  lookupTimeSig:vector  ETV
vector 186146  Network.dyn_peer[28]  lookupHopsSig:vector  ETV
vector 186147  Network.dyn_peer[28]  lookupStabilitySig:vector  ETV
vector 186148  Network.dyn_peer[28]  lookupTimeSig:vector  ETV
vector 186086  Network.dyn_peer[8]  lookupHopsSig:vector  ETV
vector 186087  Network.dyn_peer[8]  lookupStabilitySig:vector  ETV
vector 186088  Network.dyn_peer[8]  lookupTimeSig:vector  ETV
vector 186092  Network.dyn_peer[10]  lookupHopsSig:vector  ETV
vector 186093  Network.dyn_peer[10]  lookupStabilitySig:vector  ETV
vector 186094  Network.dyn_peer[10]  lookupTimeSig:vector  ETV
vector 186095  Network.dyn_peer[11]  lookupHopsSig:vector  ETV
vector 186096  Network.dyn_peer[11]  lookupStabilitySig:vector  ETV
vector 186097  Network.dyn_peer[11]  lookupTimeSig:vector  ETV
vector 186113  Network.dyn_peer[17]  lookupHopsSig:vector  ETV
vector 186114  Network.dyn_peer[17]  lookupStabilitySig:vector  ETV
vector 186115  Network.dyn_peer[17]  lookupTimeSig:vector  ETV
vector 186119  Network.dyn_peer[19]  lookupHopsSig:vector  ETV
vector 186120  Network.dyn_peer[19]  lookupStabilitySig:vector  ETV
vector 186121  Network.dyn_peer[19]  lookupTimeSig:vector  ETV
vector 186137  Network.dyn_peer[25]  lookupHopsSig:vector  ETV
vector 186138  Network.dyn_peer[25]  lookupStabilitySig:vector  ETV
vector 186139  Network.dyn_peer[25]  lookupTimeSig:vector  ETV
vector 186110  Network.dyn_peer[16]  lookupHopsSig:vector  ETV
vector 186111  Network.dyn_peer[16]  lookupStabilitySig:vector  ETV
vector 186112  Network.dyn_peer[16]  lookupTimeSig:vector  ETV
vector 186089  Network.dyn_peer[9]  lookupHopsSig:vector  ETV
vector 186090  Network.dyn_peer[9]  lookupStabilitySig:vector  ETV
vector 186091  Network.dyn_peer[9]  lookupTimeSig:vector  ETV
vector 186098  Network.dyn_peer[12]  lookupHopsSig:vector  ETV
vector 186099  Network.dyn_peer[12]  lookupStabilitySig:vector  ETV
vector 186100  Network.dyn_peer[12]  lookupTimeSig:vector  ETV
vector 186101  Network.dyn_peer[13]  lookupHopsSig:vector  ETV
vector 186102  Network.dyn_peer[13]  lookupStabilitySig:vector  ETV
vector 186103  Network.dyn_peer[13]  lookupTimeSig:vector  ETV
vector 186104  Network.dyn_peer[14]  lookupHopsSig:vector  ETV
vector 186105  Network.dyn_peer[14]  lookupStabilitySig:vector  ETV
vector 186106  Network.dyn_peer[14]  lookupTimeSig:vector  ETV
vector 186143  Network.dyn_peer[27]  lookupHopsSig:vector  ETV
vector 186144  Network.dyn_peer[27]  lookupStabilitySig:vector  ETV
vector 186145  Network.dyn_peer[27]  lookupTimeSig:vector  ETV
vector 186116  Network.dyn_peer[18]  lookupHopsSig:vector  ETV
vector 186117  Network.dyn_peer[18]  lookupStabilitySig:vector  ETV
vector 186118  Network.dyn_peer[18]  lookupTimeSig:vector  ETV
vector 186122  Network.dyn_peer[20]  lookupHopsSig:vector  ETV
vector 186123  Network.dyn_peer[20]  lookupStabilitySig:vector  ETV
vector 186124  Network.dyn_peer[20]  lookupTimeSig:vector  ETV
vector 186125  Network.dyn_peer[21]  lookupHopsSig:vector  ETV
vector 186126  Network.dyn_peer[21]  lookupStabilitySig:vector  ETV
vector 186127  Network.dyn_peer[21]  lookupTimeSig:vector  ETV
vector 186140  Network.dyn_peer[26]  lookupHopsSig:vector  ETV
vector 186141  Network.dyn_peer[26]  lookupStabilitySig:vector  ETV
vector 186142  Network.dyn_peer[26]  lookupTimeSig:vector  ETV
vector 186149  Network.dyn_peer[29]  lookupHopsSig:vector  ETV
vector 186150  Network.dyn_peer[29]  lookupStabilitySig:vector  ETV
vector 186151  Network.dyn_peer[29]  lookupTimeSig:vector  ETV
vector 186134  Network.dyn_peer[24]  lookupHopsSig:vector  ETV
vector 186135  Network.dyn_peer[24]  lookupStabilitySig:vector  ETV
vector 186136  Network.dyn_peer[24]  lookupTimeSig:vector  ETV
vector 186065  Network.dyn_peer[1]  lookupHopsSig:vector  ETV
vector 186066  Network.dyn_peer[1]  lookupStabilitySig:vector  ETV
vector 186067  Network.dyn_peer[1]  lookupTimeSig:vector  ETV
vector 186131  Network.dyn_peer[23]  lookupHopsSig:vector  ETV
vector 186132  Network.dyn_peer[23]  lookupStabilitySig:vector  ETV
vector 186133  Network.dyn_peer[23]  lookupTimeSig:vector  ETV
186062	17	20.001	0
186062	410	20.601	5
186062	623	21.007828967069	3
186063	17	20.001	1
186063	410	20.601	0.16666668653488
186063	623	21.007828967069	0.69999998807907
186064	17	20.001	0
186064	410	20.601	0.6
186064	623	21.007828967069	0.4
186065	575	20.902	9
186065	834	21.702	7
186065	928	22.403118058611	6
186065	954	22.811102660748	3
186065	968	23.022996361048	1
186065	976	23.326079418004	2
186065	982	23.727339218874	3
186065	987	24.03141234112	2
186066	575	20.902	0
186066	834	21.702	0.69565218687057
186066	928	22.403118058611	0.80645161867142
186066	954	22.811102660748	0.90625
186066	968	23.022996361048	0.96969696879387
186066	976	23.326079418004	0.9411764703691
186066	982	23.727339218874	0.91176470369101
186066	987	24.03141234112	0.9411764703691
186067	575	20.902	0.9
186067	834	21.702	0.8
186067	928	22.403118058611	0.7
186067	954	22.811102660748	0.4
186067	968	23.022996361048	0.2
186067	976	23.326079418004	0.3
186067	982	23.727339218874	0.4
186067	987	24.03141234112	0.3
186068	138	20.103	1
186068	248	20.303	1
186068	382	20.517132643088	1
186068	724	21.223939497181	6
186068	777	21.424511090627	1
186069	138	20.103	0.79999999701977
186069	248	20.303	0.79999999701977
186069	382	20.517132643088	0.79999999701977
186069	724	21.223939497181	0.66666665673256
186069	777	21.424511090627	0.9545454531908
186070	138	20.103	0.1
186070	248	20.303	0.2
186070	382	20.517132643088	0.2
186070	724	21.223939497181	0.7
186070	777	21.424511090627	0.2
186071	30	20.004	0
186071	191	20.208643627339	1
186071	477	20.715741485783	4
186072	30	20.004	1
186072	191	20.208643627339	0.79999999701977
186072	477	20.715741485783	0.33333331346512
186073	30	20.004	0
186073	191	20.208643627339	0.2
186073	477	20.715741485783	0.5
186074	143	20.105	1
186074	363	20.505	3
186074	578	20.908738124307	3
186075	143	20.105	0.79999999701977
186075	363	20.505	0.39999997615814
186075	578	20.908738124307	0.66666665673256
186076	143	20.105	0.1
186076	363	20.505	0.4
186076	578	20.908738124307	0.4
186077	41	20.006	0
186077	523	20.806	7
186077	753	21.326922608087	4
186077	848	21.736680990796	3
186078	41	20.006	1
186078	523	20.806	0.125
186078	753	21.326922608087	0.79999999701977
186078	848	21.736680990796	0.86956521868706
186079	41	20.006	0
186079	523	20.806	0.8
186079	753	21.326922608087	0.5
186079	848	21.736680990796	0.4
186080	48	20.007	0
186080	252	20.307	2
186080	394	20.520929074857	1
186081	48	20.007	1
186081	252	20.307	0.59999999403954
186081	394	20.520929074857	0.79999999701977
186082	48	20.007	0
186082	252	20.307	0.3
186082	394	20.520929074857	0.2
186083	56	20.008	0
186083	370	20.511690456307	4
186083	474	20.714589565441	1
186083	679	21.116703374768	3
186083	863	21.82391228473	6
186084	56	20.008	1
186084	370	20.511690456307	0.19999998807907
186084	474	20.714589565441	0.83333332836628
186084	679	21.116703374768	0.79999999701977
186084	863	21.82391228473	0.76000000536442
186085	56	20.008	0
186085	370	20.511690456307	0.5
186085	474	20.714589565441	0.2
186085	679	21.116703374768	0.4
186085	863	21.82391228473	0.7
186086	196	20.209	2
186086	675	21.114394105291	8
186087	196	20.209	0.59999999403954
186087	675	21.114394105291	0.38461536169052
186088	196	20.209	0.2
186088	675	21.114394105291	0.9
186089	309	20.41	4
186089	580	20.91	4
186089	671	21.112424466337	1
186089	744	21.315561002843	1
186089	879	21.922729089354	5
186090	309	20.41	0.19999998807907
186090	580	20.91	0.59999999403954
186090	671	21.112424466337	0.92307692021132
186090	744	21.315561002843	0.94999999925494
186090	879	21.922729089354	0.80769230425358
186091	309	20.41	0.4
186091	580	20.91	0.5
186091	671	21.112424466337	0.2
186091	744	21.315561002843	0.2
186091	879	21.922729089354	0.6
186092	203	20.211	2
186092	368	20.511	2
186092	638	21.019720629876	4
186093	203	20.211	0.59999999403954
186093	368	20.511	0.59999999403954
186093	638	21.019720629876	0.63636362552643
186094	203	20.211	0.2
186094	368	20.511	0.3
186094	638	21.019720629876	0.5
186095	210	20.212	2
186095	469	20.712	4
186095	791	21.51823269343	7
186095	865	21.825327399638	2
186095	892	22.029359257821	1
186096	210	20.212	0.59999999403954
186096	469	20.712	0.33333331346512
186096	791	21.51823269343	0.69565218687057
186096	865	21.825327399638	0.92307692021132
186096	892	22.029359257821	0.96428571268916
186097	210	20.212	0.2
186097	469	20.712	0.5
186097	791	21.51823269343	0.8
186097	865	21.825327399638	0.3
186097	892	22.029359257821	0.2
186098	317	20.413	4
186098	673	21.113565905235	6
186099	317	20.413	0.19999998807907
186099	673	21.113565905235	0.53846153616905
186100	317	20.413	0.4
186100	673	21.113565905235	0.7
186101	324	20.414	4
186101	485	20.719624270879	2
186101	691	21.125616585682	3
186102	324	20.414	0.19999998807907
186102	485	20.719624270879	0.66666665673256
186102	691	21.125616585682	0.79999999701977
186103	324	20.414	0.4
186103	485	20.719624270879	0.3
186103	691	21.125616585682	0.4
186104	330	20.415	4
186104	423	20.615	1
186104	683	21.121996770196	4
186104	760	21.329726615147	1
186105	330	20.415	0.19999998807907
186105	423	20.615	0.83333332836628
186105	683	21.121996770196	0.73333331942558
186105	760	21.329726615147	0.94999999925494
186106	330	20.415	0.4
186106	423	20.615	0.2
186106	683	21.121996770196	0.5
186106	760	21.329726615147	0.2
186107	162	20.116	1
186107	533	20.816	6
186107	717	21.217755017763	3
186107	770	21.418324417821	1
186108	162	20.116	0.79999999701977
186108	533	20.816	0.33333331346512
186108	717	21.217755017763	0.83333332836628
186108	770	21.418324417821	0.95238095149398
186109	162	20.116	0.1
186109	533	20.816	0.7
186109	717	21.217755017763	0.4
186109	770	21.418324417821	0.2
186110	280	20.317	3
186110	632	21.017	6
186110	796	21.524424522424	4
186110	840	21.730080958388	1
186110	884	21.937322613415	1
186111	280	20.317	0.39999997615814
186111	632	21.017	0.45454543828964
186111	796	21.524424522424	0.82608695328236
186111	840	21.730080958388	0.95652173832059
186111	884	21.937322613415	0.96296296268702
186112	280	20.317	0.3
186112	632	21.017	0.7
186112	796	21.524424522424	0.5
186112	840	21.730080958388	0.2
186112	884	21.937322613415	0.2
186113	222	20.218	2
186113	429	20.618	3
186113	545	20.822638450298	1
186113	657	21.030675499234	1
186114	222	20.218	0.59999999403954
186114	429	20.618	0.5
186114	545	20.822638450298	0.88888888806105
186114	657	21.030675499234	0.91666666418314
186115	222	20.218	0.2
186115	429	20.618	0.4
186115	545	20.822638450298	0.2
186115	657	21.030675499234	0.2
186116	388	20.519	5
186116	636	21.019	4
186116	733	21.228362486477	1
186117	388	20.519	0
186117	636	21.019	0.63636362552643
186117	733	21.228362486477	0.9473684206605
186118	388	20.519	0.5
186118	636	21.019	0.5
186118	733	21.228362486477	0.2
186119	228	20.22	2
186119	340	20.42	1
186119	493	20.72188902243	2
186119	610	20.929924813114	1
186119	709	21.139905293461	1
186120	228	20.22	0.59999999403954
186120	340	20.42	0.79999999701977
186120	493	20.72188902243	0.66666665673256
186120	610	20.929924813114	0.89999999850988
186120	709	21.139905293461	0.9411764703691
186121	228	20.22	0.2
186121	340	20.42	0.2
186121	493	20.72188902243	0.3
186121	610	20.929924813114	0.2
186121	709	21.139905293461	0.2
186122	440	20.621	6
186122	542	20.821	1
186122	821	21.62948577673	7
186122	905	22.132392235105	4
186122	935	22.53567088172	3
186122	949	22.744602081656	1
186123	440	20.621	0
186123	542	20.821	0.88888888806105
186123	821	21.62948577673	0.69565218687057
186123	905	22.132392235105	0.86666665971279
186123	935	22.53567088172	0.90322580933571
186123	949	22.744602081656	0.96774193644524
186124	440	20.621	0.6
186124	542	20.821	0.2
186124	821	21.62948577673	0.8
186124	905	22.132392235105	0.5
186124	935	22.53567088172	0.4
186124	949	22.744602081656	0.2
186125	447	20.622	6
186125	696	21.127118312884	4
186125	781	21.429510233774	2
186125	846	21.736611080792	2
186126	447	20.622	0
186126	696	21.127118312884	0.75
186126	781	21.429510233774	0.90909090638161
186126	846	21.736611080792	0.91304347664118
186127	447	20.622	0.6
186127	696	21.127118312884	0.5
186127	781	21.429510233774	0.3
186127	846	21.736611080792	0.3
186128	110	20.023	0
186128	450	20.623	5
186128	706	21.132620639651	4
186129	110	20.023	1
186129	450	20.623	0.16666668653488
186129	706	21.132620639651	0.75
186130	110	20.023	0
186130	450	20.623	0.6
186130	706	21.132620639651	0.5
186131	598	20.924	9
186131	816	21.624	6
186131	899	22.041045368325	3
186131	917	22.244299424294	1
186131	938	22.559543387383	2
186131	960	22.869379226528	2
186132	598	20.924	0.10000002384186
186132	816	21.624	0.73913043737411
186132	899	22.041045368325	0.89655172079802
186132	917	22.244299424294	0.96774193644524
186132	938	22.559543387383	0.93548387289047
186132	960	22.869379226528	0.9375
186133	598	20.924	0.9
186133	816	21.624	0.7
186133	899	22.041045368325	0.4
186133	917	22.244299424294	0.2
186133	938	22.559543387383	0.3
186133	960	22.869379226528	0.3
186134	554	20.825	8
186134	729	21.225	3
186135	554	20.825	0.11111110448837
186135	729	21.225	0.83333332836628
186136	554	20.825	0.8
186136	729	21.225	0.4
186137	239	20.226	2
186137	557	20.826	5
186137	659	21.030867339509	1
186137	843	21.731520437208	6
186137	897	22.040681003847	2
186138	239	20.226	0.59999999403954
186138	557	20.826	0.44444441795349
186138	659	21.030867339509	0.91666666418314
186138	843	21.731520437208	0.73913043737411
186138	897	22.040681003847	0.93103448301554
186139	239	20.226	0.2
186139	557	20.826	0.6
186139	659	21.030867339509	0.2
186139	843	21.731520437208	0.7
186139	897	22.040681003847	0.3
186140	507	20.727	7
186140	755	21.327	5
186140	819	21.628949266106	2
186140	871	21.836771431986	1
186140	912	22.146246067394	2
186140	924	22.3556081431	1
186140	944	22.665073592708	2
186140	958	22.866500098953	1
186140	971	23.076130478456	1
186141	507	20.727	-0.16666662693024
186141	755	21.327	0.75
186141	819	21.628949266106	0.91304347664118
186141	871	21.836771431986	0.96153846010566
186141	912	22.146246067394	0.93548387289047
186141	924	22.3556081431	0.96774193644524
186141	944	22.665073592708	0.93548387289047
186141	958	22.866500098953	0.96875
186141	971	23.076130478456	0.96969696879387
186142	507	20.727	0.7
186142	755	21.327	0.6
186142	819	21.628949266106	0.3
186142	871	21.836771431986	0.2
186142	912	22.146246067394	0.3
186142	924	22.3556081431	0.2
186142	944	22.665073592708	0.3
186142	958	22.866500098953	0.2
186142	971	23.076130478456	0.2
186143	356	20.428	4
186143	607	20.928	4
186143	711	21.143965609266	1
186143	809	21.546893237812	3
186143	858	21.756250751594	1
186144	356	20.428	0.19999998807907
186144	607	20.928	0.59999999403954
186144	711	21.143965609266	0.9411764703691
186144	809	21.546893237812	0.86956521868706
186144	858	21.756250751594	0.95833333209157
186145	356	20.428	0.4
186145	607	20.928	0.5
186145	711	21.143965609266	0.2
186145	809	21.546893237812	0.4
186145	858	21.756250751594	0.2
186146	179	20.129	1
186146	297	20.329	1
186146	519	20.7368509532	3
186147	179	20.129	0.79999999701977
186147	297	20.329	0.79999999701977
186147	519	20.7368509532	0.5714285671711
186148	179	20.129	0.1
186148	297	20.329	0.2
186148	519	20.7368509532	0.4
186149	516	20.73	7
186149	702	21.13	3
186149	868	21.830451946195	6
186149	908	22.138283639502	2
186150	516	20.73	0
186150	702	21.13	0.8125
186150	868	21.830451946195	0.76923076808453
186150	908	22.138283639502	0.9333333298564
186151	516	20.73	0.7
186151	702	21.13	0.4
186151	868	21.830451946195	0.7
186151	908	22.138283639502	0.3
189062	10	20	0
189062	11	20.001	0
189062	18	20.002	1
189062	21	20.003	2
189062	24	20.004	3
189062	32	20.005	4
189062	35	20.006	5
189062	42	20.007	6
189062	50	20.008	7
189062	58	20.009	8
189062	62	20.01	9
189062	66	20.011	10
189062	71	20.012	11
189062	74	20.013	12
189062	77	20.014	13
189062	80	20.015	14
189062	83	20.016	15
189062	86	20.017	16
189062	89	20.018	17
189062	92	20.019	18
189062	95	20.02	19
189062	98	20.021	20
189062	101	20.022	21
189062	104	20.023	22
189062	111	20.024	23
189062	114	20.025	24
189062	117	20.026	25
189062	120	20.027	26
189062	123	20.028	27
189062	126	20.029	28
189062	129	20.03	29
