version 2
run Stability2-7-20130526-00:51:08-26640
attr configname Stability2
attr datetime 20130526-00:51:08
attr experiment Stability2
attr inifile omnetpp.ini
attr iterationvars $0=10
attr iterationvars2 "$0=10, $repetition=7"
attr measurement $0=10
attr network Network
attr processid 26640
attr repetition 7
attr replication #7
attr resultdir results
attr runnumber 7
attr seedset 7

vector 24007  Network.churner  inGoingSizeSig:vector  ETV
vector 21010  Network.dyn_peer[1]  lookupHopsSig:vector  ETV
vector 21011  Network.dyn_peer[1]  lookupStabilitySig:vector  ETV
vector 21012  Network.dyn_peer[1]  lookupTimeSig:vector  ETV
vector 21013  Network.dyn_peer[2]  lookupHopsSig:vector  ETV
vector 21014  Network.dyn_peer[2]  lookupStabilitySig:vector  ETV
vector 21015  Network.dyn_peer[2]  lookupTimeSig:vector  ETV
vector 21025  Network.dyn_peer[6]  lookupHopsSig:vector  ETV
vector 21026  Network.dyn_peer[6]  lookupStabilitySig:vector  ETV
vector 21027  Network.dyn_peer[6]  lookupTimeSig:vector  ETV
vector 21028  Network.dyn_peer[7]  lookupHopsSig:vector  ETV
vector 21029  Network.dyn_peer[7]  lookupStabilitySig:vector  ETV
vector 21030  Network.dyn_peer[7]  lookupTimeSig:vector  ETV
vector 21007  Network.dyn_peer[0]  lookupHopsSig:vector  ETV
vector 21008  Network.dyn_peer[0]  lookupStabilitySig:vector  ETV
vector 21009  Network.dyn_peer[0]  lookupTimeSig:vector  ETV
vector 21016  Network.dyn_peer[3]  lookupHopsSig:vector  ETV
vector 21017  Network.dyn_peer[3]  lookupStabilitySig:vector  ETV
vector 21018  Network.dyn_peer[3]  lookupTimeSig:vector  ETV
vector 21034  Network.dyn_peer[9]  lookupHopsSig:vector  ETV
vector 21035  Network.dyn_peer[9]  lookupStabilitySig:vector  ETV
vector 21036  Network.dyn_peer[9]  lookupTimeSig:vector  ETV
vector 21019  Network.dyn_peer[4]  lookupHopsSig:vector  ETV
vector 21020  Network.dyn_peer[4]  lookupStabilitySig:vector  ETV
vector 21021  Network.dyn_peer[4]  lookupTimeSig:vector  ETV
vector 21022  Network.dyn_peer[5]  lookupHopsSig:vector  ETV
vector 21023  Network.dyn_peer[5]  lookupStabilitySig:vector  ETV
vector 21024  Network.dyn_peer[5]  lookupTimeSig:vector  ETV
vector 21031  Network.dyn_peer[8]  lookupHopsSig:vector  ETV
vector 21032  Network.dyn_peer[8]  lookupStabilitySig:vector  ETV
vector 21033  Network.dyn_peer[8]  lookupTimeSig:vector  ETV
21007	76	20.201	2
21007	117	20.401	1
21007	181	20.705110307132	2
21007	244	21.005144047682	2
21008	76	20.201	0.59999999403954
21008	117	20.401	0.79999999701977
21008	181	20.705110307132	0.66666665673256
21008	244	21.005144047682	0.66666665673256
21009	76	20.201	0.2
21009	117	20.401	0.2
21009	181	20.705110307132	0.3
21009	244	21.005144047682	0.3
21010	47	20.102	1
21010	166	20.602	4
21010	266	21.107456232343	4
21011	47	20.102	0.79999999701977
21011	166	20.602	0.33333331346512
21011	266	21.107456232343	0.5
21012	47	20.102	0.1
21012	166	20.602	0.5
21012	266	21.107456232343	0.5
21013	52	20.103	1
21013	147	20.503	3
21013	271	21.111933055162	5
21014	52	20.103	0.79999999701977
21014	147	20.503	0.39999997615814
21014	271	21.111933055162	0.375
21015	52	20.103	0.1
21015	147	20.503	0.4
21015	271	21.111933055162	0.6
21016	83	20.204	2
21016	250	21.01225550209	7
21016	288	21.218609143756	1
21016	318	21.7191240108	4
21016	335	22.032377164878	2
21016	345	22.537732748619	4
21016	350	22.840863759165	2
21017	83	20.204	0.59999999403954
21017	250	21.01225550209	-0.16666662693024
21017	288	21.218609143756	0.89999999850988
21017	318	21.7191240108	0.66666665673256
21017	335	22.032377164878	0.84615384042263
21017	345	22.537732748619	0.71428570151329
21017	350	22.840863759165	0.85714285075665
21018	83	20.204	0.2
21018	250	21.01225550209	0.8
21018	288	21.218609143756	0.2
21018	318	21.7191240108	0.5
21018	335	22.032377164878	0.3
21018	345	22.537732748619	0.5
21018	350	22.840863759165	0.3
21019	106	20.305	3
21019	221	20.813716800992	4
21019	297	21.321982708097	4
21019	310	21.523038021035	1
21019	323	21.724641178457	1
21020	106	20.305	0.39999997615814
21020	221	20.813716800992	0.33333331346512
21020	297	21.321982708097	0.63636362552643
21020	310	21.523038021035	0.91666666418314
21020	323	21.724641178457	0.91666666418314
21021	106	20.305	0.3
21021	221	20.813716800992	0.5
21021	297	21.321982708097	0.5
21021	310	21.523038021035	0.2
21021	323	21.724641178457	0.2
21022	127	20.406	4
21022	263	21.106	6
21022	300	21.415007567986	2
21022	313	21.615301579947	1
21022	329	21.920697350175	2
21022	338	22.129717351322	1
21023	127	20.406	0.19999998807907
21023	263	21.106	0.25
21023	300	21.415007567986	0.81818181276321
21023	313	21.615301579947	0.91666666418314
21023	329	21.920697350175	0.84615384042263
21023	338	22.129717351322	0.92307692021132
21024	127	20.406	0.4
21024	263	21.106	0.7
21024	300	21.415007567986	0.3
21024	313	21.615301579947	0.2
21024	329	21.920697350175	0.3
21024	338	22.129717351322	0.2
21025	61	20.107	1
21025	151	20.507	3
21026	61	20.107	0.79999999701977
21026	151	20.507	0.39999997615814
21027	61	20.107	0.1
21027	151	20.507	0.4
21028	67	20.108	1
21028	215	20.811924774662	6
21028	258	21.028630708754	1
21029	67	20.108	0.79999999701977
21029	215	20.811924774662	0
21029	258	21.028630708754	0.85714285075665
21030	67	20.108	0.1
21030	215	20.811924774662	0.7
21030	258	21.028630708754	0.2
21031	136	20.409	4
21031	268	21.109	6
21031	303	21.41705661521	2
21032	136	20.409	0.19999998807907
21032	268	21.109	0.25
21032	303	21.41705661521	0.81818181276321
21033	136	20.409	0.4
21033	268	21.109	0.7
21033	303	21.41705661521	0.3
21034	95	20.21	2
21034	187	20.71	4
21034	238	20.922160624537	1
21034	292	21.227106750352	2
21035	95	20.21	0.59999999403954
21035	187	20.71	0.33333331346512
21035	238	20.922160624537	0.83333332836628
21035	292	21.227106750352	0.79999999701977
21036	95	20.21	0.2
21036	187	20.71	0.5
21036	238	20.922160624537	0.2
21036	292	21.227106750352	0.3
24007	11	20	0
24007	12	20.001	0
24007	15	20.002	1
24007	18	20.003	2
24007	21	20.004	3
24007	24	20.005	4
24007	27	20.006	5
24007	30	20.007	6
24007	33	20.008	7
24007	36	20.009	8
24007	39	20.01	9
