file 59265 1369522325                                           
version 2
run Stability2-175-20130526-00:52:04-26640
attr configname Stability2
attr datetime 20130526-00:52:04
attr experiment Stability2
attr inifile omnetpp.ini
attr iterationvars $0=100
attr iterationvars2 "$0=100, $repetition=25"
attr measurement $0=100
attr network Network
attr processid 26640
attr repetition 25
attr replication #25
attr resultdir results
attr runnumber 175
attr seedset 175

vector 528175  Network.churner  inGoingSizeSig:vector  ETV
vector 525187  Network.dyn_peer[4]  lookupHopsSig:vector  ETV
vector 525188  Network.dyn_peer[4]  lookupStabilitySig:vector  ETV
vector 525189  Network.dyn_peer[4]  lookupTimeSig:vector  ETV
vector 525193  Network.dyn_peer[6]  lookupHopsSig:vector  ETV
vector 525194  Network.dyn_peer[6]  lookupStabilitySig:vector  ETV
vector 525195  Network.dyn_peer[6]  lookupTimeSig:vector  ETV
vector 525211  Network.dyn_peer[12]  lookupHopsSig:vector  ETV
vector 525212  Network.dyn_peer[12]  lookupStabilitySig:vector  ETV
vector 525213  Network.dyn_peer[12]  lookupTimeSig:vector  ETV
vector 525295  Network.dyn_peer[40]  lookupHopsSig:vector  ETV
vector 525296  Network.dyn_peer[40]  lookupStabilitySig:vector  ETV
vector 525297  Network.dyn_peer[40]  lookupTimeSig:vector  ETV
vector 525301  Network.dyn_peer[42]  lookupHopsSig:vector  ETV
vector 525302  Network.dyn_peer[42]  lookupStabilitySig:vector  ETV
vector 525303  Network.dyn_peer[42]  lookupTimeSig:vector  ETV
vector 525352  Network.dyn_peer[59]  lookupHopsSig:vector  ETV
vector 525353  Network.dyn_peer[59]  lookupStabilitySig:vector  ETV
vector 525354  Network.dyn_peer[59]  lookupTimeSig:vector  ETV
vector 525367  Network.dyn_peer[64]  lookupHopsSig:vector  ETV
vector 525368  Network.dyn_peer[64]  lookupStabilitySig:vector  ETV
vector 525369  Network.dyn_peer[64]  lookupTimeSig:vector  ETV
vector 525454  Network.dyn_peer[93]  lookupHopsSig:vector  ETV
vector 525455  Network.dyn_peer[93]  lookupStabilitySig:vector  ETV
vector 525456  Network.dyn_peer[93]  lookupTimeSig:vector  ETV
vector 525196  Network.dyn_peer[7]  lookupHopsSig:vector  ETV
vector 525197  Network.dyn_peer[7]  lookupStabilitySig:vector  ETV
vector 525198  Network.dyn_peer[7]  lookupTimeSig:vector  ETV
vector 525223  Network.dyn_peer[16]  lookupHopsSig:vector  ETV
vector 525224  Network.dyn_peer[16]  lookupStabilitySig:vector  ETV
vector 525225  Network.dyn_peer[16]  lookupTimeSig:vector  ETV
vector 525226  Network.dyn_peer[17]  lookupHopsSig:vector  ETV
vector 525227  Network.dyn_peer[17]  lookupStabilitySig:vector  ETV
vector 525228  Network.dyn_peer[17]  lookupTimeSig:vector  ETV
vector 525241  Network.dyn_peer[22]  lookupHopsSig:vector  ETV
vector 525242  Network.dyn_peer[22]  lookupStabilitySig:vector  ETV
vector 525243  Network.dyn_peer[22]  lookupTimeSig:vector  ETV
vector 525256  Network.dyn_peer[27]  lookupHopsSig:vector  ETV
vector 525257  Network.dyn_peer[27]  lookupStabilitySig:vector  ETV
vector 525258  Network.dyn_peer[27]  lookupTimeSig:vector  ETV
vector 525307  Network.dyn_peer[44]  lookupHopsSig:vector  ETV
vector 525308  Network.dyn_peer[44]  lookupStabilitySig:vector  ETV
vector 525309  Network.dyn_peer[44]  lookupTimeSig:vector  ETV
vector 525316  Network.dyn_peer[47]  lookupHopsSig:vector  ETV
vector 525317  Network.dyn_peer[47]  lookupStabilitySig:vector  ETV
vector 525318  Network.dyn_peer[47]  lookupTimeSig:vector  ETV
vector 525331  Network.dyn_peer[52]  lookupHopsSig:vector  ETV
vector 525332  Network.dyn_peer[52]  lookupStabilitySig:vector  ETV
vector 525333  Network.dyn_peer[52]  lookupTimeSig:vector  ETV
vector 525376  Network.dyn_peer[67]  lookupHopsSig:vector  ETV
vector 525377  Network.dyn_peer[67]  lookupStabilitySig:vector  ETV
vector 525378  Network.dyn_peer[67]  lookupTimeSig:vector  ETV
vector 525418  Network.dyn_peer[81]  lookupHopsSig:vector  ETV
vector 525419  Network.dyn_peer[81]  lookupStabilitySig:vector  ETV
vector 525420  Network.dyn_peer[81]  lookupTimeSig:vector  ETV
vector 525202  Network.dyn_peer[9]  lookupHopsSig:vector  ETV
vector 525203  Network.dyn_peer[9]  lookupStabilitySig:vector  ETV
vector 525204  Network.dyn_peer[9]  lookupTimeSig:vector  ETV
vector 525262  Network.dyn_peer[29]  lookupHopsSig:vector  ETV
vector 525263  Network.dyn_peer[29]  lookupStabilitySig:vector  ETV
vector 525264  Network.dyn_peer[29]  lookupTimeSig:vector  ETV
vector 525364  Network.dyn_peer[63]  lookupHopsSig:vector  ETV
vector 525365  Network.dyn_peer[63]  lookupStabilitySig:vector  ETV
vector 525366  Network.dyn_peer[63]  lookupTimeSig:vector  ETV
vector 525394  Network.dyn_peer[73]  lookupHopsSig:vector  ETV
vector 525395  Network.dyn_peer[73]  lookupStabilitySig:vector  ETV
vector 525396  Network.dyn_peer[73]  lookupTimeSig:vector  ETV
vector 525403  Network.dyn_peer[76]  lookupHopsSig:vector  ETV
vector 525404  Network.dyn_peer[76]  lookupStabilitySig:vector  ETV
vector 525405  Network.dyn_peer[76]  lookupTimeSig:vector  ETV
vector 525430  Network.dyn_peer[85]  lookupHopsSig:vector  ETV
vector 525431  Network.dyn_peer[85]  lookupStabilitySig:vector  ETV
vector 525432  Network.dyn_peer[85]  lookupTimeSig:vector  ETV
vector 525463  Network.dyn_peer[96]  lookupHopsSig:vector  ETV
vector 525464  Network.dyn_peer[96]  lookupStabilitySig:vector  ETV
vector 525465  Network.dyn_peer[96]  lookupTimeSig:vector  ETV
vector 525466  Network.dyn_peer[97]  lookupHopsSig:vector  ETV
vector 525467  Network.dyn_peer[97]  lookupStabilitySig:vector  ETV
vector 525468  Network.dyn_peer[97]  lookupTimeSig:vector  ETV
vector 525175  Network.dyn_peer[0]  lookupHopsSig:vector  ETV
vector 525176  Network.dyn_peer[0]  lookupStabilitySig:vector  ETV
vector 525177  Network.dyn_peer[0]  lookupTimeSig:vector  ETV
vector 525199  Network.dyn_peer[8]  lookupHopsSig:vector  ETV
vector 525200  Network.dyn_peer[8]  lookupStabilitySig:vector  ETV
vector 525201  Network.dyn_peer[8]  lookupTimeSig:vector  ETV
vector 525208  Network.dyn_peer[11]  lookupHopsSig:vector  ETV
vector 525209  Network.dyn_peer[11]  lookupStabilitySig:vector  ETV
vector 525210  Network.dyn_peer[11]  lookupTimeSig:vector  ETV
vector 525238  Network.dyn_peer[21]  lookupHopsSig:vector  ETV
vector 525239  Network.dyn_peer[21]  lookupStabilitySig:vector  ETV
vector 525240  Network.dyn_peer[21]  lookupTimeSig:vector  ETV
vector 525250  Network.dyn_peer[25]  lookupHopsSig:vector  ETV
vector 525251  Network.dyn_peer[25]  lookupStabilitySig:vector  ETV
vector 525252  Network.dyn_peer[25]  lookupTimeSig:vector  ETV
vector 525259  Network.dyn_peer[28]  lookupHopsSig:vector  ETV
vector 525260  Network.dyn_peer[28]  lookupStabilitySig:vector  ETV
vector 525261  Network.dyn_peer[28]  lookupTimeSig:vector  ETV
vector 525286  Network.dyn_peer[37]  lookupHopsSig:vector  ETV
vector 525287  Network.dyn_peer[37]  lookupStabilitySig:vector  ETV
vector 525288  Network.dyn_peer[37]  lookupTimeSig:vector  ETV
vector 525313  Network.dyn_peer[46]  lookupHopsSig:vector  ETV
vector 525314  Network.dyn_peer[46]  lookupStabilitySig:vector  ETV
vector 525315  Network.dyn_peer[46]  lookupTimeSig:vector  ETV
vector 525319  Network.dyn_peer[48]  lookupHopsSig:vector  ETV
vector 525320  Network.dyn_peer[48]  lookupStabilitySig:vector  ETV
vector 525321  Network.dyn_peer[48]  lookupTimeSig:vector  ETV
vector 525337  Network.dyn_peer[54]  lookupHopsSig:vector  ETV
vector 525338  Network.dyn_peer[54]  lookupStabilitySig:vector  ETV
vector 525339  Network.dyn_peer[54]  lookupTimeSig:vector  ETV
vector 525346  Network.dyn_peer[57]  lookupHopsSig:vector  ETV
vector 525347  Network.dyn_peer[57]  lookupStabilitySig:vector  ETV
vector 525348  Network.dyn_peer[57]  lookupTimeSig:vector  ETV
vector 525361  Network.dyn_peer[62]  lookupHopsSig:vector  ETV
vector 525362  Network.dyn_peer[62]  lookupStabilitySig:vector  ETV
vector 525363  Network.dyn_peer[62]  lookupTimeSig:vector  ETV
vector 525373  Network.dyn_peer[66]  lookupHopsSig:vector  ETV
vector 525374  Network.dyn_peer[66]  lookupStabilitySig:vector  ETV
vector 525375  Network.dyn_peer[66]  lookupTimeSig:vector  ETV
vector 525409  Network.dyn_peer[78]  lookupHopsSig:vector  ETV
vector 525410  Network.dyn_peer[78]  lookupStabilitySig:vector  ETV
vector 525411  Network.dyn_peer[78]  lookupTimeSig:vector  ETV
vector 525184  Network.dyn_peer[3]  lookupHopsSig:vector  ETV
vector 525185  Network.dyn_peer[3]  lookupStabilitySig:vector  ETV
vector 525186  Network.dyn_peer[3]  lookupTimeSig:vector  ETV
vector 525214  Network.dyn_peer[13]  lookupHopsSig:vector  ETV
vector 525215  Network.dyn_peer[13]  lookupStabilitySig:vector  ETV
vector 525216  Network.dyn_peer[13]  lookupTimeSig:vector  ETV
vector 525220  Network.dyn_peer[15]  lookupHopsSig:vector  ETV
vector 525221  Network.dyn_peer[15]  lookupStabilitySig:vector  ETV
vector 525222  Network.dyn_peer[15]  lookupTimeSig:vector  ETV
vector 525334  Network.dyn_peer[53]  lookupHopsSig:vector  ETV
vector 525335  Network.dyn_peer[53]  lookupStabilitySig:vector  ETV
vector 525336  Network.dyn_peer[53]  lookupTimeSig:vector  ETV
vector 525349  Network.dyn_peer[58]  lookupHopsSig:vector  ETV
vector 525350  Network.dyn_peer[58]  lookupStabilitySig:vector  ETV
vector 525351  Network.dyn_peer[58]  lookupTimeSig:vector  ETV
vector 525421  Network.dyn_peer[82]  lookupHopsSig:vector  ETV
vector 525422  Network.dyn_peer[82]  lookupStabilitySig:vector  ETV
vector 525423  Network.dyn_peer[82]  lookupTimeSig:vector  ETV
vector 525178  Network.dyn_peer[1]  lookupHopsSig:vector  ETV
vector 525179  Network.dyn_peer[1]  lookupStabilitySig:vector  ETV
vector 525180  Network.dyn_peer[1]  lookupTimeSig:vector  ETV
vector 525181  Network.dyn_peer[2]  lookupHopsSig:vector  ETV
vector 525182  Network.dyn_peer[2]  lookupStabilitySig:vector  ETV
vector 525183  Network.dyn_peer[2]  lookupTimeSig:vector  ETV
vector 525235  Network.dyn_peer[20]  lookupHopsSig:vector  ETV
vector 525236  Network.dyn_peer[20]  lookupStabilitySig:vector  ETV
vector 525237  Network.dyn_peer[20]  lookupTimeSig:vector  ETV
vector 525244  Network.dyn_peer[23]  lookupHopsSig:vector  ETV
vector 525245  Network.dyn_peer[23]  lookupStabilitySig:vector  ETV
vector 525246  Network.dyn_peer[23]  lookupTimeSig:vector  ETV
vector 525385  Network.dyn_peer[70]  lookupHopsSig:vector  ETV
vector 525386  Network.dyn_peer[70]  lookupStabilitySig:vector  ETV
vector 525387  Network.dyn_peer[70]  lookupTimeSig:vector  ETV
vector 525415  Network.dyn_peer[80]  lookupHopsSig:vector  ETV
vector 525416  Network.dyn_peer[80]  lookupStabilitySig:vector  ETV
vector 525417  Network.dyn_peer[80]  lookupTimeSig:vector  ETV
vector 525445  Network.dyn_peer[90]  lookupHopsSig:vector  ETV
vector 525446  Network.dyn_peer[90]  lookupStabilitySig:vector  ETV
vector 525447  Network.dyn_peer[90]  lookupTimeSig:vector  ETV
vector 525190  Network.dyn_peer[5]  lookupHopsSig:vector  ETV
vector 525191  Network.dyn_peer[5]  lookupStabilitySig:vector  ETV
vector 525192  Network.dyn_peer[5]  lookupTimeSig:vector  ETV
vector 525205  Network.dyn_peer[10]  lookupHopsSig:vector  ETV
vector 525206  Network.dyn_peer[10]  lookupStabilitySig:vector  ETV
vector 525207  Network.dyn_peer[10]  lookupTimeSig:vector  ETV
vector 525229  Network.dyn_peer[18]  lookupHopsSig:vector  ETV
vector 525230  Network.dyn_peer[18]  lookupStabilitySig:vector  ETV
vector 525231  Network.dyn_peer[18]  lookupTimeSig:vector  ETV
vector 525292  Network.dyn_peer[39]  lookupHopsSig:vector  ETV
vector 525293  Network.dyn_peer[39]  lookupStabilitySig:vector  ETV
vector 525294  Network.dyn_peer[39]  lookupTimeSig:vector  ETV
vector 525325  Network.dyn_peer[50]  lookupHopsSig:vector  ETV
vector 525326  Network.dyn_peer[50]  lookupStabilitySig:vector  ETV
vector 525327  Network.dyn_peer[50]  lookupTimeSig:vector  ETV
vector 525427  Network.dyn_peer[84]  lookupHopsSig:vector  ETV
vector 525428  Network.dyn_peer[84]  lookupStabilitySig:vector  ETV
vector 525429  Network.dyn_peer[84]  lookupTimeSig:vector  ETV
vector 525451  Network.dyn_peer[92]  lookupHopsSig:vector  ETV
vector 525452  Network.dyn_peer[92]  lookupStabilitySig:vector  ETV
vector 525453  Network.dyn_peer[92]  lookupTimeSig:vector  ETV
vector 525265  Network.dyn_peer[30]  lookupHopsSig:vector  ETV
vector 525266  Network.dyn_peer[30]  lookupStabilitySig:vector  ETV
vector 525267  Network.dyn_peer[30]  lookupTimeSig:vector  ETV
vector 525370  Network.dyn_peer[65]  lookupHopsSig:vector  ETV
vector 525371  Network.dyn_peer[65]  lookupStabilitySig:vector  ETV
vector 525372  Network.dyn_peer[65]  lookupTimeSig:vector  ETV
vector 525436  Network.dyn_peer[87]  lookupHopsSig:vector  ETV
vector 525437  Network.dyn_peer[87]  lookupStabilitySig:vector  ETV
vector 525438  Network.dyn_peer[87]  lookupTimeSig:vector  ETV
vector 525469  Network.dyn_peer[98]  lookupHopsSig:vector  ETV
vector 525470  Network.dyn_peer[98]  lookupStabilitySig:vector  ETV
vector 525471  Network.dyn_peer[98]  lookupTimeSig:vector  ETV
vector 525280  Network.dyn_peer[35]  lookupHopsSig:vector  ETV
vector 525281  Network.dyn_peer[35]  lookupStabilitySig:vector  ETV
vector 525282  Network.dyn_peer[35]  lookupTimeSig:vector  ETV
vector 525379  Network.dyn_peer[68]  lookupHopsSig:vector  ETV
vector 525380  Network.dyn_peer[68]  lookupStabilitySig:vector  ETV
vector 525381  Network.dyn_peer[68]  lookupTimeSig:vector  ETV
vector 525382  Network.dyn_peer[69]  lookupHopsSig:vector  ETV
vector 525383  Network.dyn_peer[69]  lookupStabilitySig:vector  ETV
vector 525384  Network.dyn_peer[69]  lookupTimeSig:vector  ETV
vector 525442  Network.dyn_peer[89]  lookupHopsSig:vector  ETV
vector 525443  Network.dyn_peer[89]  lookupStabilitySig:vector  ETV
vector 525444  Network.dyn_peer[89]  lookupTimeSig:vector  ETV
vector 525271  Network.dyn_peer[32]  lookupHopsSig:vector  ETV
vector 525272  Network.dyn_peer[32]  lookupStabilitySig:vector  ETV
vector 525273  Network.dyn_peer[32]  lookupTimeSig:vector  ETV
vector 525298  Network.dyn_peer[41]  lookupHopsSig:vector  ETV
vector 525299  Network.dyn_peer[41]  lookupStabilitySig:vector  ETV
vector 525300  Network.dyn_peer[41]  lookupTimeSig:vector  ETV
vector 525304  Network.dyn_peer[43]  lookupHopsSig:vector  ETV
vector 525305  Network.dyn_peer[43]  lookupStabilitySig:vector  ETV
vector 525306  Network.dyn_peer[43]  lookupTimeSig:vector  ETV
vector 525253  Network.dyn_peer[26]  lookupHopsSig:vector  ETV
vector 525254  Network.dyn_peer[26]  lookupStabilitySig:vector  ETV
vector 525255  Network.dyn_peer[26]  lookupTimeSig:vector  ETV
vector 525310  Network.dyn_peer[45]  lookupHopsSig:vector  ETV
vector 525311  Network.dyn_peer[45]  lookupStabilitySig:vector  ETV
vector 525312  Network.dyn_peer[45]  lookupTimeSig:vector  ETV
vector 525340  Network.dyn_peer[55]  lookupHopsSig:vector  ETV
vector 525341  Network.dyn_peer[55]  lookupStabilitySig:vector  ETV
vector 525342  Network.dyn_peer[55]  lookupTimeSig:vector  ETV
vector 525343  Network.dyn_peer[56]  lookupHopsSig:vector  ETV
vector 525344  Network.dyn_peer[56]  lookupStabilitySig:vector  ETV
vector 525345  Network.dyn_peer[56]  lookupTimeSig:vector  ETV
vector 525355  Network.dyn_peer[60]  lookupHopsSig:vector  ETV
vector 525356  Network.dyn_peer[60]  lookupStabilitySig:vector  ETV
vector 525357  Network.dyn_peer[60]  lookupTimeSig:vector  ETV
vector 525457  Network.dyn_peer[94]  lookupHopsSig:vector  ETV
vector 525458  Network.dyn_peer[94]  lookupStabilitySig:vector  ETV
vector 525459  Network.dyn_peer[94]  lookupTimeSig:vector  ETV
vector 525358  Network.dyn_peer[61]  lookupHopsSig:vector  ETV
vector 525359  Network.dyn_peer[61]  lookupStabilitySig:vector  ETV
vector 525360  Network.dyn_peer[61]  lookupTimeSig:vector  ETV
vector 525247  Network.dyn_peer[24]  lookupHopsSig:vector  ETV
vector 525248  Network.dyn_peer[24]  lookupStabilitySig:vector  ETV
vector 525249  Network.dyn_peer[24]  lookupTimeSig:vector  ETV
vector 525289  Network.dyn_peer[38]  lookupHopsSig:vector  ETV
vector 525290  Network.dyn_peer[38]  lookupStabilitySig:vector  ETV
vector 525291  Network.dyn_peer[38]  lookupTimeSig:vector  ETV
vector 525388  Network.dyn_peer[71]  lookupHopsSig:vector  ETV
vector 525389  Network.dyn_peer[71]  lookupStabilitySig:vector  ETV
vector 525390  Network.dyn_peer[71]  lookupTimeSig:vector  ETV
vector 525406  Network.dyn_peer[77]  lookupHopsSig:vector  ETV
vector 525407  Network.dyn_peer[77]  lookupStabilitySig:vector  ETV
vector 525408  Network.dyn_peer[77]  lookupTimeSig:vector  ETV
vector 525283  Network.dyn_peer[36]  lookupHopsSig:vector  ETV
vector 525284  Network.dyn_peer[36]  lookupStabilitySig:vector  ETV
vector 525285  Network.dyn_peer[36]  lookupTimeSig:vector  ETV
vector 525460  Network.dyn_peer[95]  lookupHopsSig:vector  ETV
vector 525461  Network.dyn_peer[95]  lookupStabilitySig:vector  ETV
vector 525462  Network.dyn_peer[95]  lookupTimeSig:vector  ETV
vector 525217  Network.dyn_peer[14]  lookupHopsSig:vector  ETV
vector 525218  Network.dyn_peer[14]  lookupStabilitySig:vector  ETV
vector 525219  Network.dyn_peer[14]  lookupTimeSig:vector  ETV
vector 525232  Network.dyn_peer[19]  lookupHopsSig:vector  ETV
vector 525233  Network.dyn_peer[19]  lookupStabilitySig:vector  ETV
vector 525234  Network.dyn_peer[19]  lookupTimeSig:vector  ETV
vector 525268  Network.dyn_peer[31]  lookupHopsSig:vector  ETV
vector 525269  Network.dyn_peer[31]  lookupStabilitySig:vector  ETV
vector 525270  Network.dyn_peer[31]  lookupTimeSig:vector  ETV
vector 525439  Network.dyn_peer[88]  lookupHopsSig:vector  ETV
vector 525440  Network.dyn_peer[88]  lookupStabilitySig:vector  ETV
vector 525441  Network.dyn_peer[88]  lookupTimeSig:vector  ETV
vector 525472  Network.dyn_peer[99]  lookupHopsSig:vector  ETV
vector 525473  Network.dyn_peer[99]  lookupStabilitySig:vector  ETV
vector 525474  Network.dyn_peer[99]  lookupTimeSig:vector  ETV
vector 525424  Network.dyn_peer[83]  lookupHopsSig:vector  ETV
vector 525425  Network.dyn_peer[83]  lookupStabilitySig:vector  ETV
vector 525426  Network.dyn_peer[83]  lookupTimeSig:vector  ETV
vector 525274  Network.dyn_peer[33]  lookupHopsSig:vector  ETV
vector 525275  Network.dyn_peer[33]  lookupStabilitySig:vector  ETV
vector 525276  Network.dyn_peer[33]  lookupTimeSig:vector  ETV
vector 525328  Network.dyn_peer[51]  lookupHopsSig:vector  ETV
vector 525329  Network.dyn_peer[51]  lookupStabilitySig:vector  ETV
vector 525330  Network.dyn_peer[51]  lookupTimeSig:vector  ETV
vector 525391  Network.dyn_peer[72]  lookupHopsSig:vector  ETV
vector 525392  Network.dyn_peer[72]  lookupStabilitySig:vector  ETV
vector 525393  Network.dyn_peer[72]  lookupTimeSig:vector  ETV
vector 525397  Network.dyn_peer[74]  lookupHopsSig:vector  ETV
vector 525398  Network.dyn_peer[74]  lookupStabilitySig:vector  ETV
vector 525399  Network.dyn_peer[74]  lookupTimeSig:vector  ETV
vector 525322  Network.dyn_peer[49]  lookupHopsSig:vector  ETV
vector 525323  Network.dyn_peer[49]  lookupStabilitySig:vector  ETV
vector 525324  Network.dyn_peer[49]  lookupTimeSig:vector  ETV
vector 525277  Network.dyn_peer[34]  lookupHopsSig:vector  ETV
vector 525278  Network.dyn_peer[34]  lookupStabilitySig:vector  ETV
vector 525279  Network.dyn_peer[34]  lookupTimeSig:vector  ETV
vector 525400  Network.dyn_peer[75]  lookupHopsSig:vector  ETV
vector 525401  Network.dyn_peer[75]  lookupStabilitySig:vector  ETV
vector 525402  Network.dyn_peer[75]  lookupTimeSig:vector  ETV
vector 525412  Network.dyn_peer[79]  lookupHopsSig:vector  ETV
vector 525413  Network.dyn_peer[79]  lookupStabilitySig:vector  ETV
vector 525414  Network.dyn_peer[79]  lookupTimeSig:vector  ETV
vector 525448  Network.dyn_peer[91]  lookupHopsSig:vector  ETV
vector 525449  Network.dyn_peer[91]  lookupStabilitySig:vector  ETV
vector 525450  Network.dyn_peer[91]  lookupTimeSig:vector  ETV
vector 525433  Network.dyn_peer[86]  lookupHopsSig:vector  ETV
vector 525434  Network.dyn_peer[86]  lookupStabilitySig:vector  ETV
vector 525435  Network.dyn_peer[86]  lookupTimeSig:vector  ETV
525175	19830 102 641 3198 20.301 22.313364646857 4 1 12 20 170
525176	19932 161 641 3198 20.301 22.313364646857 4 0.14285713434219 0.94999999925494 2.39529613778 1.8973043396455
525177	20093 109 641 3198 20.301 22.313364646857 4 0.2 1.3 2.3 2.07
525178	20202 71 935 2114 20.502 21.403512746659 3 2 5 12 54
525179	20273 101 935 2114 20.502 21.403512746659 3 0 0.81818181276321 0.9848484992981 0.69719926313702
525180	20374 77 935 2114 20.502 21.403512746659 3 0.3 0.6 1.4 0.7
525181	20451 130 940 3447 20.503 22.614387746503 5 3 6 22 104
525182	20581 178 940 3447 20.503 22.614387746503 5 0 0.88679245114326 2.6880745217204 2.1592230134894
525183	20759 140 940 3447 20.503 22.614387746503 5 0.4 0.7 2.6 1.42
525184	20899 102 808 3322 20.404 22.454369893058 4 3 10 21 141
525185	21001 161 808 3322 20.404 22.454369893058 4 0.16666668653488 0.93617021292448 2.1738046333194 1.70277726139
525186	21162 109 808 3322 20.404 22.454369893058 4 0.4 1.1 2.4 1.78
525187	21271 99 30 2989 20.005 22.110194980744 4 0 9 18 122
525188	21370 132 30 2989 20.005 22.110194980744 4 0.19999998807907 1 2.2984848320484 1.8224265256773
525189	21502 103 30 2989 20.005 22.110194980744 4 0 1 2.1 1.61
525190	21605 72 1081 2629 20.606 21.810126720945 3 3 7 16 94
525191	21677 118 1081 2629 20.606 21.810126720945 3 -0.20000004768372 0.65000000596046 0.84999993443489 0.62250000774861
525192	21795 78 1081 2629 20.606 21.810126720945 3 0.4 0.8 1.8 1.16
525193	21873 101 40 3445 20.007 22.613726952143 4 0 13 23 227
525194	21974 133 40 3445 20.007 22.613726952143 4 -0.39999997615814 1 1.8547170013189 1.9795976970186
525195	22107 106 40 3445 20.007 22.613726952143 4 0 1.4 2.6 2.76
525196	22213 102 365 3601 20.108 22.822459256601 4 1 14 25 247
525197	22315 162 365 3601 20.108 22.822459256601 4 0.066666662693024 0.92063491791487 2.6557226255536 2.2461682077112
525198	22477 109 365 3601 20.108 22.822459256601 4 0.1 1.5 2.8 2.98
525199	22586 100 656 3599 20.309 22.81974454367 4 3 12 25 205
525200	22686 159 656 3599 20.309 22.81974454367 4 0.19999998807907 0.93548387289047 2.3891423791647 1.8038629589891
525201	22845 107 656 3599 20.309 22.81974454367 4 0.3 1.3 2.8 2.52
525202	22952 40 515 3089 20.21 22.21 2 2 19 21 365
525203	22992 69 515 3089 20.21 22.21 2 0.48648649454117 0.59999999403954 1.0864864885807 0.5966691022184
525204	23061 41 515 3089 20.21 22.21 2 0.2 2 2.2 4.04
525205	23102 43 1093 2862 20.611 22.011 2 6 13 19 205
525206	23145 73 1093 2862 20.611 22.011 2 -0.20000004768372 0.56666666269302 0.36666661500931 0.36111112568114
525207	23218 46 1093 2862 20.611 22.011 2 0.6 1.4 2 2.32
525208	23264 42 663 2633 20.312 21.812 2 3 14 17 205
525209	23306 71 663 2633 20.312 21.812 2 0.33333331346512 0.39999997615814 0.73333328962326 0.27111107879215
525210	23377 45 663 2633 20.312 21.812 2 0.3 1.5 1.8 2.34
525211	23422 107 62 1896 20.013 21.23382173338 4 0 4 9 33
525212	23529 152 62 1896 20.013 21.23382173338 4 0.19999998807907 1 2.2333333045244 1.7744444266293
525213	23681 113 62 1896 20.013 21.23382173338 4 0 0.5 1.2 0.54
525214	23794 251 824 4340 20.414 25.546103864283 9 3 9 47 273
525215	24045 377 824 4340 20.414 25.546103864283 9 -0.16666662693024 0.96808510646224 6.4777583964169 6.0317584509098
525216	24422 267 824 4340 20.414 25.546103864283 9 0.4 1 5.5 3.67
525217	24689 103 2135 3532 21.415 22.721332158911 4 1 14 24 238
525218	24792 163 2135 3532 21.415 22.721332158911 4 -0.16666662693024 0.98275862075388 2.574801677838 2.5434262055485
525219	24955 110 2135 3532 21.415 22.721332158911 4 0.2 1.4 2.7 2.61
525220	25065 72 830 3101 20.416 22.220247510791 3 4 11 20 162
525221	25137 101 830 3101 20.416 22.220247510791 3 0 0.71052631735802 0.91052630543709 0.54484764288997
525222	25238 77 830 3101 20.416 22.220247510791 3 0.4 1.2 2.2 1.96
525223	25315 110 377 3018 20.117 22.138275661566 4 1 9 18 122
525224	25425 145 377 3018 20.117 22.138275661566 4 -0.5 0.9411764703691 1.9911764673889 2.3383131436081
525225	25570 116 377 3018 20.117 22.138275661566 4 0.1 1 2.1 1.59
525226	25686 71 383 2773 20.118 21.91880763268 3 1 11 17 147
525227	25757 99 383 2773 20.118 21.91880763268 3 0 0.79999999701977 1.3769230693579 0.97284022662767
525228	25856 76 383 2773 20.118 21.91880763268 3 0.1 1.2 1.9 1.81
525229	25932 43 1104 2647 20.619 21.819 2 6 11 17 157
525230	25975 73 1104 2647 20.619 21.819 2 -0.20000004768372 0.52173912525177 0.32173907756805 0.31221173389197
525231	26048 46 1104 2647 20.619 21.819 2 0.6 1.2 1.8 1.8
525232	26094 71 2261 3534 21.52 22.722408297399 3 2 15 25 293
525233	26165 104 2261 3534 21.52 22.722408297399 3 -0.25 0.91304347664118 1.5251124426723 1.6393112924309
525234	26269 76 2261 3534 21.52 22.722408297399 3 0.3 1.5 2.7 3.15
525235	26345 71 971 3384 20.521 22.522097302744 3 5 9 23 187
525236	26416 89 971 3384 20.521 22.522097302744 3 0 0.81999999284744 1.0699999928474 0.73489998826981
525237	26505 73 971 3384 20.521 22.522097302744 3 0.5 1 2.5 2.25
525238	26578 102 679 3605 20.322 22.832468388958 4 3 14 25 237
525239	26680 151 679 3605 20.322 22.832468388958 4 0.39130437374115 0.9375 2.6335662528872 2.0106194449339
525240	26831 109 679 3605 20.322 22.832468388958 4 0.3 1.5 2.8 2.84
525241	26940 102 394 3442 20.123 22.609942660843 4 1 10 22 186
525242	27042 161 394 3442 20.123 22.609942660843 4 -0.66666662693024 0.83333332836628 1.7968553751707 2.4681020618058
525243	27203 107 394 3442 20.123 22.609942660843 4 0.1 1.1 2.5 2.31
525244	27310 100 978 3226 20.524 22.338730070337 4 4 6 20 102
525245	27410 130 978 3226 20.524 22.338730070337 4 0 0.88372092694044 1.6614987030625 1.3859009457419
525246	27540 108 978 3226 20.524 22.338730070337 4 0.5 0.7 2.3 1.35
525247	27648 73 1882 3392 21.225 22.532816498619 3 5 12 23 205
525248	27721 102 1882 3392 21.225 22.532816498619 3 -1 0.8823529407382 0.66496164351702 2.3910230936945
525249	27823 78 1882 3392 21.225 22.532816498619 3 0.6 1.2 2.5 2.29
525250	27901 42 688 3211 20.326 22.326 2 3 19 22 370
525251	27943 71 688 3211 20.326 22.326 2 0.39999997615814 0.54761904478073 0.94761902093887 0.45988659913307
525252	28014 43 688 3211 20.326 22.326 2 0.3 2 2.3 4.09
525253	28057 103 1622 3315 21.027 22.444340150793 4 2 10 21 145
525254	28160 148 1622 3315 21.027 22.444340150793 4 -1 0.95652173832059 1.476129565388 3.0868869071309
525255	28308 108 1622 3315 21.027 22.444340150793 4 0.3 1 2.4 1.7
525256	28416 70 404 2026 20.128 21.333906014083 3 1 9 11 83
525257	28486 100 404 2026 20.128 21.333906014083 3 0 0.79999999701977 1.5999999940395 1.2799999904633
525258	28586 74 404 2026 20.128 21.333906014083 3 0.1 1 1.3 1.05
525259	28660 101 696 3835 20.329 23.239734681847 4 1 19 29 407
525260	28761 160 696 3835 20.329 23.239734681847 4 0.39999997615814 0.98630136996508 2.8469638675451 2.2663253817651
525261	28921 106 696 3835 20.329 23.239734681847 4 0.2 2 3.2 4.62
525262	29027 188 541 4230 20.23 24.510898489352 7 1 9 28 156
525263	29215 281 541 4230 20.23 24.510898489352 7 -0.5 0.98484848439693 4.7348529137671 4.9278563665969
525264	29496 200 541 4230 20.23 24.510898489352 7 0.2 1 3.4 2.14
525265	29696 163 1250 4200 20.731 24.353159428318 6 2 17 38 396
525266	29859 253 1250 4200 20.731 24.353159428318 6 -0.39999997615814 0.97849462367594 3.6997201628983 3.7313983699291
525267	30112 174 1250 4200 20.731 24.353159428318 6 0.3 1.8 4.3 4.63
525268	30286 225 2284 4367 21.532 26.158300483192 8 2 15 54 516
525269	30511 343 2284 4367 21.532 26.158300483192 8 -0.15384614467621 0.98039215616882 6.3481848090887 6.0828508187278
525270	30854 238 2284 4367 21.532 26.158300483192 8 0.3 1.5 6.1 6.01
525271	31092 313 1499 4391 20.933 26.872869671942 11 1 12 58 438
525272	31405 477 1499 4391 20.933 26.872869671942 11 -0.79999995231628 0.9902912620455 8.4791584117338 9.320636250881
525273	31882 332 1499 4391 20.933 26.872869671942 11 0.2 1.3 6.8 5.46
525274	32214 133 2540 4006 21.734 23.647894312906 5 1 17 32 368
525275	32347 197 2540 4006 21.734 23.647894312906 5 0.055555582046509 0.97435897402465 3.8040717225522 3.5180679499599
525276	32544 142 2540 4006 21.734 23.647894312906 5 0.2 1.7 3.6 4.02
525277	32686 102 2900 4076 22.035 23.85112724872 4 4 20 35 477
525278	32788 150 2900 4076 22.035 23.85112724872 4 0.375 0.94594594463706 3.1628064066172 2.7325398601414
525279	32938 107 2900 4076 22.035 23.85112724872 4 0.5 2 3.8 5.1
525280	33045 162 1379 4084 20.836 23.864352081633 6 2 12 33 253
525281	33207 252 1379 4084 20.836 23.864352081633 6 -0.60000002384186 0.97435897402465 3.8570648785681 4.4090983985345
525282	33459 173 1379 4084 20.836 23.864352081633 6 0.3 1.3 3.8 3.08
525283	33632 73 2037 3132 21.337 22.243130728579 3 2 13 20 198
525284	33705 118 2037 3132 21.337 22.243130728579 3 -0.44444441795349 0.94871794804931 1.3190883509815 1.7615197779358
525285	33823 78 2037 3132 21.337 22.243130728579 3 0.3 1.3 2.2 2.14
525286	33901 102 711 3624 20.338 22.849769666535 4 3 14 25 237
525287	34003 161 711 3624 20.338 22.849769666535 4 0.39999997615814 0.93846153840423 2.6642191074789 2.0407674437242
525288	34164 109 711 3624 20.338 22.849769666535 4 0.3 1.5 2.8 2.84
525289	34273 223 1909 4323 21.239 25.266571177543 8 1 12 45 337
525290	34496 343 1909 4323 21.239 25.266571177543 8 -0.71428573131561 0.98979591857642 5.7652926174924 6.5400023306188
525291	34839 236 1909 4323 21.239 25.266571177543 8 0.2 1.2 5.2 4.1
525292	35075 100 1134 2695 20.64 21.850884938197 4 1 6 15 71
525293	35175 151 1134 2695 20.64 21.850884938197 4 -0.20000004768372 0.95833333209157 1.8565475530922 1.7001916878011
525294	35326 108 1134 2695 20.64 21.850884938197 4 0.2 0.6 1.8 0.92
525295	35434 101 160 3236 20.041 22.346426703897 4 0 13 20 194
525296	35535 136 160 3236 20.041 22.346426703897 4 -0.083333373069763 1 2.7007575333118 2.5990157271329
525297	35671 106 160 3236 20.041 22.346426703897 4 0 1.4 2.3 2.37
525298	35777 73 1514 4010 20.942 23.650242352507 3 7 18 34 454
525299	35850 116 1514 4010 20.942 23.650242352507 3 -0.79999995231628 0.9146341457963 0.83771110326052 1.9993957618203
525300	35966 78 1514 4010 20.942 23.650242352507 3 0.8 1.9 3.6 5.06
525301	36044 133 170 4239 20.043 24.553329732009 5 0 14 36 370