file 62414 1369522324                                           
version 2
run Stability2-173-20130526-00:52:03-26640
attr configname Stability2
attr datetime 20130526-00:52:03
attr experiment Stability2
attr inifile omnetpp.ini
attr iterationvars $0=100
attr iterationvars2 "$0=100, $repetition=23"
attr measurement $0=100
attr network Network
attr processid 26640
attr repetition 23
attr replication #23
attr resultdir results
attr runnumber 173
attr seedset 173

vector 522173  Network.churner  inGoingSizeSig:vector  ETV
vector 519182  Network.dyn_peer[3]  lookupHopsSig:vector  ETV
vector 519183  Network.dyn_peer[3]  lookupStabilitySig:vector  ETV
vector 519184  Network.dyn_peer[3]  lookupTimeSig:vector  ETV
vector 519203  Network.dyn_peer[10]  lookupHopsSig:vector  ETV
vector 519204  Network.dyn_peer[10]  lookupStabilitySig:vector  ETV
vector 519205  Network.dyn_peer[10]  lookupTimeSig:vector  ETV
vector 519212  Network.dyn_peer[13]  lookupHopsSig:vector  ETV
vector 519213  Network.dyn_peer[13]  lookupStabilitySig:vector  ETV
vector 519214  Network.dyn_peer[13]  lookupTimeSig:vector  ETV
vector 519257  Network.dyn_peer[28]  lookupHopsSig:vector  ETV
vector 519258  Network.dyn_peer[28]  lookupStabilitySig:vector  ETV
vector 519259  Network.dyn_peer[28]  lookupTimeSig:vector  ETV
vector 519263  Network.dyn_peer[30]  lookupHopsSig:vector  ETV
vector 519264  Network.dyn_peer[30]  lookupStabilitySig:vector  ETV
vector 519265  Network.dyn_peer[30]  lookupTimeSig:vector  ETV
vector 519278  Network.dyn_peer[35]  lookupHopsSig:vector  ETV
vector 519279  Network.dyn_peer[35]  lookupStabilitySig:vector  ETV
vector 519280  Network.dyn_peer[35]  lookupTimeSig:vector  ETV
vector 519281  Network.dyn_peer[36]  lookupHopsSig:vector  ETV
vector 519282  Network.dyn_peer[36]  lookupStabilitySig:vector  ETV
vector 519283  Network.dyn_peer[36]  lookupTimeSig:vector  ETV
vector 519359  Network.dyn_peer[62]  lookupHopsSig:vector  ETV
vector 519360  Network.dyn_peer[62]  lookupStabilitySig:vector  ETV
vector 519361  Network.dyn_peer[62]  lookupTimeSig:vector  ETV
vector 519467  Network.dyn_peer[98]  lookupHopsSig:vector  ETV
vector 519468  Network.dyn_peer[98]  lookupStabilitySig:vector  ETV
vector 519469  Network.dyn_peer[98]  lookupTimeSig:vector  ETV
vector 519173  Network.dyn_peer[0]  lookupHopsSig:vector  ETV
vector 519174  Network.dyn_peer[0]  lookupStabilitySig:vector  ETV
vector 519175  Network.dyn_peer[0]  lookupTimeSig:vector  ETV
vector 519194  Network.dyn_peer[7]  lookupHopsSig:vector  ETV
vector 519195  Network.dyn_peer[7]  lookupStabilitySig:vector  ETV
vector 519196  Network.dyn_peer[7]  lookupTimeSig:vector  ETV
vector 519221  Network.dyn_peer[16]  lookupHopsSig:vector  ETV
vector 519222  Network.dyn_peer[16]  lookupStabilitySig:vector  ETV
vector 519223  Network.dyn_peer[16]  lookupTimeSig:vector  ETV
vector 519239  Network.dyn_peer[22]  lookupHopsSig:vector  ETV
vector 519240  Network.dyn_peer[22]  lookupStabilitySig:vector  ETV
vector 519241  Network.dyn_peer[22]  lookupTimeSig:vector  ETV
vector 519269  Network.dyn_peer[32]  lookupHopsSig:vector  ETV
vector 519270  Network.dyn_peer[32]  lookupStabilitySig:vector  ETV
vector 519271  Network.dyn_peer[32]  lookupTimeSig:vector  ETV
vector 519308  Network.dyn_peer[45]  lookupHopsSig:vector  ETV
vector 519309  Network.dyn_peer[45]  lookupStabilitySig:vector  ETV
vector 519310  Network.dyn_peer[45]  lookupTimeSig:vector  ETV
vector 519317  Network.dyn_peer[48]  lookupHopsSig:vector  ETV
vector 519318  Network.dyn_peer[48]  lookupStabilitySig:vector  ETV
vector 519319  Network.dyn_peer[48]  lookupTimeSig:vector  ETV
vector 519320  Network.dyn_peer[49]  lookupHopsSig:vector  ETV
vector 519321  Network.dyn_peer[49]  lookupStabilitySig:vector  ETV
vector 519322  Network.dyn_peer[49]  lookupTimeSig:vector  ETV
vector 519323  Network.dyn_peer[50]  lookupHopsSig:vector  ETV
vector 519324  Network.dyn_peer[50]  lookupStabilitySig:vector  ETV
vector 519325  Network.dyn_peer[50]  lookupTimeSig:vector  ETV
vector 519332  Network.dyn_peer[53]  lookupHopsSig:vector  ETV
vector 519333  Network.dyn_peer[53]  lookupStabilitySig:vector  ETV
vector 519334  Network.dyn_peer[53]  lookupTimeSig:vector  ETV
vector 519341  Network.dyn_peer[56]  lookupHopsSig:vector  ETV
vector 519342  Network.dyn_peer[56]  lookupStabilitySig:vector  ETV
vector 519343  Network.dyn_peer[56]  lookupTimeSig:vector  ETV
vector 519350  Network.dyn_peer[59]  lookupHopsSig:vector  ETV
vector 519351  Network.dyn_peer[59]  lookupStabilitySig:vector  ETV
vector 519352  Network.dyn_peer[59]  lookupTimeSig:vector  ETV
vector 519371  Network.dyn_peer[66]  lookupHopsSig:vector  ETV
vector 519372  Network.dyn_peer[66]  lookupStabilitySig:vector  ETV
vector 519373  Network.dyn_peer[66]  lookupTimeSig:vector  ETV
vector 519392  Network.dyn_peer[73]  lookupHopsSig:vector  ETV
vector 519393  Network.dyn_peer[73]  lookupStabilitySig:vector  ETV
vector 519394  Network.dyn_peer[73]  lookupTimeSig:vector  ETV
vector 519437  Network.dyn_peer[88]  lookupHopsSig:vector  ETV
vector 519438  Network.dyn_peer[88]  lookupStabilitySig:vector  ETV
vector 519439  Network.dyn_peer[88]  lookupTimeSig:vector  ETV
vector 519218  Network.dyn_peer[15]  lookupHopsSig:vector  ETV
vector 519219  Network.dyn_peer[15]  lookupStabilitySig:vector  ETV
vector 519220  Network.dyn_peer[15]  lookupTimeSig:vector  ETV
vector 519233  Network.dyn_peer[20]  lookupHopsSig:vector  ETV
vector 519234  Network.dyn_peer[20]  lookupStabilitySig:vector  ETV
vector 519235  Network.dyn_peer[20]  lookupTimeSig:vector  ETV
vector 519248  Network.dyn_peer[25]  lookupHopsSig:vector  ETV
vector 519249  Network.dyn_peer[25]  lookupStabilitySig:vector  ETV
vector 519250  Network.dyn_peer[25]  lookupTimeSig:vector  ETV
vector 519275  Network.dyn_peer[34]  lookupHopsSig:vector  ETV
vector 519276  Network.dyn_peer[34]  lookupStabilitySig:vector  ETV
vector 519277  Network.dyn_peer[34]  lookupTimeSig:vector  ETV
vector 519284  Network.dyn_peer[37]  lookupHopsSig:vector  ETV
vector 519285  Network.dyn_peer[37]  lookupStabilitySig:vector  ETV
vector 519286  Network.dyn_peer[37]  lookupTimeSig:vector  ETV
vector 519299  Network.dyn_peer[42]  lookupHopsSig:vector  ETV
vector 519300  Network.dyn_peer[42]  lookupStabilitySig:vector  ETV
vector 519301  Network.dyn_peer[42]  lookupTimeSig:vector  ETV
vector 519305  Network.dyn_peer[44]  lookupHopsSig:vector  ETV
vector 519306  Network.dyn_peer[44]  lookupStabilitySig:vector  ETV
vector 519307  Network.dyn_peer[44]  lookupTimeSig:vector  ETV
vector 519326  Network.dyn_peer[51]  lookupHopsSig:vector  ETV
vector 519327  Network.dyn_peer[51]  lookupStabilitySig:vector  ETV
vector 519328  Network.dyn_peer[51]  lookupTimeSig:vector  ETV
vector 519344  Network.dyn_peer[57]  lookupHopsSig:vector  ETV
vector 519345  Network.dyn_peer[57]  lookupStabilitySig:vector  ETV
vector 519346  Network.dyn_peer[57]  lookupTimeSig:vector  ETV
vector 519365  Network.dyn_peer[64]  lookupHopsSig:vector  ETV
vector 519366  Network.dyn_peer[64]  lookupStabilitySig:vector  ETV
vector 519367  Network.dyn_peer[64]  lookupTimeSig:vector  ETV
vector 519368  Network.dyn_peer[65]  lookupHopsSig:vector  ETV
vector 519369  Network.dyn_peer[65]  lookupStabilitySig:vector  ETV
vector 519370  Network.dyn_peer[65]  lookupTimeSig:vector  ETV
vector 519401  Network.dyn_peer[76]  lookupHopsSig:vector  ETV
vector 519402  Network.dyn_peer[76]  lookupStabilitySig:vector  ETV
vector 519403  Network.dyn_peer[76]  lookupTimeSig:vector  ETV
vector 519410  Network.dyn_peer[79]  lookupHopsSig:vector  ETV
vector 519411  Network.dyn_peer[79]  lookupStabilitySig:vector  ETV
vector 519412  Network.dyn_peer[79]  lookupTimeSig:vector  ETV
vector 519422  Network.dyn_peer[83]  lookupHopsSig:vector  ETV
vector 519423  Network.dyn_peer[83]  lookupStabilitySig:vector  ETV
vector 519424  Network.dyn_peer[83]  lookupTimeSig:vector  ETV
vector 519425  Network.dyn_peer[84]  lookupHopsSig:vector  ETV
vector 519426  Network.dyn_peer[84]  lookupStabilitySig:vector  ETV
vector 519427  Network.dyn_peer[84]  lookupTimeSig:vector  ETV
vector 519224  Network.dyn_peer[17]  lookupHopsSig:vector  ETV
vector 519225  Network.dyn_peer[17]  lookupStabilitySig:vector  ETV
vector 519226  Network.dyn_peer[17]  lookupTimeSig:vector  ETV
vector 519251  Network.dyn_peer[26]  lookupHopsSig:vector  ETV
vector 519252  Network.dyn_peer[26]  lookupStabilitySig:vector  ETV
vector 519253  Network.dyn_peer[26]  lookupTimeSig:vector  ETV
vector 519266  Network.dyn_peer[31]  lookupHopsSig:vector  ETV
vector 519267  Network.dyn_peer[31]  lookupStabilitySig:vector  ETV
vector 519268  Network.dyn_peer[31]  lookupTimeSig:vector  ETV
vector 519287  Network.dyn_peer[38]  lookupHopsSig:vector  ETV
vector 519288  Network.dyn_peer[38]  lookupStabilitySig:vector  ETV
vector 519289  Network.dyn_peer[38]  lookupTimeSig:vector  ETV
vector 519314  Network.dyn_peer[47]  lookupHopsSig:vector  ETV
vector 519315  Network.dyn_peer[47]  lookupStabilitySig:vector  ETV
vector 519316  Network.dyn_peer[47]  lookupTimeSig:vector  ETV
vector 519329  Network.dyn_peer[52]  lookupHopsSig:vector  ETV
vector 519330  Network.dyn_peer[52]  lookupStabilitySig:vector  ETV
vector 519331  Network.dyn_peer[52]  lookupTimeSig:vector  ETV
vector 519347  Network.dyn_peer[58]  lookupHopsSig:vector  ETV
vector 519348  Network.dyn_peer[58]  lookupStabilitySig:vector  ETV
vector 519349  Network.dyn_peer[58]  lookupTimeSig:vector  ETV
vector 519386  Network.dyn_peer[71]  lookupHopsSig:vector  ETV
vector 519387  Network.dyn_peer[71]  lookupStabilitySig:vector  ETV
vector 519388  Network.dyn_peer[71]  lookupTimeSig:vector  ETV
vector 519398  Network.dyn_peer[75]  lookupHopsSig:vector  ETV
vector 519399  Network.dyn_peer[75]  lookupStabilitySig:vector  ETV
vector 519400  Network.dyn_peer[75]  lookupTimeSig:vector  ETV
vector 519443  Network.dyn_peer[90]  lookupHopsSig:vector  ETV
vector 519444  Network.dyn_peer[90]  lookupStabilitySig:vector  ETV
vector 519445  Network.dyn_peer[90]  lookupTimeSig:vector  ETV
vector 519449  Network.dyn_peer[92]  lookupHopsSig:vector  ETV
vector 519450  Network.dyn_peer[92]  lookupStabilitySig:vector  ETV
vector 519451  Network.dyn_peer[92]  lookupTimeSig:vector  ETV
vector 519176  Network.dyn_peer[1]  lookupHopsSig:vector  ETV
vector 519177  Network.dyn_peer[1]  lookupStabilitySig:vector  ETV
vector 519178  Network.dyn_peer[1]  lookupTimeSig:vector  ETV
vector 519179  Network.dyn_peer[2]  lookupHopsSig:vector  ETV
vector 519180  Network.dyn_peer[2]  lookupStabilitySig:vector  ETV
vector 519181  Network.dyn_peer[2]  lookupTimeSig:vector  ETV
vector 519185  Network.dyn_peer[4]  lookupHopsSig:vector  ETV
vector 519186  Network.dyn_peer[4]  lookupStabilitySig:vector  ETV
vector 519187  Network.dyn_peer[4]  lookupTimeSig:vector  ETV
vector 519188  Network.dyn_peer[5]  lookupHopsSig:vector  ETV
vector 519189  Network.dyn_peer[5]  lookupStabilitySig:vector  ETV
vector 519190  Network.dyn_peer[5]  lookupTimeSig:vector  ETV
vector 519209  Network.dyn_peer[12]  lookupHopsSig:vector  ETV
vector 519210  Network.dyn_peer[12]  lookupStabilitySig:vector  ETV
vector 519211  Network.dyn_peer[12]  lookupTimeSig:vector  ETV
vector 519254  Network.dyn_peer[27]  lookupHopsSig:vector  ETV
vector 519255  Network.dyn_peer[27]  lookupStabilitySig:vector  ETV
vector 519256  Network.dyn_peer[27]  lookupTimeSig:vector  ETV
vector 519260  Network.dyn_peer[29]  lookupHopsSig:vector  ETV
vector 519261  Network.dyn_peer[29]  lookupStabilitySig:vector  ETV
vector 519262  Network.dyn_peer[29]  lookupTimeSig:vector  ETV
vector 519290  Network.dyn_peer[39]  lookupHopsSig:vector  ETV
vector 519291  Network.dyn_peer[39]  lookupStabilitySig:vector  ETV
vector 519292  Network.dyn_peer[39]  lookupTimeSig:vector  ETV
vector 519335  Network.dyn_peer[54]  lookupHopsSig:vector  ETV
vector 519336  Network.dyn_peer[54]  lookupStabilitySig:vector  ETV
vector 519337  Network.dyn_peer[54]  lookupTimeSig:vector  ETV
vector 519377  Network.dyn_peer[68]  lookupHopsSig:vector  ETV
vector 519378  Network.dyn_peer[68]  lookupStabilitySig:vector  ETV
vector 519379  Network.dyn_peer[68]  lookupTimeSig:vector  ETV
vector 519380  Network.dyn_peer[69]  lookupHopsSig:vector  ETV
vector 519381  Network.dyn_peer[69]  lookupStabilitySig:vector  ETV
vector 519382  Network.dyn_peer[69]  lookupTimeSig:vector  ETV
vector 519455  Network.dyn_peer[94]  lookupHopsSig:vector  ETV
vector 519456  Network.dyn_peer[94]  lookupStabilitySig:vector  ETV
vector 519457  Network.dyn_peer[94]  lookupTimeSig:vector  ETV
vector 519197  Network.dyn_peer[8]  lookupHopsSig:vector  ETV
vector 519198  Network.dyn_peer[8]  lookupStabilitySig:vector  ETV
vector 519199  Network.dyn_peer[8]  lookupTimeSig:vector  ETV
vector 519236  Network.dyn_peer[21]  lookupHopsSig:vector  ETV
vector 519237  Network.dyn_peer[21]  lookupStabilitySig:vector  ETV
vector 519238  Network.dyn_peer[21]  lookupTimeSig:vector  ETV
vector 519242  Network.dyn_peer[23]  lookupHopsSig:vector  ETV
vector 519243  Network.dyn_peer[23]  lookupStabilitySig:vector  ETV
vector 519244  Network.dyn_peer[23]  lookupTimeSig:vector  ETV
vector 519293  Network.dyn_peer[40]  lookupHopsSig:vector  ETV
vector 519294  Network.dyn_peer[40]  lookupStabilitySig:vector  ETV
vector 519295  Network.dyn_peer[40]  lookupTimeSig:vector  ETV
vector 519296  Network.dyn_peer[41]  lookupHopsSig:vector  ETV
vector 519297  Network.dyn_peer[41]  lookupStabilitySig:vector  ETV
vector 519298  Network.dyn_peer[41]  lookupTimeSig:vector  ETV
vector 519362  Network.dyn_peer[63]  lookupHopsSig:vector  ETV
vector 519363  Network.dyn_peer[63]  lookupStabilitySig:vector  ETV
vector 519364  Network.dyn_peer[63]  lookupTimeSig:vector  ETV
vector 519383  Network.dyn_peer[70]  lookupHopsSig:vector  ETV
vector 519384  Network.dyn_peer[70]  lookupStabilitySig:vector  ETV
vector 519385  Network.dyn_peer[70]  lookupTimeSig:vector  ETV
vector 519395  Network.dyn_peer[74]  lookupHopsSig:vector  ETV
vector 519396  Network.dyn_peer[74]  lookupStabilitySig:vector  ETV
vector 519397  Network.dyn_peer[74]  lookupTimeSig:vector  ETV
vector 519404  Network.dyn_peer[77]  lookupHopsSig:vector  ETV
vector 519405  Network.dyn_peer[77]  lookupStabilitySig:vector  ETV
vector 519406  Network.dyn_peer[77]  lookupTimeSig:vector  ETV
vector 519416  Network.dyn_peer[81]  lookupHopsSig:vector  ETV
vector 519417  Network.dyn_peer[81]  lookupStabilitySig:vector  ETV
vector 519418  Network.dyn_peer[81]  lookupTimeSig:vector  ETV
vector 519464  Network.dyn_peer[97]  lookupHopsSig:vector  ETV
vector 519465  Network.dyn_peer[97]  lookupStabilitySig:vector  ETV
vector 519466  Network.dyn_peer[97]  lookupTimeSig:vector  ETV
vector 519470  Network.dyn_peer[99]  lookupHopsSig:vector  ETV
vector 519471  Network.dyn_peer[99]  lookupStabilitySig:vector  ETV
vector 519472  Network.dyn_peer[99]  lookupTimeSig:vector  ETV
vector 519191  Network.dyn_peer[6]  lookupHopsSig:vector  ETV
vector 519192  Network.dyn_peer[6]  lookupStabilitySig:vector  ETV
vector 519193  Network.dyn_peer[6]  lookupTimeSig:vector  ETV
vector 519200  Network.dyn_peer[9]  lookupHopsSig:vector  ETV
vector 519201  Network.dyn_peer[9]  lookupStabilitySig:vector  ETV
vector 519202  Network.dyn_peer[9]  lookupTimeSig:vector  ETV
vector 519215  Network.dyn_peer[14]  lookupHopsSig:vector  ETV
vector 519216  Network.dyn_peer[14]  lookupStabilitySig:vector  ETV
vector 519217  Network.dyn_peer[14]  lookupTimeSig:vector  ETV
vector 519227  Network.dyn_peer[18]  lookupHopsSig:vector  ETV
vector 519228  Network.dyn_peer[18]  lookupStabilitySig:vector  ETV
vector 519229  Network.dyn_peer[18]  lookupTimeSig:vector  ETV
vector 519407  Network.dyn_peer[78]  lookupHopsSig:vector  ETV
vector 519408  Network.dyn_peer[78]  lookupStabilitySig:vector  ETV
vector 519409  Network.dyn_peer[78]  lookupTimeSig:vector  ETV
vector 519431  Network.dyn_peer[86]  lookupHopsSig:vector  ETV
vector 519432  Network.dyn_peer[86]  lookupStabilitySig:vector  ETV
vector 519433  Network.dyn_peer[86]  lookupTimeSig:vector  ETV
vector 519446  Network.dyn_peer[91]  lookupHopsSig:vector  ETV
vector 519447  Network.dyn_peer[91]  lookupStabilitySig:vector  ETV
vector 519448  Network.dyn_peer[91]  lookupTimeSig:vector  ETV
vector 519272  Network.dyn_peer[33]  lookupHopsSig:vector  ETV
vector 519273  Network.dyn_peer[33]  lookupStabilitySig:vector  ETV
vector 519274  Network.dyn_peer[33]  lookupTimeSig:vector  ETV
vector 519428  Network.dyn_peer[85]  lookupHopsSig:vector  ETV
vector 519429  Network.dyn_peer[85]  lookupStabilitySig:vector  ETV
vector 519430  Network.dyn_peer[85]  lookupTimeSig:vector  ETV
vector 519230  Network.dyn_peer[19]  lookupHopsSig:vector  ETV
vector 519231  Network.dyn_peer[19]  lookupStabilitySig:vector  ETV
vector 519232  Network.dyn_peer[19]  lookupTimeSig:vector  ETV
vector 519353  Network.dyn_peer[60]  lookupHopsSig:vector  ETV
vector 519354  Network.dyn_peer[60]  lookupStabilitySig:vector  ETV
vector 519355  Network.dyn_peer[60]  lookupTimeSig:vector  ETV
vector 519389  Network.dyn_peer[72]  lookupHopsSig:vector  ETV
vector 519390  Network.dyn_peer[72]  lookupStabilitySig:vector  ETV
vector 519391  Network.dyn_peer[72]  lookupTimeSig:vector  ETV
vector 519440  Network.dyn_peer[89]  lookupHopsSig:vector  ETV
vector 519441  Network.dyn_peer[89]  lookupStabilitySig:vector  ETV
vector 519442  Network.dyn_peer[89]  lookupTimeSig:vector  ETV
vector 519458  Network.dyn_peer[95]  lookupHopsSig:vector  ETV
vector 519459  Network.dyn_peer[95]  lookupStabilitySig:vector  ETV
vector 519460  Network.dyn_peer[95]  lookupTimeSig:vector  ETV
vector 519206  Network.dyn_peer[11]  lookupHopsSig:vector  ETV
vector 519207  Network.dyn_peer[11]  lookupStabilitySig:vector  ETV
vector 519208  Network.dyn_peer[11]  lookupTimeSig:vector  ETV
vector 519302  Network.dyn_peer[43]  lookupHopsSig:vector  ETV
vector 519303  Network.dyn_peer[43]  lookupStabilitySig:vector  ETV
vector 519304  Network.dyn_peer[43]  lookupTimeSig:vector  ETV
vector 519419  Network.dyn_peer[82]  lookupHopsSig:vector  ETV
vector 519420  Network.dyn_peer[82]  lookupStabilitySig:vector  ETV
vector 519421  Network.dyn_peer[82]  lookupTimeSig:vector  ETV
vector 519452  Network.dyn_peer[93]  lookupHopsSig:vector  ETV
vector 519453  Network.dyn_peer[93]  lookupStabilitySig:vector  ETV
vector 519454  Network.dyn_peer[93]  lookupTimeSig:vector  ETV
vector 519461  Network.dyn_peer[96]  lookupHopsSig:vector  ETV
vector 519462  Network.dyn_peer[96]  lookupStabilitySig:vector  ETV
vector 519463  Network.dyn_peer[96]  lookupTimeSig:vector  ETV
vector 519311  Network.dyn_peer[46]  lookupHopsSig:vector  ETV
vector 519312  Network.dyn_peer[46]  lookupStabilitySig:vector  ETV
vector 519313  Network.dyn_peer[46]  lookupTimeSig:vector  ETV
vector 519374  Network.dyn_peer[67]  lookupHopsSig:vector  ETV
vector 519375  Network.dyn_peer[67]  lookupStabilitySig:vector  ETV
vector 519376  Network.dyn_peer[67]  lookupTimeSig:vector  ETV
vector 519356  Network.dyn_peer[61]  lookupHopsSig:vector  ETV
vector 519357  Network.dyn_peer[61]  lookupStabilitySig:vector  ETV
vector 519358  Network.dyn_peer[61]  lookupTimeSig:vector  ETV
vector 519413  Network.dyn_peer[80]  lookupHopsSig:vector  ETV
vector 519414  Network.dyn_peer[80]  lookupStabilitySig:vector  ETV
vector 519415  Network.dyn_peer[80]  lookupTimeSig:vector  ETV
vector 519338  Network.dyn_peer[55]  lookupHopsSig:vector  ETV
vector 519339  Network.dyn_peer[55]  lookupStabilitySig:vector  ETV
vector 519340  Network.dyn_peer[55]  lookupTimeSig:vector  ETV
vector 519434  Network.dyn_peer[87]  lookupHopsSig:vector  ETV
vector 519435  Network.dyn_peer[87]  lookupStabilitySig:vector  ETV
vector 519436  Network.dyn_peer[87]  lookupTimeSig:vector  ETV
vector 519245  Network.dyn_peer[24]  lookupHopsSig:vector  ETV
vector 519246  Network.dyn_peer[24]  lookupStabilitySig:vector  ETV
vector 519247  Network.dyn_peer[24]  lookupTimeSig:vector  ETV
519173	19830 101 358 2657 20.101 21.81933108264 4 1 11 15 127
519174	19931 150 358 2657 20.101 21.81933108264 4 -0.375 0.95652173832059 2.2481883950531 2.4466699301692
519175	20081 108 358 2657 20.101 21.81933108264 4 0.1 1.2 1.8 1.58
519176	20189 72 839 3688 20.402 23.004341123917 3 4 19 28 402
519177	20261 115 839 3688 20.402 23.004341123917 3 0.19999998807907 0.91803278774023 1.7049893066287 1.2273021636575
519178	20376 75 839 3688 20.402 23.004341123917 3 0.4 2 3 4.52
519179	20451 162 844 4090 20.403 23.807566710791 6 2 15 33 299
519180	20613 251 844 4090 20.403 23.807566710791 6 0.19999998807907 0.97619047574699 4.4596163574606 3.8432302186033
519181	20864 173 844 4090 20.403 23.807566710791 6 0.3 1.6 3.8 3.62
519182	21037 100 27 3758 20.004 23.113384327679 4 0 16 28 336
519183	21137 132 27 3758 20.004 23.113384327679 4 0.19999998807907 1 2.1499999761581 1.6424999904633
519184	21269 105 27 3758 20.004 23.113384327679 4 0 1.7 3.1 3.95
519185	21374 72 850 2863 20.405 22.013786011184 3 2 12 18 164
519186	21446 103 850 2863 20.405 22.013786011184 3 0.19999998807907 0.9333333298564 1.3833333179355 0.97361109985246
519187	21549 77 850 2863 20.405 22.013786011184 3 0.3 1.3 2 1.94
519188	21626 162 855 4124 20.406 23.921241452741 6 4 10 34 222
519189	21788 250 855 4124 20.406 23.921241452741 6 0.19999998807907 0.95348837226629 4.1267084665596 3.4454517550019
519190	22038 173 855 4124 20.406 23.921241452741 6 0.4 1.1 3.9 2.87
519191	22211 131 1160 3420 20.607 22.62361698548 5 1 9 22 138
519192	22342 207 1160 3420 20.607 22.62361698548 5 -0.20000004768372 0.97058823518455 3.0195910092443 2.8514513421852
519193	22549 139 1160 3420 20.607 22.62361698548 5 0.2 1 2.6 1.74
519194	22688 192 369 4301 20.108 24.831740482821 7 1 16 42 392
519195	22880 286 369 4301 20.108 24.831740482821 7 0.30434781312943 0.96808510646224 5.7464850060642 5.0486370320112
519196	23166 205 369 4301 20.108 24.831740482821 7 0.1 1.7 4.8 4.8
519197	23371 103 1000 3934 20.509 23.423758688837 4 1 16 31 363
519198	23474 136 1000 3934 20.509 23.423758688837 4 0 0.97826086916029 2.4532608631998 2.0826193209777
519199	23610 108 1000 3934 20.509 23.423758688837 4 0.2 1.7 3.4 4.18
519200	23718 70 1167 3323 20.61 22.515233991239 3 6 9 23 181
519201	23788 116 1167 3323 20.61 22.515233991239 3 -0.20000004768372 0.83333332836628 1.0333332568407 0.89444443616602
519202	23904 74 1167 3323 20.61 22.515233991239 3 0.6 1 2.5 2.17
519203	23978 80 52 2671 20.011 21.830417208021 3 0 10 16 136
519204	24058 110 52 2671 20.011 21.830417208021 3 -0.20000004768372 1 1.3833332955837 1.3802778084411
519205	24168 83 52 2671 20.011 21.830417208021 3 0 1.1 1.8 1.7
519206	24251 102 1552 3417 20.912 22.616318472034 4 3 9 23 155
519207	24353 153 1552 3417 20.912 22.616318472034 4 -0.79999995231628 0.92156862467527 1.5931595787406 2.6321411797577
519208	24506 110 1552 3417 20.912 22.616318472034 4 0.4 0.9 2.6 1.86
519209	24616 102 866 3496 20.413 22.719774720076 4 4 10 24 166
519210	24718 161 866 3496 20.413 22.719774720076 4 0.19999998807907 0.90740741044283 2.2460628375411 1.6725294871402
519211	24879 109 866 3496 20.413 22.719774720076 4 0.4 1.1 2.7 2.09
519212	24988 78 66 1944 20.014 21.228080350705 3 0 8 10 68
519213	25066 109 66 1944 20.014 21.228080350705 3 -0.14285719394684 1 1.4571428000927 1.3804081707098
519214	25175 82 66 1944 20.014 21.228080350705 3 0 0.9 1.2 0.9
519215	25257 43 1174 2959 20.615 22.115 2 6 14 20 232
519216	25300 73 1174 2959 20.615 22.115 2 -0.20000004768372 0.57575756311417 0.37575751543045 0.37149679055665
519217	25373 46 1174 2959 20.615 22.115 2 0.6 1.5 2.1 2.61
519218	25419 42 536 2177 20.216 21.416 2 2 11 13 125
519219	25461 72 536 2177 20.216 21.416 2 -0.10000002384186 0.59999999403954 0.49999997019768 0.36999999761581
519220	25533 45 536 2177 20.216 21.416 2 0.2 1.2 1.4 1.48
519221	25578 101 381 2182 20.117 21.422828650013 4 1 6 11 45
519222	25679 162 381 2182 20.117 21.422828650013 4 -0.20000004768372 0.79999999701977 2.1142856478691 1.8302040729231
519223	25841 109 381 2182 20.117 21.422828650013 4 0.1 0.7 1.4 0.68
519224	25950 102 703 3559 20.318 22.825097207921 4 3 13 25 223
519225	26052 151 703 3559 20.318 22.825097207921 4 0.1875 0.94545454531908 2.4025197401643 1.8451841977413
519226	26203 109 703 3559 20.318 22.825097207921 4 0.3 1.4 2.8 2.7
519227	26312 43 1183 2773 20.619 21.919 2 6 12 18 180
519228	26355 73 1183 2773 20.619 21.919 2 -0.20000004768372 0.55555555224419 0.35555550456047 0.34864199070283
519229	26428 46 1183 2773 20.619 21.919 2 0.6 1.3 1.9 2.05
519230	26474 130 1427 3578 20.82 22.845582301885 5 2 8 24 152
519231	26604 206 1427 3578 20.82 22.845582301885 5 -0.60000002384186 0.95121951401234 2.736012108624 3.1877358215027
519232	26810 140 1427 3578 20.82 22.845582301885 5 0.3 0.9 2.8 1.88
519233	26950 110 545 2992 20.221 22.144147767676 4 2 9 18 114
519234	27060 171 545 2992 20.221 22.144147767676 4 -0.28571426868439 0.94285714253783 2.0488095395267 1.9573483463875
519235	27231 116 545 2992 20.221 22.144147767676 4 0.2 1 2.1 1.49
519236	27347 43 1017 2533 20.522 21.722 2 5 11 16 146
519237	27390 47 1017 2533 20.522 21.722 2 0 0.3125 0.3125 0.09765625
519238	27437 46 1017 2533 20.522 21.722 2 0.5 1.2 1.7 1.69
519239	27483 132 393 3765 20.123 23.133532340755 5 1 16 27 303
519240	27615 206 393 3765 20.123 23.133532340755 5 0.33333331346512 0.96774193644524 3.9435501620173 3.3853593972894
519241	27821 141 393 3765 20.123 23.133532340755 5 0.1 1.7 3.1 3.59
519242	27962 163 1024 3942 20.524 23.441389330503 6 1 12 29 215
519243	28125 223 1024 3942 20.524 23.441389330503 6 0 0.98630136996508 4.2759278975427 3.8169899840743
519244	28348 174 1024 3942 20.524 23.441389330503 6 0.2 1.3 3.4 2.68
519245	28522 192 2302 3990 21.525 23.548681548383 7 1 15 29 281
519246	28714 297 2302 3990 21.525 23.548681548383 7 -0.071428537368774 0.98412698321044 5.6516026612371 5.4778339367322
519247	29011 205 2302 3990 21.525 23.548681548383 7 0.2 1.5 3.5 3.15
519248	29216 131 557 3939 20.226 23.439716205182 5 2 14 30 282
519249	29347 204 557 3939 20.226 23.439716205182 5 0.17647057771683 0.9400000013411 3.5186462365091 2.8988884122558
519250	29551 140 557 3939 20.226 23.439716205182 5 0.2 1.5 3.4 3.42
519251	29691 101 719 2689 20.327 21.843466494627 4 1 6 15 71
519252	29792 146 719 2689 20.327 21.843466494627 4 0 0.96000000089407 1.9599999710917 1.4415999754906
519253	29938 109 719 2689 20.327 21.843466494627 4 0.2 0.7 1.8 0.98
519254	30047 72 885 3335 20.428 22.531511507317 3 4 12 23 209
519255	30119 116 885 3335 20.428 22.531511507317 3 0.19999998807907 0.85714285075665 1.3512604683638 0.86119904183405
519256	30235 77 885 3335 20.428 22.531511507317 3 0.4 1.3 2.5 2.49
519257	30312 81 117 3652 20.029 22.945864722743 3 0 23 27 545
519258	30393 110 117 3652 20.029 22.945864722743 3 0.19999998807907 1 1.8101694881916 1.4123068140992
519259	30503 84 117 3652 20.029 22.945864722743 3 0 2.4 2.9 6.01
519260	30587 130 891 4193 20.43 24.234972759664 5 4 18 38 430
519261	30717 204 891 4193 20.43 24.234972759664 5 0.19999998807907 0.93150684982538 3.5424021854997 2.9335262451001
519262	30921 139 891 4193 20.43 24.234972759664 5 0.4 1.9 4.2 5.02
519263	31060 222 127 4332 20.031 25.047505187232 8 0 14 43 363
519264	31282 300 127 4332 20.031 25.047505187232 8 0 1 6.5558317303658 6.1565379295838
519265	31582 235 127 4332 20.031 25.047505187232 8 0 1.5 5 4.56
519266	31817 222 729 4422 20.332 26.175829042713 8 3 22 54 650
519267	32039 341 729 4422 20.332 26.175829042713 8 0.39999997615814 0.95959595963359 6.6555200740695 5.8629146115684
519268	32380 237 729 4422 20.332 26.175829042713 8 0.3 2.3 6.1 7.59
519269	32617 72 407 2983 20.133 22.138198146663 3 1 12 19 181
519270	32689 101 407 2983 20.133 22.138198146663 3 0 0.82352940738201 1.6235294044018 1.3182006800546
519271	32790 77 407 2983 20.133 22.138198146663 3 0.1 1.3 2.1 2.19
519272	32867 164 1323 4305 20.734 24.850621476282 6 3 12 43 367
519273	33031 252 1323 4305 20.734 24.850621476282 6 -0.39999997615814 0.9659090898931 3.8985458649695 3.9359501927896
519274	33283 174 1323 4305 20.734 24.850621476282 6 0.4 1.3 4.8 4.44
519275	33457 73 570 3575 20.235 22.842796688475 3 2 12 26 292
519276	33530 116 570 3575 20.235 22.842796688475 3 0.14285713434219 0.78571428358555 1.5285714119673 0.99775508911026
519277	33646 77 570 3575 20.235 22.842796688475 3 0.2 1.3 2.8 3.42
519278	33723 131 146 3895 20.036 23.352859244174 5 0 18 29 373
519279	33854 191 146 3895 20.036 23.352859244174 5 -0.20000004768372 1 3.3836218565702 3.3255731995309
519280	34045 138 146 3895 20.036 23.352859244174 5 0 1.9 3.3 4.35
519281	34183 102 153 3644 20.037 22.941445723475 4 0 14 26 276
519282	34285 147 153 3644 20.037 22.941445723475 4 -0.60000002384186 1 2.0266866460443 2.7107572022721
519283	34432 107 153 3644 20.037 22.941445723475 4 0 1.5 2.9 3.31
519284	34539 72 578 2999 20.238 22.146939313644 3 2 10 19 153
519285	34611 105 578 2999 20.238 22.146939313644 3 -0.25 0.80555555224419 1.1555555462837 1.0714197405989
519286	34716 77 578 2999 20.238 22.146939313644 3 0.2 1.1 2.1 1.89
519287	34793 70 741 1717 20.339 21.04550624091 3 1 4 8 26
519288	34863 115 741 1717 20.339 21.04550624091 3 0.19999998807907 0.79999999701977 1.399999961257 0.83999997138977
519289	34978 76 741 1717 20.339 21.04550624091 3 0.2 0.5 1 0.38
519290	35054 190 907 4044 20.44 23.682988885827 7 1 13 30 226
519291	35244 293 907 4044 20.44 23.682988885827 7 0.19999998807907 0.9873417718336 5.4490417940542 4.8218104212174
519292	35537 203 907 4044 20.44 23.682988885827 7 0.2 1.4 3.6 2.84
519293	35740 132 1050 3288 20.541 22.458807998364 5 2 9 20 118
519294	35872 191 1050 3288 20.541 22.458807998364 5 0 0.95652173832059 3.1841099448502 2.7920627874617
519295	36063 140 1050 3288 20.541 22.458807998364 5 0.3 1 2.4 1.52
519296	36203 102 1055 2223 20.542 21.457828556865 4 2 5 11 37
519297	36305 147 1055 2223 20.542 21.457828556865 4 0 0.83333332836628 2.1476190239191 1.5646484923998
519298	36452 110 1055 2223 20.542 21.457828556865 4 0.3 0.5 1.4 0.52
519299	36562 162 588 4134 20.243 23.963784605303 6 1 20 34 448