version 2
run Stability2-118-20130526-00:51:42-26640
attr configname Stability2
attr datetime 20130526-00:51:42
attr experiment Stability2
attr inifile omnetpp.ini
attr iterationvars $0=40
attr iterationvars2 "$0=40, $repetition=28"
attr measurement $0=40
attr network Network
attr processid 26640
attr repetition 28
attr replication #28
attr resultdir results
attr runnumber 118
attr seedset 118

vector 357118  Network.churner  inGoingSizeSig:vector  ETV
vector 354163  Network.dyn_peer[15]  lookupHopsSig:vector  ETV
vector 354164  Network.dyn_peer[15]  lookupStabilitySig:vector  ETV
vector 354165  Network.dyn_peer[15]  lookupTimeSig:vector  ETV
vector 354166  Network.dyn_peer[16]  lookupHopsSig:vector  ETV
vector 354167  Network.dyn_peer[16]  lookupStabilitySig:vector  ETV
vector 354168  Network.dyn_peer[16]  lookupTimeSig:vector  ETV
vector 354172  Network.dyn_peer[18]  lookupHopsSig:vector  ETV
vector 354173  Network.dyn_peer[18]  lookupStabilitySig:vector  ETV
vector 354174  Network.dyn_peer[18]  lookupTimeSig:vector  ETV
vector 354175  Network.dyn_peer[19]  lookupHopsSig:vector  ETV
vector 354176  Network.dyn_peer[19]  lookupStabilitySig:vector  ETV
vector 354177  Network.dyn_peer[19]  lookupTimeSig:vector  ETV
vector 354133  Network.dyn_peer[5]  lookupHopsSig:vector  ETV
vector 354134  Network.dyn_peer[5]  lookupStabilitySig:vector  ETV
vector 354135  Network.dyn_peer[5]  lookupTimeSig:vector  ETV
vector 354136  Network.dyn_peer[6]  lookupHopsSig:vector  ETV
vector 354137  Network.dyn_peer[6]  lookupStabilitySig:vector  ETV
vector 354138  Network.dyn_peer[6]  lookupTimeSig:vector  ETV
vector 354139  Network.dyn_peer[7]  lookupHopsSig:vector  ETV
vector 354140  Network.dyn_peer[7]  lookupStabilitySig:vector  ETV
vector 354141  Network.dyn_peer[7]  lookupTimeSig:vector  ETV
vector 354154  Network.dyn_peer[12]  lookupHopsSig:vector  ETV
vector 354155  Network.dyn_peer[12]  lookupStabilitySig:vector  ETV
vector 354156  Network.dyn_peer[12]  lookupTimeSig:vector  ETV
vector 354190  Network.dyn_peer[24]  lookupHopsSig:vector  ETV
vector 354191  Network.dyn_peer[24]  lookupStabilitySig:vector  ETV
vector 354192  Network.dyn_peer[24]  lookupTimeSig:vector  ETV
vector 354142  Network.dyn_peer[8]  lookupHopsSig:vector  ETV
vector 354143  Network.dyn_peer[8]  lookupStabilitySig:vector  ETV
vector 354144  Network.dyn_peer[8]  lookupTimeSig:vector  ETV
vector 354145  Network.dyn_peer[9]  lookupHopsSig:vector  ETV
vector 354146  Network.dyn_peer[9]  lookupStabilitySig:vector  ETV
vector 354147  Network.dyn_peer[9]  lookupTimeSig:vector  ETV
vector 354157  Network.dyn_peer[13]  lookupHopsSig:vector  ETV
vector 354158  Network.dyn_peer[13]  lookupStabilitySig:vector  ETV
vector 354159  Network.dyn_peer[13]  lookupTimeSig:vector  ETV
vector 354160  Network.dyn_peer[14]  lookupHopsSig:vector  ETV
vector 354161  Network.dyn_peer[14]  lookupStabilitySig:vector  ETV
vector 354162  Network.dyn_peer[14]  lookupTimeSig:vector  ETV
vector 354187  Network.dyn_peer[23]  lookupHopsSig:vector  ETV
vector 354188  Network.dyn_peer[23]  lookupStabilitySig:vector  ETV
vector 354189  Network.dyn_peer[23]  lookupTimeSig:vector  ETV
vector 354199  Network.dyn_peer[27]  lookupHopsSig:vector  ETV
vector 354200  Network.dyn_peer[27]  lookupStabilitySig:vector  ETV
vector 354201  Network.dyn_peer[27]  lookupTimeSig:vector  ETV
vector 354130  Network.dyn_peer[4]  lookupHopsSig:vector  ETV
vector 354131  Network.dyn_peer[4]  lookupStabilitySig:vector  ETV
vector 354132  Network.dyn_peer[4]  lookupTimeSig:vector  ETV
vector 354148  Network.dyn_peer[10]  lookupHopsSig:vector  ETV
vector 354149  Network.dyn_peer[10]  lookupStabilitySig:vector  ETV
vector 354150  Network.dyn_peer[10]  lookupTimeSig:vector  ETV
vector 354178  Network.dyn_peer[20]  lookupHopsSig:vector  ETV
vector 354179  Network.dyn_peer[20]  lookupStabilitySig:vector  ETV
vector 354180  Network.dyn_peer[20]  lookupTimeSig:vector  ETV
vector 354184  Network.dyn_peer[22]  lookupHopsSig:vector  ETV
vector 354185  Network.dyn_peer[22]  lookupStabilitySig:vector  ETV
vector 354186  Network.dyn_peer[22]  lookupTimeSig:vector  ETV
vector 354220  Network.dyn_peer[34]  lookupHopsSig:vector  ETV
vector 354221  Network.dyn_peer[34]  lookupStabilitySig:vector  ETV
vector 354222  Network.dyn_peer[34]  lookupTimeSig:vector  ETV
vector 354235  Network.dyn_peer[39]  lookupHopsSig:vector  ETV
vector 354236  Network.dyn_peer[39]  lookupStabilitySig:vector  ETV
vector 354237  Network.dyn_peer[39]  lookupTimeSig:vector  ETV
vector 354118  Network.dyn_peer[0]  lookupHopsSig:vector  ETV
vector 354119  Network.dyn_peer[0]  lookupStabilitySig:vector  ETV
vector 354120  Network.dyn_peer[0]  lookupTimeSig:vector  ETV
vector 354121  Network.dyn_peer[1]  lookupHopsSig:vector  ETV
vector 354122  Network.dyn_peer[1]  lookupStabilitySig:vector  ETV
vector 354123  Network.dyn_peer[1]  lookupTimeSig:vector  ETV
vector 354127  Network.dyn_peer[3]  lookupHopsSig:vector  ETV
vector 354128  Network.dyn_peer[3]  lookupStabilitySig:vector  ETV
vector 354129  Network.dyn_peer[3]  lookupTimeSig:vector  ETV
vector 354181  Network.dyn_peer[21]  lookupHopsSig:vector  ETV
vector 354182  Network.dyn_peer[21]  lookupStabilitySig:vector  ETV
vector 354183  Network.dyn_peer[21]  lookupTimeSig:vector  ETV
vector 354196  Network.dyn_peer[26]  lookupHopsSig:vector  ETV
vector 354197  Network.dyn_peer[26]  lookupStabilitySig:vector  ETV
vector 354198  Network.dyn_peer[26]  lookupTimeSig:vector  ETV
vector 354151  Network.dyn_peer[11]  lookupHopsSig:vector  ETV
vector 354152  Network.dyn_peer[11]  lookupStabilitySig:vector  ETV
vector 354153  Network.dyn_peer[11]  lookupTimeSig:vector  ETV
vector 354193  Network.dyn_peer[25]  lookupHopsSig:vector  ETV
vector 354194  Network.dyn_peer[25]  lookupStabilitySig:vector  ETV
vector 354195  Network.dyn_peer[25]  lookupTimeSig:vector  ETV
vector 354205  Network.dyn_peer[29]  lookupHopsSig:vector  ETV
vector 354206  Network.dyn_peer[29]  lookupStabilitySig:vector  ETV
vector 354207  Network.dyn_peer[29]  lookupTimeSig:vector  ETV
vector 354223  Network.dyn_peer[35]  lookupHopsSig:vector  ETV
vector 354224  Network.dyn_peer[35]  lookupStabilitySig:vector  ETV
vector 354225  Network.dyn_peer[35]  lookupTimeSig:vector  ETV
vector 354226  Network.dyn_peer[36]  lookupHopsSig:vector  ETV
vector 354227  Network.dyn_peer[36]  lookupStabilitySig:vector  ETV
vector 354228  Network.dyn_peer[36]  lookupTimeSig:vector  ETV
vector 354232  Network.dyn_peer[38]  lookupHopsSig:vector  ETV
vector 354233  Network.dyn_peer[38]  lookupStabilitySig:vector  ETV
vector 354234  Network.dyn_peer[38]  lookupTimeSig:vector  ETV
vector 354208  Network.dyn_peer[30]  lookupHopsSig:vector  ETV
vector 354209  Network.dyn_peer[30]  lookupStabilitySig:vector  ETV
vector 354210  Network.dyn_peer[30]  lookupTimeSig:vector  ETV
vector 354169  Network.dyn_peer[17]  lookupHopsSig:vector  ETV
vector 354170  Network.dyn_peer[17]  lookupStabilitySig:vector  ETV
vector 354171  Network.dyn_peer[17]  lookupTimeSig:vector  ETV
vector 354229  Network.dyn_peer[37]  lookupHopsSig:vector  ETV
vector 354230  Network.dyn_peer[37]  lookupStabilitySig:vector  ETV
vector 354231  Network.dyn_peer[37]  lookupTimeSig:vector  ETV
vector 354124  Network.dyn_peer[2]  lookupHopsSig:vector  ETV
vector 354125  Network.dyn_peer[2]  lookupStabilitySig:vector  ETV
vector 354126  Network.dyn_peer[2]  lookupTimeSig:vector  ETV
vector 354211  Network.dyn_peer[31]  lookupHopsSig:vector  ETV
vector 354212  Network.dyn_peer[31]  lookupStabilitySig:vector  ETV
vector 354213  Network.dyn_peer[31]  lookupTimeSig:vector  ETV
vector 354214  Network.dyn_peer[32]  lookupHopsSig:vector  ETV
vector 354215  Network.dyn_peer[32]  lookupStabilitySig:vector  ETV
vector 354216  Network.dyn_peer[32]  lookupTimeSig:vector  ETV
vector 354217  Network.dyn_peer[33]  lookupHopsSig:vector  ETV
vector 354218  Network.dyn_peer[33]  lookupStabilitySig:vector  ETV
vector 354219  Network.dyn_peer[33]  lookupTimeSig:vector  ETV
vector 354202  Network.dyn_peer[28]  lookupHopsSig:vector  ETV
vector 354203  Network.dyn_peer[28]  lookupStabilitySig:vector  ETV
vector 354204  Network.dyn_peer[28]  lookupTimeSig:vector  ETV
354118	380	20.401	4
354118	715	20.901	4
354118	965	21.303657255159	3
354118	1101	21.613407835064	2
354119	380	20.401	0.19999998807907
354119	715	20.901	0.42857140302658
354119	965	21.303657255159	0.78571428358555
354119	1101	21.613407835064	0.92307692021132
354120	380	20.401	0.4
354120	715	20.901	0.5
354120	965	21.303657255159	0.4
354120	1101	21.613407835064	0.3
354121	385	20.402	4
354121	652	20.802	3
354121	853	21.10885195364	2
354121	974	21.318667166202	1
354122	385	20.402	0.19999998807907
354122	652	20.802	0.5
354122	853	21.10885195364	0.75
354122	974	21.318667166202	0.92857142537832
354123	385	20.402	0.4
354123	652	20.802	0.4
354123	853	21.10885195364	0.3
354123	974	21.318667166202	0.2
354124	657	20.803	8
354124	1095	21.603	7
354124	1240	22.40771002463	7
354124	1252	22.716897278383	2
354124	1260	23.024401915826	2
354125	657	20.803	-0.33333337306976
354125	1095	21.603	0.73076921701431
354125	1240	22.40771002463	0.83333332836628
354125	1252	22.716897278383	0.95348837226629
354125	1260	23.024401915826	0.9545454531908
354126	657	20.803	0.8
354126	1095	21.603	0.8
354126	1240	22.40771002463	0.8
354126	1252	22.716897278383	0.3
354126	1260	23.024401915826	0.3
354127	391	20.404	4
354127	590	20.704	2
354127	1060	21.509977624549	7
354127	1186	21.915418202839	3
354127	1230	22.215914652949	2
354128	391	20.404	0.19999998807907
354128	590	20.704	0.66666665673256
354128	1060	21.509977624549	0.69565218687057
354128	1186	21.915418202839	0.9142857119441
354128	1230	22.215914652949	0.94999999925494
354129	391	20.404	0.4
354129	590	20.704	0.3
354129	1060	21.509977624549	0.8
354129	1186	21.915418202839	0.4
354129	1230	22.215914652949	0.3
354130	307	20.305	3
354130	659	20.805	4
354130	917	21.213522824225	3
354130	1070	21.524887628635	2
354131	307	20.305	0.39999997615814
354131	659	20.805	0.33333331346512
354131	917	21.213522824225	0.72727271914482
354131	1070	21.524887628635	0.91304347664118
354132	307	20.305	0.3
354132	659	20.805	0.5
354132	917	21.213522824225	0.4
354132	1070	21.524887628635	0.3
354133	170	20.106	1
354133	664	20.809547197403	6
354133	1098	21.611163380717	7
354134	170	20.106	0.79999999701977
354134	664	20.809547197403	0
354134	1098	21.611163380717	0.73076921701431
354135	170	20.106	0.1
354135	664	20.809547197403	0.7
354135	1098	21.611163380717	0.8
354136	175	20.107	1
354136	394	20.407	2
354136	909	21.207384422747	7
354137	175	20.107	0.79999999701977
354137	394	20.407	0.59999999403954
354137	909	21.207384422747	0.30000001192093
354138	175	20.107	0.1
354138	394	20.407	0.3
354138	909	21.207384422747	0.8
354139	180	20.108	1
354139	540	20.609020139369	4
354139	734	20.91877365999	2
354139	1040	21.433313732852	4
354140	180	20.108	0.79999999701977
354140	540	20.609020139369	0.19999998807907
354140	734	20.91877365999	0.71428570151329
354140	1040	21.433313732852	0.79999999701977
354141	180	20.108	0.1
354141	540	20.609020139369	0.5
354141	734	20.91877365999	0.3
354141	1040	21.433313732852	0.5
354142	238	20.209	2
354142	911	21.209	9
354142	1067	21.518928653191	2
354143	238	20.209	0.59999999403954
354143	911	21.209	0.18181818723679
354143	1067	21.518928653191	0.91304347664118
354144	238	20.209	0.2
354144	911	21.209	1
354144	1067	21.518928653191	0.3
354145	245	20.21	2
354145	597	20.71	4
354145	1016	21.410260457708	6
354146	245	20.21	0.59999999403954
354146	597	20.71	0.33333331346512
354146	1016	21.410260457708	0.625
354147	245	20.21	0.2
354147	597	20.71	0.5
354147	1016	21.410260457708	0.7
354148	317	20.311	3
354148	478	20.520217522768	1
354148	623	20.729159835138	1
354148	1035	21.432083881843	6
354149	317	20.311	0.39999997615814
354149	478	20.520217522768	0.79999999701977
354149	623	20.729159835138	0.83333332836628
354149	1035	21.432083881843	0.68421053886414
354150	317	20.311	0.3
354150	478	20.520217522768	0.2
354150	623	20.729159835138	0.2
354150	1035	21.432083881843	0.7
354151	473	20.512	5
354151	731	20.917818936754	3
354151	864	21.123677747263	1
354151	1137	21.723754870818	5
354151	1211	22.027411491876	2
354152	473	20.512	0
354152	731	20.917818936754	0.5714285671711
354152	864	21.123677747263	0.875
354152	1137	21.723754870818	0.83333332836628
354152	1211	22.027411491876	0.9473684206605
354153	473	20.512	0.5
354153	731	20.917818936754	0.4
354153	864	21.123677747263	0.2
354153	1137	21.723754870818	0.6
354153	1211	22.027411491876	0.3
354154	191	20.113	1
354154	320	20.313	1
354154	480	20.521802126271	1
354154	924	21.223683466975	6
354155	191	20.113	0.79999999701977
354155	320	20.313	0.79999999701977
354155	480	20.521802126271	0.79999999701977
354155	924	21.223683466975	0.45454543828964
354156	191	20.113	0.1
354156	320	20.313	0.2
354156	480	20.521802126271	0.2
354156	924	21.223683466975	0.7
354157	253	20.214	2
354157	402	20.414	1
354157	705	20.835028205607	3
354157	893	21.135456614424	2
354157	1116	21.639391015234	4
354158	253	20.214	0.59999999403954
354158	402	20.414	0.79999999701977
354158	705	20.835028205607	0.5714285671711
354158	893	21.135456614424	0.79999999701977
354158	1116	21.639391015234	0.85714285075665
354159	253	20.214	0.2
354159	402	20.414	0.2
354159	705	20.835028205607	0.4
354159	893	21.135456614424	0.3
354159	1116	21.639391015234	0.5
354160	258	20.215	2
354160	728	20.915	6
354160	1021	21.417552404778	4
354161	258	20.215	0.59999999403954
354161	728	20.915	0.14285713434219
354161	1021	21.417552404778	0.75
354162	258	20.215	0.2
354162	728	20.915	0.7
354162	1021	21.417552404778	0.5
354163	63	20.016	0
354163	405	20.416	3
354163	679	20.825192331437	3
354163	982	21.326400619515	4
354164	63	20.016	1
354164	405	20.416	0.39999997615814
354164	679	20.825192331437	0.5
354164	982	21.326400619515	0.73333331942558
354165	63	20.016	0
354165	405	20.416	0.4
354165	679	20.825192331437	0.4
354165	982	21.326400619515	0.5
354166	70	20.017	0
354166	426	20.426747759543	3
354166	580	20.637570785767	1
354166	1132	21.711359807331	8
354166	1221	22.116019470192	3
354167	70	20.017	1
354167	426	20.426747759543	0.39999997615814
354167	580	20.637570785767	0.79999999701977
354167	1132	21.711359807331	0.73333331942558
354167	1221	22.116019470192	0.92499999701977
354168	70	20.017	0
354168	426	20.426747759543	0.4
354168	580	20.637570785767	0.2
354168	1132	21.711359807331	0.9
354168	1221	22.116019470192	0.4
354169	605	20.718	7
354169	1104	21.618	8
354169	1233	22.223157131531	5
354170	605	20.718	-0.16666662693024
354170	1104	21.618	0.69230768084526
354170	1233	22.223157131531	0.87804877758026
354171	605	20.718	0.7
354171	1104	21.618	0.9
354171	1233	22.223157131531	0.6
354172	81	20.019	0
354172	262	20.219	1
354172	1031	21.428318738579	11
354173	81	20.019	1
354173	262	20.219	0.79999999701977
354173	1031	21.428318738579	0.38888889551163
354174	81	20.019	0
354174	262	20.219	0.2
354174	1031	21.428318738579	1.2
354175	88	20.02	0
354175	748	20.928872945215	8
354175	891	21.133505324916	1
354176	88	20.02	1
354176	748	20.928872945215	-0.14285719394684
354176	891	21.133505324916	0.88888888806105
354177	88	20.02	0
354177	748	20.928872945215	0.9
354177	891	21.133505324916	0.2
354178	330	20.321	3
354178	548	20.622355558112	2
354178	686	20.827821268105	1
354179	330	20.321	0.39999997615814
354179	548	20.622355558112	0.59999999403954
354179	686	20.827821268105	0.83333332836628
354180	330	20.321	0.3
354180	548	20.622355558112	0.3
354180	686	20.827821268105	0.2
354181	414	20.422	4
354181	978	21.324293764383	8
354181	1168	21.832686975677	4
354182	414	20.422	0.19999998807907
354182	978	21.324293764383	0.42857140302658
354182	1168	21.832686975677	0.875
354183	414	20.422	0.4
354183	978	21.324293764383	0.9
354183	1168	21.832686975677	0.5
354184	341	20.323	3
354184	799	21.023	6
354184	1114	21.638813926441	5
354184	1178	21.843186652828	1
354185	341	20.323	0.39999997615814
354185	799	21.023	0.14285713434219
354185	1114	21.638813926441	0.8214285671711
354185	1178	21.843186652828	0.96969696879387
354186	341	20.323	0.3
354186	799	21.023	0.7
354186	1114	21.638813926441	0.6
354186	1178	21.843186652828	0.2
354187	272	20.224	2
354187	868	21.124	8
354188	272	20.224	0.59999999403954
354188	868	21.124	0
354189	272	20.224	0.2
354189	868	21.124	0.9
354190	207	20.125	1
354190	344	20.325	1
354190	691	20.829514895807	4
354190	825	21.032791828384	1
354190	1199	21.93956623108	8
354191	207	20.125	0.79999999701977
354191	344	20.325	0.79999999701977
354191	691	20.829514895807	0.42857140302658
354191	825	21.032791828384	0.85714285075665
354191	1199	21.93956623108	0.77777777612209
354192	207	20.125	0.1
354192	344	20.325	0.2
354192	691	20.829514895807	0.5
354192	825	21.032791828384	0.2
354192	1199	21.93956623108	0.9
354193	492	20.526	5
354193	871	21.126	5
354193	1170	21.83274169481	6
354193	1246	22.535640387717	6
354194	492	20.526	0
354194	871	21.126	0.375
354194	1170	21.83274169481	0.8125
354194	1246	22.535640387717	0.85714285075665
354195	492	20.526	0.5
354195	871	21.126	0.6
354195	1170	21.83274169481	0.7
354195	1246	22.535640387717	0.7
354196	431	20.427	4
354196	1029	21.427	9
354197	431	20.427	0.19999998807907
354197	1029	21.427	0.5
354198	431	20.427	0.4
354198	1029	21.427	1
354199	282	20.228	2
354199	433	20.428	1
354199	628	20.731212492775	2
354199	820	21.03133229025	2
354199	952	21.238629347528	1
354200	282	20.228	0.59999999403954
354200	433	20.428	0.79999999701977
354200	628	20.731212492775	0.66666665673256
354200	820	21.03133229025	0.71428570151329
354200	952	21.238629347528	0.92307692021132
354201	282	20.228	0.2
354201	433	20.428	0.2
354201	628	20.731212492775	0.3
354201	820	21.03133229025	0.3
354201	952	21.238629347528	0.2
354202	815	21.029	10
354202	932	21.229	1
354202	1192	21.933542080343	6
354203	815	21.029	-0.42857146263123
354203	932	21.229	0.90909090638161
354203	1192	21.933542080343	0.82857142388821
354204	815	21.029	1
354204	932	21.229	0.2
354204	1192	21.933542080343	0.7
354205	504	20.53	5
354205	881	21.13	5
354205	1045	21.438801667164	2
354205	1124	21.645457752877	1
354206	504	20.53	0
354206	881	21.13	0.44444441795349
354206	1045	21.438801667164	0.90909090638161
354206	1124	21.645457752877	0.96428571268916
354207	504	20.53	0.5
354207	881	21.13	0.6
354207	1045	21.438801667164	0.3
354207	1124	21.645457752877	0.2
354208	569	20.631	6
354208	1075	21.531	8
354209	569	20.631	-0.20000004768372
354209	1075	21.531	0.68000000715256
354210	569	20.631	0.6
354210	1075	21.531	0.9
354211	758	20.932	9
354211	884	21.132	1
354211	997	21.337542703557	1
354211	1146	21.741365696008	3
354212	758	20.932	-0.28571426868439
354212	884	21.132	0.88888888806105
354212	997	21.337542703557	0.9375
354212	1146	21.741365696008	0.89999999850988
354213	758	20.932	0.9
354213	884	21.132	0.2
354213	997	21.337542703557	0.2
354213	1146	21.741365696008	0.4
354214	765	20.933	9
354214	939	21.233	2
354214	1195	21.93617713726	6
354214	1226	22.146057768991	1
354214	1255	22.749386401552	5
354215	765	20.933	-0.28571426868439
354215	939	21.233	0.83333332836628
354215	1195	21.93617713726	0.83333332836628
354215	1226	22.146057768991	0.97499999962747
354215	1255	22.749386401552	0.88372092694044
354216	765	20.933	0.9
354216	939	21.233	0.3
354216	1195	21.93617713726	0.7
354216	1226	22.146057768991	0.2
354216	1255	22.749386401552	0.6
354217	774	20.934	9
354217	1011	21.346742143104	3
354217	1182	21.84987618452	4
354218	774	20.934	-0.28571426868439
354218	1011	21.346742143104	0.8125
354218	1182	21.84987618452	0.8823529407382
354219	774	20.934	0.9
354219	1011	21.346742143104	0.4
354219	1182	21.84987618452	0.5
354220	365	20.335	3
354220	703	20.835	4
354220	835	21.036127461327	1
354221	365	20.335	0.39999997615814
354221	703	20.835	0.42857140302658
354221	835	21.036127461327	0.85714285075665
354222	365	20.335	0.3
354222	703	20.835	0.5
354222	835	21.036127461327	0.2
354223	517	20.536	5
354223	944	21.236	6
354223	1151	21.743955222181	4
354223	1204	21.954117080756	1
354224	517	20.536	0
354224	944	21.236	0.5
354224	1151	21.743955222181	0.87096774578094
354224	1204	21.954117080756	0.97297297231853
354225	517	20.536	0.5
354225	944	21.236	0.7
354225	1151	21.743955222181	0.5
354225	1204	21.954117080756	0.2
354226	522	20.537	5
354226	947	21.237	6
354227	522	20.537	0
354227	947	21.237	0.5
354228	522	20.537	0.5
354228	947	21.237	0.7
354229	644	20.738	7
354229	950	21.238	4
354229	1090	21.545467167787	2
354229	1157	21.750166988777	1
354230	644	20.738	-0.16666662693024
354230	950	21.238	0.69230768084526
354230	1090	21.545467167787	0.92307692021132
354230	1157	21.750166988777	0.96774193644524
354231	644	20.738	0.7
354231	950	21.238	0.5
354231	1090	21.545467167787	0.3
354231	1157	21.750166988777	0.2
354232	529	20.539	5
354232	1048	21.439	8
354233	529	20.539	0
354233	1048	21.439	0.63636362552643
354234	529	20.539	0.5
354234	1048	21.439	0.9
354235	374	20.34	3
354235	1005	21.34	9
354235	1148	21.741780448483	3
354235	1216	22.048518672547	2
354236	374	20.34	0.39999997615814
354236	1005	21.34	0.4375
354236	1148	21.741780448483	0.90322580933571
354236	1216	22.048518672547	0.94871794804931
354237	374	20.34	0.3
354237	1005	21.34	1
354237	1148	21.741780448483	0.4
354237	1216	22.048518672547	0.3
357118	11	20	0
357118	12	20.001	0
357118	15	20.002	1
357118	18	20.003	2
357118	21	20.004	3
357118	24	20.005	4
357118	27	20.006	5
357118	30	20.007	6
357118	33	20.008	7
357118	36	20.009	8
357118	39	20.01	9
357118	42	20.011	10
357118	45	20.012	11
357118	48	20.013	12
357118	51	20.014	13
357118	54	20.015	14
357118	57	20.016	15
357118	64	20.017	16
357118	72	20.018	17
357118	75	20.019	18
357118	82	20.02	19
357118	89	20.021	20
357118	93	20.022	21
357118	97	20.023	22
357118	101	20.024	23
357118	105	20.025	24
357118	109	20.026	25
357118	113	20.027	26
357118	117	20.028	27
357118	121	20.029	28
357118	124	20.03	29
357118	128	20.031	30
357118	131	20.032	31
357118	135	20.033	32
357118	138	20.034	33
357118	141	20.035	34
357118	144	20.036	35
357118	147	20.037	36
357118	150	20.038	37
357118	153	20.039	38
357118	157	20.04	39
