version 2
run Stability2-90-20130526-00:51:33-26640
attr configname Stability2
attr datetime 20130526-00:51:33
attr experiment Stability2
attr inifile omnetpp.ini
attr iterationvars $0=40
attr iterationvars2 "$0=40, $repetition=0"
attr measurement $0=40
attr network Network
attr processid 26640
attr repetition 0
attr replication #0
attr resultdir results
attr runnumber 90
attr seedset 90

vector 273090  Network.churner  inGoingSizeSig:vector  ETV
vector 270096  Network.dyn_peer[2]  lookupHopsSig:vector  ETV
vector 270097  Network.dyn_peer[2]  lookupStabilitySig:vector  ETV
vector 270098  Network.dyn_peer[2]  lookupTimeSig:vector  ETV
vector 270108  Network.dyn_peer[6]  lookupHopsSig:vector  ETV
vector 270109  Network.dyn_peer[6]  lookupStabilitySig:vector  ETV
vector 270110  Network.dyn_peer[6]  lookupTimeSig:vector  ETV
vector 270126  Network.dyn_peer[12]  lookupHopsSig:vector  ETV
vector 270127  Network.dyn_peer[12]  lookupStabilitySig:vector  ETV
vector 270128  Network.dyn_peer[12]  lookupTimeSig:vector  ETV
vector 270144  Network.dyn_peer[18]  lookupHopsSig:vector  ETV
vector 270145  Network.dyn_peer[18]  lookupStabilitySig:vector  ETV
vector 270146  Network.dyn_peer[18]  lookupTimeSig:vector  ETV
vector 270183  Network.dyn_peer[31]  lookupHopsSig:vector  ETV
vector 270184  Network.dyn_peer[31]  lookupStabilitySig:vector  ETV
vector 270185  Network.dyn_peer[31]  lookupTimeSig:vector  ETV
vector 270099  Network.dyn_peer[3]  lookupHopsSig:vector  ETV
vector 270100  Network.dyn_peer[3]  lookupStabilitySig:vector  ETV
vector 270101  Network.dyn_peer[3]  lookupTimeSig:vector  ETV
vector 270111  Network.dyn_peer[7]  lookupHopsSig:vector  ETV
vector 270112  Network.dyn_peer[7]  lookupStabilitySig:vector  ETV
vector 270113  Network.dyn_peer[7]  lookupTimeSig:vector  ETV
vector 270114  Network.dyn_peer[8]  lookupHopsSig:vector  ETV
vector 270115  Network.dyn_peer[8]  lookupStabilitySig:vector  ETV
vector 270116  Network.dyn_peer[8]  lookupTimeSig:vector  ETV
vector 270117  Network.dyn_peer[9]  lookupHopsSig:vector  ETV
vector 270118  Network.dyn_peer[9]  lookupStabilitySig:vector  ETV
vector 270119  Network.dyn_peer[9]  lookupTimeSig:vector  ETV
vector 270132  Network.dyn_peer[14]  lookupHopsSig:vector  ETV
vector 270133  Network.dyn_peer[14]  lookupStabilitySig:vector  ETV
vector 270134  Network.dyn_peer[14]  lookupTimeSig:vector  ETV
vector 270147  Network.dyn_peer[19]  lookupHopsSig:vector  ETV
vector 270148  Network.dyn_peer[19]  lookupStabilitySig:vector  ETV
vector 270149  Network.dyn_peer[19]  lookupTimeSig:vector  ETV
vector 270150  Network.dyn_peer[20]  lookupHopsSig:vector  ETV
vector 270151  Network.dyn_peer[20]  lookupStabilitySig:vector  ETV
vector 270152  Network.dyn_peer[20]  lookupTimeSig:vector  ETV
vector 270186  Network.dyn_peer[32]  lookupHopsSig:vector  ETV
vector 270187  Network.dyn_peer[32]  lookupStabilitySig:vector  ETV
vector 270188  Network.dyn_peer[32]  lookupTimeSig:vector  ETV
vector 270189  Network.dyn_peer[33]  lookupHopsSig:vector  ETV
vector 270190  Network.dyn_peer[33]  lookupStabilitySig:vector  ETV
vector 270191  Network.dyn_peer[33]  lookupTimeSig:vector  ETV
vector 270105  Network.dyn_peer[5]  lookupHopsSig:vector  ETV
vector 270106  Network.dyn_peer[5]  lookupStabilitySig:vector  ETV
vector 270107  Network.dyn_peer[5]  lookupTimeSig:vector  ETV
vector 270135  Network.dyn_peer[15]  lookupHopsSig:vector  ETV
vector 270136  Network.dyn_peer[15]  lookupStabilitySig:vector  ETV
vector 270137  Network.dyn_peer[15]  lookupTimeSig:vector  ETV
vector 270138  Network.dyn_peer[16]  lookupHopsSig:vector  ETV
vector 270139  Network.dyn_peer[16]  lookupStabilitySig:vector  ETV
vector 270140  Network.dyn_peer[16]  lookupTimeSig:vector  ETV
vector 270159  Network.dyn_peer[23]  lookupHopsSig:vector  ETV
vector 270160  Network.dyn_peer[23]  lookupStabilitySig:vector  ETV
vector 270161  Network.dyn_peer[23]  lookupTimeSig:vector  ETV
vector 270201  Network.dyn_peer[37]  lookupHopsSig:vector  ETV
vector 270202  Network.dyn_peer[37]  lookupStabilitySig:vector  ETV
vector 270203  Network.dyn_peer[37]  lookupTimeSig:vector  ETV
vector 270093  Network.dyn_peer[1]  lookupHopsSig:vector  ETV
vector 270094  Network.dyn_peer[1]  lookupStabilitySig:vector  ETV
vector 270095  Network.dyn_peer[1]  lookupTimeSig:vector  ETV
vector 270123  Network.dyn_peer[11]  lookupHopsSig:vector  ETV
vector 270124  Network.dyn_peer[11]  lookupStabilitySig:vector  ETV
vector 270125  Network.dyn_peer[11]  lookupTimeSig:vector  ETV
vector 270156  Network.dyn_peer[22]  lookupHopsSig:vector  ETV
vector 270157  Network.dyn_peer[22]  lookupStabilitySig:vector  ETV
vector 270158  Network.dyn_peer[22]  lookupTimeSig:vector  ETV
vector 270171  Network.dyn_peer[27]  lookupHopsSig:vector  ETV
vector 270172  Network.dyn_peer[27]  lookupStabilitySig:vector  ETV
vector 270173  Network.dyn_peer[27]  lookupTimeSig:vector  ETV
vector 270198  Network.dyn_peer[36]  lookupHopsSig:vector  ETV
vector 270199  Network.dyn_peer[36]  lookupStabilitySig:vector  ETV
vector 270200  Network.dyn_peer[36]  lookupTimeSig:vector  ETV
vector 270102  Network.dyn_peer[4]  lookupHopsSig:vector  ETV
vector 270103  Network.dyn_peer[4]  lookupStabilitySig:vector  ETV
vector 270104  Network.dyn_peer[4]  lookupTimeSig:vector  ETV
vector 270129  Network.dyn_peer[13]  lookupHopsSig:vector  ETV
vector 270130  Network.dyn_peer[13]  lookupStabilitySig:vector  ETV
vector 270131  Network.dyn_peer[13]  lookupTimeSig:vector  ETV
vector 270162  Network.dyn_peer[24]  lookupHopsSig:vector  ETV
vector 270163  Network.dyn_peer[24]  lookupStabilitySig:vector  ETV
vector 270164  Network.dyn_peer[24]  lookupTimeSig:vector  ETV
vector 270165  Network.dyn_peer[25]  lookupHopsSig:vector  ETV
vector 270166  Network.dyn_peer[25]  lookupStabilitySig:vector  ETV
vector 270167  Network.dyn_peer[25]  lookupTimeSig:vector  ETV
vector 270168  Network.dyn_peer[26]  lookupHopsSig:vector  ETV
vector 270169  Network.dyn_peer[26]  lookupStabilitySig:vector  ETV
vector 270170  Network.dyn_peer[26]  lookupTimeSig:vector  ETV
vector 270180  Network.dyn_peer[30]  lookupHopsSig:vector  ETV
vector 270181  Network.dyn_peer[30]  lookupStabilitySig:vector  ETV
vector 270182  Network.dyn_peer[30]  lookupTimeSig:vector  ETV
vector 270195  Network.dyn_peer[35]  lookupHopsSig:vector  ETV
vector 270196  Network.dyn_peer[35]  lookupStabilitySig:vector  ETV
vector 270197  Network.dyn_peer[35]  lookupTimeSig:vector  ETV
vector 270207  Network.dyn_peer[39]  lookupHopsSig:vector  ETV
vector 270208  Network.dyn_peer[39]  lookupStabilitySig:vector  ETV
vector 270209  Network.dyn_peer[39]  lookupTimeSig:vector  ETV
vector 270177  Network.dyn_peer[29]  lookupHopsSig:vector  ETV
vector 270178  Network.dyn_peer[29]  lookupStabilitySig:vector  ETV
vector 270179  Network.dyn_peer[29]  lookupTimeSig:vector  ETV
vector 270120  Network.dyn_peer[10]  lookupHopsSig:vector  ETV
vector 270121  Network.dyn_peer[10]  lookupStabilitySig:vector  ETV
vector 270122  Network.dyn_peer[10]  lookupTimeSig:vector  ETV
vector 270204  Network.dyn_peer[38]  lookupHopsSig:vector  ETV
vector 270205  Network.dyn_peer[38]  lookupStabilitySig:vector  ETV
vector 270206  Network.dyn_peer[38]  lookupTimeSig:vector  ETV
vector 270090  Network.dyn_peer[0]  lookupHopsSig:vector  ETV
vector 270091  Network.dyn_peer[0]  lookupStabilitySig:vector  ETV
vector 270092  Network.dyn_peer[0]  lookupTimeSig:vector  ETV
vector 270192  Network.dyn_peer[34]  lookupHopsSig:vector  ETV
vector 270193  Network.dyn_peer[34]  lookupStabilitySig:vector  ETV
vector 270194  Network.dyn_peer[34]  lookupTimeSig:vector  ETV
vector 270153  Network.dyn_peer[21]  lookupHopsSig:vector  ETV
vector 270154  Network.dyn_peer[21]  lookupStabilitySig:vector  ETV
vector 270155  Network.dyn_peer[21]  lookupTimeSig:vector  ETV
vector 270174  Network.dyn_peer[28]  lookupHopsSig:vector  ETV
vector 270175  Network.dyn_peer[28]  lookupStabilitySig:vector  ETV
vector 270176  Network.dyn_peer[28]  lookupTimeSig:vector  ETV
vector 270141  Network.dyn_peer[17]  lookupHopsSig:vector  ETV
vector 270142  Network.dyn_peer[17]  lookupStabilitySig:vector  ETV
vector 270143  Network.dyn_peer[17]  lookupTimeSig:vector  ETV
270090	653	20.801	8
270090	755	21.001	1
270090	867	21.208097016582	1
270090	1019	21.510560810308	2
270090	1298	22.318382112449	7
270090	1370	22.721831210325	3
270090	1433	23.329611776275	5
270090	1449	23.529973596028	1
270090	1461	23.738279124403	1
270091	653	20.801	-0.33333337306976
270091	755	21.001	0.89999999850988
270091	867	21.208097016582	0.92857142537832
270091	1019	21.510560810308	0.89473684132099
270091	1298	22.318382112449	0.79411764442921
270091	1370	22.721831210325	0.91891892254353
270091	1433	23.329611776275	0.87804877758026
270091	1449	23.529973596028	0.97619047574699
270091	1461	23.738279124403	0.97674418613315
270092	653	20.801	0.8
270092	755	21.001	0.2
270092	867	21.208097016582	0.2
270092	1019	21.510560810308	0.3
270092	1298	22.318382112449	0.8
270092	1370	22.721831210325	0.4
270092	1433	23.329611776275	0.6
270092	1449	23.529973596028	0.2
270092	1461	23.738279124403	0.2
270093	311	20.302	3
270093	865	21.202	8
270093	1022	21.511029970783	2
270094	311	20.302	0.39999997615814
270094	865	21.202	0.42857140302658
270094	1022	21.511029970783	0.89473684132099
270095	311	20.302	0.3
270095	865	21.202	0.9
270095	1022	21.511029970783	0.3
270096	24	20.003	0
270096	324	20.312966508107	2
270096	769	21.018691963866	6
270096	883	21.220870588848	1
270097	24	20.003	1
270097	324	20.312966508107	0.59999999403954
270097	769	21.018691963866	0.5
270097	883	21.220870588848	0.92857142537832
270098	24	20.003	0
270098	324	20.312966508107	0.3
270098	769	21.018691963866	0.7
270098	883	21.220870588848	0.2
270099	166	20.104	1
270099	382	20.404	2
270099	538	20.611811087341	1
270099	659	20.812009772909	1
270100	166	20.104	0.79999999701977
270100	382	20.404	0.59999999403954
270100	538	20.611811087341	0.79999999701977
270100	659	20.812009772909	0.83333332836628
270101	166	20.104	0.1
270101	382	20.404	0.3
270101	538	20.611811087341	0.2
270101	659	20.812009772909	0.2
270102	387	20.405	4
270102	758	21.005	5
270103	387	20.405	0.19999998807907
270103	758	21.005	0.5
270104	387	20.405	0.4
270104	758	21.005	0.6
270105	250	20.206	2
270105	528	20.606	3
270105	709	20.915059741683	2
270105	1032	21.523974664414	5
270105	1186	21.926967281967	3
270106	250	20.206	0.59999999403954
270106	528	20.606	0.39999997615814
270106	709	20.915059741683	0.79999999701977
270106	1032	21.523974664414	0.75
270106	1186	21.926967281967	0.86956521868706
270107	250	20.206	0.2
270107	528	20.606	0.4
270107	709	20.915059741683	0.3
270107	1032	21.523974664414	0.6
270107	1186	21.926967281967	0.4
270108	41	20.007	0
270108	404	20.416766139655	3
270108	615	20.725152841966	2
270108	951	21.32931875551	5
270109	41	20.007	1
270109	404	20.416766139655	0.39999997615814
270109	615	20.725152841966	0.66666665673256
270109	951	21.32931875551	0.70588234066963
270110	41	20.007	0
270110	404	20.416766139655	0.4
270110	615	20.725152841966	0.3
270110	951	21.32931875551	0.6
270111	173	20.108	1
270111	472	20.514279919599	3
270111	669	20.820535349912	2
270112	173	20.108	0.79999999701977
270112	472	20.514279919599	0.39999997615814
270112	669	20.820535349912	0.71428570151329
270113	173	20.108	0.1
270113	472	20.514279919599	0.4
270113	669	20.820535349912	0.3
270114	178	20.109	1
270114	591	20.709	5
270114	765	21.017896517271	2
270114	1114	21.718776694163	4
270114	1279	22.222156720184	4
270114	1337	22.522639590631	2
270114	1387	22.832416601901	2
270114	1420	23.135599102315	2
270114	1451	23.538051756382	3
270115	178	20.109	0.79999999701977
270115	591	20.709	0.16666668653488
270115	765	21.017896517271	0.81818181276321
270115	1114	21.718776694163	0.80952380597591
270115	1279	22.222156720184	0.87878787517548
270115	1337	22.522639590631	0.94594594463706
270115	1387	22.832416601901	0.94594594463706
270115	1420	23.135599102315	0.94999999925494
270115	1451	23.538051756382	0.92857142537832
270116	178	20.109	0.1
270116	591	20.709	0.6
270116	765	21.017896517271	0.3
270116	1114	21.718776694163	0.5
270116	1279	22.222156720184	0.5
270116	1337	22.522639590631	0.3
270116	1387	22.832416601901	0.3
270116	1420	23.135599102315	0.3
270116	1451	23.538051756382	0.4
270117	183	20.11	1
270117	531	20.61	4
270117	782	21.025731535812	3
270117	983	21.428089956449	3
270117	1136	21.740304764246	2
270117	1238	22.059773457663	2
270118	183	20.11	0.79999999701977
270118	531	20.61	0.19999998807907
270118	782	21.025731535812	0.76923076808453
270118	983	21.428089956449	0.83333332836628
270118	1136	21.740304764246	0.91304347664118
270118	1238	22.059773457663	0.92592592537403
270119	183	20.11	0.1
270119	531	20.61	0.5
270119	782	21.025731535812	0.4
270119	983	21.428089956449	0.4
270119	1136	21.740304764246	0.3
270119	1238	22.059773457663	0.3
270120	536	20.611	6
270120	1151	21.811	11
270120	1242	22.111801317417	2
270120	1300	22.318819850647	1
270120	1381	22.827656261584	4
270120	1436	23.334049547636	4
270120	1463	23.740116695053	3
270121	536	20.611	-0.20000004768372
270121	1151	21.811	0.52173912525177
270121	1242	22.111801317417	0.92857142537832
270121	1300	22.318819850647	0.97058823518455
270121	1381	22.827656261584	0.89189188927412
270121	1436	23.334049547636	0.90243902802467
270121	1463	23.740116695053	0.93023255467415
270122	536	20.611	0.6
270122	1151	21.811	1.2
270122	1242	22.111801317417	0.3
270122	1300	22.318819850647	0.2
270122	1381	22.827656261584	0.5
270122	1436	23.334049547636	0.5
270122	1463	23.740116695053	0.4
270123	322	20.312	3
270123	1110	21.712	13
270123	1296	22.317866592398	5
270123	1355	22.627216555881	2
270123	1397	22.93214144933	2
270124	322	20.312	0.39999997615814
270124	1110	21.712	0.38095235824585
270124	1296	22.317866592398	0.85294117033482
270124	1355	22.627216555881	0.94594594463706
270124	1397	22.93214144933	0.9473684206605
270125	322	20.312	0.3
270125	1110	21.712	1.4
270125	1296	22.317866592398	0.6
270125	1355	22.627216555881	0.3
270125	1397	22.93214144933	0.3
270126	64	20.013	0
270126	596	20.713	6
270126	771	21.018933462513	2
270126	1072	21.625817285797	5
270126	1250	22.127608376815	4
270127	64	20.013	1
270127	596	20.713	0
270127	771	21.018933462513	0.83333332836628
270127	1072	21.625817285797	0.76190476119518
270127	1250	22.127608376815	0.85714285075665
270128	64	20.013	0
270128	596	20.713	0.7
270128	771	21.018933462513	0.3
270128	1072	21.625817285797	0.6
270128	1250	22.127608376815	0.5
270129	399	20.414	4
270129	828	21.122366950214	6
270129	977	21.424087150567	2
270129	1128	21.731706532807	2
270129	1286	22.235616231301	4
270130	399	20.414	0.19999998807907
270130	828	21.122366950214	0.53846153616905
270130	977	21.424087150567	0.88888888806105
270130	1128	21.731706532807	0.90476190298796
270130	1286	22.235616231301	0.87878787517548
270131	399	20.414	0.4
270131	828	21.122366950214	0.7
270131	977	21.424087150567	0.3
270131	1128	21.731706532807	0.3
270131	1286	22.235616231301	0.5
270132	194	20.115	1
270132	598	20.715	5
270132	875	21.217430321732	4
270132	1076	21.62684547501	3
270132	1160	21.828722905482	1
270132	1261	22.140407831224	2
270133	194	20.115	0.79999999701977
270133	598	20.715	0.16666668653488
270133	875	21.217430321732	0.71428570151329
270133	1076	21.62684547501	0.85714285075665
270133	1160	21.828722905482	0.95652173832059
270133	1261	22.140407831224	0.93103448301554
270134	194	20.115	0.1
270134	598	20.715	0.6
270134	875	21.217430321732	0.5
270134	1076	21.62684547501	0.4
270134	1160	21.828722905482	0.2
270134	1261	22.140407831224	0.3
270135	264	20.216	2
270135	545	20.616	3
270135	886	21.223571058226	5
270135	987	21.428976768113	1
270135	1091	21.636989909661	1
270135	1199	21.942513206397	2
270136	264	20.216	0.59999999403954
270136	545	20.616	0.39999997615814
270136	886	21.223571058226	0.64285713434219
270136	987	21.428976768113	0.94444444403052
270136	1091	21.636989909661	0.95238095149398
270136	1199	21.942513206397	0.91666666418314
270137	264	20.216	0.2
270137	545	20.616	0.4
270137	886	21.223571058226	0.6
270137	987	21.428976768113	0.2
270137	1091	21.636989909661	0.2
270137	1199	21.942513206397	0.3
270138	271	20.217	2
270138	873	21.217	9
270138	1074	21.626130687653	3
270138	1361	22.633381472407	9
270138	1410	23.046068137385	3
270138	1445	23.453315297902	3
270139	271	20.217	0.59999999403954
270139	873	21.217	0.35714286565781
270139	1074	21.626130687653	0.85714285075665
270139	1361	22.633381472407	0.75675675272942
270139	1410	23.046068137385	0.92499999701977
270139	1445	23.453315297902	0.92682927101851
270140	271	20.217	0.2
270140	873	21.217	1
270140	1074	21.626130687653	0.4
270140	1361	22.633381472407	1
270140	1410	23.046068137385	0.4
270140	1445	23.453315297902	0.4
270141	880	21.218	12
270141	1026	21.518	2
270141	1247	22.120892463766	5
270141	1306	22.328036245332	1
270142	880	21.218	0.14285713434219
270142	1026	21.518	0.89999999850988
270142	1247	22.120892463766	0.8214285671711
270142	1306	22.328036245332	0.97058823518455
270143	880	21.218	1.2
270143	1026	21.518	0.3
270143	1247	22.120892463766	0.6
270143	1306	22.328036245332	0.2
270144	89	20.019	0
270144	479	20.519	4
270144	896	21.228197602353	6
270144	1044	21.53255610798	2
270144	1266	22.144285113584	5
270145	89	20.019	1
270145	479	20.519	0.19999998807907
270145	896	21.228197602353	0.59999999403954
270145	1044	21.53255610798	0.90476190298796
270145	1266	22.144285113584	0.82758620381355
270146	89	20.019	0
270146	479	20.519	0.5
270146	896	21.228197602353	0.7
270146	1044	21.53255610798	0.3
270146	1266	22.144285113584	0.6
270147	205	20.12	1
270147	776	21.022744054209	8
270148	205	20.12	0.79999999701977
270148	776	21.022744054209	0.33333331346512
270149	205	20.12	0.1
270149	776	21.022744054209	0.9
270150	210	20.121	1
270150	482	20.521	3
270150	684	20.830583436751	2
270151	210	20.121	0.79999999701977
270151	482	20.521	0.39999997615814
270151	684	20.830583436751	0.75
270152	210	20.121	0.1
270152	482	20.521	0.4
270152	684	20.830583436751	0.3
270153	826	21.122	11
270153	1117	21.722	5
270153	1308	22.329829254698	5
270153	1384	22.83199595473	4
270154	826	21.122	0.15384614467621
270154	1117	21.722	0.76190476119518
270154	1308	22.329829254698	0.85714285075665
270154	1384	22.83199595473	0.89189188927412
270155	826	21.122	1.1
270155	1117	21.722	0.6
270155	1308	22.329829254698	0.6
270155	1384	22.83199595473	0.5
270156	345	20.323	3
270156	720	20.923	5
270156	985	21.428903792569	4
270156	1087	21.635311663931	1
270156	1264	22.142922683127	4
270157	345	20.323	0.39999997615814
270157	720	20.923	0.5
270157	985	21.428903792569	0.77777777612209
270157	1087	21.635311663931	0.95238095149398
270157	1264	22.142922683127	0.86206896603107
270158	345	20.323	0.3
270158	720	20.923	0.6
270158	985	21.428903792569	0.5
270158	1087	21.635311663931	0.2
270158	1264	22.142922683127	0.5
270159	283	20.224	2
270159	780	21.024	7
270159	1002	21.433436912892	3
270159	1131	21.733991487831	2
270160	283	20.224	0.59999999403954
270160	780	21.024	0.46153843402863
270160	1002	21.433436912892	0.84210526943207
270160	1131	21.733991487831	0.90476190298796
270161	283	20.224	0.2
270161	780	21.024	0.8
270161	1002	21.433436912892	0.4
270161	1131	21.733991487831	0.3
270162	420	20.425	4
270162	558	20.625	1
270163	420	20.425	0.19999998807907
270163	558	20.625	0.79999999701977
270164	420	20.425	0.4
270164	558	20.625	0.2
270165	426	20.426	4
270165	943	21.326	8
270165	1190	21.929417665453	5
270165	1325	22.432375527237	4
270166	426	20.426	0.19999998807907
270166	943	21.326	0.5294117629528
270166	1190	21.929417665453	0.78260870277882
270166	1325	22.432375527237	0.88571428507566
270167	426	20.426	0.4
270167	943	21.326	0.9
270167	1190	21.929417665453	0.6
270167	1325	22.432375527237	0.5
270168	431	20.427	4
270168	619	20.727	2
270168	1040	21.530520153658	7
270169	431	20.427	0.19999998807907
270169	619	20.727	0.66666665673256
270169	1040	21.530520153658	0.65000000596046
270170	431	20.427	0.4
270170	619	20.727	0.3
270170	1040	21.530520153658	0.8
270171	355	20.328	3
270171	623	20.728	3
270171	994	21.431594844967	6
270171	1126	21.731637215585	2
270172	355	20.328	0.39999997615814
270172	623	20.728	0.5
270172	994	21.431594844967	0.68421053886414
270172	1126	21.731637215585	0.90476190298796
270173	355	20.328	0.3
270173	623	20.728	0.4
270173	994	21.431594844967	0.7
270173	1126	21.731637215585	0.3
270174	841	21.129	11
270174	1253	22.129	9
270174	1344	22.538229875365	3
270174	1412	23.047576638949	4
270174	1456	23.55663543216	4
270175	841	21.129	0.15384614467621
270175	1253	22.129	0.6785714328289
270175	1344	22.538229875365	0.91891892254353
270175	1412	23.047576638949	0.89999999850988
270175	1456	23.55663543216	0.90476190298796
270176	841	21.129	1.1
270176	1253	22.129	1
270176	1344	22.538229875365	0.4
270176	1412	23.047576638949	0.5
270176	1456	23.55663543216	0.5
270177	502	20.53	5
270177	991	21.43	8
270178	502	20.53	0
270178	991	21.43	0.55555555224419
270179	502	20.53	0.5
270179	991	21.43	0.9
270180	439	20.431	4
270180	793	21.031	5
270180	905	21.231816915663	1
270180	1089	21.6363702971	3
270180	1202	21.943400506812	2
270181	439	20.431	0.19999998807907
270181	793	21.031	0.61538460850716
270181	905	21.231816915663	0.9333333298564
270181	1089	21.6363702971	0.85714285075665
270181	1202	21.943400506812	0.91666666418314
270182	439	20.431	0.4
270182	793	21.031	0.6
270182	905	21.231816915663	0.2
270182	1089	21.6363702971	0.4
270182	1202	21.943400506812	0.3
270183	135	20.032	0
270183	735	20.932	8
270183	920	21.245293420503	2
270184	135	20.032	1
270184	735	20.932	0.19999998807907
270184	920	21.245293420503	0.875
270185	135	20.032	0
270185	735	20.932	0.9
270185	920	21.245293420503	0.3
270186	229	20.133	1
270186	849	21.133	9
270186	1094	21.640835664509	4
270186	1233	22.048105739142	3
270186	1331	22.453921275121	3
270187	229	20.133	0.79999999701977
270187	849	21.133	0.30769228935242
270187	1094	21.640835664509	0.80952380597591
270187	1233	22.048105739142	0.88888888806105
270187	1331	22.453921275121	0.91666666418314
270188	229	20.133	0.1
270188	849	21.133	1
270188	1094	21.640835664509	0.5
270188	1233	22.048105739142	0.4
270188	1331	22.453921275121	0.4
270189	234	20.134	1
270189	910	21.234	10
270190	234	20.134	0.79999999701977
270190	910	21.234	0.33333331346512
270191	234	20.134	0.1
270191	910	21.234	1.1
270192	744	20.935	9
270192	853	21.135	1
270192	1006	21.435847489689	2
270192	1102	21.645315128413	1
270192	1271	22.148916467136	4
270193	744	20.935	0.10000002384186
270193	853	21.135	0.92307692021132
270193	1006	21.435847489689	0.89473684132099
270193	1102	21.645315128413	0.95238095149398
270193	1271	22.148916467136	0.875
270194	744	20.935	0.9
270194	853	21.135	0.2
270194	1006	21.435847489689	0.3
270194	1102	21.645315128413	0.2
270194	1271	22.148916467136	0.5
270195	451	20.436	4
270195	913	21.236	7
270195	1061	21.552060211689	2
270195	1215	21.961897363421	3
270195	1293	22.265783827915	2
270195	1351	22.574622686661	2
270195	1405	22.980619722623	3
270196	451	20.436	0.19999998807907
270196	913	21.236	0.5625
270196	1061	21.552060211689	0.90476190298796
270196	1215	21.961897363421	0.88888888806105
270196	1293	22.265783827915	0.9411764703691
270196	1351	22.574622686661	0.94594594463706
270196	1405	22.980619722623	0.92307692021132
270197	451	20.436	0.4
270197	913	21.236	0.8
270197	1061	21.552060211689	0.3
270197	1215	21.961897363421	0.4
270197	1293	22.265783827915	0.3
270197	1351	22.574622686661	0.3
270197	1405	22.980619722623	0.4
270198	375	20.337	3
270198	643	20.737	3
270198	862	21.146936317771	3
270199	375	20.337	0.39999997615814
270199	643	20.737	0.5
270199	862	21.146936317771	0.76923076808453
270200	375	20.337	0.3
270200	643	20.737	0.4
270200	862	21.146936317771	0.4
270201	303	20.238	2
270201	518	20.538	2
270201	699	20.841482622946	2
270202	303	20.238	0.59999999403954
270202	518	20.538	0.59999999403954
270202	699	20.841482622946	0.77777777612209
270203	303	20.238	0.2
270203	518	20.538	0.3
270203	699	20.841482622946	0.3
270204	583	20.639	6
270204	806	21.039	3
270204	925	21.247550990746	1
270204	1213	21.96163858361	6
270205	583	20.639	0
270205	806	21.039	0.76923076808453
270205	925	21.247550990746	0.9411764703691
270205	1213	21.96163858361	0.76923076808453
270206	583	20.639	0.6
270206	806	21.039	0.4
270206	925	21.247550990746	0.2
270206	1213	21.96163858361	0.7
270207	460	20.44	4
270207	1053	21.54	10
270207	1204	21.94428082206	3
270207	1315	22.353863126097	3
270207	1366	22.661279064108	2
270207	1425	23.165894790315	4
270208	460	20.44	0.19999998807907
270208	1053	21.54	0.52380952239037
270208	1204	21.94428082206	0.875
270208	1315	22.353863126097	0.9142857119441
270208	1366	22.661279064108	0.94594594463706
270208	1425	23.165894790315	0.89999999850988
270209	460	20.44	0.4
270209	1053	21.54	1.1
270209	1204	21.94428082206	0.4
270209	1315	22.353863126097	0.4
270209	1366	22.661279064108	0.3
270209	1425	23.165894790315	0.5
273090	11	20	0
273090	12	20.001	0
273090	15	20.002	1
273090	18	20.003	2
273090	26	20.004	3
273090	29	20.005	4
273090	32	20.006	5
273090	35	20.007	6
273090	42	20.008	7
273090	45	20.009	8
273090	48	20.01	9
273090	51	20.011	10
273090	54	20.012	11
273090	58	20.013	12
273090	65	20.014	13
273090	68	20.015	14
273090	71	20.016	15
273090	76	20.017	16
273090	80	20.018	17
273090	83	20.019	18
273090	90	20.02	19
273090	93	20.021	20
273090	96	20.022	21
273090	101	20.023	22
273090	104	20.024	23
273090	107	20.025	24
273090	110	20.026	25
273090	113	20.027	26
273090	116	20.028	27
273090	119	20.029	28
273090	122	20.03	29
273090	125	20.031	30
273090	129	20.032	31
273090	136	20.033	32
273090	139	20.034	33
273090	142	20.035	34
273090	145	20.036	35
273090	148	20.037	36
273090	151	20.038	37
273090	154	20.039	38
273090	157	20.04	39
