version 2
run Stability2-165-20130526-00:51:59-26640
attr configname Stability2
attr datetime 20130526-00:51:59
attr experiment Stability2
attr inifile omnetpp.ini
attr iterationvars $0=100
attr iterationvars2 "$0=100, $repetition=15"
attr measurement $0=100
attr network Network
attr processid 26640
attr repetition 15
attr replication #15
attr resultdir results
attr runnumber 165
attr seedset 165

vector 498165  Network.churner  inGoingSizeSig:vector  ETV
vector 495165  Network.dyn_peer[0]  lookupHopsSig:vector  ETV
vector 495166  Network.dyn_peer[0]  lookupStabilitySig:vector  ETV
vector 495167  Network.dyn_peer[0]  lookupTimeSig:vector  ETV
vector 495198  Network.dyn_peer[11]  lookupHopsSig:vector  ETV
vector 495199  Network.dyn_peer[11]  lookupStabilitySig:vector  ETV
vector 495200  Network.dyn_peer[11]  lookupTimeSig:vector  ETV
vector 495216  Network.dyn_peer[17]  lookupHopsSig:vector  ETV
vector 495217  Network.dyn_peer[17]  lookupStabilitySig:vector  ETV
vector 495218  Network.dyn_peer[17]  lookupTimeSig:vector  ETV
vector 495225  Network.dyn_peer[20]  lookupHopsSig:vector  ETV
vector 495226  Network.dyn_peer[20]  lookupStabilitySig:vector  ETV
vector 495227  Network.dyn_peer[20]  lookupTimeSig:vector  ETV
vector 495258  Network.dyn_peer[31]  lookupHopsSig:vector  ETV
vector 495259  Network.dyn_peer[31]  lookupStabilitySig:vector  ETV
vector 495260  Network.dyn_peer[31]  lookupTimeSig:vector  ETV
vector 495273  Network.dyn_peer[36]  lookupHopsSig:vector  ETV
vector 495274  Network.dyn_peer[36]  lookupStabilitySig:vector  ETV
vector 495275  Network.dyn_peer[36]  lookupTimeSig:vector  ETV
vector 495279  Network.dyn_peer[38]  lookupHopsSig:vector  ETV
vector 495280  Network.dyn_peer[38]  lookupStabilitySig:vector  ETV
vector 495281  Network.dyn_peer[38]  lookupTimeSig:vector  ETV
vector 495330  Network.dyn_peer[55]  lookupHopsSig:vector  ETV
vector 495331  Network.dyn_peer[55]  lookupStabilitySig:vector  ETV
vector 495332  Network.dyn_peer[55]  lookupTimeSig:vector  ETV
vector 495342  Network.dyn_peer[59]  lookupHopsSig:vector  ETV
vector 495343  Network.dyn_peer[59]  lookupStabilitySig:vector  ETV
vector 495344  Network.dyn_peer[59]  lookupTimeSig:vector  ETV
vector 495345  Network.dyn_peer[60]  lookupHopsSig:vector  ETV
vector 495346  Network.dyn_peer[60]  lookupStabilitySig:vector  ETV
vector 495347  Network.dyn_peer[60]  lookupTimeSig:vector  ETV
vector 495375  Network.dyn_peer[70]  lookupHopsSig:vector  ETV
vector 495376  Network.dyn_peer[70]  lookupStabilitySig:vector  ETV
vector 495377  Network.dyn_peer[70]  lookupTimeSig:vector  ETV
vector 495411  Network.dyn_peer[82]  lookupHopsSig:vector  ETV
vector 495412  Network.dyn_peer[82]  lookupStabilitySig:vector  ETV
vector 495413  Network.dyn_peer[82]  lookupTimeSig:vector  ETV
vector 495444  Network.dyn_peer[93]  lookupHopsSig:vector  ETV
vector 495445  Network.dyn_peer[93]  lookupStabilitySig:vector  ETV
vector 495446  Network.dyn_peer[93]  lookupTimeSig:vector  ETV
vector 495183  Network.dyn_peer[6]  lookupHopsSig:vector  ETV
vector 495184  Network.dyn_peer[6]  lookupStabilitySig:vector  ETV
vector 495185  Network.dyn_peer[6]  lookupTimeSig:vector  ETV
vector 495201  Network.dyn_peer[12]  lookupHopsSig:vector  ETV
vector 495202  Network.dyn_peer[12]  lookupStabilitySig:vector  ETV
vector 495203  Network.dyn_peer[12]  lookupTimeSig:vector  ETV
vector 495207  Network.dyn_peer[14]  lookupHopsSig:vector  ETV
vector 495208  Network.dyn_peer[14]  lookupStabilitySig:vector  ETV
vector 495209  Network.dyn_peer[14]  lookupTimeSig:vector  ETV
vector 495222  Network.dyn_peer[19]  lookupHopsSig:vector  ETV
vector 495223  Network.dyn_peer[19]  lookupStabilitySig:vector  ETV
vector 495224  Network.dyn_peer[19]  lookupTimeSig:vector  ETV
vector 495231  Network.dyn_peer[22]  lookupHopsSig:vector  ETV
vector 495232  Network.dyn_peer[22]  lookupStabilitySig:vector  ETV
vector 495233  Network.dyn_peer[22]  lookupTimeSig:vector  ETV
vector 495240  Network.dyn_peer[25]  lookupHopsSig:vector  ETV
vector 495241  Network.dyn_peer[25]  lookupStabilitySig:vector  ETV
vector 495242  Network.dyn_peer[25]  lookupTimeSig:vector  ETV
vector 495285  Network.dyn_peer[40]  lookupHopsSig:vector  ETV
vector 495286  Network.dyn_peer[40]  lookupStabilitySig:vector  ETV
vector 495287  Network.dyn_peer[40]  lookupTimeSig:vector  ETV
vector 495318  Network.dyn_peer[51]  lookupHopsSig:vector  ETV
vector 495319  Network.dyn_peer[51]  lookupStabilitySig:vector  ETV
vector 495320  Network.dyn_peer[51]  lookupTimeSig:vector  ETV
vector 495321  Network.dyn_peer[52]  lookupHopsSig:vector  ETV
vector 495322  Network.dyn_peer[52]  lookupStabilitySig:vector  ETV
vector 495323  Network.dyn_peer[52]  lookupTimeSig:vector  ETV
vector 495357  Network.dyn_peer[64]  lookupHopsSig:vector  ETV
vector 495358  Network.dyn_peer[64]  lookupStabilitySig:vector  ETV
vector 495359  Network.dyn_peer[64]  lookupTimeSig:vector  ETV
vector 495378  Network.dyn_peer[71]  lookupHopsSig:vector  ETV
vector 495379  Network.dyn_peer[71]  lookupStabilitySig:vector  ETV
vector 495380  Network.dyn_peer[71]  lookupTimeSig:vector  ETV
vector 495387  Network.dyn_peer[74]  lookupHopsSig:vector  ETV
vector 495388  Network.dyn_peer[74]  lookupStabilitySig:vector  ETV
vector 495389  Network.dyn_peer[74]  lookupTimeSig:vector  ETV
vector 495420  Network.dyn_peer[85]  lookupHopsSig:vector  ETV
vector 495421  Network.dyn_peer[85]  lookupStabilitySig:vector  ETV
vector 495422  Network.dyn_peer[85]  lookupTimeSig:vector  ETV
vector 495453  Network.dyn_peer[96]  lookupHopsSig:vector  ETV
vector 495454  Network.dyn_peer[96]  lookupStabilitySig:vector  ETV
vector 495455  Network.dyn_peer[96]  lookupTimeSig:vector  ETV
vector 495171  Network.dyn_peer[2]  lookupHopsSig:vector  ETV
vector 495172  Network.dyn_peer[2]  lookupStabilitySig:vector  ETV
vector 495173  Network.dyn_peer[2]  lookupTimeSig:vector  ETV
vector 495213  Network.dyn_peer[16]  lookupHopsSig:vector  ETV
vector 495214  Network.dyn_peer[16]  lookupStabilitySig:vector  ETV
vector 495215  Network.dyn_peer[16]  lookupTimeSig:vector  ETV
vector 495252  Network.dyn_peer[29]  lookupHopsSig:vector  ETV
vector 495253  Network.dyn_peer[29]  lookupStabilitySig:vector  ETV
vector 495254  Network.dyn_peer[29]  lookupTimeSig:vector  ETV
vector 495282  Network.dyn_peer[39]  lookupHopsSig:vector  ETV
vector 495283  Network.dyn_peer[39]  lookupStabilitySig:vector  ETV
vector 495284  Network.dyn_peer[39]  lookupTimeSig:vector  ETV
vector 495327  Network.dyn_peer[54]  lookupHopsSig:vector  ETV
vector 495328  Network.dyn_peer[54]  lookupStabilitySig:vector  ETV
vector 495329  Network.dyn_peer[54]  lookupTimeSig:vector  ETV
vector 495336  Network.dyn_peer[57]  lookupHopsSig:vector  ETV
vector 495337  Network.dyn_peer[57]  lookupStabilitySig:vector  ETV
vector 495338  Network.dyn_peer[57]  lookupTimeSig:vector  ETV
vector 495339  Network.dyn_peer[58]  lookupHopsSig:vector  ETV
vector 495340  Network.dyn_peer[58]  lookupStabilitySig:vector  ETV
vector 495341  Network.dyn_peer[58]  lookupTimeSig:vector  ETV
vector 495354  Network.dyn_peer[63]  lookupHopsSig:vector  ETV
vector 495355  Network.dyn_peer[63]  lookupStabilitySig:vector  ETV
vector 495356  Network.dyn_peer[63]  lookupTimeSig:vector  ETV
vector 495372  Network.dyn_peer[69]  lookupHopsSig:vector  ETV
vector 495373  Network.dyn_peer[69]  lookupStabilitySig:vector  ETV
vector 495374  Network.dyn_peer[69]  lookupTimeSig:vector  ETV
vector 495381  Network.dyn_peer[72]  lookupHopsSig:vector  ETV
vector 495382  Network.dyn_peer[72]  lookupStabilitySig:vector  ETV
vector 495383  Network.dyn_peer[72]  lookupTimeSig:vector  ETV
vector 495393  Network.dyn_peer[76]  lookupHopsSig:vector  ETV
vector 495394  Network.dyn_peer[76]  lookupStabilitySig:vector  ETV
vector 495395  Network.dyn_peer[76]  lookupTimeSig:vector  ETV
vector 495396  Network.dyn_peer[77]  lookupHopsSig:vector  ETV
vector 495397  Network.dyn_peer[77]  lookupStabilitySig:vector  ETV
vector 495398  Network.dyn_peer[77]  lookupTimeSig:vector  ETV
vector 495417  Network.dyn_peer[84]  lookupHopsSig:vector  ETV
vector 495418  Network.dyn_peer[84]  lookupStabilitySig:vector  ETV
vector 495419  Network.dyn_peer[84]  lookupTimeSig:vector  ETV
vector 495174  Network.dyn_peer[3]  lookupHopsSig:vector  ETV
vector 495175  Network.dyn_peer[3]  lookupStabilitySig:vector  ETV
vector 495176  Network.dyn_peer[3]  lookupTimeSig:vector  ETV
vector 495186  Network.dyn_peer[7]  lookupHopsSig:vector  ETV
vector 495187  Network.dyn_peer[7]  lookupStabilitySig:vector  ETV
vector 495188  Network.dyn_peer[7]  lookupTimeSig:vector  ETV
vector 495192  Network.dyn_peer[9]  lookupHopsSig:vector  ETV
vector 495193  Network.dyn_peer[9]  lookupStabilitySig:vector  ETV
vector 495194  Network.dyn_peer[9]  lookupTimeSig:vector  ETV
vector 495195  Network.dyn_peer[10]  lookupHopsSig:vector  ETV
vector 495196  Network.dyn_peer[10]  lookupStabilitySig:vector  ETV
vector 495197  Network.dyn_peer[10]  lookupTimeSig:vector  ETV
vector 495210  Network.dyn_peer[15]  lookupHopsSig:vector  ETV
vector 495211  Network.dyn_peer[15]  lookupStabilitySig:vector  ETV
vector 495212  Network.dyn_peer[15]  lookupTimeSig:vector  ETV
vector 495234  Network.dyn_peer[23]  lookupHopsSig:vector  ETV
vector 495235  Network.dyn_peer[23]  lookupStabilitySig:vector  ETV
vector 495236  Network.dyn_peer[23]  lookupTimeSig:vector  ETV
vector 495246  Network.dyn_peer[27]  lookupHopsSig:vector  ETV
vector 495247  Network.dyn_peer[27]  lookupStabilitySig:vector  ETV
vector 495248  Network.dyn_peer[27]  lookupTimeSig:vector  ETV
vector 495261  Network.dyn_peer[32]  lookupHopsSig:vector  ETV
vector 495262  Network.dyn_peer[32]  lookupStabilitySig:vector  ETV
vector 495263  Network.dyn_peer[32]  lookupTimeSig:vector  ETV
vector 495267  Network.dyn_peer[34]  lookupHopsSig:vector  ETV
vector 495268  Network.dyn_peer[34]  lookupStabilitySig:vector  ETV
vector 495269  Network.dyn_peer[34]  lookupTimeSig:vector  ETV
vector 495270  Network.dyn_peer[35]  lookupHopsSig:vector  ETV
vector 495271  Network.dyn_peer[35]  lookupStabilitySig:vector  ETV
vector 495272  Network.dyn_peer[35]  lookupTimeSig:vector  ETV
vector 495288  Network.dyn_peer[41]  lookupHopsSig:vector  ETV
vector 495289  Network.dyn_peer[41]  lookupStabilitySig:vector  ETV
vector 495290  Network.dyn_peer[41]  lookupTimeSig:vector  ETV
vector 495300  Network.dyn_peer[45]  lookupHopsSig:vector  ETV
vector 495301  Network.dyn_peer[45]  lookupStabilitySig:vector  ETV
vector 495302  Network.dyn_peer[45]  lookupTimeSig:vector  ETV
vector 495312  Network.dyn_peer[49]  lookupHopsSig:vector  ETV
vector 495313  Network.dyn_peer[49]  lookupStabilitySig:vector  ETV
vector 495314  Network.dyn_peer[49]  lookupTimeSig:vector  ETV
vector 495441  Network.dyn_peer[92]  lookupHopsSig:vector  ETV
vector 495442  Network.dyn_peer[92]  lookupStabilitySig:vector  ETV
vector 495443  Network.dyn_peer[92]  lookupTimeSig:vector  ETV
vector 495462  Network.dyn_peer[99]  lookupHopsSig:vector  ETV
vector 495463  Network.dyn_peer[99]  lookupStabilitySig:vector  ETV
vector 495464  Network.dyn_peer[99]  lookupTimeSig:vector  ETV
vector 495243  Network.dyn_peer[26]  lookupHopsSig:vector  ETV
vector 495244  Network.dyn_peer[26]  lookupStabilitySig:vector  ETV
vector 495245  Network.dyn_peer[26]  lookupTimeSig:vector  ETV
vector 495255  Network.dyn_peer[30]  lookupHopsSig:vector  ETV
vector 495256  Network.dyn_peer[30]  lookupStabilitySig:vector  ETV
vector 495257  Network.dyn_peer[30]  lookupTimeSig:vector  ETV
vector 495291  Network.dyn_peer[42]  lookupHopsSig:vector  ETV
vector 495292  Network.dyn_peer[42]  lookupStabilitySig:vector  ETV
vector 495293  Network.dyn_peer[42]  lookupTimeSig:vector  ETV
vector 495303  Network.dyn_peer[46]  lookupHopsSig:vector  ETV
vector 495304  Network.dyn_peer[46]  lookupStabilitySig:vector  ETV
vector 495305  Network.dyn_peer[46]  lookupTimeSig:vector  ETV
vector 495306  Network.dyn_peer[47]  lookupHopsSig:vector  ETV
vector 495307  Network.dyn_peer[47]  lookupStabilitySig:vector  ETV
vector 495308  Network.dyn_peer[47]  lookupTimeSig:vector  ETV
vector 495363  Network.dyn_peer[66]  lookupHopsSig:vector  ETV
vector 495364  Network.dyn_peer[66]  lookupStabilitySig:vector  ETV
vector 495365  Network.dyn_peer[66]  lookupTimeSig:vector  ETV
vector 495423  Network.dyn_peer[86]  lookupHopsSig:vector  ETV
vector 495424  Network.dyn_peer[86]  lookupStabilitySig:vector  ETV
vector 495425  Network.dyn_peer[86]  lookupTimeSig:vector  ETV
vector 495435  Network.dyn_peer[90]  lookupHopsSig:vector  ETV
vector 495436  Network.dyn_peer[90]  lookupStabilitySig:vector  ETV
vector 495437  Network.dyn_peer[90]  lookupTimeSig:vector  ETV
vector 495438  Network.dyn_peer[91]  lookupHopsSig:vector  ETV
vector 495439  Network.dyn_peer[91]  lookupStabilitySig:vector  ETV
vector 495440  Network.dyn_peer[91]  lookupTimeSig:vector  ETV
vector 495177  Network.dyn_peer[4]  lookupHopsSig:vector  ETV
vector 495178  Network.dyn_peer[4]  lookupStabilitySig:vector  ETV
vector 495179  Network.dyn_peer[4]  lookupTimeSig:vector  ETV
vector 495297  Network.dyn_peer[44]  lookupHopsSig:vector  ETV
vector 495298  Network.dyn_peer[44]  lookupStabilitySig:vector  ETV
vector 495299  Network.dyn_peer[44]  lookupTimeSig:vector  ETV
vector 495360  Network.dyn_peer[65]  lookupHopsSig:vector  ETV
vector 495361  Network.dyn_peer[65]  lookupStabilitySig:vector  ETV
vector 495362  Network.dyn_peer[65]  lookupTimeSig:vector  ETV
vector 495429  Network.dyn_peer[88]  lookupHopsSig:vector  ETV
vector 495430  Network.dyn_peer[88]  lookupStabilitySig:vector  ETV
vector 495431  Network.dyn_peer[88]  lookupTimeSig:vector  ETV
vector 495168  Network.dyn_peer[1]  lookupHopsSig:vector  ETV
vector 495169  Network.dyn_peer[1]  lookupStabilitySig:vector  ETV
vector 495170  Network.dyn_peer[1]  lookupTimeSig:vector  ETV
vector 495180  Network.dyn_peer[5]  lookupHopsSig:vector  ETV
vector 495181  Network.dyn_peer[5]  lookupStabilitySig:vector  ETV
vector 495182  Network.dyn_peer[5]  lookupTimeSig:vector  ETV
vector 495276  Network.dyn_peer[37]  lookupHopsSig:vector  ETV
vector 495277  Network.dyn_peer[37]  lookupStabilitySig:vector  ETV
vector 495278  Network.dyn_peer[37]  lookupTimeSig:vector  ETV
vector 495348  Network.dyn_peer[61]  lookupHopsSig:vector  ETV
vector 495349  Network.dyn_peer[61]  lookupStabilitySig:vector  ETV
vector 495350  Network.dyn_peer[61]  lookupTimeSig:vector  ETV
vector 495237  Network.dyn_peer[24]  lookupHopsSig:vector  ETV
vector 495238  Network.dyn_peer[24]  lookupStabilitySig:vector  ETV
vector 495239  Network.dyn_peer[24]  lookupTimeSig:vector  ETV
vector 495333  Network.dyn_peer[56]  lookupHopsSig:vector  ETV
vector 495334  Network.dyn_peer[56]  lookupStabilitySig:vector  ETV
vector 495335  Network.dyn_peer[56]  lookupTimeSig:vector  ETV
vector 495366  Network.dyn_peer[67]  lookupHopsSig:vector  ETV
vector 495367  Network.dyn_peer[67]  lookupStabilitySig:vector  ETV
vector 495368  Network.dyn_peer[67]  lookupTimeSig:vector  ETV
vector 495399  Network.dyn_peer[78]  lookupHopsSig:vector  ETV
vector 495400  Network.dyn_peer[78]  lookupStabilitySig:vector  ETV
vector 495401  Network.dyn_peer[78]  lookupTimeSig:vector  ETV
vector 495402  Network.dyn_peer[79]  lookupHopsSig:vector  ETV
vector 495403  Network.dyn_peer[79]  lookupStabilitySig:vector  ETV
vector 495404  Network.dyn_peer[79]  lookupTimeSig:vector  ETV
vector 495414  Network.dyn_peer[83]  lookupHopsSig:vector  ETV
vector 495415  Network.dyn_peer[83]  lookupStabilitySig:vector  ETV
vector 495416  Network.dyn_peer[83]  lookupTimeSig:vector  ETV
vector 495447  Network.dyn_peer[94]  lookupHopsSig:vector  ETV
vector 495448  Network.dyn_peer[94]  lookupStabilitySig:vector  ETV
vector 495449  Network.dyn_peer[94]  lookupTimeSig:vector  ETV
vector 495189  Network.dyn_peer[8]  lookupHopsSig:vector  ETV
vector 495190  Network.dyn_peer[8]  lookupStabilitySig:vector  ETV
vector 495191  Network.dyn_peer[8]  lookupTimeSig:vector  ETV
vector 495264  Network.dyn_peer[33]  lookupHopsSig:vector  ETV
vector 495265  Network.dyn_peer[33]  lookupStabilitySig:vector  ETV
vector 495266  Network.dyn_peer[33]  lookupTimeSig:vector  ETV
vector 495294  Network.dyn_peer[43]  lookupHopsSig:vector  ETV
vector 495295  Network.dyn_peer[43]  lookupStabilitySig:vector  ETV
vector 495296  Network.dyn_peer[43]  lookupTimeSig:vector  ETV
vector 495405  Network.dyn_peer[80]  lookupHopsSig:vector  ETV
vector 495406  Network.dyn_peer[80]  lookupStabilitySig:vector  ETV
vector 495407  Network.dyn_peer[80]  lookupTimeSig:vector  ETV
vector 495426  Network.dyn_peer[87]  lookupHopsSig:vector  ETV
vector 495427  Network.dyn_peer[87]  lookupStabilitySig:vector  ETV
vector 495428  Network.dyn_peer[87]  lookupTimeSig:vector  ETV
vector 495204  Network.dyn_peer[13]  lookupHopsSig:vector  ETV
vector 495205  Network.dyn_peer[13]  lookupStabilitySig:vector  ETV
vector 495206  Network.dyn_peer[13]  lookupTimeSig:vector  ETV
vector 495228  Network.dyn_peer[21]  lookupHopsSig:vector  ETV
vector 495229  Network.dyn_peer[21]  lookupStabilitySig:vector  ETV
vector 495230  Network.dyn_peer[21]  lookupTimeSig:vector  ETV
vector 495351  Network.dyn_peer[62]  lookupHopsSig:vector  ETV
vector 495352  Network.dyn_peer[62]  lookupStabilitySig:vector  ETV
vector 495353  Network.dyn_peer[62]  lookupTimeSig:vector  ETV
vector 495309  Network.dyn_peer[48]  lookupHopsSig:vector  ETV
vector 495310  Network.dyn_peer[48]  lookupStabilitySig:vector  ETV
vector 495311  Network.dyn_peer[48]  lookupTimeSig:vector  ETV
vector 495315  Network.dyn_peer[50]  lookupHopsSig:vector  ETV
vector 495316  Network.dyn_peer[50]  lookupStabilitySig:vector  ETV
vector 495317  Network.dyn_peer[50]  lookupTimeSig:vector  ETV
vector 495324  Network.dyn_peer[53]  lookupHopsSig:vector  ETV
vector 495325  Network.dyn_peer[53]  lookupStabilitySig:vector  ETV
vector 495326  Network.dyn_peer[53]  lookupTimeSig:vector  ETV
vector 495369  Network.dyn_peer[68]  lookupHopsSig:vector  ETV
vector 495370  Network.dyn_peer[68]  lookupStabilitySig:vector  ETV
vector 495371  Network.dyn_peer[68]  lookupTimeSig:vector  ETV
vector 495384  Network.dyn_peer[73]  lookupHopsSig:vector  ETV
vector 495385  Network.dyn_peer[73]  lookupStabilitySig:vector  ETV
vector 495386  Network.dyn_peer[73]  lookupTimeSig:vector  ETV
vector 495219  Network.dyn_peer[18]  lookupHopsSig:vector  ETV
vector 495220  Network.dyn_peer[18]  lookupStabilitySig:vector  ETV
vector 495221  Network.dyn_peer[18]  lookupTimeSig:vector  ETV
vector 495249  Network.dyn_peer[28]  lookupHopsSig:vector  ETV
vector 495250  Network.dyn_peer[28]  lookupStabilitySig:vector  ETV
vector 495251  Network.dyn_peer[28]  lookupTimeSig:vector  ETV
vector 495450  Network.dyn_peer[95]  lookupHopsSig:vector  ETV
vector 495451  Network.dyn_peer[95]  lookupStabilitySig:vector  ETV
vector 495452  Network.dyn_peer[95]  lookupTimeSig:vector  ETV
vector 495390  Network.dyn_peer[75]  lookupHopsSig:vector  ETV
vector 495391  Network.dyn_peer[75]  lookupStabilitySig:vector  ETV
vector 495392  Network.dyn_peer[75]  lookupTimeSig:vector  ETV
vector 495456  Network.dyn_peer[97]  lookupHopsSig:vector  ETV
vector 495457  Network.dyn_peer[97]  lookupStabilitySig:vector  ETV
vector 495458  Network.dyn_peer[97]  lookupTimeSig:vector  ETV
vector 495432  Network.dyn_peer[89]  lookupHopsSig:vector  ETV
vector 495433  Network.dyn_peer[89]  lookupStabilitySig:vector  ETV
vector 495434  Network.dyn_peer[89]  lookupTimeSig:vector  ETV
vector 495408  Network.dyn_peer[81]  lookupHopsSig:vector  ETV
vector 495409  Network.dyn_peer[81]  lookupStabilitySig:vector  ETV
vector 495410  Network.dyn_peer[81]  lookupTimeSig:vector  ETV
vector 495459  Network.dyn_peer[98]  lookupHopsSig:vector  ETV
vector 495460  Network.dyn_peer[98]  lookupStabilitySig:vector  ETV
vector 495461  Network.dyn_peer[98]  lookupTimeSig:vector  ETV
495165	17	20.001	0
495165	1266	20.701	6
495165	1952	21.201750422191	4
495166	17	20.001	1
495166	1266	20.701	-0.20000004768372
495166	1952	21.201750422191	0.55555555224419
495167	17	20.001	0
495167	1266	20.701	0.7
495167	1952	21.201750422191	0.5
495168	1139	20.602	6
495168	1679	21.002	3
495168	2669	21.808089866575	7
495169	1139	20.602	-0.20000004768372
495169	1679	21.002	0.5714285671711
495169	2669	21.808089866575	0.71999999880791
495170	1139	20.602	0.6
495170	1679	21.002	0.4
495170	2669	21.808089866575	0.8
495171	533	20.203	2
495171	1549	20.903	6
495171	2439	21.610266552548	6
495172	533	20.203	0.59999999403954
495172	1549	20.903	0.14285713434219
495172	2439	21.610266552548	0.68421053886414
495173	533	20.203	0.2
495173	1549	20.903	0.7
495173	2439	21.610266552548	0.7
495174	698	20.304	3
495174	2547	21.704	13
495175	698	20.304	0.39999997615814
495175	2547	21.704	0.35000002384186
495176	698	20.304	0.3
495176	2547	21.704	1.4
495177	1020	20.505	5
495177	1821	21.105	5
495177	2977	22.111714861639	9
495178	1020	20.505	0
495178	1821	21.105	0.375
495178	2977	22.111714861639	0.75675675272942
495179	1020	20.505	0.5
495179	1821	21.105	0.6
495179	2977	22.111714861639	1
495180	1149	20.606	6
495180	2434	21.606	9
495180	3547	22.815142344396	11
495180	3678	23.019464905775	1
495181	1149	20.606	-0.20000004768372
495181	2434	21.606	0.52631577849388
495181	3547	22.815142344396	0.82539682090282
495181	3678	23.019464905775	0.98507462721318
495182	1149	20.606	0.6
495182	2434	21.606	1
495182	3547	22.815142344396	1.2
495182	3678	23.019464905775	0.2
495183	376	20.107	1
495183	3333	22.507	23
495184	376	20.107	0.79999999701977
495184	3333	22.507	0.58181819319725
495185	376	20.107	0.1
495185	3333	22.507	2.4
495186	706	20.308	3
495186	2210	21.408	10
495186	3068	22.217906221316	7
495186	3261	22.418268793182	1
495186	3736	23.128001660291	6
495186	3964	23.636335525292	4
495186	4194	24.338339061558	6
495186	4299	24.742177926891	3
495187	706	20.308	0.39999997615814
495187	2210	21.408	0.33333331346512
495187	3068	22.217906221316	0.8292682915926
495187	3261	22.418268793182	0.98076923005283
495187	3736	23.128001660291	0.9142857119441
495187	3964	23.636335525292	0.94999999925494
495187	4194	24.338339061558	0.92941176146269
495187	4299	24.742177926891	0.96551724150777
495188	706	20.308	0.3
495188	2210	21.408	1.1
495188	3068	22.217906221316	0.8
495188	3261	22.418268793182	0.2
495188	3736	23.128001660291	0.7
495188	3964	23.636335525292	0.5
495188	4194	24.338339061558	0.7
495188	4299	24.742177926891	0.4
495189	1420	20.809	8
495189	1961	21.209	3
495189	2554	21.712657004009	4
495189	3070	22.217967912672	4
495190	1420	20.809	-0.33333337306976
495190	1961	21.209	0.69999998807907
495190	2554	21.712657004009	0.80952380597591
495190	3070	22.217967912672	0.90243902802467
495191	1420	20.809	0.8
495191	1961	21.209	0.4
495191	2554	21.712657004009	0.5
495191	3070	22.217967912672	0.5
495192	712	20.31	3
495192	1828	21.11	7
495192	3413	22.616233729282	14
495193	712	20.31	0.39999997615814
495193	1828	21.11	0.125
495193	3413	22.616233729282	0.75862069427967
495194	712	20.31	0.3
495194	1828	21.11	0.8
495194	3413	22.616233729282	1.5
495195	717	20.311	3
495195	1964	21.211	8
495195	2219	21.415378675075	1
495195	2779	21.921243109477	4
495196	717	20.311	0.39999997615814
495196	1964	21.211	0.19999998807907
495196	2219	21.415378675075	0.9333333298564
495196	2779	21.921243109477	0.86206896603107
495197	717	20.311	0.3
495197	1964	21.211	0.9
495197	2219	21.415378675075	0.2
495197	2779	21.921243109477	0.5
495198	54	20.012	0
495198	1157	20.612	5
495198	1702	21.021119372502	3
495198	1982	21.228818291155	1
495199	54	20.012	1
495199	1157	20.612	0
495199	1702	21.021119372502	0.625
495199	1982	21.228818291155	0.89999999850988
495200	54	20.012	0
495200	1157	20.612	0.6
495200	1702	21.021119372502	0.4
495200	1982	21.228818291155	0.2
495201	386	20.113	1
495201	720	20.313	1
495201	1283	20.715922416229	3
495201	2890	22.023421401839	12
495202	386	20.113	0.79999999701977
495202	720	20.313	0.79999999701977
495202	1283	20.715922416229	0.39999997615814
495202	2890	22.023421401839	0.64705881476402
495203	386	20.113	0.1
495203	720	20.313	0.2
495203	1283	20.715922416229	0.4
495203	2890	22.023421401839	1.3
495204	1565	20.914	9
495204	3063	22.214	12
495204	3338	22.516790250037	2
495204	3997	23.717753819781	11
495204	4362	25.024905854474	12
495204	4520	26.027295823408	9
495204	4558	26.633451650057	5
495205	1565	20.914	-0.28571426868439
495205	3063	22.214	0.70731708407402
495205	3338	22.516790250037	0.96428571268916
495205	3997	23.717753819781	0.86419753730297
495205	4362	25.024905854474	0.86956521868706
495205	4520	26.027295823408	0.90909090638161
495205	4558	26.633451650057	0.95098039135337
495206	1565	20.914	0.9
495206	3063	22.214	1.3
495206	3338	22.516790250037	0.3
495206	3997	23.717753819781	1.2
495206	4362	25.024905854474	1.3
495206	4520	26.027295823408	1
495206	4558	26.633451650057	0.6
495207	392	20.115	1
495207	1834	21.115	9
495208	392	20.115	0.79999999701977
495208	1834	21.115	-0.125
495209	392	20.115	0.1
495209	1834	21.115	1
495210	729	20.316	3
495210	1837	21.116	7
495210	2570	21.725367614428	5
495210	3091	22.237337428445	4
495210	3352	22.539405829652	2
495210	3634	22.948634753596	3
495211	729	20.316	0.39999997615814
495211	1837	21.116	0.22222220897675
495211	2570	21.725367614428	0.76190476119518
495211	3091	22.237337428445	0.90476190298796
495211	3352	22.539405829652	0.96428571268916
495211	3634	22.948634753596	0.9545454531908
495212	729	20.316	0.3
495212	1837	21.116	0.8
495212	2570	21.725367614428	0.6
495212	3091	22.237337428445	0.5
495212	3352	22.539405829652	0.3
495212	3634	22.948634753596	0.4
495213	552	20.217	2
495213	1428	20.817	5
495213	1987	21.230118990777	3
495213	3488	22.738688808184	14
495214	552	20.217	0.59999999403954
495214	1428	20.817	0.16666668653488
495214	1987	21.230118990777	0.69999998807907
495214	3488	22.738688808184	0.77049180865288
495215	552	20.217	0.2
495215	1428	20.817	0.6
495215	1987	21.230118990777	0.4
495215	3488	22.738688808184	1.5
495216	76	20.018	0
495216	883	20.418	3
495216	1438	20.823970546074	3
495216	3113	22.257037699514	11
495216	3575	22.865925058571	5
495216	3706	23.070482628501	1
495217	76	20.018	1
495217	883	20.418	0.39999997615814
495217	1438	20.823970546074	0.5
495217	3113	22.257037699514	0.74418604373932
495217	3575	22.865925058571	0.92063491791487
495217	3706	23.070482628501	0.98571428563446
495218	76	20.018	0
495218	883	20.418	0.4
495218	1438	20.823970546074	0.4
495218	3113	22.257037699514	1.2
495218	3575	22.865925058571	0.6
495218	3706	23.070482628501	0.2
495219	1843	21.119	11
495219	3263	22.419	12
495219	3915	23.520450499044	10
495219	4038	23.82582490636	2
495219	4192	24.335535626713	4
495219	4342	24.939360482484	5
495219	4437	25.443253133702	4
495219	4482	25.748457383094	2
495219	4526	26.048815775322	2
495220	1843	21.119	-0.22222220897675
495220	3263	22.419	0.76923076808453
495220	3915	23.520450499044	0.87012986838818
495220	4038	23.82582490636	0.97530864179134
495220	4192	24.335535626713	0.95294117555022
495220	4342	24.939360482484	0.94444444403052
495220	4437	25.443253133702	0.95744680985808
495220	4482	25.748457383094	0.97894736751914
495220	4526	26.048815775322	0.97979797981679
495221	1843	21.119	1.1
495221	3263	22.419	1.3
495221	3915	23.520450499044	1.1
495221	4038	23.82582490636	0.3
495221	4192	24.335535626713	0.5
495221	4342	24.939360482484	0.6
495221	4437	25.443253133702	0.5
495221	4482	25.748457383094	0.3
495221	4526	26.048815775322	0.3
495222	402	20.12	1
495222	2224	21.42	12
495222	3079	22.224199463783	7
495222	3618	22.924556615492	6
495222	3790	23.230371673425	2
495223	402	20.12	0.79999999701977
495223	2224	21.42	0.19999998807907
495223	3079	22.224199463783	0.83333332836628
495223	3618	22.924556615492	0.90769230574369
495223	3790	23.230371673425	0.97260273993015
495224	402	20.12	0.1
495224	2224	21.42	1.3
495224	3079	22.224199463783	0.8
495224	3618	22.924556615492	0.7
495224	3790	23.230371673425	0.3
495225	89	20.021	0
495225	1846	21.121	10
495225	3171	22.321765430356	11
495225	3417	22.623369849639	2
495225	3788	23.228844011049	5
495226	89	20.021	1
495226	1846	21.121	-0.11111116409302
495226	3171	22.321765430356	0.76595744490623
495226	3417	22.623369849639	0.96610169485211
495226	3788	23.228844011049	0.93055555224419
495227	89	20.021	0
495227	1846	21.121	1.1
495227	3171	22.321765430356	1.2
495227	3417	22.623369849639	0.3
495227	3788	23.228844011049	0.6
495228	1577	20.922	9
495228	3266	22.422	14
495228	3557	22.829598633687	3
495228	4004	23.739013896035	8
495228	4222	24.445284470536	6
495228	4368	25.050444572614	5
495228	4469	25.66023739817	5
495228	4513	25.968248015785	2
495228	4564	26.671530862979	6
495228	4576	27.673670453873	9
495228	4584	28.280552738964	5
495229	1577	20.922	-0.28571426868439
495229	3266	22.422	0.73076921701431
495229	3557	22.829598633687	0.95238095149398
495229	4004	23.739013896035	0.90123456716537
495229	4222	24.445284470536	0.92941176146269
495229	4368	25.050444572614	0.9456521756947
495229	4469	25.66023739817	0.94680850952864
495229	4513	25.968248015785	0.97959183715284
495229	4564	26.671530862979	0.94230769202113
495229	4576	27.673670453873	0.91346153616905
495229	4584	28.280552738964	0.95192307606339
495230	1577	20.922	0.9
495230	3266	22.422	1.5
495230	3557	22.829598633687	0.4
495230	4004	23.739013896035	0.9
495230	4222	24.445284470536	0.7
495230	4368	25.050444572614	0.6
495230	4469	25.66023739817	0.6
495230	4513	25.968248015785	0.3
495230	4564	26.671530862979	0.7
495230	4576	27.673670453873	1
495230	4584	28.280552738964	0.6
495231	409	20.123	1
495231	3077	22.223	20
495231	3738	23.128403709686	8
495232	409	20.123	0.79999999701977
495232	3077	22.223	0.52380952239037
495232	3738	23.128403709686	0.88571428507566
495233	409	20.123	0.1
495233	3077	22.223	2.1
495233	3738	23.128403709686	0.9
495234	741	20.324	3
495234	2699	21.840089491	14
495234	3354	22.544102192194	6
495234	3567	22.851678942911	2
495234	3695	23.056410738128	1
495234	4138	24.162735301086	10
495234	4347	24.966515215867	7
495234	4391	25.167766600622	1
495234	4444	25.477297175019	2
495234	4487	25.784140595027	2
495234	4549	26.392552597868	5
495235	741	20.324	0.39999997615814
495235	2699	21.840089491	0.46153843402863