file 27225 1369522304                                           
version 2
run Stability2-124-20130526-00:51:44-26640
attr configname Stability2
attr datetime 20130526-00:51:44
attr experiment Stability2
attr inifile omnetpp.ini
attr iterationvars $0=50
attr iterationvars2 "$0=50, $repetition=4"
attr measurement $0=50
attr network Network
attr processid 26640
attr repetition 4
attr replication #4
attr resultdir results
attr runnumber 124
attr seedset 124

vector 375124  Network.churner  inGoingSizeSig:vector  ETV
vector 372124  Network.dyn_peer[0]  lookupHopsSig:vector  ETV
vector 372125  Network.dyn_peer[0]  lookupStabilitySig:vector  ETV
vector 372126  Network.dyn_peer[0]  lookupTimeSig:vector  ETV
vector 372148  Network.dyn_peer[8]  lookupHopsSig:vector  ETV
vector 372149  Network.dyn_peer[8]  lookupStabilitySig:vector  ETV
vector 372150  Network.dyn_peer[8]  lookupTimeSig:vector  ETV
vector 372163  Network.dyn_peer[13]  lookupHopsSig:vector  ETV
vector 372164  Network.dyn_peer[13]  lookupStabilitySig:vector  ETV
vector 372165  Network.dyn_peer[13]  lookupTimeSig:vector  ETV
vector 372178  Network.dyn_peer[18]  lookupHopsSig:vector  ETV
vector 372179  Network.dyn_peer[18]  lookupStabilitySig:vector  ETV
vector 372180  Network.dyn_peer[18]  lookupTimeSig:vector  ETV
vector 372244  Network.dyn_peer[40]  lookupHopsSig:vector  ETV
vector 372245  Network.dyn_peer[40]  lookupStabilitySig:vector  ETV
vector 372246  Network.dyn_peer[40]  lookupTimeSig:vector  ETV
vector 372262  Network.dyn_peer[46]  lookupHopsSig:vector  ETV
vector 372263  Network.dyn_peer[46]  lookupStabilitySig:vector  ETV
vector 372264  Network.dyn_peer[46]  lookupTimeSig:vector  ETV
vector 372136  Network.dyn_peer[4]  lookupHopsSig:vector  ETV
vector 372137  Network.dyn_peer[4]  lookupStabilitySig:vector  ETV
vector 372138  Network.dyn_peer[4]  lookupTimeSig:vector  ETV
vector 372157  Network.dyn_peer[11]  lookupHopsSig:vector  ETV
vector 372158  Network.dyn_peer[11]  lookupStabilitySig:vector  ETV
vector 372159  Network.dyn_peer[11]  lookupTimeSig:vector  ETV
vector 372169  Network.dyn_peer[15]  lookupHopsSig:vector  ETV
vector 372170  Network.dyn_peer[15]  lookupStabilitySig:vector  ETV
vector 372171  Network.dyn_peer[15]  lookupTimeSig:vector  ETV
vector 372202  Network.dyn_peer[26]  lookupHopsSig:vector  ETV
vector 372203  Network.dyn_peer[26]  lookupStabilitySig:vector  ETV
vector 372204  Network.dyn_peer[26]  lookupTimeSig:vector  ETV
vector 372205  Network.dyn_peer[27]  lookupHopsSig:vector  ETV
vector 372206  Network.dyn_peer[27]  lookupStabilitySig:vector  ETV
vector 372207  Network.dyn_peer[27]  lookupTimeSig:vector  ETV
vector 372211  Network.dyn_peer[29]  lookupHopsSig:vector  ETV
vector 372212  Network.dyn_peer[29]  lookupStabilitySig:vector  ETV
vector 372213  Network.dyn_peer[29]  lookupTimeSig:vector  ETV
vector 372226  Network.dyn_peer[34]  lookupHopsSig:vector  ETV
vector 372227  Network.dyn_peer[34]  lookupStabilitySig:vector  ETV
vector 372228  Network.dyn_peer[34]  lookupTimeSig:vector  ETV
vector 372259  Network.dyn_peer[45]  lookupHopsSig:vector  ETV
vector 372260  Network.dyn_peer[45]  lookupStabilitySig:vector  ETV
vector 372261  Network.dyn_peer[45]  lookupTimeSig:vector  ETV
vector 372265  Network.dyn_peer[47]  lookupHopsSig:vector  ETV
vector 372266  Network.dyn_peer[47]  lookupStabilitySig:vector  ETV
vector 372267  Network.dyn_peer[47]  lookupTimeSig:vector  ETV
vector 372268  Network.dyn_peer[48]  lookupHopsSig:vector  ETV
vector 372269  Network.dyn_peer[48]  lookupStabilitySig:vector  ETV
vector 372270  Network.dyn_peer[48]  lookupTimeSig:vector  ETV
vector 372127  Network.dyn_peer[1]  lookupHopsSig:vector  ETV
vector 372128  Network.dyn_peer[1]  lookupStabilitySig:vector  ETV
vector 372129  Network.dyn_peer[1]  lookupTimeSig:vector  ETV
vector 372151  Network.dyn_peer[9]  lookupHopsSig:vector  ETV
vector 372152  Network.dyn_peer[9]  lookupStabilitySig:vector  ETV
vector 372153  Network.dyn_peer[9]  lookupTimeSig:vector  ETV
vector 372160  Network.dyn_peer[12]  lookupHopsSig:vector  ETV
vector 372161  Network.dyn_peer[12]  lookupStabilitySig:vector  ETV
vector 372162  Network.dyn_peer[12]  lookupTimeSig:vector  ETV
vector 372184  Network.dyn_peer[20]  lookupHopsSig:vector  ETV
vector 372185  Network.dyn_peer[20]  lookupStabilitySig:vector  ETV
vector 372186  Network.dyn_peer[20]  lookupTimeSig:vector  ETV
vector 372193  Network.dyn_peer[23]  lookupHopsSig:vector  ETV
vector 372194  Network.dyn_peer[23]  lookupStabilitySig:vector  ETV
vector 372195  Network.dyn_peer[23]  lookupTimeSig:vector  ETV
vector 372196  Network.dyn_peer[24]  lookupHopsSig:vector  ETV
vector 372197  Network.dyn_peer[24]  lookupStabilitySig:vector  ETV
vector 372198  Network.dyn_peer[24]  lookupTimeSig:vector  ETV
vector 372199  Network.dyn_peer[25]  lookupHopsSig:vector  ETV
vector 372200  Network.dyn_peer[25]  lookupStabilitySig:vector  ETV
vector 372201  Network.dyn_peer[25]  lookupTimeSig:vector  ETV
vector 372214  Network.dyn_peer[30]  lookupHopsSig:vector  ETV
vector 372215  Network.dyn_peer[30]  lookupStabilitySig:vector  ETV
vector 372216  Network.dyn_peer[30]  lookupTimeSig:vector  ETV
vector 372220  Network.dyn_peer[32]  lookupHopsSig:vector  ETV
vector 372221  Network.dyn_peer[32]  lookupStabilitySig:vector  ETV
vector 372222  Network.dyn_peer[32]  lookupTimeSig:vector  ETV
vector 372235  Network.dyn_peer[37]  lookupHopsSig:vector  ETV
vector 372236  Network.dyn_peer[37]  lookupStabilitySig:vector  ETV
vector 372237  Network.dyn_peer[37]  lookupTimeSig:vector  ETV
vector 372253  Network.dyn_peer[43]  lookupHopsSig:vector  ETV
vector 372254  Network.dyn_peer[43]  lookupStabilitySig:vector  ETV
vector 372255  Network.dyn_peer[43]  lookupTimeSig:vector  ETV
vector 372133  Network.dyn_peer[3]  lookupHopsSig:vector  ETV
vector 372134  Network.dyn_peer[3]  lookupStabilitySig:vector  ETV
vector 372135  Network.dyn_peer[3]  lookupTimeSig:vector  ETV
vector 372145  Network.dyn_peer[7]  lookupHopsSig:vector  ETV
vector 372146  Network.dyn_peer[7]  lookupStabilitySig:vector  ETV
vector 372147  Network.dyn_peer[7]  lookupTimeSig:vector  ETV
vector 372229  Network.dyn_peer[35]  lookupHopsSig:vector  ETV
vector 372230  Network.dyn_peer[35]  lookupStabilitySig:vector  ETV
vector 372231  Network.dyn_peer[35]  lookupTimeSig:vector  ETV
vector 372238  Network.dyn_peer[38]  lookupHopsSig:vector  ETV
vector 372239  Network.dyn_peer[38]  lookupStabilitySig:vector  ETV
vector 372240  Network.dyn_peer[38]  lookupTimeSig:vector  ETV
vector 372139  Network.dyn_peer[5]  lookupHopsSig:vector  ETV
vector 372140  Network.dyn_peer[5]  lookupStabilitySig:vector  ETV
vector 372141  Network.dyn_peer[5]  lookupTimeSig:vector  ETV
vector 372166  Network.dyn_peer[14]  lookupHopsSig:vector  ETV
vector 372167  Network.dyn_peer[14]  lookupStabilitySig:vector  ETV
vector 372168  Network.dyn_peer[14]  lookupTimeSig:vector  ETV
vector 372172  Network.dyn_peer[16]  lookupHopsSig:vector  ETV
vector 372173  Network.dyn_peer[16]  lookupStabilitySig:vector  ETV
vector 372174  Network.dyn_peer[16]  lookupTimeSig:vector  ETV
vector 372187  Network.dyn_peer[21]  lookupHopsSig:vector  ETV
vector 372188  Network.dyn_peer[21]  lookupStabilitySig:vector  ETV
vector 372189  Network.dyn_peer[21]  lookupTimeSig:vector  ETV
vector 372232  Network.dyn_peer[36]  lookupHopsSig:vector  ETV
vector 372233  Network.dyn_peer[36]  lookupStabilitySig:vector  ETV
vector 372234  Network.dyn_peer[36]  lookupTimeSig:vector  ETV
vector 372256  Network.dyn_peer[44]  lookupHopsSig:vector  ETV
vector 372257  Network.dyn_peer[44]  lookupStabilitySig:vector  ETV
vector 372258  Network.dyn_peer[44]  lookupTimeSig:vector  ETV
vector 372130  Network.dyn_peer[2]  lookupHopsSig:vector  ETV
vector 372131  Network.dyn_peer[2]  lookupStabilitySig:vector  ETV
vector 372132  Network.dyn_peer[2]  lookupTimeSig:vector  ETV
vector 372142  Network.dyn_peer[6]  lookupHopsSig:vector  ETV
vector 372143  Network.dyn_peer[6]  lookupStabilitySig:vector  ETV
vector 372144  Network.dyn_peer[6]  lookupTimeSig:vector  ETV
vector 372175  Network.dyn_peer[17]  lookupHopsSig:vector  ETV
vector 372176  Network.dyn_peer[17]  lookupStabilitySig:vector  ETV
vector 372177  Network.dyn_peer[17]  lookupTimeSig:vector  ETV
vector 372190  Network.dyn_peer[22]  lookupHopsSig:vector  ETV
vector 372191  Network.dyn_peer[22]  lookupStabilitySig:vector  ETV
vector 372192  Network.dyn_peer[22]  lookupTimeSig:vector  ETV
vector 372208  Network.dyn_peer[28]  lookupHopsSig:vector  ETV
vector 372209  Network.dyn_peer[28]  lookupStabilitySig:vector  ETV
vector 372210  Network.dyn_peer[28]  lookupTimeSig:vector  ETV
vector 372217  Network.dyn_peer[31]  lookupHopsSig:vector  ETV
vector 372218  Network.dyn_peer[31]  lookupStabilitySig:vector  ETV
vector 372219  Network.dyn_peer[31]  lookupTimeSig:vector  ETV
vector 372247  Network.dyn_peer[41]  lookupHopsSig:vector  ETV
vector 372248  Network.dyn_peer[41]  lookupStabilitySig:vector  ETV
vector 372249  Network.dyn_peer[41]  lookupTimeSig:vector  ETV
vector 372271  Network.dyn_peer[49]  lookupHopsSig:vector  ETV
vector 372272  Network.dyn_peer[49]  lookupStabilitySig:vector  ETV
vector 372273  Network.dyn_peer[49]  lookupTimeSig:vector  ETV
vector 372241  Network.dyn_peer[39]  lookupHopsSig:vector  ETV
vector 372242  Network.dyn_peer[39]  lookupStabilitySig:vector  ETV
vector 372243  Network.dyn_peer[39]  lookupTimeSig:vector  ETV
vector 372250  Network.dyn_peer[42]  lookupHopsSig:vector  ETV
vector 372251  Network.dyn_peer[42]  lookupStabilitySig:vector  ETV
vector 372252  Network.dyn_peer[42]  lookupTimeSig:vector  ETV
vector 372154  Network.dyn_peer[10]  lookupHopsSig:vector  ETV
vector 372155  Network.dyn_peer[10]  lookupStabilitySig:vector  ETV
vector 372156  Network.dyn_peer[10]  lookupTimeSig:vector  ETV
vector 372181  Network.dyn_peer[19]  lookupHopsSig:vector  ETV
vector 372182  Network.dyn_peer[19]  lookupStabilitySig:vector  ETV
vector 372183  Network.dyn_peer[19]  lookupTimeSig:vector  ETV
vector 372223  Network.dyn_peer[33]  lookupHopsSig:vector  ETV
vector 372224  Network.dyn_peer[33]  lookupStabilitySig:vector  ETV
vector 372225  Network.dyn_peer[33]  lookupTimeSig:vector  ETV
372124	10124 69 17 1054 20.001 21.205641035194 3 0 6 10 52
372125	10193 99 17 1054 20.001 21.205641035194 3 0.19999998807907 1 1.5333333015442 1.1511110930973
372126	10292 73 17 1054 20.001 21.205641035194 3 0 0.7 1.2 0.74
372127	10365 280 289 1609 20.202 24.56055478031 10 1 12 36 226
372128	10645 429 289 1609 20.202 24.56055478031 10 0.47826087474823 0.98148148134351 8.6372936721891 7.7375346133262
372129	11074 299 289 1609 20.202 24.56055478031 10 0.2 1.3 4.5 3.03
372130	11373 68 554 1186 20.503 21.4044538792 3 3 5 12 50
372131	11441 84 554 1186 20.503 21.4044538792 3 0 0.7647058814764 1.2647058814764 0.8347750851646
372132	11525 74 554 1186 20.503 21.4044538792 3 0.4 0.5 1.4 0.66
372133	11599 70 390 1314 20.304 21.60632819407 3 3 8 14 82
372134	11669 115 390 1314 20.304 21.60632819407 3 0.11111110448837 0.89655172079802 1.4076628014445 0.97615064653302
372135	11784 76 390 1314 20.304 21.60632819407 3 0.3 0.9 1.6 1.06
372136	11860 100 200 1425 20.105 21.928182417562 4 1 9 16 102
372137	11960 145 200 1425 20.105 21.928182417562 4 0 0.90476190298796 2.5994987413287 2.2591481115471
372138	12105 106 200 1425 20.105 21.928182417562 4 0.1 1 1.9 1.35
372139	12211 70 467 1194 20.406 21.414129146762 3 1 7 12 66
372140	12281 115 467 1194 20.406 21.414129146762 3 0.19999998807907 0.79999999701977 1.6111110895872 1.0534567724923
372141	12396 76 467 1194 20.406 21.414129146762 3 0.2 0.8 1.4 0.84
372142	12472 71 563 1367 20.507 21.716789465325 3 3 7 15 83
372143	12543 101 563 1367 20.507 21.716789465325 3 0 0.91176470369101 1.3284313902259 1.0049260025647
372144	12644 77 563 1367 20.507 21.716789465325 3 0.4 0.8 1.7 1.05
372145	12721 101 398 1519 20.308 22.510636559209 4 3 10 22 154
372146	12822 150 398 1519 20.308 22.510636559209 4 0.39999997615814 0.9375 2.6159313172102 1.9595674827827
372147	12972 108 398 1519 20.308 22.510636559209 4 0.3 1.1 2.5 1.95
372148	13080 108 45 1406 20.009 21.831447308346 4 0 7 15 81
372149	13188 153 45 1406 20.009 21.831447308346 4 0.19999998807907 1 2.5615384206176 2.063017718635
372150	13341 114 45 1406 20.009 21.831447308346 4 0 0.8 1.8 1.14
372151	13455 40 300 1261 20.21 21.51 2 2 12 14 148
372152	13495 69 300 1261 20.21 21.51 2 0.47826087474823 0.59999999403954 1.0782608687878 0.58873345716238
372153	13564 43 300 1261 20.21 21.51 2 0.2 1.3 1.5 1.73
372154	13607 99 725 1401 20.711 21.823432838787 4 1 7 15 79
372155	13706 160 725 1401 20.711 21.823432838787 4 -0.39999997615814 0.94871794804931 2.1820512972772 2.3945101572751
372156	13866 107 725 1401 20.711 21.823432838787 4 0.2 0.7 1.8 0.98
372157	13973 69 210 930 20.112 21.021247683132 3 1 5 8 30
372158	14042 114 210 930 20.112 21.021247683132 3 0.16666668653488 0.79999999701977 1.5666666775942 1.0277777724796
372159	14156 75 210 930 20.112 21.021247683132 3 0.1 0.6 1 0.46
372160	14231 100 307 1422 20.213 21.920814321713 4 2 6 16 80
372161	14331 145 307 1422 20.213 21.920814321713 4 0 0.95121951401234 2.3512195050716 1.9048185519169
372162	14476 108 307 1422 20.213 21.920814321713 4 0.2 0.7 1.9 1.11
372163	14584 136 65 1361 20.014 21.658186460017 5 0 6 12 50
372164	14720 196 65 1361 20.014 21.658186460017 5 0.33333331346512 1 3.6121211647987 3.0378695661459
372165	14916 144 65 1361 20.014 21.658186460017 5 0 0.7 1.6 0.78
372166	15060 69 479 1265 20.415 21.51884944478 3 3 6 13 61
372167	15129 103 479 1265 20.415 21.51884944478 3 0.19999998807907 0.875 1.4083333015442 0.91673609309726
372168	15232 75 479 1265 20.415 21.51884944478 3 0.4 0.7 1.5 0.81
372169	15307 70 217 1138 20.116 21.323763070822 3 1 9 11 83
372170	15377 103 217 1138 20.116 21.323763070822 3 0.25 0.79999999701977 1.8499999940395 1.3424999904633
372171	15480 74 217 1138 20.116 21.323763070822 3 0.1 1 1.3 1.05
372172	15554 70 484 1204 20.417 21.42145592452 3 1 7 12 66
372173	15624 114 484 1204 20.417 21.42145592452 3 0.19999998807907 0.9473684206605 1.4473684206605 1.0275069268489
372174	15738 76 484 1204 20.417 21.42145592452 3 0.2 0.8 1.4 0.84
372175	15814 70 574 1324 20.518 21.621304538771 3 4 5 14 66
372176	15884 100 574 1324 20.518 21.621304538771 3 0 0.83333332836628 1.1666666418314 0.80555553403166
372177	15984 76 574 1324 20.518 21.621304538771 3 0.5 0.6 1.6 0.86
372178	16060 108 85 1377 20.019 21.735056447635 4 0 10 14 108
372179	16168 152 85 1377 20.019 21.735056447635 4 0.59999999403954 1 2.9142856895924 2.2302040490812
372180	16320 113 85 1377 20.019 21.735056447635 4 0 1.1 1.7 1.39
372181	16433 99 735 1379 20.72 21.738806350263 4 1 7 14 70
372182	16532 160 735 1379 20.72 21.738806350263 4 -0.39999997615814 0.94999999925494 2.0944444611669 2.3144752802185
372183	16692 107 735 1379 20.72 21.738806350263 4 0.2 0.7 1.7 0.87
372184	16799 132 318 1549 20.221 22.944600506491 5 2 13 25 207
372185	16931 196 318 1549 20.221 22.944600506491 5 0.56666666269302 0.9375 3.955967836082 3.2746386852166
372186	17127 141 318 1549 20.221 22.944600506491 5 0.2 1.4 2.9 2.57
372187	17268 70 493 1274 20.422 21.530995547764 3 1 8 13 81
372188	17338 115 493 1274 20.422 21.530995547764 3 0.19999998807907 0.79999999701977 1.6799999922514 1.1424000001907
372189	17453 76 493 1274 20.422 21.530995547764 3 0.2 0.9 1.5 1.01
372190	17529 99 584 1144 20.523 21.32976584833 4 1 5 10 36
372191	17628 144 584 1144 20.523 21.32976584833 4 0 0.92307692021132 2.3897435739636 1.9365154270574
372192	17772 107 584 1144 20.523 21.32976584833 4 0.2 0.5 1.3 0.49
372193	17879 99 326 1170 20.224 21.345320000061 4 1 4 10 30
372194	17978 159 326 1170 20.224 21.345320000061 4 0.19999998807907 0.83333332836628 2.4190475940704 1.7117913596754
372195	18137 107 326 1170 20.224 21.345320000061 4 0.2 0.5 1.3 0.49
372196	18244 70 331 1221 20.225 21.433039708279 3 2 7 12 62
372197	18314 115 331 1221 20.225 21.433039708279 3 0.39999997615814 0.65000000596046 1.6499999761581 0.94249998152256
372198	18429 76 331 1221 20.225 21.433039708279 3 0.2 0.8 1.4 0.84
372199	18505 41 336 1073 20.226 21.226 2 2 9 11 85
372200	18546 71 336 1073 20.226 21.226 2 0.10000002384186 0.59999999403954 0.70000001788139 0.36999999761581
372201	18617 43 336 1073 20.226 21.226 2 0.2 1 1.2 1.04
372202	18660 42 234 1327 20.127 21.627 2 1 14 15 197
372203	18702 71 234 1327 20.127 21.627 2 0.53333333134651 0.79999999701977 1.3333333283663 0.9244444375568
372204	18773 45 234 1327 20.127 21.627 2 0.1 1.5 1.6 2.26
372205	18818 72 239 1283 20.128 21.537612574554 3 1 10 13 105
372206	18890 117 239 1283 20.128 21.537612574554 3 0.090909063816071 0.92307692021132 1.8139859810472 1.5003354537423
372207	19007 77 239 1283 20.128 21.537612574554 3 0.1 1.1 1.5 1.31
372208	19084 101 596 1485 20.529 22.242741108317 4 3 8 19 107
372209	19185 146 596 1485 20.529 22.242741108317 4 0 0.93478260934353 2.4616118744016 2.0928310171952
372210	19331 109 596 1485 20.529 22.242741108317 4 0.4 0.9 2.2 1.38
372211	19440 98 246 1451 20.13 22.045251138305 4 1 7 17 95
372212	19538 149 246 1451 20.13 22.045251138305 4 -0.16666662693024 0.93023255467415 2.3760659247637 2.1932666155395
372213	19687 106 246 1451 20.13 22.045251138305 4 0.1 0.8 2 1.3
372214	19793 131 347 1524 20.231 22.547437508885 5 2 9 21 123
372215	19924 197 347 1524 20.231 22.547437508885 5 0.18181818723679 0.95918367430568 3.5385562069714 2.9288036764177
372216	20121 139 347 1524 20.231 22.547437508885 5 0.2 1 2.5 1.65
372217	20260 101 607 1381 20.532 21.742162967915 4 1 5 14 60
372218	20361 146 607 1381 20.532 21.742162967915 4 0 0.92857142537832 2.2919347658753 1.9041877188877
372219	20507 109 607 1381 20.532 21.742162967915 4 0.2 0.6 1.7 0.81
372220	20616 42 354 1218 20.233 21.433 2 2 11 13 125
372221	20658 71 354 1218 20.233 21.433 2 0.44999998807907 0.59999999403954 1.0499999821186 0.56249998211861
372222	20729 45 354 1218 20.233 21.433 2 0.2 1.2 1.4 1.48
372223	20774 131 887 1529 20.934 22.552984565668 5 2 9 21 119
372224	20905 193 887 1529 20.934 22.552984565668 5 -0.5 0.94285714253783 3.1149659790099 3.531390148504
372225	21098 141 887 1529 20.934 22.552984565668 5 0.3 0.9 2.5 1.47
372226	21239 102 255 1475 20.135 22.152182905142 4 1 10 18 126
372227	21341 153 255 1475 20.135 22.152182905142 4 0.090909063816071 0.91111110895872 2.7082701697946 2.2996769684835
372228	21494 109 255 1475 20.135 22.152182905142 4 0.1 1.1 2.1 1.63
372229	21603 40 437 953 20.336 21.036 2 3 6 9 45
372230	21643 70 437 953 20.336 21.036 2 0.14285713434219 0.39999997615814 0.54285711050034 0.18040814175898
372231	21713 44 437 953 20.336 21.036 2 0.3 0.7 1 0.58
372232	21757 131 521 1455 20.437 22.048337652854 5 1 7 16 74
372233	21888 206 521 1455 20.437 22.048337652854 5 0.19999998807907 0.97368421033025 3.4138858653605 2.8815034261922
372234	22094 141 521 1455 20.437 22.048337652854 5 0.2 0.8 2 1.02
372235	22235 81 363 1490 20.238 22.245719007208 3 2 12 20 184
372236	22316 125 363 1490 20.238 22.245719007208 3 0.53846153616905 0.86956521868706 2.0080267488956 1.4060844883312
372237	22441 86 363 1490 20.238 22.245719007208 3 0.2 1.3 2.2 2.22
372238	22527 41 445 1099 20.339 21.239 2 3 8 11 73
372239	22568 71 445 1099 20.339 21.239 2 0.27272725105286 0.39999997615814 0.672727227211 0.23438013439336
372240	22639 45 445 1099 20.339 21.239 2 0.3 0.9 1.2 0.9
372241	22684 129 694 1573 20.64 23.372368369592 5 3 9 29 187
372242	22813 185 694 1573 20.64 23.372368369592 5 -0.20000004768372 0.94230769202113 3.2399037964642 3.0271082347301
372243	22998 137 694 1573 20.64 23.372368369592 5 0.4 1 3.3 2.37
372244	23135 109 159 1308 20.041 21.555534412101 4 0 8 12 72
372245	23244 155 159 1308 20.041 21.555534412101 4 -0.33333337306976 1 2.4259258806705 2.6628943930478
372246	23399 115 159 1308 20.041 21.555534412101 4 0 0.9 1.5 0.99
372247	23514 69 623 1175 20.542 21.35043053855 3 2 5 11 45
372248	23583 86 623 1175 20.542 21.35043053855 3 0 0.86666665971279 1.3666666597128 1.0011110990577
372249	23669 75 623 1175 20.542 21.35043053855 3 0.3 0.5 1.3 0.59
372250	23744 191 701 1606 20.643 24.460700524002 7 3 8 38 224
372251	23935 297 701 1606 20.643 24.460700524002 7 -0.20000004768372 0.93023255467415 5.0171611905098 4.6165379396786
372252	24232 205 701 1606 20.643 24.460700524002 7 0.4 0.9 4.4 2.94
372253	24437 79 375 1356 20.244 21.646956543086 3 2 9 14 94
372254	24516 115 375 1356 20.244 21.646956543086 3 0.39999997615814 0.71875 1.7187499701977 1.036601536274
372255	24631 83 375 1356 20.244 21.646956543086 3 0.2 1 1.6 1.2
372256	24714 70 537 1306 20.445 21.550433424322 3 4 5 13 57
372257	24784 104 537 1306 20.445 21.550433424322 3 0.19999998807907 0.85185185074806 1.4268518388271 0.90627657085453
372258	24888 76 537 1306 20.445 21.550433424322 3 0.4 0.6 1.5 0.77
372259	24964 70 271 1178 20.146 21.352458293995 3 1 5 11 51
372260	25034 100 271 1178 20.146 21.352458293995 3 0 0.79999999701977 1.4666666537523 1.0844444264306
372261	25134 76 271 1178 20.146 21.352458293995 3 0.1 0.6 1.3 0.73
372262	25210 69 182 836 20.047 20.851845008042 3 0 3 6 18
372263	25279 99 182 836 20.047 20.851845008042 3 0.39999997615814 1 1.7999999523163 1.319999961853
372264	25378 73 182 836 20.047 20.851845008042 3 0 0.4 0.8 0.32
372265	25451 68 277 976 20.148 21.05426809206 3 1 5 8 30
372266	25519 102 277 976 20.148 21.05426809206 3 0.375 0.79999999701977 1.7749999910593 1.1406249880791
372267	25621 74 277 976 20.148 21.05426809206 3 0.1 0.6 1 0.46
372268	25695 70 282 1250 20.149 21.453512317271 3 1 8 12 74
372269	25765 115 282 1250 20.149 21.453512317271 3 0.39999997615814 0.79999999701977 1.8363635987043 1.2049586400513
372270	25880 76 282 1250 20.149 21.453512317271 3 0.1 0.9 1.4 0.98
372271	25956 69 636 1394 20.55 21.759070256939 3 2 8 15 93
372272	26025 98 636 1394 20.55 21.759070256939 3 0 0.9473684206605 1.5837320461869 1.3024655883579
372273	26123 75 636 1394 20.55 21.759070256939 3 0.3 0.9 1.7 1.15
375124	26198 1027 10 189 20 20.05 51 0 49 1225 40425
