version 2
run Stability2-177-20130526-00:52:05-26640
attr configname Stability2
attr datetime 20130526-00:52:05
attr experiment Stability2
attr inifile omnetpp.ini
attr iterationvars $0=100
attr iterationvars2 "$0=100, $repetition=27"
attr measurement $0=100
attr network Network
attr processid 26640
attr repetition 27
attr replication #27
attr resultdir results
attr runnumber 177
attr seedset 177

vector 534177  Network.churner  inGoingSizeSig:vector  ETV
vector 531186  Network.dyn_peer[3]  lookupHopsSig:vector  ETV
vector 531187  Network.dyn_peer[3]  lookupStabilitySig:vector  ETV
vector 531188  Network.dyn_peer[3]  lookupTimeSig:vector  ETV
vector 531192  Network.dyn_peer[5]  lookupHopsSig:vector  ETV
vector 531193  Network.dyn_peer[5]  lookupStabilitySig:vector  ETV
vector 531194  Network.dyn_peer[5]  lookupTimeSig:vector  ETV
vector 531198  Network.dyn_peer[7]  lookupHopsSig:vector  ETV
vector 531199  Network.dyn_peer[7]  lookupStabilitySig:vector  ETV
vector 531200  Network.dyn_peer[7]  lookupTimeSig:vector  ETV
vector 531204  Network.dyn_peer[9]  lookupHopsSig:vector  ETV
vector 531205  Network.dyn_peer[9]  lookupStabilitySig:vector  ETV
vector 531206  Network.dyn_peer[9]  lookupTimeSig:vector  ETV
vector 531207  Network.dyn_peer[10]  lookupHopsSig:vector  ETV
vector 531208  Network.dyn_peer[10]  lookupStabilitySig:vector  ETV
vector 531209  Network.dyn_peer[10]  lookupTimeSig:vector  ETV
vector 531258  Network.dyn_peer[27]  lookupHopsSig:vector  ETV
vector 531259  Network.dyn_peer[27]  lookupStabilitySig:vector  ETV
vector 531260  Network.dyn_peer[27]  lookupTimeSig:vector  ETV
vector 531270  Network.dyn_peer[31]  lookupHopsSig:vector  ETV
vector 531271  Network.dyn_peer[31]  lookupStabilitySig:vector  ETV
vector 531272  Network.dyn_peer[31]  lookupTimeSig:vector  ETV
vector 531279  Network.dyn_peer[34]  lookupHopsSig:vector  ETV
vector 531280  Network.dyn_peer[34]  lookupStabilitySig:vector  ETV
vector 531281  Network.dyn_peer[34]  lookupTimeSig:vector  ETV
vector 531318  Network.dyn_peer[47]  lookupHopsSig:vector  ETV
vector 531319  Network.dyn_peer[47]  lookupStabilitySig:vector  ETV
vector 531320  Network.dyn_peer[47]  lookupTimeSig:vector  ETV
vector 531327  Network.dyn_peer[50]  lookupHopsSig:vector  ETV
vector 531328  Network.dyn_peer[50]  lookupStabilitySig:vector  ETV
vector 531329  Network.dyn_peer[50]  lookupTimeSig:vector  ETV
vector 531360  Network.dyn_peer[61]  lookupHopsSig:vector  ETV
vector 531361  Network.dyn_peer[61]  lookupStabilitySig:vector  ETV
vector 531362  Network.dyn_peer[61]  lookupTimeSig:vector  ETV
vector 531441  Network.dyn_peer[88]  lookupHopsSig:vector  ETV
vector 531442  Network.dyn_peer[88]  lookupStabilitySig:vector  ETV
vector 531443  Network.dyn_peer[88]  lookupTimeSig:vector  ETV
vector 531228  Network.dyn_peer[17]  lookupHopsSig:vector  ETV
vector 531229  Network.dyn_peer[17]  lookupStabilitySig:vector  ETV
vector 531230  Network.dyn_peer[17]  lookupTimeSig:vector  ETV
vector 531231  Network.dyn_peer[18]  lookupHopsSig:vector  ETV
vector 531232  Network.dyn_peer[18]  lookupStabilitySig:vector  ETV
vector 531233  Network.dyn_peer[18]  lookupTimeSig:vector  ETV
vector 531255  Network.dyn_peer[26]  lookupHopsSig:vector  ETV
vector 531256  Network.dyn_peer[26]  lookupStabilitySig:vector  ETV
vector 531257  Network.dyn_peer[26]  lookupTimeSig:vector  ETV
vector 531261  Network.dyn_peer[28]  lookupHopsSig:vector  ETV
vector 531262  Network.dyn_peer[28]  lookupStabilitySig:vector  ETV
vector 531263  Network.dyn_peer[28]  lookupTimeSig:vector  ETV
vector 531285  Network.dyn_peer[36]  lookupHopsSig:vector  ETV
vector 531286  Network.dyn_peer[36]  lookupStabilitySig:vector  ETV
vector 531287  Network.dyn_peer[36]  lookupTimeSig:vector  ETV
vector 531300  Network.dyn_peer[41]  lookupHopsSig:vector  ETV
vector 531301  Network.dyn_peer[41]  lookupStabilitySig:vector  ETV
vector 531302  Network.dyn_peer[41]  lookupTimeSig:vector  ETV
vector 531366  Network.dyn_peer[63]  lookupHopsSig:vector  ETV
vector 531367  Network.dyn_peer[63]  lookupStabilitySig:vector  ETV
vector 531368  Network.dyn_peer[63]  lookupTimeSig:vector  ETV
vector 531420  Network.dyn_peer[81]  lookupHopsSig:vector  ETV
vector 531421  Network.dyn_peer[81]  lookupStabilitySig:vector  ETV
vector 531422  Network.dyn_peer[81]  lookupTimeSig:vector  ETV
vector 531432  Network.dyn_peer[85]  lookupHopsSig:vector  ETV
vector 531433  Network.dyn_peer[85]  lookupStabilitySig:vector  ETV
vector 531434  Network.dyn_peer[85]  lookupTimeSig:vector  ETV
vector 531444  Network.dyn_peer[89]  lookupHopsSig:vector  ETV
vector 531445  Network.dyn_peer[89]  lookupStabilitySig:vector  ETV
vector 531446  Network.dyn_peer[89]  lookupTimeSig:vector  ETV
vector 531201  Network.dyn_peer[8]  lookupHopsSig:vector  ETV
vector 531202  Network.dyn_peer[8]  lookupStabilitySig:vector  ETV
vector 531203  Network.dyn_peer[8]  lookupTimeSig:vector  ETV
vector 531252  Network.dyn_peer[25]  lookupHopsSig:vector  ETV
vector 531253  Network.dyn_peer[25]  lookupStabilitySig:vector  ETV
vector 531254  Network.dyn_peer[25]  lookupTimeSig:vector  ETV
vector 531282  Network.dyn_peer[35]  lookupHopsSig:vector  ETV
vector 531283  Network.dyn_peer[35]  lookupStabilitySig:vector  ETV
vector 531284  Network.dyn_peer[35]  lookupTimeSig:vector  ETV
vector 531315  Network.dyn_peer[46]  lookupHopsSig:vector  ETV
vector 531316  Network.dyn_peer[46]  lookupStabilitySig:vector  ETV
vector 531317  Network.dyn_peer[46]  lookupTimeSig:vector  ETV
vector 531330  Network.dyn_peer[51]  lookupHopsSig:vector  ETV
vector 531331  Network.dyn_peer[51]  lookupStabilitySig:vector  ETV
vector 531332  Network.dyn_peer[51]  lookupTimeSig:vector  ETV
vector 531348  Network.dyn_peer[57]  lookupHopsSig:vector  ETV
vector 531349  Network.dyn_peer[57]  lookupStabilitySig:vector  ETV
vector 531350  Network.dyn_peer[57]  lookupTimeSig:vector  ETV
vector 531357  Network.dyn_peer[60]  lookupHopsSig:vector  ETV
vector 531358  Network.dyn_peer[60]  lookupStabilitySig:vector  ETV
vector 531359  Network.dyn_peer[60]  lookupTimeSig:vector  ETV
vector 531363  Network.dyn_peer[62]  lookupHopsSig:vector  ETV
vector 531364  Network.dyn_peer[62]  lookupStabilitySig:vector  ETV
vector 531365  Network.dyn_peer[62]  lookupTimeSig:vector  ETV
vector 531459  Network.dyn_peer[94]  lookupHopsSig:vector  ETV
vector 531460  Network.dyn_peer[94]  lookupStabilitySig:vector  ETV
vector 531461  Network.dyn_peer[94]  lookupTimeSig:vector  ETV
vector 531189  Network.dyn_peer[4]  lookupHopsSig:vector  ETV
vector 531190  Network.dyn_peer[4]  lookupStabilitySig:vector  ETV
vector 531191  Network.dyn_peer[4]  lookupTimeSig:vector  ETV
vector 531195  Network.dyn_peer[6]  lookupHopsSig:vector  ETV
vector 531196  Network.dyn_peer[6]  lookupStabilitySig:vector  ETV
vector 531197  Network.dyn_peer[6]  lookupTimeSig:vector  ETV
vector 531210  Network.dyn_peer[11]  lookupHopsSig:vector  ETV
vector 531211  Network.dyn_peer[11]  lookupStabilitySig:vector  ETV
vector 531212  Network.dyn_peer[11]  lookupTimeSig:vector  ETV
vector 531246  Network.dyn_peer[23]  lookupHopsSig:vector  ETV
vector 531247  Network.dyn_peer[23]  lookupStabilitySig:vector  ETV
vector 531248  Network.dyn_peer[23]  lookupTimeSig:vector  ETV
vector 531264  Network.dyn_peer[29]  lookupHopsSig:vector  ETV
vector 531265  Network.dyn_peer[29]  lookupStabilitySig:vector  ETV
vector 531266  Network.dyn_peer[29]  lookupTimeSig:vector  ETV
vector 531333  Network.dyn_peer[52]  lookupHopsSig:vector  ETV
vector 531334  Network.dyn_peer[52]  lookupStabilitySig:vector  ETV
vector 531335  Network.dyn_peer[52]  lookupTimeSig:vector  ETV
vector 531351  Network.dyn_peer[58]  lookupHopsSig:vector  ETV
vector 531352  Network.dyn_peer[58]  lookupStabilitySig:vector  ETV
vector 531353  Network.dyn_peer[58]  lookupTimeSig:vector  ETV
vector 531375  Network.dyn_peer[66]  lookupHopsSig:vector  ETV
vector 531376  Network.dyn_peer[66]  lookupStabilitySig:vector  ETV
vector 531377  Network.dyn_peer[66]  lookupTimeSig:vector  ETV
vector 531408  Network.dyn_peer[77]  lookupHopsSig:vector  ETV
vector 531409  Network.dyn_peer[77]  lookupStabilitySig:vector  ETV
vector 531410  Network.dyn_peer[77]  lookupTimeSig:vector  ETV
vector 531426  Network.dyn_peer[83]  lookupHopsSig:vector  ETV
vector 531427  Network.dyn_peer[83]  lookupStabilitySig:vector  ETV
vector 531428  Network.dyn_peer[83]  lookupTimeSig:vector  ETV
vector 531177  Network.dyn_peer[0]  lookupHopsSig:vector  ETV
vector 531178  Network.dyn_peer[0]  lookupStabilitySig:vector  ETV
vector 531179  Network.dyn_peer[0]  lookupTimeSig:vector  ETV
vector 531180  Network.dyn_peer[1]  lookupHopsSig:vector  ETV
vector 531181  Network.dyn_peer[1]  lookupStabilitySig:vector  ETV
vector 531182  Network.dyn_peer[1]  lookupTimeSig:vector  ETV
vector 531183  Network.dyn_peer[2]  lookupHopsSig:vector  ETV
vector 531184  Network.dyn_peer[2]  lookupStabilitySig:vector  ETV
vector 531185  Network.dyn_peer[2]  lookupTimeSig:vector  ETV
vector 531216  Network.dyn_peer[13]  lookupHopsSig:vector  ETV
vector 531217  Network.dyn_peer[13]  lookupStabilitySig:vector  ETV
vector 531218  Network.dyn_peer[13]  lookupTimeSig:vector  ETV
vector 531219  Network.dyn_peer[14]  lookupHopsSig:vector  ETV
vector 531220  Network.dyn_peer[14]  lookupStabilitySig:vector  ETV
vector 531221  Network.dyn_peer[14]  lookupTimeSig:vector  ETV
vector 531234  Network.dyn_peer[19]  lookupHopsSig:vector  ETV
vector 531235  Network.dyn_peer[19]  lookupStabilitySig:vector  ETV
vector 531236  Network.dyn_peer[19]  lookupTimeSig:vector  ETV
vector 531237  Network.dyn_peer[20]  lookupHopsSig:vector  ETV
vector 531238  Network.dyn_peer[20]  lookupStabilitySig:vector  ETV
vector 531239  Network.dyn_peer[20]  lookupTimeSig:vector  ETV
vector 531240  Network.dyn_peer[21]  lookupHopsSig:vector  ETV
vector 531241  Network.dyn_peer[21]  lookupStabilitySig:vector  ETV
vector 531242  Network.dyn_peer[21]  lookupTimeSig:vector  ETV
vector 531276  Network.dyn_peer[33]  lookupHopsSig:vector  ETV
vector 531277  Network.dyn_peer[33]  lookupStabilitySig:vector  ETV
vector 531278  Network.dyn_peer[33]  lookupTimeSig:vector  ETV
vector 531288  Network.dyn_peer[37]  lookupHopsSig:vector  ETV
vector 531289  Network.dyn_peer[37]  lookupStabilitySig:vector  ETV
vector 531290  Network.dyn_peer[37]  lookupTimeSig:vector  ETV
vector 531297  Network.dyn_peer[40]  lookupHopsSig:vector  ETV
vector 531298  Network.dyn_peer[40]  lookupStabilitySig:vector  ETV
vector 531299  Network.dyn_peer[40]  lookupTimeSig:vector  ETV
vector 531387  Network.dyn_peer[70]  lookupHopsSig:vector  ETV
vector 531388  Network.dyn_peer[70]  lookupStabilitySig:vector  ETV
vector 531389  Network.dyn_peer[70]  lookupTimeSig:vector  ETV
vector 531393  Network.dyn_peer[72]  lookupHopsSig:vector  ETV
vector 531394  Network.dyn_peer[72]  lookupStabilitySig:vector  ETV
vector 531395  Network.dyn_peer[72]  lookupTimeSig:vector  ETV
vector 531456  Network.dyn_peer[93]  lookupHopsSig:vector  ETV
vector 531457  Network.dyn_peer[93]  lookupStabilitySig:vector  ETV
vector 531458  Network.dyn_peer[93]  lookupTimeSig:vector  ETV
vector 531471  Network.dyn_peer[98]  lookupHopsSig:vector  ETV
vector 531472  Network.dyn_peer[98]  lookupStabilitySig:vector  ETV
vector 531473  Network.dyn_peer[98]  lookupTimeSig:vector  ETV
vector 531213  Network.dyn_peer[12]  lookupHopsSig:vector  ETV
vector 531214  Network.dyn_peer[12]  lookupStabilitySig:vector  ETV
vector 531215  Network.dyn_peer[12]  lookupTimeSig:vector  ETV
vector 531225  Network.dyn_peer[16]  lookupHopsSig:vector  ETV
vector 531226  Network.dyn_peer[16]  lookupStabilitySig:vector  ETV
vector 531227  Network.dyn_peer[16]  lookupTimeSig:vector  ETV
vector 531243  Network.dyn_peer[22]  lookupHopsSig:vector  ETV
vector 531244  Network.dyn_peer[22]  lookupStabilitySig:vector  ETV
vector 531245  Network.dyn_peer[22]  lookupTimeSig:vector  ETV
vector 531249  Network.dyn_peer[24]  lookupHopsSig:vector  ETV
vector 531250  Network.dyn_peer[24]  lookupStabilitySig:vector  ETV
vector 531251  Network.dyn_peer[24]  lookupTimeSig:vector  ETV
vector 531267  Network.dyn_peer[30]  lookupHopsSig:vector  ETV
vector 531268  Network.dyn_peer[30]  lookupStabilitySig:vector  ETV
vector 531269  Network.dyn_peer[30]  lookupTimeSig:vector  ETV
vector 531291  Network.dyn_peer[38]  lookupHopsSig:vector  ETV
vector 531292  Network.dyn_peer[38]  lookupStabilitySig:vector  ETV
vector 531293  Network.dyn_peer[38]  lookupTimeSig:vector  ETV
vector 531294  Network.dyn_peer[39]  lookupHopsSig:vector  ETV
vector 531295  Network.dyn_peer[39]  lookupStabilitySig:vector  ETV
vector 531296  Network.dyn_peer[39]  lookupTimeSig:vector  ETV
vector 531306  Network.dyn_peer[43]  lookupHopsSig:vector  ETV
vector 531307  Network.dyn_peer[43]  lookupStabilitySig:vector  ETV
vector 531308  Network.dyn_peer[43]  lookupTimeSig:vector  ETV
vector 531336  Network.dyn_peer[53]  lookupHopsSig:vector  ETV
vector 531337  Network.dyn_peer[53]  lookupStabilitySig:vector  ETV
vector 531338  Network.dyn_peer[53]  lookupTimeSig:vector  ETV
vector 531369  Network.dyn_peer[64]  lookupHopsSig:vector  ETV
vector 531370  Network.dyn_peer[64]  lookupStabilitySig:vector  ETV
vector 531371  Network.dyn_peer[64]  lookupTimeSig:vector  ETV
vector 531378  Network.dyn_peer[67]  lookupHopsSig:vector  ETV
vector 531379  Network.dyn_peer[67]  lookupStabilitySig:vector  ETV
vector 531380  Network.dyn_peer[67]  lookupTimeSig:vector  ETV
vector 531381  Network.dyn_peer[68]  lookupHopsSig:vector  ETV
vector 531382  Network.dyn_peer[68]  lookupStabilitySig:vector  ETV
vector 531383  Network.dyn_peer[68]  lookupTimeSig:vector  ETV
vector 531429  Network.dyn_peer[84]  lookupHopsSig:vector  ETV
vector 531430  Network.dyn_peer[84]  lookupStabilitySig:vector  ETV
vector 531431  Network.dyn_peer[84]  lookupTimeSig:vector  ETV
vector 531309  Network.dyn_peer[44]  lookupHopsSig:vector  ETV
vector 531310  Network.dyn_peer[44]  lookupStabilitySig:vector  ETV
vector 531311  Network.dyn_peer[44]  lookupTimeSig:vector  ETV
vector 531342  Network.dyn_peer[55]  lookupHopsSig:vector  ETV
vector 531343  Network.dyn_peer[55]  lookupStabilitySig:vector  ETV
vector 531344  Network.dyn_peer[55]  lookupTimeSig:vector  ETV
vector 531384  Network.dyn_peer[69]  lookupHopsSig:vector  ETV
vector 531385  Network.dyn_peer[69]  lookupStabilitySig:vector  ETV
vector 531386  Network.dyn_peer[69]  lookupTimeSig:vector  ETV
vector 531438  Network.dyn_peer[87]  lookupHopsSig:vector  ETV
vector 531439  Network.dyn_peer[87]  lookupStabilitySig:vector  ETV
vector 531440  Network.dyn_peer[87]  lookupTimeSig:vector  ETV
vector 531453  Network.dyn_peer[92]  lookupHopsSig:vector  ETV
vector 531454  Network.dyn_peer[92]  lookupStabilitySig:vector  ETV
vector 531455  Network.dyn_peer[92]  lookupTimeSig:vector  ETV
vector 531474  Network.dyn_peer[99]  lookupHopsSig:vector  ETV
vector 531475  Network.dyn_peer[99]  lookupStabilitySig:vector  ETV
vector 531476  Network.dyn_peer[99]  lookupTimeSig:vector  ETV
vector 531222  Network.dyn_peer[15]  lookupHopsSig:vector  ETV
vector 531223  Network.dyn_peer[15]  lookupStabilitySig:vector  ETV
vector 531224  Network.dyn_peer[15]  lookupTimeSig:vector  ETV
vector 531303  Network.dyn_peer[42]  lookupHopsSig:vector  ETV
vector 531304  Network.dyn_peer[42]  lookupStabilitySig:vector  ETV
vector 531305  Network.dyn_peer[42]  lookupTimeSig:vector  ETV
vector 531312  Network.dyn_peer[45]  lookupHopsSig:vector  ETV
vector 531313  Network.dyn_peer[45]  lookupStabilitySig:vector  ETV
vector 531314  Network.dyn_peer[45]  lookupTimeSig:vector  ETV
vector 531405  Network.dyn_peer[76]  lookupHopsSig:vector  ETV
vector 531406  Network.dyn_peer[76]  lookupStabilitySig:vector  ETV
vector 531407  Network.dyn_peer[76]  lookupTimeSig:vector  ETV
vector 531435  Network.dyn_peer[86]  lookupHopsSig:vector  ETV
vector 531436  Network.dyn_peer[86]  lookupStabilitySig:vector  ETV
vector 531437  Network.dyn_peer[86]  lookupTimeSig:vector  ETV
vector 531273  Network.dyn_peer[32]  lookupHopsSig:vector  ETV
vector 531274  Network.dyn_peer[32]  lookupStabilitySig:vector  ETV
vector 531275  Network.dyn_peer[32]  lookupTimeSig:vector  ETV
vector 531321  Network.dyn_peer[48]  lookupHopsSig:vector  ETV
vector 531322  Network.dyn_peer[48]  lookupStabilitySig:vector  ETV
vector 531323  Network.dyn_peer[48]  lookupTimeSig:vector  ETV
vector 531339  Network.dyn_peer[54]  lookupHopsSig:vector  ETV
vector 531340  Network.dyn_peer[54]  lookupStabilitySig:vector  ETV
vector 531341  Network.dyn_peer[54]  lookupTimeSig:vector  ETV
vector 531354  Network.dyn_peer[59]  lookupHopsSig:vector  ETV
vector 531355  Network.dyn_peer[59]  lookupStabilitySig:vector  ETV
vector 531356  Network.dyn_peer[59]  lookupTimeSig:vector  ETV
vector 531372  Network.dyn_peer[65]  lookupHopsSig:vector  ETV
vector 531373  Network.dyn_peer[65]  lookupStabilitySig:vector  ETV
vector 531374  Network.dyn_peer[65]  lookupTimeSig:vector  ETV
vector 531390  Network.dyn_peer[71]  lookupHopsSig:vector  ETV
vector 531391  Network.dyn_peer[71]  lookupStabilitySig:vector  ETV
vector 531392  Network.dyn_peer[71]  lookupTimeSig:vector  ETV
vector 531402  Network.dyn_peer[75]  lookupHopsSig:vector  ETV
vector 531403  Network.dyn_peer[75]  lookupStabilitySig:vector  ETV
vector 531404  Network.dyn_peer[75]  lookupTimeSig:vector  ETV
vector 531465  Network.dyn_peer[96]  lookupHopsSig:vector  ETV
vector 531466  Network.dyn_peer[96]  lookupStabilitySig:vector  ETV
vector 531467  Network.dyn_peer[96]  lookupTimeSig:vector  ETV
vector 531468  Network.dyn_peer[97]  lookupHopsSig:vector  ETV
vector 531469  Network.dyn_peer[97]  lookupStabilitySig:vector  ETV
vector 531470  Network.dyn_peer[97]  lookupTimeSig:vector  ETV
vector 531399  Network.dyn_peer[74]  lookupHopsSig:vector  ETV
vector 531400  Network.dyn_peer[74]  lookupStabilitySig:vector  ETV
vector 531401  Network.dyn_peer[74]  lookupTimeSig:vector  ETV
vector 531450  Network.dyn_peer[91]  lookupHopsSig:vector  ETV
vector 531451  Network.dyn_peer[91]  lookupStabilitySig:vector  ETV
vector 531452  Network.dyn_peer[91]  lookupTimeSig:vector  ETV
vector 531462  Network.dyn_peer[95]  lookupHopsSig:vector  ETV
vector 531463  Network.dyn_peer[95]  lookupStabilitySig:vector  ETV
vector 531464  Network.dyn_peer[95]  lookupTimeSig:vector  ETV
vector 531324  Network.dyn_peer[49]  lookupHopsSig:vector  ETV
vector 531325  Network.dyn_peer[49]  lookupStabilitySig:vector  ETV
vector 531326  Network.dyn_peer[49]  lookupTimeSig:vector  ETV
vector 531345  Network.dyn_peer[56]  lookupHopsSig:vector  ETV
vector 531346  Network.dyn_peer[56]  lookupStabilitySig:vector  ETV
vector 531347  Network.dyn_peer[56]  lookupTimeSig:vector  ETV
vector 531396  Network.dyn_peer[73]  lookupHopsSig:vector  ETV
vector 531397  Network.dyn_peer[73]  lookupStabilitySig:vector  ETV
vector 531398  Network.dyn_peer[73]  lookupTimeSig:vector  ETV
vector 531423  Network.dyn_peer[82]  lookupHopsSig:vector  ETV
vector 531424  Network.dyn_peer[82]  lookupStabilitySig:vector  ETV
vector 531425  Network.dyn_peer[82]  lookupTimeSig:vector  ETV
vector 531447  Network.dyn_peer[90]  lookupHopsSig:vector  ETV
vector 531448  Network.dyn_peer[90]  lookupStabilitySig:vector  ETV
vector 531449  Network.dyn_peer[90]  lookupTimeSig:vector  ETV
vector 531414  Network.dyn_peer[79]  lookupHopsSig:vector  ETV
vector 531415  Network.dyn_peer[79]  lookupStabilitySig:vector  ETV
vector 531416  Network.dyn_peer[79]  lookupTimeSig:vector  ETV
vector 531411  Network.dyn_peer[78]  lookupHopsSig:vector  ETV
vector 531412  Network.dyn_peer[78]  lookupStabilitySig:vector  ETV
vector 531413  Network.dyn_peer[78]  lookupTimeSig:vector  ETV
vector 531417  Network.dyn_peer[80]  lookupHopsSig:vector  ETV
vector 531418  Network.dyn_peer[80]  lookupStabilitySig:vector  ETV
vector 531419  Network.dyn_peer[80]  lookupTimeSig:vector  ETV
531177	802	20.401	4
531177	2639	21.801	13
531177	3166	22.304756680719	4
531177	3617	22.813206929228	4
531177	3942	23.416248257671	5
531178	802	20.401	0.19999998807907
531178	2639	21.801	0.43478262424469
531178	3166	22.304756680719	0.89189188927412
531178	3617	22.813206929228	0.93650793284178
531178	3942	23.416248257671	0.93243243545294
531179	802	20.401	0.4
531179	2639	21.801	1.4
531179	3166	22.304756680719	0.5
531179	3617	22.813206929228	0.5
531179	3942	23.416248257671	0.6
531180	807	20.402	4
531180	2016	21.302	8
531180	2863	22.006610967584	6
531180	3174	22.312764182372	2
531181	807	20.402	0.19999998807907
531181	2016	21.302	0.19999998807907
531181	2863	22.006610967584	0.77777777612209
531181	3174	22.312764182372	0.9473684206605
531182	807	20.402	0.4
531182	2016	21.302	0.9
531182	2863	22.006610967584	0.7
531182	3174	22.312764182372	0.3
531183	812	20.403	4
531183	2050	21.327557538392	8
531183	2668	21.829302402781	4
531184	812	20.403	0.19999998807907
531184	2050	21.327557538392	0.19999998807907
531184	2668	21.829302402781	0.82608695328236
531185	812	20.403	0.4
531185	2050	21.327557538392	0.9
531185	2668	21.829302402781	0.5
531186	25	20.004	0
531186	1279	20.71204693375	6
531186	1898	21.21367338199	4
531186	3464	22.616561976758	13
531187	25	20.004	1
531187	1279	20.71204693375	-0.20000004768372
531187	1898	21.21367338199	0.55555555224419
531187	3464	22.616561976758	0.7450980246067
531188	25	20.004	0
531188	1279	20.71204693375	0.7
531188	1898	21.21367338199	0.5
531188	3464	22.616561976758	1.4
531189	659	20.305	3
531189	2763	21.905	15
531189	3455	22.611950971556	6
531189	3685	22.915314096568	2
531189	3903	23.31889733082	3
531189	4078	23.721144633231	3
531189	4245	24.225277574328	4
531189	4322	24.53500281716	2
531189	4451	25.04167467239	4
531189	4510	25.345542927164	2
531190	659	20.305	0.39999997615814
531190	2763	21.905	0.4230769276619
531190	3455	22.611950971556	0.8823529407382
531190	3685	22.915314096568	0.97101449221373
531190	3903	23.31889733082	0.95945946127176
531190	4078	23.721144633231	0.96202531829476
531190	4245	24.225277574328	0.95348837226629
531190	4322	24.53500281716	0.97701149433851
531190	4451	25.04167467239	0.95652173832059
531190	4510	25.345542927164	0.97872340492904
531191	659	20.305	0.3
531191	2763	21.905	1.6
531191	3455	22.611950971556	0.7
531191	3685	22.915314096568	0.3
531191	3903	23.31889733082	0.4
531191	4078	23.721144633231	0.4
531191	4245	24.225277574328	0.5
531191	4322	24.53500281716	0.3
531191	4451	25.04167467239	0.5
531191	4510	25.345542927164	0.3
531192	35	20.006	0
531192	992	20.515344530522	4
531192	1911	21.220145670602	6
531192	2163	21.422129957497	1
531193	35	20.006	1
531193	992	20.515344530522	0.19999998807907
531193	1911	21.220145670602	0.33333331346512
531193	2163	21.422129957497	0.92307692021132
531194	35	20.006	0
531194	992	20.515344530522	0.5
531194	1911	21.220145670602	0.7
531194	2163	21.422129957497	0.2
531195	664	20.307	3
531195	2022	21.307	9
531195	3681	22.910159515976	15
531195	3899	23.316059226596	3
531195	3997	23.52175591251	1
531195	4269	24.330409342251	7
531195	4447	25.030691651432	6
531195	4484	25.238880207047	1
531195	4588	26.046546603403	7
531196	664	20.307	0.39999997615814
531196	2022	21.307	0.10000002384186
531196	3681	22.910159515976	0.7794117629528
531196	3899	23.316059226596	0.95945946127176
531196	3997	23.52175591251	0.98684210516512
531196	4269	24.330409342251	0.91860464960337
531196	4447	25.030691651432	0.93478260934353
531196	4484	25.238880207047	0.98924731183797
531196	4588	26.046546603403	0.92999999970198
531197	664	20.307	0.3
531197	2022	21.307	1
531197	3681	22.910159515976	1.6
531197	3899	23.316059226596	0.4
531197	3997	23.52175591251	0.2
531197	4269	24.330409342251	0.8
531197	4447	25.030691651432	0.7
531197	4484	25.238880207047	0.2
531197	4588	26.046546603403	0.8
531198	45	20.008	0
531198	1553	20.908	8
531198	3591	22.777638568289	12
531199	45	20.008	1
531199	1553	20.908	-0.33333337306976
531199	3591	22.777638568289	0.80645161867142
531200	45	20.008	0
531200	1553	20.908	0.9
531200	3591	22.777638568289	1.3
531201	519	20.209	2
531201	2272	21.509	12
531201	3461	22.61609321117	10
531201	3944	23.416309239867	7
531201	4242	24.219256960852	7
531201	4374	24.719637356526	4
531202	519	20.209	0.59999999403954
531202	2272	21.509	0.25
531202	3461	22.61609321117	0.80392156541348
531202	3944	23.416309239867	0.90540540218353
531202	4242	24.219256960852	0.91860464960337
531202	4374	24.719637356526	0.9545454531908
531203	519	20.209	0.2
531203	2272	21.509	1.3
531203	3461	22.61609321117	1.1
531203	3944	23.416309239867	0.8
531203	4242	24.219256960852	0.8
531203	4374	24.719637356526	0.5
531204	55	20.01	0
531204	1556	20.91	8
531204	3357	22.519746400089	15
531205	55	20.01	1
531205	1556	20.91	-0.14285719394684
531205	3357	22.519746400089	0.65116280317307
531206	55	20.01	0
531206	1556	20.91	0.9
531206	3357	22.519746400089	1.6
531207	62	20.011	0
531207	3185	22.319775224757	22
531208	62	20.011	1
531208	3185	22.319775224757	0.43589740991592
531209	62	20.011	0
531209	3185	22.319775224757	2.3
531210	672	20.312	3
531210	3683	22.912	25
531211	672	20.312	0.39999997615814
531211	3683	22.912	0.63235294818878
531212	672	20.312	0.3
531212	3683	22.912	2.6
531213	988	20.513	5
531213	2873	22.013	14
531213	3620	22.815822293825	7
531214	988	20.513	0
531214	2873	22.013	0.5
531214	3620	22.815822293825	0.88888888806105
531215	988	20.513	0.5
531215	2873	22.013	1.5
531215	3620	22.815822293825	0.8
531216	828	20.414	4
531216	2280	21.514	10
531216	2880	22.019756082423	4
531216	3807	23.121576279656	10
531216	4115	23.825273085127	6
531216	4299	24.431123047701	5
531216	4467	25.13508562467	6
531216	4556	25.742338985462	5
531216	4610	26.446097169223	6
531216	4629	26.946494989174	4
531217	828	20.414	0.19999998807907
531217	2280	21.514	0.41176468133926
531217	2880	22.019756082423	0.85714285075665
531217	3807	23.121576279656	0.86111110448837
531217	4115	23.825273085127	0.92592592537403
531217	4299	24.431123047701	0.94252873584628
531217	4467	25.13508562467	0.93478260934353
531217	4556	25.742338985462	0.94897959008813
531217	4610	26.446097169223	0.9411764703691
531217	4629	26.946494989174	0.96078431233764
531218	828	20.414	0.4
531218	2280	21.514	1.1
531218	2880	22.019756082423	0.5
531218	3807	23.121576279656	1.1
531218	4115	23.825273085127	0.7
531218	4299	24.431123047701	0.6
531218	4467	25.13508562467	0.7
531218	4556	25.742338985462	0.6
531218	4610	26.446097169223	0.7
531218	4629	26.946494989174	0.5
531219	833	20.415	4
531219	2404	21.615	11
531219	3542	22.723276002486	10
531219	3810	23.124659592874	3
531219	4038	23.629583913906	4
531220	833	20.415	0.19999998807907
531220	2404	21.615	0.38888889551163
531220	3542	22.723276002486	0.8214285671711
531220	3810	23.124659592874	0.95833333209157
531220	4038	23.629583913906	0.9473684206605
531221	833	20.415	0.4
531221	2404	21.615	1.2
531221	3542	22.723276002486	1.1
531221	3810	23.124659592874	0.4
531221	4038	23.629583913906	0.5
531222	1289	20.716	7
531222	1902	21.216	4
531222	2653	21.81776517412	5
531222	3355	22.519698417138	6
531222	3863	23.226088763266	6
531222	4156	23.932832465074	6
531223	1289	20.716	-0.39999997615814
531223	1902	21.216	0.55555555224419
531223	2653	21.81776517412	0.78260870277882
531223	3355	22.519698417138	0.8604651093483
531223	3863	23.226088763266	0.91891892254353
531223	4156	23.932832465074	0.92682927101851
531224	1289	20.716	0.7
531224	1902	21.216	0.5
531224	2653	21.81776517412	0.6
531224	3355	22.519698417138	0.7
531224	3863	23.226088763266	0.7
531224	4156	23.932832465074	0.7
531225	998	20.517	5
531225	1565	20.917	3
531225	2661	21.821671574926	8
531225	3272	22.42215772421	5
531225	3756	23.02516084157	5
531225	4118	23.825810029658	7
531226	998	20.517	0
531226	1565	20.917	0.5714285671711
531226	2661	21.821671574926	0.65217390656471
531226	3272	22.42215772421	0.87804877758026
531226	3756	23.02516084157	0.92957746237516
531226	4118	23.825810029658	0.9135802462697
531227	998	20.517	0.5
531227	1565	20.917	0.4
531227	2661	21.821671574926	0.9
531227	3272	22.42215772421	0.6
531227	3756	23.02516084157	0.6
531227	4118	23.825810029658	0.8
531228	384	20.118	1
531228	2286	21.518	13
531228	2546	21.72401145571	1
531229	384	20.118	0.79999999701977
531229	2286	21.518	0.23529410362244
531229	2546	21.72401145571	0.95238095149398
531230	384	20.118	0.1
531230	2286	21.518	1.4
531230	2546	21.72401145571	0.2
531231	389	20.119	1
531231	1907	21.219	10
531231	2659	21.820900650532	5
531231	3360	22.52256001576	6
531232	389	20.119	0.79999999701977
531232	1907	21.219	-0.11111116409302
531232	2659	21.820900650532	0.78260870277882
531232	3360	22.52256001576	0.8604651093483
531233	389	20.119	0.1
531233	1907	21.219	1.1
531233	2659	21.820900650532	0.6
531233	3360	22.52256001576	0.7
531234	844	20.42	4
531234	2295	21.522487490354	10
531234	3545	22.723643615601	11
531234	3817	23.132483670072	3
531235	844	20.42	0.19999998807907
531235	2295	21.522487490354	0.41176468133926
531235	3545	22.723643615601	0.8035714328289
531235	3817	23.132483670072	0.95833333209157
531236	844	20.42	0.4
531236	2295	21.522487490354	1.1
531236	3545	22.723643615601	1.2
531236	3817	23.132483670072	0.4
531237	850	20.421	4
531237	2037	21.321	8
531237	2418	21.627467542441	2
531237	2794	21.933044899305	2
531237	3199	22.336865590218	3
531237	3563	22.746151821542	3
531238	850	20.421	0.19999998807907
531238	2037	21.321	0.19999998807907
531238	2418	21.627467542441	0.88888888806105
531238	2794	21.933044899305	0.92592592537403
531238	3199	22.336865590218	0.92499999701977
531238	3563	22.746151821542	0.9473684206605
531239	850	20.421	0.4
531239	2037	21.321	0.9
531239	2418	21.627467542441	0.3
531239	2794	21.933044899305	0.3
531239	3199	22.336865590218	0.4
531239	3563	22.746151821542	0.4
531240	855	20.422	4
531240	2293	21.522	10
531241	855	20.422	0.19999998807907
531241	2293	21.522	0.41176468133926
531242	855	20.422	0.4
531242	2293	21.522	1.1
531243	1010	20.523	5
531243	2043	21.323	7
531243	3999	23.523580193935	21
531243	4186	24.033031437255	4
531243	4274	24.340804079533	2
531244	1010	20.523	0
531244	2043	21.323	0.30000001192093
531244	3999	23.523580193935	0.72368422150612
531244	4186	24.033031437255	0.95238095149398
531244	4274	24.340804079533	0.97674418613315
531245	1010	20.523	0.5