file 871088 1369522470                                          
version 2
run Stability2-303-20130526-00:54:26-26640
attr configname Stability2
attr datetime 20130526-00:54:26
attr experiment Stability2
attr inifile omnetpp.ini
attr iterationvars $0=1000
attr iterationvars2 "$0=1000, $repetition=3"
attr measurement $0=1000
attr network Network
attr processid 26640
attr repetition 3
attr replication #3
attr resultdir results
attr runnumber 303
attr seedset 303

vector 912303  Network.churner  inGoingSizeSig:vector  ETV
vector 909318  Network.dyn_peer[5]  lookupHopsSig:vector  ETV
vector 909319  Network.dyn_peer[5]  lookupStabilitySig:vector  ETV
vector 909320  Network.dyn_peer[5]  lookupTimeSig:vector  ETV
vector 909321  Network.dyn_peer[6]  lookupHopsSig:vector  ETV
vector 909322  Network.dyn_peer[6]  lookupStabilitySig:vector  ETV
vector 909323  Network.dyn_peer[6]  lookupTimeSig:vector  ETV
vector 909333  Network.dyn_peer[10]  lookupHopsSig:vector  ETV
vector 909334  Network.dyn_peer[10]  lookupStabilitySig:vector  ETV
vector 909335  Network.dyn_peer[10]  lookupTimeSig:vector  ETV
vector 909342  Network.dyn_peer[13]  lookupHopsSig:vector  ETV
vector 909343  Network.dyn_peer[13]  lookupStabilitySig:vector  ETV
vector 909344  Network.dyn_peer[13]  lookupTimeSig:vector  ETV
vector 909387  Network.dyn_peer[28]  lookupHopsSig:vector  ETV
vector 909388  Network.dyn_peer[28]  lookupStabilitySig:vector  ETV
vector 909389  Network.dyn_peer[28]  lookupTimeSig:vector  ETV
vector 909393  Network.dyn_peer[30]  lookupHopsSig:vector  ETV
vector 909394  Network.dyn_peer[30]  lookupStabilitySig:vector  ETV
vector 909395  Network.dyn_peer[30]  lookupTimeSig:vector  ETV
vector 909405  Network.dyn_peer[34]  lookupHopsSig:vector  ETV
vector 909406  Network.dyn_peer[34]  lookupStabilitySig:vector  ETV
vector 909407  Network.dyn_peer[34]  lookupTimeSig:vector  ETV
vector 909435  Network.dyn_peer[44]  lookupHopsSig:vector  ETV
vector 909436  Network.dyn_peer[44]  lookupStabilitySig:vector  ETV
vector 909437  Network.dyn_peer[44]  lookupTimeSig:vector  ETV
vector 909453  Network.dyn_peer[50]  lookupHopsSig:vector  ETV
vector 909454  Network.dyn_peer[50]  lookupStabilitySig:vector  ETV
vector 909455  Network.dyn_peer[50]  lookupTimeSig:vector  ETV
vector 909543  Network.dyn_peer[80]  lookupHopsSig:vector  ETV
vector 909544  Network.dyn_peer[80]  lookupStabilitySig:vector  ETV
vector 909545  Network.dyn_peer[80]  lookupTimeSig:vector  ETV
vector 909579  Network.dyn_peer[92]  lookupHopsSig:vector  ETV
vector 909580  Network.dyn_peer[92]  lookupStabilitySig:vector  ETV
vector 909581  Network.dyn_peer[92]  lookupTimeSig:vector  ETV
vector 909336  Network.dyn_peer[11]  lookupHopsSig:vector  ETV
vector 909337  Network.dyn_peer[11]  lookupStabilitySig:vector  ETV
vector 909338  Network.dyn_peer[11]  lookupTimeSig:vector  ETV
vector 909351  Network.dyn_peer[16]  lookupHopsSig:vector  ETV
vector 909352  Network.dyn_peer[16]  lookupStabilitySig:vector  ETV
vector 909353  Network.dyn_peer[16]  lookupTimeSig:vector  ETV
vector 909354  Network.dyn_peer[17]  lookupHopsSig:vector  ETV
vector 909355  Network.dyn_peer[17]  lookupStabilitySig:vector  ETV
vector 909356  Network.dyn_peer[17]  lookupTimeSig:vector  ETV
vector 909363  Network.dyn_peer[20]  lookupHopsSig:vector  ETV
vector 909364  Network.dyn_peer[20]  lookupStabilitySig:vector  ETV
vector 909365  Network.dyn_peer[20]  lookupTimeSig:vector  ETV
vector 909366  Network.dyn_peer[21]  lookupHopsSig:vector  ETV
vector 909367  Network.dyn_peer[21]  lookupStabilitySig:vector  ETV
vector 909368  Network.dyn_peer[21]  lookupTimeSig:vector  ETV
vector 909396  Network.dyn_peer[31]  lookupHopsSig:vector  ETV
vector 909397  Network.dyn_peer[31]  lookupStabilitySig:vector  ETV
vector 909398  Network.dyn_peer[31]  lookupTimeSig:vector  ETV
vector 909402  Network.dyn_peer[33]  lookupHopsSig:vector  ETV
vector 909403  Network.dyn_peer[33]  lookupStabilitySig:vector  ETV
vector 909404  Network.dyn_peer[33]  lookupTimeSig:vector  ETV
vector 909408  Network.dyn_peer[35]  lookupHopsSig:vector  ETV
vector 909409  Network.dyn_peer[35]  lookupStabilitySig:vector  ETV
vector 909410  Network.dyn_peer[35]  lookupTimeSig:vector  ETV
vector 909414  Network.dyn_peer[37]  lookupHopsSig:vector  ETV
vector 909415  Network.dyn_peer[37]  lookupStabilitySig:vector  ETV
vector 909416  Network.dyn_peer[37]  lookupTimeSig:vector  ETV
vector 909426  Network.dyn_peer[41]  lookupHopsSig:vector  ETV
vector 909427  Network.dyn_peer[41]  lookupStabilitySig:vector  ETV
vector 909428  Network.dyn_peer[41]  lookupTimeSig:vector  ETV
vector 909492  Network.dyn_peer[63]  lookupHopsSig:vector  ETV
vector 909493  Network.dyn_peer[63]  lookupStabilitySig:vector  ETV
vector 909494  Network.dyn_peer[63]  lookupTimeSig:vector  ETV
vector 909498  Network.dyn_peer[65]  lookupHopsSig:vector  ETV
vector 909499  Network.dyn_peer[65]  lookupStabilitySig:vector  ETV
vector 909500  Network.dyn_peer[65]  lookupTimeSig:vector  ETV
vector 909804  Network.dyn_peer[167]  lookupHopsSig:vector  ETV
vector 909805  Network.dyn_peer[167]  lookupStabilitySig:vector  ETV
vector 909806  Network.dyn_peer[167]  lookupTimeSig:vector  ETV
vector 909507  Network.dyn_peer[68]  lookupHopsSig:vector  ETV
vector 909508  Network.dyn_peer[68]  lookupStabilitySig:vector  ETV
vector 909509  Network.dyn_peer[68]  lookupTimeSig:vector  ETV
vector 909510  Network.dyn_peer[69]  lookupHopsSig:vector  ETV
vector 909511  Network.dyn_peer[69]  lookupStabilitySig:vector  ETV
vector 909512  Network.dyn_peer[69]  lookupTimeSig:vector  ETV
vector 909513  Network.dyn_peer[70]  lookupHopsSig:vector  ETV
vector 909514  Network.dyn_peer[70]  lookupStabilitySig:vector  ETV
vector 909515  Network.dyn_peer[70]  lookupTimeSig:vector  ETV
vector 909516  Network.dyn_peer[71]  lookupHopsSig:vector  ETV
vector 909517  Network.dyn_peer[71]  lookupStabilitySig:vector  ETV
vector 909518  Network.dyn_peer[71]  lookupTimeSig:vector  ETV
vector 909567  Network.dyn_peer[88]  lookupHopsSig:vector  ETV
vector 909568  Network.dyn_peer[88]  lookupStabilitySig:vector  ETV
vector 909569  Network.dyn_peer[88]  lookupTimeSig:vector  ETV
vector 909591  Network.dyn_peer[96]  lookupHopsSig:vector  ETV
vector 909592  Network.dyn_peer[96]  lookupStabilitySig:vector  ETV
vector 909593  Network.dyn_peer[96]  lookupTimeSig:vector  ETV
vector 909306  Network.dyn_peer[1]  lookupHopsSig:vector  ETV
vector 909307  Network.dyn_peer[1]  lookupStabilitySig:vector  ETV
vector 909308  Network.dyn_peer[1]  lookupTimeSig:vector  ETV
vector 909309  Network.dyn_peer[2]  lookupHopsSig:vector  ETV
vector 909310  Network.dyn_peer[2]  lookupStabilitySig:vector  ETV
vector 909311  Network.dyn_peer[2]  lookupTimeSig:vector  ETV
vector 909609  Network.dyn_peer[102]  lookupHopsSig:vector  ETV
vector 909610  Network.dyn_peer[102]  lookupStabilitySig:vector  ETV
vector 909611  Network.dyn_peer[102]  lookupTimeSig:vector  ETV
vector 909324  Network.dyn_peer[7]  lookupHopsSig:vector  ETV
vector 909325  Network.dyn_peer[7]  lookupStabilitySig:vector  ETV
vector 909326  Network.dyn_peer[7]  lookupTimeSig:vector  ETV
vector 909327  Network.dyn_peer[8]  lookupHopsSig:vector  ETV
vector 909328  Network.dyn_peer[8]  lookupStabilitySig:vector  ETV
vector 909329  Network.dyn_peer[8]  lookupTimeSig:vector  ETV
vector 909651  Network.dyn_peer[116]  lookupHopsSig:vector  ETV
vector 909652  Network.dyn_peer[116]  lookupStabilitySig:vector  ETV
vector 909653  Network.dyn_peer[116]  lookupTimeSig:vector  ETV
vector 909654  Network.dyn_peer[117]  lookupHopsSig:vector  ETV
vector 909655  Network.dyn_peer[117]  lookupStabilitySig:vector  ETV
vector 909656  Network.dyn_peer[117]  lookupTimeSig:vector  ETV
vector 909420  Network.dyn_peer[39]  lookupHopsSig:vector  ETV
vector 909421  Network.dyn_peer[39]  lookupStabilitySig:vector  ETV
vector 909422  Network.dyn_peer[39]  lookupTimeSig:vector  ETV
vector 910020  Network.dyn_peer[239]  lookupHopsSig:vector  ETV
vector 910021  Network.dyn_peer[239]  lookupStabilitySig:vector  ETV
vector 910022  Network.dyn_peer[239]  lookupTimeSig:vector  ETV
vector 909741  Network.dyn_peer[146]  lookupHopsSig:vector  ETV
vector 909742  Network.dyn_peer[146]  lookupStabilitySig:vector  ETV
vector 909743  Network.dyn_peer[146]  lookupTimeSig:vector  ETV
vector 909444  Network.dyn_peer[47]  lookupHopsSig:vector  ETV
vector 909445  Network.dyn_peer[47]  lookupStabilitySig:vector  ETV
vector 909446  Network.dyn_peer[47]  lookupTimeSig:vector  ETV
vector 909450  Network.dyn_peer[49]  lookupHopsSig:vector  ETV
vector 909451  Network.dyn_peer[49]  lookupStabilitySig:vector  ETV
vector 909452  Network.dyn_peer[49]  lookupTimeSig:vector  ETV
vector 909459  Network.dyn_peer[52]  lookupHopsSig:vector  ETV
vector 909460  Network.dyn_peer[52]  lookupStabilitySig:vector  ETV
vector 909461  Network.dyn_peer[52]  lookupTimeSig:vector  ETV
vector 909474  Network.dyn_peer[57]  lookupHopsSig:vector  ETV
vector 909475  Network.dyn_peer[57]  lookupStabilitySig:vector  ETV
vector 909476  Network.dyn_peer[57]  lookupTimeSig:vector  ETV
vector 909810  Network.dyn_peer[169]  lookupHopsSig:vector  ETV
vector 909811  Network.dyn_peer[169]  lookupStabilitySig:vector  ETV
vector 909812  Network.dyn_peer[169]  lookupTimeSig:vector  ETV
vector 909813  Network.dyn_peer[170]  lookupHopsSig:vector  ETV
vector 909814  Network.dyn_peer[170]  lookupStabilitySig:vector  ETV
vector 909815  Network.dyn_peer[170]  lookupTimeSig:vector  ETV
vector 909519  Network.dyn_peer[72]  lookupHopsSig:vector  ETV
vector 909520  Network.dyn_peer[72]  lookupStabilitySig:vector  ETV
vector 909521  Network.dyn_peer[72]  lookupTimeSig:vector  ETV
vector 909525  Network.dyn_peer[74]  lookupHopsSig:vector  ETV
vector 909526  Network.dyn_peer[74]  lookupStabilitySig:vector  ETV
vector 909527  Network.dyn_peer[74]  lookupTimeSig:vector  ETV
vector 909540  Network.dyn_peer[79]  lookupHopsSig:vector  ETV
vector 909541  Network.dyn_peer[79]  lookupStabilitySig:vector  ETV
vector 909542  Network.dyn_peer[79]  lookupTimeSig:vector  ETV
vector 909555  Network.dyn_peer[84]  lookupHopsSig:vector  ETV
vector 909556  Network.dyn_peer[84]  lookupStabilitySig:vector  ETV
vector 909557  Network.dyn_peer[84]  lookupTimeSig:vector  ETV
vector 909558  Network.dyn_peer[85]  lookupHopsSig:vector  ETV
vector 909559  Network.dyn_peer[85]  lookupStabilitySig:vector  ETV
vector 909560  Network.dyn_peer[85]  lookupTimeSig:vector  ETV
vector 910161  Network.dyn_peer[286]  lookupHopsSig:vector  ETV
vector 910162  Network.dyn_peer[286]  lookupStabilitySig:vector  ETV
vector 910163  Network.dyn_peer[286]  lookupTimeSig:vector  ETV
vector 909597  Network.dyn_peer[98]  lookupHopsSig:vector  ETV
vector 909598  Network.dyn_peer[98]  lookupStabilitySig:vector  ETV
vector 909599  Network.dyn_peer[98]  lookupTimeSig:vector  ETV
vector 909303  Network.dyn_peer[0]  lookupHopsSig:vector  ETV
vector 909304  Network.dyn_peer[0]  lookupStabilitySig:vector  ETV
vector 909305  Network.dyn_peer[0]  lookupTimeSig:vector  ETV
vector 909330  Network.dyn_peer[9]  lookupHopsSig:vector  ETV
vector 909331  Network.dyn_peer[9]  lookupStabilitySig:vector  ETV
vector 909332  Network.dyn_peer[9]  lookupTimeSig:vector  ETV
vector 909633  Network.dyn_peer[110]  lookupHopsSig:vector  ETV
vector 909634  Network.dyn_peer[110]  lookupStabilitySig:vector  ETV
vector 909635  Network.dyn_peer[110]  lookupTimeSig:vector  ETV
vector 909642  Network.dyn_peer[113]  lookupHopsSig:vector  ETV
vector 909643  Network.dyn_peer[113]  lookupStabilitySig:vector  ETV
vector 909644  Network.dyn_peer[113]  lookupTimeSig:vector  ETV
vector 909345  Network.dyn_peer[14]  lookupHopsSig:vector  ETV
vector 909346  Network.dyn_peer[14]  lookupStabilitySig:vector  ETV
vector 909347  Network.dyn_peer[14]  lookupTimeSig:vector  ETV
vector 909978  Network.dyn_peer[225]  lookupHopsSig:vector  ETV
vector 909979  Network.dyn_peer[225]  lookupStabilitySig:vector  ETV
vector 909980  Network.dyn_peer[225]  lookupTimeSig:vector  ETV
vector 909384  Network.dyn_peer[27]  lookupHopsSig:vector  ETV
vector 909385  Network.dyn_peer[27]  lookupStabilitySig:vector  ETV
vector 909386  Network.dyn_peer[27]  lookupTimeSig:vector  ETV
vector 909390  Network.dyn_peer[29]  lookupHopsSig:vector  ETV
vector 909391  Network.dyn_peer[29]  lookupStabilitySig:vector  ETV
vector 909392  Network.dyn_peer[29]  lookupTimeSig:vector  ETV
vector 909399  Network.dyn_peer[32]  lookupHopsSig:vector  ETV
vector 909400  Network.dyn_peer[32]  lookupStabilitySig:vector  ETV
vector 909401  Network.dyn_peer[32]  lookupTimeSig:vector  ETV
vector 909720  Network.dyn_peer[139]  lookupHopsSig:vector  ETV
vector 909721  Network.dyn_peer[139]  lookupStabilitySig:vector  ETV
vector 909722  Network.dyn_peer[139]  lookupTimeSig:vector  ETV
vector 909423  Network.dyn_peer[40]  lookupHopsSig:vector  ETV
vector 909424  Network.dyn_peer[40]  lookupStabilitySig:vector  ETV
vector 909425  Network.dyn_peer[40]  lookupTimeSig:vector  ETV
vector 910323  Network.dyn_peer[340]  lookupHopsSig:vector  ETV
vector 910324  Network.dyn_peer[340]  lookupStabilitySig:vector  ETV
vector 910325  Network.dyn_peer[340]  lookupTimeSig:vector  ETV
vector 909438  Network.dyn_peer[45]  lookupHopsSig:vector  ETV
vector 909439  Network.dyn_peer[45]  lookupStabilitySig:vector  ETV
vector 909440  Network.dyn_peer[45]  lookupTimeSig:vector  ETV
vector 909441  Network.dyn_peer[46]  lookupHopsSig:vector  ETV
vector 909442  Network.dyn_peer[46]  lookupStabilitySig:vector  ETV
vector 909443  Network.dyn_peer[46]  lookupTimeSig:vector  ETV
vector 909765  Network.dyn_peer[154]  lookupHopsSig:vector  ETV
vector 909766  Network.dyn_peer[154]  lookupStabilitySig:vector  ETV
vector 909767  Network.dyn_peer[154]  lookupTimeSig:vector  ETV
vector 910071  Network.dyn_peer[256]  lookupHopsSig:vector  ETV
vector 910072  Network.dyn_peer[256]  lookupStabilitySig:vector  ETV
vector 910073  Network.dyn_peer[256]  lookupTimeSig:vector  ETV
vector 909786  Network.dyn_peer[161]  lookupHopsSig:vector  ETV
vector 909787  Network.dyn_peer[161]  lookupStabilitySig:vector  ETV
vector 909788  Network.dyn_peer[161]  lookupTimeSig:vector  ETV
vector 909807  Network.dyn_peer[168]  lookupHopsSig:vector  ETV
vector 909808  Network.dyn_peer[168]  lookupStabilitySig:vector  ETV
vector 909809  Network.dyn_peer[168]  lookupTimeSig:vector  ETV
vector 909549  Network.dyn_peer[82]  lookupHopsSig:vector  ETV
vector 909550  Network.dyn_peer[82]  lookupStabilitySig:vector  ETV
vector 909551  Network.dyn_peer[82]  lookupTimeSig:vector  ETV
vector 909873  Network.dyn_peer[190]  lookupHopsSig:vector  ETV
vector 909874  Network.dyn_peer[190]  lookupStabilitySig:vector  ETV
vector 909875  Network.dyn_peer[190]  lookupTimeSig:vector  ETV
vector 909588  Network.dyn_peer[95]  lookupHopsSig:vector  ETV
vector 909589  Network.dyn_peer[95]  lookupStabilitySig:vector  ETV
vector 909590  Network.dyn_peer[95]  lookupTimeSig:vector  ETV
vector 909909  Network.dyn_peer[202]  lookupHopsSig:vector  ETV
vector 909910  Network.dyn_peer[202]  lookupStabilitySig:vector  ETV
vector 909911  Network.dyn_peer[202]  lookupTimeSig:vector  ETV
vector 909615  Network.dyn_peer[104]  lookupHopsSig:vector  ETV
vector 909616  Network.dyn_peer[104]  lookupStabilitySig:vector  ETV
vector 909617  Network.dyn_peer[104]  lookupTimeSig:vector  ETV
vector 909666  Network.dyn_peer[121]  lookupHopsSig:vector  ETV
vector 909667  Network.dyn_peer[121]  lookupStabilitySig:vector  ETV
vector 909668  Network.dyn_peer[121]  lookupTimeSig:vector  ETV
vector 909372  Network.dyn_peer[23]  lookupHopsSig:vector  ETV
vector 909373  Network.dyn_peer[23]  lookupStabilitySig:vector  ETV
vector 909374  Network.dyn_peer[23]  lookupTimeSig:vector  ETV
vector 909375  Network.dyn_peer[24]  lookupHopsSig:vector  ETV
vector 909376  Network.dyn_peer[24]  lookupStabilitySig:vector  ETV
vector 909377  Network.dyn_peer[24]  lookupTimeSig:vector  ETV
vector 909381  Network.dyn_peer[26]  lookupHopsSig:vector  ETV
vector 909382  Network.dyn_peer[26]  lookupStabilitySig:vector  ETV
vector 909383  Network.dyn_peer[26]  lookupTimeSig:vector  ETV
vector 910017  Network.dyn_peer[238]  lookupHopsSig:vector  ETV
vector 910018  Network.dyn_peer[238]  lookupStabilitySig:vector  ETV
vector 910019  Network.dyn_peer[238]  lookupTimeSig:vector  ETV
vector 909429  Network.dyn_peer[42]  lookupHopsSig:vector  ETV
vector 909430  Network.dyn_peer[42]  lookupStabilitySig:vector  ETV
vector 909431  Network.dyn_peer[42]  lookupTimeSig:vector  ETV
vector 909465  Network.dyn_peer[54]  lookupHopsSig:vector  ETV
vector 909466  Network.dyn_peer[54]  lookupStabilitySig:vector  ETV
vector 909467  Network.dyn_peer[54]  lookupTimeSig:vector  ETV
vector 909468  Network.dyn_peer[55]  lookupHopsSig:vector  ETV
vector 909469  Network.dyn_peer[55]  lookupStabilitySig:vector  ETV
vector 909470  Network.dyn_peer[55]  lookupTimeSig:vector  ETV
vector 909480  Network.dyn_peer[59]  lookupHopsSig:vector  ETV
vector 909481  Network.dyn_peer[59]  lookupStabilitySig:vector  ETV
vector 909482  Network.dyn_peer[59]  lookupTimeSig:vector  ETV
vector 909486  Network.dyn_peer[61]  lookupHopsSig:vector  ETV
vector 909487  Network.dyn_peer[61]  lookupStabilitySig:vector  ETV
vector 909488  Network.dyn_peer[61]  lookupTimeSig:vector  ETV
vector 909789  Network.dyn_peer[162]  lookupHopsSig:vector  ETV
vector 909790  Network.dyn_peer[162]  lookupStabilitySig:vector  ETV
vector 909791  Network.dyn_peer[162]  lookupTimeSig:vector  ETV
vector 909801  Network.dyn_peer[166]  lookupHopsSig:vector  ETV
vector 909802  Network.dyn_peer[166]  lookupStabilitySig:vector  ETV
vector 909803  Network.dyn_peer[166]  lookupTimeSig:vector  ETV
vector 909546  Network.dyn_peer[81]  lookupHopsSig:vector  ETV
vector 909547  Network.dyn_peer[81]  lookupStabilitySig:vector  ETV
vector 909548  Network.dyn_peer[81]  lookupTimeSig:vector  ETV
vector 909315  Network.dyn_peer[4]  lookupHopsSig:vector  ETV
vector 909316  Network.dyn_peer[4]  lookupStabilitySig:vector  ETV
vector 909317  Network.dyn_peer[4]  lookupTimeSig:vector  ETV
vector 909639  Network.dyn_peer[112]  lookupHopsSig:vector  ETV
vector 909640  Network.dyn_peer[112]  lookupStabilitySig:vector  ETV
vector 909641  Network.dyn_peer[112]  lookupTimeSig:vector  ETV
vector 909357  Network.dyn_peer[18]  lookupHopsSig:vector  ETV
vector 909358  Network.dyn_peer[18]  lookupStabilitySig:vector  ETV
vector 909359  Network.dyn_peer[18]  lookupTimeSig:vector  ETV
vector 909702  Network.dyn_peer[133]  lookupHopsSig:vector  ETV
vector 909703  Network.dyn_peer[133]  lookupStabilitySig:vector  ETV
vector 909704  Network.dyn_peer[133]  lookupTimeSig:vector  ETV
vector 909708  Network.dyn_peer[135]  lookupHopsSig:vector  ETV
vector 909709  Network.dyn_peer[135]  lookupStabilitySig:vector  ETV
vector 909710  Network.dyn_peer[135]  lookupTimeSig:vector  ETV
vector 910644  Network.dyn_peer[447]  lookupHopsSig:vector  ETV
vector 910645  Network.dyn_peer[447]  lookupStabilitySig:vector  ETV
vector 910646  Network.dyn_peer[447]  lookupTimeSig:vector  ETV
vector 909462  Network.dyn_peer[53]  lookupHopsSig:vector  ETV
vector 909463  Network.dyn_peer[53]  lookupStabilitySig:vector  ETV
vector 909464  Network.dyn_peer[53]  lookupTimeSig:vector  ETV
vector 909489  Network.dyn_peer[62]  lookupHopsSig:vector  ETV
vector 909490  Network.dyn_peer[62]  lookupStabilitySig:vector  ETV
vector 909491  Network.dyn_peer[62]  lookupTimeSig:vector  ETV
vector 910107  Network.dyn_peer[268]  lookupHopsSig:vector  ETV
vector 910108  Network.dyn_peer[268]  lookupStabilitySig:vector  ETV
vector 910109  Network.dyn_peer[268]  lookupTimeSig:vector  ETV
vector 910407  Network.dyn_peer[368]  lookupHopsSig:vector  ETV
vector 910408  Network.dyn_peer[368]  lookupStabilitySig:vector  ETV
vector 910409  Network.dyn_peer[368]  lookupTimeSig:vector  ETV
vector 910413  Network.dyn_peer[370]  lookupHopsSig:vector  ETV
vector 910414  Network.dyn_peer[370]  lookupStabilitySig:vector  ETV
vector 910415  Network.dyn_peer[370]  lookupTimeSig:vector  ETV
vector 909846  Network.dyn_peer[181]  lookupHopsSig:vector  ETV
vector 909847  Network.dyn_peer[181]  lookupStabilitySig:vector  ETV
vector 909848  Network.dyn_peer[181]  lookupTimeSig:vector  ETV
vector 909552  Network.dyn_peer[83]  lookupHopsSig:vector  ETV
vector 909553  Network.dyn_peer[83]  lookupStabilitySig:vector  ETV
vector 909554  Network.dyn_peer[83]  lookupTimeSig:vector  ETV
vector 909900  Network.dyn_peer[199]  lookupHopsSig:vector  ETV
vector 909901  Network.dyn_peer[199]  lookupStabilitySig:vector  ETV
vector 909902  Network.dyn_peer[199]  lookupTimeSig:vector  ETV
vector 909627  Network.dyn_peer[108]  lookupHopsSig:vector  ETV
vector 909628  Network.dyn_peer[108]  lookupStabilitySig:vector  ETV
vector 909629  Network.dyn_peer[108]  lookupTimeSig:vector  ETV
vector 911151  Network.dyn_peer[616]  lookupHopsSig:vector  ETV
vector 911152  Network.dyn_peer[616]  lookupStabilitySig:vector  ETV
vector 911153  Network.dyn_peer[616]  lookupTimeSig:vector  ETV
vector 910860  Network.dyn_peer[519]  lookupHopsSig:vector  ETV
vector 910861  Network.dyn_peer[519]  lookupStabilitySig:vector  ETV
vector 910862  Network.dyn_peer[519]  lookupTimeSig:vector  ETV
vector 909378  Network.dyn_peer[25]  lookupHopsSig:vector  ETV
vector 909379  Network.dyn_peer[25]  lookupStabilitySig:vector  ETV
vector 909380  Network.dyn_peer[25]  lookupTimeSig:vector  ETV
vector 910581  Network.dyn_peer[426]  lookupHopsSig:vector  ETV
vector 910582  Network.dyn_peer[426]  lookupStabilitySig:vector  ETV
vector 910583  Network.dyn_peer[426]  lookupTimeSig:vector  ETV
vector 910005  Network.dyn_peer[234]  lookupHopsSig:vector  ETV
vector 910006  Network.dyn_peer[234]  lookupStabilitySig:vector  ETV
vector 910007  Network.dyn_peer[234]  lookupTimeSig:vector  ETV
vector 909447  Network.dyn_peer[48]  lookupHopsSig:vector  ETV
vector 909448  Network.dyn_peer[48]  lookupStabilitySig:vector  ETV
vector 909449  Network.dyn_peer[48]  lookupTimeSig:vector  ETV
vector 909774  Network.dyn_peer[157]  lookupHopsSig:vector  ETV
vector 909775  Network.dyn_peer[157]  lookupStabilitySig:vector  ETV
vector 909776  Network.dyn_peer[157]  lookupTimeSig:vector  ETV
vector 909795  Network.dyn_peer[164]  lookupHopsSig:vector  ETV
vector 909796  Network.dyn_peer[164]  lookupStabilitySig:vector  ETV
vector 909797  Network.dyn_peer[164]  lookupTimeSig:vector  ETV
vector 910401  Network.dyn_peer[366]  lookupHopsSig:vector  ETV
vector 910402  Network.dyn_peer[366]  lookupStabilitySig:vector  ETV
vector 910403  Network.dyn_peer[366]  lookupTimeSig:vector  ETV
vector 910110  Network.dyn_peer[269]  lookupHopsSig:vector  ETV
vector 910111  Network.dyn_peer[269]  lookupStabilitySig:vector  ETV
vector 910112  Network.dyn_peer[269]  lookupTimeSig:vector  ETV
vector 910116  Network.dyn_peer[271]  lookupHopsSig:vector  ETV
vector 910117  Network.dyn_peer[271]  lookupStabilitySig:vector  ETV
vector 910118  Network.dyn_peer[271]  lookupTimeSig:vector  ETV
vector 909819  Network.dyn_peer[172]  lookupHopsSig:vector  ETV
vector 909820  Network.dyn_peer[172]  lookupStabilitySig:vector  ETV
vector 909821  Network.dyn_peer[172]  lookupTimeSig:vector  ETV
vector 910722  Network.dyn_peer[473]  lookupHopsSig:vector  ETV
vector 910723  Network.dyn_peer[473]  lookupStabilitySig:vector  ETV
vector 910724  Network.dyn_peer[473]  lookupTimeSig:vector  ETV
vector 909528  Network.dyn_peer[75]  lookupHopsSig:vector  ETV
vector 909529  Network.dyn_peer[75]  lookupStabilitySig:vector  ETV
vector 909530  Network.dyn_peer[75]  lookupTimeSig:vector  ETV
vector 909534  Network.dyn_peer[77]  lookupHopsSig:vector  ETV
vector 909535  Network.dyn_peer[77]  lookupStabilitySig:vector  ETV
vector 909536  Network.dyn_peer[77]  lookupTimeSig:vector  ETV
vector 911037  Network.dyn_peer[578]  lookupHopsSig:vector  ETV
vector 911038  Network.dyn_peer[578]  lookupStabilitySig:vector  ETV
vector 911039  Network.dyn_peer[578]  lookupTimeSig:vector  ETV
vector 910479  Network.dyn_peer[392]  lookupHopsSig:vector  ETV
vector 910480  Network.dyn_peer[392]  lookupStabilitySig:vector  ETV
vector 910481  Network.dyn_peer[392]  lookupTimeSig:vector  ETV
vector 910779  Network.dyn_peer[492]  lookupHopsSig:vector  ETV
vector 910780  Network.dyn_peer[492]  lookupStabilitySig:vector  ETV
vector 910781  Network.dyn_peer[492]  lookupTimeSig:vector  ETV
vector 909582  Network.dyn_peer[93]  lookupHopsSig:vector  ETV
vector 909583  Network.dyn_peer[93]  lookupStabilitySig:vector  ETV
vector 909584  Network.dyn_peer[93]  lookupTimeSig:vector  ETV
vector 909612  Network.dyn_peer[103]  lookupHopsSig:vector  ETV
vector 909613  Network.dyn_peer[103]  lookupStabilitySig:vector  ETV
vector 909614  Network.dyn_peer[103]  lookupTimeSig:vector  ETV
vector 909621  Network.dyn_peer[106]  lookupHopsSig:vector  ETV
vector 909622  Network.dyn_peer[106]  lookupStabilitySig:vector  ETV
vector 909623  Network.dyn_peer[106]  lookupTimeSig:vector  ETV
vector 909636  Network.dyn_peer[111]  lookupHopsSig:vector  ETV
vector 909637  Network.dyn_peer[111]  lookupStabilitySig:vector  ETV
vector 909638  Network.dyn_peer[111]  lookupTimeSig:vector  ETV
vector 909348  Network.dyn_peer[15]  lookupHopsSig:vector  ETV
vector 909349  Network.dyn_peer[15]  lookupStabilitySig:vector  ETV
vector 909350  Network.dyn_peer[15]  lookupTimeSig:vector  ETV
vector 910248  Network.dyn_peer[315]  lookupHopsSig:vector  ETV
vector 910249  Network.dyn_peer[315]  lookupStabilitySig:vector  ETV
vector 910250  Network.dyn_peer[315]  lookupTimeSig:vector  ETV
vector 911469  Network.dyn_peer[722]  lookupHopsSig:vector  ETV
vector 911470  Network.dyn_peer[722]  lookupStabilitySig:vector  ETV
vector 911471  Network.dyn_peer[722]  lookupTimeSig:vector  ETV
vector 909693  Network.dyn_peer[130]  lookupHopsSig:vector  ETV
vector 909694  Network.dyn_peer[130]  lookupStabilitySig:vector  ETV
vector 909695  Network.dyn_peer[130]  lookupTimeSig:vector  ETV
vector 909696  Network.dyn_peer[131]  lookupHopsSig:vector  ETV
vector 909697  Network.dyn_peer[131]  lookupStabilitySig:vector  ETV
vector 909698  Network.dyn_peer[131]  lookupTimeSig:vector  ETV
vector 910608  Network.dyn_peer[435]  lookupHopsSig:vector  ETV
vector 910609  Network.dyn_peer[435]  lookupStabilitySig:vector  ETV
vector 910610  Network.dyn_peer[435]  lookupTimeSig:vector  ETV
vector 909411  Network.dyn_peer[36]  lookupHopsSig:vector  ETV
vector 909412  Network.dyn_peer[36]  lookupStabilitySig:vector  ETV
vector 909413  Network.dyn_peer[36]  lookupTimeSig:vector  ETV
vector 909417  Network.dyn_peer[38]  lookupHopsSig:vector  ETV
vector 909418  Network.dyn_peer[38]  lookupStabilitySig:vector  ETV
vector 909419  Network.dyn_peer[38]  lookupTimeSig:vector  ETV
vector 909432  Network.dyn_peer[43]  lookupHopsSig:vector  ETV
vector 909433  Network.dyn_peer[43]  lookupStabilitySig:vector  ETV
vector 909434  Network.dyn_peer[43]  lookupTimeSig:vector  ETV
vector 910941  Network.dyn_peer[546]  lookupHopsSig:vector  ETV
vector 910942  Network.dyn_peer[546]  lookupStabilitySig:vector  ETV
vector 910943  Network.dyn_peer[546]  lookupTimeSig:vector  ETV
vector 909477  Network.dyn_peer[58]  lookupHopsSig:vector  ETV
vector 909478  Network.dyn_peer[58]  lookupStabilitySig:vector  ETV
vector 909479  Network.dyn_peer[58]  lookupTimeSig:vector  ETV
vector 910995  Network.dyn_peer[564]  lookupHopsSig:vector  ETV
vector 910996  Network.dyn_peer[564]  lookupStabilitySig:vector  ETV
vector 910997  Network.dyn_peer[564]  lookupTimeSig:vector  ETV
vector 909504  Network.dyn_peer[67]  lookupHopsSig:vector  ETV
vector 909505  Network.dyn_peer[67]  lookupStabilitySig:vector  ETV
vector 909506  Network.dyn_peer[67]  lookupTimeSig:vector  ETV
vector 910164  Network.dyn_peer[287]  lookupHopsSig:vector  ETV
vector 910165  Network.dyn_peer[287]  lookupStabilitySig:vector  ETV
vector 910166  Network.dyn_peer[287]  lookupTimeSig:vector  ETV
vector 909594  Network.dyn_peer[97]  lookupHopsSig:vector  ETV
vector 909595  Network.dyn_peer[97]  lookupStabilitySig:vector  ETV
vector 909596  Network.dyn_peer[97]  lookupTimeSig:vector  ETV
vector 909600  Network.dyn_peer[99]  lookupHopsSig:vector  ETV
vector 909601  Network.dyn_peer[99]  lookupStabilitySig:vector  ETV
vector 909602  Network.dyn_peer[99]  lookupTimeSig:vector  ETV
vector 910524  Network.dyn_peer[407]  lookupHopsSig:vector  ETV
vector 910525  Network.dyn_peer[407]  lookupStabilitySig:vector  ETV
vector 910526  Network.dyn_peer[407]  lookupTimeSig:vector  ETV
vector 910827  Network.dyn_peer[508]  lookupHopsSig:vector  ETV
vector 910828  Network.dyn_peer[508]  lookupStabilitySig:vector  ETV
vector 910829  Network.dyn_peer[508]  lookupTimeSig:vector  ETV
vector 911532  Network.dyn_peer[743]  lookupHopsSig:vector  ETV
vector 911533  Network.dyn_peer[743]  lookupStabilitySig:vector  ETV
vector 911534  Network.dyn_peer[743]  lookupTimeSig:vector  ETV
vector 909771  Network.dyn_peer[156]  lookupHopsSig:vector  ETV
vector 909772  Network.dyn_peer[156]  lookupStabilitySig:vector  ETV
vector 909773  Network.dyn_peer[156]  lookupTimeSig:vector  ETV
vector 911586  Network.dyn_peer[761]  lookupHopsSig:vector  ETV
vector 911587  Network.dyn_peer[761]  lookupStabilitySig:vector  ETV
vector 911588  Network.dyn_peer[761]  lookupTimeSig:vector  ETV
vector 910089  Network.dyn_peer[262]  lookupHopsSig:vector  ETV
vector 910090  Network.dyn_peer[262]  lookupStabilitySig:vector  ETV
vector 910091  Network.dyn_peer[262]  lookupTimeSig:vector  ETV
vector 910098  Network.dyn_peer[265]  lookupHopsSig:vector  ETV
vector 910099  Network.dyn_peer[265]  lookupStabilitySig:vector  ETV
vector 910100  Network.dyn_peer[265]  lookupTimeSig:vector  ETV
vector 909894  Network.dyn_peer[197]  lookupHopsSig:vector  ETV
vector 909895  Network.dyn_peer[197]  lookupStabilitySig:vector  ETV
vector 909896  Network.dyn_peer[197]  lookupTimeSig:vector  ETV
vector 909624  Network.dyn_peer[107]  lookupHopsSig:vector  ETV
vector 909625  Network.dyn_peer[107]  lookupStabilitySig:vector  ETV
vector 909626  Network.dyn_peer[107]  lookupTimeSig:vector  ETV