version 2
run Stability2-94-20130526-00:51:34-26640
attr configname Stability2
attr datetime 20130526-00:51:34
attr experiment Stability2
attr inifile omnetpp.ini
attr iterationvars $0=40
attr iterationvars2 "$0=40, $repetition=4"
attr measurement $0=40
attr network Network
attr processid 26640
attr repetition 4
attr replication #4
attr resultdir results
attr runnumber 94
attr seedset 94

vector 285094  Network.churner  inGoingSizeSig:vector  ETV
vector 282100  Network.dyn_peer[2]  lookupHopsSig:vector  ETV
vector 282101  Network.dyn_peer[2]  lookupStabilitySig:vector  ETV
vector 282102  Network.dyn_peer[2]  lookupTimeSig:vector  ETV
vector 282124  Network.dyn_peer[10]  lookupHopsSig:vector  ETV
vector 282125  Network.dyn_peer[10]  lookupStabilitySig:vector  ETV
vector 282126  Network.dyn_peer[10]  lookupTimeSig:vector  ETV
vector 282127  Network.dyn_peer[11]  lookupHopsSig:vector  ETV
vector 282128  Network.dyn_peer[11]  lookupStabilitySig:vector  ETV
vector 282129  Network.dyn_peer[11]  lookupTimeSig:vector  ETV
vector 282136  Network.dyn_peer[14]  lookupHopsSig:vector  ETV
vector 282137  Network.dyn_peer[14]  lookupStabilitySig:vector  ETV
vector 282138  Network.dyn_peer[14]  lookupTimeSig:vector  ETV
vector 282154  Network.dyn_peer[20]  lookupHopsSig:vector  ETV
vector 282155  Network.dyn_peer[20]  lookupStabilitySig:vector  ETV
vector 282156  Network.dyn_peer[20]  lookupTimeSig:vector  ETV
vector 282193  Network.dyn_peer[33]  lookupHopsSig:vector  ETV
vector 282194  Network.dyn_peer[33]  lookupStabilitySig:vector  ETV
vector 282195  Network.dyn_peer[33]  lookupTimeSig:vector  ETV
vector 282208  Network.dyn_peer[38]  lookupHopsSig:vector  ETV
vector 282209  Network.dyn_peer[38]  lookupStabilitySig:vector  ETV
vector 282210  Network.dyn_peer[38]  lookupTimeSig:vector  ETV
vector 282115  Network.dyn_peer[7]  lookupHopsSig:vector  ETV
vector 282116  Network.dyn_peer[7]  lookupStabilitySig:vector  ETV
vector 282117  Network.dyn_peer[7]  lookupTimeSig:vector  ETV
vector 282139  Network.dyn_peer[15]  lookupHopsSig:vector  ETV
vector 282140  Network.dyn_peer[15]  lookupStabilitySig:vector  ETV
vector 282141  Network.dyn_peer[15]  lookupTimeSig:vector  ETV
vector 282151  Network.dyn_peer[19]  lookupHopsSig:vector  ETV
vector 282152  Network.dyn_peer[19]  lookupStabilitySig:vector  ETV
vector 282153  Network.dyn_peer[19]  lookupTimeSig:vector  ETV
vector 282163  Network.dyn_peer[23]  lookupHopsSig:vector  ETV
vector 282164  Network.dyn_peer[23]  lookupStabilitySig:vector  ETV
vector 282165  Network.dyn_peer[23]  lookupTimeSig:vector  ETV
vector 282184  Network.dyn_peer[30]  lookupHopsSig:vector  ETV
vector 282185  Network.dyn_peer[30]  lookupStabilitySig:vector  ETV
vector 282186  Network.dyn_peer[30]  lookupTimeSig:vector  ETV
vector 282199  Network.dyn_peer[35]  lookupHopsSig:vector  ETV
vector 282200  Network.dyn_peer[35]  lookupStabilitySig:vector  ETV
vector 282201  Network.dyn_peer[35]  lookupTimeSig:vector  ETV
vector 282094  Network.dyn_peer[0]  lookupHopsSig:vector  ETV
vector 282095  Network.dyn_peer[0]  lookupStabilitySig:vector  ETV
vector 282096  Network.dyn_peer[0]  lookupTimeSig:vector  ETV
vector 282106  Network.dyn_peer[4]  lookupHopsSig:vector  ETV
vector 282107  Network.dyn_peer[4]  lookupStabilitySig:vector  ETV
vector 282108  Network.dyn_peer[4]  lookupTimeSig:vector  ETV
vector 282133  Network.dyn_peer[13]  lookupHopsSig:vector  ETV
vector 282134  Network.dyn_peer[13]  lookupStabilitySig:vector  ETV
vector 282135  Network.dyn_peer[13]  lookupTimeSig:vector  ETV
vector 282148  Network.dyn_peer[18]  lookupHopsSig:vector  ETV
vector 282149  Network.dyn_peer[18]  lookupStabilitySig:vector  ETV
vector 282150  Network.dyn_peer[18]  lookupTimeSig:vector  ETV
vector 282181  Network.dyn_peer[29]  lookupHopsSig:vector  ETV
vector 282182  Network.dyn_peer[29]  lookupStabilitySig:vector  ETV
vector 282183  Network.dyn_peer[29]  lookupTimeSig:vector  ETV
vector 282109  Network.dyn_peer[5]  lookupHopsSig:vector  ETV
vector 282110  Network.dyn_peer[5]  lookupStabilitySig:vector  ETV
vector 282111  Network.dyn_peer[5]  lookupTimeSig:vector  ETV
vector 282118  Network.dyn_peer[8]  lookupHopsSig:vector  ETV
vector 282119  Network.dyn_peer[8]  lookupStabilitySig:vector  ETV
vector 282120  Network.dyn_peer[8]  lookupTimeSig:vector  ETV
vector 282169  Network.dyn_peer[25]  lookupHopsSig:vector  ETV
vector 282170  Network.dyn_peer[25]  lookupStabilitySig:vector  ETV
vector 282171  Network.dyn_peer[25]  lookupTimeSig:vector  ETV
vector 282190  Network.dyn_peer[32]  lookupHopsSig:vector  ETV
vector 282191  Network.dyn_peer[32]  lookupStabilitySig:vector  ETV
vector 282192  Network.dyn_peer[32]  lookupTimeSig:vector  ETV
vector 282196  Network.dyn_peer[34]  lookupHopsSig:vector  ETV
vector 282197  Network.dyn_peer[34]  lookupStabilitySig:vector  ETV
vector 282198  Network.dyn_peer[34]  lookupTimeSig:vector  ETV
vector 282097  Network.dyn_peer[1]  lookupHopsSig:vector  ETV
vector 282098  Network.dyn_peer[1]  lookupStabilitySig:vector  ETV
vector 282099  Network.dyn_peer[1]  lookupTimeSig:vector  ETV
vector 282121  Network.dyn_peer[9]  lookupHopsSig:vector  ETV
vector 282122  Network.dyn_peer[9]  lookupStabilitySig:vector  ETV
vector 282123  Network.dyn_peer[9]  lookupTimeSig:vector  ETV
vector 282142  Network.dyn_peer[16]  lookupHopsSig:vector  ETV
vector 282143  Network.dyn_peer[16]  lookupStabilitySig:vector  ETV
vector 282144  Network.dyn_peer[16]  lookupTimeSig:vector  ETV
vector 282145  Network.dyn_peer[17]  lookupHopsSig:vector  ETV
vector 282146  Network.dyn_peer[17]  lookupStabilitySig:vector  ETV
vector 282147  Network.dyn_peer[17]  lookupTimeSig:vector  ETV
vector 282172  Network.dyn_peer[26]  lookupHopsSig:vector  ETV
vector 282173  Network.dyn_peer[26]  lookupStabilitySig:vector  ETV
vector 282174  Network.dyn_peer[26]  lookupTimeSig:vector  ETV
vector 282178  Network.dyn_peer[28]  lookupHopsSig:vector  ETV
vector 282179  Network.dyn_peer[28]  lookupStabilitySig:vector  ETV
vector 282180  Network.dyn_peer[28]  lookupTimeSig:vector  ETV
vector 282202  Network.dyn_peer[36]  lookupHopsSig:vector  ETV
vector 282203  Network.dyn_peer[36]  lookupStabilitySig:vector  ETV
vector 282204  Network.dyn_peer[36]  lookupTimeSig:vector  ETV
vector 282211  Network.dyn_peer[39]  lookupHopsSig:vector  ETV
vector 282212  Network.dyn_peer[39]  lookupStabilitySig:vector  ETV
vector 282213  Network.dyn_peer[39]  lookupTimeSig:vector  ETV
vector 282112  Network.dyn_peer[6]  lookupHopsSig:vector  ETV
vector 282113  Network.dyn_peer[6]  lookupStabilitySig:vector  ETV
vector 282114  Network.dyn_peer[6]  lookupTimeSig:vector  ETV
vector 282205  Network.dyn_peer[37]  lookupHopsSig:vector  ETV
vector 282206  Network.dyn_peer[37]  lookupStabilitySig:vector  ETV
vector 282207  Network.dyn_peer[37]  lookupTimeSig:vector  ETV
vector 282160  Network.dyn_peer[22]  lookupHopsSig:vector  ETV
vector 282161  Network.dyn_peer[22]  lookupStabilitySig:vector  ETV
vector 282162  Network.dyn_peer[22]  lookupTimeSig:vector  ETV
vector 282187  Network.dyn_peer[31]  lookupHopsSig:vector  ETV
vector 282188  Network.dyn_peer[31]  lookupStabilitySig:vector  ETV
vector 282189  Network.dyn_peer[31]  lookupTimeSig:vector  ETV
vector 282166  Network.dyn_peer[24]  lookupHopsSig:vector  ETV
vector 282167  Network.dyn_peer[24]  lookupStabilitySig:vector  ETV
vector 282168  Network.dyn_peer[24]  lookupTimeSig:vector  ETV
vector 282103  Network.dyn_peer[3]  lookupHopsSig:vector  ETV
vector 282104  Network.dyn_peer[3]  lookupStabilitySig:vector  ETV
vector 282105  Network.dyn_peer[3]  lookupTimeSig:vector  ETV
vector 282175  Network.dyn_peer[27]  lookupHopsSig:vector  ETV
vector 282176  Network.dyn_peer[27]  lookupStabilitySig:vector  ETV
vector 282177  Network.dyn_peer[27]  lookupTimeSig:vector  ETV
vector 282130  Network.dyn_peer[12]  lookupHopsSig:vector  ETV
vector 282131  Network.dyn_peer[12]  lookupStabilitySig:vector  ETV
vector 282132  Network.dyn_peer[12]  lookupTimeSig:vector  ETV
vector 282157  Network.dyn_peer[21]  lookupHopsSig:vector  ETV
vector 282158  Network.dyn_peer[21]  lookupStabilitySig:vector  ETV
vector 282159  Network.dyn_peer[21]  lookupTimeSig:vector  ETV
282094	235	20.201	2
282094	568	20.701	4
282094	882	21.206634027486	4
282094	1093	21.709984074943	4
282094	1185	22.013570409436	2
282094	1243	22.318736581548	2
282094	1278	22.622273521776	2
282094	1312	23.422772116317	7
282095	235	20.201	0.59999999403954
282095	568	20.701	0.19999998807907
282095	882	21.206634027486	0.77777777612209
282095	1093	21.709984074943	0.85185185074806
282095	1185	22.013570409436	0.93939393758774
282095	1243	22.318736581548	0.9473684206605
282095	1278	22.622273521776	0.95121951401234
282095	1312	23.422772116317	0.84090909361839
282096	235	20.201	0.2
282096	568	20.701	0.5
282096	882	21.206634027486	0.5
282096	1093	21.709984074943	0.5
282096	1185	22.013570409436	0.3
282096	1243	22.318736581548	0.3
282096	1278	22.622273521776	0.3
282096	1312	23.422772116317	0.8
282097	369	20.402	4
282097	763	21.002	5
282097	1091	21.70855311437	6
282097	1206	22.112740969955	3
282098	369	20.402	0.19999998807907
282098	763	21.002	0.375
282098	1091	21.70855311437	0.77777777612209
282098	1206	22.112740969955	0.9142857119441
282099	369	20.402	0.4
282099	763	21.002	0.6
282099	1091	21.70855311437	0.7
282099	1206	22.112740969955	0.4
282100	24	20.003	0
282100	571	20.703	6
282100	776	21.012876783106	2
282101	24	20.003	1
282101	571	20.703	-0.20000004768372
282101	776	21.012876783106	0.77777777612209
282102	24	20.003	0
282102	571	20.703	0.7
282102	776	21.012876783106	0.3
282103	700	20.904	9
282103	925	21.304	3
282103	1055	21.612122037583	2
282103	1133	21.82415465189	1
282104	700	20.904	-0.5
282104	925	21.304	0.83333332836628
282104	1055	21.612122037583	0.91304347664118
282104	1133	21.82415465189	0.96551724150777
282105	700	20.904	0.9
282105	925	21.304	0.4
282105	1055	21.612122037583	0.3
282105	1133	21.82415465189	0.2
282106	244	20.205	2
282106	927	21.305	10
282106	1050	21.610486501934	2
282106	1181	22.011719820975	3
282106	1240	22.311749639737	2
282107	244	20.205	0.59999999403954
282107	927	21.305	0.44444441795349
282107	1050	21.610486501934	0.91304347664118
282107	1181	22.011719820975	0.90909090638161
282107	1240	22.311749639737	0.94594594463706
282108	244	20.205	0.2
282108	927	21.305	1.1
282108	1050	21.610486501934	0.3
282108	1181	22.011719820975	0.4
282108	1240	22.311749639737	0.3
282109	305	20.306	3
282109	971	21.406	10
282110	305	20.306	0.39999997615814
282110	971	21.406	0.4736841917038
282111	305	20.306	0.3
282111	971	21.406	1.1
282112	462	20.507	5
282112	838	21.110475555139	5
282113	462	20.507	0
282113	838	21.110475555139	0.64285713434219
282114	462	20.507	0.5
282114	838	21.110475555139	0.6
282115	176	20.108	1
282115	380	20.408	2
282115	774	21.011146626588	5
282116	176	20.108	0.79999999701977
282116	380	20.408	0.59999999403954
282116	774	21.011146626588	0.375
282117	176	20.108	0.1
282117	380	20.408	0.3
282117	774	21.011146626588	0.6
282118	313	20.309	3
282118	836	21.109	7
282118	940	21.318868981558	1
282118	1129	21.821919305559	4
282118	1226	22.22517055051	3
282119	313	20.309	0.39999997615814
282119	836	21.109	0.5
282119	940	21.318868981558	0.94444444403052
282119	1129	21.821919305559	0.85714285075665
282119	1226	22.22517055051	0.91666666418314
282120	313	20.309	0.3
282120	836	21.109	0.8
282120	940	21.318868981558	0.2
282120	1129	21.821919305559	0.5
282120	1226	22.22517055051	0.4
282121	386	20.41	4
282121	641	20.81	3
282121	1209	22.117174830038	12
282121	1260	22.422172059076	2
282122	386	20.41	0.19999998807907
282122	641	20.81	0.39999997615814
282122	1209	22.117174830038	0.66666665673256
282122	1260	22.422172059076	0.94871794804931
282123	386	20.41	0.4
282123	641	20.81	0.4
282123	1209	22.117174830038	1.3
282123	1260	22.422172059076	0.3
282124	55	20.011	0
282124	840	21.111	10
282124	1052	21.611296900288	4
282125	55	20.011	1
282125	840	21.111	0.28571426868439
282125	1052	21.611296900288	0.82608695328236
282126	55	20.011	0
282126	840	21.111	1.1
282126	1052	21.611296900288	0.5
282127	62	20.012	0
282127	710	20.912	8
282127	1017	21.512884570174	5
282128	62	20.012	1
282128	710	20.912	-0.33333337306976
282128	1017	21.512884570174	0.76190476119518
282129	62	20.012	0
282129	710	20.912	0.9
282129	1017	21.512884570174	0.6
282130	892	21.213	12
282130	1125	21.813	5
282131	892	21.213	0.33333331346512
282131	1125	21.813	0.81481482088566
282132	892	21.213	1.2
282132	1125	21.813	0.6
282133	259	20.214	2
282133	520	20.614	3
282133	793	21.028179812801	3
282133	1115	21.741916695691	4
282133	1252	22.341961664487	5
282133	1284	22.65674757576	2
282134	259	20.214	0.59999999403954
282134	520	20.614	0.39999997615814
282134	793	21.028179812801	0.69999998807907
282134	1115	21.741916695691	0.85185185074806
282134	1252	22.341961664487	0.86842104792595
282134	1284	22.65674757576	0.95121951401234
282135	259	20.214	0.2
282135	520	20.614	0.4
282135	793	21.028179812801	0.4
282135	1115	21.741916695691	0.5
282135	1252	22.341961664487	0.6
282135	1284	22.65674757576	0.3
282136	75	20.015	0
282136	587	20.715	6
282136	1131	21.822359181228	10
282137	75	20.015	1
282137	587	20.715	-0.20000004768372
282137	1131	21.822359181228	0.64285713434219
282138	75	20.015	0
282138	587	20.715	0.7
282138	1131	21.822359181228	1.1
282139	189	20.116	1
282139	524	20.616	4
282139	787	21.023198872281	3
282140	189	20.116	0.79999999701977
282140	524	20.616	0.19999998807907
282140	787	21.023198872281	0.69999998807907
282141	189	20.116	0.1
282141	524	20.616	0.5
282141	787	21.023198872281	0.4
282142	398	20.417	4
282142	526	20.617	1
282142	746	20.934054502498	2
282142	1075	21.638123187141	6
282143	398	20.417	0.19999998807907
282143	526	20.617	0.79999999701977
282143	746	20.934054502498	0.66666665673256
282143	1075	21.638123187141	0.75
282144	398	20.417	0.4
282144	526	20.617	0.2
282144	746	20.934054502498	0.3
282144	1075	21.638123187141	0.7
282145	404	20.418	4
282145	896	21.218	7
282145	1135	21.82486417716	5
282145	1215	22.129817936817	2
282145	1248	22.337260089147	1
282146	404	20.418	0.19999998807907
282146	896	21.218	0.61111110448837
282146	1135	21.82486417716	0.82758620381355
282146	1215	22.129817936817	0.94444444403052
282146	1248	22.337260089147	0.97368421033025
282147	404	20.418	0.4
282147	896	21.218	0.8
282147	1135	21.82486417716	0.6
282147	1215	22.129817936817	0.3
282147	1248	22.337260089147	0.2
282148	268	20.219	2
282148	1024	21.519	12
282148	1102	21.722129703872	1
282148	1161	21.925934192808	1
282148	1228	22.226789126619	2
282148	1290	22.727884831069	4
282148	1309	23.329098582534	5
282149	268	20.219	0.59999999403954
282149	1024	21.519	0.45454543828964
282149	1102	21.722129703872	0.96296296268702
282149	1161	21.925934192808	0.96774193644524
282149	1228	22.226789126619	0.94444444403052
282149	1290	22.727884831069	0.90476190298796
282149	1309	23.329098582534	0.88372092694044
282150	268	20.219	0.2
282150	1024	21.519	1.3
282150	1102	21.722129703872	0.2
282150	1161	21.925934192808	0.2
282150	1228	22.226789126619	0.3
282150	1290	22.727884831069	0.5
282150	1309	23.329098582534	0.6
282151	197	20.12	1
282151	723	20.925863480584	7
282151	1077	21.639563788897	6
282152	197	20.12	0.79999999701977
282152	723	20.925863480584	-0.16666662693024
282152	1077	21.639563788897	0.75
282153	197	20.12	0.1
282153	723	20.925863480584	0.8
282153	1077	21.639563788897	0.7
282154	97	20.021	0
282154	407	20.421	3
282154	857	21.129404751314	6
282155	97	20.021	1
282155	407	20.421	0.39999997615814
282155	857	21.129404751314	0.59999999403954
282156	97	20.021	0
282156	407	20.421	0.4
282156	857	21.129404751314	0.7
282157	903	21.222	12
282157	1063	21.622	3
282157	1166	21.928313010039	2
282158	903	21.222	0.33333331346512
282158	1063	21.622	0.875
282158	1166	21.928313010039	0.93548387289047
282159	903	21.222	1.2
282159	1063	21.622	0.4
282159	1166	21.928313010039	0.3
282160	597	20.723	7
282160	948	21.328788105193	5
282160	1073	21.635542208589	2
282160	1198	22.040171352843	3
282161	597	20.723	-0.39999997615814
282161	948	21.328788105193	0.72222220897675
282161	1073	21.635542208589	0.91666666418314
282161	1198	22.040171352843	0.91176470369101
282162	597	20.723	0.7
282162	948	21.328788105193	0.6
282162	1073	21.635542208589	0.3
282162	1198	22.040171352843	0.4
282163	205	20.124	1
282163	411	20.424	2
282163	744	20.933913533504	4
282164	205	20.124	0.79999999701977
282164	411	20.424	0.59999999403954
282164	744	20.933913533504	0.33333331346512
282165	205	20.124	0.1
282165	411	20.424	0.3
282165	744	20.933913533504	0.5
282166	661	20.825	8
282166	789	21.025	1
282167	661	20.825	-0.60000002384186
282167	789	21.025	0.89999999850988
282168	661	20.825	0.8
282168	789	21.025	0.2
282169	337	20.326	3
282169	602	20.726	3
282169	806	21.034198997362	2
282170	337	20.326	0.39999997615814
282170	602	20.726	0.39999997615814
282170	806	21.034198997362	0.83333332836628
282171	337	20.326	0.3
282171	602	20.726	0.4
282171	806	21.034198997362	0.3
282172	419	20.427	4
282172	604	20.727	2
282172	730	20.928045919405	1
282172	1110	21.729563639809	7
282172	1191	22.02960915202	2
282173	419	20.427	0.19999998807907
282173	604	20.727	0.59999999403954
282173	730	20.928045919405	0.83333332836628
282173	1110	21.729563639809	0.74074074625969
282173	1191	22.02960915202	0.93939393758774
282174	419	20.427	0.4
282174	604	20.727	0.3
282174	730	20.928045919405	0.2
282174	1110	21.729563639809	0.8
282174	1191	22.02960915202	0.3
282175	728	20.928	9
282175	1164	21.928	9
282176	728	20.928	-0.5
282176	1164	21.928	0.70967742800713
282177	728	20.928	0.9
282177	1164	21.928	1
282178	426	20.429	4
282178	855	21.129	6
282179	426	20.429	0.19999998807907
282179	855	21.129	0.59999999403954
282180	426	20.429	0.4
282180	855	21.129	0.7
282181	283	20.23	2
282181	671	20.83	5
282181	810	21.038069184629	1
282181	965	21.347275351636	2
282181	1150	21.852627371778	4
282182	283	20.23	0.59999999403954
282182	671	20.83	0
282182	810	21.038069184629	0.92307692021132
282182	965	21.347275351636	0.88888888806105
282182	1150	21.852627371778	0.86666665971279
282183	283	20.23	0.2
282183	671	20.83	0.6
282183	810	21.038069184629	0.2
282183	965	21.347275351636	0.3
282183	1150	21.852627371778	0.5
282184	217	20.131	1
282184	800	21.031	8
282184	1079	21.639895489315	5
282185	217	20.131	0.79999999701977
282185	800	21.031	0.33333331346512
282185	1079	21.639895489315	0.79999999701977
282186	217	20.131	0.1
282186	800	21.031	0.9
282186	1079	21.639895489315	0.6
282187	617	20.732	7
282187	739	20.932	1
282187	1083	21.64151331953	6
282187	1178	21.949463009147	2
282187	1282	22.651203570912	6
282188	617	20.732	-0.39999997615814
282188	739	20.932	0.83333332836628
282188	1083	21.64151331953	0.76923076808453
282188	1178	21.949463009147	0.93939393758774
282188	1282	22.651203570912	0.85365854203701
282189	617	20.732	0.7
282189	739	20.932	0.2
282189	1083	21.64151331953	0.7
282189	1178	21.949463009147	0.3
282189	1282	22.651203570912	0.7
282190	348	20.333	3
282190	804	21.033	6
282190	957	21.340289862462	2
282190	1041	21.54185147317	1
282191	348	20.333	0.39999997615814
282191	804	21.033	0.5
282191	957	21.340289862462	0.88888888806105
282191	1041	21.54185147317	0.9545454531908
282192	348	20.333	0.3
282192	804	21.033	0.7
282192	957	21.340289862462	0.3
282192	1041	21.54185147317	0.2
282193	140	20.034	0
282193	350	20.334	2
282193	500	20.540611238112	1
282193	1003	21.453265707881	8
282194	140	20.034	1
282194	350	20.334	0.59999999403954
282194	500	20.540611238112	0.79999999701977
282194	1003	21.453265707881	0.59999999403954
282195	140	20.034	0
282195	350	20.334	0.3
282195	500	20.540611238112	0.2
282195	1003	21.453265707881	0.9
282196	355	20.335	3
282196	1034	21.535	11
282196	1175	21.943156426232	3
282196	1236	22.246166316063	2
282196	1273	22.547461325649	2
282196	1299	22.957312954151	3
282197	355	20.335	0.39999997615814
282197	1034	21.535	0.5
282197	1175	21.943156426232	0.90909090638161
282197	1236	22.246166316063	0.94594594463706
282197	1273	22.547461325649	0.95121951401234
282197	1299	22.957312954151	0.92857142537832
282198	355	20.335	0.3
282198	1034	21.535	1.2
282198	1175	21.943156426232	0.4
282198	1236	22.246166316063	0.3
282198	1273	22.547461325649	0.3
282198	1299	22.957312954151	0.4
282199	226	20.136	1
282199	682	20.836	6
282200	226	20.136	0.79999999701977
282200	682	20.836	-0.20000004768372
282201	226	20.136	0.1
282201	682	20.836	0.7
282202	440	20.437	4
282202	554	20.637	1
282202	820	21.04270033485	3
282202	963	21.345521198638	2
282203	440	20.437	0.19999998807907
282203	554	20.637	0.79999999701977
282203	820	21.04270033485	0.76923076808453
282203	963	21.345521198638	0.88888888806105
282204	440	20.437	0.4
282204	554	20.637	0.2
282204	820	21.04270033485	0.4
282204	963	21.345521198638	0.3
282205	559	20.638	6
282205	684	20.838	1
282205	999	21.442212273051	5
282205	1271	22.543077504954	10
282206	559	20.638	-0.20000004768372
282206	684	20.838	0.83333332836628
282206	999	21.442212273051	0.75
282206	1271	22.543077504954	0.75
282207	559	20.638	0.6
282207	684	20.838	0.2
282207	999	21.442212273051	0.6
282207	1271	22.543077504954	1.1
282208	159	20.039	0
282208	561	20.639	5
282208	688	20.8415463854	1
282208	875	21.155066594809	2
282209	159	20.039	1
282209	561	20.639	0
282209	688	20.8415463854	0.83333332836628
282209	875	21.155066594809	0.8823529407382
282210	159	20.039	0
282210	561	20.639	0.6
282210	688	20.8415463854	0.2
282210	875	21.155066594809	0.3
282211	448	20.44	4
282211	628	20.74	2
282211	758	20.944469881446	1
282212	448	20.44	0.19999998807907
282212	628	20.74	0.59999999403954
282212	758	20.944469881446	0.85714285075665
282213	448	20.44	0.4
282213	628	20.74	0.3
282213	758	20.944469881446	0.2
285094	11	20	0
285094	12	20.001	0
285094	15	20.002	1
285094	18	20.003	2
285094	26	20.004	3
285094	29	20.005	4
285094	32	20.006	5
285094	36	20.007	6
285094	39	20.008	7
285094	42	20.009	8
285094	46	20.01	9
285094	49	20.011	10
285094	56	20.012	11
285094	63	20.013	12
285094	66	20.014	13
285094	69	20.015	14
285094	76	20.016	15
285094	79	20.017	16
285094	82	20.018	17
285094	85	20.019	18
285094	88	20.02	19
285094	91	20.021	20
285094	98	20.022	21
285094	101	20.023	22
285094	104	20.024	23
285094	107	20.025	24
285094	110	20.026	25
285094	113	20.027	26
285094	116	20.028	27
285094	119	20.029	28
285094	122	20.03	29
285094	125	20.031	30
285094	128	20.032	31
285094	131	20.033	32
285094	134	20.034	33
285094	141	20.035	34
285094	144	20.036	35
285094	147	20.037	36
285094	150	20.038	37
285094	153	20.039	38
285094	160	20.04	39
