version 2
run Stability2-70-20130526-00:51:26-26640
attr configname Stability2
attr datetime 20130526-00:51:26
attr experiment Stability2
attr inifile omnetpp.ini
attr iterationvars $0=30
attr iterationvars2 "$0=30, $repetition=10"
attr measurement $0=30
attr network Network
attr processid 26640
attr repetition 10
attr replication #10
attr resultdir results
attr runnumber 70
attr seedset 70

vector 213070  Network.churner  inGoingSizeSig:vector  ETV
vector 210070  Network.dyn_peer[0]  lookupHopsSig:vector  ETV
vector 210071  Network.dyn_peer[0]  lookupStabilitySig:vector  ETV
vector 210072  Network.dyn_peer[0]  lookupTimeSig:vector  ETV
vector 210097  Network.dyn_peer[9]  lookupHopsSig:vector  ETV
vector 210098  Network.dyn_peer[9]  lookupStabilitySig:vector  ETV
vector 210099  Network.dyn_peer[9]  lookupTimeSig:vector  ETV
vector 210139  Network.dyn_peer[23]  lookupHopsSig:vector  ETV
vector 210140  Network.dyn_peer[23]  lookupStabilitySig:vector  ETV
vector 210141  Network.dyn_peer[23]  lookupTimeSig:vector  ETV
vector 210142  Network.dyn_peer[24]  lookupHopsSig:vector  ETV
vector 210143  Network.dyn_peer[24]  lookupStabilitySig:vector  ETV
vector 210144  Network.dyn_peer[24]  lookupTimeSig:vector  ETV
vector 210073  Network.dyn_peer[1]  lookupHopsSig:vector  ETV
vector 210074  Network.dyn_peer[1]  lookupStabilitySig:vector  ETV
vector 210075  Network.dyn_peer[1]  lookupTimeSig:vector  ETV
vector 210106  Network.dyn_peer[12]  lookupHopsSig:vector  ETV
vector 210107  Network.dyn_peer[12]  lookupStabilitySig:vector  ETV
vector 210108  Network.dyn_peer[12]  lookupTimeSig:vector  ETV
vector 210115  Network.dyn_peer[15]  lookupHopsSig:vector  ETV
vector 210116  Network.dyn_peer[15]  lookupStabilitySig:vector  ETV
vector 210117  Network.dyn_peer[15]  lookupTimeSig:vector  ETV
vector 210121  Network.dyn_peer[17]  lookupHopsSig:vector  ETV
vector 210122  Network.dyn_peer[17]  lookupStabilitySig:vector  ETV
vector 210123  Network.dyn_peer[17]  lookupTimeSig:vector  ETV
vector 210127  Network.dyn_peer[19]  lookupHopsSig:vector  ETV
vector 210128  Network.dyn_peer[19]  lookupStabilitySig:vector  ETV
vector 210129  Network.dyn_peer[19]  lookupTimeSig:vector  ETV
vector 210085  Network.dyn_peer[5]  lookupHopsSig:vector  ETV
vector 210086  Network.dyn_peer[5]  lookupStabilitySig:vector  ETV
vector 210087  Network.dyn_peer[5]  lookupTimeSig:vector  ETV
vector 210088  Network.dyn_peer[6]  lookupHopsSig:vector  ETV
vector 210089  Network.dyn_peer[6]  lookupStabilitySig:vector  ETV
vector 210090  Network.dyn_peer[6]  lookupTimeSig:vector  ETV
vector 210103  Network.dyn_peer[11]  lookupHopsSig:vector  ETV
vector 210104  Network.dyn_peer[11]  lookupStabilitySig:vector  ETV
vector 210105  Network.dyn_peer[11]  lookupTimeSig:vector  ETV
vector 210133  Network.dyn_peer[21]  lookupHopsSig:vector  ETV
vector 210134  Network.dyn_peer[21]  lookupStabilitySig:vector  ETV
vector 210135  Network.dyn_peer[21]  lookupTimeSig:vector  ETV
vector 210136  Network.dyn_peer[22]  lookupHopsSig:vector  ETV
vector 210137  Network.dyn_peer[22]  lookupStabilitySig:vector  ETV
vector 210138  Network.dyn_peer[22]  lookupTimeSig:vector  ETV
vector 210091  Network.dyn_peer[7]  lookupHopsSig:vector  ETV
vector 210092  Network.dyn_peer[7]  lookupStabilitySig:vector  ETV
vector 210093  Network.dyn_peer[7]  lookupTimeSig:vector  ETV
vector 210094  Network.dyn_peer[8]  lookupHopsSig:vector  ETV
vector 210095  Network.dyn_peer[8]  lookupStabilitySig:vector  ETV
vector 210096  Network.dyn_peer[8]  lookupTimeSig:vector  ETV
vector 210109  Network.dyn_peer[13]  lookupHopsSig:vector  ETV
vector 210110  Network.dyn_peer[13]  lookupStabilitySig:vector  ETV
vector 210111  Network.dyn_peer[13]  lookupTimeSig:vector  ETV
vector 210112  Network.dyn_peer[14]  lookupHopsSig:vector  ETV
vector 210113  Network.dyn_peer[14]  lookupStabilitySig:vector  ETV
vector 210114  Network.dyn_peer[14]  lookupTimeSig:vector  ETV
vector 210148  Network.dyn_peer[26]  lookupHopsSig:vector  ETV
vector 210149  Network.dyn_peer[26]  lookupStabilitySig:vector  ETV
vector 210150  Network.dyn_peer[26]  lookupTimeSig:vector  ETV
vector 210076  Network.dyn_peer[2]  lookupHopsSig:vector  ETV
vector 210077  Network.dyn_peer[2]  lookupStabilitySig:vector  ETV
vector 210078  Network.dyn_peer[2]  lookupTimeSig:vector  ETV
vector 210079  Network.dyn_peer[3]  lookupHopsSig:vector  ETV
vector 210080  Network.dyn_peer[3]  lookupStabilitySig:vector  ETV
vector 210081  Network.dyn_peer[3]  lookupTimeSig:vector  ETV
vector 210082  Network.dyn_peer[4]  lookupHopsSig:vector  ETV
vector 210083  Network.dyn_peer[4]  lookupStabilitySig:vector  ETV
vector 210084  Network.dyn_peer[4]  lookupTimeSig:vector  ETV
vector 210100  Network.dyn_peer[10]  lookupHopsSig:vector  ETV
vector 210101  Network.dyn_peer[10]  lookupStabilitySig:vector  ETV
vector 210102  Network.dyn_peer[10]  lookupTimeSig:vector  ETV
vector 210118  Network.dyn_peer[16]  lookupHopsSig:vector  ETV
vector 210119  Network.dyn_peer[16]  lookupStabilitySig:vector  ETV
vector 210120  Network.dyn_peer[16]  lookupTimeSig:vector  ETV
vector 210124  Network.dyn_peer[18]  lookupHopsSig:vector  ETV
vector 210125  Network.dyn_peer[18]  lookupStabilitySig:vector  ETV
vector 210126  Network.dyn_peer[18]  lookupTimeSig:vector  ETV
vector 210130  Network.dyn_peer[20]  lookupHopsSig:vector  ETV
vector 210131  Network.dyn_peer[20]  lookupStabilitySig:vector  ETV
vector 210132  Network.dyn_peer[20]  lookupTimeSig:vector  ETV
vector 210157  Network.dyn_peer[29]  lookupHopsSig:vector  ETV
vector 210158  Network.dyn_peer[29]  lookupStabilitySig:vector  ETV
vector 210159  Network.dyn_peer[29]  lookupTimeSig:vector  ETV
vector 210151  Network.dyn_peer[27]  lookupHopsSig:vector  ETV
vector 210152  Network.dyn_peer[27]  lookupStabilitySig:vector  ETV
vector 210153  Network.dyn_peer[27]  lookupTimeSig:vector  ETV
vector 210145  Network.dyn_peer[25]  lookupHopsSig:vector  ETV
vector 210146  Network.dyn_peer[25]  lookupStabilitySig:vector  ETV
vector 210147  Network.dyn_peer[25]  lookupTimeSig:vector  ETV
vector 210154  Network.dyn_peer[28]  lookupHopsSig:vector  ETV
vector 210155  Network.dyn_peer[28]  lookupStabilitySig:vector  ETV
vector 210156  Network.dyn_peer[28]  lookupTimeSig:vector  ETV
210070	17	20.001	0
210070	366	20.501	4
210070	645	21.108383362293	5
210070	870	21.619412839816	4
210071	17	20.001	1
210071	366	20.501	0.33333331346512
210071	645	21.108383362293	0.5
210071	870	21.619412839816	0.81818181276321
210072	17	20.001	0
210072	366	20.501	0.5
210072	645	21.108383362293	0.6
210072	870	21.619412839816	0.5
210073	134	20.102	1
210073	247	20.302	1
210073	380	20.510256717168	1
210073	792	21.417778128583	8
210073	920	21.826235558737	3
210073	975	22.234180503086	3
210073	1000	22.540557219645	2
210073	1012	22.747448052438	1
210074	134	20.102	0.79999999701977
210074	247	20.302	0.79999999701977
210074	380	20.510256717168	0.85714285075665
210074	792	21.417778128583	0.38461536169052
210074	920	21.826235558737	0.88888888806105
210074	975	22.234180503086	0.90322580933571
210074	1000	22.540557219645	0.93939393758774
210074	1012	22.747448052438	0.96969696879387
210075	134	20.102	0.1
210075	247	20.302	0.2
210075	380	20.510256717168	0.2
210075	792	21.417778128583	0.9
210075	920	21.826235558737	0.4
210075	975	22.234180503086	0.4
210075	1000	22.540557219645	0.3
210075	1012	22.747448052438	0.2
210076	321	20.403	4
210076	430	20.603	1
210076	516	20.805600986263	1
210076	838	21.520761187521	6
210077	321	20.403	0.19999998807907
210077	430	20.603	0.85714285075665
210077	516	20.805600986263	0.85714285075665
210077	838	21.520761187521	0.66666665673256
210078	321	20.403	0.4
210078	430	20.603	0.2
210078	516	20.805600986263	0.2
210078	838	21.520761187521	0.7
210079	326	20.404	4
210079	780	21.404	9
210079	859	21.604735764203	1
210079	943	22.009547610265	3
210080	326	20.404	0.19999998807907
210080	780	21.404	0.30769228935242
210080	859	21.604735764203	0.9545454531908
210080	943	22.009547610265	0.89285714179277
210081	326	20.404	0.4
210081	780	21.404	1
210081	859	21.604735764203	0.2
210081	943	22.009547610265	0.4
210082	373	20.505	5
210082	688	21.205	6
210082	823	21.506503034105	2
210083	373	20.505	0.28571426868439
210083	688	21.205	0.39999997615814
210083	823	21.506503034105	0.875
210084	373	20.505	0.5
210084	688	21.205	0.7
210084	823	21.506503034105	0.3
210085	196	20.206	2
210085	690	21.206	9
210085	908	21.808577917529	5
210085	990	22.415086132447	5
210086	196	20.206	0.59999999403954
210086	690	21.206	0.10000002384186
210086	908	21.808577917529	0.80769230425358
210086	990	22.415086132447	0.83870968222618
210087	196	20.206	0.2
210087	690	21.206	1
210087	908	21.808577917529	0.6
210087	990	22.415086132447	0.6
210088	201	20.207	2
210088	887	21.707	14
210089	201	20.207	0.59999999403954
210089	887	21.707	0.39130437374115
210090	201	20.207	0.2
210090	887	21.707	1.5
210091	257	20.308	3
210091	520	20.808	4
210091	695	21.208848212724	3
210091	866	21.613050969619	3
210092	257	20.308	0.39999997615814
210092	520	20.808	0.42857140302658
210092	695	21.208848212724	0.69999998807907
210092	866	21.613050969619	0.86363635957241
210093	257	20.308	0.3
210093	520	20.808	0.5
210093	695	21.208848212724	0.4
210093	866	21.613050969619	0.4
210094	262	20.309	3
210094	827	21.509	11
210094	911	21.813273730132	2
210094	988	22.414545720981	5
210095	262	20.309	0.39999997615814
210095	827	21.509	0.3125
210095	911	21.813273730132	0.92307692021132
210095	988	22.414545720981	0.83870968222618
210096	262	20.309	0.3
210096	827	21.509	1.2
210096	911	21.813273730132	0.3
210096	988	22.414545720981	0.6
210097	50	20.01	0
210097	216	20.215103218867	1
210097	347	20.422903214219	1
210097	580	20.921359922253	3
210097	878	21.625068965887	6
210098	50	20.01	1
210098	216	20.215103218867	0.79999999701977
210098	347	20.422903214219	0.79999999701977
210098	580	20.921359922253	0.625
210098	878	21.625068965887	0.73913043737411
210099	50	20.01	0
210099	216	20.215103218867	0.2
210099	347	20.422903214219	0.2
210099	580	20.921359922253	0.4
210099	878	21.625068965887	0.7
210100	385	20.511	5
210100	525	20.811	2
210100	706	21.217159972355	3
210100	916	21.822856473576	5
210101	385	20.511	0.28571426868439
210101	525	20.811	0.71428570151329
210101	706	21.217159972355	0.72727271914482
210101	916	21.822856473576	0.80769230425358
210102	385	20.511	0.5
210102	525	20.811	0.3
210102	706	21.217159972355	0.4
210102	916	21.822856473576	0.6
210103	209	20.212	2
210103	698	21.212	9
210104	209	20.212	0.59999999403954
210104	698	21.212	0.10000002384186
210105	209	20.212	0.2
210105	698	21.212	1
210106	149	20.113	1
210106	864	21.613	14
210106	971	22.215927776672	5
210106	993	22.420241703959	1
210106	1016	22.82674065292	3
210107	149	20.113	0.79999999701977
210107	864	21.613	0.36363637447357
210107	971	22.215927776672	0.83870968222618
210107	993	22.420241703959	0.96875
210107	1016	22.82674065292	0.91176470369101
210108	149	20.113	0.1
210108	864	21.613	1.5
210108	971	22.215927776672	0.6
210108	993	22.420241703959	0.2
210108	1016	22.82674065292	0.4
210109	271	20.314	3
210109	789	21.414	10
210109	893	21.720674506086	2
210110	271	20.314	0.39999997615814
210110	789	21.414	0.23076921701431
210110	893	21.720674506086	0.91666666418314
210111	271	20.314	0.3
210111	789	21.414	1.1
210111	893	21.720674506086	0.3
210112	278	20.315	3
210112	746	21.315	9
210112	833	21.516131228022	1
210113	278	20.315	0.39999997615814
210113	746	21.315	0.18181818723679
210113	833	21.516131228022	0.9411764703691
210114	278	20.315	0.3
210114	746	21.315	1
210114	833	21.516131228022	0.2
210115	158	20.116	1
210115	654	21.116007505842	9
210115	795	21.420414058093	2
210116	158	20.116	0.79999999701977
210116	654	21.116007505842	0.10000002384186
210116	795	21.420414058093	0.84615384042263
210117	158	20.116	0.1
210117	654	21.116007505842	1
210117	795	21.420414058093	0.3
210118	395	20.517	5
210118	704	21.217	6
210118	873	21.620765153234	3
210118	936	21.930259499804	2
210119	395	20.517	0.28571426868439
210119	704	21.217	0.45454543828964
210119	873	21.620765153234	0.86363635957241
210119	936	21.930259499804	0.92592592537403
210120	395	20.517	0.5
210120	704	21.217	0.7
210120	873	21.620765153234	0.4
210120	936	21.930259499804	0.3
210121	165	20.118	1
210121	489	20.718	5
210121	755	21.323160745803	5
210122	165	20.118	0.79999999701977
210122	489	20.718	0.28571426868439
210122	755	21.323160745803	0.54545453190804
210123	165	20.118	0.1
210123	489	20.718	0.6
210123	755	21.323160745803	0.6
210124	402	20.519	5
210124	536	20.819	2
210125	402	20.519	0.28571426868439
210125	536	20.819	0.71428570151329
210126	402	20.519	0.5
210126	536	20.819	0.3
210127	172	20.12	1
210127	289	20.32	1
210127	671	21.128068391752	7
210127	901	21.734904149341	5
210128	172	20.12	0.79999999701977
210128	289	20.32	0.79999999701977
210128	671	21.128068391752	0.30000001192093
210128	901	21.734904149341	0.79999999701977
210129	172	20.12	0.1
210129	289	20.32	0.2
210129	671	21.128068391752	0.8
210129	901	21.734904149341	0.6
210130	407	20.521	5
210130	714	21.221	6
210130	803	21.425295392076	1
210131	407	20.521	0.28571426868439
210131	714	21.221	0.45454543828964
210131	803	21.425295392076	0.92857142537832
210132	407	20.521	0.5
210132	714	21.221	0.7
210132	803	21.425295392076	0.2
210133	229	20.222	2
210133	663	21.122	8
210133	842	21.523569674115	3
210133	918	21.82598211348	2
210133	950	22.034190888294	1
210134	229	20.222	0.59999999403954
210134	663	21.122	0.19999998807907
210134	842	21.523569674115	0.84210526943207
210134	918	21.82598211348	0.92592592537403
210134	950	22.034190888294	0.96551724150777
210135	229	20.222	0.2
210135	663	21.122	0.9
210135	842	21.523569674115	0.4
210135	918	21.82598211348	0.3
210135	950	22.034190888294	0.2
210136	235	20.223	2
210136	542	20.823	5
210136	765	21.330802135627	4
210136	853	21.550601066763	1
210137	235	20.223	0.59999999403954
210137	542	20.823	0.28571426868439
210137	765	21.330802135627	0.66666665673256
210137	853	21.550601066763	0.9473684206605
210138	235	20.223	0.2
210138	542	20.823	0.6
210138	765	21.330802135627	0.5
210138	853	21.550601066763	0.2
210139	102	20.024	0
210139	634	21.037550898879	9
210140	102	20.024	1
210140	634	21.037550898879	-0.125
210141	102	20.024	0
210141	634	21.037550898879	1
210142	109	20.025	0
210142	351	20.425	3
210142	468	20.6344814842	1
210142	636	21.040769080907	3
210143	109	20.025	1
210143	351	20.425	0.5
210143	468	20.6344814842	0.85714285075665
210143	636	21.040769080907	0.66666665673256
210144	109	20.025	0
210144	351	20.425	0.4
210144	468	20.6344814842	0.2
210144	636	21.040769080907	0.4
210145	500	20.726	7
210145	585	20.926	1
210145	680	21.15007465454	1
210145	857	21.557025986301	3
210146	500	20.726	0
210146	585	20.926	0.875
210146	680	21.15007465454	0.89999999850988
210146	857	21.557025986301	0.85714285075665
210147	500	20.726	0.7
210147	585	20.926	0.2
210147	680	21.15007465454	0.2
210147	857	21.557025986301	0.4
210148	303	20.327	3
210148	723	21.227	8
210148	807	21.434340392828	1
210149	303	20.327	0.39999997615814
210149	723	21.227	0.27272725105286
210149	807	21.434340392828	0.9333333298564
210150	303	20.327	0.3
210150	723	21.227	0.9
210150	807	21.434340392828	0.2
210151	460	20.628	6
210151	761	21.328	6
210151	927	21.837940625117	4
210151	963	22.14483357746	2
210152	460	20.628	0.14285713434219
210152	761	21.328	0.5
210152	927	21.837940625117	0.85185185074806
210152	963	22.14483357746	0.9333333298564
210153	460	20.628	0.6
210153	761	21.328	0.7
210153	927	21.837940625117	0.5
210153	963	22.14483357746	0.3
210154	554	20.829	8
210154	763	21.329	4
210155	554	20.829	0
210155	763	21.329	0.66666665673256
210156	554	20.829	0.8
210156	763	21.329	0.5
210157	421	20.53	5
210157	627	21.03	4
210157	727	21.230234137868	1
210157	850	21.543267542462	2
210158	421	20.53	0.28571426868439
210158	627	21.03	0.5
210158	727	21.230234137868	0.90909090638161
210158	850	21.543267542462	0.89473684132099
210159	421	20.53	0.5
210159	627	21.03	0.5
210159	727	21.230234137868	0.2
210159	850	21.543267542462	0.3
213070	10	20	0
213070	11	20.001	0
213070	18	20.002	1
213070	21	20.003	2
213070	24	20.004	3
213070	27	20.005	4
213070	31	20.006	5
213070	35	20.007	6
213070	38	20.008	7
213070	41	20.009	8
213070	44	20.01	9
213070	52	20.011	10
213070	55	20.012	11
213070	59	20.013	12
213070	62	20.014	13
213070	66	20.015	14
213070	70	20.016	15
213070	74	20.017	16
213070	77	20.018	17
213070	80	20.019	18
213070	84	20.02	19
213070	87	20.021	20
213070	90	20.022	21
213070	93	20.023	22
213070	96	20.024	23
213070	103	20.025	24
213070	110	20.026	25
213070	114	20.027	26
213070	118	20.028	27
213070	121	20.029	28
213070	124	20.03	29
