version 2
run Stability2-189-20130526-00:52:12-26640
attr configname Stability2
attr datetime 20130526-00:52:12
attr experiment Stability2
attr inifile omnetpp.ini
attr iterationvars $0=200
attr iterationvars2 "$0=200, $repetition=9"
attr measurement $0=200
attr network Network
attr processid 26640
attr repetition 9
attr replication #9
attr resultdir results
attr runnumber 189
attr seedset 189

vector 570189  Network.churner  inGoingSizeSig:vector  ETV
vector 567228  Network.dyn_peer[13]  lookupHopsSig:vector  ETV
vector 567229  Network.dyn_peer[13]  lookupStabilitySig:vector  ETV
vector 567230  Network.dyn_peer[13]  lookupTimeSig:vector  ETV
vector 567249  Network.dyn_peer[20]  lookupHopsSig:vector  ETV
vector 567250  Network.dyn_peer[20]  lookupStabilitySig:vector  ETV
vector 567251  Network.dyn_peer[20]  lookupTimeSig:vector  ETV
vector 567282  Network.dyn_peer[31]  lookupHopsSig:vector  ETV
vector 567283  Network.dyn_peer[31]  lookupStabilitySig:vector  ETV
vector 567284  Network.dyn_peer[31]  lookupTimeSig:vector  ETV
vector 567348  Network.dyn_peer[53]  lookupHopsSig:vector  ETV
vector 567349  Network.dyn_peer[53]  lookupStabilitySig:vector  ETV
vector 567350  Network.dyn_peer[53]  lookupTimeSig:vector  ETV
vector 567417  Network.dyn_peer[76]  lookupHopsSig:vector  ETV
vector 567418  Network.dyn_peer[76]  lookupStabilitySig:vector  ETV
vector 567419  Network.dyn_peer[76]  lookupTimeSig:vector  ETV
vector 567426  Network.dyn_peer[79]  lookupHopsSig:vector  ETV
vector 567427  Network.dyn_peer[79]  lookupStabilitySig:vector  ETV
vector 567428  Network.dyn_peer[79]  lookupTimeSig:vector  ETV
vector 567195  Network.dyn_peer[2]  lookupHopsSig:vector  ETV
vector 567196  Network.dyn_peer[2]  lookupStabilitySig:vector  ETV
vector 567197  Network.dyn_peer[2]  lookupTimeSig:vector  ETV
vector 567525  Network.dyn_peer[112]  lookupHopsSig:vector  ETV
vector 567526  Network.dyn_peer[112]  lookupStabilitySig:vector  ETV
vector 567527  Network.dyn_peer[112]  lookupTimeSig:vector  ETV
vector 567237  Network.dyn_peer[16]  lookupHopsSig:vector  ETV
vector 567238  Network.dyn_peer[16]  lookupStabilitySig:vector  ETV
vector 567239  Network.dyn_peer[16]  lookupTimeSig:vector  ETV
vector 567270  Network.dyn_peer[27]  lookupHopsSig:vector  ETV
vector 567271  Network.dyn_peer[27]  lookupStabilitySig:vector  ETV
vector 567272  Network.dyn_peer[27]  lookupTimeSig:vector  ETV
vector 567291  Network.dyn_peer[34]  lookupHopsSig:vector  ETV
vector 567292  Network.dyn_peer[34]  lookupStabilitySig:vector  ETV
vector 567293  Network.dyn_peer[34]  lookupTimeSig:vector  ETV
vector 567606  Network.dyn_peer[139]  lookupHopsSig:vector  ETV
vector 567607  Network.dyn_peer[139]  lookupStabilitySig:vector  ETV
vector 567608  Network.dyn_peer[139]  lookupTimeSig:vector  ETV
vector 567318  Network.dyn_peer[43]  lookupHopsSig:vector  ETV
vector 567319  Network.dyn_peer[43]  lookupStabilitySig:vector  ETV
vector 567320  Network.dyn_peer[43]  lookupTimeSig:vector  ETV
vector 567327  Network.dyn_peer[46]  lookupHopsSig:vector  ETV
vector 567328  Network.dyn_peer[46]  lookupStabilitySig:vector  ETV
vector 567329  Network.dyn_peer[46]  lookupTimeSig:vector  ETV
vector 567342  Network.dyn_peer[51]  lookupHopsSig:vector  ETV
vector 567343  Network.dyn_peer[51]  lookupStabilitySig:vector  ETV
vector 567344  Network.dyn_peer[51]  lookupTimeSig:vector  ETV
vector 567414  Network.dyn_peer[75]  lookupHopsSig:vector  ETV
vector 567415  Network.dyn_peer[75]  lookupStabilitySig:vector  ETV
vector 567416  Network.dyn_peer[75]  lookupTimeSig:vector  ETV
vector 567441  Network.dyn_peer[84]  lookupHopsSig:vector  ETV
vector 567442  Network.dyn_peer[84]  lookupStabilitySig:vector  ETV
vector 567443  Network.dyn_peer[84]  lookupTimeSig:vector  ETV
vector 567459  Network.dyn_peer[90]  lookupHopsSig:vector  ETV
vector 567460  Network.dyn_peer[90]  lookupStabilitySig:vector  ETV
vector 567461  Network.dyn_peer[90]  lookupTimeSig:vector  ETV
vector 567480  Network.dyn_peer[97]  lookupHopsSig:vector  ETV
vector 567481  Network.dyn_peer[97]  lookupStabilitySig:vector  ETV
vector 567482  Network.dyn_peer[97]  lookupTimeSig:vector  ETV
vector 567192  Network.dyn_peer[1]  lookupHopsSig:vector  ETV
vector 567193  Network.dyn_peer[1]  lookupStabilitySig:vector  ETV
vector 567194  Network.dyn_peer[1]  lookupTimeSig:vector  ETV
vector 567210  Network.dyn_peer[7]  lookupHopsSig:vector  ETV
vector 567211  Network.dyn_peer[7]  lookupStabilitySig:vector  ETV
vector 567212  Network.dyn_peer[7]  lookupTimeSig:vector  ETV
vector 567213  Network.dyn_peer[8]  lookupHopsSig:vector  ETV
vector 567214  Network.dyn_peer[8]  lookupStabilitySig:vector  ETV
vector 567215  Network.dyn_peer[8]  lookupTimeSig:vector  ETV
vector 567216  Network.dyn_peer[9]  lookupHopsSig:vector  ETV
vector 567217  Network.dyn_peer[9]  lookupStabilitySig:vector  ETV
vector 567218  Network.dyn_peer[9]  lookupTimeSig:vector  ETV
vector 567276  Network.dyn_peer[29]  lookupHopsSig:vector  ETV
vector 567277  Network.dyn_peer[29]  lookupStabilitySig:vector  ETV
vector 567278  Network.dyn_peer[29]  lookupTimeSig:vector  ETV
vector 567576  Network.dyn_peer[129]  lookupHopsSig:vector  ETV
vector 567577  Network.dyn_peer[129]  lookupStabilitySig:vector  ETV
vector 567578  Network.dyn_peer[129]  lookupTimeSig:vector  ETV
vector 567279  Network.dyn_peer[30]  lookupHopsSig:vector  ETV
vector 567280  Network.dyn_peer[30]  lookupStabilitySig:vector  ETV
vector 567281  Network.dyn_peer[30]  lookupTimeSig:vector  ETV
vector 567582  Network.dyn_peer[131]  lookupHopsSig:vector  ETV
vector 567583  Network.dyn_peer[131]  lookupStabilitySig:vector  ETV
vector 567584  Network.dyn_peer[131]  lookupTimeSig:vector  ETV
vector 567288  Network.dyn_peer[33]  lookupHopsSig:vector  ETV
vector 567289  Network.dyn_peer[33]  lookupStabilitySig:vector  ETV
vector 567290  Network.dyn_peer[33]  lookupTimeSig:vector  ETV
vector 567588  Network.dyn_peer[133]  lookupHopsSig:vector  ETV
vector 567589  Network.dyn_peer[133]  lookupStabilitySig:vector  ETV
vector 567590  Network.dyn_peer[133]  lookupTimeSig:vector  ETV
vector 567294  Network.dyn_peer[35]  lookupHopsSig:vector  ETV
vector 567295  Network.dyn_peer[35]  lookupStabilitySig:vector  ETV
vector 567296  Network.dyn_peer[35]  lookupTimeSig:vector  ETV
vector 567306  Network.dyn_peer[39]  lookupHopsSig:vector  ETV
vector 567307  Network.dyn_peer[39]  lookupStabilitySig:vector  ETV
vector 567308  Network.dyn_peer[39]  lookupTimeSig:vector  ETV
vector 567636  Network.dyn_peer[149]  lookupHopsSig:vector  ETV
vector 567637  Network.dyn_peer[149]  lookupStabilitySig:vector  ETV
vector 567638  Network.dyn_peer[149]  lookupTimeSig:vector  ETV
vector 567654  Network.dyn_peer[155]  lookupHopsSig:vector  ETV
vector 567655  Network.dyn_peer[155]  lookupStabilitySig:vector  ETV
vector 567656  Network.dyn_peer[155]  lookupTimeSig:vector  ETV
vector 567360  Network.dyn_peer[57]  lookupHopsSig:vector  ETV
vector 567361  Network.dyn_peer[57]  lookupStabilitySig:vector  ETV
vector 567362  Network.dyn_peer[57]  lookupTimeSig:vector  ETV
vector 567378  Network.dyn_peer[63]  lookupHopsSig:vector  ETV
vector 567379  Network.dyn_peer[63]  lookupStabilitySig:vector  ETV
vector 567380  Network.dyn_peer[63]  lookupTimeSig:vector  ETV
vector 567678  Network.dyn_peer[163]  lookupHopsSig:vector  ETV
vector 567679  Network.dyn_peer[163]  lookupStabilitySig:vector  ETV
vector 567680  Network.dyn_peer[163]  lookupTimeSig:vector  ETV
vector 567402  Network.dyn_peer[71]  lookupHopsSig:vector  ETV
vector 567403  Network.dyn_peer[71]  lookupStabilitySig:vector  ETV
vector 567404  Network.dyn_peer[71]  lookupTimeSig:vector  ETV
vector 567405  Network.dyn_peer[72]  lookupHopsSig:vector  ETV
vector 567406  Network.dyn_peer[72]  lookupStabilitySig:vector  ETV
vector 567407  Network.dyn_peer[72]  lookupTimeSig:vector  ETV
vector 567714  Network.dyn_peer[175]  lookupHopsSig:vector  ETV
vector 567715  Network.dyn_peer[175]  lookupStabilitySig:vector  ETV
vector 567716  Network.dyn_peer[175]  lookupTimeSig:vector  ETV
vector 567435  Network.dyn_peer[82]  lookupHopsSig:vector  ETV
vector 567436  Network.dyn_peer[82]  lookupStabilitySig:vector  ETV
vector 567437  Network.dyn_peer[82]  lookupTimeSig:vector  ETV
vector 567486  Network.dyn_peer[99]  lookupHopsSig:vector  ETV
vector 567487  Network.dyn_peer[99]  lookupStabilitySig:vector  ETV
vector 567488  Network.dyn_peer[99]  lookupTimeSig:vector  ETV
vector 567225  Network.dyn_peer[12]  lookupHopsSig:vector  ETV
vector 567226  Network.dyn_peer[12]  lookupStabilitySig:vector  ETV
vector 567227  Network.dyn_peer[12]  lookupTimeSig:vector  ETV
vector 567540  Network.dyn_peer[117]  lookupHopsSig:vector  ETV
vector 567541  Network.dyn_peer[117]  lookupStabilitySig:vector  ETV
vector 567542  Network.dyn_peer[117]  lookupTimeSig:vector  ETV
vector 567261  Network.dyn_peer[24]  lookupHopsSig:vector  ETV
vector 567262  Network.dyn_peer[24]  lookupStabilitySig:vector  ETV
vector 567263  Network.dyn_peer[24]  lookupTimeSig:vector  ETV
vector 567267  Network.dyn_peer[26]  lookupHopsSig:vector  ETV
vector 567268  Network.dyn_peer[26]  lookupStabilitySig:vector  ETV
vector 567269  Network.dyn_peer[26]  lookupTimeSig:vector  ETV
vector 567579  Network.dyn_peer[130]  lookupHopsSig:vector  ETV
vector 567580  Network.dyn_peer[130]  lookupStabilitySig:vector  ETV
vector 567581  Network.dyn_peer[130]  lookupTimeSig:vector  ETV
vector 567603  Network.dyn_peer[138]  lookupHopsSig:vector  ETV
vector 567604  Network.dyn_peer[138]  lookupStabilitySig:vector  ETV
vector 567605  Network.dyn_peer[138]  lookupTimeSig:vector  ETV
vector 567309  Network.dyn_peer[40]  lookupHopsSig:vector  ETV
vector 567310  Network.dyn_peer[40]  lookupStabilitySig:vector  ETV
vector 567311  Network.dyn_peer[40]  lookupTimeSig:vector  ETV
vector 567312  Network.dyn_peer[41]  lookupHopsSig:vector  ETV
vector 567313  Network.dyn_peer[41]  lookupStabilitySig:vector  ETV
vector 567314  Network.dyn_peer[41]  lookupTimeSig:vector  ETV
vector 567612  Network.dyn_peer[141]  lookupHopsSig:vector  ETV
vector 567613  Network.dyn_peer[141]  lookupStabilitySig:vector  ETV
vector 567614  Network.dyn_peer[141]  lookupTimeSig:vector  ETV
vector 567315  Network.dyn_peer[42]  lookupHopsSig:vector  ETV
vector 567316  Network.dyn_peer[42]  lookupStabilitySig:vector  ETV
vector 567317  Network.dyn_peer[42]  lookupTimeSig:vector  ETV
vector 567333  Network.dyn_peer[48]  lookupHopsSig:vector  ETV
vector 567334  Network.dyn_peer[48]  lookupStabilitySig:vector  ETV
vector 567335  Network.dyn_peer[48]  lookupTimeSig:vector  ETV
vector 567339  Network.dyn_peer[50]  lookupHopsSig:vector  ETV
vector 567340  Network.dyn_peer[50]  lookupStabilitySig:vector  ETV
vector 567341  Network.dyn_peer[50]  lookupTimeSig:vector  ETV
vector 567657  Network.dyn_peer[156]  lookupHopsSig:vector  ETV
vector 567658  Network.dyn_peer[156]  lookupStabilitySig:vector  ETV
vector 567659  Network.dyn_peer[156]  lookupTimeSig:vector  ETV
vector 567363  Network.dyn_peer[58]  lookupHopsSig:vector  ETV
vector 567364  Network.dyn_peer[58]  lookupStabilitySig:vector  ETV
vector 567365  Network.dyn_peer[58]  lookupTimeSig:vector  ETV
vector 567366  Network.dyn_peer[59]  lookupHopsSig:vector  ETV
vector 567367  Network.dyn_peer[59]  lookupStabilitySig:vector  ETV
vector 567368  Network.dyn_peer[59]  lookupTimeSig:vector  ETV
vector 567369  Network.dyn_peer[60]  lookupHopsSig:vector  ETV
vector 567370  Network.dyn_peer[60]  lookupStabilitySig:vector  ETV
vector 567371  Network.dyn_peer[60]  lookupTimeSig:vector  ETV
vector 567393  Network.dyn_peer[68]  lookupHopsSig:vector  ETV
vector 567394  Network.dyn_peer[68]  lookupStabilitySig:vector  ETV
vector 567395  Network.dyn_peer[68]  lookupTimeSig:vector  ETV
vector 567408  Network.dyn_peer[73]  lookupHopsSig:vector  ETV
vector 567409  Network.dyn_peer[73]  lookupStabilitySig:vector  ETV
vector 567410  Network.dyn_peer[73]  lookupTimeSig:vector  ETV
vector 567411  Network.dyn_peer[74]  lookupHopsSig:vector  ETV
vector 567412  Network.dyn_peer[74]  lookupStabilitySig:vector  ETV
vector 567413  Network.dyn_peer[74]  lookupTimeSig:vector  ETV
vector 567456  Network.dyn_peer[89]  lookupHopsSig:vector  ETV
vector 567457  Network.dyn_peer[89]  lookupStabilitySig:vector  ETV
vector 567458  Network.dyn_peer[89]  lookupTimeSig:vector  ETV
vector 567474  Network.dyn_peer[95]  lookupHopsSig:vector  ETV
vector 567475  Network.dyn_peer[95]  lookupStabilitySig:vector  ETV
vector 567476  Network.dyn_peer[95]  lookupTimeSig:vector  ETV
vector 567510  Network.dyn_peer[107]  lookupHopsSig:vector  ETV
vector 567511  Network.dyn_peer[107]  lookupStabilitySig:vector  ETV
vector 567512  Network.dyn_peer[107]  lookupTimeSig:vector  ETV
vector 567516  Network.dyn_peer[109]  lookupHopsSig:vector  ETV
vector 567517  Network.dyn_peer[109]  lookupStabilitySig:vector  ETV
vector 567518  Network.dyn_peer[109]  lookupTimeSig:vector  ETV
vector 567219  Network.dyn_peer[10]  lookupHopsSig:vector  ETV
vector 567220  Network.dyn_peer[10]  lookupStabilitySig:vector  ETV
vector 567221  Network.dyn_peer[10]  lookupTimeSig:vector  ETV
vector 567234  Network.dyn_peer[15]  lookupHopsSig:vector  ETV
vector 567235  Network.dyn_peer[15]  lookupStabilitySig:vector  ETV
vector 567236  Network.dyn_peer[15]  lookupTimeSig:vector  ETV
vector 567297  Network.dyn_peer[36]  lookupHopsSig:vector  ETV
vector 567298  Network.dyn_peer[36]  lookupStabilitySig:vector  ETV
vector 567299  Network.dyn_peer[36]  lookupTimeSig:vector  ETV
vector 567609  Network.dyn_peer[140]  lookupHopsSig:vector  ETV
vector 567610  Network.dyn_peer[140]  lookupStabilitySig:vector  ETV
vector 567611  Network.dyn_peer[140]  lookupTimeSig:vector  ETV
vector 567330  Network.dyn_peer[47]  lookupHopsSig:vector  ETV
vector 567331  Network.dyn_peer[47]  lookupStabilitySig:vector  ETV
vector 567332  Network.dyn_peer[47]  lookupTimeSig:vector  ETV
vector 567699  Network.dyn_peer[170]  lookupHopsSig:vector  ETV
vector 567700  Network.dyn_peer[170]  lookupStabilitySig:vector  ETV
vector 567701  Network.dyn_peer[170]  lookupTimeSig:vector  ETV
vector 567420  Network.dyn_peer[77]  lookupHopsSig:vector  ETV
vector 567421  Network.dyn_peer[77]  lookupStabilitySig:vector  ETV
vector 567422  Network.dyn_peer[77]  lookupTimeSig:vector  ETV
vector 567447  Network.dyn_peer[86]  lookupHopsSig:vector  ETV
vector 567448  Network.dyn_peer[86]  lookupStabilitySig:vector  ETV
vector 567449  Network.dyn_peer[86]  lookupTimeSig:vector  ETV
vector 567453  Network.dyn_peer[88]  lookupHopsSig:vector  ETV
vector 567454  Network.dyn_peer[88]  lookupStabilitySig:vector  ETV
vector 567455  Network.dyn_peer[88]  lookupTimeSig:vector  ETV
vector 567753  Network.dyn_peer[188]  lookupHopsSig:vector  ETV
vector 567754  Network.dyn_peer[188]  lookupStabilitySig:vector  ETV
vector 567755  Network.dyn_peer[188]  lookupTimeSig:vector  ETV
vector 567207  Network.dyn_peer[6]  lookupHopsSig:vector  ETV
vector 567208  Network.dyn_peer[6]  lookupStabilitySig:vector  ETV
vector 567209  Network.dyn_peer[6]  lookupTimeSig:vector  ETV
vector 567222  Network.dyn_peer[11]  lookupHopsSig:vector  ETV
vector 567223  Network.dyn_peer[11]  lookupStabilitySig:vector  ETV
vector 567224  Network.dyn_peer[11]  lookupTimeSig:vector  ETV
vector 567531  Network.dyn_peer[114]  lookupHopsSig:vector  ETV
vector 567532  Network.dyn_peer[114]  lookupStabilitySig:vector  ETV
vector 567533  Network.dyn_peer[114]  lookupTimeSig:vector  ETV
vector 567546  Network.dyn_peer[119]  lookupHopsSig:vector  ETV
vector 567547  Network.dyn_peer[119]  lookupStabilitySig:vector  ETV
vector 567548  Network.dyn_peer[119]  lookupTimeSig:vector  ETV
vector 567255  Network.dyn_peer[22]  lookupHopsSig:vector  ETV
vector 567256  Network.dyn_peer[22]  lookupStabilitySig:vector  ETV
vector 567257  Network.dyn_peer[22]  lookupTimeSig:vector  ETV
vector 567258  Network.dyn_peer[23]  lookupHopsSig:vector  ETV
vector 567259  Network.dyn_peer[23]  lookupStabilitySig:vector  ETV
vector 567260  Network.dyn_peer[23]  lookupTimeSig:vector  ETV
vector 567300  Network.dyn_peer[37]  lookupHopsSig:vector  ETV
vector 567301  Network.dyn_peer[37]  lookupStabilitySig:vector  ETV
vector 567302  Network.dyn_peer[37]  lookupTimeSig:vector  ETV
vector 567324  Network.dyn_peer[45]  lookupHopsSig:vector  ETV
vector 567325  Network.dyn_peer[45]  lookupStabilitySig:vector  ETV
vector 567326  Network.dyn_peer[45]  lookupTimeSig:vector  ETV
vector 567345  Network.dyn_peer[52]  lookupHopsSig:vector  ETV
vector 567346  Network.dyn_peer[52]  lookupStabilitySig:vector  ETV
vector 567347  Network.dyn_peer[52]  lookupTimeSig:vector  ETV
vector 567675  Network.dyn_peer[162]  lookupHopsSig:vector  ETV
vector 567676  Network.dyn_peer[162]  lookupStabilitySig:vector  ETV
vector 567677  Network.dyn_peer[162]  lookupTimeSig:vector  ETV
vector 567450  Network.dyn_peer[87]  lookupHopsSig:vector  ETV
vector 567451  Network.dyn_peer[87]  lookupStabilitySig:vector  ETV
vector 567452  Network.dyn_peer[87]  lookupTimeSig:vector  ETV
vector 567759  Network.dyn_peer[190]  lookupHopsSig:vector  ETV
vector 567760  Network.dyn_peer[190]  lookupStabilitySig:vector  ETV
vector 567761  Network.dyn_peer[190]  lookupTimeSig:vector  ETV
vector 567768  Network.dyn_peer[193]  lookupHopsSig:vector  ETV
vector 567769  Network.dyn_peer[193]  lookupStabilitySig:vector  ETV
vector 567770  Network.dyn_peer[193]  lookupTimeSig:vector  ETV
vector 567198  Network.dyn_peer[3]  lookupHopsSig:vector  ETV
vector 567199  Network.dyn_peer[3]  lookupStabilitySig:vector  ETV
vector 567200  Network.dyn_peer[3]  lookupTimeSig:vector  ETV
vector 567549  Network.dyn_peer[120]  lookupHopsSig:vector  ETV
vector 567550  Network.dyn_peer[120]  lookupStabilitySig:vector  ETV
vector 567551  Network.dyn_peer[120]  lookupTimeSig:vector  ETV
vector 567552  Network.dyn_peer[121]  lookupHopsSig:vector  ETV
vector 567553  Network.dyn_peer[121]  lookupStabilitySig:vector  ETV
vector 567554  Network.dyn_peer[121]  lookupTimeSig:vector  ETV
vector 567303  Network.dyn_peer[38]  lookupHopsSig:vector  ETV
vector 567304  Network.dyn_peer[38]  lookupStabilitySig:vector  ETV
vector 567305  Network.dyn_peer[38]  lookupTimeSig:vector  ETV
vector 567357  Network.dyn_peer[56]  lookupHopsSig:vector  ETV
vector 567358  Network.dyn_peer[56]  lookupStabilitySig:vector  ETV
vector 567359  Network.dyn_peer[56]  lookupTimeSig:vector  ETV
vector 567681  Network.dyn_peer[164]  lookupHopsSig:vector  ETV
vector 567682  Network.dyn_peer[164]  lookupStabilitySig:vector  ETV
vector 567683  Network.dyn_peer[164]  lookupTimeSig:vector  ETV
vector 567390  Network.dyn_peer[67]  lookupHopsSig:vector  ETV
vector 567391  Network.dyn_peer[67]  lookupStabilitySig:vector  ETV
vector 567392  Network.dyn_peer[67]  lookupTimeSig:vector  ETV
vector 567471  Network.dyn_peer[94]  lookupHopsSig:vector  ETV
vector 567472  Network.dyn_peer[94]  lookupStabilitySig:vector  ETV
vector 567473  Network.dyn_peer[94]  lookupTimeSig:vector  ETV
vector 567513  Network.dyn_peer[108]  lookupHopsSig:vector  ETV
vector 567514  Network.dyn_peer[108]  lookupStabilitySig:vector  ETV
vector 567515  Network.dyn_peer[108]  lookupTimeSig:vector  ETV
vector 567321  Network.dyn_peer[44]  lookupHopsSig:vector  ETV
vector 567322  Network.dyn_peer[44]  lookupStabilitySig:vector  ETV
vector 567323  Network.dyn_peer[44]  lookupTimeSig:vector  ETV
vector 567633  Network.dyn_peer[148]  lookupHopsSig:vector  ETV
vector 567634  Network.dyn_peer[148]  lookupStabilitySig:vector  ETV
vector 567635  Network.dyn_peer[148]  lookupTimeSig:vector  ETV
vector 567354  Network.dyn_peer[55]  lookupHopsSig:vector  ETV
vector 567355  Network.dyn_peer[55]  lookupStabilitySig:vector  ETV
vector 567356  Network.dyn_peer[55]  lookupTimeSig:vector  ETV
vector 567372  Network.dyn_peer[61]  lookupHopsSig:vector  ETV
vector 567373  Network.dyn_peer[61]  lookupStabilitySig:vector  ETV
vector 567374  Network.dyn_peer[61]  lookupTimeSig:vector  ETV
vector 567429  Network.dyn_peer[80]  lookupHopsSig:vector  ETV
vector 567430  Network.dyn_peer[80]  lookupStabilitySig:vector  ETV
vector 567431  Network.dyn_peer[80]  lookupTimeSig:vector  ETV
vector 567432  Network.dyn_peer[81]  lookupHopsSig:vector  ETV
vector 567433  Network.dyn_peer[81]  lookupStabilitySig:vector  ETV
vector 567434  Network.dyn_peer[81]  lookupTimeSig:vector  ETV
vector 567438  Network.dyn_peer[83]  lookupHopsSig:vector  ETV
vector 567439  Network.dyn_peer[83]  lookupStabilitySig:vector  ETV
vector 567440  Network.dyn_peer[83]  lookupTimeSig:vector  ETV
vector 567771  Network.dyn_peer[194]  lookupHopsSig:vector  ETV
vector 567772  Network.dyn_peer[194]  lookupStabilitySig:vector  ETV
vector 567773  Network.dyn_peer[194]  lookupTimeSig:vector  ETV
vector 567501  Network.dyn_peer[104]  lookupHopsSig:vector  ETV
vector 567502  Network.dyn_peer[104]  lookupStabilitySig:vector  ETV
vector 567503  Network.dyn_peer[104]  lookupTimeSig:vector  ETV
vector 567537  Network.dyn_peer[116]  lookupHopsSig:vector  ETV
vector 567538  Network.dyn_peer[116]  lookupStabilitySig:vector  ETV
vector 567539  Network.dyn_peer[116]  lookupTimeSig:vector  ETV
vector 567669  Network.dyn_peer[160]  lookupHopsSig:vector  ETV
vector 567670  Network.dyn_peer[160]  lookupStabilitySig:vector  ETV
vector 567671  Network.dyn_peer[160]  lookupTimeSig:vector  ETV
vector 567375  Network.dyn_peer[62]  lookupHopsSig:vector  ETV
vector 567376  Network.dyn_peer[62]  lookupStabilitySig:vector  ETV
vector 567377  Network.dyn_peer[62]  lookupTimeSig:vector  ETV
vector 567462  Network.dyn_peer[91]  lookupHopsSig:vector  ETV
vector 567463  Network.dyn_peer[91]  lookupStabilitySig:vector  ETV
vector 567464  Network.dyn_peer[91]  lookupTimeSig:vector  ETV
vector 567783  Network.dyn_peer[198]  lookupHopsSig:vector  ETV
vector 567784  Network.dyn_peer[198]  lookupStabilitySig:vector  ETV
vector 567785  Network.dyn_peer[198]  lookupTimeSig:vector  ETV
vector 567252  Network.dyn_peer[21]  lookupHopsSig:vector  ETV
vector 567253  Network.dyn_peer[21]  lookupStabilitySig:vector  ETV
vector 567254  Network.dyn_peer[21]  lookupTimeSig:vector  ETV
vector 567264  Network.dyn_peer[25]  lookupHopsSig:vector  ETV
vector 567265  Network.dyn_peer[25]  lookupStabilitySig:vector  ETV
vector 567266  Network.dyn_peer[25]  lookupTimeSig:vector  ETV
vector 567336  Network.dyn_peer[49]  lookupHopsSig:vector  ETV
vector 567337  Network.dyn_peer[49]  lookupStabilitySig:vector  ETV
vector 567338  Network.dyn_peer[49]  lookupTimeSig:vector  ETV
vector 567381  Network.dyn_peer[64]  lookupHopsSig:vector  ETV
vector 567382  Network.dyn_peer[64]  lookupStabilitySig:vector  ETV
vector 567383  Network.dyn_peer[64]  lookupTimeSig:vector  ETV
vector 567717  Network.dyn_peer[176]  lookupHopsSig:vector  ETV
vector 567718  Network.dyn_peer[176]  lookupStabilitySig:vector  ETV
vector 567719  Network.dyn_peer[176]  lookupTimeSig:vector  ETV
vector 567423  Network.dyn_peer[78]  lookupHopsSig:vector  ETV
vector 567424  Network.dyn_peer[78]  lookupStabilitySig:vector  ETV
vector 567425  Network.dyn_peer[78]  lookupTimeSig:vector  ETV
vector 567444  Network.dyn_peer[85]  lookupHopsSig:vector  ETV
vector 567445  Network.dyn_peer[85]  lookupStabilitySig:vector  ETV
vector 567446  Network.dyn_peer[85]  lookupTimeSig:vector  ETV
vector 567465  Network.dyn_peer[92]  lookupHopsSig:vector  ETV
vector 567466  Network.dyn_peer[92]  lookupStabilitySig:vector  ETV
vector 567467  Network.dyn_peer[92]  lookupTimeSig:vector  ETV
vector 567483  Network.dyn_peer[98]  lookupHopsSig:vector  ETV
vector 567484  Network.dyn_peer[98]  lookupStabilitySig:vector  ETV
vector 567485  Network.dyn_peer[98]  lookupTimeSig:vector  ETV
vector 567201  Network.dyn_peer[4]  lookupHopsSig:vector  ETV
vector 567202  Network.dyn_peer[4]  lookupStabilitySig:vector  ETV
vector 567203  Network.dyn_peer[4]  lookupTimeSig:vector  ETV
vector 567534  Network.dyn_peer[115]  lookupHopsSig:vector  ETV
vector 567535  Network.dyn_peer[115]  lookupStabilitySig:vector  ETV
vector 567536  Network.dyn_peer[115]  lookupTimeSig:vector  ETV
vector 567591  Network.dyn_peer[134]  lookupHopsSig:vector  ETV
vector 567592  Network.dyn_peer[134]  lookupStabilitySig:vector  ETV
vector 567593  Network.dyn_peer[134]  lookupTimeSig:vector  ETV
vector 567648  Network.dyn_peer[153]  lookupHopsSig:vector  ETV
vector 567649  Network.dyn_peer[153]  lookupStabilitySig:vector  ETV
vector 567650  Network.dyn_peer[153]  lookupTimeSig:vector  ETV
vector 567351  Network.dyn_peer[54]  lookupHopsSig:vector  ETV
vector 567352  Network.dyn_peer[54]  lookupStabilitySig:vector  ETV
vector 567353  Network.dyn_peer[54]  lookupTimeSig:vector  ETV
vector 567387  Network.dyn_peer[66]  lookupHopsSig:vector  ETV
vector 567388  Network.dyn_peer[66]  lookupStabilitySig:vector  ETV
vector 567389  Network.dyn_peer[66]  lookupTimeSig:vector  ETV
vector 567399  Network.dyn_peer[70]  lookupHopsSig:vector  ETV
vector 567400  Network.dyn_peer[70]  lookupStabilitySig:vector  ETV
vector 567401  Network.dyn_peer[70]  lookupTimeSig:vector  ETV
vector 567750  Network.dyn_peer[187]  lookupHopsSig:vector  ETV
vector 567751  Network.dyn_peer[187]  lookupStabilitySig:vector  ETV
vector 567752  Network.dyn_peer[187]  lookupTimeSig:vector  ETV
vector 567468  Network.dyn_peer[93]  lookupHopsSig:vector  ETV
vector 567469  Network.dyn_peer[93]  lookupStabilitySig:vector  ETV
vector 567470  Network.dyn_peer[93]  lookupTimeSig:vector  ETV
vector 567477  Network.dyn_peer[96]  lookupHopsSig:vector  ETV
vector 567478  Network.dyn_peer[96]  lookupStabilitySig:vector  ETV
vector 567479  Network.dyn_peer[96]  lookupTimeSig:vector  ETV
vector 567189  Network.dyn_peer[0]  lookupHopsSig:vector  ETV
vector 567190  Network.dyn_peer[0]  lookupStabilitySig:vector  ETV
vector 567191  Network.dyn_peer[0]  lookupTimeSig:vector  ETV
vector 567204  Network.dyn_peer[5]  lookupHopsSig:vector  ETV
vector 567205  Network.dyn_peer[5]  lookupStabilitySig:vector  ETV
vector 567206  Network.dyn_peer[5]  lookupTimeSig:vector  ETV
vector 567543  Network.dyn_peer[118]  lookupHopsSig:vector  ETV
vector 567544  Network.dyn_peer[118]  lookupStabilitySig:vector  ETV
vector 567545  Network.dyn_peer[118]  lookupTimeSig:vector  ETV
vector 567285  Network.dyn_peer[32]  lookupHopsSig:vector  ETV
vector 567286  Network.dyn_peer[32]  lookupStabilitySig:vector  ETV
vector 567287  Network.dyn_peer[32]  lookupTimeSig:vector  ETV
vector 567384  Network.dyn_peer[65]  lookupHopsSig:vector  ETV
vector 567385  Network.dyn_peer[65]  lookupStabilitySig:vector  ETV
vector 567386  Network.dyn_peer[65]  lookupTimeSig:vector  ETV
vector 567396  Network.dyn_peer[69]  lookupHopsSig:vector  ETV
vector 567397  Network.dyn_peer[69]  lookupStabilitySig:vector  ETV
vector 567398  Network.dyn_peer[69]  lookupTimeSig:vector  ETV
vector 567492  Network.dyn_peer[101]  lookupHopsSig:vector  ETV
vector 567493  Network.dyn_peer[101]  lookupStabilitySig:vector  ETV
vector 567494  Network.dyn_peer[101]  lookupTimeSig:vector  ETV
vector 567495  Network.dyn_peer[102]  lookupHopsSig:vector  ETV
vector 567496  Network.dyn_peer[102]  lookupStabilitySig:vector  ETV
vector 567497  Network.dyn_peer[102]  lookupTimeSig:vector  ETV
vector 567498  Network.dyn_peer[103]  lookupHopsSig:vector  ETV
vector 567499  Network.dyn_peer[103]  lookupStabilitySig:vector  ETV
vector 567500  Network.dyn_peer[103]  lookupTimeSig:vector  ETV
vector 567231  Network.dyn_peer[14]  lookupHopsSig:vector  ETV
vector 567232  Network.dyn_peer[14]  lookupStabilitySig:vector  ETV
vector 567233  Network.dyn_peer[14]  lookupTimeSig:vector  ETV
vector 567642  Network.dyn_peer[151]  lookupHopsSig:vector  ETV
vector 567643  Network.dyn_peer[151]  lookupStabilitySig:vector  ETV
vector 567644  Network.dyn_peer[151]  lookupTimeSig:vector  ETV
vector 567741  Network.dyn_peer[184]  lookupHopsSig:vector  ETV
vector 567742  Network.dyn_peer[184]  lookupStabilitySig:vector  ETV
vector 567743  Network.dyn_peer[184]  lookupTimeSig:vector  ETV
vector 567507  Network.dyn_peer[106]  lookupHopsSig:vector  ETV
vector 567508  Network.dyn_peer[106]  lookupStabilitySig:vector  ETV
vector 567509  Network.dyn_peer[106]  lookupTimeSig:vector  ETV
vector 567522  Network.dyn_peer[111]  lookupHopsSig:vector  ETV
vector 567523  Network.dyn_peer[111]  lookupStabilitySig:vector  ETV
vector 567524  Network.dyn_peer[111]  lookupTimeSig:vector  ETV
vector 567564  Network.dyn_peer[125]  lookupHopsSig:vector  ETV
vector 567565  Network.dyn_peer[125]  lookupStabilitySig:vector  ETV
vector 567566  Network.dyn_peer[125]  lookupTimeSig:vector  ETV
vector 567489  Network.dyn_peer[100]  lookupHopsSig:vector  ETV
vector 567490  Network.dyn_peer[100]  lookupStabilitySig:vector  ETV
vector 567491  Network.dyn_peer[100]  lookupTimeSig:vector  ETV
vector 567528  Network.dyn_peer[113]  lookupHopsSig:vector  ETV
vector 567529  Network.dyn_peer[113]  lookupStabilitySig:vector  ETV
vector 567530  Network.dyn_peer[113]  lookupTimeSig:vector  ETV
vector 567240  Network.dyn_peer[17]  lookupHopsSig:vector  ETV
vector 567241  Network.dyn_peer[17]  lookupStabilitySig:vector  ETV
vector 567242  Network.dyn_peer[17]  lookupTimeSig:vector  ETV
vector 567243  Network.dyn_peer[18]  lookupHopsSig:vector  ETV
vector 567244  Network.dyn_peer[18]  lookupStabilitySig:vector  ETV
vector 567245  Network.dyn_peer[18]  lookupTimeSig:vector  ETV
vector 567246  Network.dyn_peer[19]  lookupHopsSig:vector  ETV
vector 567247  Network.dyn_peer[19]  lookupStabilitySig:vector  ETV
vector 567248  Network.dyn_peer[19]  lookupTimeSig:vector  ETV
vector 567273  Network.dyn_peer[28]  lookupHopsSig:vector  ETV
vector 567274  Network.dyn_peer[28]  lookupStabilitySig:vector  ETV
vector 567275  Network.dyn_peer[28]  lookupTimeSig:vector  ETV
vector 567744  Network.dyn_peer[185]  lookupHopsSig:vector  ETV
vector 567745  Network.dyn_peer[185]  lookupStabilitySig:vector  ETV
vector 567746  Network.dyn_peer[185]  lookupTimeSig:vector  ETV
vector 567504  Network.dyn_peer[105]  lookupHopsSig:vector  ETV