file 30885 1369522311                                           
version 2
run Stability2-144-20130526-00:51:51-26640
attr configname Stability2
attr datetime 20130526-00:51:51
attr experiment Stability2
attr inifile omnetpp.ini
attr iterationvars $0=50
attr iterationvars2 "$0=50, $repetition=24"
attr measurement $0=50
attr network Network
attr processid 26640
attr repetition 24
attr replication #24
attr resultdir results
attr runnumber 144
attr seedset 144

vector 435144  Network.churner  inGoingSizeSig:vector  ETV
vector 432153  Network.dyn_peer[3]  lookupHopsSig:vector  ETV
vector 432154  Network.dyn_peer[3]  lookupStabilitySig:vector  ETV
vector 432155  Network.dyn_peer[3]  lookupTimeSig:vector  ETV
vector 432168  Network.dyn_peer[8]  lookupHopsSig:vector  ETV
vector 432169  Network.dyn_peer[8]  lookupStabilitySig:vector  ETV
vector 432170  Network.dyn_peer[8]  lookupTimeSig:vector  ETV
vector 432189  Network.dyn_peer[15]  lookupHopsSig:vector  ETV
vector 432190  Network.dyn_peer[15]  lookupStabilitySig:vector  ETV
vector 432191  Network.dyn_peer[15]  lookupTimeSig:vector  ETV
vector 432219  Network.dyn_peer[25]  lookupHopsSig:vector  ETV
vector 432220  Network.dyn_peer[25]  lookupStabilitySig:vector  ETV
vector 432221  Network.dyn_peer[25]  lookupTimeSig:vector  ETV
vector 432225  Network.dyn_peer[27]  lookupHopsSig:vector  ETV
vector 432226  Network.dyn_peer[27]  lookupStabilitySig:vector  ETV
vector 432227  Network.dyn_peer[27]  lookupTimeSig:vector  ETV
vector 432276  Network.dyn_peer[44]  lookupHopsSig:vector  ETV
vector 432277  Network.dyn_peer[44]  lookupStabilitySig:vector  ETV
vector 432278  Network.dyn_peer[44]  lookupTimeSig:vector  ETV
vector 432279  Network.dyn_peer[45]  lookupHopsSig:vector  ETV
vector 432280  Network.dyn_peer[45]  lookupStabilitySig:vector  ETV
vector 432281  Network.dyn_peer[45]  lookupTimeSig:vector  ETV
vector 432285  Network.dyn_peer[47]  lookupHopsSig:vector  ETV
vector 432286  Network.dyn_peer[47]  lookupStabilitySig:vector  ETV
vector 432287  Network.dyn_peer[47]  lookupTimeSig:vector  ETV
vector 432147  Network.dyn_peer[1]  lookupHopsSig:vector  ETV
vector 432148  Network.dyn_peer[1]  lookupStabilitySig:vector  ETV
vector 432149  Network.dyn_peer[1]  lookupTimeSig:vector  ETV
vector 432165  Network.dyn_peer[7]  lookupHopsSig:vector  ETV
vector 432166  Network.dyn_peer[7]  lookupStabilitySig:vector  ETV
vector 432167  Network.dyn_peer[7]  lookupTimeSig:vector  ETV
vector 432174  Network.dyn_peer[10]  lookupHopsSig:vector  ETV
vector 432175  Network.dyn_peer[10]  lookupStabilitySig:vector  ETV
vector 432176  Network.dyn_peer[10]  lookupTimeSig:vector  ETV
vector 432180  Network.dyn_peer[12]  lookupHopsSig:vector  ETV
vector 432181  Network.dyn_peer[12]  lookupStabilitySig:vector  ETV
vector 432182  Network.dyn_peer[12]  lookupTimeSig:vector  ETV
vector 432243  Network.dyn_peer[33]  lookupHopsSig:vector  ETV
vector 432244  Network.dyn_peer[33]  lookupStabilitySig:vector  ETV
vector 432245  Network.dyn_peer[33]  lookupTimeSig:vector  ETV
vector 432249  Network.dyn_peer[35]  lookupHopsSig:vector  ETV
vector 432250  Network.dyn_peer[35]  lookupStabilitySig:vector  ETV
vector 432251  Network.dyn_peer[35]  lookupTimeSig:vector  ETV
vector 432255  Network.dyn_peer[37]  lookupHopsSig:vector  ETV
vector 432256  Network.dyn_peer[37]  lookupStabilitySig:vector  ETV
vector 432257  Network.dyn_peer[37]  lookupTimeSig:vector  ETV
vector 432258  Network.dyn_peer[38]  lookupHopsSig:vector  ETV
vector 432259  Network.dyn_peer[38]  lookupStabilitySig:vector  ETV
vector 432260  Network.dyn_peer[38]  lookupTimeSig:vector  ETV
vector 432261  Network.dyn_peer[39]  lookupHopsSig:vector  ETV
vector 432262  Network.dyn_peer[39]  lookupStabilitySig:vector  ETV
vector 432263  Network.dyn_peer[39]  lookupTimeSig:vector  ETV
vector 432264  Network.dyn_peer[40]  lookupHopsSig:vector  ETV
vector 432265  Network.dyn_peer[40]  lookupStabilitySig:vector  ETV
vector 432266  Network.dyn_peer[40]  lookupTimeSig:vector  ETV
vector 432267  Network.dyn_peer[41]  lookupHopsSig:vector  ETV
vector 432268  Network.dyn_peer[41]  lookupStabilitySig:vector  ETV
vector 432269  Network.dyn_peer[41]  lookupTimeSig:vector  ETV
vector 432270  Network.dyn_peer[42]  lookupHopsSig:vector  ETV
vector 432271  Network.dyn_peer[42]  lookupStabilitySig:vector  ETV
vector 432272  Network.dyn_peer[42]  lookupTimeSig:vector  ETV
vector 432288  Network.dyn_peer[48]  lookupHopsSig:vector  ETV
vector 432289  Network.dyn_peer[48]  lookupStabilitySig:vector  ETV
vector 432290  Network.dyn_peer[48]  lookupTimeSig:vector  ETV
vector 432183  Network.dyn_peer[13]  lookupHopsSig:vector  ETV
vector 432184  Network.dyn_peer[13]  lookupStabilitySig:vector  ETV
vector 432185  Network.dyn_peer[13]  lookupTimeSig:vector  ETV
vector 432198  Network.dyn_peer[18]  lookupHopsSig:vector  ETV
vector 432199  Network.dyn_peer[18]  lookupStabilitySig:vector  ETV
vector 432200  Network.dyn_peer[18]  lookupTimeSig:vector  ETV
vector 432207  Network.dyn_peer[21]  lookupHopsSig:vector  ETV
vector 432208  Network.dyn_peer[21]  lookupStabilitySig:vector  ETV
vector 432209  Network.dyn_peer[21]  lookupTimeSig:vector  ETV
vector 432234  Network.dyn_peer[30]  lookupHopsSig:vector  ETV
vector 432235  Network.dyn_peer[30]  lookupStabilitySig:vector  ETV
vector 432236  Network.dyn_peer[30]  lookupTimeSig:vector  ETV
vector 432171  Network.dyn_peer[9]  lookupHopsSig:vector  ETV
vector 432172  Network.dyn_peer[9]  lookupStabilitySig:vector  ETV
vector 432173  Network.dyn_peer[9]  lookupTimeSig:vector  ETV
vector 432186  Network.dyn_peer[14]  lookupHopsSig:vector  ETV
vector 432187  Network.dyn_peer[14]  lookupStabilitySig:vector  ETV
vector 432188  Network.dyn_peer[14]  lookupTimeSig:vector  ETV
vector 432210  Network.dyn_peer[22]  lookupHopsSig:vector  ETV
vector 432211  Network.dyn_peer[22]  lookupStabilitySig:vector  ETV
vector 432212  Network.dyn_peer[22]  lookupTimeSig:vector  ETV
vector 432282  Network.dyn_peer[46]  lookupHopsSig:vector  ETV
vector 432283  Network.dyn_peer[46]  lookupStabilitySig:vector  ETV
vector 432284  Network.dyn_peer[46]  lookupTimeSig:vector  ETV
vector 432144  Network.dyn_peer[0]  lookupHopsSig:vector  ETV
vector 432145  Network.dyn_peer[0]  lookupStabilitySig:vector  ETV
vector 432146  Network.dyn_peer[0]  lookupTimeSig:vector  ETV
vector 432201  Network.dyn_peer[19]  lookupHopsSig:vector  ETV
vector 432202  Network.dyn_peer[19]  lookupStabilitySig:vector  ETV
vector 432203  Network.dyn_peer[19]  lookupTimeSig:vector  ETV
vector 432216  Network.dyn_peer[24]  lookupHopsSig:vector  ETV
vector 432217  Network.dyn_peer[24]  lookupStabilitySig:vector  ETV
vector 432218  Network.dyn_peer[24]  lookupTimeSig:vector  ETV
vector 432231  Network.dyn_peer[29]  lookupHopsSig:vector  ETV
vector 432232  Network.dyn_peer[29]  lookupStabilitySig:vector  ETV
vector 432233  Network.dyn_peer[29]  lookupTimeSig:vector  ETV
vector 432150  Network.dyn_peer[2]  lookupHopsSig:vector  ETV
vector 432151  Network.dyn_peer[2]  lookupStabilitySig:vector  ETV
vector 432152  Network.dyn_peer[2]  lookupTimeSig:vector  ETV
vector 432162  Network.dyn_peer[6]  lookupHopsSig:vector  ETV
vector 432163  Network.dyn_peer[6]  lookupStabilitySig:vector  ETV
vector 432164  Network.dyn_peer[6]  lookupTimeSig:vector  ETV
vector 432192  Network.dyn_peer[16]  lookupHopsSig:vector  ETV
vector 432193  Network.dyn_peer[16]  lookupStabilitySig:vector  ETV
vector 432194  Network.dyn_peer[16]  lookupTimeSig:vector  ETV
vector 432195  Network.dyn_peer[17]  lookupHopsSig:vector  ETV
vector 432196  Network.dyn_peer[17]  lookupStabilitySig:vector  ETV
vector 432197  Network.dyn_peer[17]  lookupTimeSig:vector  ETV
vector 432228  Network.dyn_peer[28]  lookupHopsSig:vector  ETV
vector 432229  Network.dyn_peer[28]  lookupStabilitySig:vector  ETV
vector 432230  Network.dyn_peer[28]  lookupTimeSig:vector  ETV
vector 432246  Network.dyn_peer[34]  lookupHopsSig:vector  ETV
vector 432247  Network.dyn_peer[34]  lookupStabilitySig:vector  ETV
vector 432248  Network.dyn_peer[34]  lookupTimeSig:vector  ETV
vector 432252  Network.dyn_peer[36]  lookupHopsSig:vector  ETV
vector 432253  Network.dyn_peer[36]  lookupStabilitySig:vector  ETV
vector 432254  Network.dyn_peer[36]  lookupTimeSig:vector  ETV
vector 432156  Network.dyn_peer[4]  lookupHopsSig:vector  ETV
vector 432157  Network.dyn_peer[4]  lookupStabilitySig:vector  ETV
vector 432158  Network.dyn_peer[4]  lookupTimeSig:vector  ETV
vector 432204  Network.dyn_peer[20]  lookupHopsSig:vector  ETV
vector 432205  Network.dyn_peer[20]  lookupStabilitySig:vector  ETV
vector 432206  Network.dyn_peer[20]  lookupTimeSig:vector  ETV
vector 432237  Network.dyn_peer[31]  lookupHopsSig:vector  ETV
vector 432238  Network.dyn_peer[31]  lookupStabilitySig:vector  ETV
vector 432239  Network.dyn_peer[31]  lookupTimeSig:vector  ETV
vector 432159  Network.dyn_peer[5]  lookupHopsSig:vector  ETV
vector 432160  Network.dyn_peer[5]  lookupStabilitySig:vector  ETV
vector 432161  Network.dyn_peer[5]  lookupTimeSig:vector  ETV
vector 432273  Network.dyn_peer[43]  lookupHopsSig:vector  ETV
vector 432274  Network.dyn_peer[43]  lookupStabilitySig:vector  ETV
vector 432275  Network.dyn_peer[43]  lookupTimeSig:vector  ETV
vector 432177  Network.dyn_peer[11]  lookupHopsSig:vector  ETV
vector 432178  Network.dyn_peer[11]  lookupStabilitySig:vector  ETV
vector 432179  Network.dyn_peer[11]  lookupTimeSig:vector  ETV
vector 432213  Network.dyn_peer[23]  lookupHopsSig:vector  ETV
vector 432214  Network.dyn_peer[23]  lookupStabilitySig:vector  ETV
vector 432215  Network.dyn_peer[23]  lookupTimeSig:vector  ETV
vector 432222  Network.dyn_peer[26]  lookupHopsSig:vector  ETV
vector 432223  Network.dyn_peer[26]  lookupStabilitySig:vector  ETV
vector 432224  Network.dyn_peer[26]  lookupTimeSig:vector  ETV
vector 432240  Network.dyn_peer[32]  lookupHopsSig:vector  ETV
vector 432241  Network.dyn_peer[32]  lookupStabilitySig:vector  ETV
vector 432242  Network.dyn_peer[32]  lookupTimeSig:vector  ETV
vector 432291  Network.dyn_peer[49]  lookupHopsSig:vector  ETV
vector 432292  Network.dyn_peer[49]  lookupStabilitySig:vector  ETV
vector 432293  Network.dyn_peer[49]  lookupTimeSig:vector  ETV
432144	10127 79 462 1133 20.401 21.315526197315 3 3 4 11 41
432145	10206 124 462 1133 20.401 21.315526197315 3 0.19999998807907 0.73333331942558 1.3333332836628 0.73777773353789
432146	10330 85 462 1133 20.401 21.315526197315 3 0.4 0.5 1.3 0.57
432147	10415 99 206 1310 20.102 21.617908707919 4 1 5 13 51
432148	10514 143 206 1310 20.102 21.617908707919 4 0 0.84615384042263 2.2175824046135 1.6825069242728
432149	10657 107 206 1310 20.102 21.617908707919 4 0.1 0.6 1.6 0.78
432150	10764 42 538 1347 20.503 21.703 2 5 11 16 146
432151	10806 56 538 1347 20.503 21.703 2 0 0.62068966031075 0.62068966031075 0.38525565441667
432152	10862 45 538 1347 20.503 21.703 2 0.5 1.2 1.7 1.69
432153	10907 107 26 1149 20.004 21.328870869891 4 0 4 10 36
432154	11014 151 26 1149 20.004 21.328870869891 4 0.19999998807907 1 2.564705863595 1.9847750732437
432155	11165 113 26 1149 20.004 21.328870869891 4 0 0.5 1.3 0.59
432156	11278 70 628 1490 20.605 22.11333111162 3 4 9 19 133
432157	11348 116 628 1490 20.605 22.11333111162 3 -0.20000004768372 0.89189188927412 1.3318918272853 1.2450711429159
432158	11464 74 628 1490 20.605 22.11333111162 3 0.5 1 2.1 1.61
432159	11538 221 899 1840 21.006 24.327802851808 8 1 10 36 210
432160	11759 341 899 1840 21.006 24.327802851808 8 -0.66666662693024 0.92682927101851 5.6494157016277 6.1464486250072
432161	12100 234 899 1840 21.006 24.327802851808 8 0.2 1 4.3 2.69
432162	12334 49 546 903 20.507 21.009810003058 2 4 5 9 41
432163	12383 64 546 903 20.507 21.009810003058 2 0 0.33333331346512 0.33333331346512 0.11111109786563
432164	12447 53 546 903 20.507 21.009810003058 2 0.5 0.5 1 0.5
432165	12500 71 216 1393 20.108 21.814110883965 3 1 13 16 174
432166	12571 114 216 1393 20.108 21.814110883965 3 0.59999999403954 0.79999999701977 2.0060605853796 1.3673094320669
432167	12685 76 216 1393 20.108 21.814110883965 3 0.1 1.4 1.8 2.06
432168	12761 100 46 1355 20.009 21.721357702575 4 0 10 14 110
432169	12861 133 46 1355 20.009 21.721357702575 4 -0.42857146263123 1 2.413095202297 2.8837429396653
432170	12994 105 46 1355 20.009 21.721357702575 4 0 1.1 1.7 1.41
432171	13099 68 394 1305 20.31 21.61538017898 3 3 8 14 82
432172	13167 113 394 1305 20.31 21.61538017898 3 0.38461536169052 0.88000000268221 1.6646153405309 1.0823289620955
432173	13280 74 394 1305 20.31 21.61538017898 3 0.3 0.9 1.6 1.06
432174	13354 69 224 980 20.111 21.113358363484 3 1 7 9 51
432175	13423 115 224 980 20.111 21.113358363484 3 -0.16666662693024 0.85714285075665 1.4904762208462 1.4024716263672
432176	13538 75 224 980 20.111 21.113358363484 3 0.1 0.8 1.1 0.69
432177	13613 222 1059 1858 21.212 25.040641372148 8 2 12 43 291
432178	13835 342 1059 1858 21.212 25.040641372148 8 0.076923072338104 0.96296296268702 6.3872381895781 5.7043593867383
432179	14177 237 1059 1858 21.212 25.040641372148 8 0.3 1.2 5 3.6
432180	14414 69 231 1140 20.113 21.31863939444 3 1 6 11 53
432181	14483 103 231 1140 20.113 21.31863939444 3 0.19999998807907 0.79999999701977 1.6249999850988 1.0706249904633
432182	14586 75 231 1140 20.113 21.31863939444 3 0.1 0.7 1.3 0.75
432183	14661 187 327 1796 20.214 23.6643947278 7 2 9 30 180
432184	14848 283 327 1796 20.214 23.6643947278 7 -0.14285719394684 0.92682927101851 4.9313136935234 4.3929627911678
432185	15131 199 327 1796 20.214 23.6643947278 7 0.2 1 3.6 2.42
432186	15330 42 407 1190 20.315 21.415 2 3 10 13 109
432187	15372 58 407 1190 20.315 21.415 2 0.39999997615814 0.5 0.89999997615814 0.40999998092651
432188	15430 45 407 1190 20.315 21.415 2 0.3 1.1 1.4 1.3
432189	15475 101 75 1443 20.016 21.925687170507 4 0 13 16 174
432190	15576 144 75 1443 20.016 21.925687170507 4 0.35000002384186 1 3.2555555757135 2.9388271702904
432191	15720 106 75 1443 20.016 21.925687170507 4 0 1.4 1.9 2.09
432192	15826 50 565 1206 20.517 21.421967159342 2 5 8 13 89
432193	15876 65 565 1206 20.517 21.421967159342 2 0 0.61904761195183 0.61904761195183 0.38321994586326
432194	15941 54 565 1206 20.517 21.421967159342 2 0.5 0.9 1.4 1.06
432195	15995 69 570 997 20.518 21.120862307373 3 1 5 9 35
432196	16064 75 570 997 20.518 21.120862307373 3 0 0.875 1.375 1.015625
432197	16139 75 570 997 20.518 21.120862307373 3 0.2 0.5 1.1 0.45
432198	16214 282 337 1850 20.219 24.646253443084 10 1 11 37 213
432199	16496 431 337 1850 20.219 24.646253443084 10 0.44999998807907 0.97297297231853 8.5077778343111 7.5197247116532
432200	16927 301 337 1850 20.219 24.646253443084 10 0.2 1.2 4.6 2.92
432201	17228 38 491 995 20.42 21.12 2 4 6 10 52
432202	17266 56 491 995 20.42 21.12 2 0.19999998807907 0.25 0.44999998807907 0.10249999523163
432203	17322 42 491 995 20.42 21.12 2 0.4 0.7 1.1 0.65
432204	17364 219 652 1724 20.621 23.067197151402 8 1 6 23 87
432205	17583 340 652 1724 20.621 23.067197151402 8 -0.20000004768372 0.97560975700617 6.0852904208004 5.7804909657374
432206	17923 235 652 1724 20.621 23.067197151402 8 0.2 0.6 3 1.28
432207	18158 220 344 1816 20.222 23.857959397411 8 1 7 31 155
432208	18378 325 344 1816 20.222 23.857959397411 8 0 0.97619047574699 6.0073692630976 5.2536600920975
432209	18703 236 344 1816 20.222 23.857959397411 8 0.2 0.8 3.8 2.2
432210	18939 130 421 1505 20.323 22.148803199765 5 2 6 17 69
432211	19069 203 421 1505 20.323 22.148803199765 5 0.14285713434219 0.9473684206605 3.2647353298962 2.6581726507662
432212	19272 140 421 1505 20.323 22.148803199765 5 0.3 0.7 2.1 1.01
432213	19412 133 1079 1790 21.224 23.632722505578 5 2 12 32 264
432214	19545 208 1079 1790 21.224 23.632722505578 5 0.076923072338104 0.91666666418314 3.5719698444009 3.0651143159714
432215	19753 142 1079 1790 21.224 23.632722505578 5 0.3 1.2 3.6 3.08
432216	19895 70 501 1005 20.425 21.127265304145 3 1 4 9 33
432217	19965 115 501 1005 20.425 21.127265304145 3 0.19999998807907 0.79999999701977 1.5999999791384 1.0399999833107
432218	20080 76 501 1005 20.425 21.127265304145 3 0.2 0.5 1.1 0.45
432219	20156 100 109 1275 20.026 21.536012100538 4 0 6 12 54
432220	20256 135 109 1275 20.026 21.536012100538 4 -0.20000004768372 1 2.3749999403954 2.2956250023842
432221	20391 106 109 1275 20.026 21.536012100538 4 0 0.7 1.5 0.81
432222	20497 43 1084 1319 21.227 21.627 2 3 12 15 153
432223	20540 73 1084 1319 21.227 21.627 2 0.076923072338104 0.88888888806105 0.96581196039915 0.79604061437634
432224	20613 46 1084 1319 21.227 21.627 2 0.4 1.2 1.6 1.6
432225	20659 200 119 1759 20.028 23.366023639156 7 0 14 27 233
432226	20859 288 119 1759 20.028 23.366023639156 7 0.43999999761581 1 6.124356534332 5.5835486775938
432227	21147 211 119 1759 20.028 23.366023639156 7 0 1.5 3.3 2.93
432228	21358 41 587 1088 20.529 21.229 2 5 6 11 61
432229	21399 56 587 1088 20.529 21.229 2 0 0.53846153616905 0.53846153616905 0.28994082593354
432230	21455 45 587 1088 20.529 21.229 2 0.5 0.7 1.2 0.74
432231	21500 68 509 1161 20.43 21.339570289081 3 2 5 11 45
432232	21568 113 509 1161 20.43 21.339570289081 3 0.19999998807907 0.88888888806105 1.3746031448245 0.91175609387989
432233	21681 74 509 1161 20.43 21.339570289081 3 0.3 0.6 1.3 0.61
432234	21755 160 356 1560 20.231 22.354518335701 6 2 5 18 60
432235	21915 235 356 1560 20.231 22.354518335701 6 0 0.94871794804931 4.1462082900107 3.5190185350876
432236	22150 172 356 1560 20.231 22.354518335701 6 0.2 0.6 2.3 0.97
432237	22322 190 671 1714 20.632 23.055026856687 7 2 6 24 98
432238	22512 296 671 1714 20.632 23.055026856687 7 -0.20000004768372 0.95348837226629 5.0508337803185 4.7131892084132
432239	22808 204 671 1714 20.632 23.055026856687 7 0.3 0.6 3 1.4
432240	23012 132 1096 1683 21.233 22.867253803641 5 2 12 24 184
432241	23144 205 1096 1683 21.233 22.867253803641 5 0.14285713434219 0.9411764703691 3.8005751930177 3.366286469342
432242	23349 141 1096 1683 21.233 22.867253803641 5 0.3 1.2 2.8 2.12
432243	23490 100 256 1374 20.134 21.74312967605 4 1 9 14 90
432244	23590 160 256 1374 20.134 21.74312967605 4 0.18181818723679 0.93548387289047 2.8263929635286 2.3746342009456
432245	23750 106 256 1374 20.134 21.74312967605 4 0.1 1 1.7 1.19
432246	23856 160 597 1708 20.535 23.042225643313 6 1 9 25 143
432247	24016 223 597 1708 20.535 23.042225643313 6 0 0.97619047574699 4.3422418702394 3.849173380224
432248	24239 170 597 1708 20.535 23.042225643313 6 0.2 1 3 1.88
432249	24409 128 262 1423 20.136 21.852073954207 5 1 6 14 58
432250	24537 203 262 1423 20.136 21.852073954207 5 -0.20000004768372 0.9411764703691 3.2383192740381 3.0061070352929
432251	24740 138 262 1423 20.136 21.852073954207 5 0.1 0.7 1.8 0.88
432252	24878 162 603 1717 20.537 23.062031600019 6 1 11 25 177
432253	25040 234 603 1717 20.537 23.062031600019 6 0 0.97560975700617 4.4227211326361 3.9910452081446
432254	25274 173 603 1717 20.537 23.062031600019 6 0.2 1.2 3 2.22
432255	25447 99 268 1238 20.138 21.452126474929 4 1 5 11 39
432256	25546 159 268 1238 20.138 21.452126474929 4 0.39999997615814 0.79999999701977 2.5826086699963 1.7724763506707
432257	25705 107 268 1238 20.138 21.452126474929 4 0.1 0.6 1.4 0.62
432258	25812 220 273 1829 20.139 24.087023499325 8 1 8 33 185
432259	26032 340 273 1829 20.139 24.087023499325 8 -0.14285719394684 0.97560975700617 6.0735242031515 5.5723393066766
432260	26372 236 273 1829 20.139 24.087023499325 8 0.1 0.9 4 2.56
432261	26608 69 278 1225 20.14 21.440472487704 3 1 9 12 86
432262	26677 114 278 1225 20.14 21.440472487704 3 0.18181818723679 0.90909090638161 1.8909090906382 1.4995041245074
432263	26791 73 278 1225 20.14 21.440472487704 3 0.1 1 1.4 1.1
432264	26864 70 283 1335 20.141 21.643074168361 3 1 7 14 86
432265	26934 116 283 1335 20.141 21.643074168361 3 -0.16666662693024 0.79999999701977 1.4190476536751 1.2851246951943
432266	27050 76 283 1335 20.141 21.643074168361 3 0.1 0.8 1.6 1.14
432267	27126 99 288 1041 20.142 21.151603594769 4 1 5 8 28
432268	27225 144 288 1041 20.142 21.151603594769 4 0 0.90909090638161 2.5424242317677 2.1608907074634
432269	27369 107 288 1041 20.142 21.151603594769 4 0.1 0.6 1.1 0.45
432270	27476 69 293 824 20.143 20.852951389592 3 1 4 6 18
432271	27545 114 293 824 20.143 20.852951389592 3 0.19999998807907 0.79999999701977 1.7999999821186 1.3199999856949
432272	27659 75 293 824 20.143 20.852951389592 3 0.1 0.5 0.8 0.3
432273	27734 102 954 1585 21.044 22.456034192964 4 2 10 21 145
432274	27836 162 954 1585 21.044 22.456034192964 4 -0.42857146263123 0.89999999850988 2.2310302481055 2.5422187560438
432275	27998 107 954 1585 21.044 22.456034192964 4 0.3 1 2.4 1.7
432276	28105 42 176 1110 20.045 21.245 2 0 11 11 121
432277	28147 56 176 1110 20.045 21.245 2 0.21428573131561 1 1.2142857313156 1.0459183746455
432278	28203 43 176 1110 20.045 21.245 2 0 1.2 1.2 1.44
432279	28246 72 183 1377 20.046 21.746593931952 3 0 10 15 125
432280	28318 102 183 1377 20.046 21.746593931952 3 0.090909063816071 1 1.9296187460423 1.7116983889439
432281	28420 75 183 1377 20.046 21.746593931952 3 0 1.1 1.7 1.57
432282	28495 79 452 1429 20.347 21.856893464781 3 3 9 16 106
432283	28574 124 452 1429 20.347 21.856893464781 3 0.19999998807907 0.73529410362244 1.3352940678596 0.74065739498007
432284	28698 83 452 1429 20.347 21.856893464781 3 0.3 1 1.8 1.34
432285	28781 70 194 1046 20.048 21.157793443358 3 0 6 9 45
432286	28851 89 194 1046 20.048 21.157793443358 3 -0.20000004768372 1 1.5499999523163 1.6025000190735
432287	28940 74 194 1046 20.048 21.157793443358 3 0 0.7 1.1 0.65
432288	29014 42 306 1174 20.149 21.349 2 1 11 12 122
432289	29056 71 306 1174 20.149 21.349 2 0.42105263471603 0.79999999701977 1.2210526317358 0.81728531643294
432290	29127 45 306 1174 20.149 21.349 2 0.1 1.2 1.3 1.45
432291	29172 190 1121 1807 21.25 23.775201793117 7 1 12 31 215
432292	29362 294 1121 1807 21.25 23.775201793117 7 0.19999998807907 0.97959183715284 5.7161111887544 5.1166637761713
432293	29656 203 1121 1807 21.25 23.775201793117 7 0.2 1.2 3.7 2.59
435144	29859 1026 10 198 20 20.05 51 0 49 1225 40425
