version 2
run Stability2-160-20130526-00:51:57-26640
attr configname Stability2
attr datetime 20130526-00:51:57
attr experiment Stability2
attr inifile omnetpp.ini
attr iterationvars $0=100
attr iterationvars2 "$0=100, $repetition=10"
attr measurement $0=100
attr network Network
attr processid 26640
attr repetition 10
attr replication #10
attr resultdir results
attr runnumber 160
attr seedset 160

vector 483160  Network.churner  inGoingSizeSig:vector  ETV
vector 480175  Network.dyn_peer[5]  lookupHopsSig:vector  ETV
vector 480176  Network.dyn_peer[5]  lookupStabilitySig:vector  ETV
vector 480177  Network.dyn_peer[5]  lookupTimeSig:vector  ETV
vector 480223  Network.dyn_peer[21]  lookupHopsSig:vector  ETV
vector 480224  Network.dyn_peer[21]  lookupStabilitySig:vector  ETV
vector 480225  Network.dyn_peer[21]  lookupTimeSig:vector  ETV
vector 480238  Network.dyn_peer[26]  lookupHopsSig:vector  ETV
vector 480239  Network.dyn_peer[26]  lookupStabilitySig:vector  ETV
vector 480240  Network.dyn_peer[26]  lookupTimeSig:vector  ETV
vector 480250  Network.dyn_peer[30]  lookupHopsSig:vector  ETV
vector 480251  Network.dyn_peer[30]  lookupStabilitySig:vector  ETV
vector 480252  Network.dyn_peer[30]  lookupTimeSig:vector  ETV
vector 480295  Network.dyn_peer[45]  lookupHopsSig:vector  ETV
vector 480296  Network.dyn_peer[45]  lookupStabilitySig:vector  ETV
vector 480297  Network.dyn_peer[45]  lookupTimeSig:vector  ETV
vector 480301  Network.dyn_peer[47]  lookupHopsSig:vector  ETV
vector 480302  Network.dyn_peer[47]  lookupStabilitySig:vector  ETV
vector 480303  Network.dyn_peer[47]  lookupTimeSig:vector  ETV
vector 480304  Network.dyn_peer[48]  lookupHopsSig:vector  ETV
vector 480305  Network.dyn_peer[48]  lookupStabilitySig:vector  ETV
vector 480306  Network.dyn_peer[48]  lookupTimeSig:vector  ETV
vector 480319  Network.dyn_peer[53]  lookupHopsSig:vector  ETV
vector 480320  Network.dyn_peer[53]  lookupStabilitySig:vector  ETV
vector 480321  Network.dyn_peer[53]  lookupTimeSig:vector  ETV
vector 480361  Network.dyn_peer[67]  lookupHopsSig:vector  ETV
vector 480362  Network.dyn_peer[67]  lookupStabilitySig:vector  ETV
vector 480363  Network.dyn_peer[67]  lookupTimeSig:vector  ETV
vector 480373  Network.dyn_peer[71]  lookupHopsSig:vector  ETV
vector 480374  Network.dyn_peer[71]  lookupStabilitySig:vector  ETV
vector 480375  Network.dyn_peer[71]  lookupTimeSig:vector  ETV
vector 480403  Network.dyn_peer[81]  lookupHopsSig:vector  ETV
vector 480404  Network.dyn_peer[81]  lookupStabilitySig:vector  ETV
vector 480405  Network.dyn_peer[81]  lookupTimeSig:vector  ETV
vector 480445  Network.dyn_peer[95]  lookupHopsSig:vector  ETV
vector 480446  Network.dyn_peer[95]  lookupStabilitySig:vector  ETV
vector 480447  Network.dyn_peer[95]  lookupTimeSig:vector  ETV
vector 480166  Network.dyn_peer[2]  lookupHopsSig:vector  ETV
vector 480167  Network.dyn_peer[2]  lookupStabilitySig:vector  ETV
vector 480168  Network.dyn_peer[2]  lookupTimeSig:vector  ETV
vector 480178  Network.dyn_peer[6]  lookupHopsSig:vector  ETV
vector 480179  Network.dyn_peer[6]  lookupStabilitySig:vector  ETV
vector 480180  Network.dyn_peer[6]  lookupTimeSig:vector  ETV
vector 480193  Network.dyn_peer[11]  lookupHopsSig:vector  ETV
vector 480194  Network.dyn_peer[11]  lookupStabilitySig:vector  ETV
vector 480195  Network.dyn_peer[11]  lookupTimeSig:vector  ETV
vector 480253  Network.dyn_peer[31]  lookupHopsSig:vector  ETV
vector 480254  Network.dyn_peer[31]  lookupStabilitySig:vector  ETV
vector 480255  Network.dyn_peer[31]  lookupTimeSig:vector  ETV
vector 480256  Network.dyn_peer[32]  lookupHopsSig:vector  ETV
vector 480257  Network.dyn_peer[32]  lookupStabilitySig:vector  ETV
vector 480258  Network.dyn_peer[32]  lookupTimeSig:vector  ETV
vector 480262  Network.dyn_peer[34]  lookupHopsSig:vector  ETV
vector 480263  Network.dyn_peer[34]  lookupStabilitySig:vector  ETV
vector 480264  Network.dyn_peer[34]  lookupTimeSig:vector  ETV
vector 480271  Network.dyn_peer[37]  lookupHopsSig:vector  ETV
vector 480272  Network.dyn_peer[37]  lookupStabilitySig:vector  ETV
vector 480273  Network.dyn_peer[37]  lookupTimeSig:vector  ETV
vector 480310  Network.dyn_peer[50]  lookupHopsSig:vector  ETV
vector 480311  Network.dyn_peer[50]  lookupStabilitySig:vector  ETV
vector 480312  Network.dyn_peer[50]  lookupTimeSig:vector  ETV
vector 480331  Network.dyn_peer[57]  lookupHopsSig:vector  ETV
vector 480332  Network.dyn_peer[57]  lookupStabilitySig:vector  ETV
vector 480333  Network.dyn_peer[57]  lookupTimeSig:vector  ETV
vector 480334  Network.dyn_peer[58]  lookupHopsSig:vector  ETV
vector 480335  Network.dyn_peer[58]  lookupStabilitySig:vector  ETV
vector 480336  Network.dyn_peer[58]  lookupTimeSig:vector  ETV
vector 480376  Network.dyn_peer[72]  lookupHopsSig:vector  ETV
vector 480377  Network.dyn_peer[72]  lookupStabilitySig:vector  ETV
vector 480378  Network.dyn_peer[72]  lookupTimeSig:vector  ETV
vector 480382  Network.dyn_peer[74]  lookupHopsSig:vector  ETV
vector 480383  Network.dyn_peer[74]  lookupStabilitySig:vector  ETV
vector 480384  Network.dyn_peer[74]  lookupTimeSig:vector  ETV
vector 480385  Network.dyn_peer[75]  lookupHopsSig:vector  ETV
vector 480386  Network.dyn_peer[75]  lookupStabilitySig:vector  ETV
vector 480387  Network.dyn_peer[75]  lookupTimeSig:vector  ETV
vector 480394  Network.dyn_peer[78]  lookupHopsSig:vector  ETV
vector 480395  Network.dyn_peer[78]  lookupStabilitySig:vector  ETV
vector 480396  Network.dyn_peer[78]  lookupTimeSig:vector  ETV
vector 480442  Network.dyn_peer[94]  lookupHopsSig:vector  ETV
vector 480443  Network.dyn_peer[94]  lookupStabilitySig:vector  ETV
vector 480444  Network.dyn_peer[94]  lookupTimeSig:vector  ETV
vector 480454  Network.dyn_peer[98]  lookupHopsSig:vector  ETV
vector 480455  Network.dyn_peer[98]  lookupStabilitySig:vector  ETV
vector 480456  Network.dyn_peer[98]  lookupTimeSig:vector  ETV
vector 480457  Network.dyn_peer[99]  lookupHopsSig:vector  ETV
vector 480458  Network.dyn_peer[99]  lookupStabilitySig:vector  ETV
vector 480459  Network.dyn_peer[99]  lookupTimeSig:vector  ETV
vector 480190  Network.dyn_peer[10]  lookupHopsSig:vector  ETV
vector 480191  Network.dyn_peer[10]  lookupStabilitySig:vector  ETV
vector 480192  Network.dyn_peer[10]  lookupTimeSig:vector  ETV
vector 480229  Network.dyn_peer[23]  lookupHopsSig:vector  ETV
vector 480230  Network.dyn_peer[23]  lookupStabilitySig:vector  ETV
vector 480231  Network.dyn_peer[23]  lookupTimeSig:vector  ETV
vector 480247  Network.dyn_peer[29]  lookupHopsSig:vector  ETV
vector 480248  Network.dyn_peer[29]  lookupStabilitySig:vector  ETV
vector 480249  Network.dyn_peer[29]  lookupTimeSig:vector  ETV
vector 480283  Network.dyn_peer[41]  lookupHopsSig:vector  ETV
vector 480284  Network.dyn_peer[41]  lookupStabilitySig:vector  ETV
vector 480285  Network.dyn_peer[41]  lookupTimeSig:vector  ETV
vector 480316  Network.dyn_peer[52]  lookupHopsSig:vector  ETV
vector 480317  Network.dyn_peer[52]  lookupStabilitySig:vector  ETV
vector 480318  Network.dyn_peer[52]  lookupTimeSig:vector  ETV
vector 480328  Network.dyn_peer[56]  lookupHopsSig:vector  ETV
vector 480329  Network.dyn_peer[56]  lookupStabilitySig:vector  ETV
vector 480330  Network.dyn_peer[56]  lookupTimeSig:vector  ETV
vector 480346  Network.dyn_peer[62]  lookupHopsSig:vector  ETV
vector 480347  Network.dyn_peer[62]  lookupStabilitySig:vector  ETV
vector 480348  Network.dyn_peer[62]  lookupTimeSig:vector  ETV
vector 480364  Network.dyn_peer[68]  lookupHopsSig:vector  ETV
vector 480365  Network.dyn_peer[68]  lookupStabilitySig:vector  ETV
vector 480366  Network.dyn_peer[68]  lookupTimeSig:vector  ETV
vector 480388  Network.dyn_peer[76]  lookupHopsSig:vector  ETV
vector 480389  Network.dyn_peer[76]  lookupStabilitySig:vector  ETV
vector 480390  Network.dyn_peer[76]  lookupTimeSig:vector  ETV
vector 480391  Network.dyn_peer[77]  lookupHopsSig:vector  ETV
vector 480392  Network.dyn_peer[77]  lookupStabilitySig:vector  ETV
vector 480393  Network.dyn_peer[77]  lookupTimeSig:vector  ETV
vector 480412  Network.dyn_peer[84]  lookupHopsSig:vector  ETV
vector 480413  Network.dyn_peer[84]  lookupStabilitySig:vector  ETV
vector 480414  Network.dyn_peer[84]  lookupTimeSig:vector  ETV
vector 480418  Network.dyn_peer[86]  lookupHopsSig:vector  ETV
vector 480419  Network.dyn_peer[86]  lookupStabilitySig:vector  ETV
vector 480420  Network.dyn_peer[86]  lookupTimeSig:vector  ETV
vector 480169  Network.dyn_peer[3]  lookupHopsSig:vector  ETV
vector 480170  Network.dyn_peer[3]  lookupStabilitySig:vector  ETV
vector 480171  Network.dyn_peer[3]  lookupTimeSig:vector  ETV
vector 480172  Network.dyn_peer[4]  lookupHopsSig:vector  ETV
vector 480173  Network.dyn_peer[4]  lookupStabilitySig:vector  ETV
vector 480174  Network.dyn_peer[4]  lookupTimeSig:vector  ETV
vector 480181  Network.dyn_peer[7]  lookupHopsSig:vector  ETV
vector 480182  Network.dyn_peer[7]  lookupStabilitySig:vector  ETV
vector 480183  Network.dyn_peer[7]  lookupTimeSig:vector  ETV
vector 480211  Network.dyn_peer[17]  lookupHopsSig:vector  ETV
vector 480212  Network.dyn_peer[17]  lookupStabilitySig:vector  ETV
vector 480213  Network.dyn_peer[17]  lookupTimeSig:vector  ETV
vector 480214  Network.dyn_peer[18]  lookupHopsSig:vector  ETV
vector 480215  Network.dyn_peer[18]  lookupStabilitySig:vector  ETV
vector 480216  Network.dyn_peer[18]  lookupTimeSig:vector  ETV
vector 480220  Network.dyn_peer[20]  lookupHopsSig:vector  ETV
vector 480221  Network.dyn_peer[20]  lookupStabilitySig:vector  ETV
vector 480222  Network.dyn_peer[20]  lookupTimeSig:vector  ETV
vector 480226  Network.dyn_peer[22]  lookupHopsSig:vector  ETV
vector 480227  Network.dyn_peer[22]  lookupStabilitySig:vector  ETV
vector 480228  Network.dyn_peer[22]  lookupTimeSig:vector  ETV
vector 480241  Network.dyn_peer[27]  lookupHopsSig:vector  ETV
vector 480242  Network.dyn_peer[27]  lookupStabilitySig:vector  ETV
vector 480243  Network.dyn_peer[27]  lookupTimeSig:vector  ETV
vector 480265  Network.dyn_peer[35]  lookupHopsSig:vector  ETV
vector 480266  Network.dyn_peer[35]  lookupStabilitySig:vector  ETV
vector 480267  Network.dyn_peer[35]  lookupTimeSig:vector  ETV
vector 480298  Network.dyn_peer[46]  lookupHopsSig:vector  ETV
vector 480299  Network.dyn_peer[46]  lookupStabilitySig:vector  ETV
vector 480300  Network.dyn_peer[46]  lookupTimeSig:vector  ETV
vector 480400  Network.dyn_peer[80]  lookupHopsSig:vector  ETV
vector 480401  Network.dyn_peer[80]  lookupStabilitySig:vector  ETV
vector 480402  Network.dyn_peer[80]  lookupTimeSig:vector  ETV
vector 480424  Network.dyn_peer[88]  lookupHopsSig:vector  ETV
vector 480425  Network.dyn_peer[88]  lookupStabilitySig:vector  ETV
vector 480426  Network.dyn_peer[88]  lookupTimeSig:vector  ETV
vector 480448  Network.dyn_peer[96]  lookupHopsSig:vector  ETV
vector 480449  Network.dyn_peer[96]  lookupStabilitySig:vector  ETV
vector 480450  Network.dyn_peer[96]  lookupTimeSig:vector  ETV
vector 480184  Network.dyn_peer[8]  lookupHopsSig:vector  ETV
vector 480185  Network.dyn_peer[8]  lookupStabilitySig:vector  ETV
vector 480186  Network.dyn_peer[8]  lookupTimeSig:vector  ETV
vector 480196  Network.dyn_peer[12]  lookupHopsSig:vector  ETV
vector 480197  Network.dyn_peer[12]  lookupStabilitySig:vector  ETV
vector 480198  Network.dyn_peer[12]  lookupTimeSig:vector  ETV
vector 480202  Network.dyn_peer[14]  lookupHopsSig:vector  ETV
vector 480203  Network.dyn_peer[14]  lookupStabilitySig:vector  ETV
vector 480204  Network.dyn_peer[14]  lookupTimeSig:vector  ETV
vector 480232  Network.dyn_peer[24]  lookupHopsSig:vector  ETV
vector 480233  Network.dyn_peer[24]  lookupStabilitySig:vector  ETV
vector 480234  Network.dyn_peer[24]  lookupTimeSig:vector  ETV
vector 480277  Network.dyn_peer[39]  lookupHopsSig:vector  ETV
vector 480278  Network.dyn_peer[39]  lookupStabilitySig:vector  ETV
vector 480279  Network.dyn_peer[39]  lookupTimeSig:vector  ETV
vector 480289  Network.dyn_peer[43]  lookupHopsSig:vector  ETV
vector 480290  Network.dyn_peer[43]  lookupStabilitySig:vector  ETV
vector 480291  Network.dyn_peer[43]  lookupTimeSig:vector  ETV
vector 480313  Network.dyn_peer[51]  lookupHopsSig:vector  ETV
vector 480314  Network.dyn_peer[51]  lookupStabilitySig:vector  ETV
vector 480315  Network.dyn_peer[51]  lookupTimeSig:vector  ETV
vector 480343  Network.dyn_peer[61]  lookupHopsSig:vector  ETV
vector 480344  Network.dyn_peer[61]  lookupStabilitySig:vector  ETV
vector 480345  Network.dyn_peer[61]  lookupTimeSig:vector  ETV
vector 480370  Network.dyn_peer[70]  lookupHopsSig:vector  ETV
vector 480371  Network.dyn_peer[70]  lookupStabilitySig:vector  ETV
vector 480372  Network.dyn_peer[70]  lookupTimeSig:vector  ETV
vector 480430  Network.dyn_peer[90]  lookupHopsSig:vector  ETV
vector 480431  Network.dyn_peer[90]  lookupStabilitySig:vector  ETV
vector 480432  Network.dyn_peer[90]  lookupTimeSig:vector  ETV
vector 480235  Network.dyn_peer[25]  lookupHopsSig:vector  ETV
vector 480236  Network.dyn_peer[25]  lookupStabilitySig:vector  ETV
vector 480237  Network.dyn_peer[25]  lookupTimeSig:vector  ETV
vector 480244  Network.dyn_peer[28]  lookupHopsSig:vector  ETV
vector 480245  Network.dyn_peer[28]  lookupStabilitySig:vector  ETV
vector 480246  Network.dyn_peer[28]  lookupTimeSig:vector  ETV
vector 480274  Network.dyn_peer[38]  lookupHopsSig:vector  ETV
vector 480275  Network.dyn_peer[38]  lookupStabilitySig:vector  ETV
vector 480276  Network.dyn_peer[38]  lookupTimeSig:vector  ETV
vector 480337  Network.dyn_peer[59]  lookupHopsSig:vector  ETV
vector 480338  Network.dyn_peer[59]  lookupStabilitySig:vector  ETV
vector 480339  Network.dyn_peer[59]  lookupTimeSig:vector  ETV
vector 480352  Network.dyn_peer[64]  lookupHopsSig:vector  ETV
vector 480353  Network.dyn_peer[64]  lookupStabilitySig:vector  ETV
vector 480354  Network.dyn_peer[64]  lookupTimeSig:vector  ETV
vector 480451  Network.dyn_peer[97]  lookupHopsSig:vector  ETV
vector 480452  Network.dyn_peer[97]  lookupStabilitySig:vector  ETV
vector 480453  Network.dyn_peer[97]  lookupTimeSig:vector  ETV
vector 480160  Network.dyn_peer[0]  lookupHopsSig:vector  ETV
vector 480161  Network.dyn_peer[0]  lookupStabilitySig:vector  ETV
vector 480162  Network.dyn_peer[0]  lookupTimeSig:vector  ETV
vector 480205  Network.dyn_peer[15]  lookupHopsSig:vector  ETV
vector 480206  Network.dyn_peer[15]  lookupStabilitySig:vector  ETV
vector 480207  Network.dyn_peer[15]  lookupTimeSig:vector  ETV
vector 480259  Network.dyn_peer[33]  lookupHopsSig:vector  ETV
vector 480260  Network.dyn_peer[33]  lookupStabilitySig:vector  ETV
vector 480261  Network.dyn_peer[33]  lookupTimeSig:vector  ETV
vector 480292  Network.dyn_peer[44]  lookupHopsSig:vector  ETV
vector 480293  Network.dyn_peer[44]  lookupStabilitySig:vector  ETV
vector 480294  Network.dyn_peer[44]  lookupTimeSig:vector  ETV
vector 480322  Network.dyn_peer[54]  lookupHopsSig:vector  ETV
vector 480323  Network.dyn_peer[54]  lookupStabilitySig:vector  ETV
vector 480324  Network.dyn_peer[54]  lookupTimeSig:vector  ETV
vector 480379  Network.dyn_peer[73]  lookupHopsSig:vector  ETV
vector 480380  Network.dyn_peer[73]  lookupStabilitySig:vector  ETV
vector 480381  Network.dyn_peer[73]  lookupTimeSig:vector  ETV
vector 480406  Network.dyn_peer[82]  lookupHopsSig:vector  ETV
vector 480407  Network.dyn_peer[82]  lookupStabilitySig:vector  ETV
vector 480408  Network.dyn_peer[82]  lookupTimeSig:vector  ETV
vector 480163  Network.dyn_peer[1]  lookupHopsSig:vector  ETV
vector 480164  Network.dyn_peer[1]  lookupStabilitySig:vector  ETV
vector 480165  Network.dyn_peer[1]  lookupTimeSig:vector  ETV
vector 480280  Network.dyn_peer[40]  lookupHopsSig:vector  ETV
vector 480281  Network.dyn_peer[40]  lookupStabilitySig:vector  ETV
vector 480282  Network.dyn_peer[40]  lookupTimeSig:vector  ETV
vector 480349  Network.dyn_peer[63]  lookupHopsSig:vector  ETV
vector 480350  Network.dyn_peer[63]  lookupStabilitySig:vector  ETV
vector 480351  Network.dyn_peer[63]  lookupTimeSig:vector  ETV
vector 480415  Network.dyn_peer[85]  lookupHopsSig:vector  ETV
vector 480416  Network.dyn_peer[85]  lookupStabilitySig:vector  ETV
vector 480417  Network.dyn_peer[85]  lookupTimeSig:vector  ETV
vector 480436  Network.dyn_peer[92]  lookupHopsSig:vector  ETV
vector 480437  Network.dyn_peer[92]  lookupStabilitySig:vector  ETV
vector 480438  Network.dyn_peer[92]  lookupTimeSig:vector  ETV
vector 480187  Network.dyn_peer[9]  lookupHopsSig:vector  ETV
vector 480188  Network.dyn_peer[9]  lookupStabilitySig:vector  ETV
vector 480189  Network.dyn_peer[9]  lookupTimeSig:vector  ETV
vector 480208  Network.dyn_peer[16]  lookupHopsSig:vector  ETV
vector 480209  Network.dyn_peer[16]  lookupStabilitySig:vector  ETV
vector 480210  Network.dyn_peer[16]  lookupTimeSig:vector  ETV
vector 480307  Network.dyn_peer[49]  lookupHopsSig:vector  ETV
vector 480308  Network.dyn_peer[49]  lookupStabilitySig:vector  ETV
vector 480309  Network.dyn_peer[49]  lookupTimeSig:vector  ETV
vector 480325  Network.dyn_peer[55]  lookupHopsSig:vector  ETV
vector 480326  Network.dyn_peer[55]  lookupStabilitySig:vector  ETV
vector 480327  Network.dyn_peer[55]  lookupTimeSig:vector  ETV
vector 480340  Network.dyn_peer[60]  lookupHopsSig:vector  ETV
vector 480341  Network.dyn_peer[60]  lookupStabilitySig:vector  ETV
vector 480342  Network.dyn_peer[60]  lookupTimeSig:vector  ETV
vector 480358  Network.dyn_peer[66]  lookupHopsSig:vector  ETV
vector 480359  Network.dyn_peer[66]  lookupStabilitySig:vector  ETV
vector 480360  Network.dyn_peer[66]  lookupTimeSig:vector  ETV
vector 480199  Network.dyn_peer[13]  lookupHopsSig:vector  ETV
vector 480200  Network.dyn_peer[13]  lookupStabilitySig:vector  ETV
vector 480201  Network.dyn_peer[13]  lookupTimeSig:vector  ETV
vector 480286  Network.dyn_peer[42]  lookupHopsSig:vector  ETV
vector 480287  Network.dyn_peer[42]  lookupStabilitySig:vector  ETV
vector 480288  Network.dyn_peer[42]  lookupTimeSig:vector  ETV
vector 480355  Network.dyn_peer[65]  lookupHopsSig:vector  ETV
vector 480356  Network.dyn_peer[65]  lookupStabilitySig:vector  ETV
vector 480357  Network.dyn_peer[65]  lookupTimeSig:vector  ETV
vector 480427  Network.dyn_peer[89]  lookupHopsSig:vector  ETV
vector 480428  Network.dyn_peer[89]  lookupStabilitySig:vector  ETV
vector 480429  Network.dyn_peer[89]  lookupTimeSig:vector  ETV
vector 480439  Network.dyn_peer[93]  lookupHopsSig:vector  ETV
vector 480440  Network.dyn_peer[93]  lookupStabilitySig:vector  ETV
vector 480441  Network.dyn_peer[93]  lookupTimeSig:vector  ETV
vector 480268  Network.dyn_peer[36]  lookupHopsSig:vector  ETV
vector 480269  Network.dyn_peer[36]  lookupStabilitySig:vector  ETV
vector 480270  Network.dyn_peer[36]  lookupTimeSig:vector  ETV
vector 480433  Network.dyn_peer[91]  lookupHopsSig:vector  ETV
vector 480434  Network.dyn_peer[91]  lookupStabilitySig:vector  ETV
vector 480435  Network.dyn_peer[91]  lookupTimeSig:vector  ETV
vector 480397  Network.dyn_peer[79]  lookupHopsSig:vector  ETV
vector 480398  Network.dyn_peer[79]  lookupStabilitySig:vector  ETV
vector 480399  Network.dyn_peer[79]  lookupTimeSig:vector  ETV
vector 480409  Network.dyn_peer[83]  lookupHopsSig:vector  ETV
vector 480410  Network.dyn_peer[83]  lookupStabilitySig:vector  ETV
vector 480411  Network.dyn_peer[83]  lookupTimeSig:vector  ETV
vector 480421  Network.dyn_peer[87]  lookupHopsSig:vector  ETV
vector 480422  Network.dyn_peer[87]  lookupStabilitySig:vector  ETV
vector 480423  Network.dyn_peer[87]  lookupTimeSig:vector  ETV
vector 480367  Network.dyn_peer[69]  lookupHopsSig:vector  ETV
vector 480368  Network.dyn_peer[69]  lookupStabilitySig:vector  ETV
vector 480369  Network.dyn_peer[69]  lookupTimeSig:vector  ETV
vector 480217  Network.dyn_peer[19]  lookupHopsSig:vector  ETV
vector 480218  Network.dyn_peer[19]  lookupStabilitySig:vector  ETV
vector 480219  Network.dyn_peer[19]  lookupTimeSig:vector  ETV
480160	1144	20.601	6
480160	2288	21.501	8
480160	2863	22.002432393738	4
480160	3351	22.507231264911	4
480161	1144	20.601	-0.20000004768372
480161	2288	21.501	0.11111110448837
480161	2863	22.002432393738	0.85185185074806
480161	3351	22.507231264911	0.91111110895872
480162	1144	20.601	0.6
480162	2288	21.501	0.9
480162	2863	22.002432393738	0.5
480162	3351	22.507231264911	0.5
480163	1283	20.702	7
480163	2749	21.902	11
480164	1283	20.702	-0.39999997615814
480164	2749	21.902	0.5
480165	1283	20.702	0.7
480165	2749	21.902	1.2
480166	374	20.103	1
480166	2865	22.003	18
480166	3358	22.51085364798	4
480167	374	20.103	0.79999999701977
480167	2865	22.003	0.33333331346512
480167	3358	22.51085364798	0.91304347664118
480168	374	20.103	0.1
480168	2865	22.003	1.9
480168	3358	22.51085364798	0.5
480169	704	20.304	3
480169	2644	21.804	14
480169	3355	22.509789606082	6
480169	3770	23.11944258824	5
480169	4174	23.928566915832	7
480169	4293	24.237079865363	2
480170	704	20.304	0.39999997615814
480170	2644	21.804	0.30000001192093
480170	3355	22.509789606082	0.86956521868706
480170	3770	23.11944258824	0.91935484111309
480170	4174	23.928566915832	0.9066666662693
480170	4293	24.237079865363	0.97530864179134
480171	704	20.304	0.3
480171	2644	21.804	1.5
480171	3355	22.509789606082	0.7
480171	3770	23.11944258824	0.6
480171	4174	23.928566915832	0.8
480171	4293	24.237079865363	0.3
480172	709	20.305	3
480172	2647	21.805790884471	14
480172	3440	22.609875773253	7
480172	3826	23.212686660204	5
480172	4352	24.418159361104	11
480173	709	20.305	0.39999997615814
480173	2647	21.805790884471	0.30000001192093
480173	3440	22.609875773253	0.86274509131908
480173	3826	23.212686660204	0.92063491791487
480173	4352	24.418159361104	0.86746987700462
480174	709	20.305	0.3
480174	2647	21.805790884471	1.5
480174	3440	22.609875773253	0.8
480174	3826	23.212686660204	0.6
480174	4352	24.418159361104	1.2
480175	33	20.006	0
480175	1288	20.706	6
480175	3506	22.708010989494	19
480176	33	20.006	1
480176	1288	20.706	-0.20000004768372
480176	3506	22.708010989494	0.6415094435215
480177	33	20.006	0
480177	1288	20.706	0.7
480177	3506	22.708010989494	2
480178	382	20.107	1
480178	2166	21.407	12
480178	2413	21.610672180857	1
480178	3362	22.514501466245	8
480179	382	20.107	0.79999999701977
480179	2166	21.407	-0.5
480179	2413	21.610672180857	0.89999999850988
480179	3362	22.514501466245	0.82608695328236
480180	382	20.107	0.1
480180	2166	21.407	1.3
480180	2413	21.610672180857	0.2
480180	3362	22.514501466245	0.9
480181	717	20.308	3
480181	1921	21.208	8
480181	2544	21.715311975925	4
480181	2891	22.024789092979	2
480182	717	20.308	0.39999997615814
480182	1921	21.208	-0.14285719394684
480182	2544	21.715311975925	0.75
480182	2891	22.024789092979	0.92592592537403
480183	717	20.308	0.3
480183	1921	21.208	0.9
480183	2544	21.715311975925	0.5
480183	2891	22.024789092979	0.3
480184	869	20.409	4
480184	3072	22.209	17
480184	3446	22.617407179047	3
480184	3643	22.917514991874	2
480184	4082	23.717722470468	7
480184	4220	24.01856447876	2
480184	4413	24.623194520098	5
480184	4500	25.030921922739	3
480184	4567	25.531178197742	4
480185	869	20.409	0.19999998807907
480185	3072	22.209	0.52777779102325
480185	3446	22.617407179047	0.9411764703691
480185	3643	22.917514991874	0.96428571268916
480185	4082	23.717722470468	0.90140844881535
480185	4220	24.01856447876	0.97402597405016
480185	4413	24.623194520098	0.94252873584628
480185	4500	25.030921922739	0.96842105314136
480185	4567	25.531178197742	0.95833333209157
480186	869	20.409	0.4
480186	3072	22.209	1.8
480186	3446	22.617407179047	0.4
480186	3643	22.917514991874	0.3
480186	4082	23.717722470468	0.8
480186	4220	24.01856447876	0.3
480186	4413	24.623194520098	0.6
480186	4500	25.030921922739	0.4
480186	4567	25.531178197742	0.5
480187	1422	20.81	8
480187	2763	21.91	10
480188	1422	20.81	-0.60000002384186
480188	2763	21.91	0.56521740555763
480189	1422	20.81	0.8
480189	2763	21.91	1.1
480190	557	20.211	2
480190	872	20.411	1
480190	2778	21.918901906699	14
480190	3373	22.52833630476	5
480191	557	20.211	0.59999999403954
480191	872	20.411	0.79999999701977
480191	2778	21.918901906699	0.41666668653488
480191	3373	22.52833630476	0.89583333581686
480192	557	20.211	0.2
480192	872	20.411	0.2
480192	2778	21.918901906699	1.5
480192	3373	22.52833630476	0.6
480193	392	20.112	1
480193	3077	22.212	20
480193	3510	22.714063277324	4
480193	3768	23.118777056024	3
480193	4044	23.634132637809	4
480193	4225	24.034780459875	3
480194	392	20.112	0.79999999701977
480194	3077	22.212	0.44444441795349
480194	3510	22.714063277324	0.92592592537403
480194	3768	23.118777056024	0.95161290466785
480194	4044	23.634132637809	0.94366197288036
480194	4225	24.034780459875	0.96103896200657
480195	392	20.112	0.1
480195	3077	22.212	2.1
480195	3510	22.714063277324	0.5
480195	3768	23.118777056024	0.4
480195	4044	23.634132637809	0.5
480195	4225	24.034780459875	0.4
480196	880	20.413	4
480196	2659	21.813	13
480197	880	20.413	0.19999998807907
480197	2659	21.813	0.35000002384186
480198	880	20.413	0.4
480198	2659	21.813	1.4
480199	1556	20.914	9
480199	2980	22.114	11
480200	1556	20.914	-0.79999995231628
480200	2980	22.114	0.6451613008976
480201	1556	20.914	0.9
480201	2980	22.114	1.2
480202	886	20.415	4
480202	2421	21.615	11
480202	3451	22.621502922291	9
480202	3717	23.027695780363	3
480202	4260	24.130932158421	10
480202	4326	24.332620295142	1
480202	4443	24.73855405247	3
480203	886	20.415	0.19999998807907
480203	2421	21.615	-0.10000002384186
480203	3451	22.621502922291	0.82352940738201
480203	3717	23.027695780363	0.94999999925494
480203	4260	24.130932158421	0.87654320895672
480203	4326	24.332620295142	0.98780487850308
480203	4443	24.73855405247	0.9659090898931
480204	886	20.415	0.4
480204	2421	21.615	1.2
480204	3451	22.621502922291	1
480204	3717	23.027695780363	0.4
480204	4260	24.130932158421	1.1
480204	4326	24.332620295142	0.2
480204	4443	24.73855405247	0.4
480205	1165	20.616	6
480205	2774	21.916	12
480206	1165	20.616	-0.20000004768372
480206	2774	21.916	0.47826087474823
480207	1165	20.616	0.6
480207	2774	21.916	1.3
480208	1434	20.817	8
480208	1683	21.017	1
480208	2190	21.423715841093	3
480208	2787	21.924365996837	4
480209	1434	20.817	-0.60000002384186
480209	1683	21.017	0.79999999701977
480209	2190	21.423715841093	0.625
480209	2787	21.924365996837	0.84000000357628
480210	1434	20.817	0.8
480210	1683	21.017	0.2
480210	2190	21.423715841093	0.4
480210	2787	21.924365996837	0.5
480211	733	20.318	3
480211	2987	22.118	17
480211	3370	22.523800001358	3
480211	3715	23.027634485973	4
480211	3945	23.432725724516	3
480211	4296	24.243093148519	7
480211	4420	24.645223992658	3
480211	4520	25.152337845452	4
480211	4571	25.561107934424	3
480211	4618	26.066474074073	4
480212	733	20.318	0.39999997615814
480212	2987	22.118	0.45161288976669
480212	3370	22.523800001358	0.9375
480212	3715	23.027634485973	0.9333333298564
480212	3945	23.432725724516	0.9558823518455
480212	4296	24.243093148519	0.9146341457963
480212	4420	24.645223992658	0.96551724150777
480212	4520	25.152337845452	0.95789473503828
480212	4571	25.561107934424	0.96907216496766
480212	4618	26.066474074073	0.95918367430568
480213	733	20.318	0.3
480213	2987	22.118	1.8
480213	3370	22.523800001358	0.4
480213	3715	23.027634485973	0.5
480213	3945	23.432725724516	0.4
480213	4296	24.243093148519	0.8
480213	4420	24.645223992658	0.4
480213	4520	25.152337845452	0.5
480213	4571	25.561107934424	0.4
480213	4618	26.066474074073	0.5
480214	738	20.319	3
480214	2886	22.019	16
480215	738	20.319	0.39999997615814
480215	2886	22.019	0.40740740299225
480216	738	20.319	0.3
480216	2886	22.019	1.7
480217	2187	21.42	14
480217	4038	23.62	21
480217	4415	24.626535398156	9
480217	4517	25.132947722013	4
480217	4599	25.840218548614	6
480217	4630	26.141284703432	2
480217	4650	26.449937840475	2
480217	4676	26.753325634597	2
480217	4697	27.061177798016	2
480217	4718	27.362971850682	2
480218	2187	21.42	-0.75
480218	4038	23.62	0.7042253613472
480218	4415	24.626535398156	0.89655172079802
480218	4517	25.132947722013	0.95789473503828
480218	4599	25.840218548614	0.93877550959587
480218	4630	26.141284703432	0.97979797981679
480218	4650	26.449937840475	0.97979797981679
480218	4676	26.753325634597	0.98000000044703
480218	4697	27.061177798016	0.98000000044703
480218	4718	27.362971850682	0.98019802011549
480219	2187	21.42	1.4
480219	4038	23.62	2.2
480219	4415	24.626535398156	1
480219	4517	25.132947722013	0.5
480219	4599	25.840218548614	0.7
480219	4630	26.141284703432	0.3
480219	4650	26.449937840475	0.3
480219	4676	26.753325634597	0.3
480219	4697	27.061177798016	0.3
480219	4718	27.362971850682	0.3
480220	745	20.321	3
480220	2051	21.321	9
480220	2783	21.921123806316	5
480220	2998	22.128555315827	1
480221	745	20.321	0.39999997615814
480221	2051	21.321	-0.28571426868439
480221	2783	21.921123806316	0.79999999701977
480221	2998	22.128555315827	0.96875
480222	745	20.321	0.3
480222	2051	21.321	1
480222	2783	21.921123806316	0.6
480222	2998	22.128555315827	0.2
480223	85	20.022	0
480223	747	20.322	2
480223	2555	21.724666355911	13
480224	85	20.022	1
480224	747	20.322	0.59999999403954
480224	2555	21.724666355911	0.1875
480225	85	20.022	0
480225	747	20.322	0.3
480225	2555	21.724666355911	1.4
480226	752	20.323	3
480226	1939	21.223	8
480226	2199	21.43042811125	1
480227	752	20.323	0.39999997615814
480227	1939	21.223	-0.14285719394684
480227	2199	21.43042811125	0.875
480228	752	20.323	0.3
480228	1939	21.223	0.9
480228	2199	21.43042811125	0.2
480229	577	20.224	2
480229	2993	22.124	18
480229	3776	23.130330682868	9
480229	4091	23.737195032721	5
480229	4387	24.544554109016	7
480229	4467	24.845923490984	2
480230	577	20.224	0.59999999403954
480230	2993	22.124	0.4375
480230	3776	23.130330682868	0.85483871400356
480230	4091	23.737195032721	0.92957746237516
480230	4387	24.544554109016	0.91860464960337
480230	4467	24.845923490984	0.97802197746933
480231	577	20.224	0.2
480231	2993	22.124	1.9
480231	3776	23.130330682868	1
480231	4091	23.737195032721	0.6
480231	4387	24.544554109016	0.8
480231	4467	24.845923490984	0.3
480232	902	20.425	4
480232	3188	22.325	18
480232	3892	23.332319427188	9
480233	902	20.425	0.19999998807907
480233	3188	22.325	0.53846153616905
480233	3892	23.332319427188	0.86363635957241
480234	902	20.425	0.4