file 4885 1369674127                                            
version 2
run Stability2-0-20130526-00:51:06-26640
attr configname Stability2
attr datetime 20130526-00:51:06
attr experiment Stability2
attr inifile omnetpp.ini
attr iterationvars $0=10
attr iterationvars2 "$0=10, $repetition=0"
attr measurement $0=10
attr network Network
attr processid 26640
attr repetition 0
attr replication #0
attr resultdir results
attr runnumber 0
attr seedset 0
vector 3000  Network.churner  inGoingSizeSig:vector  ETV
3000	4704 181 9 51 20 20.01 11 0 9 45 285
vector 3  Network.dyn_peer[1]  lookupHopsSig:vector  ETV
3	2436 62 19 189 20.002 20.522238918791 3 0 2 3 5
vector 4  Network.dyn_peer[1]  lookupStabilitySig:vector  ETV
4	2498 92 19 189 20.002 20.522238918791 3 0.59999999403954 1 2.3999999910593 1.9999999880791
vector 5  Network.dyn_peer[1]  lookupTimeSig:vector  ETV
5	2590 66 19 189 20.002 20.522238918791 3 0 0.3 0.5 0.13
vector 18  Network.dyn_peer[6]  lookupHopsSig:vector  ETV
18	3765 40 39 227 20.007 20.709903910213 2 0 6 6 36
vector 19  Network.dyn_peer[6]  lookupStabilitySig:vector  ETV
19	3805 43 39 227 20.007 20.709903910213 2 0.25 1 1.25 1.0625
vector 20  Network.dyn_peer[6]  lookupTimeSig:vector  ETV
20	3848 42 39 227 20.007 20.709903910213 2 0 0.7 0.7 0.49
vector 0  Network.dyn_peer[0]  lookupHopsSig:vector  ETV
0	2226 53 62 223 20.101 20.707001932092 3 1 3 5 11
vector 1  Network.dyn_peer[0]  lookupStabilitySig:vector  ETV
1	2279 98 62 223 20.101 20.707001932092 3 0.39999997615814 0.85714285075665 2.0571428239346 1.5346938427614
vector 2  Network.dyn_peer[0]  lookupTimeSig:vector  ETV
2	2377 59 62 223 20.101 20.707001932092 3 0.1 0.4 0.7 0.21
vector 12  Network.dyn_peer[4]  lookupHopsSig:vector  ETV
12	3270 90 70 275 20.105 21.029307987268 4 1 3 7 15
vector 13  Network.dyn_peer[4]  lookupStabilitySig:vector  ETV
13	3360 150 70 275 20.105 21.029307987268 4 0.66666665673256 0.83333332836628 3.0999999791384 2.4188888578283
vector 14  Network.dyn_peer[4]  lookupTimeSig:vector  ETV
14	3510 98 70 275 20.105 21.029307987268 4 0.1 0.4 1 0.3
vector 27  Network.dyn_peer[9]  lookupHopsSig:vector  ETV
27	4318 104 81 299 20.11 21.620645122037 5 1 5 12 38
vector 28  Network.dyn_peer[9]  lookupStabilitySig:vector  ETV
28	4422 168 81 299 20.11 21.620645122037 5 0.375 0.85714285075665 3.7116300165653 2.9257396196629
vector 29  Network.dyn_peer[9]  lookupTimeSig:vector  ETV
29	4590 114 81 299 20.11 21.620645122037 5 0.1 0.6 1.6 0.64
vector 21  Network.dyn_peer[7]  lookupHopsSig:vector  ETV
21	3890 56 95 258 20.208 20.919629698776 3 2 3 7 17
vector 22  Network.dyn_peer[7]  lookupStabilitySig:vector  ETV
22	3946 88 95 258 20.208 20.919629698776 3 0.5 0.81818181276321 1.9181818068028 1.2794214715839
vector 23  Network.dyn_peer[7]  lookupTimeSig:vector  ETV
23	4034 62 95 258 20.208 20.919629698776 3 0.2 0.4 0.9 0.29
vector 24  Network.dyn_peer[8]  lookupHopsSig:vector  ETV
24	4096 57 100 251 20.209 20.821705825354 3 2 2 6 12
vector 25  Network.dyn_peer[8]  lookupStabilitySig:vector  ETV
25	4153 102 100 251 20.209 20.821705825354 3 0.59999999403954 0.79999999701977 1.9999999850988 1.3599999809265
vector 26  Network.dyn_peer[8]  lookupTimeSig:vector  ETV
26	4255 63 100 251 20.209 20.821705825354 3 0.2 0.3 0.8 0.22
vector 9  Network.dyn_peer[3]  lookupHopsSig:vector  ETV
9	2869 102 119 296 20.304 21.613970162232 5 1 4 12 34
vector 10  Network.dyn_peer[3]  lookupStabilitySig:vector  ETV
10	2971 182 119 296 20.304 21.613970162232 5 0.39999997615814 0.92307692021132 3.5709401294589 2.7526655965066
vector 11  Network.dyn_peer[3]  lookupTimeSig:vector  ETV
11	3153 117 119 296 20.304 21.613970162232 5 0.2 0.5 1.6 0.56
vector 15  Network.dyn_peer[5]  lookupHopsSig:vector  ETV
15	3608 41 124 205 20.306 20.609774065733 2 2 3 5 13
vector 16  Network.dyn_peer[5]  lookupStabilitySig:vector  ETV
16	3649 71 124 205 20.306 20.609774065733 2 0.39999997615814 0.66666665673256 1.0666666328907 0.60444441212548
vector 17  Network.dyn_peer[5]  lookupTimeSig:vector  ETV
17	3720 45 124 205 20.306 20.609774065733 2 0.3 0.3 0.6 0.18
vector 6  Network.dyn_peer[2]  lookupHopsSig:vector  ETV
6	2656 54 152 244 20.403 20.807568846458 3 1 4 6 18
vector 7  Network.dyn_peer[2]  lookupStabilitySig:vector  ETV
7	2710 99 152 244 20.403 20.807568846458 3 0.19999998807907 0.88888888806105 1.9222222045064 1.5245678867161
vector 8  Network.dyn_peer[2]  lookupTimeSig:vector  ETV
8	2809 60 152 244 20.403 20.807568846458 3 0.2 0.4 0.8 0.24
