file 62394 1369674128                                           
version 2
run Stability2-176-20130526-00:52:05-26640
attr configname Stability2
attr datetime 20130526-00:52:05
attr experiment Stability2
attr inifile omnetpp.ini
attr iterationvars $0=100
attr iterationvars2 "$0=100, $repetition=26"
attr measurement $0=100
attr network Network
attr processid 26640
attr repetition 26
attr replication #26
attr resultdir results
attr runnumber 176
attr seedset 176
vector 531176  Network.churner  inGoingSizeSig:vector  ETV
531176	60325 2069 11 348 20 20.1 101 0 99 4950 328350
vector 528194  Network.dyn_peer[6]  lookupHopsSig:vector  ETV
528194	22311 110 36 3031 20.007 22.137820476124 4 0 11 18 158
vector 528195  Network.dyn_peer[6]  lookupStabilitySig:vector  ETV
528195	22421 155 36 3031 20.007 22.137820476124 4 -0.22222220897675 1 2.420321661979 2.435929547053
vector 528196  Network.dyn_peer[6]  lookupTimeSig:vector  ETV
528196	22576 115 36 3031 20.007 22.137820476124 4 0 1.2 2.1 1.97
vector 528218  Network.dyn_peer[14]  lookupHopsSig:vector  ETV
528218	26122 77 65 2308 20.015 21.53075475517 3 0 9 13 97
vector 528219  Network.dyn_peer[14]  lookupStabilitySig:vector  ETV
528219	26199 97 65 2308 20.015 21.53075475517 3 -0.125 1 1.4749999940395 1.3756249928474
vector 528220  Network.dyn_peer[14]  lookupTimeSig:vector  ETV
528220	26296 79 65 2308 20.015 21.53075475517 3 0 1 1.5 1.25
vector 528257  Network.dyn_peer[27]  lookupHopsSig:vector  ETV
528257	31848 101 112 2674 20.028 21.839924611096 4 0 7 15 89
vector 528258  Network.dyn_peer[27]  lookupStabilitySig:vector  ETV
528258	31949 147 112 2674 20.028 21.839924611096 4 -0.20000004768372 1 1.96666662395 1.8811111252838
vector 528259  Network.dyn_peer[27]  lookupTimeSig:vector  ETV
528259	32096 107 112 2674 20.028 21.839924611096 4 0 0.8 1.8 1.22
vector 528266  Network.dyn_peer[30]  lookupHopsSig:vector  ETV
528266	33383 141 125 3355 20.031 22.458582304606 5 0 12 20 170
vector 528267  Network.dyn_peer[30]  lookupStabilitySig:vector  ETV
528267	33524 201 125 3355 20.031 22.458582304606 5 -0.33333337306976 1 3.309754692018 3.442169840626
vector 528268  Network.dyn_peer[30]  lookupTimeSig:vector  ETV
528268	33725 148 125 3355 20.031 22.458582304606 5 0 1.3 2.4 2.14
vector 528284  Network.dyn_peer[36]  lookupHopsSig:vector  ETV
528284	35520 103 148 3914 20.037 23.147465708905 4 0 12 28 290
vector 528285  Network.dyn_peer[36]  lookupStabilitySig:vector  ETV
528285	35623 137 148 3914 20.037 23.147465708905 4 -0.22222220897675 1 2.265277788043 2.1620389553941
vector 528286  Network.dyn_peer[36]  lookupTimeSig:vector  ETV
528286	35760 107 148 3914 20.037 23.147465708905 4 0 1.3 3.1 3.49
vector 528287  Network.dyn_peer[37]  lookupHopsSig:vector  ETV
528287	35867 101 155 3037 20.038 22.142560103097 4 0 8 18 122
vector 528288  Network.dyn_peer[37]  lookupStabilitySig:vector  ETV
528288	35968 147 155 3037 20.038 22.142560103097 4 -0.16666662693024 1 2.1800000369549 1.9346222054588
vector 528289  Network.dyn_peer[37]  lookupTimeSig:vector  ETV
528289	36115 107 155 3037 20.038 22.142560103097 4 0 0.9 2.1 1.61
vector 528416  Network.dyn_peer[80]  lookupHopsSig:vector  ETV
528416	53590 132 288 4199 20.081 23.701707554699 5 0 15 32 326
vector 528417  Network.dyn_peer[80]  lookupStabilitySig:vector  ETV
528417	53722 192 288 4199 20.081 23.701707554699 5 -0.36363637447357 1 3.2806637734175 3.4656552728377
vector 528418  Network.dyn_peer[80]  lookupTimeSig:vector  ETV
528418	53914 139 288 4199 20.081 23.701707554699 5 0 1.6 3.6 3.94
vector 528452  Network.dyn_peer[92]  lookupHopsSig:vector  ETV
528452	57379 141 328 4201 20.093 23.707564497634 5 0 15 32 322
vector 528453  Network.dyn_peer[92]  lookupStabilitySig:vector  ETV
528453	57520 201 328 4201 20.093 23.707564497634 5 -0.36363637447357 1 3.3008657842875 3.5033498230244
vector 528454  Network.dyn_peer[92]  lookupTimeSig:vector  ETV
528454	57721 148 328 4201 20.093 23.707564497634 5 0 1.6 3.6 3.9
vector 528185  Network.dyn_peer[3]  lookupHopsSig:vector  ETV
528185	21657 42 358 3203 20.104 22.304 2 1 21 22 442
vector 528186  Network.dyn_peer[3]  lookupStabilitySig:vector  ETV
528186	21699 62 358 3203 20.104 22.304 2 0.34375 0.79999999701977 1.1437499970198 0.75816405773163
vector 528187  Network.dyn_peer[3]  lookupTimeSig:vector  ETV
528187	21761 45 358 3203 20.104 22.304 2 0.1 2.2 2.3 4.85
vector 528200  Network.dyn_peer[8]  lookupHopsSig:vector  ETV
528200	23075 312 366 4594 20.109 27.670049536219 11 1 17 66 578
vector 528201  Network.dyn_peer[8]  lookupStabilitySig:vector  ETV
528201	23387 476 366 4594 20.109 27.670049536219 11 0.10526317358017 0.96296296268702 9.3108697012067 8.5112994810321
vector 528202  Network.dyn_peer[8]  lookupTimeSig:vector  ETV
528202	23863 331 366 4594 20.109 27.670049536219 11 0.1 1.8 7.6 7.18
vector 528263  Network.dyn_peer[29]  lookupHopsSig:vector  ETV
528263	32563 229 392 4453 20.13 24.769300424522 8 1 12 40 312
vector 528264  Network.dyn_peer[29]  lookupStabilitySig:vector  ETV
528264	32792 348 392 4453 20.13 24.769300424522 8 -0.11111116409302 0.96842105314136 6.1711744703352 5.7180008474985
vector 528265  Network.dyn_peer[29]  lookupTimeSig:vector  ETV
528265	33140 243 392 4453 20.13 24.769300424522 8 0.1 1.3 4.7 3.97
vector 528272  Network.dyn_peer[32]  lookupHopsSig:vector  ETV
528272	34351 42 399 2078 20.133 21.333 2 1 11 12 122
vector 528273  Network.dyn_peer[32]  lookupStabilitySig:vector  ETV
528273	34393 72 399 2078 20.133 21.333 2 -0.22222220897675 0.79999999701977 0.57777778804302 0.68938270539414
vector 528274  Network.dyn_peer[32]  lookupTimeSig:vector  ETV
528274	34465 45 399 2078 20.133 21.333 2 0.1 1.2 1.3 1.45
vector 528275  Network.dyn_peer[33]  lookupHopsSig:vector  ETV
528275	34510 110 404 3483 20.134 22.586879080403 4 1 8 21 145
vector 528276  Network.dyn_peer[33]  lookupStabilitySig:vector  ETV
528276	34620 155 404 3483 20.134 22.586879080403 4 0 0.81395348906517 2.2503171116114 1.7074789414861
vector 528277  Network.dyn_peer[33]  lookupTimeSig:vector  ETV
528277	34775 118 404 3483 20.134 22.586879080403 4 0.1 0.9 2.4 1.88
vector 528296  Network.dyn_peer[40]  lookupHopsSig:vector  ETV
528296	36842 101 417 3772 20.141 22.95209506839 4 1 11 26 222
vector 528297  Network.dyn_peer[40]  lookupStabilitySig:vector  ETV
528297	36943 161 417 3772 20.141 22.95209506839 4 -0.10000002384186 0.84905660152435 2.2763292938471 1.8998227206044
vector 528298  Network.dyn_peer[40]  lookupTimeSig:vector  ETV
528298	37104 108 417 3772 20.141 22.95209506839 4 0.1 1.2 2.9 2.75
vector 528302  Network.dyn_peer[42]  lookupHopsSig:vector  ETV
528302	37790 73 424 3620 20.143 22.743992429968 3 1 12 25 289
vector 528303  Network.dyn_peer[42]  lookupStabilitySig:vector  ETV
528303	37863 117 424 3620 20.143 22.743992429968 3 -0.20000004768372 0.79999999701977 1.344680801034 1.2345495851907
vector 528304  Network.dyn_peer[42]  lookupTimeSig:vector  ETV
528304	37980 77 424 3620 20.143 22.743992429968 3 0.1 1.3 2.7 3.39
vector 528323  Network.dyn_peer[49]  lookupHopsSig:vector  ETV
528323	40293 110 437 4264 20.15 23.872220877509 4 1 23 35 591
vector 528324  Network.dyn_peer[49]  lookupStabilitySig:vector  ETV
528324	40403 169 437 4264 20.15 23.872220877509 4 0.43902438879013 0.93902438879013 3.089813478291 2.5458240868236
vector 528325  Network.dyn_peer[49]  lookupTimeSig:vector  ETV
528325	40572 117 437 4264 20.15 23.872220877509 4 0.1 2.4 3.8 6.62
vector 528326  Network.dyn_peer[50]  lookupHopsSig:vector  ETV
528326	40689 100 442 1495 20.151 20.861636234026 4 1 2 5 7
vector 528327  Network.dyn_peer[50]  lookupStabilitySig:vector  ETV
528327	40789 160 442 1495 20.151 20.861636234026 4 0.66666665673256 0.79999999701977 3.0666666477919 2.3644444168939
vector 528328  Network.dyn_peer[50]  lookupTimeSig:vector  ETV
528328	40949 108 442 1495 20.151 20.861636234026 4 0.1 0.3 0.8 0.18
vector 528329  Network.dyn_peer[51]  lookupHopsSig:vector  ETV
528329	41057 102 447 3450 20.152 22.556941017655 4 1 15 22 246
vector 528330  Network.dyn_peer[51]  lookupStabilitySig:vector  ETV
528330	41159 162 447 3450 20.152 22.556941017655 4 -0.36363637447357 0.90909090638161 2.2478935569525 2.4130738834398
vector 528331  Network.dyn_peer[51]  lookupTimeSig:vector  ETV
528331	41321 109 447 3450 20.152 22.556941017655 4 0.1 1.6 2.5 2.91
vector 528338  Network.dyn_peer[54]  lookupHopsSig:vector  ETV
528338	42483 140 456 4273 20.155 23.881943355303 5 1 12 34 334
vector 528339  Network.dyn_peer[54]  lookupStabilitySig:vector  ETV
528339	42623 214 456 4273 20.155 23.881943355303 5 -0.10000002384186 0.96296296268702 3.2875076159835 2.9135571426278
vector 528340  Network.dyn_peer[54]  lookupTimeSig:vector  ETV
528340	42837 148 456 4273 20.155 23.881943355303 5 0.1 1.3 3.8 4.04
vector 528341  Network.dyn_peer[55]  lookupHopsSig:vector  ETV
528341	42985 72 461 2947 20.156 22.064544064078 3 1 11 18 158
vector 528342  Network.dyn_peer[55]  lookupStabilitySig:vector  ETV
528342	43057 117 461 2947 20.156 22.064544064078 3 -0.10000002384186 0.79999999701977 1.4272726923227 1.1789256080123
vector 528343  Network.dyn_peer[55]  lookupTimeSig:vector  ETV
528343	43174 77 461 2947 20.156 22.064544064078 3 0.1 1.2 2 1.94
vector 528344  Network.dyn_peer[56]  lookupHopsSig:vector  ETV
528344	43251 133 466 4182 20.157 23.666655683095 5 1 12 32 286
vector 528345  Network.dyn_peer[56]  lookupStabilitySig:vector  ETV
528345	43384 207 466 4182 20.157 23.666655683095 5 -0.20000004768372 0.90243902802467 3.1435872912407 2.8456587576368
vector 528346  Network.dyn_peer[56]  lookupTimeSig:vector  ETV
528346	43591 141 466 4182 20.157 23.666655683095 5 0.1 1.3 3.6 3.52
vector 528347  Network.dyn_peer[57]  lookupHopsSig:vector  ETV
528347	43732 102 471 3157 20.158 22.264946328875 4 1 16 19 259
vector 528348  Network.dyn_peer[57]  lookupStabilitySig:vector  ETV
528348	43834 144 471 3157 20.158 22.264946328875 4 0 0.9666666649282 2.7212121151388 2.4856014585223
vector 528349  Network.dyn_peer[57]  lookupTimeSig:vector  ETV
528349	43978 109 471 3157 20.158 22.264946328875 4 0.1 1.7 2.2 2.98
vector 528425  Network.dyn_peer[83]  lookupHopsSig:vector  ETV
528425	54665 51 504 3182 20.184 22.292142338264 2 1 20 21 401
vector 528426  Network.dyn_peer[83]  lookupStabilitySig:vector  ETV
528426	54716 80 504 3182 20.184 22.292142338264 2 0.35483872890472 0.79999999701977 1.1548387259245 0.76591051876235
vector 528427  Network.dyn_peer[83]  lookupTimeSig:vector  ETV
528427	54796 54 504 3182 20.184 22.292142338264 2 0.1 2.1 2.2 4.42
vector 528428  Network.dyn_peer[84]  lookupHopsSig:vector  ETV
528428	54850 101 509 3656 20.185 22.795083498826 4 1 17 24 316
vector 528429  Network.dyn_peer[84]  lookupStabilitySig:vector  ETV
528429	54951 149 509 3656 20.185 22.795083498826 4 0.375 0.79999999701977 2.620833337307 1.8377256977393
vector 528430  Network.dyn_peer[84]  lookupTimeSig:vector  ETV
528430	55100 108 509 3656 20.185 22.795083498826 4 0.1 1.8 2.7 3.65
vector 528473  Network.dyn_peer[99]  lookupHopsSig:vector  ETV
528473	59647 188 529 4529 20.2 25.519028034671 7 1 21 48 612
vector 528474  Network.dyn_peer[99]  lookupStabilitySig:vector  ETV
528474	59835 291 529 4529 20.2 25.519028034671 7 0.39999997615814 0.97674418613315 5.8919959701598 5.2067035965532
vector 528475  Network.dyn_peer[99]  lookupTimeSig:vector  ETV
528475	60126 199 529 4529 20.2 25.519028034671 7 0.1 2.2 5.4 7.12
vector 528179  Network.dyn_peer[1]  lookupHopsSig:vector  ETV
528179	20603 72 535 2761 20.202 21.902451124433 3 2 10 17 129
vector 528180  Network.dyn_peer[1]  lookupStabilitySig:vector  ETV
528180	20675 117 535 2761 20.202 21.902451124433 3 -0.11111116409302 0.72222220897675 1.2111110389233 0.89395060277281
vector 528181  Network.dyn_peer[1]  lookupTimeSig:vector  ETV
528181	20792 77 535 2761 20.202 21.902451124433 3 0.2 1.1 1.9 1.61
vector 528197  Network.dyn_peer[7]  lookupHopsSig:vector  ETV
528197	22691 109 544 2898 20.208 22.02126731325 4 2 7 17 85
vector 528198  Network.dyn_peer[7]  lookupStabilitySig:vector  ETV
528198	22800 158 544 2898 20.208 22.02126731325 4 0.125 0.80952380597591 2.134523794055 1.3909537781366
vector 528199  Network.dyn_peer[7]  lookupTimeSig:vector  ETV
528199	22958 117 544 2898 20.208 22.02126731325 4 0.2 0.8 2 1.18
vector 528206  Network.dyn_peer[10]  lookupHopsSig:vector  ETV
528206	24455 102 551 3967 20.211 23.223162271174 4 1 19 29 415
vector 528207  Network.dyn_peer[10]  lookupStabilitySig:vector  ETV
528207	24557 161 551 3967 20.211 23.223162271174 4 0.32142859697342 0.97297297231853 2.7867092546076 2.2062057565725
vector 528208  Network.dyn_peer[10]  lookupTimeSig:vector  ETV
528208	24718 107 551 3967 20.211 23.223162271174 4 0.2 2 3.2 4.72
vector 528236  Network.dyn_peer[20]  lookupHopsSig:vector  ETV
528236	28636 102 566 4126 20.221 23.538537124663 4 2 24 32 600
vector 528237  Network.dyn_peer[20]  lookupStabilitySig:vector  ETV
528237	28738 161 566 4126 20.221 23.538537124663 4 0.45454543828964 0.96363636478782 2.9633872769773 2.3886199910168
vector 528238  Network.dyn_peer[20]  lookupTimeSig:vector  ETV
528238	28899 109 566 4126 20.221 23.538537124663 4 0.2 2.5 3.5 6.63
vector 528242  Network.dyn_peer[22]  lookupHopsSig:vector  ETV
528242	29375 162 573 4131 20.223 23.543483335541 6 1 10 30 222
vector 528243  Network.dyn_peer[22]  lookupStabilitySig:vector  ETV
528243	29537 252 573 4131 20.223 23.543483335541 6 -0.11111116409302 0.97297297231853 4.0544950924814 3.5920345815423
vector 528244  Network.dyn_peer[22]  lookupTimeSig:vector  ETV
528244	29789 173 573 4131 20.223 23.543483335541 6 0.2 1.1 3.5 2.83
vector 528260  Network.dyn_peer[28]  lookupHopsSig:vector  ETV
528260	32203 102 583 3614 20.229 22.740126349996 4 2 18 24 336
vector 528261  Network.dyn_peer[28]  lookupStabilitySig:vector  ETV
528261	32305 149 583 3614 20.229 22.740126349996 4 0.25 0.95652173832059 2.7524676769972 2.2322475589026
vector 528262  Network.dyn_peer[28]  lookupTimeSig:vector  ETV
528262	32454 109 583 3614 20.229 22.740126349996 4 0.2 1.9 2.7 3.83
vector 528281  Network.dyn_peer[35]  lookupHopsSig:vector  ETV
528281	35255 72 592 4039 20.236 23.340034485705 3 2 22 31 537
vector 528282  Network.dyn_peer[35]  lookupStabilitySig:vector  ETV
528282	35327 116 592 4039 20.236 23.340034485705 3 0.43589740991592 0.89999999850988 1.9358974024653 1.3600065421366
vector 528283  Network.dyn_peer[35]  lookupTimeSig:vector  ETV
528283	35443 77 592 4039 20.236 23.340034485705 3 0.2 2.3 3.3 5.97
vector 528293  Network.dyn_peer[39]  lookupHopsSig:vector  ETV
528293	36491 100 602 3851 20.24 23.052777530394 4 2 15 27 281
vector 528294  Network.dyn_peer[39]  lookupStabilitySig:vector  ETV
528294	36591 144 602 3851 20.24 23.052777530394 4 0 0.89285714179277 2.3716450110078 1.9294619980532
vector 528295  Network.dyn_peer[39]  lookupTimeSig:vector  ETV
528295	36735 107 602 3851 20.24 23.052777530394 4 0.2 1.6 3 3.34
vector 528305  Network.dyn_peer[43]  lookupHopsSig:vector  ETV
528305	38057 102 611 3855 20.244 23.061388605704 4 2 17 27 333
vector 528306  Network.dyn_peer[43]  lookupStabilitySig:vector  ETV
528306	38159 161 611 3855 20.244 23.061388605704 4 0.22727274894714 0.93939393758774 2.6614035218954 2.0946678804551
vector 528307  Network.dyn_peer[43]  lookupTimeSig:vector  ETV
528307	38320 109 611 3855 20.244 23.061388605704 4 0.2 1.8 3 3.86
vector 528311  Network.dyn_peer[45]  lookupHopsSig:vector  ETV
528311	38790 101 618 2569 20.246 21.753396689734 4 1 8 14 78
vector 528312  Network.dyn_peer[45]  lookupStabilitySig:vector  ETV
528312	38891 161 618 2569 20.246 21.753396689734 4 0.27272725105286 0.90909090638161 2.1818181276321 1.4208264033065
vector 528313  Network.dyn_peer[45]  lookupTimeSig:vector  ETV
528313	39052 109 618 2569 20.246 21.753396689734 4 0.2 0.9 1.7 1.05
vector 528314  Network.dyn_peer[46]  lookupHopsSig:vector  ETV
528314	39161 72 623 3444 20.247 22.549478199908 3 2 13 23 237
vector 528315  Network.dyn_peer[46]  lookupStabilitySig:vector  ETV
528315	39233 117 623 3444 20.247 22.549478199908 3 -0.18181812763214 0.79999999701977 1.2181818634272 1.0330578196147
vector 528316  Network.dyn_peer[46]  lookupTimeSig:vector  ETV
528316	39350 77 623 3444 20.247 22.549478199908 3 0.2 1.4 2.5 2.81
vector 528317  Network.dyn_peer[47]  lookupHopsSig:vector  ETV
528317	39427 80 628 1515 20.248 20.874848510089 3 1 3 6 14
vector 528318  Network.dyn_peer[47]  lookupStabilitySig:vector  ETV
528318	39507 125 628 1515 20.248 20.874848510089 3 0.39999997615814 0.85714285075665 1.8571428209543 1.2546938403772
vector 528319  Network.dyn_peer[47]  lookupTimeSig:vector  ETV
528319	39632 86 628 1515 20.248 20.874848510089 3 0.2 0.4 0.8 0.24
vector 528350  Network.dyn_peer[58]  lookupHopsSig:vector  ETV
528350	44087 72 643 3717 20.259 22.873689646639 3 2 15 26 310
vector 528351  Network.dyn_peer[58]  lookupStabilitySig:vector  ETV
528351	44159 101 643 3717 20.259 22.873689646639 3 0 0.70588234066963 1.3058823347092 0.85826987171668
vector 528352  Network.dyn_peer[58]  lookupTimeSig:vector  ETV
528352	44260 75 643 3717 20.259 22.873689646639 3 0.2 1.6 2.8 3.6
vector 528359  Network.dyn_peer[61]  lookupHopsSig:vector  ETV
528359	45817 251 651 4333 20.262 24.100343779546 9 1 5 32 128
vector 528360  Network.dyn_peer[61]  lookupStabilitySig:vector  ETV
528360	46068 371 651 4333 20.262 24.100343779546 9 0.19999998807907 0.98275862075388 6.7629584502429 5.6562264395711
vector 528361  Network.dyn_peer[61]  lookupTimeSig:vector  ETV
528361	46439 269 651 4333 20.262 24.100343779546 9 0.2 0.6 4 1.96
vector 528362  Network.dyn_peer[62]  lookupHopsSig:vector  ETV
528362	46708 102 657 3471 20.263 22.574550555473 4 2 13 22 202
vector 528363  Network.dyn_peer[62]  lookupStabilitySig:vector  ETV
528363	46810 162 657 3471 20.263 22.574550555473 4 -0.18181812763214 0.89473684132099 2.193871088326 1.9696889364807
vector 528364  Network.dyn_peer[62]  lookupTimeSig:vector  ETV
528364	46972 109 657 3471 20.263 22.574550555473 4 0.2 1.4 2.5 2.45
vector 528365  Network.dyn_peer[63]  lookupHopsSig:vector  ETV
528365	47081 102 662 4003 20.264 23.274233929028 4 2 19 29 399
vector 528366  Network.dyn_peer[63]  lookupStabilitySig:vector  ETV
528366	47183 160 662 4003 20.264 23.274233929028 4 0.16666668653488 0.7205882370472 2.1539215743542 1.3514696158177
vector 528367  Network.dyn_peer[63]  lookupTimeSig:vector  ETV
528367	47343 107 662 4003 20.264 23.274233929028 4 0.2 2 3.2 4.56
vector 528371  Network.dyn_peer[65]  lookupHopsSig:vector  ETV
528371	47818 190 669 4468 20.266 24.89282978407 7 1 22 42 570
vector 528372  Network.dyn_peer[65]  lookupStabilitySig:vector  ETV
528372	48008 284 669 4468 20.266 24.89282978407 7 0.47619044780731 0.98591549322009 5.8503107819706 5.148008239185
vector 528373  Network.dyn_peer[65]  lookupTimeSig:vector  ETV
528373	48292 203 669 4468 20.266 24.89282978407 7 0.2 2.3 4.8 6.56
vector 528404  Network.dyn_peer[76]  lookupHopsSig:vector  ETV
528404	52495 109 684 2659 20.277 21.823512306864 4 1 8 14 78
vector 528405  Network.dyn_peer[76]  lookupStabilitySig:vector  ETV
528405	52604 169 684 2659 20.277 21.823512306864 4 0.19999998807907 0.79999999701977 2.3692307472229 1.6317159578786
vector 528406  Network.dyn_peer[76]  lookupTimeSig:vector  ETV
528406	52773 117 684 2659 20.277 21.823512306864 4 0.2 0.9 1.7 1.05
vector 528431  Network.dyn_peer[85]  lookupHopsSig:vector  ETV
528431	55208 72 698 2972 20.286 22.087564059525 3 2 14 18 204
vector 528432  Network.dyn_peer[85]  lookupStabilitySig:vector  ETV
528432	55280 118 698 2972 20.286 22.087564059525 3 -0.076923131942749 0.91304347664118 1.436120338738 1.1995655513123
vector 528433  Network.dyn_peer[85]  lookupTimeSig:vector  ETV
528433	55398 77 698 2972 20.286 22.087564059525 3 0.2 1.5 2 2.38
vector 528455  Network.dyn_peer[93]  lookupHopsSig:vector  ETV
528455	57869 132 710 4336 20.294 24.113419004709 5 2 10 36 302
vector 528456  Network.dyn_peer[93]  lookupStabilitySig:vector  ETV
528456	58001 193 710 4336 20.294 24.113419004709 5 0.25 0.8977272734046 3.178518243134 2.2868764783805
vector 528457  Network.dyn_peer[93]  lookupTimeSig:vector  ETV
528457	58194 137 710 4336 20.294 24.113419004709 5 0.2 1.1 4 3.74
vector 528224  Network.dyn_peer[16]  lookupHopsSig:vector  ETV
528224	26948 72 736 4074 20.317 23.417090505583 3 3 22 32 542
vector 528225  Network.dyn_peer[16]  lookupStabilitySig:vector  ETV
528225	27020 116 736 4074 20.317 23.417090505583 3 0.39999997615814 0.90140844881535 1.7897805124521 1.2110444683505
vector 528226  Network.dyn_peer[16]  lookupTimeSig:vector  ETV
528226	27136 77 736 4074 20.317 23.417090505583 3 0.3 2.3 3.4 6.02
vector 528332  Network.dyn_peer[52]  lookupHopsSig:vector  ETV
528332	41430 192 780 4398 20.353 24.384433868032 7 2 14 37 295
vector 528333  Network.dyn_peer[52]  lookupStabilitySig:vector  ETV
528333	41622 285 780 4398 20.353 24.384433868032 7 0.125 0.97560975700617 5.1806983910501 4.5161405541586
vector 528334  Network.dyn_peer[52]  lookupTimeSig:vector  ETV
528334	41907 205 780 4398 20.353 24.384433868032 7 0.3 1.5 4.3 3.69
vector 528335  Network.dyn_peer[53]  lookupHopsSig:vector  ETV
528335	42112 102 786 3921 20.354 23.163587584488 4 1 18 28 370
vector 528336  Network.dyn_peer[53]  lookupStabilitySig:vector  ETV
528336	42214 160 786 3921 20.354 23.163587584488 4 0.39999997615814 0.9836065582931 2.6724953986704 2.0776052786886
vector 528337  Network.dyn_peer[53]  lookupTimeSig:vector  ETV
528337	42374 109 786 3921 20.354 23.163587584488 4 0.2 1.9 3.1 4.23
vector 528368  Network.dyn_peer[64]  lookupHopsSig:vector  ETV
528368	47450 100 803 2592 20.365 21.772944285012 4 1 6 14 62
vector 528369  Network.dyn_peer[64]  lookupStabilitySig:vector  ETV
528369	47550 160 803 2592 20.365 21.772944285012 4 0.33333331346512 0.88888888806105 2.2888888344169 1.5056789653095
vector 528370  Network.dyn_peer[64]  lookupTimeSig:vector  ETV
528370	47710 108 803 2592 20.365 21.772944285012 4 0.2 0.7 1.7 0.87
vector 528389  Network.dyn_peer[71]  lookupHopsSig:vector  ETV
528389	50657 42 815 3929 20.372 23.172 2 3 27 30 738
vector 528390  Network.dyn_peer[71]  lookupStabilitySig:vector  ETV
528390	50699 71 815 3929 20.372 23.172 2 0.39999997615814 0.56451612710953 0.96451610326767 0.47867843869326
vector 528391  Network.dyn_peer[71]  lookupTimeSig:vector  ETV
528391	50770 45 815 3929 20.372 23.172 2 0.3 2.8 3.1 7.93
vector 528413  Network.dyn_peer[79]  lookupHopsSig:vector  ETV
528413	53346 70 826 3082 20.38 22.189543840046 3 3 11 19 155
vector 528414  Network.dyn_peer[79]  lookupStabilitySig:vector  ETV
528414	53416 99 826 3082 20.38 22.189543840046 3 0 0.81481482088566 1.2148147970438 0.82392317326144
vector 528415  Network.dyn_peer[79]  lookupTimeSig:vector  ETV
528415	53515 75 826 3082 20.38 22.189543840046 3 0.3 1.2 2.1 1.89
vector 528419  Network.dyn_peer[81]  lookupHopsSig:vector  ETV
528419	54053 102 833 3877 20.382 23.093918858144 4 2 13 27 263
vector 528420  Network.dyn_peer[81]  lookupStabilitySig:vector  ETV
528420	54155 136 833 3877 20.382 23.093918858144 4 0 0.96551724150777 2.1780172176659 1.7523797745753
vector 528421  Network.dyn_peer[81]  lookupTimeSig:vector  ETV
528421	54291 107 833 3877 20.382 23.093918858144 4 0.3 1.4 3 3.14
vector 528422  Network.dyn_peer[82]  lookupHopsSig:vector  ETV
528422	54398 72 838 2857 20.383 21.987434133474 3 2 12 17 157
vector 528423  Network.dyn_peer[82]  lookupStabilitySig:vector  ETV
528423	54470 118 838 2857 20.383 21.987434133474 3 -0.090909123420715 0.89999999850988 1.2090908512473 0.97826444696542
vector 528424  Network.dyn_peer[82]  lookupTimeSig:vector  ETV
528424	54588 77 838 2857 20.383 21.987434133474 3 0.3 1.3 1.9 1.87
vector 528446  Network.dyn_peer[90]  lookupHopsSig:vector  ETV
528446	56755 102 851 3663 20.391 22.803339648586 4 2 13 24 218
vector 528447  Network.dyn_peer[90]  lookupStabilitySig:vector  ETV
528447	56857 161 851 3663 20.391 22.803339648586 4 0.33333331346512 0.79999999701977 2.2733332961798 1.4587110881382
vector 528448  Network.dyn_peer[90]  lookupTimeSig:vector  ETV
528448	57018 109 851 3663 20.391 22.803339648586 4 0.3 1.4 2.7 2.63
vector 528230  Network.dyn_peer[18]  lookupHopsSig:vector  ETV
528230	28098 51 883 3125 20.419 22.228616508353 2 4 17 21 305
vector 528231  Network.dyn_peer[18]  lookupStabilitySig:vector  ETV
528231	28149 80 883 3125 20.419 22.228616508353 2 0.19999998807907 0.41379308700562 0.61379307508469 0.21122471408527
vector 528232  Network.dyn_peer[18]  lookupTimeSig:vector  ETV
528232	28229 54 883 3125 20.419 22.228616508353 2 0.4 1.8 2.2 3.4
vector 528269  Network.dyn_peer[31]  lookupHopsSig:vector  ETV
528269	33873 132 901 3984 20.432 23.245785259608 5 2 14 28 248
vector 528270  Network.dyn_peer[31]  lookupStabilitySig:vector  ETV
528270	34005 205 901 3984 20.432 23.245785259608 5 0.19999998807907 0.95652173832059 3.2518700286746 2.7038183415307
vector 528271  Network.dyn_peer[31]  lookupTimeSig:vector  ETV
528271	34210 141 901 3984 20.432 23.245785259608 5 0.3 1.5 3.2 3
vector 528299  Network.dyn_peer[41]  lookupHopsSig:vector  ETV
528299	37212 160 918 4349 20.442 24.161908177684 6 1 18 36 402
vector 528300  Network.dyn_peer[41]  lookupStabilitySig:vector  ETV
528300	37372 247 918 4349 20.442 24.161908177684 6 0.19999998807907 0.98611111100763 4.4514408437535 3.8531375791306
vector 528301  Network.dyn_peer[41]  lookupTimeSig:vector  ETV
528301	37619 171 918 4349 20.442 24.161908177684 6 0.2 1.9 4.1 4.71
vector 528308  Network.dyn_peer[44]  lookupHopsSig:vector  ETV
528308	38429 101 926 2697 20.445 21.857034437264 4 1 8 15 85
vector 528309  Network.dyn_peer[44]  lookupStabilitySig:vector  ETV
528309	38530 151 926 2697 20.445 21.857034437264 4 0.19999998807907 0.9375 2.0102272331715 1.3532863915459
vector 528310  Network.dyn_peer[44]  lookupTimeSig:vector  ETV
528310	38681 109 926 2697 20.445 21.857034437264 4 0.2 0.9 1.8 1.1
vector 528320  Network.dyn_peer[48]  lookupHopsSig:vector  ETV
528320	39718 162 933 4374 20.449 24.273672840733 6 3 18 37 397
vector 528321  Network.dyn_peer[48]  lookupStabilitySig:vector  ETV
528321	39880 240 933 4374 20.449 24.273672840733 6 0.19999998807907 0.95652173832059 4.4397436343133 3.8287647835422
vector 528322  Network.dyn_peer[48]  lookupTimeSig:vector  ETV
528322	40120 173 933 4374 20.449 24.273672840733 6 0.4 1.9 4.2 4.68
vector 528353  Network.dyn_peer[59]  lookupHopsSig:vector  ETV
528353	44335 130 948 4298 20.46 23.975944569356 5 3 11 35 291
vector 528354  Network.dyn_peer[59]  lookupStabilitySig:vector  ETV
528354	44465 204 948 4298 20.46 23.975944569356 5 0.10000002384186 0.96428571268916 2.9032086096704 2.3342138186099
vector 528355  Network.dyn_peer[59]  lookupTimeSig:vector  ETV
528355	44669 137 948 4298 20.46 23.975944569356 5 0.4 1.2 3.9 3.57
vector 528356  Network.dyn_peer[60]  lookupHopsSig:vector  ETV
528356	44806 281 954 4573 20.461 26.202537788913 10 2 21 52 554
vector 528357  Network.dyn_peer[60]  lookupStabilitySig:vector  ETV
528357	45087 430 954 4573 20.461 26.202537788913 10 0.19999998807907 0.96938775479794 8.4012954942882 7.6934048136091
vector 528358  Network.dyn_peer[60]  lookupTimeSig:vector  ETV
528358	45517 300 954 4573 20.461 26.202537788913 10 0.3 2.2 6.1 6.59
vector 528392  Network.dyn_peer[72]  lookupHopsSig:vector  ETV
528392	50815 134 972 4504 20.473 25.194918708818 5 4 14 47 505
vector 528393  Network.dyn_peer[72]  lookupStabilitySig:vector  ETV
528393	50949 207 972 4504 20.473 25.194918708818 5 0.076923072338104 0.87012986838818 2.8414050787687 2.2386564194323
vector 528394  Network.dyn_peer[72]  lookupTimeSig:vector  ETV
528394	51156 141 972 4504 20.473 25.194918708818 5 0.4 1.5 5.1 5.95
vector 528395  Network.dyn_peer[73]  lookupHopsSig:vector  ETV
528395	51297 101 977 3725 20.474 22.884017404259 4 4 9 25 177
vector 528396  Network.dyn_peer[73]  lookupStabilitySig:vector  ETV
528396	51398 159 977 3725 20.474 22.884017404259 4 0.19999998807907 0.8269230723381 1.9916289299726 1.3485768431929
vector 528397  Network.dyn_peer[73]  lookupTimeSig:vector  ETV
528397	51557 107 977 3725 20.474 22.884017404259 4 0.4 1 2.8 2.22
vector 528434  Network.dyn_peer[86]  lookupHopsSig:vector  ETV
528434	55475 71 993 3297 20.487 22.40026818299 3 4 13 21 201
vector 528435  Network.dyn_peer[86]  lookupStabilitySig:vector  ETV
528435	55546 115 993 3297 20.487 22.40026818299 3 0.19999998807907 0.88571428507566 1.363492064178 0.90165029120447
vector 528436  Network.dyn_peer[86]  lookupTimeSig:vector  ETV
528436	55661 76 993 3297 20.487 22.40026818299 3 0.4 1.4 2.3 2.37
vector 528440  Network.dyn_peer[88]  lookupHopsSig:vector  ETV
528440	55925 132 999 4114 20.489 23.505021266327 5 1 11 30 236
vector 528441  Network.dyn_peer[88]  lookupStabilitySig:vector  ETV
528441	56057 191 999 4114 20.489 23.505021266327 5 0 0.94444444403052 2.8881313018501 2.4541111198818
vector 528442  Network.dyn_peer[88]  lookupTimeSig:vector  ETV
528442	56248 141 999 4114 20.489 23.505021266327 5 0.2 1.2 3.4 2.92
vector 528443  Network.dyn_peer[89]  lookupHopsSig:vector  ETV
528443	56389 100 1004 3658 20.49 22.795236919284 4 4 9 24 158
vector 528444  Network.dyn_peer[89]  lookupStabilitySig:vector  ETV
528444	56489 160 1004 3658 20.49 22.795236919284 4 0.19999998807907 0.81632652878761 1.965044438839 1.1961983110872
vector 528445  Network.dyn_peer[89]  lookupTimeSig:vector  ETV
528445	56649 106 1004 3658 20.49 22.795236919284 4 0.4 1 2.7 2.01
vector 528458  Network.dyn_peer[94]  lookupHopsSig:vector  ETV
528458	58331 51 1016 1416 20.495 20.796224000158 2 2 4 6 20
vector 528459  Network.dyn_peer[94]  lookupStabilitySig:vector  ETV
528459	58382 81 1016 1416 20.495 20.796224000158 2 0.19999998807907 0.59999999403954 0.79999998211861 0.39999998807908
vector 528460  Network.dyn_peer[94]  lookupTimeSig:vector  ETV
528460	58463 55 1016 1416 20.495 20.796224000158 2 0.3 0.4 0.7 0.25
vector 528461  Network.dyn_peer[95]  lookupHopsSig:vector  ETV
528461	58518 103 1021 4205 20.496 23.713327120641 4 4 19 33 427
vector 528462  Network.dyn_peer[95]  lookupStabilitySig:vector  ETV
528462	58621 162 1021 4205 20.496 23.713327120641 4 0.19999998807907 0.93670886009932 2.2591193541884 1.5745923410249