version 2
run Stability2-300-20130526-00:54:18-26640
attr configname Stability2
attr datetime 20130526-00:54:18
attr experiment Stability2
attr inifile omnetpp.ini
attr iterationvars $0=1000
attr iterationvars2 "$0=1000, $repetition=0"
attr measurement $0=1000
attr network Network
attr processid 26640
attr repetition 0
attr replication #0
attr resultdir results
attr runnumber 300
attr seedset 300

vector 903300  Network.churner  inGoingSizeSig:vector  ETV
vector 900321  Network.dyn_peer[7]  lookupHopsSig:vector  ETV
vector 900322  Network.dyn_peer[7]  lookupStabilitySig:vector  ETV
vector 900323  Network.dyn_peer[7]  lookupTimeSig:vector  ETV
vector 900333  Network.dyn_peer[11]  lookupHopsSig:vector  ETV
vector 900334  Network.dyn_peer[11]  lookupStabilitySig:vector  ETV
vector 900335  Network.dyn_peer[11]  lookupTimeSig:vector  ETV
vector 900336  Network.dyn_peer[12]  lookupHopsSig:vector  ETV
vector 900337  Network.dyn_peer[12]  lookupStabilitySig:vector  ETV
vector 900338  Network.dyn_peer[12]  lookupTimeSig:vector  ETV
vector 900342  Network.dyn_peer[14]  lookupHopsSig:vector  ETV
vector 900343  Network.dyn_peer[14]  lookupStabilitySig:vector  ETV
vector 900344  Network.dyn_peer[14]  lookupTimeSig:vector  ETV
vector 900366  Network.dyn_peer[22]  lookupHopsSig:vector  ETV
vector 900367  Network.dyn_peer[22]  lookupStabilitySig:vector  ETV
vector 900368  Network.dyn_peer[22]  lookupTimeSig:vector  ETV
vector 900381  Network.dyn_peer[27]  lookupHopsSig:vector  ETV
vector 900382  Network.dyn_peer[27]  lookupStabilitySig:vector  ETV
vector 900383  Network.dyn_peer[27]  lookupTimeSig:vector  ETV
vector 900420  Network.dyn_peer[40]  lookupHopsSig:vector  ETV
vector 900421  Network.dyn_peer[40]  lookupStabilitySig:vector  ETV
vector 900422  Network.dyn_peer[40]  lookupTimeSig:vector  ETV
vector 900429  Network.dyn_peer[43]  lookupHopsSig:vector  ETV
vector 900430  Network.dyn_peer[43]  lookupStabilitySig:vector  ETV
vector 900431  Network.dyn_peer[43]  lookupTimeSig:vector  ETV
vector 900354  Network.dyn_peer[18]  lookupHopsSig:vector  ETV
vector 900355  Network.dyn_peer[18]  lookupStabilitySig:vector  ETV
vector 900356  Network.dyn_peer[18]  lookupTimeSig:vector  ETV
vector 900663  Network.dyn_peer[121]  lookupHopsSig:vector  ETV
vector 900664  Network.dyn_peer[121]  lookupStabilitySig:vector  ETV
vector 900665  Network.dyn_peer[121]  lookupTimeSig:vector  ETV
vector 900384  Network.dyn_peer[28]  lookupHopsSig:vector  ETV
vector 900385  Network.dyn_peer[28]  lookupStabilitySig:vector  ETV
vector 900386  Network.dyn_peer[28]  lookupTimeSig:vector  ETV
vector 900408  Network.dyn_peer[36]  lookupHopsSig:vector  ETV
vector 900409  Network.dyn_peer[36]  lookupStabilitySig:vector  ETV
vector 900410  Network.dyn_peer[36]  lookupTimeSig:vector  ETV
vector 900417  Network.dyn_peer[39]  lookupHopsSig:vector  ETV
vector 900418  Network.dyn_peer[39]  lookupStabilitySig:vector  ETV
vector 900419  Network.dyn_peer[39]  lookupTimeSig:vector  ETV
vector 900438  Network.dyn_peer[46]  lookupHopsSig:vector  ETV
vector 900439  Network.dyn_peer[46]  lookupStabilitySig:vector  ETV
vector 900440  Network.dyn_peer[46]  lookupTimeSig:vector  ETV
vector 900459  Network.dyn_peer[53]  lookupHopsSig:vector  ETV
vector 900460  Network.dyn_peer[53]  lookupStabilitySig:vector  ETV
vector 900461  Network.dyn_peer[53]  lookupTimeSig:vector  ETV
vector 900786  Network.dyn_peer[162]  lookupHopsSig:vector  ETV
vector 900787  Network.dyn_peer[162]  lookupStabilitySig:vector  ETV
vector 900788  Network.dyn_peer[162]  lookupTimeSig:vector  ETV
vector 900489  Network.dyn_peer[63]  lookupHopsSig:vector  ETV
vector 900490  Network.dyn_peer[63]  lookupStabilitySig:vector  ETV
vector 900491  Network.dyn_peer[63]  lookupTimeSig:vector  ETV
vector 900495  Network.dyn_peer[65]  lookupHopsSig:vector  ETV
vector 900496  Network.dyn_peer[65]  lookupStabilitySig:vector  ETV
vector 900497  Network.dyn_peer[65]  lookupTimeSig:vector  ETV
vector 900498  Network.dyn_peer[66]  lookupHopsSig:vector  ETV
vector 900499  Network.dyn_peer[66]  lookupStabilitySig:vector  ETV
vector 900500  Network.dyn_peer[66]  lookupTimeSig:vector  ETV
vector 900510  Network.dyn_peer[70]  lookupHopsSig:vector  ETV
vector 900511  Network.dyn_peer[70]  lookupStabilitySig:vector  ETV
vector 900512  Network.dyn_peer[70]  lookupTimeSig:vector  ETV
vector 900300  Network.dyn_peer[0]  lookupHopsSig:vector  ETV
vector 900301  Network.dyn_peer[0]  lookupStabilitySig:vector  ETV
vector 900302  Network.dyn_peer[0]  lookupTimeSig:vector  ETV
vector 900324  Network.dyn_peer[8]  lookupHopsSig:vector  ETV
vector 900325  Network.dyn_peer[8]  lookupStabilitySig:vector  ETV
vector 900326  Network.dyn_peer[8]  lookupTimeSig:vector  ETV
vector 900642  Network.dyn_peer[114]  lookupHopsSig:vector  ETV
vector 900643  Network.dyn_peer[114]  lookupStabilitySig:vector  ETV
vector 900644  Network.dyn_peer[114]  lookupTimeSig:vector  ETV
vector 900357  Network.dyn_peer[19]  lookupHopsSig:vector  ETV
vector 900358  Network.dyn_peer[19]  lookupStabilitySig:vector  ETV
vector 900359  Network.dyn_peer[19]  lookupTimeSig:vector  ETV
vector 900984  Network.dyn_peer[228]  lookupHopsSig:vector  ETV
vector 900985  Network.dyn_peer[228]  lookupStabilitySig:vector  ETV
vector 900986  Network.dyn_peer[228]  lookupTimeSig:vector  ETV
vector 900714  Network.dyn_peer[138]  lookupHopsSig:vector  ETV
vector 900715  Network.dyn_peer[138]  lookupStabilitySig:vector  ETV
vector 900716  Network.dyn_peer[138]  lookupTimeSig:vector  ETV
vector 900753  Network.dyn_peer[151]  lookupHopsSig:vector  ETV
vector 900754  Network.dyn_peer[151]  lookupStabilitySig:vector  ETV
vector 900755  Network.dyn_peer[151]  lookupTimeSig:vector  ETV
vector 900780  Network.dyn_peer[160]  lookupHopsSig:vector  ETV
vector 900781  Network.dyn_peer[160]  lookupStabilitySig:vector  ETV
vector 900782  Network.dyn_peer[160]  lookupTimeSig:vector  ETV
vector 900483  Network.dyn_peer[61]  lookupHopsSig:vector  ETV
vector 900484  Network.dyn_peer[61]  lookupStabilitySig:vector  ETV
vector 900485  Network.dyn_peer[61]  lookupTimeSig:vector  ETV
vector 900534  Network.dyn_peer[78]  lookupHopsSig:vector  ETV
vector 900535  Network.dyn_peer[78]  lookupStabilitySig:vector  ETV
vector 900536  Network.dyn_peer[78]  lookupTimeSig:vector  ETV
vector 900849  Network.dyn_peer[183]  lookupHopsSig:vector  ETV
vector 900850  Network.dyn_peer[183]  lookupStabilitySig:vector  ETV
vector 900851  Network.dyn_peer[183]  lookupTimeSig:vector  ETV
vector 900564  Network.dyn_peer[88]  lookupHopsSig:vector  ETV
vector 900565  Network.dyn_peer[88]  lookupStabilitySig:vector  ETV
vector 900566  Network.dyn_peer[88]  lookupTimeSig:vector  ETV
vector 900573  Network.dyn_peer[91]  lookupHopsSig:vector  ETV
vector 900574  Network.dyn_peer[91]  lookupStabilitySig:vector  ETV
vector 900575  Network.dyn_peer[91]  lookupTimeSig:vector  ETV
vector 900603  Network.dyn_peer[101]  lookupHopsSig:vector  ETV
vector 900604  Network.dyn_peer[101]  lookupStabilitySig:vector  ETV
vector 900605  Network.dyn_peer[101]  lookupTimeSig:vector  ETV
vector 900645  Network.dyn_peer[115]  lookupHopsSig:vector  ETV
vector 900646  Network.dyn_peer[115]  lookupStabilitySig:vector  ETV
vector 900647  Network.dyn_peer[115]  lookupTimeSig:vector  ETV
vector 900351  Network.dyn_peer[17]  lookupHopsSig:vector  ETV
vector 900352  Network.dyn_peer[17]  lookupStabilitySig:vector  ETV
vector 900353  Network.dyn_peer[17]  lookupTimeSig:vector  ETV
vector 900363  Network.dyn_peer[21]  lookupHopsSig:vector  ETV
vector 900364  Network.dyn_peer[21]  lookupStabilitySig:vector  ETV
vector 900365  Network.dyn_peer[21]  lookupTimeSig:vector  ETV
vector 900690  Network.dyn_peer[130]  lookupHopsSig:vector  ETV
vector 900691  Network.dyn_peer[130]  lookupStabilitySig:vector  ETV
vector 900692  Network.dyn_peer[130]  lookupTimeSig:vector  ETV
vector 900405  Network.dyn_peer[35]  lookupHopsSig:vector  ETV
vector 900406  Network.dyn_peer[35]  lookupStabilitySig:vector  ETV
vector 900407  Network.dyn_peer[35]  lookupTimeSig:vector  ETV
vector 901356  Network.dyn_peer[352]  lookupHopsSig:vector  ETV
vector 901357  Network.dyn_peer[352]  lookupStabilitySig:vector  ETV
vector 901358  Network.dyn_peer[352]  lookupTimeSig:vector  ETV
vector 900759  Network.dyn_peer[153]  lookupHopsSig:vector  ETV
vector 900760  Network.dyn_peer[153]  lookupStabilitySig:vector  ETV
vector 900761  Network.dyn_peer[153]  lookupTimeSig:vector  ETV
vector 900480  Network.dyn_peer[60]  lookupHopsSig:vector  ETV
vector 900481  Network.dyn_peer[60]  lookupStabilitySig:vector  ETV
vector 900482  Network.dyn_peer[60]  lookupTimeSig:vector  ETV
vector 900783  Network.dyn_peer[161]  lookupHopsSig:vector  ETV
vector 900784  Network.dyn_peer[161]  lookupStabilitySig:vector  ETV
vector 900785  Network.dyn_peer[161]  lookupTimeSig:vector  ETV
vector 900846  Network.dyn_peer[182]  lookupHopsSig:vector  ETV
vector 900847  Network.dyn_peer[182]  lookupStabilitySig:vector  ETV
vector 900848  Network.dyn_peer[182]  lookupTimeSig:vector  ETV
vector 901176  Network.dyn_peer[292]  lookupHopsSig:vector  ETV
vector 901177  Network.dyn_peer[292]  lookupStabilitySig:vector  ETV
vector 901178  Network.dyn_peer[292]  lookupTimeSig:vector  ETV
vector 900897  Network.dyn_peer[199]  lookupHopsSig:vector  ETV
vector 900898  Network.dyn_peer[199]  lookupStabilitySig:vector  ETV
vector 900899  Network.dyn_peer[199]  lookupTimeSig:vector  ETV
vector 900306  Network.dyn_peer[2]  lookupHopsSig:vector  ETV
vector 900307  Network.dyn_peer[2]  lookupStabilitySig:vector  ETV
vector 900308  Network.dyn_peer[2]  lookupTimeSig:vector  ETV
vector 900309  Network.dyn_peer[3]  lookupHopsSig:vector  ETV
vector 900310  Network.dyn_peer[3]  lookupStabilitySig:vector  ETV
vector 900311  Network.dyn_peer[3]  lookupTimeSig:vector  ETV
vector 900609  Network.dyn_peer[103]  lookupHopsSig:vector  ETV
vector 900610  Network.dyn_peer[103]  lookupStabilitySig:vector  ETV
vector 900611  Network.dyn_peer[103]  lookupTimeSig:vector  ETV
vector 901287  Network.dyn_peer[329]  lookupHopsSig:vector  ETV
vector 901288  Network.dyn_peer[329]  lookupStabilitySig:vector  ETV
vector 901289  Network.dyn_peer[329]  lookupTimeSig:vector  ETV
vector 900723  Network.dyn_peer[141]  lookupHopsSig:vector  ETV
vector 900724  Network.dyn_peer[141]  lookupStabilitySig:vector  ETV
vector 900725  Network.dyn_peer[141]  lookupTimeSig:vector  ETV
vector 900747  Network.dyn_peer[149]  lookupHopsSig:vector  ETV
vector 900748  Network.dyn_peer[149]  lookupStabilitySig:vector  ETV
vector 900749  Network.dyn_peer[149]  lookupTimeSig:vector  ETV
vector 900477  Network.dyn_peer[59]  lookupHopsSig:vector  ETV
vector 900478  Network.dyn_peer[59]  lookupStabilitySig:vector  ETV
vector 900479  Network.dyn_peer[59]  lookupTimeSig:vector  ETV
vector 901410  Network.dyn_peer[370]  lookupHopsSig:vector  ETV
vector 901411  Network.dyn_peer[370]  lookupStabilitySig:vector  ETV
vector 901412  Network.dyn_peer[370]  lookupTimeSig:vector  ETV
vector 900549  Network.dyn_peer[83]  lookupHopsSig:vector  ETV
vector 900550  Network.dyn_peer[83]  lookupStabilitySig:vector  ETV
vector 900551  Network.dyn_peer[83]  lookupTimeSig:vector  ETV
vector 901473  Network.dyn_peer[391]  lookupHopsSig:vector  ETV
vector 901474  Network.dyn_peer[391]  lookupStabilitySig:vector  ETV
vector 901475  Network.dyn_peer[391]  lookupTimeSig:vector  ETV
vector 901482  Network.dyn_peer[394]  lookupHopsSig:vector  ETV
vector 901483  Network.dyn_peer[394]  lookupStabilitySig:vector  ETV
vector 901484  Network.dyn_peer[394]  lookupTimeSig:vector  ETV
vector 901491  Network.dyn_peer[397]  lookupHopsSig:vector  ETV
vector 901492  Network.dyn_peer[397]  lookupStabilitySig:vector  ETV
vector 901493  Network.dyn_peer[397]  lookupTimeSig:vector  ETV
vector 900900  Network.dyn_peer[200]  lookupHopsSig:vector  ETV
vector 900901  Network.dyn_peer[200]  lookupStabilitySig:vector  ETV
vector 900902  Network.dyn_peer[200]  lookupTimeSig:vector  ETV
vector 901500  Network.dyn_peer[400]  lookupHopsSig:vector  ETV
vector 901501  Network.dyn_peer[400]  lookupStabilitySig:vector  ETV
vector 901502  Network.dyn_peer[400]  lookupTimeSig:vector  ETV
vector 900612  Network.dyn_peer[104]  lookupHopsSig:vector  ETV
vector 900613  Network.dyn_peer[104]  lookupStabilitySig:vector  ETV
vector 900614  Network.dyn_peer[104]  lookupTimeSig:vector  ETV
vector 900624  Network.dyn_peer[108]  lookupHopsSig:vector  ETV
vector 900625  Network.dyn_peer[108]  lookupStabilitySig:vector  ETV
vector 900626  Network.dyn_peer[108]  lookupTimeSig:vector  ETV
vector 900339  Network.dyn_peer[13]  lookupHopsSig:vector  ETV
vector 900340  Network.dyn_peer[13]  lookupStabilitySig:vector  ETV
vector 900341  Network.dyn_peer[13]  lookupTimeSig:vector  ETV
vector 900348  Network.dyn_peer[16]  lookupHopsSig:vector  ETV
vector 900349  Network.dyn_peer[16]  lookupStabilitySig:vector  ETV
vector 900350  Network.dyn_peer[16]  lookupTimeSig:vector  ETV
vector 900684  Network.dyn_peer[128]  lookupHopsSig:vector  ETV
vector 900685  Network.dyn_peer[128]  lookupStabilitySig:vector  ETV
vector 900686  Network.dyn_peer[128]  lookupTimeSig:vector  ETV
vector 900390  Network.dyn_peer[30]  lookupHopsSig:vector  ETV
vector 900391  Network.dyn_peer[30]  lookupStabilitySig:vector  ETV
vector 900392  Network.dyn_peer[30]  lookupTimeSig:vector  ETV
vector 900696  Network.dyn_peer[132]  lookupHopsSig:vector  ETV
vector 900697  Network.dyn_peer[132]  lookupStabilitySig:vector  ETV
vector 900698  Network.dyn_peer[132]  lookupTimeSig:vector  ETV
vector 901899  Network.dyn_peer[533]  lookupHopsSig:vector  ETV
vector 901900  Network.dyn_peer[533]  lookupStabilitySig:vector  ETV
vector 901901  Network.dyn_peer[533]  lookupTimeSig:vector  ETV
vector 900750  Network.dyn_peer[150]  lookupHopsSig:vector  ETV
vector 900751  Network.dyn_peer[150]  lookupStabilitySig:vector  ETV
vector 900752  Network.dyn_peer[150]  lookupTimeSig:vector  ETV
vector 900843  Network.dyn_peer[181]  lookupHopsSig:vector  ETV
vector 900844  Network.dyn_peer[181]  lookupStabilitySig:vector  ETV
vector 900845  Network.dyn_peer[181]  lookupTimeSig:vector  ETV
vector 901185  Network.dyn_peer[295]  lookupHopsSig:vector  ETV
vector 901186  Network.dyn_peer[295]  lookupStabilitySig:vector  ETV
vector 901187  Network.dyn_peer[295]  lookupTimeSig:vector  ETV
vector 900312  Network.dyn_peer[4]  lookupHopsSig:vector  ETV
vector 900313  Network.dyn_peer[4]  lookupStabilitySig:vector  ETV
vector 900314  Network.dyn_peer[4]  lookupTimeSig:vector  ETV
vector 901521  Network.dyn_peer[407]  lookupHopsSig:vector  ETV
vector 901522  Network.dyn_peer[407]  lookupStabilitySig:vector  ETV
vector 901523  Network.dyn_peer[407]  lookupTimeSig:vector  ETV
vector 901524  Network.dyn_peer[408]  lookupHopsSig:vector  ETV
vector 901525  Network.dyn_peer[408]  lookupStabilitySig:vector  ETV
vector 901526  Network.dyn_peer[408]  lookupTimeSig:vector  ETV
vector 901251  Network.dyn_peer[317]  lookupHopsSig:vector  ETV
vector 901252  Network.dyn_peer[317]  lookupStabilitySig:vector  ETV
vector 901253  Network.dyn_peer[317]  lookupTimeSig:vector  ETV
vector 901260  Network.dyn_peer[320]  lookupHopsSig:vector  ETV
vector 901261  Network.dyn_peer[320]  lookupStabilitySig:vector  ETV
vector 901262  Network.dyn_peer[320]  lookupTimeSig:vector  ETV
vector 900681  Network.dyn_peer[127]  lookupHopsSig:vector  ETV
vector 900682  Network.dyn_peer[127]  lookupStabilitySig:vector  ETV
vector 900683  Network.dyn_peer[127]  lookupTimeSig:vector  ETV
vector 901905  Network.dyn_peer[535]  lookupHopsSig:vector  ETV
vector 901906  Network.dyn_peer[535]  lookupStabilitySig:vector  ETV
vector 901907  Network.dyn_peer[535]  lookupTimeSig:vector  ETV
vector 900732  Network.dyn_peer[144]  lookupHopsSig:vector  ETV
vector 900733  Network.dyn_peer[144]  lookupStabilitySig:vector  ETV
vector 900734  Network.dyn_peer[144]  lookupTimeSig:vector  ETV
vector 901935  Network.dyn_peer[545]  lookupHopsSig:vector  ETV
vector 901936  Network.dyn_peer[545]  lookupStabilitySig:vector  ETV
vector 901937  Network.dyn_peer[545]  lookupTimeSig:vector  ETV
vector 900447  Network.dyn_peer[49]  lookupHopsSig:vector  ETV
vector 900448  Network.dyn_peer[49]  lookupStabilitySig:vector  ETV
vector 900449  Network.dyn_peer[49]  lookupTimeSig:vector  ETV
vector 901050  Network.dyn_peer[250]  lookupHopsSig:vector  ETV
vector 901051  Network.dyn_peer[250]  lookupStabilitySig:vector  ETV
vector 901052  Network.dyn_peer[250]  lookupTimeSig:vector  ETV
vector 901668  Network.dyn_peer[456]  lookupHopsSig:vector  ETV
vector 901669  Network.dyn_peer[456]  lookupStabilitySig:vector  ETV
vector 901670  Network.dyn_peer[456]  lookupTimeSig:vector  ETV
vector 901080  Network.dyn_peer[260]  lookupHopsSig:vector  ETV
vector 901081  Network.dyn_peer[260]  lookupStabilitySig:vector  ETV
vector 901082  Network.dyn_peer[260]  lookupTimeSig:vector  ETV
vector 900486  Network.dyn_peer[62]  lookupHopsSig:vector  ETV
vector 900487  Network.dyn_peer[62]  lookupStabilitySig:vector  ETV
vector 900488  Network.dyn_peer[62]  lookupTimeSig:vector  ETV
vector 901728  Network.dyn_peer[476]  lookupHopsSig:vector  ETV
vector 901729  Network.dyn_peer[476]  lookupStabilitySig:vector  ETV
vector 901730  Network.dyn_peer[476]  lookupTimeSig:vector  ETV
vector 901152  Network.dyn_peer[284]  lookupHopsSig:vector  ETV
vector 901153  Network.dyn_peer[284]  lookupStabilitySig:vector  ETV
vector 901154  Network.dyn_peer[284]  lookupTimeSig:vector  ETV
vector 901470  Network.dyn_peer[390]  lookupHopsSig:vector  ETV
vector 901471  Network.dyn_peer[390]  lookupStabilitySig:vector  ETV
vector 901472  Network.dyn_peer[390]  lookupTimeSig:vector  ETV
vector 901770  Network.dyn_peer[490]  lookupHopsSig:vector  ETV
vector 901771  Network.dyn_peer[490]  lookupStabilitySig:vector  ETV
vector 901772  Network.dyn_peer[490]  lookupTimeSig:vector  ETV
vector 901776  Network.dyn_peer[492]  lookupHopsSig:vector  ETV
vector 901777  Network.dyn_peer[492]  lookupStabilitySig:vector  ETV
vector 901778  Network.dyn_peer[492]  lookupTimeSig:vector  ETV
vector 901197  Network.dyn_peer[299]  lookupHopsSig:vector  ETV
vector 901198  Network.dyn_peer[299]  lookupStabilitySig:vector  ETV
vector 901199  Network.dyn_peer[299]  lookupTimeSig:vector  ETV
vector 900933  Network.dyn_peer[211]  lookupHopsSig:vector  ETV
vector 900934  Network.dyn_peer[211]  lookupStabilitySig:vector  ETV
vector 900935  Network.dyn_peer[211]  lookupTimeSig:vector  ETV
vector 901848  Network.dyn_peer[516]  lookupHopsSig:vector  ETV
vector 901849  Network.dyn_peer[516]  lookupStabilitySig:vector  ETV
vector 901850  Network.dyn_peer[516]  lookupTimeSig:vector  ETV
vector 901272  Network.dyn_peer[324]  lookupHopsSig:vector  ETV
vector 901273  Network.dyn_peer[324]  lookupStabilitySig:vector  ETV
vector 901274  Network.dyn_peer[324]  lookupTimeSig:vector  ETV
vector 900393  Network.dyn_peer[31]  lookupHopsSig:vector  ETV
vector 900394  Network.dyn_peer[31]  lookupStabilitySig:vector  ETV
vector 900395  Network.dyn_peer[31]  lookupTimeSig:vector  ETV
vector 900396  Network.dyn_peer[32]  lookupHopsSig:vector  ETV
vector 900397  Network.dyn_peer[32]  lookupStabilitySig:vector  ETV
vector 900398  Network.dyn_peer[32]  lookupTimeSig:vector  ETV
vector 901620  Network.dyn_peer[440]  lookupHopsSig:vector  ETV
vector 901621  Network.dyn_peer[440]  lookupStabilitySig:vector  ETV
vector 901622  Network.dyn_peer[440]  lookupTimeSig:vector  ETV
vector 900423  Network.dyn_peer[41]  lookupHopsSig:vector  ETV
vector 900424  Network.dyn_peer[41]  lookupStabilitySig:vector  ETV
vector 900425  Network.dyn_peer[41]  lookupTimeSig:vector  ETV
vector 900426  Network.dyn_peer[42]  lookupHopsSig:vector  ETV
vector 900427  Network.dyn_peer[42]  lookupStabilitySig:vector  ETV
vector 900428  Network.dyn_peer[42]  lookupTimeSig:vector  ETV
vector 902232  Network.dyn_peer[644]  lookupHopsSig:vector  ETV
vector 902233  Network.dyn_peer[644]  lookupStabilitySig:vector  ETV
vector 902234  Network.dyn_peer[644]  lookupTimeSig:vector  ETV
vector 900735  Network.dyn_peer[145]  lookupHopsSig:vector  ETV
vector 900736  Network.dyn_peer[145]  lookupStabilitySig:vector  ETV
vector 900737  Network.dyn_peer[145]  lookupTimeSig:vector  ETV
vector 901335  Network.dyn_peer[345]  lookupHopsSig:vector  ETV
vector 901336  Network.dyn_peer[345]  lookupStabilitySig:vector  ETV
vector 901337  Network.dyn_peer[345]  lookupTimeSig:vector  ETV
vector 901344  Network.dyn_peer[348]  lookupHopsSig:vector  ETV
vector 901345  Network.dyn_peer[348]  lookupStabilitySig:vector  ETV
vector 901346  Network.dyn_peer[348]  lookupTimeSig:vector  ETV
vector 901062  Network.dyn_peer[254]  lookupHopsSig:vector  ETV
vector 901063  Network.dyn_peer[254]  lookupStabilitySig:vector  ETV
vector 901064  Network.dyn_peer[254]  lookupTimeSig:vector  ETV
vector 900474  Network.dyn_peer[58]  lookupHopsSig:vector  ETV
vector 900475  Network.dyn_peer[58]  lookupStabilitySig:vector  ETV
vector 900476  Network.dyn_peer[58]  lookupTimeSig:vector  ETV
vector 901674  Network.dyn_peer[458]  lookupHopsSig:vector  ETV
vector 901675  Network.dyn_peer[458]  lookupStabilitySig:vector  ETV
vector 901676  Network.dyn_peer[458]  lookupTimeSig:vector  ETV
vector 901689  Network.dyn_peer[463]  lookupHopsSig:vector  ETV
vector 901690  Network.dyn_peer[463]  lookupStabilitySig:vector  ETV
vector 901691  Network.dyn_peer[463]  lookupTimeSig:vector  ETV
vector 902004  Network.dyn_peer[568]  lookupHopsSig:vector  ETV
vector 902005  Network.dyn_peer[568]  lookupStabilitySig:vector  ETV
vector 902006  Network.dyn_peer[568]  lookupTimeSig:vector  ETV
vector 900522  Network.dyn_peer[74]  lookupHopsSig:vector  ETV
vector 900523  Network.dyn_peer[74]  lookupStabilitySig:vector  ETV
vector 900524  Network.dyn_peer[74]  lookupTimeSig:vector  ETV
vector 901431  Network.dyn_peer[377]  lookupHopsSig:vector  ETV
vector 901432  Network.dyn_peer[377]  lookupStabilitySig:vector  ETV
vector 901433  Network.dyn_peer[377]  lookupTimeSig:vector  ETV
vector 902046  Network.dyn_peer[582]  lookupHopsSig:vector  ETV
vector 902047  Network.dyn_peer[582]  lookupStabilitySig:vector  ETV
vector 902048  Network.dyn_peer[582]  lookupTimeSig:vector  ETV
vector 900555  Network.dyn_peer[85]  lookupHopsSig:vector  ETV
vector 900556  Network.dyn_peer[85]  lookupStabilitySig:vector  ETV
vector 900557  Network.dyn_peer[85]  lookupTimeSig:vector  ETV
vector 900876  Network.dyn_peer[192]  lookupHopsSig:vector  ETV
vector 900877  Network.dyn_peer[192]  lookupStabilitySig:vector  ETV
vector 900878  Network.dyn_peer[192]  lookupTimeSig:vector  ETV
vector 902094  Network.dyn_peer[598]  lookupHopsSig:vector  ETV
vector 902095  Network.dyn_peer[598]  lookupStabilitySig:vector  ETV
vector 902096  Network.dyn_peer[598]  lookupTimeSig:vector  ETV
vector 901533  Network.dyn_peer[411]  lookupHopsSig:vector  ETV
vector 901534  Network.dyn_peer[411]  lookupStabilitySig:vector  ETV
vector 901535  Network.dyn_peer[411]  lookupTimeSig:vector  ETV
vector 902133  Network.dyn_peer[611]  lookupHopsSig:vector  ETV
vector 902134  Network.dyn_peer[611]  lookupStabilitySig:vector  ETV
vector 902135  Network.dyn_peer[611]  lookupTimeSig:vector  ETV
vector 900966  Network.dyn_peer[222]  lookupHopsSig:vector  ETV
vector 900967  Network.dyn_peer[222]  lookupStabilitySig:vector  ETV
vector 900968  Network.dyn_peer[222]  lookupTimeSig:vector  ETV
vector 900369  Network.dyn_peer[23]  lookupHopsSig:vector  ETV
vector 900370  Network.dyn_peer[23]  lookupStabilitySig:vector  ETV
vector 900371  Network.dyn_peer[23]  lookupTimeSig:vector  ETV
vector 900372  Network.dyn_peer[24]  lookupHopsSig:vector  ETV
vector 900373  Network.dyn_peer[24]  lookupStabilitySig:vector  ETV
vector 900374  Network.dyn_peer[24]  lookupTimeSig:vector  ETV
vector 900399  Network.dyn_peer[33]  lookupHopsSig:vector  ETV
vector 900400  Network.dyn_peer[33]  lookupStabilitySig:vector  ETV
vector 900401  Network.dyn_peer[33]  lookupTimeSig:vector  ETV
vector 902511  Network.dyn_peer[737]  lookupHopsSig:vector  ETV
vector 902512  Network.dyn_peer[737]  lookupStabilitySig:vector  ETV
vector 902513  Network.dyn_peer[737]  lookupTimeSig:vector  ETV
vector 900444  Network.dyn_peer[48]  lookupHopsSig:vector  ETV
vector 900445  Network.dyn_peer[48]  lookupStabilitySig:vector  ETV
vector 900446  Network.dyn_peer[48]  lookupTimeSig:vector  ETV
vector 901653  Network.dyn_peer[451]  lookupHopsSig:vector  ETV
vector 901654  Network.dyn_peer[451]  lookupStabilitySig:vector  ETV
vector 901655  Network.dyn_peer[451]  lookupTimeSig:vector  ETV
vector 902592  Network.dyn_peer[764]  lookupHopsSig:vector  ETV
vector 902593  Network.dyn_peer[764]  lookupStabilitySig:vector  ETV
vector 902594  Network.dyn_peer[764]  lookupTimeSig:vector  ETV
vector 900816  Network.dyn_peer[172]  lookupHopsSig:vector  ETV
vector 900817  Network.dyn_peer[172]  lookupStabilitySig:vector  ETV
vector 900818  Network.dyn_peer[172]  lookupTimeSig:vector  ETV
vector 900819  Network.dyn_peer[173]  lookupHopsSig:vector  ETV
vector 900820  Network.dyn_peer[173]  lookupStabilitySig:vector  ETV
vector 900821  Network.dyn_peer[173]  lookupTimeSig:vector  ETV
vector 901119  Network.dyn_peer[273]  lookupHopsSig:vector  ETV
vector 901120  Network.dyn_peer[273]  lookupStabilitySig:vector  ETV
vector 901121  Network.dyn_peer[273]  lookupTimeSig:vector  ETV
vector 901137  Network.dyn_peer[279]  lookupHopsSig:vector  ETV
vector 901138  Network.dyn_peer[279]  lookupStabilitySig:vector  ETV
vector 901139  Network.dyn_peer[279]  lookupTimeSig:vector  ETV
vector 900543  Network.dyn_peer[81]  lookupHopsSig:vector  ETV
vector 900544  Network.dyn_peer[81]  lookupStabilitySig:vector  ETV
vector 900545  Network.dyn_peer[81]  lookupTimeSig:vector  ETV
vector 902376  Network.dyn_peer[692]  lookupHopsSig:vector  ETV
vector 902377  Network.dyn_peer[692]  lookupStabilitySig:vector  ETV
vector 902378  Network.dyn_peer[692]  lookupTimeSig:vector  ETV
vector 900585  Network.dyn_peer[95]  lookupHopsSig:vector  ETV
vector 900586  Network.dyn_peer[95]  lookupStabilitySig:vector  ETV
vector 900587  Network.dyn_peer[95]  lookupTimeSig:vector  ETV
vector 902394  Network.dyn_peer[698]  lookupHopsSig:vector  ETV
vector 902395  Network.dyn_peer[698]  lookupStabilitySig:vector  ETV
vector 902396  Network.dyn_peer[698]  lookupTimeSig:vector  ETV
vector 900597  Network.dyn_peer[99]  lookupHopsSig:vector  ETV
vector 900598  Network.dyn_peer[99]  lookupStabilitySig:vector  ETV
vector 900599  Network.dyn_peer[99]  lookupTimeSig:vector  ETV
vector 901206  Network.dyn_peer[302]  lookupHopsSig:vector  ETV
vector 901207  Network.dyn_peer[302]  lookupStabilitySig:vector  ETV
vector 901208  Network.dyn_peer[302]  lookupTimeSig:vector  ETV
vector 901509  Network.dyn_peer[403]  lookupHopsSig:vector  ETV
vector 901510  Network.dyn_peer[403]  lookupStabilitySig:vector  ETV
vector 901511  Network.dyn_peer[403]  lookupTimeSig:vector  ETV
vector 900939  Network.dyn_peer[213]  lookupHopsSig:vector  ETV
vector 900940  Network.dyn_peer[213]  lookupStabilitySig:vector  ETV
vector 900941  Network.dyn_peer[213]  lookupTimeSig:vector  ETV
vector 901842  Network.dyn_peer[514]  lookupHopsSig:vector  ETV
vector 901843  Network.dyn_peer[514]  lookupStabilitySig:vector  ETV
vector 901844  Network.dyn_peer[514]  lookupTimeSig:vector  ETV
vector 902148  Network.dyn_peer[616]  lookupHopsSig:vector  ETV
vector 902149  Network.dyn_peer[616]  lookupStabilitySig:vector  ETV
vector 902150  Network.dyn_peer[616]  lookupTimeSig:vector  ETV
vector 901884  Network.dyn_peer[528]  lookupHopsSig:vector  ETV
vector 901885  Network.dyn_peer[528]  lookupStabilitySig:vector  ETV
vector 901886  Network.dyn_peer[528]  lookupTimeSig:vector  ETV
vector 900387  Network.dyn_peer[29]  lookupHopsSig:vector  ETV
vector 900388  Network.dyn_peer[29]  lookupStabilitySig:vector  ETV
vector 900389  Network.dyn_peer[29]  lookupTimeSig:vector  ETV
vector 902802  Network.dyn_peer[834]  lookupHopsSig:vector  ETV
vector 902803  Network.dyn_peer[834]  lookupStabilitySig:vector  ETV
vector 902804  Network.dyn_peer[834]  lookupTimeSig:vector  ETV
vector 902208  Network.dyn_peer[636]  lookupHopsSig:vector  ETV
vector 902209  Network.dyn_peer[636]  lookupStabilitySig:vector  ETV
vector 902210  Network.dyn_peer[636]  lookupTimeSig:vector  ETV
vector 901011  Network.dyn_peer[237]  lookupHopsSig:vector  ETV
vector 901012  Network.dyn_peer[237]  lookupStabilitySig:vector  ETV
vector 901013  Network.dyn_peer[237]  lookupTimeSig:vector  ETV
vector 901920  Network.dyn_peer[540]  lookupHopsSig:vector  ETV
vector 901921  Network.dyn_peer[540]  lookupStabilitySig:vector  ETV
vector 901922  Network.dyn_peer[540]  lookupTimeSig:vector  ETV
vector 900435  Network.dyn_peer[45]  lookupHopsSig:vector  ETV
vector 900436  Network.dyn_peer[45]  lookupStabilitySig:vector  ETV
vector 900437  Network.dyn_peer[45]  lookupTimeSig:vector  ETV
vector 901644  Network.dyn_peer[448]  lookupHopsSig:vector  ETV
vector 901645  Network.dyn_peer[448]  lookupStabilitySig:vector  ETV
vector 901646  Network.dyn_peer[448]  lookupTimeSig:vector  ETV
vector 900756  Network.dyn_peer[152]  lookupHopsSig:vector  ETV
vector 900757  Network.dyn_peer[152]  lookupStabilitySig:vector  ETV
vector 900758  Network.dyn_peer[152]  lookupTimeSig:vector  ETV
vector 901359  Network.dyn_peer[353]  lookupHopsSig:vector  ETV
vector 901360  Network.dyn_peer[353]  lookupStabilitySig:vector  ETV
vector 901361  Network.dyn_peer[353]  lookupTimeSig:vector  ETV
vector 903159  Network.dyn_peer[953]  lookupHopsSig:vector  ETV
vector 903160  Network.dyn_peer[953]  lookupStabilitySig:vector  ETV
vector 903161  Network.dyn_peer[953]  lookupTimeSig:vector  ETV
vector 900777  Network.dyn_peer[159]  lookupHopsSig:vector  ETV
vector 900778  Network.dyn_peer[159]  lookupStabilitySig:vector  ETV
vector 900779  Network.dyn_peer[159]  lookupTimeSig:vector  ETV
vector 902301  Network.dyn_peer[667]  lookupHopsSig:vector  ETV
vector 902302  Network.dyn_peer[667]  lookupStabilitySig:vector  ETV