file 5299 1369522270                                            
version 2
run Stability2-13-20130526-00:51:10-26640
attr configname Stability2
attr datetime 20130526-00:51:10
attr experiment Stability2
attr inifile omnetpp.ini
attr iterationvars $0=10
attr iterationvars2 "$0=10, $repetition=13"
attr measurement $0=10
attr network Network
attr processid 26640
attr repetition 13
attr replication #13
attr resultdir results
attr runnumber 13
attr seedset 13

vector 42013  Network.churner  inGoingSizeSig:vector  ETV
vector 39013  Network.dyn_peer[0]  lookupHopsSig:vector  ETV
vector 39014  Network.dyn_peer[0]  lookupStabilitySig:vector  ETV
vector 39015  Network.dyn_peer[0]  lookupTimeSig:vector  ETV
vector 39016  Network.dyn_peer[1]  lookupHopsSig:vector  ETV
vector 39017  Network.dyn_peer[1]  lookupStabilitySig:vector  ETV
vector 39018  Network.dyn_peer[1]  lookupTimeSig:vector  ETV
vector 39019  Network.dyn_peer[2]  lookupHopsSig:vector  ETV
vector 39020  Network.dyn_peer[2]  lookupStabilitySig:vector  ETV
vector 39021  Network.dyn_peer[2]  lookupTimeSig:vector  ETV
vector 39028  Network.dyn_peer[5]  lookupHopsSig:vector  ETV
vector 39029  Network.dyn_peer[5]  lookupStabilitySig:vector  ETV
vector 39030  Network.dyn_peer[5]  lookupTimeSig:vector  ETV
vector 39022  Network.dyn_peer[3]  lookupHopsSig:vector  ETV
vector 39023  Network.dyn_peer[3]  lookupStabilitySig:vector  ETV
vector 39024  Network.dyn_peer[3]  lookupTimeSig:vector  ETV
vector 39037  Network.dyn_peer[8]  lookupHopsSig:vector  ETV
vector 39038  Network.dyn_peer[8]  lookupStabilitySig:vector  ETV
vector 39039  Network.dyn_peer[8]  lookupTimeSig:vector  ETV
vector 39040  Network.dyn_peer[9]  lookupHopsSig:vector  ETV
vector 39041  Network.dyn_peer[9]  lookupStabilitySig:vector  ETV
vector 39042  Network.dyn_peer[9]  lookupTimeSig:vector  ETV
vector 39025  Network.dyn_peer[4]  lookupHopsSig:vector  ETV
vector 39026  Network.dyn_peer[4]  lookupStabilitySig:vector  ETV
vector 39027  Network.dyn_peer[4]  lookupTimeSig:vector  ETV
vector 39031  Network.dyn_peer[6]  lookupHopsSig:vector  ETV
vector 39032  Network.dyn_peer[6]  lookupStabilitySig:vector  ETV
vector 39033  Network.dyn_peer[6]  lookupTimeSig:vector  ETV
vector 39034  Network.dyn_peer[7]  lookupHopsSig:vector  ETV
vector 39035  Network.dyn_peer[7]  lookupStabilitySig:vector  ETV
vector 39036  Network.dyn_peer[7]  lookupTimeSig:vector  ETV
39013	2333 65 17 204 20.001 20.911803015527 3 0 4 7 25
39014	2398 95 17 204 20.001 20.911803015527 3 0.39999997615814 1 1.9555555284023 1.4686419525559
39015	2493 69 17 204 20.001 20.911803015527 3 0 0.5 0.9 0.41
39016	2562 93 24 221 20.002 21.114938914528 4 0 4 8 24
39017	2655 138 24 221 20.002 21.114938914528 4 0.19999998807907 1 2.8111110925674 2.3393827004271
39018	2793 99 24 221 20.002 21.114938914528 4 0 0.5 1.1 0.43
39019	2892 93 31 209 20.003 20.924822093555 4 0 3 6 14
39020	2985 138 31 209 20.003 20.924822093555 4 0.39999997615814 1 3.0333333015442 2.4944444123242
39021	3123 99 31 209 20.003 20.924822093555 4 0 0.4 0.9 0.29
39022	3222 93 64 212 20.104 20.945808848285 4 1 3 6 12
39023	3315 153 64 212 20.104 20.945808848285 4 0.39999997615814 0.90909090638161 2.9424242079258 2.3208906883899
39024	3468 101 64 212 20.104 20.945808848285 4 0.1 0.4 0.9 0.25
39025	3569 65 87 181 20.205 20.716815806165 3 1 2 5 9
39026	3634 110 87 181 20.205 20.716815806165 3 0.59999999403954 0.83333332836628 2.0333333164454 1.4144444218609
39027	3744 71 87 181 20.205 20.716815806165 3 0.2 0.3 0.7 0.17
39028	3815 63 44 148 20.006 20.51578203431 3 0 2 3 5
39029	3878 93 44 148 20.006 20.51578203431 3 0.59999999403954 1 2.3999999910593 1.9999999880791
39030	3971 67 44 148 20.006 20.51578203431 3 0 0.3 0.5 0.13
39031	4038 93 94 224 20.207 21.117324755476 4 1 3 8 18
39032	4131 140 94 224 20.207 21.117324755476 4 0.5 0.88888888806105 2.8350427225232 2.1160997698278
39033	4271 101 94 224 20.207 21.117324755476 4 0.2 0.4 1.1 0.33
39034	4372 46 99 187 20.208 20.725580831464 2 2 4 6 20
39035	4418 63 99 187 20.208 20.725580831464 2 0.5 0.59999999403954 1.0999999940395 0.60999999284744
39036	4481 50 99 187 20.208 20.725580831464 2 0.2 0.5 0.7 0.29
39037	4531 93 73 228 20.109 21.225740073463 4 1 4 9 27
39038	4624 141 73 228 20.109 21.225740073463 4 0.33333331346512 0.92857142537832 2.8119047358632 2.1758559851264
39039	4765 101 73 228 20.109 21.225740073463 4 0.1 0.5 1.2 0.46
39040	4866 63 78 178 20.11 20.714884902369 3 1 2 5 9
39041	4929 108 78 178 20.11 20.714884902369 3 0.59999999403954 0.79999999701977 2.0666666477919 1.444444419278
39042	5037 69 78 178 20.11 20.714884902369 3 0.1 0.3 0.7 0.19
42013	5106 193 10 54 20 20.01 11 0 9 45 285
