file 5446 1369522270                                            
version 2
run Stability2-12-20130526-00:51:10-26640
attr configname Stability2
attr datetime 20130526-00:51:10
attr experiment Stability2
attr inifile omnetpp.ini
attr iterationvars $0=10
attr iterationvars2 "$0=10, $repetition=12"
attr measurement $0=10
attr network Network
attr processid 26640
attr repetition 12
attr replication #12
attr resultdir results
attr runnumber 12
attr seedset 12

vector 39012  Network.churner  inGoingSizeSig:vector  ETV
vector 36015  Network.dyn_peer[1]  lookupHopsSig:vector  ETV
vector 36016  Network.dyn_peer[1]  lookupStabilitySig:vector  ETV
vector 36017  Network.dyn_peer[1]  lookupTimeSig:vector  ETV
vector 36024  Network.dyn_peer[4]  lookupHopsSig:vector  ETV
vector 36025  Network.dyn_peer[4]  lookupStabilitySig:vector  ETV
vector 36026  Network.dyn_peer[4]  lookupTimeSig:vector  ETV
vector 36033  Network.dyn_peer[7]  lookupHopsSig:vector  ETV
vector 36034  Network.dyn_peer[7]  lookupStabilitySig:vector  ETV
vector 36035  Network.dyn_peer[7]  lookupTimeSig:vector  ETV
vector 36012  Network.dyn_peer[0]  lookupHopsSig:vector  ETV
vector 36013  Network.dyn_peer[0]  lookupStabilitySig:vector  ETV
vector 36014  Network.dyn_peer[0]  lookupTimeSig:vector  ETV
vector 36018  Network.dyn_peer[2]  lookupHopsSig:vector  ETV
vector 36019  Network.dyn_peer[2]  lookupStabilitySig:vector  ETV
vector 36020  Network.dyn_peer[2]  lookupTimeSig:vector  ETV
vector 36021  Network.dyn_peer[3]  lookupHopsSig:vector  ETV
vector 36022  Network.dyn_peer[3]  lookupStabilitySig:vector  ETV
vector 36023  Network.dyn_peer[3]  lookupTimeSig:vector  ETV
vector 36027  Network.dyn_peer[5]  lookupHopsSig:vector  ETV
vector 36028  Network.dyn_peer[5]  lookupStabilitySig:vector  ETV
vector 36029  Network.dyn_peer[5]  lookupTimeSig:vector  ETV
vector 36036  Network.dyn_peer[8]  lookupHopsSig:vector  ETV
vector 36037  Network.dyn_peer[8]  lookupStabilitySig:vector  ETV
vector 36038  Network.dyn_peer[8]  lookupTimeSig:vector  ETV
vector 36030  Network.dyn_peer[6]  lookupHopsSig:vector  ETV
vector 36031  Network.dyn_peer[6]  lookupStabilitySig:vector  ETV
vector 36032  Network.dyn_peer[6]  lookupTimeSig:vector  ETV
vector 36039  Network.dyn_peer[9]  lookupHopsSig:vector  ETV
vector 36040  Network.dyn_peer[9]  lookupStabilitySig:vector  ETV
vector 36041  Network.dyn_peer[9]  lookupTimeSig:vector  ETV
36012	2333 93 81 321 20.201 21.519309007617 4 1 6 12 50
36013	2426 153 81 321 20.201 21.519309007617 4 0.14285713434219 0.89999999850988 2.4285714104772 1.807755086428
36014	2579 101 81 321 20.201 21.519309007617 4 0.2 0.7 1.5 0.73
36015	2680 64 20 215 20.002 20.622490711011 3 0 3 4 10
36016	2744 94 20 215 20.002 20.622490711011 3 0.39999997615814 1 2.1999999731779 1.7999999761581
36017	2838 68 20 215 20.002 20.622490711011 3 0 0.4 0.6 0.2
36018	2906 74 88 210 20.203 20.613143726648 3 1 2 4 6
36019	2980 119 88 210 20.203 20.613143726648 3 0.59999999403954 0.79999999701977 2.1999999880791 1.6399999833107
36020	3099 80 88 210 20.203 20.613143726648 3 0.2 0.2 0.6 0.12
36021	3179 93 93 317 20.204 21.418950634864 4 1 7 11 55
36022	3272 153 93 317 20.204 21.418950634864 4 0.46153843402863 0.79999999701977 2.6615384221077 1.8530177093963
36023	3425 101 93 317 20.204 21.418950634864 4 0.2 0.8 1.4 0.76
36024	3526 92 35 271 20.005 20.926730882172 4 0 2 6 12
36025	3618 125 35 271 20.005 20.926730882172 4 0.59999999403954 1 2.9499999880791 2.2824999856949
36026	3743 98 35 271 20.005 20.926730882172 4 0 0.3 0.9 0.27
36027	3841 94 129 310 20.306 21.248608939093 4 1 3 9 23
36028	3935 142 129 310 20.306 21.248608939093 4 0.39999997615814 0.875 2.6646103560925 1.9215770670422
36029	4077 102 129 310 20.306 21.248608939093 4 0.2 0.4 1.2 0.38
36030	4179 66 156 263 20.407 20.907458818674 3 1 4 7 21
36031	4245 111 156 263 20.407 20.907458818674 3 0.19999998807907 0.85714285075665 1.771428540349 1.2848979252212
36032	4356 72 156 263 20.407 20.907458818674 3 0.2 0.4 0.9 0.29
36033	4428 64 70 284 20.108 21.01002262141 3 1 5 8 30
36034	4492 109 70 284 20.108 21.01002262141 3 0.28571426868439 0.79999999701977 1.8634920418262 1.3265709075909
36035	4601 70 70 284 20.108 21.01002262141 3 0.1 0.6 1 0.46
36036	4671 94 137 300 20.309 21.126753511544 4 1 3 8 20
36037	4765 142 137 300 20.309 21.126753511544 4 0.39999997615814 0.89999999850988 2.7464285418391 2.0621555856235
36038	4907 102 137 300 20.309 21.126753511544 4 0.2 0.4 1.1 0.33
36039	5009 64 204 315 20.61 21.319430521548 3 2 6 11 49
36040	5073 110 204 315 20.61 21.319430521548 3 -0.20000004768372 0.83333332836628 1.2999999374151 1.1788888864385
36041	5183 70 204 315 20.61 21.319430521548 3 0.3 0.6 1.3 0.61
39012	5253 193 10 51 20 20.01 11 0 9 45 285
