file 5206 1369674134                                            
version 2
run Stability2-4-20130526-00:51:07-26640
attr configname Stability2
attr datetime 20130526-00:51:07
attr experiment Stability2
attr inifile omnetpp.ini
attr iterationvars $0=10
attr iterationvars2 "$0=10, $repetition=4"
attr measurement $0=10
attr network Network
attr processid 26640
attr repetition 4
attr replication #4
attr resultdir results
attr runnumber 4
attr seedset 4
vector 15004  Network.churner  inGoingSizeSig:vector  ETV
15004	5013 193 11 47 20 20.01 11 0 9 45 285
vector 12013  Network.dyn_peer[3]  lookupHopsSig:vector  ETV
12013	3204 64 27 181 20.004 20.709483675433 3 0 4 5 17
vector 12014  Network.dyn_peer[3]  lookupStabilitySig:vector  ETV
12014	3268 94 27 181 20.004 20.709483675433 3 0.33333331346512 1 2.1333333104849 1.7511110930973
vector 12015  Network.dyn_peer[3]  lookupTimeSig:vector  ETV
12015	3362 68 27 181 20.004 20.709483675433 3 0 0.5 0.7 0.29
vector 12016  Network.dyn_peer[4]  lookupHopsSig:vector  ETV
12016	3430 64 34 141 20.005 20.421435370553 3 0 1 2 2
vector 12017  Network.dyn_peer[4]  lookupStabilitySig:vector  ETV
12017	3494 94 34 141 20.005 20.421435370553 3 0.79999999701977 1 2.5999999940395 2.2799999904633
vector 12018  Network.dyn_peer[4]  lookupTimeSig:vector  ETV
12018	3588 68 34 141 20.005 20.421435370553 3 0 0.2 0.4 0.08
vector 12010  Network.dyn_peer[2]  lookupHopsSig:vector  ETV
12010	2860 92 56 188 20.103 20.714608444769 4 1 1 4 4
vector 12011  Network.dyn_peer[2]  lookupStabilitySig:vector  ETV
12011	2952 152 56 188 20.103 20.714608444769 4 0.79999999701977 0.85714285075665 3.2904761731625 2.7091382932325
vector 12012  Network.dyn_peer[2]  lookupTimeSig:vector  ETV
12012	3104 100 56 188 20.103 20.714608444769 4 0.1 0.2 0.7 0.13
vector 12022  Network.dyn_peer[6]  lookupHopsSig:vector  ETV
12022	4003 93 64 244 20.107 21.131839657345 4 1 5 8 28
vector 12023  Network.dyn_peer[6]  lookupStabilitySig:vector  ETV
12023	4096 153 64 244 20.107 21.131839657345 4 0.16666668653488 0.91666666418314 2.7833333462477 2.3180555501746
vector 12024  Network.dyn_peer[6]  lookupTimeSig:vector  ETV
12024	4249 101 64 244 20.107 21.131839657345 4 0.1 0.6 1.1 0.45
vector 12004  Network.dyn_peer[0]  lookupHopsSig:vector  ETV
12004	2327 102 72 255 20.201 21.335232989366 4 2 3 10 26
vector 12005  Network.dyn_peer[0]  lookupStabilitySig:vector  ETV
12005	2429 149 72 255 20.201 21.335232989366 4 0.5 0.79999999701977 2.6692307591438 1.841715962647
vector 12006  Network.dyn_peer[0]  lookupTimeSig:vector  ETV
12006	2578 110 72 255 20.201 21.335232989366 4 0.2 0.4 1.3 0.45
vector 12007  Network.dyn_peer[1]  lookupHopsSig:vector  ETV
12007	2688 46 77 195 20.202 20.718311808523 2 2 4 6 20
vector 12008  Network.dyn_peer[1]  lookupStabilitySig:vector  ETV
12008	2734 76 77 195 20.202 20.718311808523 2 0.42857140302658 0.59999999403954 1.0285713970661 0.54367344033962
vector 12009  Network.dyn_peer[1]  lookupTimeSig:vector  ETV
12009	2810 50 77 195 20.202 20.718311808523 2 0.2 0.5 0.7 0.29
vector 12019  Network.dyn_peer[5]  lookupHopsSig:vector  ETV
12019	3656 93 87 259 20.206 21.417471278313 4 2 4 11 33
vector 12020  Network.dyn_peer[5]  lookupStabilitySig:vector  ETV
12020	3749 153 87 259 20.206 21.417471278313 4 0.33333331346512 0.79999999701977 2.51904758811 1.7284580213751
vector 12021  Network.dyn_peer[5]  lookupTimeSig:vector  ETV
12021	3902 101 87 259 20.206 21.417471278313 4 0.2 0.5 1.4 0.54
vector 12025  Network.dyn_peer[7]  lookupHopsSig:vector  ETV
12025	4350 65 93 238 20.208 21.114485249064 3 2 4 9 29
vector 12026  Network.dyn_peer[7]  lookupStabilitySig:vector  ETV
12026	4415 110 93 238 20.208 21.114485249064 3 0.33333331346512 0.69999998807907 1.6333332955837 0.96111107402378
vector 12027  Network.dyn_peer[7]  lookupTimeSig:vector  ETV
12027	4525 71 93 238 20.208 21.114485249064 3 0.2 0.5 1.1 0.45
vector 12031  Network.dyn_peer[9]  lookupHopsSig:vector  ETV
12031	4871 36 102 203 20.21 20.81 2 2 5 7 29
vector 12032  Network.dyn_peer[9]  lookupStabilitySig:vector  ETV
12032	4907 66 102 203 20.21 20.81 2 0.44444441795349 0.59999999403954 1.044444411993 0.55753083349746
vector 12033  Network.dyn_peer[9]  lookupTimeSig:vector  ETV
12033	4973 40 102 203 20.21 20.81 2 0.2 0.6 0.8 0.4
vector 12028  Network.dyn_peer[8]  lookupHopsSig:vector  ETV
12028	4596 75 120 241 20.309 21.126930434869 3 3 3 9 27
vector 12029  Network.dyn_peer[8]  lookupStabilitySig:vector  ETV
12029	4671 119 120 241 20.309 21.126930434869 3 0.39999997615814 0.72727271914482 1.6987012624741 1.015456196318
vector 12030  Network.dyn_peer[8]  lookupTimeSig:vector  ETV
12030	4790 81 120 241 20.309 21.126930434869 3 0.3 0.4 1.1 0.41
