version 2
run Stability2-25-20130526-00:51:13-26640
attr configname Stability2
attr datetime 20130526-00:51:13
attr experiment Stability2
attr inifile omnetpp.ini
attr iterationvars $0=10
attr iterationvars2 "$0=10, $repetition=25"
attr measurement $0=10
attr network Network
attr processid 26640
attr repetition 25
attr replication #25
attr resultdir results
attr runnumber 25
attr seedset 25

vector 78025  Network.churner  inGoingSizeSig:vector  ETV
vector 75025  Network.dyn_peer[0]  lookupHopsSig:vector  ETV
vector 75026  Network.dyn_peer[0]  lookupStabilitySig:vector  ETV
vector 75027  Network.dyn_peer[0]  lookupTimeSig:vector  ETV
vector 75043  Network.dyn_peer[6]  lookupHopsSig:vector  ETV
vector 75044  Network.dyn_peer[6]  lookupStabilitySig:vector  ETV
vector 75045  Network.dyn_peer[6]  lookupTimeSig:vector  ETV
vector 75046  Network.dyn_peer[7]  lookupHopsSig:vector  ETV
vector 75047  Network.dyn_peer[7]  lookupStabilitySig:vector  ETV
vector 75048  Network.dyn_peer[7]  lookupTimeSig:vector  ETV
vector 75034  Network.dyn_peer[3]  lookupHopsSig:vector  ETV
vector 75035  Network.dyn_peer[3]  lookupStabilitySig:vector  ETV
vector 75036  Network.dyn_peer[3]  lookupTimeSig:vector  ETV
vector 75040  Network.dyn_peer[5]  lookupHopsSig:vector  ETV
vector 75041  Network.dyn_peer[5]  lookupStabilitySig:vector  ETV
vector 75042  Network.dyn_peer[5]  lookupTimeSig:vector  ETV
vector 75052  Network.dyn_peer[9]  lookupHopsSig:vector  ETV
vector 75053  Network.dyn_peer[9]  lookupStabilitySig:vector  ETV
vector 75054  Network.dyn_peer[9]  lookupTimeSig:vector  ETV
vector 75031  Network.dyn_peer[2]  lookupHopsSig:vector  ETV
vector 75032  Network.dyn_peer[2]  lookupStabilitySig:vector  ETV
vector 75033  Network.dyn_peer[2]  lookupTimeSig:vector  ETV
vector 75037  Network.dyn_peer[4]  lookupHopsSig:vector  ETV
vector 75038  Network.dyn_peer[4]  lookupStabilitySig:vector  ETV
vector 75039  Network.dyn_peer[4]  lookupTimeSig:vector  ETV
vector 75049  Network.dyn_peer[8]  lookupHopsSig:vector  ETV
vector 75050  Network.dyn_peer[8]  lookupStabilitySig:vector  ETV
vector 75051  Network.dyn_peer[8]  lookupTimeSig:vector  ETV
vector 75028  Network.dyn_peer[1]  lookupHopsSig:vector  ETV
vector 75029  Network.dyn_peer[1]  lookupStabilitySig:vector  ETV
vector 75030  Network.dyn_peer[1]  lookupTimeSig:vector  ETV
75025	17	20.001	0
75025	109	20.308781433712	2
75025	155	20.523176655685	1
75025	259	21.140787834935	5
75026	17	20.001	1
75026	109	20.308781433712	0.59999999403954
75026	155	20.523176655685	0.79999999701977
75026	259	21.140787834935	0.54545453190804
75027	17	20.001	0
75027	109	20.308781433712	0.3
75027	155	20.523176655685	0.2
75027	259	21.140787834935	0.6
75028	139	20.502	5
75028	177	20.702	1
75028	240	21.017052230914	2
75028	264	21.224505340382	1
75029	139	20.502	0
75029	177	20.702	0.79999999701977
75029	240	21.017052230914	0.77777777612209
75029	264	21.224505340382	0.91666666418314
75030	139	20.502	0.5
75030	177	20.702	0.2
75030	240	21.017052230914	0.3
75030	264	21.224505340382	0.2
75031	82	20.203	2
75031	179	20.703	4
75031	234	21.003439375373	2
75032	82	20.203	0.59999999403954
75032	179	20.703	0.19999998807907
75032	234	21.003439375373	0.75
75033	82	20.203	0.2
75033	179	20.703	0.5
75033	234	21.003439375373	0.3
75034	60	20.104	1
75034	142	20.504	3
75034	202	20.811884343797	2
75034	250	21.115879521144	2
75035	60	20.104	0.79999999701977
75035	142	20.504	0.39999997615814
75035	202	20.811884343797	0.59999999403954
75035	250	21.115879521144	0.79999999701977
75036	60	20.104	0.1
75036	142	20.504	0.4
75036	202	20.811884343797	0.3
75036	250	21.115879521144	0.3
75037	88	20.205	2
75037	144	20.505	2
75037	182	20.706371701124	1
75037	246	21.108415267071	3
75038	88	20.205	0.59999999403954
75038	144	20.505	0.59999999403954
75038	182	20.706371701124	0.79999999701977
75038	246	21.108415267071	0.66666665673256
75039	88	20.205	0.2
75039	144	20.505	0.3
75039	182	20.706371701124	0.2
75039	246	21.108415267071	0.4
75040	66	20.106	1
75040	123	20.406	2
75040	171	20.623693755839	1
75040	230	20.94042827386	2
75041	66	20.106	0.79999999701977
75041	123	20.406	0.59999999403954
75041	171	20.623693755839	0.79999999701977
75041	230	20.94042827386	0.71428570151329
75042	66	20.106	0.1
75042	123	20.406	0.3
75042	171	20.623693755839	0.2
75042	230	20.94042827386	0.3
75043	39	20.007	0
75043	125	20.407	3
75043	186	20.710462171917	2
75043	222	20.91798211967	1
75044	39	20.007	1
75044	125	20.407	0.39999997615814
75044	186	20.710462171917	0.59999999403954
75044	222	20.91798211967	0.83333332836628
75045	39	20.007	0
75045	125	20.407	0.4
75045	186	20.710462171917	0.3
75045	222	20.91798211967	0.2
75046	46	20.008	0
75046	107	20.308	2
75046	219	20.916094863441	5
75046	274	21.422417697145	4
75047	46	20.008	1
75047	107	20.308	0.59999999403954
75047	219	20.916094863441	0.16666668653488
75047	274	21.422417697145	0.71428570151329
75048	46	20.008	0
75048	107	20.308	0.3
75048	219	20.916094863441	0.6
75048	274	21.422417697145	0.5
75049	97	20.209	2
75049	200	20.809	5
75049	248	21.115872830626	2
75049	268	21.317205565046	1
75050	97	20.209	0.59999999403954
75050	200	20.809	0
75050	248	21.115872830626	0.79999999701977
75050	268	21.317205565046	0.92307692021132
75051	97	20.209	0.2
75051	200	20.809	0.6
75051	248	21.115872830626	0.3
75051	268	21.317205565046	0.2
75052	75	20.11	1
75052	215	20.912808526204	7
75053	75	20.11	0.79999999701977
75053	215	20.912808526204	-0.39999997615814
75054	75	20.11	0.1
75054	215	20.912808526204	0.8
78025	10	20	0
78025	11	20.001	0
78025	18	20.002	1
78025	21	20.003	2
78025	24	20.004	3
78025	27	20.005	4
78025	30	20.006	5
78025	33	20.007	6
78025	40	20.008	7
78025	48	20.009	8
78025	51	20.01	9
