version 2
run Stability2-46-20130526-00:51:19-26640
attr configname Stability2
attr datetime 20130526-00:51:19
attr experiment Stability2
attr inifile omnetpp.ini
attr iterationvars $0=20
attr iterationvars2 "$0=20, $repetition=16"
attr measurement $0=20
attr network Network
attr processid 26640
attr repetition 16
attr replication #16
attr resultdir results
attr runnumber 46
attr seedset 46

vector 141046  Network.churner  inGoingSizeSig:vector  ETV
vector 138055  Network.dyn_peer[3]  lookupHopsSig:vector  ETV
vector 138056  Network.dyn_peer[3]  lookupStabilitySig:vector  ETV
vector 138057  Network.dyn_peer[3]  lookupTimeSig:vector  ETV
vector 138058  Network.dyn_peer[4]  lookupHopsSig:vector  ETV
vector 138059  Network.dyn_peer[4]  lookupStabilitySig:vector  ETV
vector 138060  Network.dyn_peer[4]  lookupTimeSig:vector  ETV
vector 138061  Network.dyn_peer[5]  lookupHopsSig:vector  ETV
vector 138062  Network.dyn_peer[5]  lookupStabilitySig:vector  ETV
vector 138063  Network.dyn_peer[5]  lookupTimeSig:vector  ETV
vector 138082  Network.dyn_peer[12]  lookupHopsSig:vector  ETV
vector 138083  Network.dyn_peer[12]  lookupStabilitySig:vector  ETV
vector 138084  Network.dyn_peer[12]  lookupTimeSig:vector  ETV
vector 138100  Network.dyn_peer[18]  lookupHopsSig:vector  ETV
vector 138101  Network.dyn_peer[18]  lookupStabilitySig:vector  ETV
vector 138102  Network.dyn_peer[18]  lookupTimeSig:vector  ETV
vector 138046  Network.dyn_peer[0]  lookupHopsSig:vector  ETV
vector 138047  Network.dyn_peer[0]  lookupStabilitySig:vector  ETV
vector 138048  Network.dyn_peer[0]  lookupTimeSig:vector  ETV
vector 138052  Network.dyn_peer[2]  lookupHopsSig:vector  ETV
vector 138053  Network.dyn_peer[2]  lookupStabilitySig:vector  ETV
vector 138054  Network.dyn_peer[2]  lookupTimeSig:vector  ETV
vector 138067  Network.dyn_peer[7]  lookupHopsSig:vector  ETV
vector 138068  Network.dyn_peer[7]  lookupStabilitySig:vector  ETV
vector 138069  Network.dyn_peer[7]  lookupTimeSig:vector  ETV
vector 138088  Network.dyn_peer[14]  lookupHopsSig:vector  ETV
vector 138089  Network.dyn_peer[14]  lookupStabilitySig:vector  ETV
vector 138090  Network.dyn_peer[14]  lookupTimeSig:vector  ETV
vector 138070  Network.dyn_peer[8]  lookupHopsSig:vector  ETV
vector 138071  Network.dyn_peer[8]  lookupStabilitySig:vector  ETV
vector 138072  Network.dyn_peer[8]  lookupTimeSig:vector  ETV
vector 138076  Network.dyn_peer[10]  lookupHopsSig:vector  ETV
vector 138077  Network.dyn_peer[10]  lookupStabilitySig:vector  ETV
vector 138078  Network.dyn_peer[10]  lookupTimeSig:vector  ETV
vector 138094  Network.dyn_peer[16]  lookupHopsSig:vector  ETV
vector 138095  Network.dyn_peer[16]  lookupStabilitySig:vector  ETV
vector 138096  Network.dyn_peer[16]  lookupTimeSig:vector  ETV
vector 138097  Network.dyn_peer[17]  lookupHopsSig:vector  ETV
vector 138098  Network.dyn_peer[17]  lookupStabilitySig:vector  ETV
vector 138099  Network.dyn_peer[17]  lookupTimeSig:vector  ETV
vector 138103  Network.dyn_peer[19]  lookupHopsSig:vector  ETV
vector 138104  Network.dyn_peer[19]  lookupStabilitySig:vector  ETV
vector 138105  Network.dyn_peer[19]  lookupTimeSig:vector  ETV
vector 138064  Network.dyn_peer[6]  lookupHopsSig:vector  ETV
vector 138065  Network.dyn_peer[6]  lookupStabilitySig:vector  ETV
vector 138066  Network.dyn_peer[6]  lookupTimeSig:vector  ETV
vector 138073  Network.dyn_peer[9]  lookupHopsSig:vector  ETV
vector 138074  Network.dyn_peer[9]  lookupStabilitySig:vector  ETV
vector 138075  Network.dyn_peer[9]  lookupTimeSig:vector  ETV
vector 138091  Network.dyn_peer[15]  lookupHopsSig:vector  ETV
vector 138092  Network.dyn_peer[15]  lookupStabilitySig:vector  ETV
vector 138093  Network.dyn_peer[15]  lookupTimeSig:vector  ETV
vector 138085  Network.dyn_peer[13]  lookupHopsSig:vector  ETV
vector 138086  Network.dyn_peer[13]  lookupStabilitySig:vector  ETV
vector 138087  Network.dyn_peer[13]  lookupTimeSig:vector  ETV
vector 138049  Network.dyn_peer[1]  lookupHopsSig:vector  ETV
vector 138050  Network.dyn_peer[1]  lookupStabilitySig:vector  ETV
vector 138051  Network.dyn_peer[1]  lookupTimeSig:vector  ETV
vector 138079  Network.dyn_peer[11]  lookupHopsSig:vector  ETV
vector 138080  Network.dyn_peer[11]  lookupStabilitySig:vector  ETV
vector 138081  Network.dyn_peer[11]  lookupTimeSig:vector  ETV
138046	99	20.101	1
138046	310	20.701	5
138046	401	21.007921448949	2
138046	444	21.216305535349	1
138047	99	20.101	0.79999999701977
138047	310	20.701	0.28571426868439
138047	401	21.007921448949	0.83333332836628
138047	444	21.216305535349	0.9333333298564
138048	99	20.101	0.1
138048	310	20.701	0.6
138048	401	21.007921448949	0.3
138048	444	21.216305535349	0.2
138049	315	20.702	7
138049	398	21.002	2
138049	499	21.602247528145	5
138049	551	22.319240113162	6
138049	559	22.625029390824	2
138049	566	22.832556593827	1
138049	574	23.440187040536	5
138049	580	23.758820378501	2
138049	584	23.961659898366	1
138050	315	20.702	0
138050	398	21.002	0.83333332836628
138050	499	21.602247528145	0.7368420958519
138050	551	22.319240113162	0.73913043737411
138050	559	22.625029390824	0.91304347664118
138050	566	22.832556593827	0.95833333209157
138050	574	23.440187040536	0.79166667163372
138050	580	23.758820378501	0.91666666418314
138050	584	23.961659898366	0.95833333209157
138051	315	20.702	0.7
138051	398	21.002	0.3
138051	499	21.602247528145	0.6
138051	551	22.319240113162	0.7
138051	559	22.625029390824	0.3
138051	566	22.832556593827	0.2
138051	574	23.440187040536	0.6
138051	580	23.758820378501	0.3
138051	584	23.961659898366	0.2
138052	105	20.103	1
138052	285	20.603	4
138052	403	21.009650928754	3
138053	105	20.103	0.79999999701977
138053	285	20.603	0.33333331346512
138053	403	21.009650928754	0.75
138054	105	20.103	0.1
138054	285	20.603	0.5
138054	403	21.009650928754	0.4
138055	26	20.004	0
138055	181	20.305633377091	2
138055	287	20.60796907169	2
138056	26	20.004	1
138056	181	20.305633377091	0.59999999403954
138056	287	20.60796907169	0.66666665673256
138057	26	20.004	0
138057	181	20.305633377091	0.3
138057	287	20.60796907169	0.3
138058	33	20.005	0
138058	169	20.218058904436	1
138058	271	20.51822563553	2
138059	33	20.005	1
138059	169	20.218058904436	0.79999999701977
138059	271	20.51822563553	0.59999999403954
138060	33	20.005	0
138060	169	20.218058904436	0.2
138060	271	20.51822563553	0.3
138061	41	20.006	0
138061	183	20.306	2
138061	253	20.510168337534	1
138061	392	20.926807790581	3
138062	41	20.006	1
138062	183	20.306	0.59999999403954
138062	253	20.510168337534	0.79999999701977
138062	392	20.926807790581	0.69999998807907
138063	41	20.006	0
138063	183	20.306	0.3
138063	253	20.510168337534	0.2
138063	392	20.926807790581	0.4
138064	188	20.307	3
138064	377	20.910672370552	5
138064	487	21.517779992497	5
138064	535	21.918885414567	3
138065	188	20.307	0.39999997615814
138065	377	20.910672370552	0.44444441795349
138065	487	21.517779992497	0.7368420958519
138065	535	21.918885414567	0.85714285075665
138066	188	20.307	0.3
138066	377	20.910672370552	0.6
138066	487	21.517779992497	0.6
138066	535	21.918885414567	0.4
138067	113	20.108	1
138067	221	20.408	2
138067	334	20.716657539256	2
138067	389	20.922587721551	1
138068	113	20.108	0.79999999701977
138068	221	20.408	0.59999999403954
138068	334	20.716657539256	0.75
138068	389	20.922587721551	0.88888888806105
138069	113	20.108	0.1
138069	221	20.408	0.3
138069	334	20.716657539256	0.3
138069	389	20.922587721551	0.2
138070	142	20.209	2
138070	374	20.909	6
138070	429	21.116364134574	1
138070	471	21.324251071712	1
138071	142	20.209	0.59999999403954
138071	374	20.909	0.33333331346512
138071	429	21.116364134574	0.9333333298564
138071	471	21.324251071712	0.94444444403052
138072	142	20.209	0.2
138072	374	20.909	0.7
138072	429	21.116364134574	0.2
138072	471	21.324251071712	0.2
138073	196	20.31	3
138073	300	20.61692430627	2
138073	421	21.020023702615	3
138074	196	20.31	0.39999997615814
138074	300	20.61692430627	0.71428570151329
138074	421	21.020023702615	0.76923076808453
138075	196	20.31	0.3
138075	300	20.61692430627	0.3
138075	421	21.020023702615	0.4
138076	148	20.211	2
138076	406	21.011	7
138076	462	21.318870903695	2
138077	148	20.211	0.59999999403954
138077	406	21.011	0.41666668653488
138077	462	21.318870903695	0.8823529407382
138078	148	20.211	0.2
138078	406	21.011	0.8
138078	462	21.318870903695	0.3
138079	325	20.712	7
138079	408	21.012	2
138079	464	21.319171176937	2
138079	490	21.527674406138	1
138079	519	21.729723009064	1
138079	541	22.037584105271	2
138079	562	22.64549064381	5
138080	325	20.712	0
138080	408	21.012	0.83333332836628
138080	464	21.319171176937	0.88888888806105
138080	490	21.527674406138	0.9473684206605
138080	519	21.729723009064	0.9473684206605
138080	541	22.037584105271	0.90909090638161
138080	562	22.64549064381	0.78260870277882
138081	325	20.712	0.7
138081	408	21.012	0.3
138081	464	21.319171176937	0.3
138081	490	21.527674406138	0.2
138081	519	21.729723009064	0.2
138081	541	22.037584105271	0.3
138081	562	22.64549064381	0.6
138082	66	20.013	0
138082	151	20.213	1
138082	332	20.716476104366	4
138083	66	20.013	1
138083	151	20.213	0.79999999701977
138083	332	20.716476104366	0.42857140302658
138084	66	20.013	0
138084	151	20.213	0.2
138084	332	20.716476104366	0.5
138085	231	20.414	4
138085	361	20.817911363745	3
138085	440	21.127150368946	2
138085	510	21.632111009451	4
138085	529	21.840584315516	1
138085	543	22.042716571907	1
138086	231	20.414	0.19999998807907
138086	361	20.817911363745	0.66666665673256
138086	440	21.127150368946	0.86666665971279
138086	510	21.632111009451	0.78947368264198
138086	529	21.840584315516	0.94999999925494
138086	543	22.042716571907	0.9545454531908
138087	231	20.414	0.4
138087	361	20.817911363745	0.4
138087	440	21.127150368946	0.3
138087	510	21.632111009451	0.5
138087	529	21.840584315516	0.2
138087	543	22.042716571907	0.2
138088	124	20.115	1
138088	234	20.415	2
138088	344	20.724863400172	2
138089	124	20.115	0.79999999701977
138089	234	20.415	0.59999999403954
138089	344	20.724863400172	0.75
138090	124	20.115	0.1
138090	234	20.415	0.3
138090	344	20.724863400172	0.3
138091	208	20.316	3
138091	329	20.716	3
138091	466	21.319402684798	5
138091	507	21.631144917723	2
138091	532	21.851292422162	1
138092	208	20.316	0.39999997615814
138092	329	20.716	0.5714285671711
138092	466	21.319402684798	0.72222220897675
138092	507	21.631144917723	0.89473684132099
138092	532	21.851292422162	0.94999999925494
138093	208	20.316	0.3
138093	329	20.716	0.4
138093	466	21.319402684798	0.6
138093	507	21.631144917723	0.3
138093	532	21.851292422162	0.2
138094	162	20.217	2
138094	446	21.217	9
138095	162	20.217	0.59999999403954
138095	446	21.217	0.39999997615814
138096	162	20.217	0.2
138096	446	21.217	1
138097	167	20.218	2
138097	269	20.518	2
138097	414	21.018439423543	4
138098	167	20.218	0.59999999403954
138098	269	20.518	0.59999999403954
138098	414	21.018439423543	0.66666665673256
138099	167	20.218	0.2
138099	269	20.518	0.3
138099	414	21.018439423543	0.5
138100	90	20.019	0
138100	276	20.523766102868	4
138100	348	20.731327507342	1
138100	395	20.939118871437	1
138101	90	20.019	1
138101	276	20.523766102868	0.19999998807907
138101	348	20.731327507342	0.88888888806105
138101	395	20.939118871437	0.90909090638161
138102	90	20.019	0
138102	276	20.523766102868	0.5
138102	348	20.731327507342	0.2
138102	395	20.939118871437	0.2
138103	175	20.22	2
138103	452	21.22	9
138103	492	21.52849876445	2
138103	521	21.732025588324	1
138104	175	20.22	0.59999999403954
138104	452	21.22	0.39999997615814
138104	492	21.52849876445	0.89473684132099
138104	521	21.732025588324	0.9473684206605
138105	175	20.22	0.2
138105	452	21.22	1
138105	492	21.52849876445	0.3
138105	521	21.732025588324	0.2
141046	10	20	0
141046	11	20.001	0
141046	14	20.002	1
141046	17	20.003	2
141046	20	20.004	3
141046	27	20.005	4
141046	35	20.006	5
141046	42	20.007	6
141046	45	20.008	7
141046	48	20.009	8
141046	51	20.01	9
141046	54	20.011	10
141046	57	20.012	11
141046	60	20.013	12
141046	68	20.014	13
141046	71	20.015	14
141046	74	20.016	15
141046	77	20.017	16
141046	80	20.018	17
141046	84	20.019	18
141046	91	20.02	19
