file 33019 1369522309                                           
version 2
run Stability2-137-20130526-00:51:49-26640
attr configname Stability2
attr datetime 20130526-00:51:49
attr experiment Stability2
attr inifile omnetpp.ini
attr iterationvars $0=50
attr iterationvars2 "$0=50, $repetition=17"
attr measurement $0=50
attr network Network
attr processid 26640
attr repetition 17
attr replication #17
attr resultdir results
attr runnumber 137
attr seedset 137

vector 414137  Network.churner  inGoingSizeSig:vector  ETV
vector 411146  Network.dyn_peer[3]  lookupHopsSig:vector  ETV
vector 411147  Network.dyn_peer[3]  lookupStabilitySig:vector  ETV
vector 411148  Network.dyn_peer[3]  lookupTimeSig:vector  ETV
vector 411164  Network.dyn_peer[9]  lookupHopsSig:vector  ETV
vector 411165  Network.dyn_peer[9]  lookupStabilitySig:vector  ETV
vector 411166  Network.dyn_peer[9]  lookupTimeSig:vector  ETV
vector 411188  Network.dyn_peer[17]  lookupHopsSig:vector  ETV
vector 411189  Network.dyn_peer[17]  lookupStabilitySig:vector  ETV
vector 411190  Network.dyn_peer[17]  lookupTimeSig:vector  ETV
vector 411194  Network.dyn_peer[19]  lookupHopsSig:vector  ETV
vector 411195  Network.dyn_peer[19]  lookupStabilitySig:vector  ETV
vector 411196  Network.dyn_peer[19]  lookupTimeSig:vector  ETV
vector 411239  Network.dyn_peer[34]  lookupHopsSig:vector  ETV
vector 411240  Network.dyn_peer[34]  lookupStabilitySig:vector  ETV
vector 411241  Network.dyn_peer[34]  lookupTimeSig:vector  ETV
vector 411254  Network.dyn_peer[39]  lookupHopsSig:vector  ETV
vector 411255  Network.dyn_peer[39]  lookupStabilitySig:vector  ETV
vector 411256  Network.dyn_peer[39]  lookupTimeSig:vector  ETV
vector 411269  Network.dyn_peer[44]  lookupHopsSig:vector  ETV
vector 411270  Network.dyn_peer[44]  lookupStabilitySig:vector  ETV
vector 411271  Network.dyn_peer[44]  lookupTimeSig:vector  ETV
vector 411140  Network.dyn_peer[1]  lookupHopsSig:vector  ETV
vector 411141  Network.dyn_peer[1]  lookupStabilitySig:vector  ETV
vector 411142  Network.dyn_peer[1]  lookupTimeSig:vector  ETV
vector 411182  Network.dyn_peer[15]  lookupHopsSig:vector  ETV
vector 411183  Network.dyn_peer[15]  lookupStabilitySig:vector  ETV
vector 411184  Network.dyn_peer[15]  lookupTimeSig:vector  ETV
vector 411185  Network.dyn_peer[16]  lookupHopsSig:vector  ETV
vector 411186  Network.dyn_peer[16]  lookupStabilitySig:vector  ETV
vector 411187  Network.dyn_peer[16]  lookupTimeSig:vector  ETV
vector 411200  Network.dyn_peer[21]  lookupHopsSig:vector  ETV
vector 411201  Network.dyn_peer[21]  lookupStabilitySig:vector  ETV
vector 411202  Network.dyn_peer[21]  lookupTimeSig:vector  ETV
vector 411209  Network.dyn_peer[24]  lookupHopsSig:vector  ETV
vector 411210  Network.dyn_peer[24]  lookupStabilitySig:vector  ETV
vector 411211  Network.dyn_peer[24]  lookupTimeSig:vector  ETV
vector 411227  Network.dyn_peer[30]  lookupHopsSig:vector  ETV
vector 411228  Network.dyn_peer[30]  lookupStabilitySig:vector  ETV
vector 411229  Network.dyn_peer[30]  lookupTimeSig:vector  ETV
vector 411230  Network.dyn_peer[31]  lookupHopsSig:vector  ETV
vector 411231  Network.dyn_peer[31]  lookupStabilitySig:vector  ETV
vector 411232  Network.dyn_peer[31]  lookupTimeSig:vector  ETV
vector 411236  Network.dyn_peer[33]  lookupHopsSig:vector  ETV
vector 411237  Network.dyn_peer[33]  lookupStabilitySig:vector  ETV
vector 411238  Network.dyn_peer[33]  lookupTimeSig:vector  ETV
vector 411245  Network.dyn_peer[36]  lookupHopsSig:vector  ETV
vector 411246  Network.dyn_peer[36]  lookupStabilitySig:vector  ETV
vector 411247  Network.dyn_peer[36]  lookupTimeSig:vector  ETV
vector 411263  Network.dyn_peer[42]  lookupHopsSig:vector  ETV
vector 411264  Network.dyn_peer[42]  lookupStabilitySig:vector  ETV
vector 411265  Network.dyn_peer[42]  lookupTimeSig:vector  ETV
vector 411275  Network.dyn_peer[46]  lookupHopsSig:vector  ETV
vector 411276  Network.dyn_peer[46]  lookupStabilitySig:vector  ETV
vector 411277  Network.dyn_peer[46]  lookupTimeSig:vector  ETV
vector 411284  Network.dyn_peer[49]  lookupHopsSig:vector  ETV
vector 411285  Network.dyn_peer[49]  lookupStabilitySig:vector  ETV
vector 411286  Network.dyn_peer[49]  lookupTimeSig:vector  ETV
vector 411143  Network.dyn_peer[2]  lookupHopsSig:vector  ETV
vector 411144  Network.dyn_peer[2]  lookupStabilitySig:vector  ETV
vector 411145  Network.dyn_peer[2]  lookupTimeSig:vector  ETV
vector 411152  Network.dyn_peer[5]  lookupHopsSig:vector  ETV
vector 411153  Network.dyn_peer[5]  lookupStabilitySig:vector  ETV
vector 411154  Network.dyn_peer[5]  lookupTimeSig:vector  ETV
vector 411158  Network.dyn_peer[7]  lookupHopsSig:vector  ETV
vector 411159  Network.dyn_peer[7]  lookupStabilitySig:vector  ETV
vector 411160  Network.dyn_peer[7]  lookupTimeSig:vector  ETV
vector 411170  Network.dyn_peer[11]  lookupHopsSig:vector  ETV
vector 411171  Network.dyn_peer[11]  lookupStabilitySig:vector  ETV
vector 411172  Network.dyn_peer[11]  lookupTimeSig:vector  ETV
vector 411176  Network.dyn_peer[13]  lookupHopsSig:vector  ETV
vector 411177  Network.dyn_peer[13]  lookupStabilitySig:vector  ETV
vector 411178  Network.dyn_peer[13]  lookupTimeSig:vector  ETV
vector 411179  Network.dyn_peer[14]  lookupHopsSig:vector  ETV
vector 411180  Network.dyn_peer[14]  lookupStabilitySig:vector  ETV
vector 411181  Network.dyn_peer[14]  lookupTimeSig:vector  ETV
vector 411191  Network.dyn_peer[18]  lookupHopsSig:vector  ETV
vector 411192  Network.dyn_peer[18]  lookupStabilitySig:vector  ETV
vector 411193  Network.dyn_peer[18]  lookupTimeSig:vector  ETV
vector 411203  Network.dyn_peer[22]  lookupHopsSig:vector  ETV
vector 411204  Network.dyn_peer[22]  lookupStabilitySig:vector  ETV
vector 411205  Network.dyn_peer[22]  lookupTimeSig:vector  ETV
vector 411206  Network.dyn_peer[23]  lookupHopsSig:vector  ETV
vector 411207  Network.dyn_peer[23]  lookupStabilitySig:vector  ETV
vector 411208  Network.dyn_peer[23]  lookupTimeSig:vector  ETV
vector 411233  Network.dyn_peer[32]  lookupHopsSig:vector  ETV
vector 411234  Network.dyn_peer[32]  lookupStabilitySig:vector  ETV
vector 411235  Network.dyn_peer[32]  lookupTimeSig:vector  ETV
vector 411248  Network.dyn_peer[37]  lookupHopsSig:vector  ETV
vector 411249  Network.dyn_peer[37]  lookupStabilitySig:vector  ETV
vector 411250  Network.dyn_peer[37]  lookupTimeSig:vector  ETV
vector 411251  Network.dyn_peer[38]  lookupHopsSig:vector  ETV
vector 411252  Network.dyn_peer[38]  lookupStabilitySig:vector  ETV
vector 411253  Network.dyn_peer[38]  lookupTimeSig:vector  ETV
vector 411257  Network.dyn_peer[40]  lookupHopsSig:vector  ETV
vector 411258  Network.dyn_peer[40]  lookupStabilitySig:vector  ETV
vector 411259  Network.dyn_peer[40]  lookupTimeSig:vector  ETV
vector 411266  Network.dyn_peer[43]  lookupHopsSig:vector  ETV
vector 411267  Network.dyn_peer[43]  lookupStabilitySig:vector  ETV
vector 411268  Network.dyn_peer[43]  lookupTimeSig:vector  ETV
vector 411272  Network.dyn_peer[45]  lookupHopsSig:vector  ETV
vector 411273  Network.dyn_peer[45]  lookupStabilitySig:vector  ETV
vector 411274  Network.dyn_peer[45]  lookupTimeSig:vector  ETV
vector 411155  Network.dyn_peer[6]  lookupHopsSig:vector  ETV
vector 411156  Network.dyn_peer[6]  lookupStabilitySig:vector  ETV
vector 411157  Network.dyn_peer[6]  lookupTimeSig:vector  ETV
vector 411215  Network.dyn_peer[26]  lookupHopsSig:vector  ETV
vector 411216  Network.dyn_peer[26]  lookupStabilitySig:vector  ETV
vector 411217  Network.dyn_peer[26]  lookupTimeSig:vector  ETV
vector 411218  Network.dyn_peer[27]  lookupHopsSig:vector  ETV
vector 411219  Network.dyn_peer[27]  lookupStabilitySig:vector  ETV
vector 411220  Network.dyn_peer[27]  lookupTimeSig:vector  ETV
vector 411224  Network.dyn_peer[29]  lookupHopsSig:vector  ETV
vector 411225  Network.dyn_peer[29]  lookupStabilitySig:vector  ETV
vector 411226  Network.dyn_peer[29]  lookupTimeSig:vector  ETV
vector 411242  Network.dyn_peer[35]  lookupHopsSig:vector  ETV
vector 411243  Network.dyn_peer[35]  lookupStabilitySig:vector  ETV
vector 411244  Network.dyn_peer[35]  lookupTimeSig:vector  ETV
vector 411260  Network.dyn_peer[41]  lookupHopsSig:vector  ETV
vector 411261  Network.dyn_peer[41]  lookupStabilitySig:vector  ETV
vector 411262  Network.dyn_peer[41]  lookupTimeSig:vector  ETV
vector 411149  Network.dyn_peer[4]  lookupHopsSig:vector  ETV
vector 411150  Network.dyn_peer[4]  lookupStabilitySig:vector  ETV
vector 411151  Network.dyn_peer[4]  lookupTimeSig:vector  ETV
vector 411161  Network.dyn_peer[8]  lookupHopsSig:vector  ETV
vector 411162  Network.dyn_peer[8]  lookupStabilitySig:vector  ETV
vector 411163  Network.dyn_peer[8]  lookupTimeSig:vector  ETV
vector 411167  Network.dyn_peer[10]  lookupHopsSig:vector  ETV
vector 411168  Network.dyn_peer[10]  lookupStabilitySig:vector  ETV
vector 411169  Network.dyn_peer[10]  lookupTimeSig:vector  ETV
vector 411173  Network.dyn_peer[12]  lookupHopsSig:vector  ETV
vector 411174  Network.dyn_peer[12]  lookupStabilitySig:vector  ETV
vector 411175  Network.dyn_peer[12]  lookupTimeSig:vector  ETV
vector 411197  Network.dyn_peer[20]  lookupHopsSig:vector  ETV
vector 411198  Network.dyn_peer[20]  lookupStabilitySig:vector  ETV
vector 411199  Network.dyn_peer[20]  lookupTimeSig:vector  ETV
vector 411278  Network.dyn_peer[47]  lookupHopsSig:vector  ETV
vector 411279  Network.dyn_peer[47]  lookupStabilitySig:vector  ETV
vector 411280  Network.dyn_peer[47]  lookupTimeSig:vector  ETV
vector 411212  Network.dyn_peer[25]  lookupHopsSig:vector  ETV
vector 411213  Network.dyn_peer[25]  lookupStabilitySig:vector  ETV
vector 411214  Network.dyn_peer[25]  lookupTimeSig:vector  ETV
vector 411221  Network.dyn_peer[28]  lookupHopsSig:vector  ETV
vector 411222  Network.dyn_peer[28]  lookupStabilitySig:vector  ETV
vector 411223  Network.dyn_peer[28]  lookupTimeSig:vector  ETV
vector 411281  Network.dyn_peer[48]  lookupHopsSig:vector  ETV
vector 411282  Network.dyn_peer[48]  lookupStabilitySig:vector  ETV
vector 411283  Network.dyn_peer[48]  lookupTimeSig:vector  ETV
vector 411137  Network.dyn_peer[0]  lookupHopsSig:vector  ETV
vector 411138  Network.dyn_peer[0]  lookupStabilitySig:vector  ETV
vector 411139  Network.dyn_peer[0]  lookupTimeSig:vector  ETV
411137	10127 220 720 1869 20.701 23.63099708622 8 2 7 29 127
411138	10347 341 720 1869 20.701 23.63099708622 8 -0.39999997615814 0.95918367430568 5.8441061004996 5.7751431899351
411139	10688 236 720 1869 20.701 23.63099708622 8 0.3 0.7 3.6 1.78
411140	10924 71 198 1368 20.102 21.703046250092 3 1 9 15 107
411141	10995 104 198 1368 20.102 21.703046250092 3 0.25 0.79999999701977 1.8227272629738 1.2996074227804
411142	11099 75 198 1368 20.102 21.703046250092 3 0.1 1 1.7 1.37
411143	11174 130 300 1621 20.203 22.318413894994 5 2 7 19 91
411144	11304 205 300 1621 20.203 22.318413894994 5 0.28571426868439 0.89473684132099 3.3804510980844 2.5221866418576
411145	11509 140 300 1621 20.203 22.318413894994 5 0.2 0.8 2.3 1.29
411146	11649 97 27 1375 20.004 21.714986793668 4 0 7 14 74
411147	11746 142 27 1375 20.004 21.714986793668 4 0.39999997615814 1 2.6512077152729 1.9525739176537
411148	11888 103 27 1375 20.004 21.714986793668 4 0 0.8 1.7 1.05
411149	11991 190 504 1762 20.405 22.827996183966 7 2 5 22 82
411150	12181 294 504 1762 20.405 22.827996183966 7 0.19999998807907 0.94285714253783 5.1731983311474 4.2625951537663
411151	12475 204 504 1762 20.405 22.827996183966 7 0.3 0.6 2.8 1.24
411152	12679 282 307 1940 20.206 24.643488283215 10 2 11 37 205
411153	12961 431 307 1940 20.206 24.643488283215 10 0.42105263471603 0.96078431233764 8.4491449408233 7.4390575227008
411154	13392 301 307 1940 20.206 24.643488283215 10 0.2 1.2 4.6 2.84
411155	13693 138 421 1397 20.307 21.728259155139 5 1 5 13 45
411156	13831 213 421 1397 20.307 21.728259155139 5 0.39999997615814 0.95833333209157 3.5763071328402 2.8566342803816
411157	14044 148 421 1397 20.307 21.728259155139 5 0.2 0.6 1.7 0.69
411158	14192 191 313 1766 20.208 22.842313585065 7 1 10 22 126
411159	14383 295 313 1766 20.208 22.842313585065 7 0.41176468133926 0.97777777723968 5.6999432649463 4.9287415541179
411160	14678 204 313 1766 20.208 22.842313585065 7 0.2 1.1 2.8 1.72
411161	14882 100 512 1474 20.409 21.919007200138 4 3 5 16 66
411162	14982 147 512 1474 20.409 21.919007200138 4 0.19999998807907 0.89999999850988 2.3894736692309 1.7232686881337
411163	15129 108 512 1474 20.409 21.919007200138 4 0.4 0.6 1.9 0.93
411164	15237 137 49 1695 20.01 22.542348042666 5 0 9 21 135
411165	15374 182 49 1695 20.01 22.542348042666 5 0 1 3.3607432991266 2.9010997082244
411166	15556 143 49 1695 20.01 22.542348042666 5 0 1 2.5 1.81
411167	15699 101 518 1526 20.411 22.037535800535 4 2 7 17 85
411168	15800 151 518 1526 20.411 22.037535800535 4 0.19999998807907 0.9375 2.5041666477919 1.8977951237228
411169	15951 109 518 1526 20.411 22.037535800535 4 0.3 0.8 2 1.14
411170	16060 69 321 1014 20.212 21.11383695662 3 2 4 9 29
411171	16129 102 321 1014 20.212 21.11383695662 3 0.19999998807907 0.75 1.5499999821186 0.96249998807907
411172	16231 75 321 1014 20.212 21.11383695662 3 0.2 0.5 1.1 0.45
411173	16306 79 524 1028 20.413 21.125286091393 3 2 4 9 29
411174	16385 123 524 1028 20.413 21.125286091393 3 0.19999998807907 0.84615384042263 1.6175823956728 1.0825069242728
411175	16508 85 524 1028 20.413 21.125286091393 3 0.3 0.4 1.1 0.41
411176	16593 101 327 1554 20.214 22.116777726058 4 2 9 18 110
411177	16694 161 327 1554 20.214 22.116777726058 4 0.39999997615814 0.90909090638161 2.7351778298616 2.028865904223
411178	16855 107 327 1554 20.214 22.116777726058 4 0.2 1 2.1 1.45
411179	16962 71 332 1260 20.215 21.516711884655 3 2 8 13 77
411180	17033 116 332 1260 20.215 21.516711884655 3 0.38461536169052 0.84210526943207 1.8267206251621 1.217070254101
411181	17149 77 332 1260 20.215 21.516711884655 3 0.2 0.9 1.5 1.01
411182	17226 78 215 897 20.116 20.926519727682 3 1 5 7 27
411183	17304 108 215 897 20.116 20.926519727682 3 0 0.88888888806105 1.6888888850808 1.43012345055
411184	17412 84 215 897 20.116 20.926519727682 3 0.1 0.6 0.9 0.41
411185	17496 72 220 1470 20.117 21.917420543539 3 1 13 17 179
411186	17568 116 220 1470 20.117 21.917420543539 3 0.31578946113586 0.89655172079802 2.0123411789536 1.543527967062
411187	17684 77 220 1470 20.117 21.917420543539 3 0.1 1.4 1.9 2.13
411188	17761 99 78 1438 20.018 21.826700467054 4 0 6 15 77
411189	17860 145 78 1438 20.018 21.826700467054 4 -0.20000004768372 1 2.3481480926275 2.2417009687882
411190	18005 105 78 1438 20.018 21.826700467054 4 0 0.7 1.8 1.1
411191	18110 132 340 1690 20.219 22.530304837157 5 1 12 21 169
411192	18242 195 340 1690 20.219 22.530304837157 5 0.36842107772827 0.97499999962747 3.7612782139331 3.1009636738701
411193	18437 141 340 1690 20.219 22.530304837157 5 0.2 1.3 2.5 2.11
411194	18578 95 88 814 20.02 20.820089451295 4 0 2 5 9
411195	18673 140 88 814 20.02 20.820089451295 4 0.59999999403954 1 3.1142856925726 2.5102040514654
411196	18813 101 88 814 20.02 20.820089451295 4 0 0.3 0.8 0.22
411197	18914 100 539 1392 20.421 21.727445073815 4 3 4 14 50
411198	19014 137 539 1392 20.421 21.727445073815 4 0.19999998807907 0.875 2.4647058695555 1.7810250803962
411199	19151 108 539 1392 20.421 21.727445073815 4 0.4 0.5 1.7 0.73
411200	19259 99 230 1101 20.122 21.235978299264 4 1 3 9 23
411201	19358 148 230 1101 20.122 21.235978299264 4 0.59999999403954 0.79999999701977 2.8249999880791 2.0306249833107
411202	19506 107 230 1101 20.122 21.235978299264 4 0.1 0.4 1.2 0.42
411203	19613 140 349 1562 20.223 22.132111132415 5 1 12 17 151
411204	19753 214 349 1562 20.223 22.132111132415 5 0.39999997615814 0.97058823518455 3.896663473919 3.3169687270051
411205	19967 149 349 1562 20.223 22.132111132415 5 0.2 1.3 2.1 1.85
411206	20116 41 355 1026 20.224 21.124 2 2 8 10 68
411207	20157 71 355 1026 20.224 21.124 2 0.38461536169052 0.59999999403954 0.98461535573006 0.50792896929577
411208	20228 45 355 1026 20.224 21.124 2 0.2 0.9 1.1 0.85
411209	20273 69 238 965 20.125 21.034681498568 3 1 5 8 30
411210	20342 99 238 965 20.125 21.034681498568 3 0 0.79999999701977 1.5999999940395 1.2799999904633
411211	20441 75 238 965 20.125 21.034681498568 3 0.1 0.6 1 0.46
411212	20516 129 615 1660 20.526 22.437487264553 5 1 8 20 110
411213	20645 188 615 1660 20.526 22.437487264553 5 0 0.94999999925494 3.2101307101548 2.6459849724906
411214	20833 139 615 1660 20.526 22.437487264553 5 0.2 0.9 2.4 1.44
411215	20972 162 450 1847 20.327 23.437913575621 6 2 12 29 211
411216	21134 251 450 1847 20.327 23.437913575621 6 0.39999997615814 0.93548387289047 4.4832948967814 3.6853917024274
411217	21385 173 450 1847 20.327 23.437913575621 6 0.3 1.3 3.4 2.68
411218	21558 101 455 1412 20.328 21.750448909369 4 1 9 14 92
411219	21659 161 455 1412 20.328 21.750448909369 4 0.39999997615814 0.96153846010566 2.7845075950027 2.2130389287554
411220	21820 107 455 1412 20.328 21.750448909369 4 0.2 1 1.7 1.17
411221	21927 221 622 1882 20.529 23.766695270164 8 1 5 30 126
411222	22148 325 622 1882 20.529 23.766695270164 8 0 0.96153846010566 6.0892750658095 5.3637980535313
411223	22473 237 622 1882 20.529 23.766695270164 8 0.2 0.6 3.7 1.83
411224	22710 70 461 1443 20.33 21.834751155225 3 3 10 16 118
411225	22780 113 461 1443 20.33 21.834751155225 3 0.39999997615814 0.89285714179277 1.7665413096547 1.181570570047
411226	22893 75 461 1443 20.33 21.834751155225 3 0.3 1.1 1.8 1.46
411227	22968 101 248 1494 20.131 21.944799989635 4 1 9 16 102
411228	23069 161 248 1494 20.131 21.944799989635 4 0.39999997615814 0.89473684132099 2.9657045602798 2.3591388055659
411229	23230 107 248 1494 20.131 21.944799989635 4 0.1 1 1.9 1.35
411230	23337 42 254 1163 20.132 21.332 2 1 11 12 122
411231	23379 71 254 1163 20.132 21.332 2 0.35294115543365 0.79999999701977 1.1529411524534 0.76456745443047
411232	23450 45 254 1163 20.132 21.332 2 0.1 1.2 1.3 1.45
411233	23495 69 370 973 20.233 21.040194251362 3 1 5 8 30
411234	23564 103 370 973 20.233 21.040194251362 3 0.375 0.90909090638161 1.8840909004211 1.3270712689132
411235	23667 75 370 973 20.233 21.040194251362 3 0.2 0.6 1 0.44
411236	23742 70 260 1288 20.134 21.537328277333 3 1 8 13 81
411237	23812 115 260 1288 20.134 21.537328277333 3 0.19999998807907 0.79999999701977 1.5999999791384 1.0399999833107
411238	23927 76 260 1288 20.134 21.537328277333 3 0.1 0.9 1.5 1.07
411239	24003 99 138 1175 20.035 21.342179394061 4 0 7 10 54
411240	24102 133 138 1175 20.035 21.342179394061 4 0.125 1 2.9229797944427 2.6321947313841
411241	24235 105 138 1175 20.035 21.342179394061 4 0 0.8 1.3 0.77
411242	24340 69 473 858 20.336 20.844546098517 3 1 3 6 14
411243	24409 103 473 858 20.336 20.844546098517 3 0.39999997615814 0.875 1.8749999701977 1.285624973774
411244	24512 75 473 858 20.336 20.844546098517 3 0.2 0.3 0.8 0.22
411245	24587 69 268 771 20.137 20.737688139791 3 1 2 5 9
411246	24656 114 268 771 20.137 20.737688139791 3 0.59999999403954 0.79999999701977 1.9999999850988 1.3599999809265
411247	24770 75 268 771 20.137 20.737688139791 3 0.1 0.3 0.7 0.19
411248	24845 219 380 1821 20.238 23.254186415713 8 1 5 25 93
411249	25064 326 380 1821 20.238 23.254186415713 8 0.375 0.97297297231853 6.3621843438596 5.3727494893443
411250	25390 235 380 1821 20.238 23.254186415713 8 0.2 0.6 3.2 1.46
411251	25625 198 385 1714 20.239 22.575900382894 7 1 7 19 75
411252	25823 302 385 1714 20.239 22.575900382894 7 0.36363637447357 0.94285714253783 5.6120377928019 4.8146883469903
411253	26125 212 385 1714 20.239 22.575900382894 7 0.2 0.8 2.5 1.15
411254	26337 136 157 1675 20.04 22.463329704483 5 0 6 20 102
411255	26473 171 157 1675 20.04 22.463329704483 5 0 1 3.472483985126 3.0503214788724
411256	26644 144 157 1675 20.04 22.463329704483 5 0 0.7 2.4 1.46
411257	26788 191 390 1907 20.241 24.068962702882 7 2 13 34 256
411258	26979 293 390 1907 20.241 24.068962702882 7 0.38095235824585 0.95238095149398 5.5439930520952 4.6772390049404
411259	27272 204 390 1907 20.241 24.068962702882 7 0.2 1.4 4 3.26
411260	27476 160 481 1677 20.342 22.467165127346 6 1 6 19 79
411261	27636 240 481 1677 20.342 22.467165127346 6 0.39999997615814 0.97142857126892 4.5118292476982 3.7202600076558
411262	27876 172 481 1677 20.342 22.467165127346 6 0.2 0.7 2.4 1.16
411263	28048 42 277 1110 20.143 21.243 2 1 10 11 101
411264	28090 60 277 1110 20.143 21.243 2 0.375 0.79999999701977 1.1749999970198 0.78062499523163
411265	28150 45 277 1110 20.143 21.243 2 0.1 1.1 1.2 1.22
411266	28195 251 398 1949 20.244 24.876905107877 9 2 13 40 276
411267	28446 384 398 1949 20.244 24.876905107877 9 0.38095235824585 0.96296296268702 7.4328573122621 6.4604560027161
411268	28830 268 398 1949 20.244 24.876905107877 9 0.2 1.4 4.8 3.6
411269	29098 69 176 791 20.045 20.752481904726 3 0 3 5 13
411270	29167 86 176 791 20.045 20.752481904726 3 0.5 1 2.0999999940395 1.6099999928474
411271	29253 73 176 791 20.045 20.752481904726 3 0 0.4 0.7 0.25
411272	29326 220 406 1923 20.246 24.275678170978 8 2 8 35 209
411273	29546 340 406 1923 20.246 24.275678170978 8 0.41666668653488 0.95652173832059 6.3496168963611 5.2885450467547
411274	29886 236 406 1923 20.246 24.275678170978 8 0.2 0.9 4.2 2.82
411275	30122 220 286 1861 20.147 23.563715569562 8 1 6 28 120
411276	30342 328 286 1861 20.147 23.563715569562 8 0.25 0.96969696879387 6.406617462635 5.5041737976881
411277	30670 236 286 1861 20.147 23.563715569562 8 0.1 0.7 3.5 1.81
411278	30906 131 577 1672 20.448 22.462233692375 5 3 7 20 92
411279	31037 206 577 1672 20.448 22.462233692375 5 0.19999998807907 0.91891892254353 3.4733879566193 2.7915728791675
411280	31243 141 577 1672 20.448 22.462233692375 5 0.4 0.8 2.4 1.28
411281	31384 71 649 1358 20.549 21.657332883759 3 4 5 14 66
411282	31455 101 649 1358 20.549 21.657332883759 3 0 0.80952380597591 1.4761904627085 1.0997732236407
411283	31556 77 649 1358 20.549 21.657332883759 3 0.5 0.6 1.6 0.86
411284	31633 98 293 1755 20.15 22.767378018916 4 1 14 24 250
411285	31731 157 293 1755 20.15 22.767378018916 4 0.30000001192093 0.95348837226629 2.6751099899411 2.0255535028764
411286	31888 105 293 1755 20.15 22.767378018916 4 0.1 1.5 2.7 2.99
414137	31993 1026 11 190 20 20.05 51 0 49 1225 40425
