file 11759 1369522281                                           
version 2
run Stability2-53-20130526-00:51:21-26640
attr configname Stability2
attr datetime 20130526-00:51:21
attr experiment Stability2
attr inifile omnetpp.ini
attr iterationvars $0=20
attr iterationvars2 "$0=20, $repetition=23"
attr measurement $0=20
attr network Network
attr processid 26640
attr repetition 23
attr replication #23
attr resultdir results
attr runnumber 53
attr seedset 53

vector 162053  Network.churner  inGoingSizeSig:vector  ETV
vector 159080  Network.dyn_peer[9]  lookupHopsSig:vector  ETV
vector 159081  Network.dyn_peer[9]  lookupStabilitySig:vector  ETV
vector 159082  Network.dyn_peer[9]  lookupTimeSig:vector  ETV
vector 159083  Network.dyn_peer[10]  lookupHopsSig:vector  ETV
vector 159084  Network.dyn_peer[10]  lookupStabilitySig:vector  ETV
vector 159085  Network.dyn_peer[10]  lookupTimeSig:vector  ETV
vector 159104  Network.dyn_peer[17]  lookupHopsSig:vector  ETV
vector 159105  Network.dyn_peer[17]  lookupStabilitySig:vector  ETV
vector 159106  Network.dyn_peer[17]  lookupTimeSig:vector  ETV
vector 159065  Network.dyn_peer[4]  lookupHopsSig:vector  ETV
vector 159066  Network.dyn_peer[4]  lookupStabilitySig:vector  ETV
vector 159067  Network.dyn_peer[4]  lookupTimeSig:vector  ETV
vector 159071  Network.dyn_peer[6]  lookupHopsSig:vector  ETV
vector 159072  Network.dyn_peer[6]  lookupStabilitySig:vector  ETV
vector 159073  Network.dyn_peer[6]  lookupTimeSig:vector  ETV
vector 159110  Network.dyn_peer[19]  lookupHopsSig:vector  ETV
vector 159111  Network.dyn_peer[19]  lookupStabilitySig:vector  ETV
vector 159112  Network.dyn_peer[19]  lookupTimeSig:vector  ETV
vector 159056  Network.dyn_peer[1]  lookupHopsSig:vector  ETV
vector 159057  Network.dyn_peer[1]  lookupStabilitySig:vector  ETV
vector 159058  Network.dyn_peer[1]  lookupTimeSig:vector  ETV
vector 159062  Network.dyn_peer[3]  lookupHopsSig:vector  ETV
vector 159063  Network.dyn_peer[3]  lookupStabilitySig:vector  ETV
vector 159064  Network.dyn_peer[3]  lookupTimeSig:vector  ETV
vector 159068  Network.dyn_peer[5]  lookupHopsSig:vector  ETV
vector 159069  Network.dyn_peer[5]  lookupStabilitySig:vector  ETV
vector 159070  Network.dyn_peer[5]  lookupTimeSig:vector  ETV
vector 159074  Network.dyn_peer[7]  lookupHopsSig:vector  ETV
vector 159075  Network.dyn_peer[7]  lookupStabilitySig:vector  ETV
vector 159076  Network.dyn_peer[7]  lookupTimeSig:vector  ETV
vector 159077  Network.dyn_peer[8]  lookupHopsSig:vector  ETV
vector 159078  Network.dyn_peer[8]  lookupStabilitySig:vector  ETV
vector 159079  Network.dyn_peer[8]  lookupTimeSig:vector  ETV
vector 159089  Network.dyn_peer[12]  lookupHopsSig:vector  ETV
vector 159090  Network.dyn_peer[12]  lookupStabilitySig:vector  ETV
vector 159091  Network.dyn_peer[12]  lookupTimeSig:vector  ETV
vector 159101  Network.dyn_peer[16]  lookupHopsSig:vector  ETV
vector 159102  Network.dyn_peer[16]  lookupStabilitySig:vector  ETV
vector 159103  Network.dyn_peer[16]  lookupTimeSig:vector  ETV
vector 159053  Network.dyn_peer[0]  lookupHopsSig:vector  ETV
vector 159054  Network.dyn_peer[0]  lookupStabilitySig:vector  ETV
vector 159055  Network.dyn_peer[0]  lookupTimeSig:vector  ETV
vector 159059  Network.dyn_peer[2]  lookupHopsSig:vector  ETV
vector 159060  Network.dyn_peer[2]  lookupStabilitySig:vector  ETV
vector 159061  Network.dyn_peer[2]  lookupTimeSig:vector  ETV
vector 159086  Network.dyn_peer[11]  lookupHopsSig:vector  ETV
vector 159087  Network.dyn_peer[11]  lookupStabilitySig:vector  ETV
vector 159088  Network.dyn_peer[11]  lookupTimeSig:vector  ETV
vector 159098  Network.dyn_peer[15]  lookupHopsSig:vector  ETV
vector 159099  Network.dyn_peer[15]  lookupStabilitySig:vector  ETV
vector 159100  Network.dyn_peer[15]  lookupTimeSig:vector  ETV
vector 159092  Network.dyn_peer[13]  lookupHopsSig:vector  ETV
vector 159093  Network.dyn_peer[13]  lookupStabilitySig:vector  ETV
vector 159094  Network.dyn_peer[13]  lookupTimeSig:vector  ETV
vector 159095  Network.dyn_peer[14]  lookupHopsSig:vector  ETV
vector 159096  Network.dyn_peer[14]  lookupStabilitySig:vector  ETV
vector 159097  Network.dyn_peer[14]  lookupTimeSig:vector  ETV
vector 159107  Network.dyn_peer[18]  lookupHopsSig:vector  ETV
vector 159108  Network.dyn_peer[18]  lookupStabilitySig:vector  ETV
vector 159109  Network.dyn_peer[18]  lookupTimeSig:vector  ETV
159053	4304 77 190 500 20.301 21.209127035749 3 1 6 10 46
159054	4381 122 190 500 20.301 21.209127035749 3 0.39999997615814 0.79999999701977 1.6545454114676 1.0066115316281
159055	4503 83 190 500 20.301 21.209127035749 3 0.2 0.7 1.2 0.62
159056	4586 98 131 502 20.202 21.209629602848 4 1 4 9 25
159057	4684 145 131 502 20.202 21.209629602848 4 0.5 0.91666666418314 2.6166666522622 1.8102777589195
159058	4829 106 131 502 20.202 21.209629602848 4 0.2 0.5 1.2 0.42
159059	4935 98 196 547 20.303 21.413229012088 4 1 6 11 47
159060	5033 145 196 547 20.303 21.413229012088 4 0.25 0.9411764703691 2.5002673529088 1.9347594053687
159061	5178 106 196 547 20.303 21.413229012088 4 0.2 0.7 1.4 0.66
159062	5284 107 137 565 20.204 21.519408220934 4 2 6 12 48
159063	5391 167 137 565 20.204 21.519408220934 4 0.14285713434219 0.89999999850988 2.4890109673142 1.9063844726597
159064	5558 115 137 565 20.204 21.519408220934 4 0.2 0.7 1.5 0.71
159065	5673 97 99 423 20.105 20.917490724857 4 1 2 6 10
159066	5770 157 99 423 20.105 20.917490724857 4 0.59999999403954 0.85714285075665 2.9238094985485 2.1791382858813
159067	5927 105 99 423 20.105 20.917490724857 4 0.1 0.3 0.9 0.23
159068	6032 69 143 448 20.206 21.009668778543 3 2 3 8 22
159069	6101 103 143 448 20.206 21.009668778543 3 0.39999997615814 0.625 1.6249999701977 0.91062497377396
159070	6204 75 143 448 20.206 21.009668778543 3 0.2 0.4 1 0.36
159071	6279 98 105 509 20.107 21.217477661385 4 1 4 9 27
159072	6377 158 105 509 20.107 21.217477661385 4 0.19999998807907 0.92307692021132 2.5897435620427 1.976515422289
159073	6535 106 105 509 20.107 21.217477661385 4 0.1 0.5 1.2 0.46
159074	6641 97 149 536 20.208 21.31833583254 4 2 3 10 26
159075	6738 157 149 536 20.208 21.31833583254 4 0.39999997615814 0.79999999701977 2.5142856687307 1.6702040323919
159076	6895 105 149 536 20.208 21.31833583254 4 0.2 0.4 1.3 0.45
159077	7000 105 154 569 20.209 21.52756398507 4 2 6 12 48
159078	7105 165 154 569 20.209 21.52756398507 4 0.14285713434219 0.90909090638161 2.50909088552 1.9415482963489
159079	7270 113 154 569 20.209 21.52756398507 4 0.2 0.7 1.5 0.71
159080	7383 95 45 462 20.01 21.019371054854 4 0 5 7 27
159081	7478 140 45 462 20.01 21.019371054854 4 0.16666668653488 1 2.8555555716157 2.4579012349505
159082	7618 101 45 462 20.01 21.019371054854 4 0 0.6 1 0.44
159083	7719 106 52 543 20.011 21.334070412842 4 0 5 10 42
159084	7825 141 52 543 20.011 21.334070412842 4 0.33333331346512 1 2.8208333104849 2.2237673430973
159085	7966 112 52 543 20.011 21.334070412842 4 0 0.6 1.3 0.65
159086	8078 69 207 514 20.312 21.219707340165 3 2 5 10 38
159087	8147 114 207 514 20.312 21.219707340165 3 0.28571426868439 0.84615384042263 1.5318680852652 0.95760894591833
159088	8261 75 207 514 20.312 21.219707340165 3 0.3 0.6 1.2 0.54
159089	8336 69 164 323 20.213 20.618512435438 3 1 2 4 6
159090	8405 114 164 323 20.213 20.618512435438 3 0.59999999403954 0.79999999701977 2.1999999880791 1.6399999833107
159091	8519 75 164 323 20.213 20.618512435438 3 0.2 0.2 0.6 0.12
159092	8594 98 275 554 20.514 21.431802943994 4 1 5 11 43
159093	8692 143 275 554 20.514 21.431802943994 4 0 0.94444444403052 2.428571421653 2.0628621715186
159094	8835 106 275 554 20.514 21.431802943994 4 0.2 0.5 1.4 0.58
159095	8941 185 314 602 20.615 22.643384610288 7 1 6 20 76
159096	9126 291 314 602 20.615 22.643384610288 7 -0.20000004768372 0.95833333209157 4.9528984874487 4.5557269953585
159097	9417 199 314 602 20.615 22.643384610288 7 0.2 0.6 2.6 1.1
159098	9616 98 245 563 20.416 21.518926725402 4 2 4 12 40
159099	9714 158 245 563 20.416 21.518926725402 4 0.19999998807907 0.79999999701977 2.4444444179535 1.7293826906917
159100	9872 106 245 563 20.416 21.518926725402 4 0.3 0.5 1.5 0.59
159101	9978 127 173 556 20.217 21.433887935062 5 1 3 10 22
159102	10105 191 173 556 20.217 21.433887935062 5 0.59999999403954 0.94444444403052 3.6361110918224 2.7537113926127
159103	10296 137 173 556 20.217 21.433887935062 5 0.2 0.4 1.4 0.42
159104	10433 68 81 395 20.018 20.822629345987 3 0 5 6 26
159105	10501 83 81 395 20.018 20.822629345987 3 0 1 1.8333333283663 1.694444436166
159106	10584 72 81 395 20.018 20.822629345987 3 0 0.6 0.8 0.4
159107	10656 126 328 590 20.619 22.05051789105 5 1 6 16 66
159108	10782 186 328 590 20.619 22.05051789105 5 0 0.86956521868706 3.3471673130989 2.8024292388361
159109	10968 136 328 590 20.619 22.05051789105 5 0.2 0.6 2 0.9
159110	11104 67 122 487 20.12 21.122459792941 3 1 5 9 35
159111	11171 112 122 487 20.12 21.122459792941 3 0.16666668653488 0.79999999701977 1.6666666716337 1.1577777629428
159112	11283 73 122 487 20.12 21.122459792941 3 0.1 0.6 1.1 0.53
162053	11356 403 11 85 20 20.02 21 0 19 190 2470
