version 2
run Stability2-113-20130526-00:51:41-26640
attr configname Stability2
attr datetime 20130526-00:51:41
attr experiment Stability2
attr inifile omnetpp.ini
attr iterationvars $0=40
attr iterationvars2 "$0=40, $repetition=23"
attr measurement $0=40
attr network Network
attr processid 26640
attr repetition 23
attr replication #23
attr resultdir results
attr runnumber 113
attr seedset 113

vector 342113  Network.churner  inGoingSizeSig:vector  ETV
vector 339119  Network.dyn_peer[2]  lookupHopsSig:vector  ETV
vector 339120  Network.dyn_peer[2]  lookupStabilitySig:vector  ETV
vector 339121  Network.dyn_peer[2]  lookupTimeSig:vector  ETV
vector 339176  Network.dyn_peer[21]  lookupHopsSig:vector  ETV
vector 339177  Network.dyn_peer[21]  lookupStabilitySig:vector  ETV
vector 339178  Network.dyn_peer[21]  lookupTimeSig:vector  ETV
vector 339113  Network.dyn_peer[0]  lookupHopsSig:vector  ETV
vector 339114  Network.dyn_peer[0]  lookupStabilitySig:vector  ETV
vector 339115  Network.dyn_peer[0]  lookupTimeSig:vector  ETV
vector 339116  Network.dyn_peer[1]  lookupHopsSig:vector  ETV
vector 339117  Network.dyn_peer[1]  lookupStabilitySig:vector  ETV
vector 339118  Network.dyn_peer[1]  lookupTimeSig:vector  ETV
vector 339125  Network.dyn_peer[4]  lookupHopsSig:vector  ETV
vector 339126  Network.dyn_peer[4]  lookupStabilitySig:vector  ETV
vector 339127  Network.dyn_peer[4]  lookupTimeSig:vector  ETV
vector 339134  Network.dyn_peer[7]  lookupHopsSig:vector  ETV
vector 339135  Network.dyn_peer[7]  lookupStabilitySig:vector  ETV
vector 339136  Network.dyn_peer[7]  lookupTimeSig:vector  ETV
vector 339155  Network.dyn_peer[14]  lookupHopsSig:vector  ETV
vector 339156  Network.dyn_peer[14]  lookupStabilitySig:vector  ETV
vector 339157  Network.dyn_peer[14]  lookupTimeSig:vector  ETV
vector 339161  Network.dyn_peer[16]  lookupHopsSig:vector  ETV
vector 339162  Network.dyn_peer[16]  lookupStabilitySig:vector  ETV
vector 339163  Network.dyn_peer[16]  lookupTimeSig:vector  ETV
vector 339185  Network.dyn_peer[24]  lookupHopsSig:vector  ETV
vector 339186  Network.dyn_peer[24]  lookupStabilitySig:vector  ETV
vector 339187  Network.dyn_peer[24]  lookupTimeSig:vector  ETV
vector 339203  Network.dyn_peer[30]  lookupHopsSig:vector  ETV
vector 339204  Network.dyn_peer[30]  lookupStabilitySig:vector  ETV
vector 339205  Network.dyn_peer[30]  lookupTimeSig:vector  ETV
vector 339221  Network.dyn_peer[36]  lookupHopsSig:vector  ETV
vector 339222  Network.dyn_peer[36]  lookupStabilitySig:vector  ETV
vector 339223  Network.dyn_peer[36]  lookupTimeSig:vector  ETV
vector 339128  Network.dyn_peer[5]  lookupHopsSig:vector  ETV
vector 339129  Network.dyn_peer[5]  lookupStabilitySig:vector  ETV
vector 339130  Network.dyn_peer[5]  lookupTimeSig:vector  ETV
vector 339131  Network.dyn_peer[6]  lookupHopsSig:vector  ETV
vector 339132  Network.dyn_peer[6]  lookupStabilitySig:vector  ETV
vector 339133  Network.dyn_peer[6]  lookupTimeSig:vector  ETV
vector 339137  Network.dyn_peer[8]  lookupHopsSig:vector  ETV
vector 339138  Network.dyn_peer[8]  lookupStabilitySig:vector  ETV
vector 339139  Network.dyn_peer[8]  lookupTimeSig:vector  ETV
vector 339140  Network.dyn_peer[9]  lookupHopsSig:vector  ETV
vector 339141  Network.dyn_peer[9]  lookupStabilitySig:vector  ETV
vector 339142  Network.dyn_peer[9]  lookupTimeSig:vector  ETV
vector 339152  Network.dyn_peer[13]  lookupHopsSig:vector  ETV
vector 339153  Network.dyn_peer[13]  lookupStabilitySig:vector  ETV
vector 339154  Network.dyn_peer[13]  lookupTimeSig:vector  ETV
vector 339173  Network.dyn_peer[20]  lookupHopsSig:vector  ETV
vector 339174  Network.dyn_peer[20]  lookupStabilitySig:vector  ETV
vector 339175  Network.dyn_peer[20]  lookupTimeSig:vector  ETV
vector 339191  Network.dyn_peer[26]  lookupHopsSig:vector  ETV
vector 339192  Network.dyn_peer[26]  lookupStabilitySig:vector  ETV
vector 339193  Network.dyn_peer[26]  lookupTimeSig:vector  ETV
vector 339206  Network.dyn_peer[31]  lookupHopsSig:vector  ETV
vector 339207  Network.dyn_peer[31]  lookupStabilitySig:vector  ETV
vector 339208  Network.dyn_peer[31]  lookupTimeSig:vector  ETV
vector 339164  Network.dyn_peer[17]  lookupHopsSig:vector  ETV
vector 339165  Network.dyn_peer[17]  lookupStabilitySig:vector  ETV
vector 339166  Network.dyn_peer[17]  lookupTimeSig:vector  ETV
vector 339167  Network.dyn_peer[18]  lookupHopsSig:vector  ETV
vector 339168  Network.dyn_peer[18]  lookupStabilitySig:vector  ETV
vector 339169  Network.dyn_peer[18]  lookupTimeSig:vector  ETV
vector 339170  Network.dyn_peer[19]  lookupHopsSig:vector  ETV
vector 339171  Network.dyn_peer[19]  lookupStabilitySig:vector  ETV
vector 339172  Network.dyn_peer[19]  lookupTimeSig:vector  ETV
vector 339182  Network.dyn_peer[23]  lookupHopsSig:vector  ETV
vector 339183  Network.dyn_peer[23]  lookupStabilitySig:vector  ETV
vector 339184  Network.dyn_peer[23]  lookupTimeSig:vector  ETV
vector 339224  Network.dyn_peer[37]  lookupHopsSig:vector  ETV
vector 339225  Network.dyn_peer[37]  lookupStabilitySig:vector  ETV
vector 339226  Network.dyn_peer[37]  lookupTimeSig:vector  ETV
vector 339230  Network.dyn_peer[39]  lookupHopsSig:vector  ETV
vector 339231  Network.dyn_peer[39]  lookupStabilitySig:vector  ETV
vector 339232  Network.dyn_peer[39]  lookupTimeSig:vector  ETV
vector 339122  Network.dyn_peer[3]  lookupHopsSig:vector  ETV
vector 339123  Network.dyn_peer[3]  lookupStabilitySig:vector  ETV
vector 339124  Network.dyn_peer[3]  lookupTimeSig:vector  ETV
vector 339143  Network.dyn_peer[10]  lookupHopsSig:vector  ETV
vector 339144  Network.dyn_peer[10]  lookupStabilitySig:vector  ETV
vector 339145  Network.dyn_peer[10]  lookupTimeSig:vector  ETV
vector 339146  Network.dyn_peer[11]  lookupHopsSig:vector  ETV
vector 339147  Network.dyn_peer[11]  lookupStabilitySig:vector  ETV
vector 339148  Network.dyn_peer[11]  lookupTimeSig:vector  ETV
vector 339179  Network.dyn_peer[22]  lookupHopsSig:vector  ETV
vector 339180  Network.dyn_peer[22]  lookupStabilitySig:vector  ETV
vector 339181  Network.dyn_peer[22]  lookupTimeSig:vector  ETV
vector 339197  Network.dyn_peer[28]  lookupHopsSig:vector  ETV
vector 339198  Network.dyn_peer[28]  lookupStabilitySig:vector  ETV
vector 339199  Network.dyn_peer[28]  lookupTimeSig:vector  ETV
vector 339194  Network.dyn_peer[27]  lookupHopsSig:vector  ETV
vector 339195  Network.dyn_peer[27]  lookupStabilitySig:vector  ETV
vector 339196  Network.dyn_peer[27]  lookupTimeSig:vector  ETV
vector 339215  Network.dyn_peer[34]  lookupHopsSig:vector  ETV
vector 339216  Network.dyn_peer[34]  lookupStabilitySig:vector  ETV
vector 339217  Network.dyn_peer[34]  lookupTimeSig:vector  ETV
vector 339149  Network.dyn_peer[12]  lookupHopsSig:vector  ETV
vector 339150  Network.dyn_peer[12]  lookupStabilitySig:vector  ETV
vector 339151  Network.dyn_peer[12]  lookupTimeSig:vector  ETV
vector 339158  Network.dyn_peer[15]  lookupHopsSig:vector  ETV
vector 339159  Network.dyn_peer[15]  lookupStabilitySig:vector  ETV
vector 339160  Network.dyn_peer[15]  lookupTimeSig:vector  ETV
vector 339188  Network.dyn_peer[25]  lookupHopsSig:vector  ETV
vector 339189  Network.dyn_peer[25]  lookupStabilitySig:vector  ETV
vector 339190  Network.dyn_peer[25]  lookupTimeSig:vector  ETV
vector 339227  Network.dyn_peer[38]  lookupHopsSig:vector  ETV
vector 339228  Network.dyn_peer[38]  lookupStabilitySig:vector  ETV
vector 339229  Network.dyn_peer[38]  lookupTimeSig:vector  ETV
vector 339212  Network.dyn_peer[33]  lookupHopsSig:vector  ETV
vector 339213  Network.dyn_peer[33]  lookupStabilitySig:vector  ETV
vector 339214  Network.dyn_peer[33]  lookupTimeSig:vector  ETV
vector 339200  Network.dyn_peer[29]  lookupHopsSig:vector  ETV
vector 339201  Network.dyn_peer[29]  lookupStabilitySig:vector  ETV
vector 339202  Network.dyn_peer[29]  lookupTimeSig:vector  ETV
vector 339209  Network.dyn_peer[32]  lookupHopsSig:vector  ETV
vector 339210  Network.dyn_peer[32]  lookupStabilitySig:vector  ETV
vector 339211  Network.dyn_peer[32]  lookupTimeSig:vector  ETV
vector 339218  Network.dyn_peer[35]  lookupHopsSig:vector  ETV
vector 339219  Network.dyn_peer[35]  lookupStabilitySig:vector  ETV
vector 339220  Network.dyn_peer[35]  lookupTimeSig:vector  ETV
339113	150	20.101	1
339113	634	20.801	6
339113	932	21.306696861876	4
339113	1063	21.607612116812	2
339113	1133	21.814213688681	1
339114	150	20.101	0.79999999701977
339114	634	20.801	0
339114	932	21.306696861876	0.78947368264198
339114	1063	21.607612116812	0.92307692021132
339114	1133	21.814213688681	0.96551724150777
339115	150	20.101	0.1
339115	634	20.801	0.7
339115	932	21.306696861876	0.5
339115	1063	21.607612116812	0.3
339115	1133	21.814213688681	0.2
339116	155	20.102	1
339116	306	20.302	1
339116	513	20.611041913056	2
339116	770	21.015246384998	3
339116	1058	21.542120483255	3
339116	1206	22.052107339278	4
339117	155	20.102	0.79999999701977
339117	306	20.302	0.79999999701977
339117	513	20.611041913056	0.66666665673256
339117	770	21.015246384998	0.75
339117	1058	21.542120483255	0.88461538404226
339117	1206	22.052107339278	0.8823529407382
339118	155	20.102	0.1
339118	306	20.302	0.2
339118	513	20.611041913056	0.3
339118	770	21.015246384998	0.4
339118	1058	21.542120483255	0.4
339118	1206	22.052107339278	0.5
339119	24	20.003	0
339119	636	20.803	7
339120	24	20.003	1
339120	636	20.803	-0.16666662693024
339121	24	20.003	0
339121	636	20.803	0.8
339122	381	20.404	4
339122	824	21.115229291382	6
339123	381	20.404	0.19999998807907
339123	824	21.115229291382	0.53846153616905
339124	381	20.404	0.4
339124	824	21.115229291382	0.7
339125	162	20.105	1
339125	383	20.405	2
339125	589	20.714882055658	2
339125	726	20.922948749903	1
339126	162	20.105	0.79999999701977
339126	383	20.405	0.59999999403954
339126	589	20.714882055658	0.66666665673256
339126	726	20.922948749903	0.89999999850988
339127	162	20.105	0.1
339127	383	20.405	0.3
339127	589	20.714882055658	0.3
339127	726	20.922948749903	0.2
339128	234	20.206	2
339128	579	20.706	4
339128	699	20.907624906423	1
339129	234	20.206	0.59999999403954
339129	579	20.706	0.33333331346512
339129	699	20.907624906423	0.88888888806105
339130	234	20.206	0.2
339130	579	20.706	0.5
339130	699	20.907624906423	0.2
339131	239	20.207	2
339131	817	21.107	8
339131	973	21.409753798291	2
339132	239	20.207	0.59999999403954
339132	817	21.107	0.38461536169052
339132	973	21.409753798291	0.89999999850988
339133	239	20.207	0.2
339133	817	21.107	0.9
339133	973	21.409753798291	0.3
339134	169	20.108	1
339134	641	20.808	6
339134	1026	21.514342247254	6
339134	1163	21.918279414863	3
339134	1230	22.226456902883	2
339134	1275	22.63462775458	3
339135	169	20.108	0.79999999701977
339135	641	20.808	0
339135	1026	21.514342247254	0.75
339135	1163	21.918279414863	0.90322580933571
339135	1230	22.226456902883	0.9473684206605
339135	1275	22.63462775458	0.92682927101851
339136	169	20.108	0.1
339136	641	20.808	0.7
339136	1026	21.514342247254	0.7
339136	1163	21.918279414863	0.4
339136	1230	22.226456902883	0.3
339136	1275	22.63462775458	0.4
339137	245	20.209	2
339137	508	20.609	3
339137	982	21.417993726652	7
339137	1107	21.720149646737	2
339138	245	20.209	0.59999999403954
339138	508	20.609	0.5
339138	982	21.417993726652	0.65000000596046
339138	1107	21.720149646737	0.92592592537403
339139	245	20.209	0.2
339139	508	20.609	0.4
339139	982	21.417993726652	0.8
339139	1107	21.720149646737	0.3
339140	251	20.21	2
339140	764	21.01	7
339140	977	21.416093355317	3
339140	1161	21.916892402327	4
339141	251	20.21	0.59999999403954
339141	764	21.01	0.41666668653488
339141	977	21.416093355317	0.84999999403954
339141	1161	21.916892402327	0.86666665971279
339142	251	20.21	0.2
339142	764	21.01	0.8
339142	977	21.416093355317	0.4
339142	1161	21.916892402327	0.5
339143	394	20.411	4
339143	511	20.611	1
339143	656	20.817921306191	1
339143	836	21.120587970095	2
339144	394	20.411	0.19999998807907
339144	511	20.611	0.83333332836628
339144	656	20.817921306191	0.85714285075665
339144	836	21.120587970095	0.84615384042263
339145	394	20.411	0.4
339145	511	20.611	0.2
339145	656	20.817921306191	0.2
339145	836	21.120587970095	0.3
339146	400	20.412	4
339146	702	20.912	4
339146	886	21.215906480236	2
339146	1033	21.524676734252	2
339146	1197	22.031983092535	4
339147	400	20.412	0.19999998807907
339147	702	20.912	0.59999999403954
339147	886	21.215906480236	0.875
339147	1033	21.524676734252	0.91666666418314
339147	1197	22.031983092535	0.87878787517548
339148	400	20.412	0.4
339148	702	20.912	0.5
339148	886	21.215906480236	0.3
339148	1033	21.524676734252	0.3
339148	1197	22.031983092535	0.5
339149	519	20.613	6
339149	1065	21.613	9
339150	519	20.613	0
339150	1065	21.613	0.65384614467621
339151	519	20.613	0.6
339151	1065	21.613	1
339152	260	20.214	2
339152	706	20.914	6
339152	828	21.116303673396	1
339152	996	21.425167339129	2
339152	1116	21.73010802959	2
339152	1233	22.230179358009	4
339153	260	20.214	0.59999999403954
339153	706	20.914	0.39999997615814
339153	828	21.116303673396	0.92307692021132
339153	996	21.425167339129	0.90909090638161
339153	1116	21.73010802959	0.93103448301554
339153	1233	22.230179358009	0.89473684132099
339154	260	20.214	0.2
339154	706	20.914	0.7
339154	828	21.116303673396	0.2
339154	996	21.425167339129	0.3
339154	1116	21.73010802959	0.3
339154	1233	22.230179358009	0.5
339155	180	20.115	1
339155	709	20.915	7
339155	980	21.417689135943	4
339156	180	20.115	0.79999999701977
339156	709	20.915	0.30000001192093
339156	980	21.417689135943	0.79999999701977
339157	180	20.115	0.1
339157	709	20.915	0.8
339157	980	21.417689135943	0.5
339158	530	20.616	6
339158	653	20.816	1
339158	984	21.418199461676	5
339158	1109	21.720639170364	2
339159	530	20.616	0
339159	653	20.816	0.85714285075665
339159	984	21.418199461676	0.75
339159	1109	21.720639170364	0.92857142537832
339160	530	20.616	0.6
339160	653	20.816	0.2
339160	984	21.418199461676	0.6
339160	1109	21.720639170364	0.3
339161	186	20.117	1
339161	939	21.317	11
339162	186	20.117	0.79999999701977
339162	939	21.317	0.42105263471603
339163	186	20.117	0.1
339163	939	21.317	1.2
339164	328	20.318	3
339164	659	20.818	4
339164	898	21.223954980114	3
339164	994	21.424744801781	1
339165	328	20.318	0.39999997615814
339165	659	20.818	0.42857140302658
339165	898	21.223954980114	0.8125
339165	994	21.424744801781	0.9545454531908
339166	328	20.318	0.3
339166	659	20.818	0.5
339166	898	21.223954980114	0.4
339166	994	21.424744801781	0.2
339167	334	20.319	3
339167	720	20.919	5
339167	896	21.22279822838	2
339167	1081	21.630969378722	3
339167	1237	22.239070347633	5
339168	334	20.319	0.39999997615814
339168	720	20.919	0.5
339168	896	21.22279822838	0.875
339168	1081	21.630969378722	0.88888888806105
339168	1237	22.239070347633	0.87179486453533
339169	334	20.319	0.3
339169	720	20.919	0.6
339169	896	21.22279822838	0.3
339169	1081	21.630969378722	0.4
339169	1237	22.239070347633	0.6
339170	339	20.32	3
339170	538	20.62	2
339170	947	21.321538522902	6
339170	1114	21.729681475299	3
339170	1172	21.931535041552	1
339171	339	20.32	0.39999997615814
339171	538	20.62	0.66666665673256
339171	947	21.321538522902	0.69999998807907
339171	1114	21.729681475299	0.89655172079802
339171	1172	21.931535041552	0.96774193644524
339172	339	20.32	0.3
339172	538	20.62	0.3
339172	947	21.321538522902	0.7
339172	1114	21.729681475299	0.4
339172	1172	21.931535041552	0.2
339173	272	20.221	2
339173	850	21.13060756313	8
339173	1049	21.535418791136	3
339173	1178	21.936108741975	3
339173	1216	22.138884159518	1
339174	272	20.221	0.59999999403954
339174	850	21.13060756313	0.46666663885117
339174	1049	21.535418791136	0.875
339174	1178	21.936108741975	0.90322580933571
339174	1216	22.138884159518	0.97142857126892
339175	272	20.221	0.2
339175	850	21.13060756313	0.9
339175	1049	21.535418791136	0.4
339175	1178	21.936108741975	0.4
339175	1216	22.138884159518	0.2
339176	85	20.022	0
339176	550	20.628848469132	5
339176	860	21.133619890285	4
339176	1152	21.840356728271	6
339176	1222	22.145263066535	2
339177	85	20.022	1
339177	550	20.628848469132	0.16666668653488
339177	860	21.133619890285	0.73333331942558
339177	1152	21.840356728271	0.79999999701977
339177	1222	22.145263066535	0.94285714253783
339178	85	20.022	0
339178	550	20.628848469132	0.6
339178	860	21.133619890285	0.5
339178	1152	21.840356728271	0.7
339178	1222	22.145263066535	0.3
339179	417	20.423	4
339179	603	20.723	2
339179	904	21.2289437202	4
339180	417	20.423	0.19999998807907
339180	603	20.723	0.66666665673256
339180	904	21.2289437202	0.75
339181	417	20.423	0.4
339181	603	20.723	0.3
339181	904	21.2289437202	0.5
339182	345	20.324	3
339182	784	21.024	6
339182	1084	21.631938034567	5
339182	1180	21.936118523283	2
339182	1224	22.146072880991	1
339183	345	20.324	0.39999997615814
339183	784	21.024	0.53846153616905
339183	1084	21.631938034567	0.81481482088566
339183	1180	21.936118523283	0.93548387289047
339183	1224	22.146072880991	0.97142857126892
339184	345	20.324	0.3
339184	784	21.024	0.7
339184	1084	21.631938034567	0.6
339184	1180	21.936118523283	0.3
339184	1224	22.146072880991	0.2
339185	197	20.125	1
339185	420	20.425	2
339186	197	20.125	0.79999999701977
339186	420	20.425	0.59999999403954
339187	197	20.125	0.1
339187	420	20.425	0.3
339188	546	20.626	6
339188	1035	21.526	8
339188	1139	21.827601398212	2
339188	1256	22.431817275142	5
339188	1291	22.848850922197	3
339188	1304	23.14932875367	2
339189	546	20.626	0
339189	1035	21.526	0.66666665673256
339189	1139	21.827601398212	0.9333333298564
339189	1256	22.431817275142	0.87804877758026
339189	1291	22.848850922197	0.92857142537832
339189	1304	23.14932875367	0.95238095149398
339190	546	20.626	0.6
339190	1035	21.526	0.9
339190	1139	21.827601398212	0.3
339190	1256	22.431817275142	0.6
339190	1291	22.848850922197	0.4
339190	1304	23.14932875367	0.3
339191	282	20.227	2
339191	424	20.427	1
339191	679	20.831952367539	3
339192	282	20.227	0.59999999403954
339192	424	20.427	0.79999999701977
339192	679	20.831952367539	0.5714285671711
339193	282	20.227	0.2
339193	424	20.427	0.2
339193	679	20.831952367539	0.4
339194	478	20.528	5
339194	845	21.128	5
339194	961	21.334248724947	1
339194	1150	21.840273800438	4
339194	1246	22.343871559022	4
339194	1294	22.853304512469	4
339194	1312	23.358849499012	4
339195	478	20.528	0.16666668653488
339195	845	21.128	0.66666665673256
339195	961	21.334248724947	0.94999999925494
339195	1150	21.840273800438	0.86666665971279
339195	1246	22.343871559022	0.89999999850988
339195	1294	22.853304512469	0.90476190298796
339195	1312	23.358849499012	0.90909090638161
339196	478	20.528	0.5
339196	845	21.128	0.6
339196	961	21.334248724947	0.2
339196	1150	21.840273800438	0.5
339196	1246	22.343871559022	0.5
339196	1294	22.853304512469	0.5
339196	1312	23.358849499012	0.5
339197	431	20.429	4
339197	789	21.029	5
339197	1005	21.431239371461	3
339198	431	20.429	0.19999998807907
339198	789	21.029	0.61538460850716
339198	1005	21.431239371461	0.86956521868706
339199	431	20.429	0.4
339199	789	21.029	0.6
339199	1005	21.431239371461	0.4
339200	795	21.03	10
339200	1078	21.63	5
339200	1170	21.931497292506	2
339201	795	21.03	0.23076921701431
339201	1078	21.63	0.81481482088566
339201	1170	21.931497292506	0.93548387289047
339202	795	21.03	1
339202	1078	21.63	0.6
339202	1170	21.931497292506	0.3
339203	209	20.131	1
339203	555	20.631	4
339203	738	20.93149541929	2
339203	912	21.2327759489	2
339204	209	20.131	0.79999999701977
339204	555	20.631	0.33333331346512
339204	738	20.93149541929	0.81818181276321
339204	912	21.2327759489	0.875
339205	209	20.131	0.1
339205	555	20.631	0.5
339205	738	20.93149541929	0.3
339205	912	21.2327759489	0.3
339206	294	20.232	2
339206	487	20.532	2
339206	753	20.941472559057	3
339206	876	21.145225712044	1
339207	294	20.232	0.59999999403954
339207	487	20.532	0.66666665673256
339207	753	20.941472559057	0.72727271914482
339207	876	21.145225712044	0.9333333298564
339208	294	20.232	0.2
339208	487	20.532	0.3
339208	753	20.941472559057	0.4
339208	876	21.145225712044	0.2
339209	858	21.133	11
339209	1044	21.533	3
339210	858	21.133	0.26666665077209
339210	1044	21.533	0.875
339211	858	21.133	1.1
339211	1044	21.533	0.4
339212	621	20.734	7
339212	1122	21.734	9
339212	1176	21.936038212718	1
339212	1220	22.144959041636	1
339212	1248	22.347966430048	1
339212	1269	22.553024087746	1
339212	1284	22.762898683324	1
339212	1308	23.177535609911	3
339213	621	20.734	-0.16666662693024
339213	1122	21.734	0.68965518474579
339213	1176	21.936038212718	0.96774193644524
339213	1220	22.144959041636	0.97142857126892
339213	1248	22.347966430048	0.97499999962747
339213	1269	22.553024087746	0.97560975700617
339213	1284	22.762898683324	0.97619047574699
339213	1308	23.177535609911	0.93023255467415
339214	621	20.734	0.7
339214	1122	21.734	1
339214	1176	21.936038212718	0.2
339214	1220	22.144959041636	0.2
339214	1248	22.347966430048	0.2
339214	1269	22.553024087746	0.2
339214	1284	22.762898683324	0.2
339214	1308	23.177535609911	0.4
339215	494	20.535	5
339215	864	21.135	5
339215	1093	21.640493181331	4
339215	1208	22.053547739829	3
339216	494	20.535	0.16666668653488
339216	864	21.135	0.66666665673256
339216	1093	21.640493181331	0.85185185074806
339216	1208	22.053547739829	0.91176470369101
339217	494	20.535	0.5
339217	864	21.135	0.6
339217	1093	21.640493181331	0.5
339217	1208	22.053547739829	0.4
339218	870	21.136	11
339218	1051	21.536	3
339219	870	21.136	0.26666665077209
339219	1051	21.536	0.875
339220	870	21.136	1.1
339220	1051	21.536	0.4
339221	220	20.137	1
339221	686	20.837	6
339221	811	21.046082238883	1
339221	929	21.255296195419	1
339222	220	20.137	0.79999999701977
339222	686	20.837	0.25
339222	811	21.046082238883	0.92307692021132
339222	929	21.255296195419	0.94444444403052
339223	220	20.137	0.1
339223	686	20.837	0.7
339223	811	21.046082238883	0.2
339223	929	21.255296195419	0.2
339224	367	20.338	3
339224	689	20.838	4
339225	367	20.338	0.39999997615814
339225	689	20.838	0.5
339226	367	20.338	0.3
339226	689	20.838	0.5
339227	572	20.639	6
339227	749	20.939	2
339227	923	21.241163945382	2
339227	1018	21.4456972395	1
339227	1096	21.646839297888	1
339227	1156	21.847095720518	1
339227	1251	22.348733468026	4
339228	572	20.639	0
339228	749	20.939	0.81818181276321
339228	923	21.241163945382	0.88888888806105
339228	1018	21.4456972395	0.95833333209157
339228	1096	21.646839297888	0.96296296268702
339228	1156	21.847095720518	0.9666666649282
339228	1251	22.348733468026	0.89999999850988
339229	572	20.639	0.6
339229	749	20.939	0.3
339229	923	21.241163945382	0.3
339229	1018	21.4456972395	0.2
339229	1096	21.646839297888	0.2
339229	1156	21.847095720518	0.2
339229	1251	22.348733468026	0.5
339230	373	20.34	3
339230	629	20.74	3
339230	757	20.945233584605	1
339231	373	20.34	0.39999997615814
339231	629	20.74	0.5
339231	757	20.945233584605	0.90909090638161
339232	373	20.34	0.3
339232	629	20.74	0.4
339232	757	20.945233584605	0.2
342113	11	20	0
342113	12	20.001	0
342113	15	20.002	1
342113	18	20.003	2
342113	25	20.004	3
342113	28	20.005	4
342113	31	20.006	5
342113	34	20.007	6
342113	37	20.008	7
342113	40	20.009	8
342113	43	20.01	9
342113	46	20.011	10
342113	49	20.012	11
342113	52	20.013	12
342113	55	20.014	13
342113	58	20.015	14
342113	61	20.016	15
342113	64	20.017	16
342113	67	20.018	17
342113	70	20.019	18
342113	73	20.02	19
342113	76	20.021	20
342113	79	20.022	21
342113	86	20.023	22
342113	89	20.024	23
342113	92	20.025	24
342113	95	20.026	25
342113	99	20.027	26
342113	103	20.028	27
342113	107	20.029	28
342113	110	20.03	29
342113	113	20.031	30
342113	118	20.032	31
342113	121	20.033	32
342113	124	20.034	33
342113	127	20.035	34
342113	130	20.036	35
342113	133	20.037	36
342113	136	20.038	37
342113	139	20.039	38
342113	142	20.04	39
