version 2
run Stability2-15-20130526-00:51:11-26640
attr configname Stability2
attr datetime 20130526-00:51:11
attr experiment Stability2
attr inifile omnetpp.ini
attr iterationvars $0=10
attr iterationvars2 "$0=10, $repetition=15"
attr measurement $0=10
attr network Network
attr processid 26640
attr repetition 15
attr replication #15
attr resultdir results
attr runnumber 15
attr seedset 15

vector 48015  Network.churner  inGoingSizeSig:vector  ETV
vector 45018  Network.dyn_peer[1]  lookupHopsSig:vector  ETV
vector 45019  Network.dyn_peer[1]  lookupStabilitySig:vector  ETV
vector 45020  Network.dyn_peer[1]  lookupTimeSig:vector  ETV
vector 45042  Network.dyn_peer[9]  lookupHopsSig:vector  ETV
vector 45043  Network.dyn_peer[9]  lookupStabilitySig:vector  ETV
vector 45044  Network.dyn_peer[9]  lookupTimeSig:vector  ETV
vector 45024  Network.dyn_peer[3]  lookupHopsSig:vector  ETV
vector 45025  Network.dyn_peer[3]  lookupStabilitySig:vector  ETV
vector 45026  Network.dyn_peer[3]  lookupTimeSig:vector  ETV
vector 45027  Network.dyn_peer[4]  lookupHopsSig:vector  ETV
vector 45028  Network.dyn_peer[4]  lookupStabilitySig:vector  ETV
vector 45029  Network.dyn_peer[4]  lookupTimeSig:vector  ETV
vector 45039  Network.dyn_peer[8]  lookupHopsSig:vector  ETV
vector 45040  Network.dyn_peer[8]  lookupStabilitySig:vector  ETV
vector 45041  Network.dyn_peer[8]  lookupTimeSig:vector  ETV
vector 45015  Network.dyn_peer[0]  lookupHopsSig:vector  ETV
vector 45016  Network.dyn_peer[0]  lookupStabilitySig:vector  ETV
vector 45017  Network.dyn_peer[0]  lookupTimeSig:vector  ETV
vector 45021  Network.dyn_peer[2]  lookupHopsSig:vector  ETV
vector 45022  Network.dyn_peer[2]  lookupStabilitySig:vector  ETV
vector 45023  Network.dyn_peer[2]  lookupTimeSig:vector  ETV
vector 45030  Network.dyn_peer[5]  lookupHopsSig:vector  ETV
vector 45031  Network.dyn_peer[5]  lookupStabilitySig:vector  ETV
vector 45032  Network.dyn_peer[5]  lookupTimeSig:vector  ETV
vector 45036  Network.dyn_peer[7]  lookupHopsSig:vector  ETV
vector 45037  Network.dyn_peer[7]  lookupStabilitySig:vector  ETV
vector 45038  Network.dyn_peer[7]  lookupTimeSig:vector  ETV
vector 45033  Network.dyn_peer[6]  lookupHopsSig:vector  ETV
vector 45034  Network.dyn_peer[6]  lookupStabilitySig:vector  ETV
vector 45035  Network.dyn_peer[6]  lookupTimeSig:vector  ETV
45015	75	20.201	2
45015	152	20.601	3
45016	75	20.201	0.59999999403954
45016	152	20.601	0.39999997615814
45017	75	20.201	0.2
45017	152	20.601	0.4
45018	19	20.002	0
45018	118	20.402	3
45018	154	20.603971296763	1
45019	19	20.002	1
45019	118	20.402	0.39999997615814
45019	154	20.603971296763	0.79999999701977
45020	19	20.002	0
45020	118	20.402	0.4
45020	154	20.603971296763	0.2
45021	81	20.203	2
45021	136	20.503	2
45021	177	20.711888436111	1
45022	81	20.203	0.59999999403954
45022	136	20.503	0.59999999403954
45022	177	20.711888436111	0.88888888806105
45023	81	20.203	0.2
45023	136	20.503	0.3
45023	177	20.711888436111	0.2
45024	56	20.104	1
45024	187	20.804	6
45024	211	21.015864158622	1
45025	56	20.104	0.79999999701977
45025	187	20.804	0.45454543828964
45025	211	21.015864158622	0.91666666418314
45026	56	20.104	0.1
45026	187	20.804	0.7
45026	211	21.015864158622	0.2
45027	61	20.105	1
45027	104	20.305	1
45027	161	20.608175394253	2
45028	61	20.105	0.79999999701977
45028	104	20.305	0.79999999701977
45028	161	20.608175394253	0.71428570151329
45029	61	20.105	0.1
45029	104	20.305	0.2
45029	161	20.608175394253	0.3
45030	88	20.206	2
45030	140	20.506	2
45030	195	20.90990322026	3
45030	229	21.325829255378	3
45031	88	20.206	0.59999999403954
45031	140	20.506	0.59999999403954
45031	195	20.90990322026	0.72727271914482
45031	229	21.325829255378	0.76923076808453
45032	88	20.206	0.2
45032	140	20.506	0.3
45032	195	20.90990322026	0.4
45032	229	21.325829255378	0.4
45033	110	20.307	3
45033	157	20.607	2
45033	209	21.010284547552	3
45033	226	21.319777896592	2
45033	240	21.536798599795	1
45034	110	20.307	0.39999997615814
45034	157	20.607	0.59999999403954
45034	209	21.010284547552	0.75
45034	226	21.319777896592	0.84615384042263
45034	240	21.536798599795	0.92857142537832
45035	110	20.307	0.3
45035	157	20.607	0.3
45035	209	21.010284547552	0.4
45035	226	21.319777896592	0.3
45035	240	21.536798599795	0.2
45036	94	20.208	2
45036	127	20.414973894336	1
45036	181	20.717860133945	2
45037	94	20.208	0.59999999403954
45037	127	20.414973894336	0.79999999701977
45037	181	20.717860133945	0.77777777612209
45038	94	20.208	0.2
45038	127	20.414973894336	0.2
45038	181	20.717860133945	0.3
45039	69	20.109	1
45039	144	20.509	3
45039	179	20.713497307366	1
45039	200	20.920153462472	1
45040	69	20.109	0.79999999701977
45040	144	20.509	0.39999997615814
45040	179	20.713497307366	0.88888888806105
45040	200	20.920153462472	0.90909090638161
45041	69	20.109	0.1
45041	144	20.509	0.4
45041	179	20.713497307366	0.2
45041	200	20.920153462472	0.2
45042	47	20.01	0
45042	129	20.415165237768	3
45042	172	20.623905678903	1
45043	47	20.01	1
45043	129	20.415165237768	0.39999997615814
45043	172	20.623905678903	0.875
45044	47	20.01	0
45044	129	20.415165237768	0.4
45044	172	20.623905678903	0.2
48015	9	20	0
48015	10	20.001	0
48015	13	20.002	1
48015	20	20.003	2
48015	23	20.004	3
48015	26	20.005	4
48015	29	20.006	5
48015	32	20.007	6
48015	35	20.008	7
48015	38	20.009	8
48015	41	20.01	9
