version 2
run Stability2-88-20130526-00:51:32-26640
attr configname Stability2
attr datetime 20130526-00:51:32
attr experiment Stability2
attr inifile omnetpp.ini
attr iterationvars $0=30
attr iterationvars2 "$0=30, $repetition=28"
attr measurement $0=30
attr network Network
attr processid 26640
attr repetition 28
attr replication #28
attr resultdir results
attr runnumber 88
attr seedset 88

vector 267088  Network.churner  inGoingSizeSig:vector  ETV
vector 264097  Network.dyn_peer[3]  lookupHopsSig:vector  ETV
vector 264098  Network.dyn_peer[3]  lookupStabilitySig:vector  ETV
vector 264099  Network.dyn_peer[3]  lookupTimeSig:vector  ETV
vector 264118  Network.dyn_peer[10]  lookupHopsSig:vector  ETV
vector 264119  Network.dyn_peer[10]  lookupStabilitySig:vector  ETV
vector 264120  Network.dyn_peer[10]  lookupTimeSig:vector  ETV
vector 264121  Network.dyn_peer[11]  lookupHopsSig:vector  ETV
vector 264122  Network.dyn_peer[11]  lookupStabilitySig:vector  ETV
vector 264123  Network.dyn_peer[11]  lookupTimeSig:vector  ETV
vector 264142  Network.dyn_peer[18]  lookupHopsSig:vector  ETV
vector 264143  Network.dyn_peer[18]  lookupStabilitySig:vector  ETV
vector 264144  Network.dyn_peer[18]  lookupTimeSig:vector  ETV
vector 264088  Network.dyn_peer[0]  lookupHopsSig:vector  ETV
vector 264089  Network.dyn_peer[0]  lookupStabilitySig:vector  ETV
vector 264090  Network.dyn_peer[0]  lookupTimeSig:vector  ETV
vector 264091  Network.dyn_peer[1]  lookupHopsSig:vector  ETV
vector 264092  Network.dyn_peer[1]  lookupStabilitySig:vector  ETV
vector 264093  Network.dyn_peer[1]  lookupTimeSig:vector  ETV
vector 264094  Network.dyn_peer[2]  lookupHopsSig:vector  ETV
vector 264095  Network.dyn_peer[2]  lookupStabilitySig:vector  ETV
vector 264096  Network.dyn_peer[2]  lookupTimeSig:vector  ETV
vector 264100  Network.dyn_peer[4]  lookupHopsSig:vector  ETV
vector 264101  Network.dyn_peer[4]  lookupStabilitySig:vector  ETV
vector 264102  Network.dyn_peer[4]  lookupTimeSig:vector  ETV
vector 264109  Network.dyn_peer[7]  lookupHopsSig:vector  ETV
vector 264110  Network.dyn_peer[7]  lookupStabilitySig:vector  ETV
vector 264111  Network.dyn_peer[7]  lookupTimeSig:vector  ETV
vector 264139  Network.dyn_peer[17]  lookupHopsSig:vector  ETV
vector 264140  Network.dyn_peer[17]  lookupStabilitySig:vector  ETV
vector 264141  Network.dyn_peer[17]  lookupTimeSig:vector  ETV
vector 264160  Network.dyn_peer[24]  lookupHopsSig:vector  ETV
vector 264161  Network.dyn_peer[24]  lookupStabilitySig:vector  ETV
vector 264162  Network.dyn_peer[24]  lookupTimeSig:vector  ETV
vector 264103  Network.dyn_peer[5]  lookupHopsSig:vector  ETV
vector 264104  Network.dyn_peer[5]  lookupStabilitySig:vector  ETV
vector 264105  Network.dyn_peer[5]  lookupTimeSig:vector  ETV
vector 264112  Network.dyn_peer[8]  lookupHopsSig:vector  ETV
vector 264113  Network.dyn_peer[8]  lookupStabilitySig:vector  ETV
vector 264114  Network.dyn_peer[8]  lookupTimeSig:vector  ETV
vector 264115  Network.dyn_peer[9]  lookupHopsSig:vector  ETV
vector 264116  Network.dyn_peer[9]  lookupStabilitySig:vector  ETV
vector 264117  Network.dyn_peer[9]  lookupTimeSig:vector  ETV
vector 264124  Network.dyn_peer[12]  lookupHopsSig:vector  ETV
vector 264125  Network.dyn_peer[12]  lookupStabilitySig:vector  ETV
vector 264126  Network.dyn_peer[12]  lookupTimeSig:vector  ETV
vector 264136  Network.dyn_peer[16]  lookupHopsSig:vector  ETV
vector 264137  Network.dyn_peer[16]  lookupStabilitySig:vector  ETV
vector 264138  Network.dyn_peer[16]  lookupTimeSig:vector  ETV
vector 264157  Network.dyn_peer[23]  lookupHopsSig:vector  ETV
vector 264158  Network.dyn_peer[23]  lookupStabilitySig:vector  ETV
vector 264159  Network.dyn_peer[23]  lookupTimeSig:vector  ETV
vector 264145  Network.dyn_peer[19]  lookupHopsSig:vector  ETV
vector 264146  Network.dyn_peer[19]  lookupStabilitySig:vector  ETV
vector 264147  Network.dyn_peer[19]  lookupTimeSig:vector  ETV
vector 264148  Network.dyn_peer[20]  lookupHopsSig:vector  ETV
vector 264149  Network.dyn_peer[20]  lookupStabilitySig:vector  ETV
vector 264150  Network.dyn_peer[20]  lookupTimeSig:vector  ETV
vector 264106  Network.dyn_peer[6]  lookupHopsSig:vector  ETV
vector 264107  Network.dyn_peer[6]  lookupStabilitySig:vector  ETV
vector 264108  Network.dyn_peer[6]  lookupTimeSig:vector  ETV
vector 264127  Network.dyn_peer[13]  lookupHopsSig:vector  ETV
vector 264128  Network.dyn_peer[13]  lookupStabilitySig:vector  ETV
vector 264129  Network.dyn_peer[13]  lookupTimeSig:vector  ETV
vector 264133  Network.dyn_peer[15]  lookupHopsSig:vector  ETV
vector 264134  Network.dyn_peer[15]  lookupStabilitySig:vector  ETV
vector 264135  Network.dyn_peer[15]  lookupTimeSig:vector  ETV
vector 264166  Network.dyn_peer[26]  lookupHopsSig:vector  ETV
vector 264167  Network.dyn_peer[26]  lookupStabilitySig:vector  ETV
vector 264168  Network.dyn_peer[26]  lookupTimeSig:vector  ETV
vector 264169  Network.dyn_peer[27]  lookupHopsSig:vector  ETV
vector 264170  Network.dyn_peer[27]  lookupStabilitySig:vector  ETV
vector 264171  Network.dyn_peer[27]  lookupTimeSig:vector  ETV
vector 264130  Network.dyn_peer[14]  lookupHopsSig:vector  ETV
vector 264131  Network.dyn_peer[14]  lookupStabilitySig:vector  ETV
vector 264132  Network.dyn_peer[14]  lookupTimeSig:vector  ETV
vector 264154  Network.dyn_peer[22]  lookupHopsSig:vector  ETV
vector 264155  Network.dyn_peer[22]  lookupStabilitySig:vector  ETV
vector 264156  Network.dyn_peer[22]  lookupTimeSig:vector  ETV
vector 264151  Network.dyn_peer[21]  lookupHopsSig:vector  ETV
vector 264152  Network.dyn_peer[21]  lookupStabilitySig:vector  ETV
vector 264153  Network.dyn_peer[21]  lookupTimeSig:vector  ETV
vector 264172  Network.dyn_peer[28]  lookupHopsSig:vector  ETV
vector 264173  Network.dyn_peer[28]  lookupStabilitySig:vector  ETV
vector 264174  Network.dyn_peer[28]  lookupTimeSig:vector  ETV
vector 264163  Network.dyn_peer[25]  lookupHopsSig:vector  ETV
vector 264164  Network.dyn_peer[25]  lookupStabilitySig:vector  ETV
vector 264165  Network.dyn_peer[25]  lookupTimeSig:vector  ETV
vector 264175  Network.dyn_peer[29]  lookupHopsSig:vector  ETV
vector 264176  Network.dyn_peer[29]  lookupStabilitySig:vector  ETV
vector 264177  Network.dyn_peer[29]  lookupTimeSig:vector  ETV
264088	125	20.101	1
264088	342	20.50100205273	3
264088	523	20.908391971707	3
264088	825	21.717509547551	7
264089	125	20.101	0.79999999701977
264089	342	20.50100205273	0.39999997615814
264089	523	20.908391971707	0.5714285671711
264089	825	21.717509547551	0.63157895207405
264090	125	20.101	0.1
264090	342	20.50100205273	0.4
264090	523	20.908391971707	0.4
264090	825	21.717509547551	0.8
264091	131	20.102	1
264091	517	20.902	7
264091	730	21.403772845208	4
264091	861	21.81161459978	3
264092	131	20.102	0.79999999701977
264092	517	20.902	0
264092	730	21.403772845208	0.75
264092	861	21.81161459978	0.85714285075665
264093	131	20.102	0.1
264093	517	20.902	0.8
264093	730	21.403772845208	0.5
264093	861	21.81161459978	0.4
264094	136	20.103	1
264094	612	21.103	9
264094	858	21.807590380615	6
264095	136	20.103	0.79999999701977
264095	612	21.103	0.10000002384186
264095	858	21.807590380615	0.69999998807907
264096	136	20.103	0.1
264096	612	21.103	1
264096	858	21.807590380615	0.7
264097	25	20.004	0
264097	615	21.106127740273	10
264097	706	21.314299009533	1
264098	25	20.004	1
264098	615	21.106127740273	0
264098	706	21.314299009533	0.9333333298564
264099	25	20.004	0
264099	615	21.106127740273	1.1
264099	706	21.314299009533	0.2
264100	141	20.105	1
264100	442	20.705	5
264101	141	20.105	0.79999999701977
264101	442	20.705	0
264102	141	20.105	0.1
264102	442	20.705	0.6
264103	189	20.206	2
264103	585	21.013183022147	7
264103	740	21.418989562425	3
264104	189	20.206	0.59999999403954
264104	585	21.013183022147	0.22222220897675
264104	740	21.418989562425	0.8125
264105	189	20.206	0.2
264105	585	21.013183022147	0.8
264105	740	21.418989562425	0.4
264106	293	20.407	4
264106	732	21.407	9
264106	905	22.012356476576	5
264106	942	22.225296499181	1
264107	293	20.407	0.19999998807907
264107	732	21.407	0.4375
264107	905	22.012356476576	0.80769230425358
264107	942	22.225296499181	0.96428571268916
264108	293	20.407	0.4
264108	732	21.407	1
264108	905	22.012356476576	0.6
264108	942	22.225296499181	0.2
264109	149	20.108	1
264109	349	20.508	3
264109	527	20.912574001717	3
264110	149	20.108	0.79999999701977
264110	349	20.508	0.39999997615814
264110	527	20.912574001717	0.5714285671711
264111	149	20.108	0.1
264111	349	20.508	0.4
264111	527	20.912574001717	0.4
264112	197	20.209	2
264112	579	21.009	7
264112	653	21.212821789461	1
264113	197	20.209	0.59999999403954
264113	579	21.009	0.22222220897675
264113	653	21.212821789461	0.91666666418314
264114	197	20.209	0.2
264114	579	21.009	0.8
264114	653	21.212821789461	0.2
264115	203	20.21	2
264115	312	20.417665134842	1
264115	667	21.221469065657	7
264115	744	21.422849972057	1
264116	203	20.21	0.59999999403954
264116	312	20.417665134842	0.79999999701977
264116	667	21.221469065657	0.5
264116	744	21.422849972057	0.9375
264117	203	20.21	0.2
264117	312	20.417665134842	0.2
264117	667	21.221469065657	0.8
264117	744	21.422849972057	0.2
264118	51	20.011	0
264118	419	20.623566680644	5
264118	567	20.933594664066	2
264119	51	20.011	1
264119	419	20.623566680644	0
264119	567	20.933594664066	0.75
264120	51	20.011	0
264120	419	20.623566680644	0.6
264120	567	20.933594664066	0.3
264121	58	20.012	0
264121	581	21.012364543646	9
264121	803	21.613061311188	5
264121	884	21.922420508688	2
264122	58	20.012	1
264122	581	21.012364543646	0
264122	803	21.613061311188	0.7368420958519
264122	884	21.922420508688	0.91304347664118
264123	58	20.012	0
264123	581	21.012364543646	1
264123	803	21.613061311188	0.6
264123	884	21.922420508688	0.3
264124	209	20.213	2
264124	551	20.92708664275	6
264124	721	21.333676401064	3
264124	815	21.635400660819	2
264124	897	21.944151606025	2
264124	963	22.34498412804	3
264125	209	20.213	0.59999999403954
264125	551	20.92708664275	0.25
264125	721	21.333676401064	0.8125
264125	815	21.635400660819	0.89473684132099
264125	897	21.944151606025	0.92000000178814
264125	963	22.34498412804	0.89999999850988
264126	209	20.213	0.2
264126	551	20.92708664275	0.7
264126	721	21.333676401064	0.4
264126	815	21.635400660819	0.3
264126	897	21.944151606025	0.3
264126	963	22.34498412804	0.4
264127	303	20.414	4
264127	400	20.614	1
264127	657	21.214594997466	5
264128	303	20.414	0.19999998807907
264128	400	20.614	0.79999999701977
264128	657	21.214594997466	0.61538460850716
264129	303	20.414	0.4
264129	400	20.614	0.2
264129	657	21.214594997466	0.6
264130	361	20.515	5
264130	491	20.820551884525	2
264131	361	20.515	0
264131	491	20.820551884525	0.66666665673256
264132	361	20.515	0.5
264132	491	20.820551884525	0.3
264133	309	20.416	4
264133	659	21.216	7
264133	867	21.823424711533	5
264133	925	22.126071588935	2
264133	968	22.432390843394	2
264133	985	22.734165771405	2
264134	309	20.416	0.19999998807907
264134	659	21.216	0.5
264134	867	21.823424711533	0.77272726595402
264134	925	22.126071588935	0.92592592537403
264134	968	22.432390843394	0.93548387289047
264134	985	22.734165771405	0.9411764703691
264135	309	20.416	0.4
264135	659	21.216	0.8
264135	867	21.823424711533	0.6
264135	925	22.126071588935	0.3
264135	968	22.432390843394	0.3
264135	985	22.734165771405	0.3
264136	220	20.217	2
264136	661	21.217	9
264136	750	21.425204354266	1
264137	220	20.217	0.59999999403954
264137	661	21.217	0.35714286565781
264137	750	21.425204354266	0.94444444403052
264138	220	20.217	0.2
264138	661	21.217	1
264138	750	21.425204354266	0.2
264139	162	20.118	1
264139	405	20.618	4
264139	634	21.122500463325	4
264140	162	20.118	0.79999999701977
264140	405	20.618	0.19999998807907
264140	634	21.122500463325	0.59999999403954
264141	162	20.118	0.1
264141	405	20.618	0.5
264141	634	21.122500463325	0.5
264142	85	20.019	0
264142	315	20.419	3
264142	503	20.825028778972	3
264142	604	21.029917304323	1
264143	85	20.019	1
264143	315	20.419	0.39999997615814
264143	503	20.825028778972	0.5714285671711
264143	604	21.029917304323	0.88888888806105
264144	85	20.019	0
264144	315	20.419	0.4
264144	503	20.825028778972	0.4
264144	604	21.029917304323	0.2
264145	266	20.32	3
264145	489	20.82	4
264145	632	21.1224813746	2
264146	266	20.32	0.39999997615814
264146	489	20.82	0.33333331346512
264146	632	21.1224813746	0.79999999701977
264147	266	20.32	0.3
264147	489	20.82	0.5
264147	632	21.1224813746	0.3
264148	271	20.321	3
264148	742	21.421	10
264148	843	21.738936875889	2
264148	954	22.25026048853	4
264148	981	22.567211422255	2
264149	271	20.321	0.39999997615814
264149	742	21.421	0.375
264149	843	21.738936875889	0.89999999850988
264149	954	22.25026048853	0.86666665971279
264149	981	22.567211422255	0.93939393758774
264150	271	20.321	0.3
264150	742	21.421	1.1
264150	843	21.738936875889	0.3
264150	954	22.25026048853	0.5
264150	981	22.567211422255	0.3
264151	415	20.622	6
264151	630	21.122	4
264151	782	21.526417680436	3
264151	892	21.935111420689	3
264152	415	20.622	-0.20000004768372
264152	630	21.122	0.59999999403954
264152	782	21.526417680436	0.84210526943207
264152	892	21.935111420689	0.875
264153	415	20.622	0.6
264153	630	21.122	0.5
264153	782	21.526417680436	0.4
264153	892	21.935111420689	0.4
264154	374	20.523	5
264154	499	20.823	2
264154	678	21.228734393887	3
264154	849	21.74307470489	4
264154	902	21.952369472819	1
264155	374	20.523	0
264155	499	20.823	0.71428570151329
264155	678	21.228734393887	0.78571428358555
264155	849	21.74307470489	0.79999999701977
264155	902	21.952369472819	0.96000000089407
264156	374	20.523	0.5
264156	499	20.823	0.3
264156	678	21.228734393887	0.4
264156	849	21.74307470489	0.5
264156	902	21.952369472819	0.2
264157	235	20.224	2
264157	780	21.524	12
264157	929	22.133058621453	5
264157	975	22.536320779577	3
264158	235	20.224	0.59999999403954
264158	780	21.524	0.36842107772827
264158	929	22.133058621453	0.81481482088566
264158	975	22.536320779577	0.90322580933571
264159	235	20.224	0.2
264159	780	21.524	1.3
264159	929	22.133058621453	0.6
264159	975	22.536320779577	0.4
264160	174	20.125	1
264160	542	20.925	7
264160	878	21.848239085368	8
264161	174	20.125	0.79999999701977
264161	542	20.925	0.125
264161	878	21.848239085368	0.63636362552643
264162	174	20.125	0.1
264162	542	20.925	0.8
264162	878	21.848239085368	0.9
264163	547	20.926	9
264163	673	21.226	2
264163	754	21.427595660387	1
264163	833	21.730483462838	2
264163	937	22.147692722103	3
264164	547	20.926	-0.125
264164	673	21.226	0.85714285075665
264164	754	21.427595660387	0.9473684206605
264164	833	21.730483462838	0.89999999850988
264164	937	22.147692722103	0.88888888806105
264165	547	20.926	0.9
264165	673	21.226	0.3
264165	754	21.427595660387	0.2
264165	833	21.730483462838	0.3
264165	937	22.147692722103	0.4
264166	330	20.427	4
264166	549	20.927	4
264166	691	21.233702994713	2
264167	330	20.427	0.19999998807907
264167	549	20.927	0.5
264167	691	21.233702994713	0.85714285075665
264168	330	20.427	0.4
264168	549	20.927	0.5
264168	691	21.233702994713	0.3
264169	336	20.428	4
264169	784	21.528	10
264169	946	22.23245830126	6
264170	336	20.428	0.19999998807907
264170	784	21.528	0.4736841917038
264170	946	22.23245830126	0.79310344159603
264171	336	20.428	0.4
264171	784	21.528	1.1
264171	946	22.23245830126	0.7
264172	431	20.629	6
264172	680	21.229	5
264172	841	21.735149677631	4
264172	915	22.041339609981	2
264173	431	20.629	-0.20000004768372
264173	680	21.229	0.64285713434219
264173	841	21.735149677631	0.79999999701977
264173	915	22.041339609981	0.92307692021132
264174	431	20.629	0.6
264174	680	21.229	0.6
264174	841	21.735149677631	0.5
264174	915	22.041339609981	0.3
264175	561	20.93	9
264175	684	21.23	2
264175	934	22.140548874756	8
264175	978	22.550166302294	3
264176	561	20.93	-0.125
264176	684	21.23	0.85714285075665
264176	934	22.140548874756	0.70370370149612
264176	978	22.550166302294	0.90625
264177	561	20.93	0.9
264177	684	21.23	0.3
264177	934	22.140548874756	0.9
264177	978	22.550166302294	0.4
267088	9	20	0
267088	10	20.001	0
267088	13	20.002	1
267088	16	20.003	2
267088	19	20.004	3
267088	26	20.005	4
267088	29	20.006	5
267088	33	20.007	6
267088	36	20.008	7
267088	39	20.009	8
267088	42	20.01	9
267088	45	20.011	10
267088	52	20.012	11
267088	60	20.013	12
267088	63	20.014	13
267088	66	20.015	14
267088	70	20.016	15
267088	73	20.017	16
267088	76	20.018	17
267088	79	20.019	18
267088	86	20.02	19
267088	89	20.021	20
267088	92	20.022	21
267088	95	20.023	22
267088	100	20.024	23
267088	103	20.025	24
267088	106	20.026	25
267088	109	20.027	26
267088	112	20.028	27
267088	115	20.029	28
267088	118	20.03	29
