file 68528 1369674128                                           
version 2
run Stability2-163-20130526-00:51:59-26640
attr configname Stability2
attr datetime 20130526-00:51:59
attr experiment Stability2
attr inifile omnetpp.ini
attr iterationvars $0=100
attr iterationvars2 "$0=100, $repetition=13"
attr measurement $0=100
attr network Network
attr processid 26640
attr repetition 13
attr replication #13
attr resultdir results
attr runnumber 163
attr seedset 163
vector 492163  Network.churner  inGoingSizeSig:vector  ETV
492163	66459 2069 11 361 20 20.1 101 0 99 4950 328350
vector 489172  Network.dyn_peer[3]  lookupHopsSig:vector  ETV
489172	21249 110 27 3745 20.004 22.835690462574 4 0 14 25 281
vector 489173  Network.dyn_peer[3]  lookupStabilitySig:vector  ETV
489173	21359 142 27 3745 20.004 22.835690462574 4 -0.5 1 2.1258503310382 2.6144777522535
vector 489174  Network.dyn_peer[3]  lookupTimeSig:vector  ETV
489174	21501 113 27 3745 20.004 22.835690462574 4 0 1.5 2.8 3.34
vector 489235  Network.dyn_peer[24]  lookupHopsSig:vector  ETV
489235	31094 169 102 2758 20.025 21.896747283784 6 0 4 11 31
vector 489236  Network.dyn_peer[24]  lookupStabilitySig:vector  ETV
489236	31263 244 102 2758 20.025 21.896747283784 6 0.19999998807907 1 4.3644688352943 3.5784052882593
vector 489237  Network.dyn_peer[24]  lookupTimeSig:vector  ETV
489237	31507 179 102 2758 20.025 21.896747283784 6 0 0.5 1.6 0.58
vector 489259  Network.dyn_peer[32]  lookupHopsSig:vector  ETV
489259	34601 221 136 5065 20.033 25.967023886681 8 0 26 52 820
vector 489260  Network.dyn_peer[32]  lookupStabilitySig:vector  ETV
489260	34822 325 136 5065 20.033 25.967023886681 8 0.42222219705582 1 7.0907802134752 6.5401755380308
vector 489261  Network.dyn_peer[32]  lookupTimeSig:vector  ETV
489261	35147 234 136 5065 20.033 25.967023886681 8 0 2.7 5.9 9.31
vector 489313  Network.dyn_peer[50]  lookupHopsSig:vector  ETV
489313	43740 81 198 3293 20.051 22.355827287815 3 0 14 21 245
vector 489314  Network.dyn_peer[50]  lookupStabilitySig:vector  ETV
489314	43821 111 198 3293 20.051 22.355827287815 3 -0.39999997615814 1 1.1882353127003 1.5060207359848
vector 489315  Network.dyn_peer[50]  lookupTimeSig:vector  ETV
489315	43932 84 198 3293 20.051 22.355827287815 3 0 1.5 2.3 2.89
vector 489349  Network.dyn_peer[62]  lookupHopsSig:vector  ETV
489349	48109 72 241 4095 20.063 23.363751111956 3 0 28 31 793
vector 489350  Network.dyn_peer[62]  lookupStabilitySig:vector  ETV
489350	48181 101 241 4095 20.063 23.363751111956 3 0.49090909957886 1 2.4417287707329 2.1450497911028
vector 489351  Network.dyn_peer[62]  lookupTimeSig:vector  ETV
489351	48282 75 241 4095 20.063 23.363751111956 3 0 2.9 3.3 8.57
vector 489364  Network.dyn_peer[67]  lookupHopsSig:vector  ETV
489364	50894 72 261 2471 20.068 21.669645104023 3 0 12 14 148
vector 489365  Network.dyn_peer[67]  lookupStabilitySig:vector  ETV
489365	50966 89 261 2471 20.068 21.669645104023 3 -0.5 1 1.3333333283663 1.944444436166
vector 489366  Network.dyn_peer[67]  lookupTimeSig:vector  ETV
489366	51055 75 261 2471 20.068 21.669645104023 3 0 1.3 1.6 1.78
vector 489418  Network.dyn_peer[85]  lookupHopsSig:vector  ETV
489418	59424 72 321 2249 20.086 21.491074988508 3 0 10 12 104
vector 489419  Network.dyn_peer[85]  lookupStabilitySig:vector  ETV
489419	59496 102 321 2249 20.086 21.491074988508 3 -0.42857146263123 1 1.3492063134909 1.7886117676113
vector 489420  Network.dyn_peer[85]  lookupTimeSig:vector  ETV
489420	59598 75 321 2249 20.086 21.491074988508 3 0 1.1 1.4 1.3
vector 489166  Network.dyn_peer[1]  lookupHopsSig:vector  ETV
489166	20079 109 369 3164 20.102 22.224711321387 4 1 8 19 115
vector 489167  Network.dyn_peer[1]  lookupStabilitySig:vector  ETV
489167	20188 169 369 3164 20.102 22.224711321387 4 -0.33333337306976 0.8214285671711 1.8335497230291 1.7233766701775
vector 489168  Network.dyn_peer[1]  lookupTimeSig:vector  ETV
489168	20357 117 369 3164 20.102 22.224711321387 4 0.1 0.9 2.2 1.54
vector 489184  Network.dyn_peer[7]  lookupHopsSig:vector  ETV
489184	23019 101 379 3980 20.108 23.16221419523 4 1 18 27 359
vector 489185  Network.dyn_peer[7]  lookupStabilitySig:vector  ETV
489185	23120 145 379 3980 20.108 23.16221419523 4 0 0.94915254414082 2.64045689255 2.3353139940863
vector 489186  Network.dyn_peer[7]  lookupTimeSig:vector  ETV
489186	23265 108 379 3980 20.108 23.16221419523 4 0.1 1.9 3 4.14
vector 489193  Network.dyn_peer[10]  lookupHopsSig:vector  ETV
489193	24776 101 386 3154 20.111 22.218704765532 4 1 8 19 133
vector 489194  Network.dyn_peer[10]  lookupStabilitySig:vector  ETV
489194	24877 162 386 3154 20.111 22.218704765532 4 -0.33333337306976 0.92592592537403 1.8211639523506 1.7921233996056
vector 489195  Network.dyn_peer[10]  lookupTimeSig:vector  ETV
489195	25039 109 386 3154 20.111 22.218704765532 4 0.1 0.9 2.2 1.72
vector 489298  Network.dyn_peer[45]  lookupHopsSig:vector  ETV
489298	41590 42 430 2950 20.146 22.046 2 1 18 19 325
vector 489299  Network.dyn_peer[45]  lookupStabilitySig:vector  ETV
489299	41632 72 430 2950 20.146 22.046 2 0.052631556987762 0.79999999701977 0.85263155400753 0.64277007602259
vector 489300  Network.dyn_peer[45]  lookupTimeSig:vector  ETV
489300	41704 45 430 2950 20.146 22.046 2 0.1 1.9 2 3.62
vector 489301  Network.dyn_peer[46]  lookupHopsSig:vector  ETV
489301	41749 109 435 2830 20.147 21.960544547917 4 1 7 16 84
vector 489302  Network.dyn_peer[46]  lookupStabilitySig:vector  ETV
489302	41858 144 435 2830 20.147 21.960544547917 4 0 0.8125 1.9125000089407 1.3901562523842
vector 489303  Network.dyn_peer[46]  lookupTimeSig:vector  ETV
489303	42002 117 435 2830 20.147 21.960544547917 4 0.1 0.8 1.9 1.17
vector 489304  Network.dyn_peer[47]  lookupHopsSig:vector  ETV
489304	42119 219 440 5068 20.148 25.983513769244 8 1 11 52 406
vector 489305  Network.dyn_peer[47]  lookupStabilitySig:vector  ETV
489305	42338 337 440 5068 20.148 25.983513769244 8 -0.42857146263123 0.94186046347022 5.6844326891005 5.5662914388763
vector 489306  Network.dyn_peer[47]  lookupTimeSig:vector  ETV
489306	42675 233 440 5068 20.148 25.983513769244 8 0.1 1.2 5.9 5.15
vector 489310  Network.dyn_peer[49]  lookupHopsSig:vector  ETV
489310	43162 159 446 4574 20.15 24.276051098819 6 1 11 37 283
vector 489311  Network.dyn_peer[49]  lookupStabilitySig:vector  ETV
489311	43321 249 446 4574 20.15 24.276051098819 6 -0.20000004768372 0.92405063658953 3.7679177969694 3.3230185207434
vector 489312  Network.dyn_peer[49]  lookupTimeSig:vector  ETV
489312	43570 170 446 4574 20.15 24.276051098819 6 0.1 1.2 4.2 3.6
vector 489316  Network.dyn_peer[51]  lookupHopsSig:vector  ETV
489316	44016 82 451 4214 20.152 23.563917984806 3 1 21 33 563
vector 489317  Network.dyn_peer[51]  lookupStabilitySig:vector  ETV
489317	44098 125 451 4214 20.152 23.563917984806 3 0.39999997615814 0.83076922595501 2.0307691991329 1.490177482952
vector 489318  Network.dyn_peer[51]  lookupTimeSig:vector  ETV
489318	44223 86 451 4214 20.152 23.563917984806 3 0.1 2.2 3.5 6.29
vector 489322  Network.dyn_peer[53]  lookupHopsSig:vector  ETV
489322	44468 102 458 3682 20.154 22.768339598251 4 1 10 24 186
vector 489323  Network.dyn_peer[53]  lookupStabilitySig:vector  ETV
489323	44570 162 458 3682 20.154 22.768339598251 4 -0.42857146263123 0.86956521868706 1.9228119403124 2.0446932038106
vector 489324  Network.dyn_peer[53]  lookupTimeSig:vector  ETV
489324	44732 109 458 3682 20.154 22.768339598251 4 0.1 1.1 2.7 2.35
vector 489337  Network.dyn_peer[58]  lookupHopsSig:vector  ETV
489337	46205 131 468 3779 20.159 22.875126913978 5 1 10 24 166
vector 489338  Network.dyn_peer[58]  lookupStabilitySig:vector  ETV
489338	46336 196 468 3779 20.159 22.875126913978 5 -0.20000004768372 0.90384615212679 2.9056318029761 2.4797981944059
vector 489339  Network.dyn_peer[58]  lookupTimeSig:vector  ETV
489339	46532 140 468 3779 20.159 22.875126913978 5 0.1 1.1 2.8 2.16
vector 489445  Network.dyn_peer[94]  lookupHopsSig:vector  ETV
489445	63383 71 510 3339 20.195 22.39995669797 3 1 12 21 209
vector 489446  Network.dyn_peer[94]  lookupStabilitySig:vector  ETV
489446	63454 116 510 3339 20.195 22.39995669797 3 -0.14285719394684 0.79999999701977 1.3142856508493 1.0922448954777
vector 489447  Network.dyn_peer[94]  lookupTimeSig:vector  ETV
489447	63570 76 510 3339 20.195 22.39995669797 3 0.1 1.3 2.3 2.51
vector 489169  Network.dyn_peer[2]  lookupHopsSig:vector  ETV
489169	20474 218 521 4835 20.203 25.01964396999 8 2 9 42 276
vector 489170  Network.dyn_peer[2]  lookupStabilitySig:vector  ETV
489170	20692 325 521 4835 20.203 25.01964396999 8 0.39999997615814 0.94871794804931 5.6989185921848 4.372854797225
vector 489171  Network.dyn_peer[2]  lookupTimeSig:vector  ETV
489171	21017 232 521 4835 20.203 25.01964396999 8 0.2 1 4.9 3.63
vector 489244  Network.dyn_peer[27]  lookupHopsSig:vector  ETV
489244	32104 102 553 3653 20.228 22.736720309587 4 2 14 24 232
vector 489245  Network.dyn_peer[27]  lookupStabilitySig:vector  ETV
489245	32206 161 553 3653 20.228 22.736720309587 4 0.19999998807907 0.68888887763023 1.9174602627754 1.0582413212939
vector 489246  Network.dyn_peer[27]  lookupTimeSig:vector  ETV
489246	32367 109 553 3653 20.228 22.736720309587 4 0.2 1.5 2.7 2.79
vector 489262  Network.dyn_peer[33]  lookupHopsSig:vector  ETV
489262	35381 193 563 4938 20.234 25.364835939536 7 2 22 47 637
vector 489263  Network.dyn_peer[33]  lookupStabilitySig:vector  ETV
489263	35574 296 563 4938 20.234 25.364835939536 7 0.47619044780731 0.97701149433851 5.7583388444036 4.9776873923255
vector 489264  Network.dyn_peer[33]  lookupTimeSig:vector  ETV
489264	35870 205 563 4938 20.234 25.364835939536 7 0.2 2.3 5.3 7.33
vector 489277  Network.dyn_peer[38]  lookupHopsSig:vector  ETV
489277	37770 72 573 3382 20.239 22.447726191171 3 2 17 22 302
vector 489278  Network.dyn_peer[38]  lookupStabilitySig:vector  ETV
489278	37842 116 573 3382 20.239 22.447726191171 3 0.10526317358017 0.91891892254353 1.6241820901632 1.2154923147682
vector 489279  Network.dyn_peer[38]  lookupTimeSig:vector  ETV
489279	37958 77 573 3382 20.239 22.447726191171 3 0.2 1.8 2.4 3.44
vector 489319  Network.dyn_peer[52]  lookupHopsSig:vector  ETV
489319	44309 42 592 2313 20.253 21.553 2 2 12 14 148
vector 489320  Network.dyn_peer[52]  lookupStabilitySig:vector  ETV
489320	44351 72 592 2313 20.253 21.553 2 -0.20000004768372 0.59999999403954 0.39999994635582 0.40000001192094
vector 489321  Network.dyn_peer[52]  lookupTimeSig:vector  ETV
489321	44423 45 592 2313 20.253 21.553 2 0.2 1.3 1.5 1.73
vector 489403  Network.dyn_peer[80]  lookupHopsSig:vector  ETV
489403	56534 251 627 5159 20.281 26.629014443693 9 2 9 57 393
vector 489404  Network.dyn_peer[80]  lookupStabilitySig:vector  ETV
489404	56785 360 627 5159 20.281 26.629014443693 9 0 0.9375 6.592424325645 5.5664903539828
vector 489405  Network.dyn_peer[80]  lookupTimeSig:vector  ETV
489405	57145 267 627 5159 20.281 26.629014443693 9 0.2 1 6.5 5.11
vector 489457  Network.dyn_peer[98]  lookupHopsSig:vector  ETV
489457	65616 133 649 4636 20.299 24.415238368201 5 2 13 39 391
vector 489458  Network.dyn_peer[98]  lookupStabilitySig:vector  ETV
489458	65749 207 649 4636 20.299 24.415238368201 5 -0.28571426868439 0.95061728358269 2.8232363313437 2.5687703471056
vector 489459  Network.dyn_peer[98]  lookupTimeSig:vector  ETV
489459	65956 139 649 4636 20.299 24.415238368201 5 0.2 1.4 4.3 4.69
vector 489190  Network.dyn_peer[9]  lookupHopsSig:vector  ETV
489190	24488 81 664 4137 20.31 23.417582445728 3 3 19 32 470
vector 489191  Network.dyn_peer[9]  lookupStabilitySig:vector  ETV
489191	24569 124 664 4137 20.31 23.417582445728 3 0.39999997615814 0.84126983582973 1.6824462860823 1.0623715988979
vector 489192  Network.dyn_peer[9]  lookupTimeSig:vector  ETV
489192	24693 83 664 4137 20.31 23.417582445728 3 0.3 2 3.4 5.3
vector 489196  Network.dyn_peer[11]  lookupHopsSig:vector  ETV
489196	25148 201 672 5011 20.312 25.68796217581 7 3 13 50 446
vector 489197  Network.dyn_peer[11]  lookupStabilitySig:vector  ETV
489197	25349 288 672 5011 20.312 25.68796217581 7 0 0.9120879098773 4.4599928036332 3.5110305196928
vector 489198  Network.dyn_peer[11]  lookupTimeSig:vector  ETV
489198	25637 213 672 5011 20.312 25.68796217581 7 0.3 1.4 5.6 5.46
vector 489199  Network.dyn_peer[12]  lookupHopsSig:vector  ETV
489199	25850 130 677 3563 20.313 22.634508922617 5 1 9 22 136
vector 489200  Network.dyn_peer[12]  lookupStabilitySig:vector  ETV
489200	25980 205 677 3563 20.313 22.634508922617 5 0.14285713434219 0.79999999701977 2.8558441102505 1.9666806804333
vector 489201  Network.dyn_peer[12]  lookupTimeSig:vector  ETV
489201	26185 138 677 3563 20.313 22.634508922617 5 0.2 1 2.6 1.78
vector 489217  Network.dyn_peer[18]  lookupHopsSig:vector  ETV
489217	28050 133 690 4425 20.319 23.940584211978 5 2 14 35 355
vector 489218  Network.dyn_peer[18]  lookupStabilitySig:vector  ETV
489218	28183 208 690 4425 20.319 23.940584211978 5 -0.076923131942749 0.97260273993015 3.0210527181625 2.6081886767817
vector 489219  Network.dyn_peer[18]  lookupTimeSig:vector  ETV
489219	28391 141 690 4425 20.319 23.940584211978 5 0.3 1.5 3.9 4.23
vector 489280  Network.dyn_peer[39]  lookupHopsSig:vector  ETV
489280	38035 98 717 3195 20.34 22.250228177324 4 3 8 19 105
vector 489281  Network.dyn_peer[39]  lookupStabilitySig:vector  ETV
489281	38133 158 717 3195 20.34 22.250228177324 4 0.19999998807907 0.87096774578094 1.8555830717087 1.1065137667972
vector 489282  Network.dyn_peer[39]  lookupTimeSig:vector  ETV
489282	38291 106 717 3195 20.34 22.250228177324 4 0.3 0.9 2.2 1.4
vector 489283  Network.dyn_peer[40]  lookupHopsSig:vector  ETV
489283	38397 310 722 5286 20.341 28.187475983613 11 1 21 71 743
vector 489284  Network.dyn_peer[40]  lookupStabilitySig:vector  ETV
489284	38707 461 722 5286 20.341 28.187475983613 11 0.39999997615814 0.98958333302289 9.3430577544496 8.3382029990782
vector 489285  Network.dyn_peer[40]  lookupTimeSig:vector  ETV
489285	39168 329 722 5286 20.341 28.187475983613 11 0.2 2.2 8.1 8.89
vector 489334  Network.dyn_peer[57]  lookupHopsSig:vector  ETV
489334	45849 102 743 3764 20.358 22.862002597229 4 3 13 25 223
vector 489335  Network.dyn_peer[57]  lookupStabilitySig:vector  ETV
489335	45951 145 743 3764 20.358 22.862002597229 4 0 0.8823529407382 2.1623529195786 1.7129466976766
vector 489336  Network.dyn_peer[57]  lookupTimeSig:vector  ETV
489336	46096 109 743 3764 20.358 22.862002597229 4 0.3 1.4 2.8 2.7
vector 489343  Network.dyn_peer[60]  lookupHopsSig:vector  ETV
489343	47572 42 750 2460 20.361 21.661 2 3 12 15 153
vector 489344  Network.dyn_peer[60]  lookupStabilitySig:vector  ETV
489344	47614 73 750 2460 20.361 21.661 2 -0.090909123420715 0.39999997615814 0.30909085273742 0.16826444964764
vector 489345  Network.dyn_peer[60]  lookupTimeSig:vector  ETV
489345	47687 45 750 2460 20.361 21.661 2 0.3 1.3 1.6 1.78
vector 489376  Network.dyn_peer[71]  lookupHopsSig:vector  ETV
489376	52569 72 767 3406 20.372 22.474479578671 3 3 16 22 274
vector 489377  Network.dyn_peer[71]  lookupStabilitySig:vector  ETV
489377	52641 116 767 3406 20.372 22.474479578671 3 0.27272725105286 0.92105263471603 1.593779861927 1.0827180903107
vector 489378  Network.dyn_peer[71]  lookupTimeSig:vector  ETV
489378	52757 77 767 3406 20.372 22.474479578671 3 0.3 1.7 2.4 3.14
vector 489397  Network.dyn_peer[78]  lookupHopsSig:vector  ETV
489397	55167 162 778 4458 20.379 24.001852961938 6 3 12 34 258
vector 489398  Network.dyn_peer[78]  lookupStabilitySig:vector  ETV
489398	55329 252 778 4458 20.379 24.001852961938 6 0.076923072338104 0.95945946127176 4.0839992538094 3.4280797916408
vector 489399  Network.dyn_peer[78]  lookupTimeSig:vector  ETV
489399	55581 173 778 4458 20.379 24.001852961938 6 0.3 1.3 3.9 3.25
vector 489424  Network.dyn_peer[87]  lookupHopsSig:vector  ETV
489424	59935 73 791 3793 20.388 22.889031879095 3 3 13 26 278
vector 489425  Network.dyn_peer[87]  lookupStabilitySig:vector  ETV
489425	60008 117 791 3793 20.388 22.889031879095 3 -0.11111116409302 0.75471697747707 1.0436057895422 0.74194338780474
vector 489426  Network.dyn_peer[87]  lookupTimeSig:vector  ETV
489426	60125 77 791 3793 20.388 22.889031879095 3 0.3 1.4 2.8 3.26
vector 489175  Network.dyn_peer[4]  lookupHopsSig:vector  ETV
489175	21614 160 810 4364 20.405 23.8168317628 6 3 11 33 221
vector 489176  Network.dyn_peer[4]  lookupStabilitySig:vector  ETV
489176	21774 234 810 4364 20.405 23.8168317628 6 0 0.95714285597205 3.7862096019089 3.2661656631378
vector 489177  Network.dyn_peer[4]  lookupTimeSig:vector  ETV
489177	22008 171 810 4364 20.405 23.8168317628 6 0.4 1.2 3.8 2.84
vector 489181  Network.dyn_peer[6]  lookupHopsSig:vector  ETV
489181	22767 71 816 2135 20.407 21.420724037859 3 2 6 12 56
vector 489182  Network.dyn_peer[6]  lookupStabilitySig:vector  ETV
489182	22838 104 816 2135 20.407 21.420724037859 3 0.19999998807907 0.59999999403954 1.0499999821186 0.46249998807908
vector 489183  Network.dyn_peer[6]  lookupTimeSig:vector  ETV
489183	22942 77 816 2135 20.407 21.420724037859 3 0.3 0.7 1.4 0.74
vector 489202  Network.dyn_peer[13]  lookupHopsSig:vector  ETV
489202	26323 133 829 4829 20.414 25.007721242017 5 3 15 40 414
vector 489203  Network.dyn_peer[13]  lookupStabilitySig:vector  ETV
489203	26456 207 829 4829 20.414 25.007721242017 5 -0.14285719394684 0.91176470369101 2.6294544413686 2.2706729638946
vector 489204  Network.dyn_peer[13]  lookupTimeSig:vector  ETV
489204	26663 141 829 4829 20.414 25.007721242017 5 0.4 1.6 4.4 4.9
vector 489205  Network.dyn_peer[14]  lookupHopsSig:vector  ETV
489205	26804 42 835 2776 20.415 21.915 2 4 14 18 212
vector 489206  Network.dyn_peer[14]  lookupStabilitySig:vector  ETV
489206	26846 56 835 2776 20.415 21.915 2 0 0.19999998807907 0.19999998807907 0.039999995231628
vector 489207  Network.dyn_peer[14]  lookupTimeSig:vector  ETV
489207	26902 45 835 2776 20.415 21.915 2 0.4 1.5 1.9 2.41
vector 489385  Network.dyn_peer[74]  lookupHopsSig:vector  ETV
489385	53264 102 903 3937 20.475 23.091174892624 4 4 12 27 225
vector 489386  Network.dyn_peer[74]  lookupStabilitySig:vector  ETV
489386	53366 162 903 3937 20.475 23.091174892624 4 0.076923072338104 0.92982456088066 2.0400809496641 1.6049353044725
vector 489387  Network.dyn_peer[74]  lookupTimeSig:vector  ETV
489387	53528 109 903 3937 20.475 23.091174892624 4 0.4 1.3 3 2.74
vector 489427  Network.dyn_peer[88]  lookupHopsSig:vector  ETV
489427	60202 42 921 2747 20.489 21.889 2 4 13 17 185
vector 489428  Network.dyn_peer[88]  lookupStabilitySig:vector  ETV
489428	60244 56 921 2747 20.489 21.889 2 0 0.19999998807907 0.19999998807907 0.039999995231628
vector 489429  Network.dyn_peer[88]  lookupTimeSig:vector  ETV
489429	60300 45 921 2747 20.489 21.889 2 0.4 1.4 1.8 2.12
vector 489163  Network.dyn_peer[0]  lookupHopsSig:vector  ETV
489163	19830 72 937 3442 20.501 22.501659974301 3 5 11 23 195
vector 489164  Network.dyn_peer[0]  lookupStabilitySig:vector  ETV
489164	19902 100 937 3442 20.501 22.501659974301 3 0 0.8292682915926 0.98311443626881 0.71135453567264
vector 489165  Network.dyn_peer[0]  lookupTimeSig:vector  ETV
489165	20002 77 937 3442 20.501 22.501659974301 3 0.5 1.2 2.5 2.33
vector 489226  Network.dyn_peer[21]  lookupHopsSig:vector  ETV
489226	29790 71 967 3364 20.522 22.431624147247 3 5 9 22 170
vector 489227  Network.dyn_peer[21]  lookupStabilitySig:vector  ETV
489227	29861 89 967 3364 20.522 22.431624147247 3 0 0.75 0.86111110448837 0.57484567754063
vector 489228  Network.dyn_peer[21]  lookupTimeSig:vector  ETV
489228	29950 75 967 3364 20.522 22.431624147247 3 0.5 1 2.4 2.06
vector 489247  Network.dyn_peer[28]  lookupHopsSig:vector  ETV
489247	32476 101 979 3056 20.529 22.143335735823 4 2 7 18 94
vector 489248  Network.dyn_peer[28]  lookupStabilitySig:vector  ETV
489248	32577 135 979 3056 20.529 22.143335735823 4 0 0.91666666418314 1.7339743450284 1.335192698182
vector 489249  Network.dyn_peer[28]  lookupTimeSig:vector  ETV
489249	32712 109 979 3056 20.529 22.143335735823 4 0.3 0.8 2.1 1.23
vector 489265  Network.dyn_peer[34]  lookupHopsSig:vector  ETV
489265	36075 132 989 3828 20.535 22.950579416105 5 3 10 25 159
vector 489266  Network.dyn_peer[34]  lookupStabilitySig:vector  ETV
489266	36207 192 989 3828 20.535 22.950579416105 5 0 0.94444444403052 2.7822206802666 2.4279751516477
vector 489267  Network.dyn_peer[34]  lookupTimeSig:vector  ETV
489267	36399 141 989 3828 20.535 22.950579416105 5 0.4 1.1 2.9 2.03
vector 489361  Network.dyn_peer[66]  lookupHopsSig:vector  ETV
489361	50427 133 1027 4111 20.567 23.386121267539 5 3 14 29 255
vector 489362  Network.dyn_peer[66]  lookupStabilitySig:vector  ETV
489362	50560 192 1027 4111 20.567 23.386121267539 5 0 0.95161290466785 3.1654657274485 2.7502769315336
vector 489363  Network.dyn_peer[66]  lookupTimeSig:vector  ETV
489363	50752 142 1027 4111 20.567 23.386121267539 5 0.4 1.5 3.3 3.07
vector 489214  Network.dyn_peer[17]  lookupHopsSig:vector  ETV
489214	27686 102 1085 3047 20.618 22.134868449078 4 2 7 18 98
vector 489215  Network.dyn_peer[17]  lookupStabilitySig:vector  ETV
489215	27788 152 1085 3047 20.618 22.134868449078 4 -0.20000004768372 0.91304347664118 1.607274197042 1.4809893838784
vector 489216  Network.dyn_peer[17]  lookupTimeSig:vector  ETV
489216	27940 110 1085 3047 20.618 22.134868449078 4 0.3 0.8 2.1 1.25
vector 489220  Network.dyn_peer[19]  lookupHopsSig:vector  ETV
489220	28532 189 1091 4602 20.62 24.339816162638 7 1 13 37 285
vector 489221  Network.dyn_peer[19]  lookupStabilitySig:vector  ETV
489221	28721 285 1091 4602 20.62 24.339816162638 7 -0.20000004768372 0.98749999981374 4.7982737226412 4.528764759487
vector 489222  Network.dyn_peer[19]  lookupTimeSig:vector  ETV
489222	29006 202 1091 4602 20.62 24.339816162638 7 0.2 1.4 4.3 3.53
vector 489238  Network.dyn_peer[25]  lookupHopsSig:vector  ETV
489238	31686 43 1102 2790 20.626 21.926 2 6 12 18 180
vector 489239  Network.dyn_peer[25]  lookupStabilitySig:vector  ETV
489239	31729 73 1102 2790 20.626 21.926 2 -0.20000004768372 0.19999998807907 -5.9604650021194e-08 0.080000014305118
vector 489240  Network.dyn_peer[25]  lookupTimeSig:vector  ETV
489240	31802 46 1102 2790 20.626 21.926 2 0.6 1.3 1.9 2.05
vector 489241  Network.dyn_peer[26]  lookupHopsSig:vector  ETV
489241	31848 73 1108 3180 20.627 22.234700576134 3 2 12 20 184
vector 489242  Network.dyn_peer[26]  lookupStabilitySig:vector  ETV
489242	31921 105 1108 3180 20.627 22.234700576134 3 -0.20000004768372 0.9333333298564 0.98333328217268 0.97361112369433
vector 489243  Network.dyn_peer[26]  lookupTimeSig:vector  ETV
489243	32026 78 1108 3180 20.627 22.234700576134 3 0.3 1.3 2.2 2.14
vector 489412  Network.dyn_peer[83]  lookupHopsSig:vector  ETV
489412	57830 224 1176 4983 20.684 25.527995317371 8 1 12 47 405
vector 489413  Network.dyn_peer[83]  lookupStabilitySig:vector  ETV
489413	58054 342 1176 4983 20.684 25.527995317371 8 -0.20000004768372 0.98717948701233 5.6804237188771 5.3477395724898
vector 489414  Network.dyn_peer[83]  lookupTimeSig:vector  ETV
489414	58396 237 1176 4983 20.684 25.527995317371 8 0.2 1.3 5.4 4.94
vector 489454  Network.dyn_peer[97]  lookupHopsSig:vector  ETV
489454	65454 43 1194 3133 20.698 22.198 2 6 14 20 232
vector 489455  Network.dyn_peer[97]  lookupStabilitySig:vector  ETV
489455	65497 73 1194 3133 20.698 22.198 2 -0.20000004768372 0.46153843402863 0.26153838634491 0.25301774515909
vector 489456  Network.dyn_peer[97]  lookupTimeSig:vector  ETV
489456	65570 46 1194 3133 20.698 22.198 2 0.6 1.5 2.1 2.61
vector 489223  Network.dyn_peer[20]  lookupHopsSig:vector  ETV
489223	29208 163 1225 5003 20.721 25.638002660292 6 3 21 51 637
vector 489224  Network.dyn_peer[20]  lookupStabilitySig:vector  ETV
489224	29371 245 1225 5003 20.721 25.638002660292 6 -0.39999997615814 0.96341463550925 3.9200118742883 3.9742577440814
vector 489225  Network.dyn_peer[20]  lookupTimeSig:vector  ETV
489225	29616 174 1225 5003 20.721 25.638002660292 6 0.4 2.2 5.6 7.3
vector 489229  Network.dyn_peer[22]  lookupHopsSig:vector  ETV
489229	30025 222 1232 4485 20.723 24.055483960483 8 1 14 33 281
vector 489230  Network.dyn_peer[22]  lookupStabilitySig:vector  ETV
489230	30247 342 1232 4485 20.723 24.055483960483 8 -0.39999997615814 0.98701298702508 5.8735782271251 5.9860377495427
vector 489231  Network.dyn_peer[22]  lookupTimeSig:vector  ETV
489231	30589 237 1232 4485 20.723 24.055483960483 8 0.2 1.5 4 3.4
vector 489253  Network.dyn_peer[30]  lookupHopsSig:vector  ETV
489253	33940 109 1246 2946 20.731 22.044061594773 4 1 8 17 115
vector 489254  Network.dyn_peer[30]  lookupStabilitySig:vector  ETV
489254	34049 169 1246 2946 20.731 22.044061594773 4 -0.39999997615814 0.9473684206605 1.7431726157665 1.9839580594849
vector 489255  Network.dyn_peer[30]  lookupTimeSig:vector  ETV
489255	34218 117 1246 2946 20.731 22.044061594773 4 0.2 0.9 2 1.38
vector 489274  Network.dyn_peer[37]  lookupHopsSig:vector  ETV
489274	37502 73 1259 3572 20.738 22.642299679463 3 3 14 24 254
vector 489275  Network.dyn_peer[37]  lookupStabilitySig:vector  ETV
489275	37575 117 1259 3572 20.738 22.642299679463 3 -0.39999997615814 0.68181818723679 0.85324677824975 0.95140662875259
vector 489276  Network.dyn_peer[37]  lookupTimeSig:vector  ETV
489276	37692 78 1259 3572 20.738 22.642299679463 3 0.4 1.5 2.6 2.9
vector 489325  Network.dyn_peer[54]  lookupHopsSig:vector  ETV
489325	44841 74 1283 3985 20.755 23.164686817713 3 7 12 29 293
vector 489326  Network.dyn_peer[54]  lookupStabilitySig:vector  ETV
489326	44915 118 1283 3985 20.755 23.164686817713 3 -0.39999997615814 0.83050847053528 0.85907989740372 1.0334177480495
vector 489327  Network.dyn_peer[54]  lookupTimeSig:vector  ETV
489327	45033 78 1283 3985 20.755 23.164686817713 3 0.7 1.3 3.1 3.39
vector 489460  Network.dyn_peer[99]  lookupHopsSig:vector  ETV
489460	66095 99 1337 4251 20.8 23.607017749244 4 4 16 32 346
vector 489461  Network.dyn_peer[99]  lookupStabilitySig:vector  ETV
489461	66194 159 1337 4251 20.8 23.607017749244 4 -0.39999997615814 0.93939393758774 2.0644043087959 2.2519537823202
vector 489462  Network.dyn_peer[99]  lookupTimeSig:vector  ETV
489462	66353 106 1337 4251 20.8 23.607017749244 4 0.5 1.7 3.5 3.99
vector 489208  Network.dyn_peer[15]  lookupHopsSig:vector  ETV
489208	26947 101 1355 3170 20.816 22.230878153357 4 2 8 19 113
vector 489209  Network.dyn_peer[15]  lookupStabilitySig:vector  ETV
489209	27048 161 1355 3170 20.816 22.230878153357 4 -0.60000002384186 0.79999999701977 1.5571428239346 1.9438775666514
vector 489210  Network.dyn_peer[15]  lookupTimeSig:vector  ETV
489210	27209 109 1355 3170 20.816 22.230878153357 4 0.3 0.8 2.2 1.38
vector 489256  Network.dyn_peer[31]  lookupHopsSig:vector  ETV
489256	34335 72 1377 3569 20.832 22.638861314796 3 7 9 24 194
vector 489257  Network.dyn_peer[31]  lookupStabilitySig:vector  ETV
489257	34407 118 1377 3569 20.832 22.638861314796 3 -0.60000002384186 0.79069767892361 0.55433402955532 1.1174342609057
vector 489258  Network.dyn_peer[31]  lookupTimeSig:vector  ETV
489258	34525 76 1377 3569 20.832 22.638861314796 3 0.8 1 2.6 2.28
vector 489328  Network.dyn_peer[55]  lookupHopsSig:vector  ETV
489328	45111 43 1412 2963 20.856 22.056 2 8 11 19 185
vector 489329  Network.dyn_peer[55]  lookupStabilitySig:vector  ETV
489329	45154 73 1412 2963 20.856 22.056 2 -0.60000002384186 0.47619044780731 -0.12380957603455 0.58675737119316
vector 489330  Network.dyn_peer[55]  lookupTimeSig:vector  ETV
489330	45227 46 1412 2963 20.856 22.056 2 0.8 1.2 2 2.08
vector 489382  Network.dyn_peer[73]  lookupHopsSig:vector  ETV
489382	52996 72 1440 3227 20.874 22.278694545441 3 5 8 20 138
vector 489383  Network.dyn_peer[73]  lookupStabilitySig:vector  ETV
489383	53068 118 1440 3227 20.874 22.278694545441 3 -0.60000002384186 0.84848484396935 0.71002325415612 1.2929442851415
vector 489384  Network.dyn_peer[73]  lookupTimeSig:vector  ETV
489384	53186 78 1440 3227 20.874 22.278694545441 3 0.6 0.8 2.2 1.64
vector 489451  Network.dyn_peer[96]  lookupHopsSig:vector  ETV
489451	64868 162 1467 4322 20.897 23.721552842547 6 3 9 31 195
vector 489452  Network.dyn_peer[96]  lookupStabilitySig:vector  ETV
489452	65030 252 1467 4322 20.897 23.721552842547 6 -0.60000002384186 0.95652173832059 3.4688824079931 3.9345004579553
vector 489453  Network.dyn_peer[96]  lookupTimeSig:vector  ETV
489453	65282 172 1467 4322 20.897 23.721552842547 6 0.4 1 3.6 2.46
vector 489292  Network.dyn_peer[43]  lookupHopsSig:vector  ETV
489292	40427 134 1521 4875 20.944 25.162989474824 5 6 14 47 483
vector 489293  Network.dyn_peer[43]  lookupStabilitySig:vector  ETV
489293	40561 194 1521 4875 20.944 25.162989474824 5 -0.5 0.92592592537403 2.675304017961 2.8667711903087
vector 489294  Network.dyn_peer[43]  lookupTimeSig:vector  ETV
489294	40755 142 1521 4875 20.944 25.162989474824 5 0.7 1.5 5.1 5.63
vector 489331  Network.dyn_peer[56]  lookupHopsSig:vector  ETV
489331	45273 162 1538 3922 20.957 23.076370236853 6 2 9 25 135
vector 489332  Network.dyn_peer[56]  lookupStabilitySig:vector  ETV
489332	45435 240 1538 3922 20.957 23.076370236853 6 -0.5 0.92857142537832 3.6019291728735 3.7212477335457
vector 489333  Network.dyn_peer[56]  lookupTimeSig:vector  ETV
489333	45675 174 1538 3922 20.957 23.076370236853 6 0.3 0.9 3 1.72
vector 489409  Network.dyn_peer[82]  lookupHopsSig:vector  ETV
489409	57575 72 1572 2866 20.983 21.985747872585 3 3 9 17 115
vector 489410  Network.dyn_peer[82]  lookupStabilitySig:vector  ETV
489410	57647 105 1572 2866 20.983 21.985747872585 3 -0.5 0.82352940738201 0.86898393929005 1.225721331202
vector 489411  Network.dyn_peer[82]  lookupTimeSig:vector  ETV
489411	57752 78 1572 2866 20.983 21.985747872585 3 0.4 0.9 1.9 1.33
vector 489415  Network.dyn_peer[84]  lookupHopsSig:vector  ETV
489415	58633 223 1578 4928 20.985 25.310613230976 8 2 14 45 385
vector 489416  Network.dyn_peer[84]  lookupStabilitySig:vector  ETV
489416	58856 330 1578 4928 20.985 25.310613230976 8 -0.5 0.97530864179134 5.8343869559467 6.0662022758352
vector 489417  Network.dyn_peer[84]  lookupTimeSig:vector  ETV
489417	59186 238 1578 4928 20.985 25.310613230976 8 0.3 1.5 5.2 4.64
vector 489178  Network.dyn_peer[5]  lookupHopsSig:vector  ETV