file 65442 1369522314                                           
version 2
run Stability2-151-20130526-00:51:53-26640
attr configname Stability2
attr datetime 20130526-00:51:53
attr experiment Stability2
attr inifile omnetpp.ini
attr iterationvars $0=100
attr iterationvars2 "$0=100, $repetition=1"
attr measurement $0=100
attr network Network
attr processid 26640
attr repetition 1
attr replication #1
attr resultdir results
attr runnumber 151
attr seedset 151

vector 456151  Network.churner  inGoingSizeSig:vector  ETV
vector 453154  Network.dyn_peer[1]  lookupHopsSig:vector  ETV
vector 453155  Network.dyn_peer[1]  lookupStabilitySig:vector  ETV
vector 453156  Network.dyn_peer[1]  lookupTimeSig:vector  ETV
vector 453175  Network.dyn_peer[8]  lookupHopsSig:vector  ETV
vector 453176  Network.dyn_peer[8]  lookupStabilitySig:vector  ETV
vector 453177  Network.dyn_peer[8]  lookupTimeSig:vector  ETV
vector 453193  Network.dyn_peer[14]  lookupHopsSig:vector  ETV
vector 453194  Network.dyn_peer[14]  lookupStabilitySig:vector  ETV
vector 453195  Network.dyn_peer[14]  lookupTimeSig:vector  ETV
vector 453268  Network.dyn_peer[39]  lookupHopsSig:vector  ETV
vector 453269  Network.dyn_peer[39]  lookupStabilitySig:vector  ETV
vector 453270  Network.dyn_peer[39]  lookupTimeSig:vector  ETV
vector 453274  Network.dyn_peer[41]  lookupHopsSig:vector  ETV
vector 453275  Network.dyn_peer[41]  lookupStabilitySig:vector  ETV
vector 453276  Network.dyn_peer[41]  lookupTimeSig:vector  ETV
vector 453280  Network.dyn_peer[43]  lookupHopsSig:vector  ETV
vector 453281  Network.dyn_peer[43]  lookupStabilitySig:vector  ETV
vector 453282  Network.dyn_peer[43]  lookupTimeSig:vector  ETV
vector 453316  Network.dyn_peer[55]  lookupHopsSig:vector  ETV
vector 453317  Network.dyn_peer[55]  lookupStabilitySig:vector  ETV
vector 453318  Network.dyn_peer[55]  lookupTimeSig:vector  ETV
vector 453325  Network.dyn_peer[58]  lookupHopsSig:vector  ETV
vector 453326  Network.dyn_peer[58]  lookupStabilitySig:vector  ETV
vector 453327  Network.dyn_peer[58]  lookupTimeSig:vector  ETV
vector 453364  Network.dyn_peer[71]  lookupHopsSig:vector  ETV
vector 453365  Network.dyn_peer[71]  lookupStabilitySig:vector  ETV
vector 453366  Network.dyn_peer[71]  lookupTimeSig:vector  ETV
vector 453376  Network.dyn_peer[75]  lookupHopsSig:vector  ETV
vector 453377  Network.dyn_peer[75]  lookupStabilitySig:vector  ETV
vector 453378  Network.dyn_peer[75]  lookupTimeSig:vector  ETV
vector 453412  Network.dyn_peer[87]  lookupHopsSig:vector  ETV
vector 453413  Network.dyn_peer[87]  lookupStabilitySig:vector  ETV
vector 453414  Network.dyn_peer[87]  lookupTimeSig:vector  ETV
vector 453418  Network.dyn_peer[89]  lookupHopsSig:vector  ETV
vector 453419  Network.dyn_peer[89]  lookupStabilitySig:vector  ETV
vector 453420  Network.dyn_peer[89]  lookupTimeSig:vector  ETV
vector 453427  Network.dyn_peer[92]  lookupHopsSig:vector  ETV
vector 453428  Network.dyn_peer[92]  lookupStabilitySig:vector  ETV
vector 453429  Network.dyn_peer[92]  lookupTimeSig:vector  ETV
vector 453433  Network.dyn_peer[94]  lookupHopsSig:vector  ETV
vector 453434  Network.dyn_peer[94]  lookupStabilitySig:vector  ETV
vector 453435  Network.dyn_peer[94]  lookupTimeSig:vector  ETV
vector 453436  Network.dyn_peer[95]  lookupHopsSig:vector  ETV
vector 453437  Network.dyn_peer[95]  lookupStabilitySig:vector  ETV
vector 453438  Network.dyn_peer[95]  lookupTimeSig:vector  ETV
vector 453151  Network.dyn_peer[0]  lookupHopsSig:vector  ETV
vector 453152  Network.dyn_peer[0]  lookupStabilitySig:vector  ETV
vector 453153  Network.dyn_peer[0]  lookupTimeSig:vector  ETV
vector 453217  Network.dyn_peer[22]  lookupHopsSig:vector  ETV
vector 453218  Network.dyn_peer[22]  lookupStabilitySig:vector  ETV
vector 453219  Network.dyn_peer[22]  lookupTimeSig:vector  ETV
vector 453310  Network.dyn_peer[53]  lookupHopsSig:vector  ETV
vector 453311  Network.dyn_peer[53]  lookupStabilitySig:vector  ETV
vector 453312  Network.dyn_peer[53]  lookupTimeSig:vector  ETV
vector 453382  Network.dyn_peer[77]  lookupHopsSig:vector  ETV
vector 453383  Network.dyn_peer[77]  lookupStabilitySig:vector  ETV
vector 453384  Network.dyn_peer[77]  lookupTimeSig:vector  ETV
vector 453385  Network.dyn_peer[78]  lookupHopsSig:vector  ETV
vector 453386  Network.dyn_peer[78]  lookupStabilitySig:vector  ETV
vector 453387  Network.dyn_peer[78]  lookupTimeSig:vector  ETV
vector 453184  Network.dyn_peer[11]  lookupHopsSig:vector  ETV
vector 453185  Network.dyn_peer[11]  lookupStabilitySig:vector  ETV
vector 453186  Network.dyn_peer[11]  lookupTimeSig:vector  ETV
vector 453187  Network.dyn_peer[12]  lookupHopsSig:vector  ETV
vector 453188  Network.dyn_peer[12]  lookupStabilitySig:vector  ETV
vector 453189  Network.dyn_peer[12]  lookupTimeSig:vector  ETV
vector 453199  Network.dyn_peer[16]  lookupHopsSig:vector  ETV
vector 453200  Network.dyn_peer[16]  lookupStabilitySig:vector  ETV
vector 453201  Network.dyn_peer[16]  lookupTimeSig:vector  ETV
vector 453205  Network.dyn_peer[18]  lookupHopsSig:vector  ETV
vector 453206  Network.dyn_peer[18]  lookupStabilitySig:vector  ETV
vector 453207  Network.dyn_peer[18]  lookupTimeSig:vector  ETV
vector 453229  Network.dyn_peer[26]  lookupHopsSig:vector  ETV
vector 453230  Network.dyn_peer[26]  lookupStabilitySig:vector  ETV
vector 453231  Network.dyn_peer[26]  lookupTimeSig:vector  ETV
vector 453340  Network.dyn_peer[63]  lookupHopsSig:vector  ETV
vector 453341  Network.dyn_peer[63]  lookupStabilitySig:vector  ETV
vector 453342  Network.dyn_peer[63]  lookupTimeSig:vector  ETV
vector 453157  Network.dyn_peer[2]  lookupHopsSig:vector  ETV
vector 453158  Network.dyn_peer[2]  lookupStabilitySig:vector  ETV
vector 453159  Network.dyn_peer[2]  lookupTimeSig:vector  ETV
vector 453208  Network.dyn_peer[19]  lookupHopsSig:vector  ETV
vector 453209  Network.dyn_peer[19]  lookupStabilitySig:vector  ETV
vector 453210  Network.dyn_peer[19]  lookupTimeSig:vector  ETV
vector 453211  Network.dyn_peer[20]  lookupHopsSig:vector  ETV
vector 453212  Network.dyn_peer[20]  lookupStabilitySig:vector  ETV
vector 453213  Network.dyn_peer[20]  lookupTimeSig:vector  ETV
vector 453223  Network.dyn_peer[24]  lookupHopsSig:vector  ETV
vector 453224  Network.dyn_peer[24]  lookupStabilitySig:vector  ETV
vector 453225  Network.dyn_peer[24]  lookupTimeSig:vector  ETV
vector 453277  Network.dyn_peer[42]  lookupHopsSig:vector  ETV
vector 453278  Network.dyn_peer[42]  lookupStabilitySig:vector  ETV
vector 453279  Network.dyn_peer[42]  lookupTimeSig:vector  ETV
vector 453298  Network.dyn_peer[49]  lookupHopsSig:vector  ETV
vector 453299  Network.dyn_peer[49]  lookupStabilitySig:vector  ETV
vector 453300  Network.dyn_peer[49]  lookupTimeSig:vector  ETV
vector 453361  Network.dyn_peer[70]  lookupHopsSig:vector  ETV
vector 453362  Network.dyn_peer[70]  lookupStabilitySig:vector  ETV
vector 453363  Network.dyn_peer[70]  lookupTimeSig:vector  ETV
vector 453166  Network.dyn_peer[5]  lookupHopsSig:vector  ETV
vector 453167  Network.dyn_peer[5]  lookupStabilitySig:vector  ETV
vector 453168  Network.dyn_peer[5]  lookupTimeSig:vector  ETV
vector 453181  Network.dyn_peer[10]  lookupHopsSig:vector  ETV
vector 453182  Network.dyn_peer[10]  lookupStabilitySig:vector  ETV
vector 453183  Network.dyn_peer[10]  lookupTimeSig:vector  ETV
vector 453247  Network.dyn_peer[32]  lookupHopsSig:vector  ETV
vector 453248  Network.dyn_peer[32]  lookupStabilitySig:vector  ETV
vector 453249  Network.dyn_peer[32]  lookupTimeSig:vector  ETV
vector 453265  Network.dyn_peer[38]  lookupHopsSig:vector  ETV
vector 453266  Network.dyn_peer[38]  lookupStabilitySig:vector  ETV
vector 453267  Network.dyn_peer[38]  lookupTimeSig:vector  ETV
vector 453352  Network.dyn_peer[67]  lookupHopsSig:vector  ETV
vector 453353  Network.dyn_peer[67]  lookupStabilitySig:vector  ETV
vector 453354  Network.dyn_peer[67]  lookupTimeSig:vector  ETV
vector 453379  Network.dyn_peer[76]  lookupHopsSig:vector  ETV
vector 453380  Network.dyn_peer[76]  lookupStabilitySig:vector  ETV
vector 453381  Network.dyn_peer[76]  lookupTimeSig:vector  ETV
vector 453403  Network.dyn_peer[84]  lookupHopsSig:vector  ETV
vector 453404  Network.dyn_peer[84]  lookupStabilitySig:vector  ETV
vector 453405  Network.dyn_peer[84]  lookupTimeSig:vector  ETV
vector 453442  Network.dyn_peer[97]  lookupHopsSig:vector  ETV
vector 453443  Network.dyn_peer[97]  lookupStabilitySig:vector  ETV
vector 453444  Network.dyn_peer[97]  lookupTimeSig:vector  ETV
vector 453220  Network.dyn_peer[23]  lookupHopsSig:vector  ETV
vector 453221  Network.dyn_peer[23]  lookupStabilitySig:vector  ETV
vector 453222  Network.dyn_peer[23]  lookupTimeSig:vector  ETV
vector 453226  Network.dyn_peer[25]  lookupHopsSig:vector  ETV
vector 453227  Network.dyn_peer[25]  lookupStabilitySig:vector  ETV
vector 453228  Network.dyn_peer[25]  lookupTimeSig:vector  ETV
vector 453253  Network.dyn_peer[34]  lookupHopsSig:vector  ETV
vector 453254  Network.dyn_peer[34]  lookupStabilitySig:vector  ETV
vector 453255  Network.dyn_peer[34]  lookupTimeSig:vector  ETV
vector 453262  Network.dyn_peer[37]  lookupHopsSig:vector  ETV
vector 453263  Network.dyn_peer[37]  lookupStabilitySig:vector  ETV
vector 453264  Network.dyn_peer[37]  lookupTimeSig:vector  ETV
vector 453307  Network.dyn_peer[52]  lookupHopsSig:vector  ETV
vector 453308  Network.dyn_peer[52]  lookupStabilitySig:vector  ETV
vector 453309  Network.dyn_peer[52]  lookupTimeSig:vector  ETV
vector 453322  Network.dyn_peer[57]  lookupHopsSig:vector  ETV
vector 453323  Network.dyn_peer[57]  lookupStabilitySig:vector  ETV
vector 453324  Network.dyn_peer[57]  lookupTimeSig:vector  ETV
vector 453406  Network.dyn_peer[85]  lookupHopsSig:vector  ETV
vector 453407  Network.dyn_peer[85]  lookupStabilitySig:vector  ETV
vector 453408  Network.dyn_peer[85]  lookupTimeSig:vector  ETV
vector 453337  Network.dyn_peer[62]  lookupHopsSig:vector  ETV
vector 453338  Network.dyn_peer[62]  lookupStabilitySig:vector  ETV
vector 453339  Network.dyn_peer[62]  lookupTimeSig:vector  ETV
vector 453367  Network.dyn_peer[72]  lookupHopsSig:vector  ETV
vector 453368  Network.dyn_peer[72]  lookupStabilitySig:vector  ETV
vector 453369  Network.dyn_peer[72]  lookupTimeSig:vector  ETV
vector 453259  Network.dyn_peer[36]  lookupHopsSig:vector  ETV
vector 453260  Network.dyn_peer[36]  lookupStabilitySig:vector  ETV
vector 453261  Network.dyn_peer[36]  lookupTimeSig:vector  ETV
vector 453283  Network.dyn_peer[44]  lookupHopsSig:vector  ETV
vector 453284  Network.dyn_peer[44]  lookupStabilitySig:vector  ETV
vector 453285  Network.dyn_peer[44]  lookupTimeSig:vector  ETV
vector 453289  Network.dyn_peer[46]  lookupHopsSig:vector  ETV
vector 453290  Network.dyn_peer[46]  lookupStabilitySig:vector  ETV
vector 453291  Network.dyn_peer[46]  lookupTimeSig:vector  ETV
vector 453178  Network.dyn_peer[9]  lookupHopsSig:vector  ETV
vector 453179  Network.dyn_peer[9]  lookupStabilitySig:vector  ETV
vector 453180  Network.dyn_peer[9]  lookupTimeSig:vector  ETV
vector 453241  Network.dyn_peer[30]  lookupHopsSig:vector  ETV
vector 453242  Network.dyn_peer[30]  lookupStabilitySig:vector  ETV
vector 453243  Network.dyn_peer[30]  lookupTimeSig:vector  ETV
vector 453271  Network.dyn_peer[40]  lookupHopsSig:vector  ETV
vector 453272  Network.dyn_peer[40]  lookupStabilitySig:vector  ETV
vector 453273  Network.dyn_peer[40]  lookupTimeSig:vector  ETV
vector 453292  Network.dyn_peer[47]  lookupHopsSig:vector  ETV
vector 453293  Network.dyn_peer[47]  lookupStabilitySig:vector  ETV
vector 453294  Network.dyn_peer[47]  lookupTimeSig:vector  ETV
vector 453319  Network.dyn_peer[56]  lookupHopsSig:vector  ETV
vector 453320  Network.dyn_peer[56]  lookupStabilitySig:vector  ETV
vector 453321  Network.dyn_peer[56]  lookupTimeSig:vector  ETV
vector 453331  Network.dyn_peer[60]  lookupHopsSig:vector  ETV
vector 453332  Network.dyn_peer[60]  lookupStabilitySig:vector  ETV
vector 453333  Network.dyn_peer[60]  lookupTimeSig:vector  ETV
vector 453397  Network.dyn_peer[82]  lookupHopsSig:vector  ETV
vector 453398  Network.dyn_peer[82]  lookupStabilitySig:vector  ETV
vector 453399  Network.dyn_peer[82]  lookupTimeSig:vector  ETV
vector 453430  Network.dyn_peer[93]  lookupHopsSig:vector  ETV
vector 453431  Network.dyn_peer[93]  lookupStabilitySig:vector  ETV
vector 453432  Network.dyn_peer[93]  lookupTimeSig:vector  ETV
vector 453163  Network.dyn_peer[4]  lookupHopsSig:vector  ETV
vector 453164  Network.dyn_peer[4]  lookupStabilitySig:vector  ETV
vector 453165  Network.dyn_peer[4]  lookupTimeSig:vector  ETV
vector 453196  Network.dyn_peer[15]  lookupHopsSig:vector  ETV
vector 453197  Network.dyn_peer[15]  lookupStabilitySig:vector  ETV
vector 453198  Network.dyn_peer[15]  lookupTimeSig:vector  ETV
vector 453238  Network.dyn_peer[29]  lookupHopsSig:vector  ETV
vector 453239  Network.dyn_peer[29]  lookupStabilitySig:vector  ETV
vector 453240  Network.dyn_peer[29]  lookupTimeSig:vector  ETV
vector 453313  Network.dyn_peer[54]  lookupHopsSig:vector  ETV
vector 453314  Network.dyn_peer[54]  lookupStabilitySig:vector  ETV
vector 453315  Network.dyn_peer[54]  lookupTimeSig:vector  ETV
vector 453334  Network.dyn_peer[61]  lookupHopsSig:vector  ETV
vector 453335  Network.dyn_peer[61]  lookupStabilitySig:vector  ETV
vector 453336  Network.dyn_peer[61]  lookupTimeSig:vector  ETV
vector 453355  Network.dyn_peer[68]  lookupHopsSig:vector  ETV
vector 453356  Network.dyn_peer[68]  lookupStabilitySig:vector  ETV
vector 453357  Network.dyn_peer[68]  lookupTimeSig:vector  ETV
vector 453394  Network.dyn_peer[81]  lookupHopsSig:vector  ETV
vector 453395  Network.dyn_peer[81]  lookupStabilitySig:vector  ETV
vector 453396  Network.dyn_peer[81]  lookupTimeSig:vector  ETV
vector 453415  Network.dyn_peer[88]  lookupHopsSig:vector  ETV
vector 453416  Network.dyn_peer[88]  lookupStabilitySig:vector  ETV
vector 453417  Network.dyn_peer[88]  lookupTimeSig:vector  ETV
vector 453343  Network.dyn_peer[64]  lookupHopsSig:vector  ETV
vector 453344  Network.dyn_peer[64]  lookupStabilitySig:vector  ETV
vector 453345  Network.dyn_peer[64]  lookupTimeSig:vector  ETV
vector 453349  Network.dyn_peer[66]  lookupHopsSig:vector  ETV
vector 453350  Network.dyn_peer[66]  lookupStabilitySig:vector  ETV
vector 453351  Network.dyn_peer[66]  lookupTimeSig:vector  ETV
vector 453358  Network.dyn_peer[69]  lookupHopsSig:vector  ETV
vector 453359  Network.dyn_peer[69]  lookupStabilitySig:vector  ETV
vector 453360  Network.dyn_peer[69]  lookupTimeSig:vector  ETV
vector 453373  Network.dyn_peer[74]  lookupHopsSig:vector  ETV
vector 453374  Network.dyn_peer[74]  lookupStabilitySig:vector  ETV
vector 453375  Network.dyn_peer[74]  lookupTimeSig:vector  ETV
vector 453391  Network.dyn_peer[80]  lookupHopsSig:vector  ETV
vector 453392  Network.dyn_peer[80]  lookupStabilitySig:vector  ETV
vector 453393  Network.dyn_peer[80]  lookupTimeSig:vector  ETV
vector 453169  Network.dyn_peer[6]  lookupHopsSig:vector  ETV
vector 453170  Network.dyn_peer[6]  lookupStabilitySig:vector  ETV
vector 453171  Network.dyn_peer[6]  lookupTimeSig:vector  ETV
vector 453172  Network.dyn_peer[7]  lookupHopsSig:vector  ETV
vector 453173  Network.dyn_peer[7]  lookupStabilitySig:vector  ETV
vector 453174  Network.dyn_peer[7]  lookupTimeSig:vector  ETV
vector 453214  Network.dyn_peer[21]  lookupHopsSig:vector  ETV
vector 453215  Network.dyn_peer[21]  lookupStabilitySig:vector  ETV
vector 453216  Network.dyn_peer[21]  lookupTimeSig:vector  ETV
vector 453286  Network.dyn_peer[45]  lookupHopsSig:vector  ETV
vector 453287  Network.dyn_peer[45]  lookupStabilitySig:vector  ETV
vector 453288  Network.dyn_peer[45]  lookupTimeSig:vector  ETV
vector 453346  Network.dyn_peer[65]  lookupHopsSig:vector  ETV
vector 453347  Network.dyn_peer[65]  lookupStabilitySig:vector  ETV
vector 453348  Network.dyn_peer[65]  lookupTimeSig:vector  ETV
vector 453400  Network.dyn_peer[83]  lookupHopsSig:vector  ETV
vector 453401  Network.dyn_peer[83]  lookupStabilitySig:vector  ETV
vector 453402  Network.dyn_peer[83]  lookupTimeSig:vector  ETV
vector 453424  Network.dyn_peer[91]  lookupHopsSig:vector  ETV
vector 453425  Network.dyn_peer[91]  lookupStabilitySig:vector  ETV
vector 453426  Network.dyn_peer[91]  lookupTimeSig:vector  ETV
vector 453445  Network.dyn_peer[98]  lookupHopsSig:vector  ETV
vector 453446  Network.dyn_peer[98]  lookupStabilitySig:vector  ETV
vector 453447  Network.dyn_peer[98]  lookupTimeSig:vector  ETV
vector 453448  Network.dyn_peer[99]  lookupHopsSig:vector  ETV
vector 453449  Network.dyn_peer[99]  lookupStabilitySig:vector  ETV
vector 453450  Network.dyn_peer[99]  lookupTimeSig:vector  ETV
vector 453202  Network.dyn_peer[17]  lookupHopsSig:vector  ETV
vector 453203  Network.dyn_peer[17]  lookupStabilitySig:vector  ETV
vector 453204  Network.dyn_peer[17]  lookupTimeSig:vector  ETV
vector 453232  Network.dyn_peer[27]  lookupHopsSig:vector  ETV
vector 453233  Network.dyn_peer[27]  lookupStabilitySig:vector  ETV
vector 453234  Network.dyn_peer[27]  lookupTimeSig:vector  ETV
vector 453235  Network.dyn_peer[28]  lookupHopsSig:vector  ETV
vector 453236  Network.dyn_peer[28]  lookupStabilitySig:vector  ETV
vector 453237  Network.dyn_peer[28]  lookupTimeSig:vector  ETV
vector 453328  Network.dyn_peer[59]  lookupHopsSig:vector  ETV
vector 453329  Network.dyn_peer[59]  lookupStabilitySig:vector  ETV
vector 453330  Network.dyn_peer[59]  lookupTimeSig:vector  ETV
vector 453439  Network.dyn_peer[96]  lookupHopsSig:vector  ETV
vector 453440  Network.dyn_peer[96]  lookupStabilitySig:vector  ETV
vector 453441  Network.dyn_peer[96]  lookupTimeSig:vector  ETV
vector 453190  Network.dyn_peer[13]  lookupHopsSig:vector  ETV
vector 453191  Network.dyn_peer[13]  lookupStabilitySig:vector  ETV
vector 453192  Network.dyn_peer[13]  lookupTimeSig:vector  ETV
vector 453250  Network.dyn_peer[33]  lookupHopsSig:vector  ETV
vector 453251  Network.dyn_peer[33]  lookupStabilitySig:vector  ETV
vector 453252  Network.dyn_peer[33]  lookupTimeSig:vector  ETV
vector 453301  Network.dyn_peer[50]  lookupHopsSig:vector  ETV
vector 453302  Network.dyn_peer[50]  lookupStabilitySig:vector  ETV
vector 453303  Network.dyn_peer[50]  lookupTimeSig:vector  ETV
vector 453388  Network.dyn_peer[79]  lookupHopsSig:vector  ETV
vector 453389  Network.dyn_peer[79]  lookupStabilitySig:vector  ETV
vector 453390  Network.dyn_peer[79]  lookupTimeSig:vector  ETV
vector 453421  Network.dyn_peer[90]  lookupHopsSig:vector  ETV
vector 453422  Network.dyn_peer[90]  lookupStabilitySig:vector  ETV
vector 453423  Network.dyn_peer[90]  lookupTimeSig:vector  ETV
vector 453244  Network.dyn_peer[31]  lookupHopsSig:vector  ETV
vector 453245  Network.dyn_peer[31]  lookupStabilitySig:vector  ETV
vector 453246  Network.dyn_peer[31]  lookupTimeSig:vector  ETV
vector 453160  Network.dyn_peer[3]  lookupHopsSig:vector  ETV
vector 453161  Network.dyn_peer[3]  lookupStabilitySig:vector  ETV
vector 453162  Network.dyn_peer[3]  lookupTimeSig:vector  ETV
vector 453256  Network.dyn_peer[35]  lookupHopsSig:vector  ETV
vector 453257  Network.dyn_peer[35]  lookupStabilitySig:vector  ETV
vector 453258  Network.dyn_peer[35]  lookupTimeSig:vector  ETV
vector 453295  Network.dyn_peer[48]  lookupHopsSig:vector  ETV
vector 453296  Network.dyn_peer[48]  lookupStabilitySig:vector  ETV
vector 453297  Network.dyn_peer[48]  lookupTimeSig:vector  ETV
vector 453304  Network.dyn_peer[51]  lookupHopsSig:vector  ETV
vector 453305  Network.dyn_peer[51]  lookupStabilitySig:vector  ETV
vector 453306  Network.dyn_peer[51]  lookupTimeSig:vector  ETV
vector 453409  Network.dyn_peer[86]  lookupHopsSig:vector  ETV
vector 453410  Network.dyn_peer[86]  lookupStabilitySig:vector  ETV
vector 453411  Network.dyn_peer[86]  lookupTimeSig:vector  ETV
vector 453370  Network.dyn_peer[73]  lookupHopsSig:vector  ETV
vector 453371  Network.dyn_peer[73]  lookupStabilitySig:vector  ETV
vector 453372  Network.dyn_peer[73]  lookupTimeSig:vector  ETV
453151	19827 132 387 3188 20.101 22.317789985114 5 1 11 19 141
453152	19959 207 387 3188 20.101 22.317789985114 5 0.083333313465118 0.97619047574699 3.635585559532 3.1789981341156
453153	20166 141 387 3188 20.101 22.317789985114 5 0.1 1.2 2.3 1.81
453154	20307 189 21 4269 20.002 24.001712200115 7 0 9 31 197
453155	20496 269 21 4269 20.002 24.001712200115 7 0.39999997615814 1 5.168218113482 4.1979186130163
453156	20765 199 21 4269 20.002 24.001712200115 7 0 1 3.7 2.65
453157	20964 99 644 2446 20.303 21.6210554001 4 2 6 13 53
453158	21063 146 644 2446 20.303 21.6210554001 4 0.39999997615814 0.88888888806105 2.3888888582587 1.5601234290924
453159	21209 107 644 2446 20.303 21.6210554001 4 0.3 0.7 1.6 0.76
453160	21316 254 2428 4690 21.604 28.121774760792 9 3 16 73 741
453161	21570 386 2428 4690 21.604 28.121774760792 9 0.11111110448837 0.97087378613651 7.4178859200329 6.7102130393109
453162	21956 269 2428 4690 21.604 28.121774760792 9 0.4 1.6 8.1 8.63
453163	22225 163 1565 4315 21.005 24.131124684271 6 2 14 36 334
453164	22388 251 1565 4315 21.005 24.131124684271 6 -0.66666662693024 0.96825396642089 3.8646269403398 4.6034177284094
453165	22639 171 1565 4315 21.005 24.131124684271 6 0.3 1.5 4.1 3.91
453166	22810 250 788 4518 20.406 25.050130193342 9 1 13 42 300
453167	23060 383 788 4518 20.406 25.050130193342 9 0.19999998807907 0.98749999981374 7.2628028700128 6.5139723543116
453168	23443 267 788 4518 20.406 25.050130193342 9 0.2 1.4 5 3.84
453169	23710 104 1874 4194 21.207 23.815379177527 4 3 12 35 355
453170	23814 163 1874 4194 21.207 23.815379177527 4 -0.20000004768372 0.93877550959587 2.3745349645615 2.2628313968692
453171	23977 108 1874 4194 21.207 23.815379177527 4 0.4 1.2 3.8 4.04
453172	24085 73 1879 2904 21.208 22.017617150791 3 1 12 18 170
453173	24158 109 1879 2904 21.208 22.017617150791 3 -0.20000004768372 0.92857142537832 1.5723213776946 1.6141589736026
453174	24267 78 1879 2904 21.208 22.017617150791 3 0.2 1.2 2 1.84
453175	24345 100 48 3437 20.009 22.622239841538 4 0 17 23 309
453176	24445 144 48 3437 20.009 22.622239841538 4 0.19999998807907 1 2.4530611932278 1.8264889335344
453177	24589 105 48 3437 20.009 22.622239841538 4 0 1.8 2.6 3.58
453178	24694 71 1426 3745 20.91 23.013081525124 3 8 11 28 266
453179	24765 116 1426 3745 20.91 23.013081525124 3 -0.79999995231628 0.81355932354927 0.6657332777977 1.7272095010439
453180	24881 76 1426 3745 20.91 23.013081525124 3 0.9 1.2 3 3.06
453181	24957 102 797 3680 20.411 22.927309462684 4 4 10 26 188
453182	25059 161 797 3680 20.411 22.927309462684 4 0.19999998807907 0.89285714179277 2.3546218052506 1.7292440135476
453183	25220 109 797 3680 20.411 22.927309462684 4 0.4 1.1 2.9 2.35
453184	25329 71 524 2688 20.212 21.818898141033 3 2 9 16 110
453185	25400 116 524 2688 20.212 21.818898141033 3 0.10000002384186 0.78260870277882 1.4826087206602 0.98247637928096
453186	25516 75 524 2688 20.212 21.818898141033 3 0.2 1 1.8 1.4
453187	25591 192 529 4571 20.213 25.437044357226 7 2 23 48 652
453188	25783 295 529 4571 20.213 25.437044357226 7 0.5306122303009 0.96938775479794 5.8515097126365 5.1003890218982
453189	26078 205 529 4571 20.213 25.437044357226 7 0.2 2.4 5.4 7.5
453190	26283 103 2173 3753 21.414 23.023826557948 4 3 14 27 257
453191	26386 162 2173 3753 21.414 23.023826557948 4 0.066666662693024 0.93617021292448 2.774008050561 2.4539424707626
453192	26548 110 2173 3753 21.414 23.023826557948 4 0.4 1.4 3 2.86
453193	26658 109 75 1599 20.015 21.026290958301 4 0 5 7 27
453194	26767 139 75 1599 20.015 21.026290958301 4 0 1 2.633333325386 2.3344444313977
453195	26906 115 75 1599 20.015 21.026290958301 4 0 0.6 1 0.44
453196	27021 133 1583 4162 21.016 23.729256476157 5 4 10 33 247
453197	27154 207 1583 4162 21.016 23.729256476157 5 -0.66666662693024 0.90384615212679 2.7513656616211 3.3766929659528
453198	27361 138 1583 4162 21.016 23.729256476157 5 0.5 1 3.7 2.97
453199	27499 71 539 2182 20.217 21.421271538828 3 2 6 12 56
453200	27570 116 539 2182 20.217 21.421271538828 3 0.19999998807907 0.59999999403954 1.3999999761581 0.75999998092651
453201	27686 77 539 2182 20.217 21.421271538828 3 0.2 0.7 1.4 0.78
453202	27763 192 2033 4416 21.318 24.533602824348 7 2 13 39 311
453203	27955 297 2033 4416 21.318 24.533602824348 7 -0.083333373069763 0.97297297231853 5.4417453575879 5.1167975184908
453204	28252 205 2033 4416 21.318 24.533602824348 7 0.3 1.3 4.5 3.69
453205	28457 103 547 3688 20.219 22.933837425455 4 2 12 26 252
453206	28560 161 547 3688 20.219 22.933837425455 4 0.29411762952805 0.91666666418314 2.6353456899524 1.966684452072
453207	28721 109 547 3688 20.219 22.933837425455 4 0.2 1.3 2.9 3.03
453208	28830 79 673 2064 20.32 21.330756020892 3 1 7 11 59
453209	28909 113 673 2064 20.32 21.330756020892 3 0.125 0.91666666418314 1.4416666403413 1.0159027541512
453210	29022 85 673 2064 20.32 21.330756020892 3 0.2 0.8 1.3 0.77
453211	29107 249 678 4419 20.321 24.543788485855 9 1 8 37 207
453212	29356 384 678 4419 20.321 24.543788485855 9 0.39999997615814 0.98412698321044 7.160882608965 6.1200839182835
453213	29740 267 678 4419 20.321 24.543788485855 9 0.2 0.9 4.5 2.83
453214	30007 73 1899 3519 21.222 22.722088736121 3 4 12 25 241
453215	30080 118 1899 3519 21.222 22.722088736121 3 -0.20000004768372 0.92307692021132 1.4980768784881 1.492696028939
453216	30198 76 1899 3519 21.222 22.722088736121 3 0.5 1.2 2.7 2.69
453217	30274 80 417 2593 20.123 21.732623032118 3 1 9 15 107
453218	30354 115 417 2593 20.123 21.732623032118 3 -0.125 0.79999999701977 1.436904758215 1.2361238603635
453219	30469 84 417 2593 20.123 21.732623032118 3 0.1 1 1.7 1.37
453220	30553 70 952 2920 20.524 22.03069558471 3 4 9 18 122
453221	30623 100 952 2920 20.524 22.03069558471 3 0 0.72727271914482 1.0606060326099 0.64003670587794
453222	30723 74 952 2920 20.524 22.03069558471 3 0.5 1 2 1.5
453223	30797 163 686 4373 20.325 24.354526792728 6 2 14 38 354
453224	30960 251 686 4373 20.325 24.354526792728 6 0.39999997615814 0.96363636478782 4.4900818765163 3.7135401756737
453225	31211 173 686 4373 20.325 24.354526792728 6 0.3 1.5 4.3 4.29
453226	31384 71 958 2704 20.526 21.829237997982 3 4 7 16 90
453227	31455 101 958 2704 20.526 21.829237997982 3 0 0.83333332836628 1.2500000149012 0.86805556383398
453228	31556 77 958 2704 20.526 21.829237997982 3 0.5 0.8 1.8 1.14
453229	31633 131 558 3555 20.227 22.761780840529 5 2 8 23 127
453230	31764 191 558 3555 20.227 22.761780840529 5 0 0.90566037595272 3.1940546482801 2.6064126391683
453231	31955 141 558 3555 20.227 22.761780840529 5 0.2 0.9 2.7 1.73
453232	32096 342 2053 4653 21.328 26.788310177204 12 1 15 56 498
453233	32438 521 2053 4653 21.328 26.788310177204 12 -0.083333373069763 0.99019607808441 10.337402154692 9.9330381502603
453234	32959 364 2053 4653 21.328 26.788310177204 12 0.2 1.6 6.7 5.95
453235	33323 223 2058 4609 21.329 25.875450269401 8 1 13 51 425
453236	33546 343 2058 4609 21.329 25.875450269401 8 -0.083333373069763 0.99000000022352 6.3503313343972 5.9482223490296
453237	33889 237 2058 4609 21.329 25.875450269401 8 0.2 1.3 5.8 5.08
453238	34126 42 1609 3110 21.03 22.23 2 10 11 21 221
453239	34168 71 1609 3110 21.03 22.23 2 -0.42857146263123 0.72499999403954 0.29642853140831 0.70929848993919
453240	34239 42 1609 3110 21.03 22.23 2 1 1.2 2.2 2.44
453241	34281 42 1458 2464 20.931 21.631 2 6 9 15 117
453242	34323 73 1458 2464 20.931 21.631 2 -0.79999995231628 0.68421053886414 -0.11578941345215 1.1081439851988
453243	34396 46 1458 2464 20.931 21.631 2 0.7 0.9 1.6 1.3
453244	34442 104 2334 4016 21.532 23.442961094058 4 2 15 31 359
453245	34546 162 2334 4016 21.532 23.442961094058 4 0.11764705181122 0.95652173832059 2.8138409294188 2.4470370809618
453246	34708 110 2334 4016 21.532 23.442961094058 4 0.3 1.5 3.4 3.94
453247	34818 133 829 4290 20.433 24.055999768728 5 4 10 36 296
453248	34951 206 829 4290 20.433 24.055999768728 5 0.19999998807907 0.93548387289047 3.2520104423165 2.5432743207982
453249	35157 141 829 4290 20.433 24.055999768728 5 0.4 1.1 4 3.64
453250	35298 103 2205 4126 21.434 23.643401180738 4 5 14 33 321
453251	35401 162 2205 4126 21.434 23.643401180738 4 0.17647057771683 0.92105263471603 2.8252698034048 2.3770179361708
453252	35563 110 2205 4126 21.434 23.643401180738 4 0.6 1.4 3.6 3.62
453253	35673 42 973 2469 20.535 21.635 2 5 10 15 125
453254	35715 43 973 2469 20.535 21.635 2 0 0.5 0.5 0.25
453255	35758 45 973 2469 20.535 21.635 2 0.5 1.1 1.6 1.46
453256	35803 132 2474 4295 21.636 24.05946639792 5 3 16 36 366
453257	35935 195 2474 4295 21.636 24.05946639792 5 0.19999998807907 0.94339622557163 3.8580279871821 3.3895806612849
453258	36130 141 2474 4295 21.636 24.05946639792 5 0.4 1.6 4 4.1
453259	36271 103 1339 3897 20.837 23.247593452337 4 2 14 29 289
453260	36374 163 1339 3897 20.837 23.247593452337 4 -0.60000002384186 0.96825396642089 1.8327569775283 2.3712910087586
453261	36537 110 1339 3897 20.837 23.247593452337 4 0.3 1.5 3.2 3.34
453262	36647 42 980 2822 20.538 21.938 2 5 13 18 194
453263	36689 56 980 2822 20.538 21.938 2 0 0.51851850748062 0.51851850748062 0.26886144259993
453264	36745 45 980 2822 20.538 21.938 2 0.5 1.4 1.9 2.21
453265	36790 102 839 3970 20.439 23.355230119101 4 4 11 30 254
453266	36892 161 839 3970 20.439 23.355230119101 4 0.19999998807907 0.91176470369101 2.3817646726966 1.7462148476693
453267	37053 107 839 3970 20.439 23.355230119101 4 0.4 1.2 3.3 3.09
453268	37160 70 158 3384 20.04 22.545680267743 3 0 14 23 277
453269	37230 99 158 3384 20.04 22.545680267743 3 0.17647057771683 1 1.9849812090397 1.6848313057618
453270	37329 71 158 3384 20.04 22.545680267743 3 0 1.5 2.5 3.25
453271	37400 223 1472 4617 20.941 25.976318461058 8 2 19 52 566
453272	37623 343 1472 4617 20.941 25.976318461058 8 -0.79999995231628 0.97916666604578 5.4583283197135 6.3013077233037
453273	37966 236 1472 4617 20.941 25.976318461058 8 0.3 2 5.9 6.59
453274	38202 100 168 2962 20.042 22.070387123939 4 0 8 17 105
453275	38302 144 168 2962 20.042 22.070387123939 4 0.19999998807907 1 2.5823529213667 2.0477854500366
453276	38446 106 168 2962 20.042 22.070387123939 4 0 0.9 2 1.42
453277	38552 159 709 3847 20.343 23.16740498227 6 2 7 26 140