file 408981 1369674131                                          
version 2
run Stability2-279-20130526-00:53:46-26640
attr configname Stability2
attr datetime 20130526-00:53:46
attr experiment Stability2
attr inifile omnetpp.ini
attr iterationvars $0=500
attr iterationvars2 "$0=500, $repetition=9"
attr measurement $0=500
attr network Network
attr processid 26640
attr repetition 9
attr replication #9
attr resultdir results
attr runnumber 279
attr seedset 279
vector 840279  Network.churner  inGoingSizeSig:vector  ETV
840279	397886 11095 11 2850 20 20.5 501 0 499 124750 41541750
vector 837282  Network.dyn_peer[1]  lookupHopsSig:vector  ETV
837282	99326 166 21 45090 20.002 30.627146585607 6 0 54 101 3649
vector 837283  Network.dyn_peer[1]  lookupStabilitySig:vector  ETV
837283	99492 237 21 45090 20.002 30.627146585607 6 -1.1666667461395 1 3.4839993445203 5.7282201703387
vector 837284  Network.dyn_peer[1]  lookupTimeSig:vector  ETV
837284	99729 173 21 45090 20.002 30.627146585607 6 0 5.5 10.6 38.56
vector 837285  Network.dyn_peer[2]  lookupHopsSig:vector  ETV
837285	99902 102 28 32538 20.003 26.162070494209 4 0 40 55 1717
vector 837286  Network.dyn_peer[2]  lookupStabilitySig:vector  ETV
837286	100004 137 28 32538 20.003 26.162070494209 4 -0.20000004768372 1 1.4622339904308 1.6753624498396
vector 837287  Network.dyn_peer[2]  lookupTimeSig:vector  ETV
837287	100141 105 28 32538 20.003 26.162070494209 4 0 4.1 5.8 18.3
vector 837309  Network.dyn_peer[10]  lookupHopsSig:vector  ETV
837309	104951 42 59 43376 20.011 29.711 2 0 96 96 9216
vector 837310  Network.dyn_peer[10]  lookupStabilitySig:vector  ETV
837310	104993 56 59 43376 20.011 29.711 2 0.72957745194435 1 1.7295774519443 1.5322832583856
vector 837311  Network.dyn_peer[10]  lookupTimeSig:vector  ETV
837311	105049 43 59 43376 20.011 29.711 2 0 9.7 9.7 94.09
vector 837315  Network.dyn_peer[12]  lookupHopsSig:vector  ETV
837315	105582 164 69 30476 20.013 25.675109927697 6 0 10 35 285
vector 837316  Network.dyn_peer[12]  lookupStabilitySig:vector  ETV
837316	105746 239 69 30476 20.013 25.675109927697 6 -0.79999995231628 1 3.3383338861168 4.3751898970086
vector 837317  Network.dyn_peer[12]  lookupTimeSig:vector  ETV
837317	105985 171 69 30476 20.013 25.675109927697 6 0 1.1 4 3.6
vector 837324  Network.dyn_peer[15]  lookupHopsSig:vector  ETV
837324	107245 135 82 18256 20.016 23.237405934109 5 0 17 28 358
vector 837325  Network.dyn_peer[15]  lookupStabilitySig:vector  ETV
837325	107380 195 82 18256 20.016 23.237405934109 5 -0.54545450210571 1 3.1009993962944 3.6396785742342
vector 837326  Network.dyn_peer[15]  lookupTimeSig:vector  ETV
837326	107575 142 82 18256 20.016 23.237405934109 5 0 1.8 3.2 4.18
vector 837360  Network.dyn_peer[27]  lookupHopsSig:vector  ETV
837360	112431 197 122 32045 20.028 26.049080312269 7 0 17 48 574
vector 837361  Network.dyn_peer[27]  lookupStabilitySig:vector  ETV
837361	112628 269 122 32045 20.028 26.049080312269 7 0 1 4.8204779159278 4.2320804468119
vector 837362  Network.dyn_peer[27]  lookupTimeSig:vector  ETV
837362	112897 205 122 32045 20.028 26.049080312269 7 0 1.8 5.4 6.76
vector 837369  Network.dyn_peer[30]  lookupHopsSig:vector  ETV
837369	114192 293 135 49258 20.031 34.928084582354 10 0 59 132 4448
vector 837370  Network.dyn_peer[30]  lookupStabilitySig:vector  ETV
837370	114485 424 135 49258 20.031 34.928084582354 10 -0.77777779102325 1 7.6733368979767 8.5843292960852
vector 837371  Network.dyn_peer[30]  lookupTimeSig:vector  ETV
837371	114909 304 135 49258 20.031 34.928084582354 10 0 6 14.1 47.21
vector 837375  Network.dyn_peer[32]  lookupHopsSig:vector  ETV
837375	115607 115 145 26655 20.033 24.846912120756 4 0 28 45 933
vector 837376  Network.dyn_peer[32]  lookupStabilitySig:vector  ETV
837376	115722 158 145 26655 20.033 24.846912120756 4 0.22222220897675 1 3.0302984304726 2.68648967186
vector 837377  Network.dyn_peer[32]  lookupTimeSig:vector  ETV
837377	115880 119 145 26655 20.033 24.846912120756 4 0 2.9 4.8 10.26
vector 837390  Network.dyn_peer[37]  lookupHopsSig:vector  ETV
837390	117728 107 164 36626 20.038 27.249537385822 4 0 24 69 1593
vector 837391  Network.dyn_peer[37]  lookupStabilitySig:vector  ETV
837391	117835 150 164 36626 20.038 27.249537385822 4 0.076923072338104 1 2.7914467230439 2.4791527449883
vector 837392  Network.dyn_peer[37]  lookupTimeSig:vector  ETV
837392	117985 110 164 36626 20.038 27.249537385822 4 0 2.5 7.2 17.34
vector 837582  Network.dyn_peer[101]  lookupHopsSig:vector  ETV
837582	154517 106 363 25028 20.102 24.517309031926 4 0 21 41 769
vector 837583  Network.dyn_peer[101]  lookupStabilitySig:vector  ETV
837583	154623 150 363 25028 20.102 24.517309031926 4 -0.10526311397552 1 2.6362976804376 2.5348584331956
vector 837584  Network.dyn_peer[101]  lookupTimeSig:vector  ETV
837584	154773 110 363 25028 20.102 24.517309031926 4 0 2.2 4.4 8.54
vector 837372  Network.dyn_peer[31]  lookupHopsSig:vector  ETV
837372	115213 115 488 36267 20.132 27.148270324093 4 1 38 68 1926
vector 837373  Network.dyn_peer[31]  lookupStabilitySig:vector  ETV
837373	115328 160 488 36267 20.132 27.148270324093 4 0.5 0.92857142537832 3.1423645243049 2.5872627203532
vector 837374  Network.dyn_peer[31]  lookupTimeSig:vector  ETV
837374	115488 119 488 36267 20.132 27.148270324093 4 0.1 3.9 7.1 20.63
vector 837699  Network.dyn_peer[140]  lookupHopsSig:vector  ETV
837699	178220 83 530 36633 20.141 27.25204109771 3 0 43 69 2525
vector 837700  Network.dyn_peer[140]  lookupStabilitySig:vector  ETV
837700	178303 111 530 36633 20.141 27.25204109771 3 0.56122449040413 1 2.4515198469162 2.1075987504563
vector 837701  Network.dyn_peer[140]  lookupTimeSig:vector  ETV
837701	178414 85 530 36633 20.141 27.25204109771 3 0 4.4 7.1 26.65
vector 837402  Network.dyn_peer[41]  lookupHopsSig:vector  ETV
837402	119545 107 536 33635 20.142 26.445859847967 4 1 33 61 1467
vector 837403  Network.dyn_peer[41]  lookupStabilitySig:vector  ETV
837403	119652 164 536 33635 20.142 26.445859847967 4 0.42105263471603 0.94500000029802 3.0492643117905 2.4903731882547
vector 837404  Network.dyn_peer[41]  lookupTimeSig:vector  ETV
837404	119816 112 536 33635 20.142 26.445859847967 4 0.1 3.4 6.4 15.9
vector 837435  Network.dyn_peer[52]  lookupHopsSig:vector  ETV
837435	125969 115 586 41220 20.153 28.762076711418 4 1 43 84 2988
vector 837436  Network.dyn_peer[52]  lookupStabilitySig:vector  ETV
837436	126084 172 586 41220 20.153 28.762076711418 4 0.43103450536728 0.9204545468092 3.0179486721754 2.4237795910438
vector 837437  Network.dyn_peer[52]  lookupTimeSig:vector  ETV
837437	126256 121 586 41220 20.153 28.762076711418 4 0.1 4.4 8.7 31.57
vector 837456  Network.dyn_peer[59]  lookupHopsSig:vector  ETV
837456	129616 83 619 35456 20.16 26.921319360125 3 1 29 56 1518
vector 837457  Network.dyn_peer[59]  lookupStabilitySig:vector  ETV
837457	129699 125 619 35456 20.16 26.921319360125 3 0.35555553436279 0.8812785372138 2.0368340685964 1.5430715934013
vector 837458  Network.dyn_peer[59]  lookupTimeSig:vector  ETV
837458	129824 85 619 35456 20.16 26.921319360125 3 0.1 3 5.8 16.3
vector 837468  Network.dyn_peer[63]  lookupHopsSig:vector  ETV
837468	131485 43 639 25796 20.164 24.664 2 1 44 45 1937
vector 837469  Network.dyn_peer[63]  lookupStabilitySig:vector  ETV
837469	131528 72 639 25796 20.164 24.664 2 0.59999999403954 0.79999999701977 1.3999999910593 0.99999998807908
vector 837470  Network.dyn_peer[63]  lookupTimeSig:vector  ETV
837470	131600 46 639 25796 20.164 24.664 2 0.1 4.5 4.6 20.26
vector 837471  Network.dyn_peer[64]  lookupHopsSig:vector  ETV
837471	131646 106 647 39304 20.165 28.07156663943 4 1 34 77 2111
vector 837472  Network.dyn_peer[64]  lookupStabilitySig:vector  ETV
837472	131752 151 647 39304 20.165 28.07156663943 4 0.25 0.94604316726327 2.828555483371 2.2905744309904
vector 837473  Network.dyn_peer[64]  lookupTimeSig:vector  ETV
837473	131903 111 647 39304 20.165 28.07156663943 4 0.1 3.5 8 22.66
vector 837492  Network.dyn_peer[71]  lookupHopsSig:vector  ETV
837492	137363 73 680 37442 20.172 27.480113617401 3 1 66 72 4382
vector 837493  Network.dyn_peer[71]  lookupStabilitySig:vector  ETV
837493	137436 102 680 37442 20.172 27.480113617401 3 0 0.79999999701977 1.5327935069799 1.1769863234714
vector 837494  Network.dyn_peer[71]  lookupTimeSig:vector  ETV
837494	137538 78 680 37442 20.172 27.480113617401 3 0.1 6.7 7.4 45.26
vector 837504  Network.dyn_peer[75]  lookupHopsSig:vector  ETV
837504	138623 170 700 46887 20.176 31.895099427315 6 1 50 113 3523
vector 837505  Network.dyn_peer[75]  lookupStabilitySig:vector  ETV
837505	138793 255 700 46887 20.176 31.895099427315 6 0.63503649830818 0.9786729849875 5.2405247539282 4.6654639021578
vector 837506  Network.dyn_peer[75]  lookupTimeSig:vector  ETV
837506	139048 174 700 46887 20.176 31.895099427315 6 0.1 5.1 11.8 37.52
vector 837537  Network.dyn_peer[86]  lookupHopsSig:vector  ETV
837537	144148 75 748 25438 20.187 24.596631961027 3 1 32 43 1125
vector 837538  Network.dyn_peer[86]  lookupStabilitySig:vector  ETV
837538	144223 118 748 25438 20.187 24.596631961027 3 0.42857140302658 0.89999999850988 2.1285713985562 1.6336734400416
vector 837539  Network.dyn_peer[86]  lookupTimeSig:vector  ETV
837539	144341 79 748 25438 20.187 24.596631961027 3 0.1 3.3 4.5 12.11
vector 837540  Network.dyn_peer[87]  lookupHopsSig:vector  ETV
837540	144420 104 756 25952 20.188 24.695327199207 4 1 29 43 939
vector 837541  Network.dyn_peer[87]  lookupStabilitySig:vector  ETV
837541	144524 163 756 25952 20.188 24.695327199207 4 0.38297873735428 0.96428571268916 3.0388307087123 2.5114100431046
vector 837542  Network.dyn_peer[87]  lookupTimeSig:vector  ETV
837542	144687 107 756 25952 20.188 24.695327199207 4 0.1 3 4.6 10.26
vector 837870  Network.dyn_peer[197]  lookupHopsSig:vector  ETV
837870	212427 165 803 27625 20.198 25.045259457866 6 0 14 42 446
vector 837871  Network.dyn_peer[197]  lookupStabilitySig:vector  ETV
837871	212592 238 803 27625 20.198 25.045259457866 6 -0.39999997615814 1 3.4365079179406 3.2906852448855
vector 837872  Network.dyn_peer[197]  lookupTimeSig:vector  ETV
837872	212830 173 803 27625 20.198 25.045259457866 6 0 1.5 4.7 5.35
vector 837573  Network.dyn_peer[98]  lookupHopsSig:vector  ETV
837573	152273 323 809 48583 20.199 33.776593240967 11 1 20 97 1209
vector 837574  Network.dyn_peer[98]  lookupStabilitySig:vector  ETV
837574	152596 487 809 48583 20.199 33.776593240967 11 -0.052631616592407 0.99559471383691 9.3779384838417 8.9389270446693
vector 837575  Network.dyn_peer[98]  lookupTimeSig:vector  ETV
837575	153083 340 809 48583 20.199 33.776593240967 11 0.1 2.1 10.7 14.11
vector 837279  Network.dyn_peer[0]  lookupHopsSig:vector  ETV
837279	98627 196 822 33678 20.201 26.454724035985 7 1 22 58 960
vector 837280  Network.dyn_peer[0]  lookupStabilitySig:vector  ETV
837280	98823 298 822 33678 20.201 26.454724035985 7 0.39999997615814 0.90594059228897 4.9560504481197 3.7266239385325
vector 837281  Network.dyn_peer[0]  lookupTimeSig:vector  ETV
837281	99121 205 822 33678 20.201 26.454724035985 7 0.2 2.3 6.4 10.78
vector 837597  Network.dyn_peer[106]  lookupHopsSig:vector  ETV
837597	158056 74 859 18640 20.207 23.309778259841 3 1 21 30 506
vector 837598  Network.dyn_peer[106]  lookupStabilitySig:vector  ETV
837598	158130 119 859 18640 20.207 23.309778259841 3 0.045454561710358 0.83673469722271 1.6821892559528 1.3421910659483
vector 837599  Network.dyn_peer[106]  lookupTimeSig:vector  ETV
837599	158249 79 859 18640 20.207 23.309778259841 3 0.1 2.2 3.2 5.66
vector 837318  Network.dyn_peer[13]  lookupHopsSig:vector  ETV
837318	106156 103 899 38526 20.214 27.81623576154 4 2 63 75 4041
vector 837319  Network.dyn_peer[13]  lookupStabilitySig:vector  ETV
837319	106259 162 899 38526 20.214 27.81623576154 4 0.59999999403954 0.99239543732256 3.2530783517286 2.7616823241967
vector 837320  Network.dyn_peer[13]  lookupTimeSig:vector  ETV
837320	106421 110 899 38526 20.214 27.81623576154 4 0.2 6.4 7.8 41.9
vector 837657  Network.dyn_peer[126]  lookupHopsSig:vector  ETV
837657	169612 258 968 43995 20.227 30.012443043017 9 1 27 78 1286
vector 837658  Network.dyn_peer[126]  lookupStabilitySig:vector  ETV
837658	169870 391 968 43995 20.227 30.012443043017 9 -0.20000004768372 0.96629213541746 6.4448647461831 5.7762038955841
vector 837659  Network.dyn_peer[126]  lookupTimeSig:vector  ETV
837659	170261 270 968 43995 20.227 30.012443043017 9 0.1 2.8 8.6 14.48
vector 837678  Network.dyn_peer[133]  lookupHopsSig:vector  ETV
837678	173703 171 1005 42189 20.234 29.150802171693 6 1 33 85 1905
vector 837679  Network.dyn_peer[133]  lookupStabilitySig:vector  ETV
837679	173874 240 1005 42189 20.234 29.150802171693 6 0.125 0.98828125 4.5440919212997 3.9505566579251
vector 837680  Network.dyn_peer[133]  lookupTimeSig:vector  ETV
837680	174114 179 1005 42189 20.234 29.150802171693 6 0.1 3.4 9 20.78
vector 837681  Network.dyn_peer[134]  lookupHopsSig:vector  ETV
837681	174293 296 1014 46370 20.235 31.478044566778 10 1 26 104 1514
vector 837682  Network.dyn_peer[134]  lookupStabilitySig:vector  ETV
837682	174589 441 1014 46370 20.235 31.478044566778 10 0.27777779102325 0.97510373406112 8.6633157655597 7.9173861125089
vector 837683  Network.dyn_peer[134]  lookupTimeSig:vector  ETV
837683	175030 309 1014 46370 20.235 31.478044566778 10 0.1 2.7 11.3 17.29
vector 837411  Network.dyn_peer[44]  lookupHopsSig:vector  ETV
837411	121694 116 1070 34725 20.245 26.728798664201 4 2 27 53 1053
vector 837412  Network.dyn_peer[44]  lookupStabilitySig:vector  ETV
837412	121810 163 1070 34725 20.245 26.728798664201 4 -0.23076927661896 0.87203791737556 1.9912686347961 1.7362045812194
vector 837413  Network.dyn_peer[44]  lookupTimeSig:vector  ETV
837413	121973 122 1070 34725 20.245 26.728798664201 4 0.2 2.8 5.6 11.58
vector 837735  Network.dyn_peer[152]  lookupHopsSig:vector  ETV
837735	186280 107 1114 38617 20.253 27.848335164077 4 1 31 49 1167
vector 837736  Network.dyn_peer[152]  lookupStabilitySig:vector  ETV
837736	186387 165 1114 38617 20.253 27.848335164077 4 0.41509431600571 0.98477157391608 3.1470356974751 2.6792089891911
vector 837737  Network.dyn_peer[152]  lookupTimeSig:vector  ETV
837737	186552 113 1114 38617 20.253 27.848335164077 4 0.1 3.2 5.2 12.66
vector 837741  Network.dyn_peer[154]  lookupHopsSig:vector  ETV
837741	187051 108 1128 36342 20.255 27.169138049554 4 1 34 67 1677
vector 837742  Network.dyn_peer[154]  lookupStabilitySig:vector  ETV
837742	187159 165 1128 36342 20.255 27.169138049554 4 -0.20000004768372 0.8540772497654 2.2318549752235 2.0143862319014
vector 837743  Network.dyn_peer[154]  lookupTimeSig:vector  ETV
837743	187324 113 1128 36342 20.255 27.169138049554 4 0.1 3.5 7 18.12
vector 837444  Network.dyn_peer[55]  lookupHopsSig:vector  ETV
837444	127689 104 1138 27227 20.256 24.96612736523 4 2 28 46 918
vector 837445  Network.dyn_peer[55]  lookupStabilitySig:vector  ETV
837445	127793 151 1138 27227 20.256 24.96612736523 4 -0.5 0.76859503984451 1.4019283652306 1.4851827704462
vector 837446  Network.dyn_peer[55]  lookupTimeSig:vector  ETV
837446	127944 109 1138 27227 20.256 24.96612736523 4 0.2 2.9 4.9 10.09
vector 837792  Network.dyn_peer[171]  lookupHopsSig:vector  ETV
837792	197539 74 1222 21733 20.272 23.879456811997 3 1 26 35 741
vector 837793  Network.dyn_peer[171]  lookupStabilitySig:vector  ETV
837793	197613 119 1222 21733 20.272 23.879456811997 3 -0.33333337306976 0.79999999701977 1.089855030179 1.139474922492
vector 837794  Network.dyn_peer[171]  lookupTimeSig:vector  ETV
837794	197732 79 1222 21733 20.272 23.879456811997 3 0.1 2.7 3.7 8.11
vector 837516  Network.dyn_peer[79]  lookupHopsSig:vector  ETV
837516	140828 230 1266 42534 20.28 29.306713999623 8 2 26 85 1385
vector 837517  Network.dyn_peer[79]  lookupStabilitySig:vector  ETV
837517	141058 335 1266 42534 20.28 29.306713999623 8 -0.625 0.94146341457963 5.2223161645234 5.3587738395071
vector 837518  Network.dyn_peer[79]  lookupTimeSig:vector  ETV
837518	141393 242 1266 42534 20.28 29.306713999623 8 0.2 2.7 9.2 15.58
vector 837546  Network.dyn_peer[89]  lookupHopsSig:vector  ETV
837546	145730 74 1321 30598 20.29 25.699631275366 3 2 28 54 1364
vector 837547  Network.dyn_peer[89]  lookupStabilitySig:vector  ETV
837547	145804 117 1321 30598 20.29 25.699631275366 3 0.40425533056259 0.85093167424202 1.8551869988441 1.247507079364
vector 837548  Network.dyn_peer[89]  lookupTimeSig:vector  ETV
837548	145921 78 1321 30598 20.29 25.699631275366 3 0.2 2.9 5.6 14.7
vector 837855  Network.dyn_peer[192]  lookupHopsSig:vector  ETV
837855	210858 108 1340 38493 20.293 27.808208779121 4 1 29 73 1779
vector 837856  Network.dyn_peer[192]  lookupStabilitySig:vector  ETV
837856	210966 165 1340 38493 20.293 27.808208779121 4 0.40816324949265 0.90804597735405 2.9795185774565 2.3764477704529
vector 837857  Network.dyn_peer[192]  lookupTimeSig:vector  ETV
837857	211131 109 1340 38493 20.293 27.808208779121 4 0.1 3 7.6 19.26
vector 837561  Network.dyn_peer[94]  lookupHopsSig:vector  ETV
837561	149978 107 1354 38158 20.295 27.703073598045 4 2 29 73 1799
vector 837562  Network.dyn_peer[94]  lookupStabilitySig:vector  ETV
837562	150085 164 1354 38158 20.295 27.703073598045 4 0.40816324949265 0.94163424149156 2.8006262071431 2.1371817902164
vector 837563  Network.dyn_peer[94]  lookupTimeSig:vector  ETV
837563	150249 110 1354 38158 20.295 27.703073598045 4 0.2 3 7.6 19.44
vector 837567  Network.dyn_peer[96]  lookupHopsSig:vector  ETV
837567	151731 73 1368 22890 20.297 24.0978124977 3 2 27 38 814
vector 837568  Network.dyn_peer[96]  lookupStabilitySig:vector  ETV
837568	151804 115 1368 22890 20.297 24.0978124977 3 0.32499998807907 0.886075951159 1.8110759332776 1.2507555763212
vector 837569  Network.dyn_peer[96]  lookupTimeSig:vector  ETV
837569	151919 76 1368 22890 20.297 24.0978124977 3 0.2 2.8 4 8.88
vector 837882  Network.dyn_peer[201]  lookupHopsSig:vector  ETV
837882	215014 76 1400 35646 20.302 26.974056416825 3 1 27 51 1259
vector 837883  Network.dyn_peer[201]  lookupStabilitySig:vector  ETV
837883	215090 119 1400 35646 20.302 26.974056416825 3 0.34146338701248 0.89639639854431 2.0378597825766 1.5601237432249
vector 837884  Network.dyn_peer[201]  lookupTimeSig:vector  ETV
837884	215209 80 1400 35646 20.302 26.974056416825 3 0.1 2.8 5.3 13.61
vector 837291  Network.dyn_peer[4]  lookupHopsSig:vector  ETV
837291	100730 137 1424 40842 20.305 28.611897264941 5 3 36 70 1660
vector 837292  Network.dyn_peer[4]  lookupStabilitySig:vector  ETV
837292	100867 198 1424 40842 20.305 28.611897264941 5 -0.5 0.96860986575484 2.5305165685713 2.7585877419967
vector 837293  Network.dyn_peer[4]  lookupTimeSig:vector  ETV
837293	101065 143 1424 40842 20.305 28.611897264941 5 0.3 3.7 7.4 17.98
vector 838209  Network.dyn_peer[310]  lookupHopsSig:vector  ETV
838209	278627 108 1469 32763 20.311 26.216428971433 4 0 25 56 1118
vector 838210  Network.dyn_peer[310]  lookupStabilitySig:vector  ETV
838210	278735 135 1469 32763 20.311 26.216428971433 4 0 1 2.6473858803511 2.3608177403164
vector 838211  Network.dyn_peer[310]  lookupTimeSig:vector  ETV
838211	278870 111 1469 32763 20.311 26.216428971433 4 0 2.6 5.9 12.33
vector 837312  Network.dyn_peer[11]  lookupHopsSig:vector  ETV
837312	105092 137 1477 39443 20.312 28.116654416921 5 3 31 68 1372
vector 837313  Network.dyn_peer[11]  lookupStabilitySig:vector  ETV
837313	105229 209 1477 39443 20.312 28.116654416921 5 0.39999997615814 0.95422535389662 3.6824111379683 3.0403650938721
vector 837314  Network.dyn_peer[11]  lookupTimeSig:vector  ETV
837314	105438 144 1477 39443 20.312 28.116654416921 5 0.3 3.2 7.2 15.06
vector 837321  Network.dyn_peer[14]  lookupHopsSig:vector  ETV
837321	106531 200 1499 46915 20.315 31.919180073491 7 3 20 70 944
vector 837322  Network.dyn_peer[14]  lookupStabilitySig:vector  ETV
837322	106731 303 1499 46915 20.315 31.919180073491 7 0.090909063816071 0.98817966878414 5.2355405278504 4.68166159808
vector 837323  Network.dyn_peer[14]  lookupTimeSig:vector  ETV
837323	107034 211 1499 46915 20.315 31.919180073491 7 0.3 2.1 7.6 10.84
vector 837354  Network.dyn_peer[25]  lookupHopsSig:vector  ETV
837354	111662 75 1569 17135 20.326 23.036791116307 3 3 16 28 346
vector 837355  Network.dyn_peer[25]  lookupStabilitySig:vector  ETV
837355	111737 120 1569 17135 20.326 23.036791116307 3 -0.14285719394684 0.76923076808453 1.0263735502958 0.77212413335679
vector 837356  Network.dyn_peer[25]  lookupTimeSig:vector  ETV
837356	111857 78 1569 17135 20.326 23.036791116307 3 0.3 1.7 3 3.98
vector 838023  Network.dyn_peer[248]  lookupHopsSig:vector  ETV
838023	244690 356 1710 48876 20.349 34.211989204239 12 1 21 124 1582
vector 838024  Network.dyn_peer[248]  lookupStabilitySig:vector  ETV
838024	245046 514 1710 48876 20.349 34.211989204239 12 0 0.97887323983014 9.5319983121008 8.5763945867586
vector 838025  Network.dyn_peer[248]  lookupTimeSig:vector  ETV
838025	245560 368 1710 48876 20.349 34.211989204239 12 0.1 2.2 13.5 18.39
vector 837426  Network.dyn_peer[49]  lookupHopsSig:vector  ETV
837426	123736 199 1720 41227 20.35 28.764020849771 7 2 36 81 1805
vector 837427  Network.dyn_peer[49]  lookupStabilitySig:vector  ETV
837427	123935 300 1720 41227 20.35 28.764020849771 7 0.39999997615814 0.99378881976008 5.7227254677564 5.0418996925323
vector 837428  Network.dyn_peer[49]  lookupTimeSig:vector  ETV
837428	124235 210 1720 41227 20.35 28.764020849771 7 0.3 3.7 8.7 19.67
vector 837729  Network.dyn_peer[150]  lookupHopsSig:vector  ETV
837729	185086 73 1730 10508 20.351 21.852355357528 3 2 7 15 89
vector 837730  Network.dyn_peer[150]  lookupStabilitySig:vector  ETV
837730	185159 103 1730 10508 20.351 21.852355357528 3 0 0.59999999403954 0.96363636851311 0.49223140568773
vector 837731  Network.dyn_peer[150]  lookupTimeSig:vector  ETV
837731	185262 79 1730 10508 20.351 21.852355357528 3 0.2 0.8 1.7 1.17
vector 837744  Network.dyn_peer[155]  lookupHopsSig:vector  ETV
837744	187437 200 1765 48412 20.356 33.538044253115 7 2 44 119 3409
vector 837745  Network.dyn_peer[155]  lookupStabilitySig:vector  ETV
837745	187637 300 1765 48412 20.356 33.538044253115 7 0.46551722288132 0.97560975700617 5.7675466574729 5.0041094902952
vector 837746  Network.dyn_peer[155]  lookupTimeSig:vector  ETV
837746	187937 210 1765 48412 20.356 33.538044253115 7 0.2 4.5 12.5 36.49
vector 838053  Network.dyn_peer[258]  lookupHopsSig:vector  ETV
838053	252017 74 1787 22176 20.359 23.961747824939 3 1 32 35 1029
vector 838054  Network.dyn_peer[258]  lookupStabilitySig:vector  ETV
838054	252091 118 1787 22176 20.359 23.961747824939 3 0.54929578304291 0.79999999701977 1.9492957741022 1.3017258453478
vector 838055  Network.dyn_peer[258]  lookupTimeSig:vector  ETV
838055	252209 79 1787 22176 20.359 23.961747824939 3 0.1 3.3 3.7 10.99
vector 837762  Network.dyn_peer[161]  lookupHopsSig:vector  ETV
837762	192385 76 1808 30877 20.362 25.767302189269 3 2 28 54 1364
vector 837763  Network.dyn_peer[161]  lookupStabilitySig:vector  ETV
837763	192461 119 1808 30877 20.362 25.767302189269 3 0.27272725105286 0.82822085916996 1.7009481042624 1.1203299378785
vector 837764  Network.dyn_peer[161]  lookupTimeSig:vector  ETV
837764	192580 80 1808 30877 20.362 25.767302189269 3 0.2 2.9 5.6 14.7
vector 837477  Network.dyn_peer[66]  lookupHopsSig:vector  ETV
837477	133037 108 1843 29614 20.367 25.477671827005 4 3 20 51 809
vector 837478  Network.dyn_peer[66]  lookupStabilitySig:vector  ETV
837478	133145 165 1843 29614 20.367 25.477671827005 4 0.16666668653488 0.89542483538389 2.2856209054589 1.6677640859723
vector 837479  Network.dyn_peer[66]  lookupTimeSig:vector  ETV
837479	133310 113 1843 29614 20.367 25.477671827005 4 0.3 2.1 5.4 9.08
vector 837780  Network.dyn_peer[167]  lookupHopsSig:vector  ETV
837780	194584 263 1853 45426 20.368 30.824624901332 9 2 29 96 1516
vector 837781  Network.dyn_peer[167]  lookupStabilitySig:vector  ETV
837781	194847 395 1853 45426 20.368 30.824624901332 9 -0.33333337306976 0.97994269430637 6.4416069816798 6.0438627096626
vector 837782  Network.dyn_peer[167]  lookupTimeSig:vector  ETV
837782	195242 273 1853 45426 20.368 30.824624901332 9 0.2 3 10.4 17.12
vector 838380  Network.dyn_peer[367]  lookupHopsSig:vector  ETV
838380	312473 202 1859 45818 20.368 31.080504006349 7 0 29 93 1731
vector 838381  Network.dyn_peer[367]  lookupStabilitySig:vector  ETV
838381	312675 286 1859 45818 20.368 31.080504006349 7 0.4200000166893 1 6.1399561911821 5.6388773531155
vector 838382  Network.dyn_peer[367]  lookupTimeSig:vector  ETV
838382	312961 207 1859 45818 20.368 31.080504006349 7 0 3 9.9 19.23
vector 838113  Network.dyn_peer[278]  lookupHopsSig:vector  ETV
838113	261180 292 1927 47541 20.379 32.525491848848 10 1 57 113 3887
vector 838114  Network.dyn_peer[278]  lookupStabilitySig:vector  ETV
838114	261472 428 1927 47541 20.379 32.525491848848 10 -0.375 0.99718309869058 7.9379374806303 7.8824788009366
vector 838115  Network.dyn_peer[278]  lookupTimeSig:vector  ETV
838115	261900 309 1927 47541 20.379 32.525491848848 10 0.1 5.8 12.2 41.2
vector 837519  Network.dyn_peer[80]  lookupHopsSig:vector  ETV
837519	141635 200 1943 35981 20.381 27.067822309301 7 3 15 53 529
vector 837520  Network.dyn_peer[80]  lookupStabilitySig:vector  ETV
837520	141835 292 1943 35981 20.381 27.067822309301 7 -0.375 0.98314606770873 4.5228848922998 4.4103623939352
vector 837521  Network.dyn_peer[80]  lookupTimeSig:vector  ETV
837521	142127 211 1943 35981 20.381 27.067822309301 7 0.3 1.6 5.9 6.35
vector 837840  Network.dyn_peer[187]  lookupHopsSig:vector  ETV
837840	206966 204 1989 44022 20.388 30.021633669966 7 2 23 92 1450
vector 837841  Network.dyn_peer[187]  lookupStabilitySig:vector  ETV
837841	207170 305 1989 44022 20.388 30.021633669966 7 -0.066666722297668 0.96815286576748 5.0439920909703 4.4640035891158
vector 837842  Network.dyn_peer[187]  lookupTimeSig:vector  ETV
837842	207475 212 1989 44022 20.388 30.021633669966 7 0.2 2.4 9.8 16.36
vector 838185  Network.dyn_peer[302]  lookupHopsSig:vector  ETV
838185	274504 107 2089 31908 20.403 26.014592139457 4 1 36 54 1466
vector 838186  Network.dyn_peer[302]  lookupStabilitySig:vector  ETV
838186	274611 165 2089 31908 20.403 26.014592139457 4 0.55000001192093 0.97206703945994 3.2415301389992 2.7328267125222
vector 838187  Network.dyn_peer[302]  lookupTimeSig:vector  ETV
838187	274776 113 2089 31908 20.403 26.014592139457 4 0.1 3.7 5.7 15.75
vector 837615  Network.dyn_peer[112]  lookupHopsSig:vector  ETV
837615	161106 167 2167 39490 20.413 28.129691805819 6 3 24 75 1347
vector 837616  Network.dyn_peer[112]  lookupStabilitySig:vector  ETV
837616	161273 254 2167 39490 20.413 28.129691805819 6 0.31428569555283 0.97142857126892 4.444600103423 3.7496001408624
vector 837617  Network.dyn_peer[112]  lookupTimeSig:vector  ETV
837617	161527 176 2167 39490 20.413 28.129691805819 6 0.3 2.5 8 14.96
vector 837618  Network.dyn_peer[113]  lookupHopsSig:vector  ETV
837618	161703 107 2178 27552 20.414 25.030362451595 4 3 18 46 686
vector 837619  Network.dyn_peer[113]  lookupStabilitySig:vector  ETV
837619	161810 165 2178 27552 20.414 25.030362451595 4 0.10000002384186 0.86399999260902 2.1937872320414 1.605042835648
vector 837620  Network.dyn_peer[113]  lookupTimeSig:vector  ETV
837620	161975 113 2178 27552 20.414 25.030362451595 4 0.3 1.9 4.9 7.75
vector 838233  Network.dyn_peer[318]  lookupHopsSig:vector  ETV
838233	283507 105 2217 39176 20.419 28.030649452133 4 1 58 74 3482
vector 838234  Network.dyn_peer[318]  lookupStabilitySig:vector  ETV
838234	283612 165 2217 39176 20.419 28.030649452133 4 -0.28571426868439 0.97802197746933 2.2506410460919 2.2532290819657
vector 838235  Network.dyn_peer[318]  lookupTimeSig:vector  ETV
838235	283777 110 2217 39176 20.419 28.030649452133 4 0.1 5.9 7.7 36.31
vector 837636  Network.dyn_peer[119]  lookupHopsSig:vector  ETV
837636	165115 115 2228 43228 20.42 29.63265794204 4 3 38 92 2758
vector 837637  Network.dyn_peer[119]  lookupStabilitySig:vector  ETV
837637	165230 170 2228 43228 20.42 29.63265794204 4 0.39999997615814 0.8920454531908 2.5694292038679 1.862474065256
vector 837638  Network.dyn_peer[119]  lookupTimeSig:vector  ETV
837638	165400 120 2228 43228 20.42 29.63265794204 4 0.3 3.9 9.5 29.39
vector 837654  Network.dyn_peer[125]  lookupHopsSig:vector  ETV
837654	168679 262 2275 42458 20.426 29.271285376162 9 1 24 75 1031
vector 837655  Network.dyn_peer[125]  lookupStabilitySig:vector  ETV
837655	168941 394 2275 42458 20.426 29.271285376162 9 -0.18181812763214 0.98830409348011 6.6963563077152 6.2152359635643
vector 837656  Network.dyn_peer[125]  lookupTimeSig:vector  ETV
837656	169335 277 2275 42458 20.426 29.271285376162 9 0.2 2.5 8.3 11.83
vector 837393  Network.dyn_peer[38]  lookupHopsSig:vector  ETV
837393	118095 107 2369 28536 20.439 25.241162645991 4 4 26 49 933
vector 837394  Network.dyn_peer[38]  lookupStabilitySig:vector  ETV
837394	118202 150 2369 28536 20.439 25.241162645991 4 0 0.84615384042263 1.8549773544073 1.410171812952
vector 837395  Network.dyn_peer[38]  lookupTimeSig:vector  ETV
837395	118352 113 2369 28536 20.439 25.241162645991 4 0.4 2.7 5.2 10.26
vector 837399  Network.dyn_peer[40]  lookupHopsSig:vector  ETV
837399	119053 138 2386 42431 20.441 29.261515828539 5 4 38 88 2496
vector 837400  Network.dyn_peer[40]  lookupStabilitySig:vector  ETV
837400	119191 209 2386 42431 20.441 29.261515828539 5 0.19999998807907 0.9679144397378 3.5818945392966 3.0034111711475
vector 837401  Network.dyn_peer[40]  lookupTimeSig:vector  ETV
837401	119400 145 2386 42431 20.441 29.261515828539 5 0.4 3.9 9.2 26.68
vector 837717  Network.dyn_peer[146]  lookupHopsSig:vector  ETV
837717	181293 261 2433 42880 20.447 29.477732229641 9 3 15 82 922
vector 837718  Network.dyn_peer[146]  lookupStabilitySig:vector  ETV
837718	181554 380 2433 42880 20.447 29.477732229641 9 -0.16666662693024 0.96402877569199 6.1883689425886 5.3643287092373
vector 837719  Network.dyn_peer[146]  lookupTimeSig:vector  ETV
837719	181934 274 2433 42880 20.447 29.477732229641 9 0.3 1.6 9 10.88
vector 838029  Network.dyn_peer[250]  lookupHopsSig:vector  ETV
838029	246408 201 2465 30500 20.451 25.679116601659 7 1 16 48 516