version 2
run Stability2-73-20130526-00:51:27-26640
attr configname Stability2
attr datetime 20130526-00:51:27
attr experiment Stability2
attr inifile omnetpp.ini
attr iterationvars $0=30
attr iterationvars2 "$0=30, $repetition=13"
attr measurement $0=30
attr network Network
attr processid 26640
attr repetition 13
attr replication #13
attr resultdir results
attr runnumber 73
attr seedset 73

vector 222073  Network.churner  inGoingSizeSig:vector  ETV
vector 219079  Network.dyn_peer[2]  lookupHopsSig:vector  ETV
vector 219080  Network.dyn_peer[2]  lookupStabilitySig:vector  ETV
vector 219081  Network.dyn_peer[2]  lookupTimeSig:vector  ETV
vector 219127  Network.dyn_peer[18]  lookupHopsSig:vector  ETV
vector 219128  Network.dyn_peer[18]  lookupStabilitySig:vector  ETV
vector 219129  Network.dyn_peer[18]  lookupTimeSig:vector  ETV
vector 219130  Network.dyn_peer[19]  lookupHopsSig:vector  ETV
vector 219131  Network.dyn_peer[19]  lookupStabilitySig:vector  ETV
vector 219132  Network.dyn_peer[19]  lookupTimeSig:vector  ETV
vector 219133  Network.dyn_peer[20]  lookupHopsSig:vector  ETV
vector 219134  Network.dyn_peer[20]  lookupStabilitySig:vector  ETV
vector 219135  Network.dyn_peer[20]  lookupTimeSig:vector  ETV
vector 219142  Network.dyn_peer[23]  lookupHopsSig:vector  ETV
vector 219143  Network.dyn_peer[23]  lookupStabilitySig:vector  ETV
vector 219144  Network.dyn_peer[23]  lookupTimeSig:vector  ETV
vector 219073  Network.dyn_peer[0]  lookupHopsSig:vector  ETV
vector 219074  Network.dyn_peer[0]  lookupStabilitySig:vector  ETV
vector 219075  Network.dyn_peer[0]  lookupTimeSig:vector  ETV
vector 219082  Network.dyn_peer[3]  lookupHopsSig:vector  ETV
vector 219083  Network.dyn_peer[3]  lookupStabilitySig:vector  ETV
vector 219084  Network.dyn_peer[3]  lookupTimeSig:vector  ETV
vector 219085  Network.dyn_peer[4]  lookupHopsSig:vector  ETV
vector 219086  Network.dyn_peer[4]  lookupStabilitySig:vector  ETV
vector 219087  Network.dyn_peer[4]  lookupTimeSig:vector  ETV
vector 219091  Network.dyn_peer[6]  lookupHopsSig:vector  ETV
vector 219092  Network.dyn_peer[6]  lookupStabilitySig:vector  ETV
vector 219093  Network.dyn_peer[6]  lookupTimeSig:vector  ETV
vector 219100  Network.dyn_peer[9]  lookupHopsSig:vector  ETV
vector 219101  Network.dyn_peer[9]  lookupStabilitySig:vector  ETV
vector 219102  Network.dyn_peer[9]  lookupTimeSig:vector  ETV
vector 219112  Network.dyn_peer[13]  lookupHopsSig:vector  ETV
vector 219113  Network.dyn_peer[13]  lookupStabilitySig:vector  ETV
vector 219114  Network.dyn_peer[13]  lookupTimeSig:vector  ETV
vector 219118  Network.dyn_peer[15]  lookupHopsSig:vector  ETV
vector 219119  Network.dyn_peer[15]  lookupStabilitySig:vector  ETV
vector 219120  Network.dyn_peer[15]  lookupTimeSig:vector  ETV
vector 219121  Network.dyn_peer[16]  lookupHopsSig:vector  ETV
vector 219122  Network.dyn_peer[16]  lookupStabilitySig:vector  ETV
vector 219123  Network.dyn_peer[16]  lookupTimeSig:vector  ETV
vector 219124  Network.dyn_peer[17]  lookupHopsSig:vector  ETV
vector 219125  Network.dyn_peer[17]  lookupStabilitySig:vector  ETV
vector 219126  Network.dyn_peer[17]  lookupTimeSig:vector  ETV
vector 219145  Network.dyn_peer[24]  lookupHopsSig:vector  ETV
vector 219146  Network.dyn_peer[24]  lookupStabilitySig:vector  ETV
vector 219147  Network.dyn_peer[24]  lookupTimeSig:vector  ETV
vector 219076  Network.dyn_peer[1]  lookupHopsSig:vector  ETV
vector 219077  Network.dyn_peer[1]  lookupStabilitySig:vector  ETV
vector 219078  Network.dyn_peer[1]  lookupTimeSig:vector  ETV
vector 219088  Network.dyn_peer[5]  lookupHopsSig:vector  ETV
vector 219089  Network.dyn_peer[5]  lookupStabilitySig:vector  ETV
vector 219090  Network.dyn_peer[5]  lookupTimeSig:vector  ETV
vector 219094  Network.dyn_peer[7]  lookupHopsSig:vector  ETV
vector 219095  Network.dyn_peer[7]  lookupStabilitySig:vector  ETV
vector 219096  Network.dyn_peer[7]  lookupTimeSig:vector  ETV
vector 219097  Network.dyn_peer[8]  lookupHopsSig:vector  ETV
vector 219098  Network.dyn_peer[8]  lookupStabilitySig:vector  ETV
vector 219099  Network.dyn_peer[8]  lookupTimeSig:vector  ETV
vector 219136  Network.dyn_peer[21]  lookupHopsSig:vector  ETV
vector 219137  Network.dyn_peer[21]  lookupStabilitySig:vector  ETV
vector 219138  Network.dyn_peer[21]  lookupTimeSig:vector  ETV
vector 219103  Network.dyn_peer[10]  lookupHopsSig:vector  ETV
vector 219104  Network.dyn_peer[10]  lookupStabilitySig:vector  ETV
vector 219105  Network.dyn_peer[10]  lookupTimeSig:vector  ETV
vector 219106  Network.dyn_peer[11]  lookupHopsSig:vector  ETV
vector 219107  Network.dyn_peer[11]  lookupStabilitySig:vector  ETV
vector 219108  Network.dyn_peer[11]  lookupTimeSig:vector  ETV
vector 219109  Network.dyn_peer[12]  lookupHopsSig:vector  ETV
vector 219110  Network.dyn_peer[12]  lookupStabilitySig:vector  ETV
vector 219111  Network.dyn_peer[12]  lookupTimeSig:vector  ETV
vector 219151  Network.dyn_peer[26]  lookupHopsSig:vector  ETV
vector 219152  Network.dyn_peer[26]  lookupStabilitySig:vector  ETV
vector 219153  Network.dyn_peer[26]  lookupTimeSig:vector  ETV
vector 219115  Network.dyn_peer[14]  lookupHopsSig:vector  ETV
vector 219116  Network.dyn_peer[14]  lookupStabilitySig:vector  ETV
vector 219117  Network.dyn_peer[14]  lookupTimeSig:vector  ETV
vector 219139  Network.dyn_peer[22]  lookupHopsSig:vector  ETV
vector 219140  Network.dyn_peer[22]  lookupStabilitySig:vector  ETV
vector 219141  Network.dyn_peer[22]  lookupTimeSig:vector  ETV
vector 219157  Network.dyn_peer[28]  lookupHopsSig:vector  ETV
vector 219158  Network.dyn_peer[28]  lookupStabilitySig:vector  ETV
vector 219159  Network.dyn_peer[28]  lookupTimeSig:vector  ETV
vector 219148  Network.dyn_peer[25]  lookupHopsSig:vector  ETV
vector 219149  Network.dyn_peer[25]  lookupStabilitySig:vector  ETV
vector 219150  Network.dyn_peer[25]  lookupTimeSig:vector  ETV
vector 219160  Network.dyn_peer[29]  lookupHopsSig:vector  ETV
vector 219161  Network.dyn_peer[29]  lookupStabilitySig:vector  ETV
vector 219162  Network.dyn_peer[29]  lookupTimeSig:vector  ETV
vector 219154  Network.dyn_peer[27]  lookupHopsSig:vector  ETV
vector 219155  Network.dyn_peer[27]  lookupStabilitySig:vector  ETV
vector 219156  Network.dyn_peer[27]  lookupTimeSig:vector  ETV
219073	132	20.101	1
219073	501	20.801	6
219073	699	21.209641754982	3
219073	848	21.618976854911	3
219074	132	20.101	0.79999999701977
219074	501	20.801	-0.20000004768372
219074	699	21.209641754982	0.75
219074	848	21.618976854911	0.83333332836628
219075	132	20.101	0.1
219075	501	20.801	0.7
219075	699	21.209641754982	0.4
219075	848	21.618976854911	0.4
219076	210	20.202	2
219076	319	20.402	1
219076	780	21.411216427928	9
219076	881	21.715202253816	2
219077	210	20.202	0.59999999403954
219077	319	20.402	0.79999999701977
219077	780	21.411216427928	0.35714286565781
219077	881	21.715202253816	0.90909090638161
219078	210	20.202	0.2
219078	319	20.402	0.2
219078	780	21.411216427928	1
219078	881	21.715202253816	0.3
219079	23	20.003	0
219079	321	20.403	3
219079	649	21.105183652638	6
219079	811	21.509728464645	3
219079	883	21.719654859886	1
219080	23	20.003	1
219080	321	20.403	0.39999997615814
219080	649	21.105183652638	0.39999997615814
219080	811	21.509728464645	0.78571428358555
219080	883	21.719654859886	0.95652173832059
219081	23	20.003	0
219081	321	20.403	0.4
219081	649	21.105183652638	0.7
219081	811	21.509728464645	0.4
219081	883	21.719654859886	0.2
219082	139	20.104	1
219082	462	20.70963834395	5
219082	667	21.121595907036	3
219082	760	21.3285229978	1
219083	139	20.104	0.79999999701977
219083	462	20.70963834395	0
219083	667	21.121595907036	0.69999998807907
219083	760	21.3285229978	0.92307692021132
219084	139	20.104	0.1
219084	462	20.70963834395	0.6
219084	667	21.121595907036	0.4
219084	760	21.3285229978	0.2
219085	145	20.105	1
219085	742	21.305	11
219085	924	21.910156349504	5
219085	964	22.121647806737	1
219086	145	20.105	0.79999999701977
219086	742	21.305	0.15384614467621
219086	924	21.910156349504	0.79999999701977
219086	964	22.121647806737	0.96551724150777
219087	145	20.105	0.1
219087	742	21.305	1.2
219087	924	21.910156349504	0.6
219087	964	22.121647806737	0.2
219088	217	20.206	2
219088	325	20.406	1
219088	517	20.815027811554	3
219088	713	21.2167775627	3
219088	857	21.625983578963	3
219089	217	20.206	0.59999999403954
219089	325	20.406	0.79999999701977
219089	517	20.815027811554	0.39999997615814
219089	713	21.2167775627	0.75
219089	857	21.625983578963	0.84210526943207
219090	217	20.206	0.2
219090	325	20.406	0.2
219090	517	20.815027811554	0.4
219090	713	21.2167775627	0.4
219090	857	21.625983578963	0.4
219091	151	20.107	1
219091	458	20.707	5
219091	809	21.508399367623	7
219092	151	20.107	0.79999999701977
219092	458	20.707	0
219092	809	21.508399367623	0.5
219093	151	20.107	0.1
219093	458	20.707	0.6
219093	809	21.508399367623	0.8
219094	223	20.208	2
219094	696	21.208	9
219094	786	21.416192968056	1
219094	889	21.724211225292	2
219094	932	21.931810637981	1
219095	223	20.208	0.59999999403954
219095	696	21.208	0.25
219095	786	21.416192968056	0.92857142537832
219095	889	21.724211225292	0.91666666418314
219095	932	21.931810637981	0.96000000089407
219096	223	20.208	0.2
219096	696	21.208	1
219096	786	21.416192968056	0.2
219096	889	21.724211225292	0.3
219096	932	21.931810637981	0.2
219097	229	20.209	2
219097	366	20.509	2
219097	481	20.718735455238	1
219097	628	21.028612663723	2
219098	229	20.209	0.59999999403954
219098	366	20.509	0.59999999403954
219098	481	20.718735455238	0.79999999701977
219098	628	21.028612663723	0.75
219099	229	20.209	0.2
219099	366	20.509	0.3
219099	481	20.718735455238	0.2
219099	628	21.028612663723	0.3
219100	160	20.11	1
219100	331	20.41	2
219100	814	21.513004565523	10
219101	160	20.11	0.79999999701977
219101	331	20.41	0.59999999403954
219101	814	21.513004565523	0.28571426868439
219102	160	20.11	0.1
219102	331	20.41	0.3
219102	814	21.513004565523	1.1
219103	276	20.311	3
219103	655	21.111	7
219103	879	21.715053748464	5
219104	276	20.311	0.39999997615814
219104	655	21.111	0.30000001192093
219104	879	21.715053748464	0.76190476119518
219105	276	20.311	0.3
219105	655	21.111	0.8
219105	879	21.715053748464	0.6
219106	281	20.312	3
219106	466	20.712	3
219106	570	20.914342922617	1
219107	281	20.312	0.39999997615814
219107	466	20.712	0.39999997615814
219107	570	20.914342922617	0.83333332836628
219108	281	20.312	0.3
219108	466	20.712	0.4
219108	570	20.914342922617	0.2
219109	287	20.313	3
219109	511	20.813	4
219109	790	21.422383794823	5
219109	892	21.726268807953	2
219109	937	21.934351398863	1
219109	981	22.235739602213	2
219110	287	20.313	0.39999997615814
219110	511	20.813	0.19999998807907
219110	790	21.422383794823	0.64285713434219
219110	892	21.726268807953	0.91666666418314
219110	937	21.934351398863	0.96000000089407
219110	981	22.235739602213	0.93548387289047
219111	287	20.313	0.3
219111	511	20.813	0.5
219111	790	21.422383794823	0.6
219111	892	21.726268807953	0.3
219111	937	21.934351398863	0.2
219111	981	22.235739602213	0.3
219112	168	20.114	1
219112	661	21.114	9
219112	885	21.72378091326	5
219112	934	21.932848096585	1
219113	168	20.114	0.79999999701977
219113	661	21.114	0.10000002384186
219113	885	21.72378091326	0.78260870277882
219113	934	21.932848096585	0.96000000089407
219114	168	20.114	0.1
219114	661	21.114	1
219114	885	21.72378091326	0.6
219114	934	21.932848096585	0.2
219115	380	20.515	5
219115	711	21.216631245838	6
219115	855	21.62431049639	3
219115	975	22.226182932831	5
219115	1009	22.826293524308	5
219115	1022	23.135315137491	2
219116	380	20.515	0
219116	711	21.216631245838	0.5
219116	855	21.62431049639	0.84210526943207
219116	975	22.226182932831	0.83870968222618
219116	1009	22.826293524308	0.84375
219116	1022	23.135315137491	0.9375
219117	380	20.515	0.5
219117	711	21.216631245838	0.7
219117	855	21.62431049639	0.4
219117	975	22.226182932831	0.6
219117	1009	22.826293524308	0.6
219117	1022	23.135315137491	0.3
219118	174	20.116	1
219118	519	20.816	6
219118	671	21.124194228565	2
219118	898	21.732670494164	5
219118	979	22.233189263709	4
219118	995	22.442628009427	1
219118	1006	22.750338928523	2
219118	1032	23.358750913436	5
219118	1047	23.868294287709	4
219119	174	20.116	0.79999999701977
219119	519	20.816	-0.20000004768372
219119	671	21.124194228565	0.79999999701977
219119	898	21.732670494164	0.79166667163372
219119	979	22.233189263709	0.87096774578094
219119	995	22.442628009427	0.96875
219119	1006	22.750338928523	0.9375
219119	1032	23.358750913436	0.84848484396935
219119	1047	23.868294287709	0.87878787517548
219120	174	20.116	0.1
219120	519	20.816	0.7
219120	671	21.124194228565	0.3
219120	898	21.732670494164	0.6
219120	979	22.233189263709	0.5
219120	995	22.442628009427	0.2
219120	1006	22.750338928523	0.3
219120	1032	23.358750913436	0.6
219120	1047	23.868294287709	0.5
219121	179	20.117	1
219121	614	21.017	8
219121	846	21.617632205749	5
219121	948	22.023855249851	3
219121	989	22.326485369042	2
219121	1011	22.827754905642	4
219121	1029	23.337672881294	4
219121	1042	23.742284384042	3
219121	1050	23.946446185855	1
219121	1058	24.461177589766	4
219121	1063	24.765347473915	2
219121	1070	25.267479331607	4
219122	179	20.117	0.79999999701977
219122	614	21.017	-0.14285719394684
219122	846	21.617632205749	0.72222220897675
219122	948	22.023855249851	0.88888888806105
219122	989	22.326485369042	0.9375
219122	1011	22.827754905642	0.875
219122	1029	23.337672881294	0.87878787517548
219122	1042	23.742284384042	0.90909090638161
219122	1050	23.946446185855	0.97058823518455
219122	1058	24.461177589766	0.8823529407382
219122	1063	24.765347473915	0.9411764703691
219122	1070	25.267479331607	0.8823529407382
219123	179	20.117	0.1
219123	614	21.017	0.9
219123	846	21.617632205749	0.6
219123	948	22.023855249851	0.4
219123	989	22.326485369042	0.3
219123	1011	22.827754905642	0.5
219123	1029	23.337672881294	0.5
219123	1042	23.742284384042	0.4
219123	1050	23.946446185855	0.2
219123	1058	24.461177589766	0.5
219123	1063	24.765347473915	0.3
219123	1070	25.267479331607	0.5
219124	184	20.118	1
219124	617	21.018	8
219125	184	20.118	0.79999999701977
219125	617	21.018	-0.14285719394684
219126	184	20.118	0.1
219126	617	21.018	0.9
219127	75	20.019	0
219127	530	20.823074290476	7
219127	635	21.030997914886	1
219127	872	21.640657417557	5
219128	75	20.019	1
219128	530	20.823074290476	-0.39999997615814
219128	635	21.030997914886	0.89999999850988
219128	872	21.640657417557	0.75
219129	75	20.019	0
219129	530	20.823074290476	0.8
219129	635	21.030997914886	0.2
219129	872	21.640657417557	0.6
219130	82	20.02	0
219130	295	20.32	2
219130	405	20.528371916126	1
219130	690	21.141736329864	5
219131	82	20.02	1
219131	295	20.32	0.59999999403954
219131	405	20.528371916126	0.79999999701977
219131	690	21.141736329864	0.54545453190804
219132	82	20.02	0
219132	295	20.32	0.3
219132	405	20.528371916126	0.2
219132	690	21.141736329864	0.6
219133	89	20.021	0
219133	388	20.521	4
219133	545	20.83039450703	2
219133	739	21.258144731613	3
219134	89	20.021	1
219134	388	20.521	0.19999998807907
219134	545	20.83039450703	0.59999999403954
219134	739	21.258144731613	0.75
219135	89	20.021	0
219135	388	20.521	0.5
219135	545	20.83039450703	0.3
219135	739	21.258144731613	0.4
219136	247	20.222	2
219136	527	20.822	5
219137	247	20.222	0.59999999403954
219137	527	20.822	0
219138	247	20.222	0.2
219138	527	20.822	0.6
219139	394	20.523	5
219139	623	21.02695792928	4
219140	394	20.523	0
219140	623	21.02695792928	0.5
219141	394	20.523	0.5
219141	623	21.02695792928	0.5
219142	103	20.024	0
219142	731	21.236006475335	11
219142	874	21.643859956757	3
219142	971	22.144647794958	4
219143	103	20.024	1
219143	731	21.236006475335	0.083333313465118
219143	874	21.643859956757	0.84999999403954
219143	971	22.144647794958	0.86666665971279
219144	103	20.024	0
219144	731	21.236006475335	1.2
219144	874	21.643859956757	0.4
219144	971	22.144647794958	0.5
219145	195	20.125	1
219145	637	21.032215122568	8
219145	831	21.535496235614	4
219146	195	20.125	0.79999999701977
219146	637	21.032215122568	0.19999998807907
219146	831	21.535496235614	0.75
219147	195	20.125	0.1
219147	637	21.032215122568	0.9
219147	831	21.535496235614	0.5
219148	536	20.826	8
219148	673	21.126	2
219149	536	20.826	-0.60000002384186
219149	673	21.126	0.79999999701977
219150	536	20.826	0.8
219150	673	21.126	0.3
219151	308	20.327	3
219151	625	21.027	6
219151	769	21.337420537734	2
219151	869	21.639888685514	2
219151	919	21.840321406615	1
219152	308	20.327	0.39999997615814
219152	625	21.027	0.25
219152	769	21.337420537734	0.84615384042263
219152	869	21.639888685514	0.89999999850988
219152	919	21.840321406615	0.95833333209157
219153	308	20.327	0.3
219153	625	21.027	0.7
219153	769	21.337420537734	0.3
219153	869	21.639888685514	0.3
219153	919	21.840321406615	0.2
219154	678	21.128	11
219154	758	21.328	1
219154	954	22.029074143208	6
219155	678	21.128	0
219155	758	21.328	0.92307692021132
219155	954	22.029074143208	0.77777777612209
219156	678	21.128	1.1
219156	758	21.328	0.2
219156	954	22.029074143208	0.7
219157	410	20.529	5
219157	762	21.329	7
219157	916	21.837310588558	4
219157	960	22.046019013498	1
219158	410	20.529	0
219158	762	21.329	0.46153843402863
219158	916	21.837310588558	0.83333332836628
219158	960	22.046019013498	0.96428571268916
219159	410	20.529	0.5
219159	762	21.329	0.8
219159	916	21.837310588558	0.5
219159	960	22.046019013498	0.2
219160	590	20.93	9
219160	726	21.23	2
219160	835	21.538512314686	2
219161	590	20.93	-0.28571426868439
219161	726	21.23	0.83333332836628
219161	835	21.538512314686	0.8823529407382
219162	590	20.93	0.9
219162	726	21.23	0.3
219162	835	21.538512314686	0.3
222073	10	20	0
222073	11	20.001	0
222073	14	20.002	1
222073	17	20.003	2
222073	24	20.004	3
222073	27	20.005	4
222073	30	20.006	5
222073	33	20.007	6
222073	36	20.008	7
222073	39	20.009	8
222073	42	20.01	9
222073	45	20.011	10
222073	48	20.012	11
222073	51	20.013	12
222073	54	20.014	13
222073	57	20.015	14
222073	60	20.016	15
222073	63	20.017	16
222073	66	20.018	17
222073	69	20.019	18
222073	76	20.02	19
222073	83	20.021	20
222073	90	20.022	21
222073	93	20.023	22
222073	97	20.024	23
222073	106	20.025	24
222073	109	20.026	25
222073	112	20.027	26
222073	116	20.028	27
222073	119	20.029	28
222073	122	20.03	29
