version 2
run Stability2-244-20130526-00:53:02-26640
attr configname Stability2
attr datetime 20130526-00:53:02
attr experiment Stability2
attr inifile omnetpp.ini
attr iterationvars $0=400
attr iterationvars2 "$0=400, $repetition=4"
attr measurement $0=400
attr network Network
attr processid 26640
attr repetition 4
attr replication #4
attr resultdir results
attr runnumber 244
attr seedset 244

vector 735244  Network.churner  inGoingSizeSig:vector  ETV
vector 732253  Network.dyn_peer[3]  lookupHopsSig:vector  ETV
vector 732254  Network.dyn_peer[3]  lookupStabilitySig:vector  ETV
vector 732255  Network.dyn_peer[3]  lookupTimeSig:vector  ETV
vector 732277  Network.dyn_peer[11]  lookupHopsSig:vector  ETV
vector 732278  Network.dyn_peer[11]  lookupStabilitySig:vector  ETV
vector 732279  Network.dyn_peer[11]  lookupTimeSig:vector  ETV
vector 732295  Network.dyn_peer[17]  lookupHopsSig:vector  ETV
vector 732296  Network.dyn_peer[17]  lookupStabilitySig:vector  ETV
vector 732297  Network.dyn_peer[17]  lookupTimeSig:vector  ETV
vector 732307  Network.dyn_peer[21]  lookupHopsSig:vector  ETV
vector 732308  Network.dyn_peer[21]  lookupStabilitySig:vector  ETV
vector 732309  Network.dyn_peer[21]  lookupTimeSig:vector  ETV
vector 732319  Network.dyn_peer[25]  lookupHopsSig:vector  ETV
vector 732320  Network.dyn_peer[25]  lookupStabilitySig:vector  ETV
vector 732321  Network.dyn_peer[25]  lookupTimeSig:vector  ETV
vector 732328  Network.dyn_peer[28]  lookupHopsSig:vector  ETV
vector 732329  Network.dyn_peer[28]  lookupStabilitySig:vector  ETV
vector 732330  Network.dyn_peer[28]  lookupTimeSig:vector  ETV
vector 732337  Network.dyn_peer[31]  lookupHopsSig:vector  ETV
vector 732338  Network.dyn_peer[31]  lookupStabilitySig:vector  ETV
vector 732339  Network.dyn_peer[31]  lookupTimeSig:vector  ETV
vector 732340  Network.dyn_peer[32]  lookupHopsSig:vector  ETV
vector 732341  Network.dyn_peer[32]  lookupStabilitySig:vector  ETV
vector 732342  Network.dyn_peer[32]  lookupTimeSig:vector  ETV
vector 732508  Network.dyn_peer[88]  lookupHopsSig:vector  ETV
vector 732509  Network.dyn_peer[88]  lookupStabilitySig:vector  ETV
vector 732510  Network.dyn_peer[88]  lookupTimeSig:vector  ETV
vector 732538  Network.dyn_peer[98]  lookupHopsSig:vector  ETV
vector 732539  Network.dyn_peer[98]  lookupStabilitySig:vector  ETV
vector 732540  Network.dyn_peer[98]  lookupTimeSig:vector  ETV
vector 732544  Network.dyn_peer[100]  lookupHopsSig:vector  ETV
vector 732545  Network.dyn_peer[100]  lookupStabilitySig:vector  ETV
vector 732546  Network.dyn_peer[100]  lookupTimeSig:vector  ETV
vector 732283  Network.dyn_peer[13]  lookupHopsSig:vector  ETV
vector 732284  Network.dyn_peer[13]  lookupStabilitySig:vector  ETV
vector 732285  Network.dyn_peer[13]  lookupTimeSig:vector  ETV
vector 732286  Network.dyn_peer[14]  lookupHopsSig:vector  ETV
vector 732287  Network.dyn_peer[14]  lookupStabilitySig:vector  ETV
vector 732288  Network.dyn_peer[14]  lookupTimeSig:vector  ETV
vector 732325  Network.dyn_peer[27]  lookupHopsSig:vector  ETV
vector 732326  Network.dyn_peer[27]  lookupStabilitySig:vector  ETV
vector 732327  Network.dyn_peer[27]  lookupTimeSig:vector  ETV
vector 732370  Network.dyn_peer[42]  lookupHopsSig:vector  ETV
vector 732371  Network.dyn_peer[42]  lookupStabilitySig:vector  ETV
vector 732372  Network.dyn_peer[42]  lookupTimeSig:vector  ETV
vector 732694  Network.dyn_peer[150]  lookupHopsSig:vector  ETV
vector 732695  Network.dyn_peer[150]  lookupStabilitySig:vector  ETV
vector 732696  Network.dyn_peer[150]  lookupTimeSig:vector  ETV
vector 732433  Network.dyn_peer[63]  lookupHopsSig:vector  ETV
vector 732434  Network.dyn_peer[63]  lookupStabilitySig:vector  ETV
vector 732435  Network.dyn_peer[63]  lookupTimeSig:vector  ETV
vector 732445  Network.dyn_peer[67]  lookupHopsSig:vector  ETV
vector 732446  Network.dyn_peer[67]  lookupStabilitySig:vector  ETV
vector 732447  Network.dyn_peer[67]  lookupTimeSig:vector  ETV
vector 732460  Network.dyn_peer[72]  lookupHopsSig:vector  ETV
vector 732461  Network.dyn_peer[72]  lookupStabilitySig:vector  ETV
vector 732462  Network.dyn_peer[72]  lookupTimeSig:vector  ETV
vector 732490  Network.dyn_peer[82]  lookupHopsSig:vector  ETV
vector 732491  Network.dyn_peer[82]  lookupStabilitySig:vector  ETV
vector 732492  Network.dyn_peer[82]  lookupTimeSig:vector  ETV
vector 732517  Network.dyn_peer[91]  lookupHopsSig:vector  ETV
vector 732518  Network.dyn_peer[91]  lookupStabilitySig:vector  ETV
vector 732519  Network.dyn_peer[91]  lookupTimeSig:vector  ETV
vector 732244  Network.dyn_peer[0]  lookupHopsSig:vector  ETV
vector 732245  Network.dyn_peer[0]  lookupStabilitySig:vector  ETV
vector 732246  Network.dyn_peer[0]  lookupTimeSig:vector  ETV
vector 732259  Network.dyn_peer[5]  lookupHopsSig:vector  ETV
vector 732260  Network.dyn_peer[5]  lookupStabilitySig:vector  ETV
vector 732261  Network.dyn_peer[5]  lookupTimeSig:vector  ETV
vector 732562  Network.dyn_peer[106]  lookupHopsSig:vector  ETV
vector 732563  Network.dyn_peer[106]  lookupStabilitySig:vector  ETV
vector 732564  Network.dyn_peer[106]  lookupTimeSig:vector  ETV
vector 732877  Network.dyn_peer[211]  lookupHopsSig:vector  ETV
vector 732878  Network.dyn_peer[211]  lookupStabilitySig:vector  ETV
vector 732879  Network.dyn_peer[211]  lookupTimeSig:vector  ETV
vector 732280  Network.dyn_peer[12]  lookupHopsSig:vector  ETV
vector 732281  Network.dyn_peer[12]  lookupStabilitySig:vector  ETV
vector 732282  Network.dyn_peer[12]  lookupTimeSig:vector  ETV
vector 732589  Network.dyn_peer[115]  lookupHopsSig:vector  ETV
vector 732590  Network.dyn_peer[115]  lookupStabilitySig:vector  ETV
vector 732591  Network.dyn_peer[115]  lookupTimeSig:vector  ETV
vector 732889  Network.dyn_peer[215]  lookupHopsSig:vector  ETV
vector 732890  Network.dyn_peer[215]  lookupStabilitySig:vector  ETV
vector 732891  Network.dyn_peer[215]  lookupTimeSig:vector  ETV
vector 732643  Network.dyn_peer[133]  lookupHopsSig:vector  ETV
vector 732644  Network.dyn_peer[133]  lookupStabilitySig:vector  ETV
vector 732645  Network.dyn_peer[133]  lookupTimeSig:vector  ETV
vector 732667  Network.dyn_peer[141]  lookupHopsSig:vector  ETV
vector 732668  Network.dyn_peer[141]  lookupStabilitySig:vector  ETV
vector 732669  Network.dyn_peer[141]  lookupTimeSig:vector  ETV
vector 732379  Network.dyn_peer[45]  lookupHopsSig:vector  ETV
vector 732380  Network.dyn_peer[45]  lookupStabilitySig:vector  ETV
vector 732381  Network.dyn_peer[45]  lookupTimeSig:vector  ETV
vector 732724  Network.dyn_peer[160]  lookupHopsSig:vector  ETV
vector 732725  Network.dyn_peer[160]  lookupStabilitySig:vector  ETV
vector 732726  Network.dyn_peer[160]  lookupTimeSig:vector  ETV
vector 732436  Network.dyn_peer[64]  lookupHopsSig:vector  ETV
vector 732437  Network.dyn_peer[64]  lookupStabilitySig:vector  ETV
vector 732438  Network.dyn_peer[64]  lookupTimeSig:vector  ETV
vector 732469  Network.dyn_peer[75]  lookupHopsSig:vector  ETV
vector 732470  Network.dyn_peer[75]  lookupStabilitySig:vector  ETV
vector 732471  Network.dyn_peer[75]  lookupTimeSig:vector  ETV
vector 732511  Network.dyn_peer[89]  lookupHopsSig:vector  ETV
vector 732512  Network.dyn_peer[89]  lookupStabilitySig:vector  ETV
vector 732513  Network.dyn_peer[89]  lookupTimeSig:vector  ETV
vector 732820  Network.dyn_peer[192]  lookupHopsSig:vector  ETV
vector 732821  Network.dyn_peer[192]  lookupStabilitySig:vector  ETV
vector 732822  Network.dyn_peer[192]  lookupTimeSig:vector  ETV
vector 732841  Network.dyn_peer[199]  lookupHopsSig:vector  ETV
vector 732842  Network.dyn_peer[199]  lookupStabilitySig:vector  ETV
vector 732843  Network.dyn_peer[199]  lookupTimeSig:vector  ETV
vector 732247  Network.dyn_peer[1]  lookupHopsSig:vector  ETV
vector 732248  Network.dyn_peer[1]  lookupStabilitySig:vector  ETV
vector 732249  Network.dyn_peer[1]  lookupTimeSig:vector  ETV
vector 732256  Network.dyn_peer[4]  lookupHopsSig:vector  ETV
vector 732257  Network.dyn_peer[4]  lookupStabilitySig:vector  ETV
vector 732258  Network.dyn_peer[4]  lookupTimeSig:vector  ETV
vector 732574  Network.dyn_peer[110]  lookupHopsSig:vector  ETV
vector 732575  Network.dyn_peer[110]  lookupStabilitySig:vector  ETV
vector 732576  Network.dyn_peer[110]  lookupTimeSig:vector  ETV
vector 732583  Network.dyn_peer[113]  lookupHopsSig:vector  ETV
vector 732584  Network.dyn_peer[113]  lookupStabilitySig:vector  ETV
vector 732585  Network.dyn_peer[113]  lookupTimeSig:vector  ETV
vector 732298  Network.dyn_peer[18]  lookupHopsSig:vector  ETV
vector 732299  Network.dyn_peer[18]  lookupStabilitySig:vector  ETV
vector 732300  Network.dyn_peer[18]  lookupTimeSig:vector  ETV
vector 732352  Network.dyn_peer[36]  lookupHopsSig:vector  ETV
vector 732353  Network.dyn_peer[36]  lookupStabilitySig:vector  ETV
vector 732354  Network.dyn_peer[36]  lookupTimeSig:vector  ETV
vector 732361  Network.dyn_peer[39]  lookupHopsSig:vector  ETV
vector 732362  Network.dyn_peer[39]  lookupStabilitySig:vector  ETV
vector 732363  Network.dyn_peer[39]  lookupTimeSig:vector  ETV
vector 732382  Network.dyn_peer[46]  lookupHopsSig:vector  ETV
vector 732383  Network.dyn_peer[46]  lookupStabilitySig:vector  ETV
vector 732384  Network.dyn_peer[46]  lookupTimeSig:vector  ETV
vector 732988  Network.dyn_peer[248]  lookupHopsSig:vector  ETV
vector 732989  Network.dyn_peer[248]  lookupStabilitySig:vector  ETV
vector 732990  Network.dyn_peer[248]  lookupTimeSig:vector  ETV
vector 733294  Network.dyn_peer[350]  lookupHopsSig:vector  ETV
vector 733295  Network.dyn_peer[350]  lookupStabilitySig:vector  ETV
vector 733296  Network.dyn_peer[350]  lookupTimeSig:vector  ETV
vector 732412  Network.dyn_peer[56]  lookupHopsSig:vector  ETV
vector 732413  Network.dyn_peer[56]  lookupStabilitySig:vector  ETV
vector 732414  Network.dyn_peer[56]  lookupTimeSig:vector  ETV
vector 732736  Network.dyn_peer[164]  lookupHopsSig:vector  ETV
vector 732737  Network.dyn_peer[164]  lookupStabilitySig:vector  ETV
vector 732738  Network.dyn_peer[164]  lookupTimeSig:vector  ETV
vector 732448  Network.dyn_peer[68]  lookupHopsSig:vector  ETV
vector 732449  Network.dyn_peer[68]  lookupStabilitySig:vector  ETV
vector 732450  Network.dyn_peer[68]  lookupTimeSig:vector  ETV
vector 733348  Network.dyn_peer[368]  lookupHopsSig:vector  ETV
vector 733349  Network.dyn_peer[368]  lookupStabilitySig:vector  ETV
vector 733350  Network.dyn_peer[368]  lookupTimeSig:vector  ETV
vector 732481  Network.dyn_peer[79]  lookupHopsSig:vector  ETV
vector 732482  Network.dyn_peer[79]  lookupStabilitySig:vector  ETV
vector 732483  Network.dyn_peer[79]  lookupTimeSig:vector  ETV
vector 732514  Network.dyn_peer[90]  lookupHopsSig:vector  ETV
vector 732515  Network.dyn_peer[90]  lookupStabilitySig:vector  ETV
vector 732516  Network.dyn_peer[90]  lookupTimeSig:vector  ETV
vector 732817  Network.dyn_peer[191]  lookupHopsSig:vector  ETV
vector 732818  Network.dyn_peer[191]  lookupStabilitySig:vector  ETV
vector 732819  Network.dyn_peer[191]  lookupTimeSig:vector  ETV
vector 733123  Network.dyn_peer[293]  lookupHopsSig:vector  ETV
vector 733124  Network.dyn_peer[293]  lookupStabilitySig:vector  ETV
vector 733125  Network.dyn_peer[293]  lookupTimeSig:vector  ETV
vector 733126  Network.dyn_peer[294]  lookupHopsSig:vector  ETV
vector 733127  Network.dyn_peer[294]  lookupStabilitySig:vector  ETV
vector 733128  Network.dyn_peer[294]  lookupTimeSig:vector  ETV
vector 732271  Network.dyn_peer[9]  lookupHopsSig:vector  ETV
vector 732272  Network.dyn_peer[9]  lookupStabilitySig:vector  ETV
vector 732273  Network.dyn_peer[9]  lookupTimeSig:vector  ETV
vector 732274  Network.dyn_peer[10]  lookupHopsSig:vector  ETV
vector 732275  Network.dyn_peer[10]  lookupStabilitySig:vector  ETV
vector 732276  Network.dyn_peer[10]  lookupTimeSig:vector  ETV
vector 733174  Network.dyn_peer[310]  lookupHopsSig:vector  ETV
vector 733175  Network.dyn_peer[310]  lookupStabilitySig:vector  ETV
vector 733176  Network.dyn_peer[310]  lookupTimeSig:vector  ETV
vector 732313  Network.dyn_peer[23]  lookupHopsSig:vector  ETV
vector 732314  Network.dyn_peer[23]  lookupStabilitySig:vector  ETV
vector 732315  Network.dyn_peer[23]  lookupTimeSig:vector  ETV
vector 732922  Network.dyn_peer[226]  lookupHopsSig:vector  ETV
vector 732923  Network.dyn_peer[226]  lookupStabilitySig:vector  ETV
vector 732924  Network.dyn_peer[226]  lookupTimeSig:vector  ETV
vector 732649  Network.dyn_peer[135]  lookupHopsSig:vector  ETV
vector 732650  Network.dyn_peer[135]  lookupStabilitySig:vector  ETV
vector 732651  Network.dyn_peer[135]  lookupTimeSig:vector  ETV
vector 732655  Network.dyn_peer[137]  lookupHopsSig:vector  ETV
vector 732656  Network.dyn_peer[137]  lookupStabilitySig:vector  ETV
vector 732657  Network.dyn_peer[137]  lookupTimeSig:vector  ETV
vector 732661  Network.dyn_peer[139]  lookupHopsSig:vector  ETV
vector 732662  Network.dyn_peer[139]  lookupStabilitySig:vector  ETV
vector 732663  Network.dyn_peer[139]  lookupTimeSig:vector  ETV
vector 732673  Network.dyn_peer[143]  lookupHopsSig:vector  ETV
vector 732674  Network.dyn_peer[143]  lookupStabilitySig:vector  ETV
vector 732675  Network.dyn_peer[143]  lookupTimeSig:vector  ETV
vector 732397  Network.dyn_peer[51]  lookupHopsSig:vector  ETV
vector 732398  Network.dyn_peer[51]  lookupStabilitySig:vector  ETV
vector 732399  Network.dyn_peer[51]  lookupTimeSig:vector  ETV
vector 733000  Network.dyn_peer[252]  lookupHopsSig:vector  ETV
vector 733001  Network.dyn_peer[252]  lookupStabilitySig:vector  ETV
vector 733002  Network.dyn_peer[252]  lookupTimeSig:vector  ETV
vector 732415  Network.dyn_peer[57]  lookupHopsSig:vector  ETV
vector 732416  Network.dyn_peer[57]  lookupStabilitySig:vector  ETV
vector 732417  Network.dyn_peer[57]  lookupTimeSig:vector  ETV
vector 733024  Network.dyn_peer[260]  lookupHopsSig:vector  ETV
vector 733025  Network.dyn_peer[260]  lookupStabilitySig:vector  ETV
vector 733026  Network.dyn_peer[260]  lookupTimeSig:vector  ETV
vector 732757  Network.dyn_peer[171]  lookupHopsSig:vector  ETV
vector 732758  Network.dyn_peer[171]  lookupStabilitySig:vector  ETV
vector 732759  Network.dyn_peer[171]  lookupTimeSig:vector  ETV
vector 732766  Network.dyn_peer[174]  lookupHopsSig:vector  ETV
vector 732767  Network.dyn_peer[174]  lookupStabilitySig:vector  ETV
vector 732768  Network.dyn_peer[174]  lookupTimeSig:vector  ETV
vector 732484  Network.dyn_peer[80]  lookupHopsSig:vector  ETV
vector 732485  Network.dyn_peer[80]  lookupStabilitySig:vector  ETV
vector 732486  Network.dyn_peer[80]  lookupTimeSig:vector  ETV
vector 732790  Network.dyn_peer[182]  lookupHopsSig:vector  ETV
vector 732791  Network.dyn_peer[182]  lookupStabilitySig:vector  ETV
vector 732792  Network.dyn_peer[182]  lookupTimeSig:vector  ETV
vector 732799  Network.dyn_peer[185]  lookupHopsSig:vector  ETV
vector 732800  Network.dyn_peer[185]  lookupStabilitySig:vector  ETV
vector 732801  Network.dyn_peer[185]  lookupTimeSig:vector  ETV
vector 733402  Network.dyn_peer[386]  lookupHopsSig:vector  ETV
vector 733403  Network.dyn_peer[386]  lookupStabilitySig:vector  ETV
vector 733404  Network.dyn_peer[386]  lookupTimeSig:vector  ETV
vector 732268  Network.dyn_peer[8]  lookupHopsSig:vector  ETV
vector 732269  Network.dyn_peer[8]  lookupStabilitySig:vector  ETV
vector 732270  Network.dyn_peer[8]  lookupTimeSig:vector  ETV
vector 732928  Network.dyn_peer[228]  lookupHopsSig:vector  ETV
vector 732929  Network.dyn_peer[228]  lookupStabilitySig:vector  ETV
vector 732930  Network.dyn_peer[228]  lookupTimeSig:vector  ETV
vector 732652  Network.dyn_peer[136]  lookupHopsSig:vector  ETV
vector 732653  Network.dyn_peer[136]  lookupStabilitySig:vector  ETV
vector 732654  Network.dyn_peer[136]  lookupTimeSig:vector  ETV
vector 732958  Network.dyn_peer[238]  lookupHopsSig:vector  ETV
vector 732959  Network.dyn_peer[238]  lookupStabilitySig:vector  ETV
vector 732960  Network.dyn_peer[238]  lookupTimeSig:vector  ETV
vector 732703  Network.dyn_peer[153]  lookupHopsSig:vector  ETV
vector 732704  Network.dyn_peer[153]  lookupStabilitySig:vector  ETV
vector 732705  Network.dyn_peer[153]  lookupTimeSig:vector  ETV
vector 732430  Network.dyn_peer[62]  lookupHopsSig:vector  ETV
vector 732431  Network.dyn_peer[62]  lookupStabilitySig:vector  ETV
vector 732432  Network.dyn_peer[62]  lookupTimeSig:vector  ETV
vector 732292  Network.dyn_peer[16]  lookupHopsSig:vector  ETV
vector 732293  Network.dyn_peer[16]  lookupStabilitySig:vector  ETV
vector 732294  Network.dyn_peer[16]  lookupTimeSig:vector  ETV
vector 732598  Network.dyn_peer[118]  lookupHopsSig:vector  ETV
vector 732599  Network.dyn_peer[118]  lookupStabilitySig:vector  ETV
vector 732600  Network.dyn_peer[118]  lookupTimeSig:vector  ETV
vector 733198  Network.dyn_peer[318]  lookupHopsSig:vector  ETV
vector 733199  Network.dyn_peer[318]  lookupStabilitySig:vector  ETV
vector 733200  Network.dyn_peer[318]  lookupTimeSig:vector  ETV
vector 732607  Network.dyn_peer[121]  lookupHopsSig:vector  ETV
vector 732608  Network.dyn_peer[121]  lookupStabilitySig:vector  ETV
vector 732609  Network.dyn_peer[121]  lookupTimeSig:vector  ETV
vector 732961  Network.dyn_peer[239]  lookupHopsSig:vector  ETV
vector 732962  Network.dyn_peer[239]  lookupStabilitySig:vector  ETV
vector 732963  Network.dyn_peer[239]  lookupTimeSig:vector  ETV
vector 733279  Network.dyn_peer[345]  lookupHopsSig:vector  ETV
vector 733280  Network.dyn_peer[345]  lookupStabilitySig:vector  ETV
vector 733281  Network.dyn_peer[345]  lookupTimeSig:vector  ETV
vector 733006  Network.dyn_peer[254]  lookupHopsSig:vector  ETV
vector 733007  Network.dyn_peer[254]  lookupStabilitySig:vector  ETV
vector 733008  Network.dyn_peer[254]  lookupTimeSig:vector  ETV
vector 732424  Network.dyn_peer[60]  lookupHopsSig:vector  ETV
vector 732425  Network.dyn_peer[60]  lookupStabilitySig:vector  ETV
vector 732426  Network.dyn_peer[60]  lookupTimeSig:vector  ETV
vector 732775  Network.dyn_peer[177]  lookupHopsSig:vector  ETV
vector 732776  Network.dyn_peer[177]  lookupStabilitySig:vector  ETV
vector 732777  Network.dyn_peer[177]  lookupTimeSig:vector  ETV
vector 733084  Network.dyn_peer[280]  lookupHopsSig:vector  ETV
vector 733085  Network.dyn_peer[280]  lookupStabilitySig:vector  ETV
vector 733086  Network.dyn_peer[280]  lookupTimeSig:vector  ETV
vector 732496  Network.dyn_peer[84]  lookupHopsSig:vector  ETV
vector 732497  Network.dyn_peer[84]  lookupStabilitySig:vector  ETV
vector 732498  Network.dyn_peer[84]  lookupTimeSig:vector  ETV
vector 733408  Network.dyn_peer[388]  lookupHopsSig:vector  ETV
vector 733409  Network.dyn_peer[388]  lookupStabilitySig:vector  ETV
vector 733410  Network.dyn_peer[388]  lookupTimeSig:vector  ETV
vector 732814  Network.dyn_peer[190]  lookupHopsSig:vector  ETV
vector 732815  Network.dyn_peer[190]  lookupStabilitySig:vector  ETV
vector 732816  Network.dyn_peer[190]  lookupTimeSig:vector  ETV
vector 733135  Network.dyn_peer[297]  lookupHopsSig:vector  ETV
vector 733136  Network.dyn_peer[297]  lookupStabilitySig:vector  ETV
vector 733137  Network.dyn_peer[297]  lookupTimeSig:vector  ETV
vector 732556  Network.dyn_peer[104]  lookupHopsSig:vector  ETV
vector 732557  Network.dyn_peer[104]  lookupStabilitySig:vector  ETV
vector 732558  Network.dyn_peer[104]  lookupTimeSig:vector  ETV
vector 732580  Network.dyn_peer[112]  lookupHopsSig:vector  ETV
vector 732581  Network.dyn_peer[112]  lookupStabilitySig:vector  ETV
vector 732582  Network.dyn_peer[112]  lookupTimeSig:vector  ETV
vector 733180  Network.dyn_peer[312]  lookupHopsSig:vector  ETV
vector 733181  Network.dyn_peer[312]  lookupStabilitySig:vector  ETV
vector 733182  Network.dyn_peer[312]  lookupTimeSig:vector  ETV
vector 733207  Network.dyn_peer[321]  lookupHopsSig:vector  ETV
vector 733208  Network.dyn_peer[321]  lookupStabilitySig:vector  ETV
vector 733209  Network.dyn_peer[321]  lookupTimeSig:vector  ETV
vector 732616  Network.dyn_peer[124]  lookupHopsSig:vector  ETV
vector 732617  Network.dyn_peer[124]  lookupStabilitySig:vector  ETV
vector 732618  Network.dyn_peer[124]  lookupTimeSig:vector  ETV
vector 732679  Network.dyn_peer[145]  lookupHopsSig:vector  ETV
vector 732680  Network.dyn_peer[145]  lookupStabilitySig:vector  ETV
vector 732681  Network.dyn_peer[145]  lookupTimeSig:vector  ETV
vector 732685  Network.dyn_peer[147]  lookupHopsSig:vector  ETV
vector 732686  Network.dyn_peer[147]  lookupStabilitySig:vector  ETV
vector 732687  Network.dyn_peer[147]  lookupTimeSig:vector  ETV
vector 732712  Network.dyn_peer[156]  lookupHopsSig:vector  ETV
vector 732713  Network.dyn_peer[156]  lookupStabilitySig:vector  ETV
vector 732714  Network.dyn_peer[156]  lookupTimeSig:vector  ETV
vector 732418  Network.dyn_peer[58]  lookupHopsSig:vector  ETV
vector 732419  Network.dyn_peer[58]  lookupStabilitySig:vector  ETV
vector 732420  Network.dyn_peer[58]  lookupTimeSig:vector  ETV
vector 732730  Network.dyn_peer[162]  lookupHopsSig:vector  ETV
vector 732731  Network.dyn_peer[162]  lookupStabilitySig:vector  ETV
vector 732732  Network.dyn_peer[162]  lookupTimeSig:vector  ETV
vector 732463  Network.dyn_peer[73]  lookupHopsSig:vector  ETV
vector 732464  Network.dyn_peer[73]  lookupStabilitySig:vector  ETV
vector 732465  Network.dyn_peer[73]  lookupTimeSig:vector  ETV
vector 733075  Network.dyn_peer[277]  lookupHopsSig:vector  ETV
vector 733076  Network.dyn_peer[277]  lookupStabilitySig:vector  ETV
vector 733077  Network.dyn_peer[277]  lookupTimeSig:vector  ETV
vector 732784  Network.dyn_peer[180]  lookupHopsSig:vector  ETV
vector 732785  Network.dyn_peer[180]  lookupStabilitySig:vector  ETV
vector 732786  Network.dyn_peer[180]  lookupTimeSig:vector  ETV
vector 732550  Network.dyn_peer[102]  lookupHopsSig:vector  ETV
vector 732551  Network.dyn_peer[102]  lookupStabilitySig:vector  ETV
vector 732552  Network.dyn_peer[102]  lookupTimeSig:vector  ETV
vector 732862  Network.dyn_peer[206]  lookupHopsSig:vector  ETV
vector 732863  Network.dyn_peer[206]  lookupStabilitySig:vector  ETV
vector 732864  Network.dyn_peer[206]  lookupTimeSig:vector  ETV
vector 732601  Network.dyn_peer[119]  lookupHopsSig:vector  ETV
vector 732602  Network.dyn_peer[119]  lookupStabilitySig:vector  ETV
vector 732603  Network.dyn_peer[119]  lookupTimeSig:vector  ETV
vector 732907  Network.dyn_peer[221]  lookupHopsSig:vector  ETV
vector 732908  Network.dyn_peer[221]  lookupStabilitySig:vector  ETV
vector 732909  Network.dyn_peer[221]  lookupTimeSig:vector  ETV
vector 732919  Network.dyn_peer[225]  lookupHopsSig:vector  ETV
vector 732920  Network.dyn_peer[225]  lookupStabilitySig:vector  ETV
vector 732921  Network.dyn_peer[225]  lookupTimeSig:vector  ETV
vector 732925  Network.dyn_peer[227]  lookupHopsSig:vector  ETV
vector 732926  Network.dyn_peer[227]  lookupStabilitySig:vector  ETV
vector 732927  Network.dyn_peer[227]  lookupTimeSig:vector  ETV
vector 732640  Network.dyn_peer[132]  lookupHopsSig:vector  ETV
vector 732641  Network.dyn_peer[132]  lookupStabilitySig:vector  ETV
vector 732642  Network.dyn_peer[132]  lookupTimeSig:vector  ETV
vector 733246  Network.dyn_peer[334]  lookupHopsSig:vector  ETV
vector 733247  Network.dyn_peer[334]  lookupStabilitySig:vector  ETV
vector 733248  Network.dyn_peer[334]  lookupTimeSig:vector  ETV
vector 732391  Network.dyn_peer[49]  lookupHopsSig:vector  ETV
vector 732392  Network.dyn_peer[49]  lookupStabilitySig:vector  ETV
vector 732393  Network.dyn_peer[49]  lookupTimeSig:vector  ETV
vector 732709  Network.dyn_peer[155]  lookupHopsSig:vector  ETV
vector 732710  Network.dyn_peer[155]  lookupStabilitySig:vector  ETV
vector 732711  Network.dyn_peer[155]  lookupTimeSig:vector  ETV
vector 732427  Network.dyn_peer[61]  lookupHopsSig:vector  ETV
vector 732428  Network.dyn_peer[61]  lookupStabilitySig:vector  ETV
vector 732429  Network.dyn_peer[61]  lookupTimeSig:vector  ETV
vector 732454  Network.dyn_peer[70]  lookupHopsSig:vector  ETV
vector 732455  Network.dyn_peer[70]  lookupStabilitySig:vector  ETV
vector 732456  Network.dyn_peer[70]  lookupTimeSig:vector  ETV
vector 732772  Network.dyn_peer[176]  lookupHopsSig:vector  ETV
vector 732773  Network.dyn_peer[176]  lookupStabilitySig:vector  ETV
vector 732774  Network.dyn_peer[176]  lookupTimeSig:vector  ETV
vector 733117  Network.dyn_peer[291]  lookupHopsSig:vector  ETV
vector 733118  Network.dyn_peer[291]  lookupStabilitySig:vector  ETV
vector 733119  Network.dyn_peer[291]  lookupTimeSig:vector  ETV
vector 733120  Network.dyn_peer[292]  lookupHopsSig:vector  ETV
vector 733121  Network.dyn_peer[292]  lookupStabilitySig:vector  ETV
vector 733122  Network.dyn_peer[292]  lookupTimeSig:vector  ETV
vector 732304  Network.dyn_peer[20]  lookupHopsSig:vector  ETV
vector 732305  Network.dyn_peer[20]  lookupStabilitySig:vector  ETV
vector 732306  Network.dyn_peer[20]  lookupTimeSig:vector  ETV
vector 732343  Network.dyn_peer[33]  lookupHopsSig:vector  ETV
vector 732344  Network.dyn_peer[33]  lookupStabilitySig:vector  ETV
vector 732345  Network.dyn_peer[33]  lookupTimeSig:vector  ETV
vector 733276  Network.dyn_peer[344]  lookupHopsSig:vector  ETV
vector 733277  Network.dyn_peer[344]  lookupStabilitySig:vector  ETV
vector 733278  Network.dyn_peer[344]  lookupTimeSig:vector  ETV
vector 733012  Network.dyn_peer[256]  lookupHopsSig:vector  ETV
vector 733013  Network.dyn_peer[256]  lookupStabilitySig:vector  ETV
vector 733014  Network.dyn_peer[256]  lookupTimeSig:vector  ETV
vector 733315  Network.dyn_peer[357]  lookupHopsSig:vector  ETV
vector 733316  Network.dyn_peer[357]  lookupStabilitySig:vector  ETV
vector 733317  Network.dyn_peer[357]  lookupTimeSig:vector  ETV
vector 733018  Network.dyn_peer[258]  lookupHopsSig:vector  ETV
vector 733019  Network.dyn_peer[258]  lookupStabilitySig:vector  ETV
vector 733020  Network.dyn_peer[258]  lookupTimeSig:vector  ETV
vector 733060  Network.dyn_peer[272]  lookupHopsSig:vector  ETV
vector 733061  Network.dyn_peer[272]  lookupStabilitySig:vector  ETV
vector 733062  Network.dyn_peer[272]  lookupTimeSig:vector  ETV
vector 733072  Network.dyn_peer[276]  lookupHopsSig:vector  ETV
vector 733073  Network.dyn_peer[276]  lookupStabilitySig:vector  ETV
vector 733074  Network.dyn_peer[276]  lookupTimeSig:vector  ETV
vector 733375  Network.dyn_peer[377]  lookupHopsSig:vector  ETV
vector 733376  Network.dyn_peer[377]  lookupStabilitySig:vector  ETV
vector 733377  Network.dyn_peer[377]  lookupTimeSig:vector  ETV
vector 732499  Network.dyn_peer[85]  lookupHopsSig:vector  ETV
vector 732500  Network.dyn_peer[85]  lookupStabilitySig:vector  ETV
vector 732501  Network.dyn_peer[85]  lookupTimeSig:vector  ETV
vector 733399  Network.dyn_peer[385]  lookupHopsSig:vector  ETV
vector 733400  Network.dyn_peer[385]  lookupStabilitySig:vector  ETV
vector 733401  Network.dyn_peer[385]  lookupTimeSig:vector  ETV
vector 733102  Network.dyn_peer[286]  lookupHopsSig:vector  ETV
vector 733103  Network.dyn_peer[286]  lookupStabilitySig:vector  ETV
vector 733104  Network.dyn_peer[286]  lookupTimeSig:vector  ETV
vector 733435  Network.dyn_peer[397]  lookupHopsSig:vector  ETV
vector 733436  Network.dyn_peer[397]  lookupStabilitySig:vector  ETV
vector 733437  Network.dyn_peer[397]  lookupTimeSig:vector  ETV
vector 732547  Network.dyn_peer[101]  lookupHopsSig:vector  ETV
vector 732548  Network.dyn_peer[101]  lookupStabilitySig:vector  ETV
vector 732549  Network.dyn_peer[101]  lookupTimeSig:vector  ETV
vector 733159  Network.dyn_peer[305]  lookupHopsSig:vector  ETV
vector 733160  Network.dyn_peer[305]  lookupStabilitySig:vector  ETV
vector 733161  Network.dyn_peer[305]  lookupTimeSig:vector  ETV
vector 732262  Network.dyn_peer[6]  lookupHopsSig:vector  ETV
vector 732263  Network.dyn_peer[6]  lookupStabilitySig:vector  ETV
vector 732264  Network.dyn_peer[6]  lookupTimeSig:vector  ETV
vector 733177  Network.dyn_peer[311]  lookupHopsSig:vector  ETV
vector 733178  Network.dyn_peer[311]  lookupStabilitySig:vector  ETV
vector 733179  Network.dyn_peer[311]  lookupTimeSig:vector  ETV
vector 733291  Network.dyn_peer[349]  lookupHopsSig:vector  ETV
vector 733292  Network.dyn_peer[349]  lookupStabilitySig:vector  ETV
vector 733293  Network.dyn_peer[349]  lookupTimeSig:vector  ETV
vector 733339  Network.dyn_peer[365]  lookupHopsSig:vector  ETV
vector 733340  Network.dyn_peer[365]  lookupStabilitySig:vector  ETV
vector 733341  Network.dyn_peer[365]  lookupTimeSig:vector  ETV
vector 733045  Network.dyn_peer[267]  lookupHopsSig:vector  ETV
vector 733046  Network.dyn_peer[267]  lookupStabilitySig:vector  ETV
vector 733047  Network.dyn_peer[267]  lookupTimeSig:vector  ETV
vector 733051  Network.dyn_peer[269]  lookupHopsSig:vector  ETV
vector 733052  Network.dyn_peer[269]  lookupStabilitySig:vector  ETV
vector 733053  Network.dyn_peer[269]  lookupTimeSig:vector  ETV
vector 732763  Network.dyn_peer[173]  lookupHopsSig:vector  ETV
vector 732764  Network.dyn_peer[173]  lookupStabilitySig:vector  ETV
vector 732765  Network.dyn_peer[173]  lookupTimeSig:vector  ETV
vector 732787  Network.dyn_peer[181]  lookupHopsSig:vector  ETV
vector 732788  Network.dyn_peer[181]  lookupStabilitySig:vector  ETV
vector 732789  Network.dyn_peer[181]  lookupTimeSig:vector  ETV
vector 732838  Network.dyn_peer[198]  lookupHopsSig:vector  ETV
vector 732839  Network.dyn_peer[198]  lookupStabilitySig:vector  ETV
vector 732840  Network.dyn_peer[198]  lookupTimeSig:vector  ETV
vector 732541  Network.dyn_peer[99]  lookupHopsSig:vector  ETV
vector 732542  Network.dyn_peer[99]  lookupStabilitySig:vector  ETV
vector 732543  Network.dyn_peer[99]  lookupTimeSig:vector  ETV
vector 733147  Network.dyn_peer[301]  lookupHopsSig:vector  ETV
vector 733148  Network.dyn_peer[301]  lookupStabilitySig:vector  ETV
vector 733149  Network.dyn_peer[301]  lookupTimeSig:vector  ETV
vector 732250  Network.dyn_peer[2]  lookupHopsSig:vector  ETV
vector 732251  Network.dyn_peer[2]  lookupStabilitySig:vector  ETV
vector 732252  Network.dyn_peer[2]  lookupTimeSig:vector  ETV
vector 733156  Network.dyn_peer[304]  lookupHopsSig:vector  ETV
vector 733157  Network.dyn_peer[304]  lookupStabilitySig:vector  ETV