version 2
run Stability2-241-20130526-00:52:58-26640
attr configname Stability2
attr datetime 20130526-00:52:58
attr experiment Stability2
attr inifile omnetpp.ini
attr iterationvars $0=400
attr iterationvars2 "$0=400, $repetition=1"
attr measurement $0=400
attr network Network
attr processid 26640
attr repetition 1
attr replication #1
attr resultdir results
attr runnumber 241
attr seedset 241

vector 726241  Network.churner  inGoingSizeSig:vector  ETV
vector 723247  Network.dyn_peer[2]  lookupHopsSig:vector  ETV
vector 723248  Network.dyn_peer[2]  lookupStabilitySig:vector  ETV
vector 723249  Network.dyn_peer[2]  lookupTimeSig:vector  ETV
vector 723334  Network.dyn_peer[31]  lookupHopsSig:vector  ETV
vector 723335  Network.dyn_peer[31]  lookupStabilitySig:vector  ETV
vector 723336  Network.dyn_peer[31]  lookupTimeSig:vector  ETV
vector 723391  Network.dyn_peer[50]  lookupHopsSig:vector  ETV
vector 723392  Network.dyn_peer[50]  lookupStabilitySig:vector  ETV
vector 723393  Network.dyn_peer[50]  lookupTimeSig:vector  ETV
vector 723421  Network.dyn_peer[60]  lookupHopsSig:vector  ETV
vector 723422  Network.dyn_peer[60]  lookupStabilitySig:vector  ETV
vector 723423  Network.dyn_peer[60]  lookupTimeSig:vector  ETV
vector 723433  Network.dyn_peer[64]  lookupHopsSig:vector  ETV
vector 723434  Network.dyn_peer[64]  lookupStabilitySig:vector  ETV
vector 723435  Network.dyn_peer[64]  lookupTimeSig:vector  ETV
vector 723481  Network.dyn_peer[80]  lookupHopsSig:vector  ETV
vector 723482  Network.dyn_peer[80]  lookupStabilitySig:vector  ETV
vector 723483  Network.dyn_peer[80]  lookupTimeSig:vector  ETV
vector 723517  Network.dyn_peer[92]  lookupHopsSig:vector  ETV
vector 723518  Network.dyn_peer[92]  lookupStabilitySig:vector  ETV
vector 723519  Network.dyn_peer[92]  lookupTimeSig:vector  ETV
vector 723526  Network.dyn_peer[95]  lookupHopsSig:vector  ETV
vector 723527  Network.dyn_peer[95]  lookupStabilitySig:vector  ETV
vector 723528  Network.dyn_peer[95]  lookupTimeSig:vector  ETV
vector 723277  Network.dyn_peer[12]  lookupHopsSig:vector  ETV
vector 723278  Network.dyn_peer[12]  lookupStabilitySig:vector  ETV
vector 723279  Network.dyn_peer[12]  lookupTimeSig:vector  ETV
vector 723283  Network.dyn_peer[14]  lookupHopsSig:vector  ETV
vector 723284  Network.dyn_peer[14]  lookupStabilitySig:vector  ETV
vector 723285  Network.dyn_peer[14]  lookupTimeSig:vector  ETV
vector 723304  Network.dyn_peer[21]  lookupHopsSig:vector  ETV
vector 723305  Network.dyn_peer[21]  lookupStabilitySig:vector  ETV
vector 723306  Network.dyn_peer[21]  lookupTimeSig:vector  ETV
vector 723352  Network.dyn_peer[37]  lookupHopsSig:vector  ETV
vector 723353  Network.dyn_peer[37]  lookupStabilitySig:vector  ETV
vector 723354  Network.dyn_peer[37]  lookupTimeSig:vector  ETV
vector 723364  Network.dyn_peer[41]  lookupHopsSig:vector  ETV
vector 723365  Network.dyn_peer[41]  lookupStabilitySig:vector  ETV
vector 723366  Network.dyn_peer[41]  lookupTimeSig:vector  ETV
vector 723418  Network.dyn_peer[59]  lookupHopsSig:vector  ETV
vector 723419  Network.dyn_peer[59]  lookupStabilitySig:vector  ETV
vector 723420  Network.dyn_peer[59]  lookupTimeSig:vector  ETV
vector 723460  Network.dyn_peer[73]  lookupHopsSig:vector  ETV
vector 723461  Network.dyn_peer[73]  lookupStabilitySig:vector  ETV
vector 723462  Network.dyn_peer[73]  lookupTimeSig:vector  ETV
vector 723490  Network.dyn_peer[83]  lookupHopsSig:vector  ETV
vector 723491  Network.dyn_peer[83]  lookupStabilitySig:vector  ETV
vector 723492  Network.dyn_peer[83]  lookupTimeSig:vector  ETV
vector 723508  Network.dyn_peer[89]  lookupHopsSig:vector  ETV
vector 723509  Network.dyn_peer[89]  lookupStabilitySig:vector  ETV
vector 723510  Network.dyn_peer[89]  lookupTimeSig:vector  ETV
vector 723241  Network.dyn_peer[0]  lookupHopsSig:vector  ETV
vector 723242  Network.dyn_peer[0]  lookupStabilitySig:vector  ETV
vector 723243  Network.dyn_peer[0]  lookupTimeSig:vector  ETV
vector 723841  Network.dyn_peer[200]  lookupHopsSig:vector  ETV
vector 723842  Network.dyn_peer[200]  lookupStabilitySig:vector  ETV
vector 723843  Network.dyn_peer[200]  lookupTimeSig:vector  ETV
vector 723244  Network.dyn_peer[1]  lookupHopsSig:vector  ETV
vector 723245  Network.dyn_peer[1]  lookupStabilitySig:vector  ETV
vector 723246  Network.dyn_peer[1]  lookupTimeSig:vector  ETV
vector 723562  Network.dyn_peer[107]  lookupHopsSig:vector  ETV
vector 723563  Network.dyn_peer[107]  lookupStabilitySig:vector  ETV
vector 723564  Network.dyn_peer[107]  lookupTimeSig:vector  ETV
vector 723280  Network.dyn_peer[13]  lookupHopsSig:vector  ETV
vector 723281  Network.dyn_peer[13]  lookupStabilitySig:vector  ETV
vector 723282  Network.dyn_peer[13]  lookupTimeSig:vector  ETV
vector 723286  Network.dyn_peer[15]  lookupHopsSig:vector  ETV
vector 723287  Network.dyn_peer[15]  lookupStabilitySig:vector  ETV
vector 723288  Network.dyn_peer[15]  lookupTimeSig:vector  ETV
vector 723889  Network.dyn_peer[216]  lookupHopsSig:vector  ETV
vector 723890  Network.dyn_peer[216]  lookupStabilitySig:vector  ETV
vector 723891  Network.dyn_peer[216]  lookupTimeSig:vector  ETV
vector 723298  Network.dyn_peer[19]  lookupHopsSig:vector  ETV
vector 723299  Network.dyn_peer[19]  lookupStabilitySig:vector  ETV
vector 723300  Network.dyn_peer[19]  lookupTimeSig:vector  ETV
vector 723316  Network.dyn_peer[25]  lookupHopsSig:vector  ETV
vector 723317  Network.dyn_peer[25]  lookupStabilitySig:vector  ETV
vector 723318  Network.dyn_peer[25]  lookupTimeSig:vector  ETV
vector 723319  Network.dyn_peer[26]  lookupHopsSig:vector  ETV
vector 723320  Network.dyn_peer[26]  lookupStabilitySig:vector  ETV
vector 723321  Network.dyn_peer[26]  lookupTimeSig:vector  ETV
vector 723343  Network.dyn_peer[34]  lookupHopsSig:vector  ETV
vector 723344  Network.dyn_peer[34]  lookupStabilitySig:vector  ETV
vector 723345  Network.dyn_peer[34]  lookupTimeSig:vector  ETV
vector 723661  Network.dyn_peer[140]  lookupHopsSig:vector  ETV
vector 723662  Network.dyn_peer[140]  lookupStabilitySig:vector  ETV
vector 723663  Network.dyn_peer[140]  lookupTimeSig:vector  ETV
vector 723694  Network.dyn_peer[151]  lookupHopsSig:vector  ETV
vector 723695  Network.dyn_peer[151]  lookupStabilitySig:vector  ETV
vector 723696  Network.dyn_peer[151]  lookupTimeSig:vector  ETV
vector 723697  Network.dyn_peer[152]  lookupHopsSig:vector  ETV
vector 723698  Network.dyn_peer[152]  lookupStabilitySig:vector  ETV
vector 723699  Network.dyn_peer[152]  lookupTimeSig:vector  ETV
vector 723430  Network.dyn_peer[63]  lookupHopsSig:vector  ETV
vector 723431  Network.dyn_peer[63]  lookupStabilitySig:vector  ETV
vector 723432  Network.dyn_peer[63]  lookupTimeSig:vector  ETV
vector 723454  Network.dyn_peer[71]  lookupHopsSig:vector  ETV
vector 723455  Network.dyn_peer[71]  lookupStabilitySig:vector  ETV
vector 723456  Network.dyn_peer[71]  lookupTimeSig:vector  ETV
vector 723496  Network.dyn_peer[85]  lookupHopsSig:vector  ETV
vector 723497  Network.dyn_peer[85]  lookupStabilitySig:vector  ETV
vector 723498  Network.dyn_peer[85]  lookupTimeSig:vector  ETV
vector 724105  Network.dyn_peer[288]  lookupHopsSig:vector  ETV
vector 724106  Network.dyn_peer[288]  lookupStabilitySig:vector  ETV
vector 724107  Network.dyn_peer[288]  lookupTimeSig:vector  ETV
vector 723520  Network.dyn_peer[93]  lookupHopsSig:vector  ETV
vector 723521  Network.dyn_peer[93]  lookupStabilitySig:vector  ETV
vector 723522  Network.dyn_peer[93]  lookupTimeSig:vector  ETV
vector 723532  Network.dyn_peer[97]  lookupHopsSig:vector  ETV
vector 723533  Network.dyn_peer[97]  lookupStabilitySig:vector  ETV
vector 723534  Network.dyn_peer[97]  lookupTimeSig:vector  ETV
vector 723850  Network.dyn_peer[203]  lookupHopsSig:vector  ETV
vector 723851  Network.dyn_peer[203]  lookupStabilitySig:vector  ETV
vector 723852  Network.dyn_peer[203]  lookupTimeSig:vector  ETV
vector 723856  Network.dyn_peer[205]  lookupHopsSig:vector  ETV
vector 723857  Network.dyn_peer[205]  lookupStabilitySig:vector  ETV
vector 723858  Network.dyn_peer[205]  lookupTimeSig:vector  ETV
vector 724156  Network.dyn_peer[305]  lookupHopsSig:vector  ETV
vector 724157  Network.dyn_peer[305]  lookupStabilitySig:vector  ETV
vector 724158  Network.dyn_peer[305]  lookupTimeSig:vector  ETV
vector 723565  Network.dyn_peer[108]  lookupHopsSig:vector  ETV
vector 723566  Network.dyn_peer[108]  lookupStabilitySig:vector  ETV
vector 723567  Network.dyn_peer[108]  lookupTimeSig:vector  ETV
vector 723877  Network.dyn_peer[212]  lookupHopsSig:vector  ETV
vector 723878  Network.dyn_peer[212]  lookupStabilitySig:vector  ETV
vector 723879  Network.dyn_peer[212]  lookupTimeSig:vector  ETV
vector 723586  Network.dyn_peer[115]  lookupHopsSig:vector  ETV
vector 723587  Network.dyn_peer[115]  lookupStabilitySig:vector  ETV
vector 723588  Network.dyn_peer[115]  lookupTimeSig:vector  ETV
vector 723595  Network.dyn_peer[118]  lookupHopsSig:vector  ETV
vector 723596  Network.dyn_peer[118]  lookupStabilitySig:vector  ETV
vector 723597  Network.dyn_peer[118]  lookupTimeSig:vector  ETV
vector 723598  Network.dyn_peer[119]  lookupHopsSig:vector  ETV
vector 723599  Network.dyn_peer[119]  lookupStabilitySig:vector  ETV
vector 723600  Network.dyn_peer[119]  lookupTimeSig:vector  ETV
vector 723301  Network.dyn_peer[20]  lookupHopsSig:vector  ETV
vector 723302  Network.dyn_peer[20]  lookupStabilitySig:vector  ETV
vector 723303  Network.dyn_peer[20]  lookupTimeSig:vector  ETV
vector 723940  Network.dyn_peer[233]  lookupHopsSig:vector  ETV
vector 723941  Network.dyn_peer[233]  lookupStabilitySig:vector  ETV
vector 723942  Network.dyn_peer[233]  lookupTimeSig:vector  ETV
vector 723655  Network.dyn_peer[138]  lookupHopsSig:vector  ETV
vector 723656  Network.dyn_peer[138]  lookupStabilitySig:vector  ETV
vector 723657  Network.dyn_peer[138]  lookupTimeSig:vector  ETV
vector 723361  Network.dyn_peer[40]  lookupHopsSig:vector  ETV
vector 723362  Network.dyn_peer[40]  lookupStabilitySig:vector  ETV
vector 723363  Network.dyn_peer[40]  lookupTimeSig:vector  ETV
vector 724291  Network.dyn_peer[350]  lookupHopsSig:vector  ETV
vector 724292  Network.dyn_peer[350]  lookupStabilitySig:vector  ETV
vector 724293  Network.dyn_peer[350]  lookupTimeSig:vector  ETV
vector 723703  Network.dyn_peer[154]  lookupHopsSig:vector  ETV
vector 723704  Network.dyn_peer[154]  lookupStabilitySig:vector  ETV
vector 723705  Network.dyn_peer[154]  lookupTimeSig:vector  ETV
vector 723424  Network.dyn_peer[61]  lookupHopsSig:vector  ETV
vector 723425  Network.dyn_peer[61]  lookupStabilitySig:vector  ETV
vector 723426  Network.dyn_peer[61]  lookupTimeSig:vector  ETV
vector 724372  Network.dyn_peer[377]  lookupHopsSig:vector  ETV
vector 724373  Network.dyn_peer[377]  lookupStabilitySig:vector  ETV
vector 724374  Network.dyn_peer[377]  lookupTimeSig:vector  ETV
vector 724123  Network.dyn_peer[294]  lookupHopsSig:vector  ETV
vector 724124  Network.dyn_peer[294]  lookupStabilitySig:vector  ETV
vector 724125  Network.dyn_peer[294]  lookupTimeSig:vector  ETV
vector 723250  Network.dyn_peer[3]  lookupHopsSig:vector  ETV
vector 723251  Network.dyn_peer[3]  lookupStabilitySig:vector  ETV
vector 723252  Network.dyn_peer[3]  lookupTimeSig:vector  ETV
vector 723262  Network.dyn_peer[7]  lookupHopsSig:vector  ETV
vector 723263  Network.dyn_peer[7]  lookupStabilitySig:vector  ETV
vector 723264  Network.dyn_peer[7]  lookupTimeSig:vector  ETV
vector 723577  Network.dyn_peer[112]  lookupHopsSig:vector  ETV
vector 723578  Network.dyn_peer[112]  lookupStabilitySig:vector  ETV
vector 723579  Network.dyn_peer[112]  lookupTimeSig:vector  ETV
vector 723289  Network.dyn_peer[16]  lookupHopsSig:vector  ETV
vector 723290  Network.dyn_peer[16]  lookupStabilitySig:vector  ETV
vector 723291  Network.dyn_peer[16]  lookupTimeSig:vector  ETV
vector 724216  Network.dyn_peer[325]  lookupHopsSig:vector  ETV
vector 724217  Network.dyn_peer[325]  lookupStabilitySig:vector  ETV
vector 724218  Network.dyn_peer[325]  lookupTimeSig:vector  ETV
vector 723925  Network.dyn_peer[228]  lookupHopsSig:vector  ETV
vector 723926  Network.dyn_peer[228]  lookupStabilitySig:vector  ETV
vector 723927  Network.dyn_peer[228]  lookupTimeSig:vector  ETV
vector 724234  Network.dyn_peer[331]  lookupHopsSig:vector  ETV
vector 724235  Network.dyn_peer[331]  lookupStabilitySig:vector  ETV
vector 724236  Network.dyn_peer[331]  lookupTimeSig:vector  ETV
vector 723349  Network.dyn_peer[36]  lookupHopsSig:vector  ETV
vector 723350  Network.dyn_peer[36]  lookupStabilitySig:vector  ETV
vector 723351  Network.dyn_peer[36]  lookupTimeSig:vector  ETV
vector 723973  Network.dyn_peer[244]  lookupHopsSig:vector  ETV
vector 723974  Network.dyn_peer[244]  lookupStabilitySig:vector  ETV
vector 723975  Network.dyn_peer[244]  lookupTimeSig:vector  ETV
vector 723679  Network.dyn_peer[146]  lookupHopsSig:vector  ETV
vector 723680  Network.dyn_peer[146]  lookupStabilitySig:vector  ETV
vector 723681  Network.dyn_peer[146]  lookupTimeSig:vector  ETV
vector 723382  Network.dyn_peer[47]  lookupHopsSig:vector  ETV
vector 723383  Network.dyn_peer[47]  lookupStabilitySig:vector  ETV
vector 723384  Network.dyn_peer[47]  lookupTimeSig:vector  ETV
vector 723388  Network.dyn_peer[49]  lookupHopsSig:vector  ETV
vector 723389  Network.dyn_peer[49]  lookupStabilitySig:vector  ETV
vector 723390  Network.dyn_peer[49]  lookupTimeSig:vector  ETV
vector 724018  Network.dyn_peer[259]  lookupHopsSig:vector  ETV
vector 724019  Network.dyn_peer[259]  lookupStabilitySig:vector  ETV
vector 724020  Network.dyn_peer[259]  lookupTimeSig:vector  ETV
vector 723427  Network.dyn_peer[62]  lookupHopsSig:vector  ETV
vector 723428  Network.dyn_peer[62]  lookupStabilitySig:vector  ETV
vector 723429  Network.dyn_peer[62]  lookupTimeSig:vector  ETV
vector 723757  Network.dyn_peer[172]  lookupHopsSig:vector  ETV
vector 723758  Network.dyn_peer[172]  lookupStabilitySig:vector  ETV
vector 723759  Network.dyn_peer[172]  lookupTimeSig:vector  ETV
vector 723469  Network.dyn_peer[76]  lookupHopsSig:vector  ETV
vector 723470  Network.dyn_peer[76]  lookupStabilitySig:vector  ETV
vector 723471  Network.dyn_peer[76]  lookupTimeSig:vector  ETV
vector 724072  Network.dyn_peer[277]  lookupHopsSig:vector  ETV
vector 724073  Network.dyn_peer[277]  lookupStabilitySig:vector  ETV
vector 724074  Network.dyn_peer[277]  lookupTimeSig:vector  ETV
vector 723784  Network.dyn_peer[181]  lookupHopsSig:vector  ETV
vector 723785  Network.dyn_peer[181]  lookupStabilitySig:vector  ETV
vector 723786  Network.dyn_peer[181]  lookupTimeSig:vector  ETV
vector 723787  Network.dyn_peer[182]  lookupHopsSig:vector  ETV
vector 723788  Network.dyn_peer[182]  lookupStabilitySig:vector  ETV
vector 723789  Network.dyn_peer[182]  lookupTimeSig:vector  ETV
vector 723796  Network.dyn_peer[185]  lookupHopsSig:vector  ETV
vector 723797  Network.dyn_peer[185]  lookupStabilitySig:vector  ETV
vector 723798  Network.dyn_peer[185]  lookupTimeSig:vector  ETV
vector 723814  Network.dyn_peer[191]  lookupHopsSig:vector  ETV
vector 723815  Network.dyn_peer[191]  lookupStabilitySig:vector  ETV
vector 723816  Network.dyn_peer[191]  lookupTimeSig:vector  ETV
vector 724414  Network.dyn_peer[391]  lookupHopsSig:vector  ETV
vector 724415  Network.dyn_peer[391]  lookupStabilitySig:vector  ETV
vector 724416  Network.dyn_peer[391]  lookupTimeSig:vector  ETV
vector 724129  Network.dyn_peer[296]  lookupHopsSig:vector  ETV
vector 724130  Network.dyn_peer[296]  lookupStabilitySig:vector  ETV
vector 724131  Network.dyn_peer[296]  lookupTimeSig:vector  ETV
vector 724438  Network.dyn_peer[399]  lookupHopsSig:vector  ETV
vector 724439  Network.dyn_peer[399]  lookupStabilitySig:vector  ETV
vector 724440  Network.dyn_peer[399]  lookupTimeSig:vector  ETV
vector 723559  Network.dyn_peer[106]  lookupHopsSig:vector  ETV
vector 723560  Network.dyn_peer[106]  lookupStabilitySig:vector  ETV
vector 723561  Network.dyn_peer[106]  lookupTimeSig:vector  ETV
vector 723265  Network.dyn_peer[8]  lookupHopsSig:vector  ETV
vector 723266  Network.dyn_peer[8]  lookupStabilitySig:vector  ETV
vector 723267  Network.dyn_peer[8]  lookupTimeSig:vector  ETV
vector 724171  Network.dyn_peer[310]  lookupHopsSig:vector  ETV
vector 724172  Network.dyn_peer[310]  lookupStabilitySig:vector  ETV
vector 724173  Network.dyn_peer[310]  lookupTimeSig:vector  ETV
vector 723907  Network.dyn_peer[222]  lookupHopsSig:vector  ETV
vector 723908  Network.dyn_peer[222]  lookupStabilitySig:vector  ETV
vector 723909  Network.dyn_peer[222]  lookupTimeSig:vector  ETV
vector 723673  Network.dyn_peer[144]  lookupHopsSig:vector  ETV
vector 723674  Network.dyn_peer[144]  lookupStabilitySig:vector  ETV
vector 723675  Network.dyn_peer[144]  lookupTimeSig:vector  ETV
vector 723385  Network.dyn_peer[48]  lookupHopsSig:vector  ETV
vector 723386  Network.dyn_peer[48]  lookupStabilitySig:vector  ETV
vector 723387  Network.dyn_peer[48]  lookupTimeSig:vector  ETV
vector 723709  Network.dyn_peer[156]  lookupHopsSig:vector  ETV
vector 723710  Network.dyn_peer[156]  lookupStabilitySig:vector  ETV
vector 723711  Network.dyn_peer[156]  lookupTimeSig:vector  ETV
vector 724015  Network.dyn_peer[258]  lookupHopsSig:vector  ETV
vector 724016  Network.dyn_peer[258]  lookupStabilitySig:vector  ETV
vector 724017  Network.dyn_peer[258]  lookupTimeSig:vector  ETV
vector 724327  Network.dyn_peer[362]  lookupHopsSig:vector  ETV
vector 724328  Network.dyn_peer[362]  lookupStabilitySig:vector  ETV
vector 724329  Network.dyn_peer[362]  lookupTimeSig:vector  ETV
vector 724060  Network.dyn_peer[273]  lookupHopsSig:vector  ETV
vector 724061  Network.dyn_peer[273]  lookupStabilitySig:vector  ETV
vector 724062  Network.dyn_peer[273]  lookupTimeSig:vector  ETV
vector 723478  Network.dyn_peer[79]  lookupHopsSig:vector  ETV
vector 723479  Network.dyn_peer[79]  lookupStabilitySig:vector  ETV
vector 723480  Network.dyn_peer[79]  lookupTimeSig:vector  ETV
vector 723790  Network.dyn_peer[183]  lookupHopsSig:vector  ETV
vector 723791  Network.dyn_peer[183]  lookupStabilitySig:vector  ETV
vector 723792  Network.dyn_peer[183]  lookupTimeSig:vector  ETV
vector 723838  Network.dyn_peer[199]  lookupHopsSig:vector  ETV
vector 723839  Network.dyn_peer[199]  lookupStabilitySig:vector  ETV
vector 723840  Network.dyn_peer[199]  lookupTimeSig:vector  ETV
vector 723253  Network.dyn_peer[4]  lookupHopsSig:vector  ETV
vector 723254  Network.dyn_peer[4]  lookupStabilitySig:vector  ETV
vector 723255  Network.dyn_peer[4]  lookupTimeSig:vector  ETV
vector 723622  Network.dyn_peer[127]  lookupHopsSig:vector  ETV
vector 723623  Network.dyn_peer[127]  lookupStabilitySig:vector  ETV
vector 723624  Network.dyn_peer[127]  lookupTimeSig:vector  ETV
vector 723922  Network.dyn_peer[227]  lookupHopsSig:vector  ETV
vector 723923  Network.dyn_peer[227]  lookupStabilitySig:vector  ETV
vector 723924  Network.dyn_peer[227]  lookupTimeSig:vector  ETV
vector 723637  Network.dyn_peer[132]  lookupHopsSig:vector  ETV
vector 723638  Network.dyn_peer[132]  lookupStabilitySig:vector  ETV
vector 723639  Network.dyn_peer[132]  lookupTimeSig:vector  ETV
vector 723355  Network.dyn_peer[38]  lookupHopsSig:vector  ETV
vector 723356  Network.dyn_peer[38]  lookupStabilitySig:vector  ETV
vector 723357  Network.dyn_peer[38]  lookupTimeSig:vector  ETV
vector 723658  Network.dyn_peer[139]  lookupHopsSig:vector  ETV
vector 723659  Network.dyn_peer[139]  lookupStabilitySig:vector  ETV
vector 723660  Network.dyn_peer[139]  lookupTimeSig:vector  ETV
vector 723373  Network.dyn_peer[44]  lookupHopsSig:vector  ETV
vector 723374  Network.dyn_peer[44]  lookupStabilitySig:vector  ETV
vector 723375  Network.dyn_peer[44]  lookupTimeSig:vector  ETV
vector 723376  Network.dyn_peer[45]  lookupHopsSig:vector  ETV
vector 723377  Network.dyn_peer[45]  lookupStabilitySig:vector  ETV
vector 723378  Network.dyn_peer[45]  lookupTimeSig:vector  ETV
vector 723676  Network.dyn_peer[145]  lookupHopsSig:vector  ETV
vector 723677  Network.dyn_peer[145]  lookupStabilitySig:vector  ETV
vector 723678  Network.dyn_peer[145]  lookupTimeSig:vector  ETV
vector 723976  Network.dyn_peer[245]  lookupHopsSig:vector  ETV
vector 723977  Network.dyn_peer[245]  lookupStabilitySig:vector  ETV
vector 723978  Network.dyn_peer[245]  lookupTimeSig:vector  ETV
vector 723982  Network.dyn_peer[247]  lookupHopsSig:vector  ETV
vector 723983  Network.dyn_peer[247]  lookupStabilitySig:vector  ETV
vector 723984  Network.dyn_peer[247]  lookupTimeSig:vector  ETV
vector 724003  Network.dyn_peer[254]  lookupHopsSig:vector  ETV
vector 724004  Network.dyn_peer[254]  lookupStabilitySig:vector  ETV
vector 724005  Network.dyn_peer[254]  lookupTimeSig:vector  ETV
vector 723733  Network.dyn_peer[164]  lookupHopsSig:vector  ETV
vector 723734  Network.dyn_peer[164]  lookupStabilitySig:vector  ETV
vector 723735  Network.dyn_peer[164]  lookupTimeSig:vector  ETV
vector 724390  Network.dyn_peer[383]  lookupHopsSig:vector  ETV
vector 724391  Network.dyn_peer[383]  lookupStabilitySig:vector  ETV
vector 724392  Network.dyn_peer[383]  lookupTimeSig:vector  ETV
vector 723811  Network.dyn_peer[190]  lookupHopsSig:vector  ETV
vector 723812  Network.dyn_peer[190]  lookupStabilitySig:vector  ETV
vector 723813  Network.dyn_peer[190]  lookupTimeSig:vector  ETV
vector 724159  Network.dyn_peer[306]  lookupHopsSig:vector  ETV
vector 724160  Network.dyn_peer[306]  lookupStabilitySig:vector  ETV
vector 724161  Network.dyn_peer[306]  lookupTimeSig:vector  ETV
vector 723604  Network.dyn_peer[121]  lookupHopsSig:vector  ETV
vector 723605  Network.dyn_peer[121]  lookupStabilitySig:vector  ETV
vector 723606  Network.dyn_peer[121]  lookupTimeSig:vector  ETV
vector 723904  Network.dyn_peer[221]  lookupHopsSig:vector  ETV
vector 723905  Network.dyn_peer[221]  lookupStabilitySig:vector  ETV
vector 723906  Network.dyn_peer[221]  lookupTimeSig:vector  ETV
vector 724213  Network.dyn_peer[324]  lookupHopsSig:vector  ETV
vector 724214  Network.dyn_peer[324]  lookupStabilitySig:vector  ETV
vector 724215  Network.dyn_peer[324]  lookupTimeSig:vector  ETV
vector 723619  Network.dyn_peer[126]  lookupHopsSig:vector  ETV
vector 723620  Network.dyn_peer[126]  lookupStabilitySig:vector  ETV
vector 723621  Network.dyn_peer[126]  lookupTimeSig:vector  ETV
vector 723640  Network.dyn_peer[133]  lookupHopsSig:vector  ETV
vector 723641  Network.dyn_peer[133]  lookupStabilitySig:vector  ETV
vector 723642  Network.dyn_peer[133]  lookupTimeSig:vector  ETV
vector 723358  Network.dyn_peer[39]  lookupHopsSig:vector  ETV
vector 723359  Network.dyn_peer[39]  lookupStabilitySig:vector  ETV
vector 723360  Network.dyn_peer[39]  lookupTimeSig:vector  ETV
vector 723367  Network.dyn_peer[42]  lookupHopsSig:vector  ETV
vector 723368  Network.dyn_peer[42]  lookupStabilitySig:vector  ETV
vector 723369  Network.dyn_peer[42]  lookupTimeSig:vector  ETV
vector 723685  Network.dyn_peer[148]  lookupHopsSig:vector  ETV
vector 723686  Network.dyn_peer[148]  lookupStabilitySig:vector  ETV
vector 723687  Network.dyn_peer[148]  lookupTimeSig:vector  ETV
vector 723712  Network.dyn_peer[157]  lookupHopsSig:vector  ETV
vector 723713  Network.dyn_peer[157]  lookupStabilitySig:vector  ETV
vector 723714  Network.dyn_peer[157]  lookupTimeSig:vector  ETV
vector 724027  Network.dyn_peer[262]  lookupHopsSig:vector  ETV
vector 724028  Network.dyn_peer[262]  lookupStabilitySig:vector  ETV
vector 724029  Network.dyn_peer[262]  lookupTimeSig:vector  ETV
vector 724264  Network.dyn_peer[341]  lookupHopsSig:vector  ETV
vector 724265  Network.dyn_peer[341]  lookupStabilitySig:vector  ETV
vector 724266  Network.dyn_peer[341]  lookupTimeSig:vector  ETV
vector 724270  Network.dyn_peer[343]  lookupHopsSig:vector  ETV
vector 724271  Network.dyn_peer[343]  lookupStabilitySig:vector  ETV
vector 724272  Network.dyn_peer[343]  lookupTimeSig:vector  ETV
vector 723682  Network.dyn_peer[147]  lookupHopsSig:vector  ETV
vector 723683  Network.dyn_peer[147]  lookupStabilitySig:vector  ETV
vector 723684  Network.dyn_peer[147]  lookupTimeSig:vector  ETV
vector 723397  Network.dyn_peer[52]  lookupHopsSig:vector  ETV
vector 723398  Network.dyn_peer[52]  lookupStabilitySig:vector  ETV
vector 723399  Network.dyn_peer[52]  lookupTimeSig:vector  ETV
vector 724318  Network.dyn_peer[359]  lookupHopsSig:vector  ETV
vector 724319  Network.dyn_peer[359]  lookupStabilitySig:vector  ETV
vector 724320  Network.dyn_peer[359]  lookupTimeSig:vector  ETV
vector 724096  Network.dyn_peer[285]  lookupHopsSig:vector  ETV
vector 724097  Network.dyn_peer[285]  lookupStabilitySig:vector  ETV
vector 724098  Network.dyn_peer[285]  lookupTimeSig:vector  ETV
vector 724432  Network.dyn_peer[397]  lookupHopsSig:vector  ETV
vector 724433  Network.dyn_peer[397]  lookupStabilitySig:vector  ETV
vector 724434  Network.dyn_peer[397]  lookupTimeSig:vector  ETV
vector 723883  Network.dyn_peer[214]  lookupHopsSig:vector  ETV
vector 723884  Network.dyn_peer[214]  lookupStabilitySig:vector  ETV
vector 723885  Network.dyn_peer[214]  lookupTimeSig:vector  ETV
vector 724186  Network.dyn_peer[315]  lookupHopsSig:vector  ETV
vector 724187  Network.dyn_peer[315]  lookupStabilitySig:vector  ETV
vector 724188  Network.dyn_peer[315]  lookupTimeSig:vector  ETV
vector 724207  Network.dyn_peer[322]  lookupHopsSig:vector  ETV
vector 724208  Network.dyn_peer[322]  lookupStabilitySig:vector  ETV
vector 724209  Network.dyn_peer[322]  lookupTimeSig:vector  ETV
vector 723325  Network.dyn_peer[28]  lookupHopsSig:vector  ETV
vector 723326  Network.dyn_peer[28]  lookupStabilitySig:vector  ETV
vector 723327  Network.dyn_peer[28]  lookupTimeSig:vector  ETV
vector 723955  Network.dyn_peer[238]  lookupHopsSig:vector  ETV
vector 723956  Network.dyn_peer[238]  lookupStabilitySig:vector  ETV
vector 723957  Network.dyn_peer[238]  lookupTimeSig:vector  ETV
vector 723724  Network.dyn_peer[161]  lookupHopsSig:vector  ETV
vector 723725  Network.dyn_peer[161]  lookupStabilitySig:vector  ETV
vector 723726  Network.dyn_peer[161]  lookupTimeSig:vector  ETV
vector 723739  Network.dyn_peer[166]  lookupHopsSig:vector  ETV
vector 723740  Network.dyn_peer[166]  lookupStabilitySig:vector  ETV
vector 723741  Network.dyn_peer[166]  lookupTimeSig:vector  ETV
vector 723445  Network.dyn_peer[68]  lookupHopsSig:vector  ETV
vector 723446  Network.dyn_peer[68]  lookupStabilitySig:vector  ETV
vector 723447  Network.dyn_peer[68]  lookupTimeSig:vector  ETV
vector 723769  Network.dyn_peer[176]  lookupHopsSig:vector  ETV
vector 723770  Network.dyn_peer[176]  lookupStabilitySig:vector  ETV
vector 723771  Network.dyn_peer[176]  lookupTimeSig:vector  ETV
vector 724399  Network.dyn_peer[386]  lookupHopsSig:vector  ETV
vector 724400  Network.dyn_peer[386]  lookupStabilitySig:vector  ETV
vector 724401  Network.dyn_peer[386]  lookupTimeSig:vector  ETV
vector 723820  Network.dyn_peer[193]  lookupHopsSig:vector  ETV
vector 723821  Network.dyn_peer[193]  lookupStabilitySig:vector  ETV
vector 723822  Network.dyn_peer[193]  lookupTimeSig:vector  ETV
vector 723274  Network.dyn_peer[11]  lookupHopsSig:vector  ETV
vector 723275  Network.dyn_peer[11]  lookupStabilitySig:vector  ETV
vector 723276  Network.dyn_peer[11]  lookupTimeSig:vector  ETV
vector 724192  Network.dyn_peer[317]  lookupHopsSig:vector  ETV
vector 724193  Network.dyn_peer[317]  lookupStabilitySig:vector  ETV
vector 724194  Network.dyn_peer[317]  lookupTimeSig:vector  ETV
vector 723937  Network.dyn_peer[232]  lookupHopsSig:vector  ETV
vector 723938  Network.dyn_peer[232]  lookupStabilitySig:vector  ETV
vector 723939  Network.dyn_peer[232]  lookupTimeSig:vector  ETV
vector 723646  Network.dyn_peer[135]  lookupHopsSig:vector  ETV
vector 723647  Network.dyn_peer[135]  lookupStabilitySig:vector  ETV
vector 723648  Network.dyn_peer[135]  lookupTimeSig:vector  ETV
vector 723394  Network.dyn_peer[51]  lookupHopsSig:vector  ETV
vector 723395  Network.dyn_peer[51]  lookupStabilitySig:vector  ETV
vector 723396  Network.dyn_peer[51]  lookupTimeSig:vector  ETV
vector 723442  Network.dyn_peer[67]  lookupHopsSig:vector  ETV
vector 723443  Network.dyn_peer[67]  lookupStabilitySig:vector  ETV
vector 723444  Network.dyn_peer[67]  lookupTimeSig:vector  ETV
vector 723763  Network.dyn_peer[174]  lookupHopsSig:vector  ETV
vector 723764  Network.dyn_peer[174]  lookupStabilitySig:vector  ETV
vector 723765  Network.dyn_peer[174]  lookupTimeSig:vector  ETV
vector 723256  Network.dyn_peer[5]  lookupHopsSig:vector  ETV
vector 723257  Network.dyn_peer[5]  lookupStabilitySig:vector  ETV
vector 723258  Network.dyn_peer[5]  lookupTimeSig:vector  ETV
vector 723913  Network.dyn_peer[224]  lookupHopsSig:vector  ETV
vector 723914  Network.dyn_peer[224]  lookupStabilitySig:vector  ETV
vector 723915  Network.dyn_peer[224]  lookupTimeSig:vector  ETV
vector 724219  Network.dyn_peer[326]  lookupHopsSig:vector  ETV
vector 724220  Network.dyn_peer[326]  lookupStabilitySig:vector  ETV
vector 724221  Network.dyn_peer[326]  lookupTimeSig:vector  ETV
vector 723625  Network.dyn_peer[128]  lookupHopsSig:vector  ETV
vector 723626  Network.dyn_peer[128]  lookupStabilitySig:vector  ETV
vector 723627  Network.dyn_peer[128]  lookupTimeSig:vector  ETV
vector 723958  Network.dyn_peer[239]  lookupHopsSig:vector  ETV
vector 723959  Network.dyn_peer[239]  lookupStabilitySig:vector  ETV
vector 723960  Network.dyn_peer[239]  lookupTimeSig:vector  ETV
vector 723670  Network.dyn_peer[143]  lookupHopsSig:vector  ETV
vector 723671  Network.dyn_peer[143]  lookupStabilitySig:vector  ETV
vector 723672  Network.dyn_peer[143]  lookupTimeSig:vector  ETV
vector 724303  Network.dyn_peer[354]  lookupHopsSig:vector  ETV
vector 724304  Network.dyn_peer[354]  lookupStabilitySig:vector  ETV
vector 724305  Network.dyn_peer[354]  lookupTimeSig:vector  ETV
vector 723742  Network.dyn_peer[167]  lookupHopsSig:vector  ETV
vector 723743  Network.dyn_peer[167]  lookupStabilitySig:vector  ETV
vector 723744  Network.dyn_peer[167]  lookupTimeSig:vector  ETV
vector 724066  Network.dyn_peer[275]  lookupHopsSig:vector  ETV
vector 724067  Network.dyn_peer[275]  lookupStabilitySig:vector  ETV