version 2
run Stability2-105-20130526-00:51:38-26640
attr configname Stability2
attr datetime 20130526-00:51:38
attr experiment Stability2
attr inifile omnetpp.ini
attr iterationvars $0=40
attr iterationvars2 "$0=40, $repetition=15"
attr measurement $0=40
attr network Network
attr processid 26640
attr repetition 15
attr replication #15
attr resultdir results
attr runnumber 105
attr seedset 105

vector 318105  Network.churner  inGoingSizeSig:vector  ETV
vector 315114  Network.dyn_peer[3]  lookupHopsSig:vector  ETV
vector 315115  Network.dyn_peer[3]  lookupStabilitySig:vector  ETV
vector 315116  Network.dyn_peer[3]  lookupTimeSig:vector  ETV
vector 315150  Network.dyn_peer[15]  lookupHopsSig:vector  ETV
vector 315151  Network.dyn_peer[15]  lookupStabilitySig:vector  ETV
vector 315152  Network.dyn_peer[15]  lookupTimeSig:vector  ETV
vector 315177  Network.dyn_peer[24]  lookupHopsSig:vector  ETV
vector 315178  Network.dyn_peer[24]  lookupStabilitySig:vector  ETV
vector 315179  Network.dyn_peer[24]  lookupTimeSig:vector  ETV
vector 315210  Network.dyn_peer[35]  lookupHopsSig:vector  ETV
vector 315211  Network.dyn_peer[35]  lookupStabilitySig:vector  ETV
vector 315212  Network.dyn_peer[35]  lookupTimeSig:vector  ETV
vector 315108  Network.dyn_peer[1]  lookupHopsSig:vector  ETV
vector 315109  Network.dyn_peer[1]  lookupStabilitySig:vector  ETV
vector 315110  Network.dyn_peer[1]  lookupTimeSig:vector  ETV
vector 315120  Network.dyn_peer[5]  lookupHopsSig:vector  ETV
vector 315121  Network.dyn_peer[5]  lookupStabilitySig:vector  ETV
vector 315122  Network.dyn_peer[5]  lookupTimeSig:vector  ETV
vector 315153  Network.dyn_peer[16]  lookupHopsSig:vector  ETV
vector 315154  Network.dyn_peer[16]  lookupStabilitySig:vector  ETV
vector 315155  Network.dyn_peer[16]  lookupTimeSig:vector  ETV
vector 315174  Network.dyn_peer[23]  lookupHopsSig:vector  ETV
vector 315175  Network.dyn_peer[23]  lookupStabilitySig:vector  ETV
vector 315176  Network.dyn_peer[23]  lookupTimeSig:vector  ETV
vector 315192  Network.dyn_peer[29]  lookupHopsSig:vector  ETV
vector 315193  Network.dyn_peer[29]  lookupStabilitySig:vector  ETV
vector 315194  Network.dyn_peer[29]  lookupTimeSig:vector  ETV
vector 315216  Network.dyn_peer[37]  lookupHopsSig:vector  ETV
vector 315217  Network.dyn_peer[37]  lookupStabilitySig:vector  ETV
vector 315218  Network.dyn_peer[37]  lookupTimeSig:vector  ETV
vector 315219  Network.dyn_peer[38]  lookupHopsSig:vector  ETV
vector 315220  Network.dyn_peer[38]  lookupStabilitySig:vector  ETV
vector 315221  Network.dyn_peer[38]  lookupTimeSig:vector  ETV
vector 315126  Network.dyn_peer[7]  lookupHopsSig:vector  ETV
vector 315127  Network.dyn_peer[7]  lookupStabilitySig:vector  ETV
vector 315128  Network.dyn_peer[7]  lookupTimeSig:vector  ETV
vector 315147  Network.dyn_peer[14]  lookupHopsSig:vector  ETV
vector 315148  Network.dyn_peer[14]  lookupStabilitySig:vector  ETV
vector 315149  Network.dyn_peer[14]  lookupTimeSig:vector  ETV
vector 315171  Network.dyn_peer[22]  lookupHopsSig:vector  ETV
vector 315172  Network.dyn_peer[22]  lookupStabilitySig:vector  ETV
vector 315173  Network.dyn_peer[22]  lookupTimeSig:vector  ETV
vector 315183  Network.dyn_peer[26]  lookupHopsSig:vector  ETV
vector 315184  Network.dyn_peer[26]  lookupStabilitySig:vector  ETV
vector 315185  Network.dyn_peer[26]  lookupTimeSig:vector  ETV
vector 315186  Network.dyn_peer[27]  lookupHopsSig:vector  ETV
vector 315187  Network.dyn_peer[27]  lookupStabilitySig:vector  ETV
vector 315188  Network.dyn_peer[27]  lookupTimeSig:vector  ETV
vector 315189  Network.dyn_peer[28]  lookupHopsSig:vector  ETV
vector 315190  Network.dyn_peer[28]  lookupStabilitySig:vector  ETV
vector 315191  Network.dyn_peer[28]  lookupTimeSig:vector  ETV
vector 315117  Network.dyn_peer[4]  lookupHopsSig:vector  ETV
vector 315118  Network.dyn_peer[4]  lookupStabilitySig:vector  ETV
vector 315119  Network.dyn_peer[4]  lookupTimeSig:vector  ETV
vector 315123  Network.dyn_peer[6]  lookupHopsSig:vector  ETV
vector 315124  Network.dyn_peer[6]  lookupStabilitySig:vector  ETV
vector 315125  Network.dyn_peer[6]  lookupTimeSig:vector  ETV
vector 315135  Network.dyn_peer[10]  lookupHopsSig:vector  ETV
vector 315136  Network.dyn_peer[10]  lookupStabilitySig:vector  ETV
vector 315137  Network.dyn_peer[10]  lookupTimeSig:vector  ETV
vector 315156  Network.dyn_peer[17]  lookupHopsSig:vector  ETV
vector 315157  Network.dyn_peer[17]  lookupStabilitySig:vector  ETV
vector 315158  Network.dyn_peer[17]  lookupTimeSig:vector  ETV
vector 315207  Network.dyn_peer[34]  lookupHopsSig:vector  ETV
vector 315208  Network.dyn_peer[34]  lookupStabilitySig:vector  ETV
vector 315209  Network.dyn_peer[34]  lookupTimeSig:vector  ETV
vector 315213  Network.dyn_peer[36]  lookupHopsSig:vector  ETV
vector 315214  Network.dyn_peer[36]  lookupStabilitySig:vector  ETV
vector 315215  Network.dyn_peer[36]  lookupTimeSig:vector  ETV
vector 315129  Network.dyn_peer[8]  lookupHopsSig:vector  ETV
vector 315130  Network.dyn_peer[8]  lookupStabilitySig:vector  ETV
vector 315131  Network.dyn_peer[8]  lookupTimeSig:vector  ETV
vector 315132  Network.dyn_peer[9]  lookupHopsSig:vector  ETV
vector 315133  Network.dyn_peer[9]  lookupStabilitySig:vector  ETV
vector 315134  Network.dyn_peer[9]  lookupTimeSig:vector  ETV
vector 315165  Network.dyn_peer[20]  lookupHopsSig:vector  ETV
vector 315166  Network.dyn_peer[20]  lookupStabilitySig:vector  ETV
vector 315167  Network.dyn_peer[20]  lookupTimeSig:vector  ETV
vector 315111  Network.dyn_peer[2]  lookupHopsSig:vector  ETV
vector 315112  Network.dyn_peer[2]  lookupStabilitySig:vector  ETV
vector 315113  Network.dyn_peer[2]  lookupTimeSig:vector  ETV
vector 315144  Network.dyn_peer[13]  lookupHopsSig:vector  ETV
vector 315145  Network.dyn_peer[13]  lookupStabilitySig:vector  ETV
vector 315146  Network.dyn_peer[13]  lookupTimeSig:vector  ETV
vector 315162  Network.dyn_peer[19]  lookupHopsSig:vector  ETV
vector 315163  Network.dyn_peer[19]  lookupStabilitySig:vector  ETV
vector 315164  Network.dyn_peer[19]  lookupTimeSig:vector  ETV
vector 315168  Network.dyn_peer[21]  lookupHopsSig:vector  ETV
vector 315169  Network.dyn_peer[21]  lookupStabilitySig:vector  ETV
vector 315170  Network.dyn_peer[21]  lookupTimeSig:vector  ETV
vector 315195  Network.dyn_peer[30]  lookupHopsSig:vector  ETV
vector 315196  Network.dyn_peer[30]  lookupStabilitySig:vector  ETV
vector 315197  Network.dyn_peer[30]  lookupTimeSig:vector  ETV
vector 315222  Network.dyn_peer[39]  lookupHopsSig:vector  ETV
vector 315223  Network.dyn_peer[39]  lookupStabilitySig:vector  ETV
vector 315224  Network.dyn_peer[39]  lookupTimeSig:vector  ETV
vector 315105  Network.dyn_peer[0]  lookupHopsSig:vector  ETV
vector 315106  Network.dyn_peer[0]  lookupStabilitySig:vector  ETV
vector 315107  Network.dyn_peer[0]  lookupTimeSig:vector  ETV
vector 315138  Network.dyn_peer[11]  lookupHopsSig:vector  ETV
vector 315139  Network.dyn_peer[11]  lookupStabilitySig:vector  ETV
vector 315140  Network.dyn_peer[11]  lookupTimeSig:vector  ETV
vector 315141  Network.dyn_peer[12]  lookupHopsSig:vector  ETV
vector 315142  Network.dyn_peer[12]  lookupStabilitySig:vector  ETV
vector 315143  Network.dyn_peer[12]  lookupTimeSig:vector  ETV
vector 315201  Network.dyn_peer[32]  lookupHopsSig:vector  ETV
vector 315202  Network.dyn_peer[32]  lookupStabilitySig:vector  ETV
vector 315203  Network.dyn_peer[32]  lookupTimeSig:vector  ETV
vector 315159  Network.dyn_peer[18]  lookupHopsSig:vector  ETV
vector 315160  Network.dyn_peer[18]  lookupStabilitySig:vector  ETV
vector 315161  Network.dyn_peer[18]  lookupTimeSig:vector  ETV
vector 315180  Network.dyn_peer[25]  lookupHopsSig:vector  ETV
vector 315181  Network.dyn_peer[25]  lookupStabilitySig:vector  ETV
vector 315182  Network.dyn_peer[25]  lookupTimeSig:vector  ETV
vector 315204  Network.dyn_peer[33]  lookupHopsSig:vector  ETV
vector 315205  Network.dyn_peer[33]  lookupStabilitySig:vector  ETV
vector 315206  Network.dyn_peer[33]  lookupTimeSig:vector  ETV
vector 315198  Network.dyn_peer[31]  lookupHopsSig:vector  ETV
vector 315199  Network.dyn_peer[31]  lookupStabilitySig:vector  ETV
vector 315200  Network.dyn_peer[31]  lookupTimeSig:vector  ETV
315105	563	20.701	7
315105	1071	21.601	8
315105	1233	22.010195098015	3
315105	1370	22.620189388697	5
315106	563	20.701	-0.16666662693024
315106	1071	21.601	0.55555555224419
315106	1233	22.010195098015	0.88888888806105
315106	1370	22.620189388697	0.86842104792595
315107	563	20.701	0.7
315107	1071	21.601	0.9
315107	1233	22.010195098015	0.4
315107	1370	22.620189388697	0.6
315108	157	20.102	1
315108	625	20.802	6
315108	748	21.011614267116	1
315108	1029	21.513202394009	4
315109	157	20.102	0.79999999701977
315109	625	20.802	0
315109	748	21.011614267116	0.875
315109	1029	21.513202394009	0.73333331942558
315110	157	20.102	0.1
315110	625	20.802	0.7
315110	748	21.011614267116	0.2
315110	1029	21.513202394009	0.5
315111	489	20.603	6
315111	739	21.003	3
315111	929	21.311488168143	2
315112	489	20.603	-0.20000004768372
315112	739	21.003	0.625
315112	929	21.311488168143	0.81818181276321
315113	489	20.603	0.6
315113	739	21.003	0.4
315113	929	21.311488168143	0.3
315114	27	20.004	0
315114	684	20.904	8
315114	927	21.308441826352	3
315114	1118	21.712010076211	3
315115	27	20.004	1
315115	684	20.904	-0.33333337306976
315115	927	21.308441826352	0.72727271914482
315115	1118	21.712010076211	0.84210526943207
315116	27	20.004	0
315116	684	20.904	0.9
315116	927	21.308441826352	0.4
315116	1118	21.712010076211	0.4
315117	302	20.305	3
315117	569	20.705	3
315117	697	20.913349800573	1
315117	815	21.114039003546	1
315118	302	20.305	0.39999997615814
315118	569	20.705	0.5
315118	697	20.913349800573	0.85714285075665
315118	815	21.114039003546	0.88888888806105
315119	302	20.305	0.3
315119	569	20.705	0.4
315119	697	20.913349800573	0.2
315119	815	21.114039003546	0.2
315120	165	20.106	1
315120	374	20.406	2
315120	498	20.612725470151	1
315120	1204	21.918988504967	12
315121	165	20.106	0.79999999701977
315121	374	20.406	0.59999999403954
315121	498	20.612725470151	0.79999999701977
315121	1204	21.918988504967	0.5
315122	165	20.106	0.1
315122	374	20.406	0.3
315122	498	20.612725470151	0.2
315122	1204	21.918988504967	1.3
315123	308	20.307	3
315123	571	20.707	3
315123	745	21.010162518376	2
315123	1032	21.517518802445	4
315124	308	20.307	0.39999997615814
315124	571	20.707	0.5
315124	745	21.010162518376	0.75
315124	1032	21.517518802445	0.75
315125	308	20.307	0.3
315125	571	20.707	0.4
315125	745	21.010162518376	0.3
315125	1032	21.517518802445	0.5
315126	235	20.208	2
315126	687	20.908	6
315127	235	20.208	0.59999999403954
315127	687	20.908	0
315128	235	20.208	0.2
315128	687	20.908	0.7
315129	429	20.509	5
315129	743	21.009	4
315129	1079	21.617980917883	5
315129	1237	22.026128999971	3
315129	1382	22.731707871587	6
315130	429	20.509	0
315130	743	21.009	0.5
315130	1079	21.617980917883	0.72222220897675
315130	1237	22.026128999971	0.88888888806105
315130	1382	22.731707871587	0.84615384042263
315131	429	20.509	0.5
315131	743	21.009	0.5
315131	1079	21.617980917883	0.6
315131	1237	22.026128999971	0.4
315131	1382	22.731707871587	0.7
315132	434	20.51	5
315132	755	21.01555216844	4
315132	945	21.321292714979	2
315132	1267	22.124459437063	7
315132	1339	22.42853601977	2
315133	434	20.51	0
315133	755	21.01555216844	0.5
315133	945	21.321292714979	0.84615384042263
315133	1267	22.124459437063	0.75
315133	1339	22.42853601977	0.9411764703691
315134	434	20.51	0.5
315134	755	21.01555216844	0.5
315134	945	21.321292714979	0.3
315134	1267	22.124459437063	0.8
315134	1339	22.42853601977	0.3
315135	316	20.311	3
315135	692	20.911	5
315135	933	21.313710760191	3
315136	316	20.311	0.39999997615814
315136	692	20.911	0.28571426868439
315136	933	21.313710760191	0.75
315137	316	20.311	0.3
315137	692	20.911	0.6
315137	933	21.313710760191	0.4
315138	580	20.712	7
315138	868	21.212	4
315138	1077	21.616682620465	3
315138	1206	21.921512822466	2
315139	580	20.712	-0.16666662693024
315139	868	21.212	0.59999999403954
315139	1077	21.616682620465	0.83333332836628
315139	1206	21.921512822466	0.91666666418314
315140	580	20.712	0.7
315140	868	21.212	0.5
315140	1077	21.616682620465	0.4
315140	1206	21.921512822466	0.3
315141	585	20.713	7
315141	870	21.213	4
315141	1084	21.620802572257	3
315141	1209	21.925271688391	2
315142	585	20.713	-0.16666662693024
315142	870	21.213	0.59999999403954
315142	1084	21.620802572257	0.83333332836628
315142	1209	21.925271688391	0.92000000178814
315143	585	20.713	0.7
315143	870	21.213	0.5
315143	1084	21.620802572257	0.4
315143	1209	21.925271688391	0.3
315144	504	20.614	6
315144	700	20.914	2
315144	879	21.220597719911	2
315144	992	21.424992681886	1
315144	1273	22.135018531719	6
315145	504	20.614	-0.20000004768372
315145	700	20.914	0.71428570151329
315145	879	21.220597719911	0.79999999701977
315145	992	21.424992681886	0.92857142537832
315145	1273	22.135018531719	0.78571428358555
315146	504	20.614	0.6
315146	700	20.914	0.3
315146	879	21.220597719911	0.3
315146	992	21.424992681886	0.2
315146	1273	22.135018531719	0.7
315147	251	20.215	2
315147	506	20.615	3
315147	888	21.222715702373	5
315147	1169	21.823004795731	5
315148	251	20.215	0.59999999403954
315148	506	20.615	0.39999997615814
315148	888	21.222715702373	0.5
315148	1169	21.823004795731	0.77272726595402
315149	251	20.215	0.2
315149	506	20.615	0.4
315149	888	21.222715702373	0.6
315149	1169	21.823004795731	0.6
315150	71	20.016	0
315150	389	20.416	3
315150	530	20.622987253758	1
315151	71	20.016	1
315151	389	20.416	0.39999997615814
315151	530	20.622987253758	0.79999999701977
315152	71	20.016	0
315152	389	20.416	0.4
315152	530	20.622987253758	0.2
315153	183	20.117	1
315153	327	20.317	1
315153	716	20.923694227759	5
315154	183	20.117	0.79999999701977
315154	327	20.317	0.79999999701977
315154	716	20.923694227759	0.28571426868439
315155	183	20.117	0.1
315155	327	20.317	0.2
315155	716	20.923694227759	0.6
315156	332	20.318	3
315156	510	20.618	2
315156	766	21.02073867978	3
315156	955	21.331688124657	2
315157	332	20.318	0.39999997615814
315157	510	20.618	0.59999999403954
315157	766	21.02073867978	0.625
315157	955	21.331688124657	0.84615384042263
315158	332	20.318	0.3
315158	510	20.618	0.3
315158	766	21.02073867978	0.4
315158	955	21.331688124657	0.3
315159	645	20.819	8
315159	762	21.019	1
315159	1038	21.521534315858	4
315160	645	20.819	-0.33333337306976
315160	762	21.019	0.875
315160	1038	21.521534315858	0.75
315161	645	20.819	0.8
315161	762	21.019	0.2
315161	1038	21.521534315858	0.5
315162	517	20.62	6
315162	824	21.12	4
315162	1173	21.82518922209	6
315162	1395	22.828464989845	9
315163	517	20.62	-0.20000004768372
315163	824	21.12	0.59999999403954
315163	1173	21.82518922209	0.72727271914482
315163	1395	22.828464989845	0.78571428358555
315164	517	20.62	0.6
315164	824	21.12	0.5
315164	1173	21.82518922209	0.7
315164	1395	22.828464989845	1
315165	454	20.521	5
315165	942	21.321	7
315165	1178	21.828737908971	4
315166	454	20.521	0
315166	942	21.321	0.46153843402863
315166	1178	21.828737908971	0.81818181276321
315167	454	20.521	0.5
315167	942	21.321	0.8
315167	1178	21.828737908971	0.5
315168	526	20.622	6
315168	772	21.022	3
315168	999	21.428887576822	3
315168	1251	22.038899040974	5
315168	1364	22.547700608626	4
315169	526	20.622	-0.20000004768372
315169	772	21.022	0.625
315169	999	21.428887576822	0.78571428358555
315169	1251	22.038899040974	0.8214285671711
315169	1364	22.547700608626	0.89189188927412
315170	526	20.622	0.6
315170	772	21.022	0.4
315170	999	21.428887576822	0.4
315170	1251	22.038899040974	0.6
315170	1364	22.547700608626	0.5
315171	263	20.223	2
315171	833	21.123	8
315171	1131	21.732824891737	5
315172	263	20.223	0.59999999403954
315172	833	21.123	0.19999998807907
315172	1131	21.732824891737	0.75
315173	263	20.223	0.2
315173	833	21.123	0.9
315173	1131	21.732824891737	0.6
315174	194	20.124	1
315174	341	20.324	1
315174	847	21.132503737284	7
315174	1247	22.037143800063	8
315175	194	20.124	0.79999999701977
315175	341	20.324	0.79999999701977
315175	847	21.132503737284	0.30000001192093
315175	1247	22.037143800063	0.70370370149612
315176	194	20.124	0.1
315176	341	20.324	0.2
315176	847	21.132503737284	0.8
315176	1247	22.037143800063	0.9
315177	102	20.025	0
315177	462	20.525	4
315177	789	21.032065656448	4
315177	915	21.237822609319	1
315177	1308	22.247186692402	9
315178	102	20.025	1
315178	462	20.525	0.19999998807907
315178	789	21.032065656448	0.5
315178	915	21.237822609319	0.90909090638161
315178	1308	22.247186692402	0.70967742800713
315179	102	20.025	0
315179	462	20.525	0.5
315179	789	21.032065656448	0.5
315179	915	21.237822609319	0.2
315179	1308	22.247186692402	1
315180	659	20.826	8
315180	1043	21.526	6
315180	1241	22.032243682615	4
315180	1301	22.2323140657	1
315181	659	20.826	-0.33333337306976
315181	1043	21.526	0.625
315181	1241	22.032243682615	0.85185185074806
315181	1301	22.2323140657	0.9666666649282
315182	659	20.826	0.8
315182	1043	21.526	0.7
315182	1241	22.032243682615	0.5
315182	1301	22.2323140657	0.2
315183	271	20.227	2
315183	778	21.027	7
315183	1052	21.534145918942	4
315183	1322	22.335170735094	7
315183	1360	22.541169256757	1
315184	271	20.227	0.59999999403954
315184	778	21.027	0.125
315184	1052	21.534145918942	0.77777777612209
315184	1322	22.335170735094	0.78787878155708
315184	1360	22.541169256757	0.97222222201526
315185	271	20.227	0.2
315185	778	21.027	0.8
315185	1052	21.534145918942	0.5
315185	1322	22.335170735094	0.8
315185	1360	22.541169256757	0.2
315186	276	20.228	2
315186	895	21.228	9
315187	276	20.228	0.59999999403954
315187	895	21.228	0.10000002384186
315188	276	20.228	0.2
315188	895	21.228	1
315189	281	20.229	2
315189	783	21.029	7
315189	1186	21.83709708456	7
315189	1306	22.246056122675	3
315190	281	20.229	0.59999999403954
315190	783	21.029	0.125
315190	1186	21.83709708456	0.70833334326744
315190	1306	22.246056122675	0.90322580933571
315191	281	20.229	0.2
315191	783	21.029	0.8
315191	1186	21.83709708456	0.8
315191	1306	22.246056122675	0.4
315192	204	20.13	1
315192	898	21.23	10
315192	1139	21.737864563409	4
315193	204	20.13	0.79999999701977
315193	898	21.23	0.090909063816071
315193	1139	21.737864563409	0.79999999701977
315194	204	20.13	0.1
315194	898	21.23	1.1
315194	1139	21.737864563409	0.5
315195	542	20.631	6
315195	900	21.231	5
315195	1056	21.536183227134	2
315195	1189	21.837404776123	2
315195	1332	22.356258874076	4
315196	542	20.631	0
315196	900	21.231	0.54545453190804
315196	1056	21.536183227134	0.88888888806105
315196	1189	21.837404776123	0.91666666418314
315196	1332	22.356258874076	0.87878787517548
315197	542	20.631	0.6
315197	900	21.231	0.6
315197	1056	21.536183227134	0.3
315197	1189	21.837404776123	0.3
315197	1332	22.356258874076	0.5
315198	845	21.132	11
315198	1093	21.632	4
315198	1278	22.139171725756	4
315199	845	21.132	-0.10000002384186
315199	1093	21.632	0.77777777612209
315199	1278	22.139171725756	0.85714285075665
315200	845	21.132	1.1
315200	1093	21.632	0.5
315200	1278	22.139171725756	0.5
315201	615	20.733	7
315201	1097	21.633	8
315202	615	20.733	-0.16666662693024
315202	1097	21.633	0.55555555224419
315203	615	20.733	0.7
315203	1097	21.633	0.9
315204	674	20.834	8
315204	1005	21.434	5
315204	1146	21.740677607358	2
315204	1283	22.140683625306	3
315204	1347	22.445820924451	2
315204	1401	22.953806996897	4
315205	674	20.834	-0.33333337306976
315205	1005	21.434	0.64285713434219
315205	1146	21.740677607358	0.89999999850988
315205	1283	22.140683625306	0.89999999850988
315205	1347	22.445820924451	0.94285714253783
315205	1401	22.953806996897	0.90697674453259
315206	674	20.834	0.8
315206	1005	21.434	0.6
315206	1146	21.740677607358	0.3
315206	1283	22.140683625306	0.4
315206	1347	22.445820924451	0.3
315206	1401	22.953806996897	0.5
315207	358	20.335	3
315207	963	21.335	9
315207	1249	22.038893177588	6
315207	1343	22.44054179852	3
315207	1384	22.745533470854	2
315208	358	20.335	0.39999997615814
315208	963	21.335	0.35714286565781
315208	1249	22.038893177588	0.78571428358555
315208	1343	22.44054179852	0.9142857119441
315208	1384	22.745533470854	0.94999999925494
315209	358	20.335	0.3
315209	963	21.335	1
315209	1249	22.038893177588	0.7
315209	1343	22.44054179852	0.4
315209	1384	22.745533470854	0.3
315210	139	20.036	0
315210	477	20.536	4
315210	1017	21.439513401255	8
315210	1152	21.747053312678	2
315210	1328	22.351767771064	5
315210	1388	22.755063525581	3
315210	1420	23.563349951008	7
315210	1430	23.969732880842	3
315210	1441	24.271410004675	2
315211	139	20.036	1
315211	477	20.536	0.19999998807907
315211	1017	21.439513401255	0.42857140302658
315211	1152	21.747053312678	0.90476190298796
315211	1328	22.351767771064	0.84848484396935
315211	1388	22.755063525581	0.92682927101851
315211	1420	23.563349951008	0.84090909361839
315211	1430	23.969732880842	0.93181817978621
315211	1441	24.271410004675	0.9545454531908
315212	139	20.036	0
315212	477	20.536	0.5
315212	1017	21.439513401255	0.9
315212	1152	21.747053312678	0.3
315212	1328	22.351767771064	0.6
315212	1388	22.755063525581	0.4
315212	1420	23.563349951008	0.8
315212	1430	23.969732880842	0.4
315212	1441	24.271410004675	0.3
315213	364	20.337	3
315213	911	21.237	8
315213	1158	21.748600123583	4
315213	1261	22.053257747166	2
315213	1390	22.757159157348	6
315214	364	20.337	0.39999997615814
315214	911	21.237	0.27272725105286
315214	1158	21.748600123583	0.80952380597591
315214	1261	22.053257747166	0.92857142537832
315214	1390	22.757159157348	0.85365854203701
315215	364	20.337	0.3
315215	911	21.237	0.9
315215	1158	21.748600123583	0.5
315215	1261	22.053257747166	0.3
315215	1390	22.757159157348	0.7
315216	216	20.138	1
315216	861	21.146270339858	9
315216	1154	21.747181452346	5
315216	1228	21.952160192551	1
315216	1351	22.454069473654	4
315217	216	20.138	0.79999999701977
315217	861	21.146270339858	0.10000002384186
315217	1154	21.747181452346	0.76190476119518
315217	1228	21.952160192551	0.96296296268702
315217	1351	22.454069473654	0.88571428507566
315218	216	20.138	0.1
315218	861	21.146270339858	1
315218	1154	21.747181452346	0.6
315218	1228	21.952160192551	0.2
315218	1351	22.454069473654	0.5
315219	221	20.139	1
315219	800	21.039	8
315219	1144	21.739347020581	5
315219	1285	22.141944032777	3
315219	1377	22.656273574016	4
315219	1405	22.964281843304	2
315219	1415	23.364828478241	3
315219	1434	23.973445744	5
315219	1449	24.775738726959	7
315219	1456	25.279924563474	4
315219	1463	25.691395387593	3
315219	1473	26.498153613067	7
315220	221	20.139	0.79999999701977
315220	800	21.039	0
315220	1144	21.739347020581	0.75
315220	1285	22.141944032777	0.89999999850988
315220	1377	22.656273574016	0.89743589609861
315220	1405	22.964281843304	0.9545454531908
315220	1415	23.364828478241	0.93181817978621
315220	1434	23.973445744	0.88636363297701
315220	1449	24.775738726959	0.84444443881512
315220	1456	25.279924563474	0.91111110895872
315220	1463	25.691395387593	0.9333333298564
315220	1473	26.498153613067	0.84444443881512
315221	221	20.139	0.1
315221	800	21.039	0.9
315221	1144	21.739347020581	0.6
315221	1285	22.141944032777	0.4
315221	1377	22.656273574016	0.5
315221	1405	22.964281843304	0.3
315221	1415	23.364828478241	0.4
315221	1434	23.973445744	0.6
315221	1449	24.775738726959	0.8
315221	1456	25.279924563474	0.5
315221	1463	25.691395387593	0.4
315221	1473	26.498153613067	0.8
315222	557	20.64	6
315222	803	21.04	3
315222	1020	21.441765966424	3
315223	557	20.64	0
315223	803	21.04	0.66666665673256
315223	1020	21.441765966424	0.78571428358555
315224	557	20.64	0.6
315224	803	21.04	0.4
315224	1020	21.441765966424	0.4
318105	11	20	0
318105	12	20.001	0
318105	15	20.002	1
318105	18	20.003	2
318105	21	20.004	3
318105	28	20.005	4
318105	31	20.006	5
318105	34	20.007	6
318105	37	20.008	7
318105	40	20.009	8
318105	43	20.01	9
318105	47	20.011	10
318105	51	20.012	11
318105	55	20.013	12
318105	58	20.014	13
318105	62	20.015	14
318105	65	20.016	15
318105	72	20.017	16
318105	75	20.018	17
318105	78	20.019	18
318105	81	20.02	19
318105	84	20.021	20
318105	87	20.022	21
318105	90	20.023	22
318105	93	20.024	23
318105	96	20.025	24
318105	103	20.026	25
318105	106	20.027	26
318105	109	20.028	27
318105	112	20.029	28
318105	115	20.03	29
318105	118	20.031	30
318105	121	20.032	31
318105	124	20.033	32
318105	127	20.034	33
318105	130	20.035	34
318105	133	20.036	35
318105	140	20.037	36
318105	143	20.038	37
318105	146	20.039	38
318105	149	20.04	39
