file 210752 1369674129                                          
version 2
run Stability2-236-20130526-00:52:53-26640
attr configname Stability2
attr datetime 20130526-00:52:53
attr experiment Stability2
attr inifile omnetpp.ini
attr iterationvars $0=300
attr iterationvars2 "$0=300, $repetition=26"
attr measurement $0=300
attr network Network
attr processid 26640
attr repetition 26
attr replication #26
attr resultdir results
attr runnumber 236
attr seedset 236
vector 711236  Network.churner  inGoingSizeSig:vector  ETV
711236	204231 6521 10 1423 20 20.3 301 0 299 44850 8955050
vector 708260  Network.dyn_peer[8]  lookupHopsSig:vector  ETV
708260	63768 112 41 17581 20.009 25.531580496874 4 0 33 52 1270
vector 708261  Network.dyn_peer[8]  lookupStabilitySig:vector  ETV
708261	63880 142 41 17581 20.009 25.531580496874 4 -0.5 1 1.7648234367371 2.1002780185019
vector 708262  Network.dyn_peer[8]  lookupTimeSig:vector  ETV
708262	64022 114 41 17581 20.009 25.531580496874 4 0 3.4 5.5 13.77
vector 708275  Network.dyn_peer[13]  lookupHopsSig:vector  ETV
708275	65207 78 60 6342 20.014 21.71689973271 3 0 13 15 173
vector 708276  Network.dyn_peer[13]  lookupStabilitySig:vector  ETV
708276	65285 108 60 6342 20.014 21.71689973271 3 -0.85714280605316 1 0.96103900671005 2.4041152687052
vector 708277  Network.dyn_peer[13]  lookupTimeSig:vector  ETV
708277	65393 81 60 6342 20.014 21.71689973271 3 0 1.4 1.7 2.05
vector 708281  Network.dyn_peer[15]  lookupHopsSig:vector  ETV
708281	65955 104 71 17781 20.016 25.626539273752 4 0 26 53 1185
vector 708282  Network.dyn_peer[15]  lookupStabilitySig:vector  ETV
708282	66059 148 71 17781 20.016 25.626539273752 4 0.037037014961243 1 2.7950080260634 2.5469062863407
vector 708283  Network.dyn_peer[15]  lookupTimeSig:vector  ETV
708283	66207 108 71 17781 20.016 25.626539273752 4 0 2.7 5.6 12.94
vector 708284  Network.dyn_peer[16]  lookupHopsSig:vector  ETV
708284	66315 112 79 13012 20.017 23.728375038291 4 0 17 34 458
vector 708285  Network.dyn_peer[16]  lookupStabilitySig:vector  ETV
708285	66427 146 79 13012 20.017 23.728375038291 4 -0.21428573131561 1 2.405906572938 2.3584414829959
vector 708286  Network.dyn_peer[16]  lookupTimeSig:vector  ETV
708286	66573 116 79 13012 20.017 23.728375038291 4 0 1.8 3.7 5.29
vector 708287  Network.dyn_peer[17]  lookupHopsSig:vector  ETV
708287	66689 104 86 15741 20.018 24.725023064524 4 0 23 44 762
vector 708288  Network.dyn_peer[17]  lookupStabilitySig:vector  ETV
708288	66793 147 86 15741 20.018 24.725023064524 4 0.11538463830948 1 2.8652303665876 2.549912724349
vector 708289  Network.dyn_peer[17]  lookupTimeSig:vector  ETV
708289	66940 108 86 15741 20.018 24.725023064524 4 0 2.4 4.7 8.53
vector 708338  Network.dyn_peer[34]  lookupHopsSig:vector  ETV
708338	74052 106 143 16289 20.035 24.943895568951 4 0 21 46 766
vector 708339  Network.dyn_peer[34]  lookupStabilitySig:vector  ETV
708339	74158 148 143 16289 20.035 24.943895568951 4 0.08695650100708 1 2.8036086410284 2.4884577397918
vector 708340  Network.dyn_peer[34]  lookupTimeSig:vector  ETV
708340	74306 109 143 16289 20.035 24.943895568951 4 0 2.2 4.9 8.61
vector 708365  Network.dyn_peer[43]  lookupHopsSig:vector  ETV
708365	78329 105 174 18859 20.044 26.255883479221 4 0 29 59 1453
vector 708366  Network.dyn_peer[43]  lookupStabilitySig:vector  ETV
708366	78434 148 174 18859 20.044 26.255883479221 4 0.11111110448837 1 2.8977933395654 2.6199327652
vector 708367  Network.dyn_peer[43]  lookupTimeSig:vector  ETV
708367	78582 107 174 18859 20.044 26.255883479221 4 0 3 6.2 15.74
vector 708407  Network.dyn_peer[57]  lookupHopsSig:vector  ETV
708407	85858 230 220 20414 20.058 27.479888644913 8 0 14 64 736
vector 708408  Network.dyn_peer[57]  lookupStabilitySig:vector  ETV
708408	86088 332 220 20414 20.058 27.479888644913 8 -0.66666662693024 1 5.49940552935 5.9894992116126
vector 708409  Network.dyn_peer[57]  lookupTimeSig:vector  ETV
708409	86420 240 220 20414 20.058 27.479888644913 8 0 1.5 7.1 8.71
vector 708494  Network.dyn_peer[86]  lookupHopsSig:vector  ETV
708494	100671 43 311 18085 20.087 25.787 2 0 56 56 3136
vector 708495  Network.dyn_peer[86]  lookupStabilitySig:vector  ETV
708495	100714 57 311 18085 20.087 25.787 2 0.67441859841347 1 1.6744185984135 1.454840445886
vector 708496  Network.dyn_peer[86]  lookupTimeSig:vector  ETV
708496	100771 44 311 18085 20.087 25.787 2 0 5.7 5.7 32.49
vector 708515  Network.dyn_peer[93]  lookupHopsSig:vector  ETV
708515	103366 166 336 17710 20.094 25.588772329167 6 0 17 49 629
vector 708516  Network.dyn_peer[93]  lookupStabilitySig:vector  ETV
708516	103532 226 336 17710 20.094 25.588772329167 6 -0.5 1 3.5406607352197 3.667726353028
vector 708517  Network.dyn_peer[93]  lookupTimeSig:vector  ETV
708517	103758 172 336 17710 20.094 25.588772329167 6 0 1.8 5.4 7.32
vector 708551  Network.dyn_peer[105]  lookupHopsSig:vector  ETV
708551	111064 42 382 5611 20.106 21.506 2 0 13 13 169
vector 708552  Network.dyn_peer[105]  lookupStabilitySig:vector  ETV
708552	111106 57 382 5611 20.106 21.506 2 -0.85714280605316 1 0.14285719394684 1.7346937899687
vector 708553  Network.dyn_peer[105]  lookupTimeSig:vector  ETV
708553	111163 43 382 5611 20.106 21.506 2 0 1.4 1.4 1.96
vector 708266  Network.dyn_peer[10]  lookupHopsSig:vector  ETV
708266	64294 138 403 21065 20.111 28.187451637789 5 1 23 64 1072
vector 708267  Network.dyn_peer[10]  lookupStabilitySig:vector  ETV
708267	64432 209 403 21065 20.111 28.187451637789 5 0.14814811944962 0.94859813153744 3.6669916808605 3.1357610582999
vector 708268  Network.dyn_peer[10]  lookupTimeSig:vector  ETV
708268	64641 144 403 21065 20.111 28.187451637789 5 0.1 2.4 6.8 12.02
vector 708269  Network.dyn_peer[11]  lookupHopsSig:vector  ETV
708269	64785 73 411 10467 20.112 22.928793804746 3 1 13 21 219
vector 708270  Network.dyn_peer[11]  lookupStabilitySig:vector  ETV
708270	64858 107 411 10467 20.112 22.928793804746 3 -0.625 0.80555555224419 0.98055554926396 1.6795447429831
vector 708271  Network.dyn_peer[11]  lookupTimeSig:vector  ETV
708271	64965 78 411 10467 20.112 22.928793804746 3 0.1 1.4 2.3 2.61
vector 708278  Network.dyn_peer[14]  lookupHopsSig:vector  ETV
708278	65474 143 426 14895 20.115 24.393797749331 5 1 11 35 309
vector 708279  Network.dyn_peer[14]  lookupStabilitySig:vector  ETV
708279	65617 190 426 14895 20.115 24.393797749331 5 0 0.90909090638161 2.73460111022 2.1303623521772
vector 708280  Network.dyn_peer[14]  lookupTimeSig:vector  ETV
708280	65807 148 426 14895 20.115 24.393797749331 5 0.1 1.2 3.9 3.81
vector 708299  Network.dyn_peer[21]  lookupHopsSig:vector  ETV
708299	68070 102 459 9801 20.122 22.733138247779 4 1 14 24 242
vector 708300  Network.dyn_peer[21]  lookupStabilitySig:vector  ETV
708300	68172 150 459 9801 20.122 22.733138247779 4 0.125 0.79999999701977 2.1107142567635 1.4329719115885
vector 708301  Network.dyn_peer[21]  lookupTimeSig:vector  ETV
708301	68322 109 459 9801 20.122 22.733138247779 4 0.1 1.5 2.7 2.91
vector 708623  Network.dyn_peer[129]  lookupHopsSig:vector  ETV
708623	123085 71 499 10496 20.13 22.938240667751 3 0 24 26 580
vector 708624  Network.dyn_peer[129]  lookupStabilitySig:vector  ETV
708624	123156 100 499 10496 20.13 22.938240667751 3 0.33333331346512 1 1.9333333075047 1.4711110907131
vector 708625  Network.dyn_peer[129]  lookupTimeSig:vector  ETV
708625	123256 74 499 10496 20.13 22.938240667751 3 0 2.5 2.8 6.34
vector 708332  Network.dyn_peer[32]  lookupHopsSig:vector  ETV
708332	72975 199 513 21564 20.133 28.885939104565 7 1 20 71 975
vector 708333  Network.dyn_peer[32]  lookupStabilitySig:vector  ETV
708333	73174 289 513 21564 20.133 28.885939104565 7 -0.29999995231628 0.94366197288036 4.9442885816097 4.7062059641525
vector 708334  Network.dyn_peer[32]  lookupTimeSig:vector  ETV
708334	73463 209 513 21564 20.133 28.885939104565 7 0.1 2.1 7.7 11.21
vector 708335  Network.dyn_peer[33]  lookupHopsSig:vector  ETV
708335	73672 106 521 17193 20.134 25.344037326443 4 1 28 50 1030
vector 708336  Network.dyn_peer[33]  lookupStabilitySig:vector  ETV
708336	73778 162 521 17193 20.134 25.344037326443 4 0.2631579041481 0.9066666662693 2.8752299696207 2.3510554637743
vector 708337  Network.dyn_peer[33]  lookupTimeSig:vector  ETV
708337	73940 112 521 17193 20.134 25.344037326443 4 0.1 2.9 5.3 11.31
vector 708368  Network.dyn_peer[44]  lookupHopsSig:vector  ETV
708368	78689 104 571 11895 20.145 23.363573400959 4 1 16 30 354
vector 708369  Network.dyn_peer[44]  lookupStabilitySig:vector  ETV
708369	78793 164 571 11895 20.145 23.363573400959 4 -0.14285719394684 0.91666666418314 2.3091035708785 2.0413433651406
vector 708370  Network.dyn_peer[44]  lookupTimeSig:vector  ETV
708370	78957 109 571 11895 20.145 23.363573400959 4 0.1 1.7 3.3 4.15
vector 708392  Network.dyn_peer[52]  lookupHopsSig:vector  ETV
708392	82627 323 608 22305 20.153 30.801400016388 11 1 27 97 1373
vector 708393  Network.dyn_peer[52]  lookupStabilitySig:vector  ETV
708393	82950 485 608 22305 20.153 30.801400016388 11 0.27027028799057 0.99374999990687 9.6614811695181 8.919356032968
vector 708394  Network.dyn_peer[52]  lookupTimeSig:vector  ETV
708394	83435 340 608 22305 20.153 30.801400016388 11 0.1 2.8 10.7 15.75
vector 708395  Network.dyn_peer[53]  lookupHopsSig:vector  ETV
708395	83775 73 616 17637 20.154 25.5597247044 3 1 29 53 1371
vector 708396  Network.dyn_peer[53]  lookupStabilitySig:vector  ETV
708396	83848 115 616 17637 20.154 25.5597247044 3 0.2926829457283 0.85534590482712 1.9480288475752 1.4572799188564
vector 708397  Network.dyn_peer[53]  lookupTimeSig:vector  ETV
708397	83963 75 616 17637 20.154 25.5597247044 3 0.1 3 5.5 14.77
vector 708422  Network.dyn_peer[62]  lookupHopsSig:vector  ETV
708422	88819 106 658 20405 20.163 27.470386769661 4 1 46 71 2477
vector 708423  Network.dyn_peer[62]  lookupStabilitySig:vector  ETV
708423	88925 164 658 20405 20.163 27.470386769661 4 0.61666667461395 0.96249999850988 3.3022435903549 2.7987550305694
vector 708424  Network.dyn_peer[62]  lookupTimeSig:vector  ETV
708424	89089 112 658 20405 20.163 27.470386769661 4 0.1 4.7 7.4 26.2
vector 708428  Network.dyn_peer[64]  lookupHopsSig:vector  ETV
708428	89918 105 670 17903 20.165 25.685141258671 4 1 37 53 1483
vector 708429  Network.dyn_peer[64]  lookupStabilitySig:vector  ETV
708429	90023 162 670 17903 20.165 25.685141258671 4 0.5256410241127 0.95266272127628 3.2163568399847 2.7038083558431
vector 708430  Network.dyn_peer[64]  lookupTimeSig:vector  ETV
708430	90185 112 670 17903 20.165 25.685141258671 4 0.1 3.8 5.6 15.9
vector 708461  Network.dyn_peer[75]  lookupHopsSig:vector  ETV
708461	95804 324 721 22080 20.176 30.028140646256 11 1 22 89 1103
vector 708462  Network.dyn_peer[75]  lookupStabilitySig:vector  ETV
708462	96128 483 721 22080 20.176 30.028140646256 11 0.1851851940155 0.99239543732256 9.5237007802352 8.7965587915728
vector 708463  Network.dyn_peer[75]  lookupTimeSig:vector  ETV
708463	96611 342 721 22080 20.176 30.028140646256 11 0.1 2.3 9.9 12.89
vector 708467  Network.dyn_peer[77]  lookupHopsSig:vector  ETV
708467	97668 51 733 8638 20.178 22.382732189834 2 1 21 22 442
vector 708468  Network.dyn_peer[77]  lookupStabilitySig:vector  ETV
708468	97719 80 733 8638 20.178 22.382732189834 2 0.16000002622604 0.79999999701977 0.96000002324581 0.66560000362397
vector 708469  Network.dyn_peer[77]  lookupTimeSig:vector  ETV
708469	97799 54 733 8638 20.178 22.382732189834 2 0.1 2.2 2.3 4.85
vector 708509  Network.dyn_peer[91]  lookupHopsSig:vector  ETV
708509	102512 136 796 17347 20.192 25.41129395129 5 1 18 49 627
vector 708510  Network.dyn_peer[91]  lookupStabilitySig:vector  ETV
708510	102648 193 796 17347 20.192 25.41129395129 5 0 0.93464051932096 3.4036733433604 2.9172359017131
vector 708511  Network.dyn_peer[91]  lookupTimeSig:vector  ETV
708511	102841 141 796 17347 20.192 25.41129395129 5 0.1 1.9 5.3 7.27
vector 708245  Network.dyn_peer[3]  lookupHopsSig:vector  ETV
708245	61126 226 852 21723 20.204 29.166003323921 8 2 27 69 1037
vector 708246  Network.dyn_peer[3]  lookupStabilitySig:vector  ETV
708246	61352 327 852 21723 20.204 29.166003323921 8 -0.33333337306976 0.9815498162061 5.3580259699375 4.8939260211952
vector 708247  Network.dyn_peer[3]  lookupTimeSig:vector  ETV
708247	61679 238 852 21723 20.204 29.166003323921 8 0.2 2.8 7.6 11.78
vector 708248  Network.dyn_peer[4]  lookupHopsSig:vector  ETV
708248	61917 106 861 14930 20.205 24.407032335702 4 2 18 41 549
vector 708249  Network.dyn_peer[4]  lookupStabilitySig:vector  ETV
708249	62023 148 861 14930 20.205 24.407032335702 4 0 0.88888888806105 2.2449864372611 1.7218069610856
vector 708250  Network.dyn_peer[4]  lookupTimeSig:vector  ETV
708250	62171 111 861 14930 20.205 24.407032335702 4 0.2 1.9 4.4 6.3
vector 708251  Network.dyn_peer[5]  lookupHopsSig:vector  ETV
708251	62282 71 870 6660 20.206 21.812595428907 3 2 8 16 104
vector 708252  Network.dyn_peer[5]  lookupStabilitySig:vector  ETV
708252	62353 117 870 6660 20.206 21.812595428907 3 -0.20000004768372 0.59999999403954 0.78461530804634 0.54792898836927
vector 708253  Network.dyn_peer[5]  lookupTimeSig:vector  ETV
708253	62470 77 870 6660 20.206 21.812595428907 3 0.2 0.9 1.8 1.34
vector 708257  Network.dyn_peer[7]  lookupHopsSig:vector  ETV
708257	63257 143 884 13610 20.208 23.921386862655 5 1 13 30 304
vector 708258  Network.dyn_peer[7]  lookupStabilitySig:vector  ETV
708258	63400 217 884 13610 20.208 23.921386862655 5 -0.29999995231628 0.96000000089407 3.006031781435 2.8964172878755
vector 708259  Network.dyn_peer[7]  lookupTimeSig:vector  ETV
708259	63617 151 884 13610 20.208 23.921386862655 5 0.2 1.4 3.4 3.64
vector 708560  Network.dyn_peer[108]  lookupHopsSig:vector  ETV
708560	112842 105 892 15487 20.209 24.623913834557 4 1 19 42 622
vector 708561  Network.dyn_peer[108]  lookupStabilitySig:vector  ETV
708561	112947 163 892 15487 20.209 24.623913834557 4 0.13636362552643 0.86538460850716 2.6066262871027 2.0553142393492
vector 708562  Network.dyn_peer[108]  lookupTimeSig:vector  ETV
708562	113110 109 892 15487 20.209 24.623913834557 4 0.1 2 4.5 7.07
vector 708290  Network.dyn_peer[18]  lookupHopsSig:vector  ETV
708290	67048 74 945 13605 20.219 23.920037004317 3 2 18 37 617
vector 708291  Network.dyn_peer[18]  lookupStabilitySig:vector  ETV
708291	67122 118 945 13605 20.219 23.920037004317 3 -0.13333332538605 0.76315788924694 1.2298245579004 0.9601877324258
vector 708292  Network.dyn_peer[18]  lookupTimeSig:vector  ETV
708292	67240 78 945 13605 20.219 23.920037004317 3 0.2 1.9 3.9 6.89
vector 708620  Network.dyn_peer[128]  lookupHopsSig:vector  ETV
708620	122824 75 1002 16967 20.229 25.236423924463 3 1 36 49 1441
vector 708621  Network.dyn_peer[128]  lookupStabilitySig:vector  ETV
708621	122899 107 1002 16967 20.229 25.236423924463 3 -0.20000004768372 0.79999999701977 1.349999949336 1.2425000143051
vector 708622  Network.dyn_peer[128]  lookupTimeSig:vector  ETV
708622	123006 79 1002 16967 20.229 25.236423924463 3 0.1 3.7 5.1 15.39
vector 708323  Network.dyn_peer[29]  lookupHopsSig:vector  ETV
708323	71723 106 1011 18504 20.23 26.038278349707 4 2 33 57 1335
vector 708324  Network.dyn_peer[29]  lookupStabilitySig:vector  ETV
708324	71829 163 1011 18504 20.23 26.038278349707 4 0.46774190664291 0.93922651931643 2.9129513241351 2.2817339612517
vector 708325  Network.dyn_peer[29]  lookupTimeSig:vector  ETV
708325	71992 111 1011 18504 20.23 26.038278349707 4 0.2 3.4 6 14.48
vector 708329  Network.dyn_peer[31]  lookupHopsSig:vector  ETV
708329	72591 106 1025 18511 20.232 26.040685538148 4 2 45 57 2081
vector 708330  Network.dyn_peer[31]  lookupStabilitySig:vector  ETV
708330	72697 165 1025 18511 20.232 26.040685538148 4 0.59999999403954 0.97333333268762 3.1555687636137 2.6208765100937
vector 708331  Network.dyn_peer[31]  lookupTimeSig:vector  ETV
708331	72862 113 1025 18511 20.232 26.040685538148 4 0.2 4.6 6 21.94
vector 708344  Network.dyn_peer[36]  lookupHopsSig:vector  ETV
708344	74577 201 1054 22337 20.237 30.909822085095 7 2 27 85 1397
vector 708345  Network.dyn_peer[36]  lookupStabilitySig:vector  ETV
708345	74778 303 1054 22337 20.237 30.909822085095 7 0.28947371244431 0.96727272868156 5.602359034121 4.889640621979
vector 708346  Network.dyn_peer[36]  lookupTimeSig:vector  ETV
708346	75081 206 1054 22337 20.237 30.909822085095 7 0.2 2.8 9.1 15.69
vector 708347  Network.dyn_peer[37]  lookupHopsSig:vector  ETV
708347	75287 76 1064 18519 20.238 26.043068140143 3 2 38 58 1772
vector 708348  Network.dyn_peer[37]  lookupStabilitySig:vector  ETV
708348	75363 119 1064 18519 20.238 26.043068140143 3 0.56321838498116 0.90109889954329 2.064317278564 1.4891941687864
vector 708349  Network.dyn_peer[37]  lookupTimeSig:vector  ETV
708349	75482 80 1064 18519 20.238 26.043068140143 3 0.2 3.9 6 18.86
vector 708359  Network.dyn_peer[41]  lookupHopsSig:vector  ETV
708359	76701 105 1088 18705 20.242 26.154152291167 4 2 35 58 1594
vector 708360  Network.dyn_peer[41]  lookupStabilitySig:vector  ETV
708360	76806 163 1088 18705 20.242 26.154152291167 4 0.20833331346512 0.92592592537403 2.5500487089157 1.9262540508393
vector 708361  Network.dyn_peer[41]  lookupTimeSig:vector  ETV
708361	76969 109 1088 18705 20.242 26.154152291167 4 0.2 3.6 6.1 17.09
vector 708371  Network.dyn_peer[45]  lookupHopsSig:vector  ETV
708371	79066 231 1112 21582 20.246 28.904662042335 8 2 18 76 896
vector 708372  Network.dyn_peer[45]  lookupStabilitySig:vector  ETV
708372	79297 349 1112 21582 20.246 28.904662042335 8 -0.57142853736877 0.97747747786343 5.3623877111822 5.5257570937175
vector 708373  Network.dyn_peer[45]  lookupTimeSig:vector  ETV
708373	79646 240 1112 21582 20.246 28.904662042335 8 0.2 1.9 8.3 10.51
vector 708380  Network.dyn_peer[48]  lookupHopsSig:vector  ETV
708380	80550 146 1132 18370 20.249 25.960822728737 5 2 37 55 1467
vector 708381  Network.dyn_peer[48]  lookupStabilitySig:vector  ETV
708381	80696 220 1132 18370 20.249 25.960822728737 5 0.56976744532585 0.97887323983014 4.055521229282 3.4610227983953
vector 708382  Network.dyn_peer[48]  lookupTimeSig:vector  ETV
708382	80916 155 1132 18370 20.249 25.960822728737 5 0.2 3.8 5.9 15.77
vector 708389  Network.dyn_peer[51]  lookupHopsSig:vector  ETV
708389	81702 262 1151 21861 20.252 29.474197030276 9 2 21 84 1112
vector 708390  Network.dyn_peer[51]  lookupStabilitySig:vector  ETV
708390	81964 389 1151 21861 20.252 29.474197030276 9 0.22222220897675 0.9917012443766 7.375554737635 6.5647271414069
vector 708391  Network.dyn_peer[51]  lookupTimeSig:vector  ETV
708391	82353 274 1151 21861 20.252 29.474197030276 9 0.2 2.2 9.2 12.84
vector 708416  Network.dyn_peer[60]  lookupHopsSig:vector  ETV
708416	87418 167 1202 15600 20.261 24.669001958719 6 2 13 41 369
vector 708417  Network.dyn_peer[60]  lookupStabilitySig:vector  ETV
708417	87585 256 1202 15600 20.261 24.669001958719 6 -0.18181812763214 0.96226415038109 3.8739330321551 3.4269602060155
vector 708418  Network.dyn_peer[60]  lookupTimeSig:vector  ETV
708418	87841 177 1202 15600 20.261 24.669001958719 6 0.2 1.4 4.6 4.52
vector 708434  Network.dyn_peer[66]  lookupHopsSig:vector  ETV
708434	90660 74 1236 13750 20.267 23.973676202707 3 2 32 37 1037
vector 708435  Network.dyn_peer[66]  lookupStabilitySig:vector  ETV
708435	90734 118 1236 13750 20.267 23.973676202707 3 0.39999997615814 0.59999999403954 1.5897435545921 0.86779746910837
vector 708436  Network.dyn_peer[66]  lookupTimeSig:vector  ETV
708436	90852 79 1236 13750 20.267 23.973676202707 3 0.2 3.3 3.9 11.09
vector 708485  Network.dyn_peer[83]  lookupHopsSig:vector  ETV
708485	99642 75 1327 12309 20.284 23.491830113302 3 2 28 32 792
vector 708486  Network.dyn_peer[83]  lookupStabilitySig:vector  ETV
708486	99717 119 1327 12309 20.284 23.491830113302 3 0.31707316637039 0.96296296268702 1.880036123097 1.3878330531866
vector 708487  Network.dyn_peer[83]  lookupTimeSig:vector  ETV
708487	99836 80 1327 12309 20.284 23.491830113302 3 0.2 2.9 3.4 8.54
vector 708488  Network.dyn_peer[84]  lookupHopsSig:vector  ETV
708488	99916 106 1336 14372 20.285 24.195188920292 4 2 25 38 694
vector 708489  Network.dyn_peer[84]  lookupStabilitySig:vector  ETV
708489	100022 165 1336 14372 20.285 24.195188920292 4 0.28571426868439 0.95555555447936 2.7301587052643 2.1448425091921
vector 708490  Network.dyn_peer[84]  lookupTimeSig:vector  ETV
708490	100187 113 1336 14372 20.285 24.195188920292 4 0.2 2.6 4.1 7.69
vector 708812  Network.dyn_peer[192]  lookupHopsSig:vector  ETV
708812	149456 105 1380 14415 20.293 24.209569829517 4 1 17 37 511
vector 708813  Network.dyn_peer[192]  lookupStabilitySig:vector  ETV
708813	149561 148 1380 14415 20.293 24.209569829517 4 0 0.84782609343529 2.0181964784861 1.4959833042716
vector 708814  Network.dyn_peer[192]  lookupTimeSig:vector  ETV
708814	149709 111 1380 14415 20.293 24.209569829517 4 0.1 1.8 4 5.86
vector 708521  Network.dyn_peer[95]  lookupHopsSig:vector  ETV
708521	104096 137 1399 20360 20.296 27.418759255583 5 2 37 69 1771
vector 708522  Network.dyn_peer[95]  lookupStabilitySig:vector  ETV
708522	104233 210 1399 20360 20.296 27.418759255583 5 0.055555582046509 0.88888888806105 3.2182950302959 2.5541235340379
vector 708523  Network.dyn_peer[95]  lookupTimeSig:vector  ETV
708523	104443 144 1399 20360 20.296 27.418759255583 5 0.2 3.8 7.3 19.09
vector 708527  Network.dyn_peer[97]  lookupHopsSig:vector  ETV
708527	105182 167 1413 19393 20.298 26.621624181164 6 2 22 60 928
vector 708528  Network.dyn_peer[97]  lookupStabilitySig:vector  ETV
708528	105349 254 1413 19393 20.298 26.621624181164 6 0.14285713434219 0.93877550959587 4.3111923784018 3.5760404952905
vector 708529  Network.dyn_peer[97]  lookupTimeSig:vector  ETV
708529	105603 177 1413 19393 20.298 26.621624181164 6 0.2 2.3 6.5 10.49
vector 708533  Network.dyn_peer[99]  lookupHopsSig:vector  ETV
708533	107676 259 1427 22270 20.3 30.673885139979 9 2 26 97 1551
vector 708534  Network.dyn_peer[99]  lookupStabilitySig:vector  ETV
708534	107935 390 1427 22270 20.3 30.673885139979 9 -0.071428537368774 0.99186991900206 6.9160437714309 6.247902680211
vector 708535  Network.dyn_peer[99]  lookupTimeSig:vector  ETV
708535	108325 272 1427 22270 20.3 30.673885139979 9 0.2 2.7 10.5 17.49
vector 708539  Network.dyn_peer[101]  lookupHopsSig:vector  ETV
708539	109085 137 1439 18966 20.302 26.31647263582 5 1 35 58 1448
vector 708540  Network.dyn_peer[101]  lookupStabilitySig:vector  ETV
708540	109222 210 1439 18966 20.302 26.31647263582 5 0.53947368264198 0.99180327914655 4.0023139622062 3.3850967597587
vector 708541  Network.dyn_peer[101]  lookupTimeSig:vector  ETV
708541	109432 145 1439 18966 20.302 26.31647263582 5 0.2 3.6 6.2 15.64
vector 708254  Network.dyn_peer[6]  lookupHopsSig:vector  ETV
708254	62547 199 1458 19914 20.307 27.042229721045 7 1 18 64 872
vector 708255  Network.dyn_peer[6]  lookupStabilitySig:vector  ETV
708255	62746 301 1458 19914 20.307 27.042229721045 7 0.18181818723679 0.99310344830155 5.1723952591419 4.434246416792
vector 708256  Network.dyn_peer[6]  lookupTimeSig:vector  ETV
708256	63047 210 1458 19914 20.307 27.042229721045 7 0.2 1.9 7 10
vector 708263  Network.dyn_peer[9]  lookupHopsSig:vector  ETV
708263	64136 42 1469 13275 20.31 23.81 2 3 34 37 1165
vector 708264  Network.dyn_peer[9]  lookupStabilitySig:vector  ETV
708264	64178 71 1469 13275 20.31 23.81 2 0.39999997615814 0.52112674713135 0.92112672328949 0.43157306750221
vector 708265  Network.dyn_peer[9]  lookupTimeSig:vector  ETV
708265	64249 45 1469 13275 20.31 23.81 2 0.3 3.5 3.8 12.34
vector 708599  Network.dyn_peer[121]  lookupHopsSig:vector  ETV
708599	119928 43 1509 9757 20.322 22.722 2 2 23 25 533
vector 708600  Network.dyn_peer[121]  lookupStabilitySig:vector  ETV
708600	119971 72 1509 9757 20.322 22.722 2 0.14814811944962 0.59999999403954 0.74814811348916 0.38194785814391
vector 708601  Network.dyn_peer[121]  lookupTimeSig:vector  ETV
708601	120043 46 1509 9757 20.322 22.722 2 0.2 2.4 2.6 5.8
vector 708617  Network.dyn_peer[127]  lookupHopsSig:vector  ETV
708617	122550 75 1533 17579 20.328 25.530862205114 3 2 45 52 2054
vector 708618  Network.dyn_peer[127]  lookupStabilitySig:vector  ETV
708618	122625 119 1533 17579 20.328 25.530862205114 3 0.59999999403954 0.96815286576748 2.2022991925478 1.6994615356698
vector 708619  Network.dyn_peer[127]  lookupTimeSig:vector  ETV
708619	122744 80 1533 17579 20.328 25.530862205114 3 0.2 4.6 5.4 21.56
vector 708326  Network.dyn_peer[30]  lookupHopsSig:vector  ETV
708326	72103 137 1546 17212 20.331 25.350614450932 5 3 19 49 639
vector 708327  Network.dyn_peer[30]  lookupStabilitySig:vector  ETV
708327	72240 209 1546 17212 20.331 25.350614450932 5 -0.42857146263123 0.9666666649282 2.4509523250162 2.4597118021549
vector 708328  Network.dyn_peer[30]  lookupTimeSig:vector  ETV
708328	72449 142 1546 17212 20.331 25.350614450932 5 0.3 2 5.3 7.35
vector 708350  Network.dyn_peer[38]  lookupHopsSig:vector  ETV
708350	75562 198 1575 19179 20.339 26.47043649294 7 2 34 58 1264
vector 708351  Network.dyn_peer[38]  lookupStabilitySig:vector  ETV
708351	75760 302 1575 19179 20.339 26.47043649294 7 0.39999997615814 0.99019607808441 5.7937688687816 5.1640325538505
vector 708352  Network.dyn_peer[38]  lookupTimeSig:vector  ETV
708352	76062 211 1575 19179 20.339 26.47043649294 7 0.3 3.5 6.4 13.8
vector 708353  Network.dyn_peer[39]  lookupHopsSig:vector  ETV
708353	76273 73 1582 12441 20.34 23.540103692794 3 3 19 33 491
vector 708354  Network.dyn_peer[39]  lookupStabilitySig:vector  ETV
708354	76346 115 1582 12441 20.34 23.540103692794 3 0.24000000953674 0.8035714328289 1.4435714185238 0.86332703316284
vector 708355  Network.dyn_peer[39]  lookupTimeSig:vector  ETV
708355	76461 75 1582 12441 20.34 23.540103692794 3 0.3 2 3.5 5.53
vector 708683  Network.dyn_peer[149]  lookupHopsSig:vector  ETV
708683	129972 104 1616 17011 20.35 25.253682498156 4 2 36 48 1352
vector 708684  Network.dyn_peer[149]  lookupStabilitySig:vector  ETV
708684	130076 163 1616 17011 20.35 25.253682498156 4 0.58139535784721 0.97260273993015 3.1004266627133 2.5397036845024
vector 708685  Network.dyn_peer[149]  lookupTimeSig:vector  ETV
708685	130239 111 1616 17011 20.35 25.253682498156 4 0.2 3.7 5.1 14.47
vector 709013  Network.dyn_peer[259]  lookupHopsSig:vector  ETV
709013	182243 73 1652 12529 20.36 23.569530080023 3 1 20 31 501
vector 709014  Network.dyn_peer[259]  lookupStabilitySig:vector  ETV
709014	182316 116 1652 12529 20.36 23.569530080023 3 0.25925928354263 0.82758620381355 1.8868454843759 1.3921142960772
vector 709015  Network.dyn_peer[259]  lookupTimeSig:vector  ETV
709015	182432 77 1652 12529 20.36 23.569530080023 3 0.1 2.1 3.3 5.63
vector 708440  Network.dyn_peer[68]  lookupHopsSig:vector  ETV
708440	91641 229 1683 18907 20.369 26.287923996602 8 2 15 55 519
vector 708441  Network.dyn_peer[68]  lookupStabilitySig:vector  ETV
708441	91870 331 1683 18907 20.369 26.287923996602 8 -0.071428537368774 0.96610169485211 5.8090643361211 5.1960171900145
vector 708442  Network.dyn_peer[68]  lookupTimeSig:vector  ETV
708442	92201 243 1683 18907 20.369 26.287923996602 8 0.3 1.6 6.2 6.3
vector 709052  Network.dyn_peer[272]  lookupHopsSig:vector  ETV
709052	188507 169 1701 20337 20.373 27.401322053312 6 1 26 66 1132
vector 709053  Network.dyn_peer[272]  lookupStabilitySig:vector  ETV
709053	188676 256 1701 20337 20.373 27.401322053312 6 0.35000002384186 0.95652173832059 4.8682670332491 4.2199199619305
vector 709054  Network.dyn_peer[272]  lookupTimeSig:vector  ETV
709054	188932 177 1701 20337 20.373 27.401322053312 6 0.1 2.7 7.1 12.67
vector 708770  Network.dyn_peer[178]  lookupHopsSig:vector  ETV
708770	143665 44 1723 11627 20.379 23.279 2 2 28 30 788
vector 708771  Network.dyn_peer[178]  lookupStabilitySig:vector  ETV
708771	143709 73 1723 11627 20.379 23.279 2 0.37777775526047 0.59999999403954 0.97777774930001 0.50271602521709
vector 708772  Network.dyn_peer[178]  lookupTimeSig:vector  ETV
708772	143782 47 1723 11627 20.379 23.279 2 0.2 2.9 3.1 8.45
vector 709070  Network.dyn_peer[278]  lookupHopsSig:vector  ETV
709070	192638 263 1727 22034 20.379 29.917490555526 9 1 25 88 1294
vector 709071  Network.dyn_peer[278]  lookupStabilitySig:vector  ETV
709071	192901 392 1727 22034 20.379 29.917490555526 9 0.3243243098259 0.98765432089567 7.7617772296071 7.0453750495629
vector 709072  Network.dyn_peer[278]  lookupTimeSig:vector  ETV
709072	193293 273 1727 22034 20.379 29.917490555526 9 0.1 2.6 9.6 14.76
vector 708479  Network.dyn_peer[81]  lookupHopsSig:vector  ETV
708479	98779 72 1741 5223 20.382 21.387828342698 3 3 5 11 43
vector 708480  Network.dyn_peer[81]  lookupStabilitySig:vector  ETV
708480	98851 117 1741 5223 20.382 21.387828342698 3 0.16666668653488 0.39999997615814 0.96666663885116 0.34777774625354
vector 708481  Network.dyn_peer[81]  lookupTimeSig:vector  ETV
708481	98968 78 1741 5223 20.382 21.387828342698 3 0.3 0.6 1.3 0.61
vector 708779  Network.dyn_peer[181]  lookupHopsSig:vector  ETV
708779	144704 137 1745 16677 20.382 25.095159264267 5 1 30 45 995
vector 708780  Network.dyn_peer[181]  lookupStabilitySig:vector  ETV
708780	144841 211 1745 16677 20.382 25.095159264267 5 0.43396228551865 0.99270072998479 3.913418833632 3.3142899028889
vector 708781  Network.dyn_peer[181]  lookupTimeSig:vector  ETV
708781	145052 144 1745 16677 20.382 25.095159264267 5 0.2 3.1 4.9 10.85
vector 708482  Network.dyn_peer[82]  lookupHopsSig:vector  ETV
708482	99046 165 1753 13841 20.383 24.001745882833 6 3 9 34 236
vector 708483  Network.dyn_peer[82]  lookupStabilitySig:vector  ETV
708483	99211 256 1753 13841 20.383 24.001745882833 6 -0.33333337306976 0.96296296268702 3.3791649825871 3.0932899451812
vector 708484  Network.dyn_peer[82]  lookupTimeSig:vector  ETV
708484	99467 175 1753 13841 20.383 24.001745882833 6 0.3 1 3.9 3.03
vector 708791  Network.dyn_peer[185]  lookupHopsSig:vector  ETV
708791	146119 167 1766 17732 20.386 25.597092256695 6 2 26 49 811
vector 708792  Network.dyn_peer[185]  lookupStabilitySig:vector  ETV
708792	146286 254 1766 17732 20.386 25.597092256695 6 0.35000002384186 0.98148148134351 4.7531810011715 4.1030325819756
vector 708793  Network.dyn_peer[185]  lookupTimeSig:vector  ETV