version 2
run Stability2-9-20130526-00:51:09-26640
attr configname Stability2
attr datetime 20130526-00:51:09
attr experiment Stability2
attr inifile omnetpp.ini
attr iterationvars $0=10
attr iterationvars2 "$0=10, $repetition=9"
attr measurement $0=10
attr network Network
attr processid 26640
attr repetition 9
attr replication #9
attr resultdir results
attr runnumber 9
attr seedset 9

vector 30009  Network.churner  inGoingSizeSig:vector  ETV
vector 27036  Network.dyn_peer[9]  lookupHopsSig:vector  ETV
vector 27037  Network.dyn_peer[9]  lookupStabilitySig:vector  ETV
vector 27038  Network.dyn_peer[9]  lookupTimeSig:vector  ETV
vector 27015  Network.dyn_peer[2]  lookupHopsSig:vector  ETV
vector 27016  Network.dyn_peer[2]  lookupStabilitySig:vector  ETV
vector 27017  Network.dyn_peer[2]  lookupTimeSig:vector  ETV
vector 27018  Network.dyn_peer[3]  lookupHopsSig:vector  ETV
vector 27019  Network.dyn_peer[3]  lookupStabilitySig:vector  ETV
vector 27020  Network.dyn_peer[3]  lookupTimeSig:vector  ETV
vector 27021  Network.dyn_peer[4]  lookupHopsSig:vector  ETV
vector 27022  Network.dyn_peer[4]  lookupStabilitySig:vector  ETV
vector 27023  Network.dyn_peer[4]  lookupTimeSig:vector  ETV
vector 27024  Network.dyn_peer[5]  lookupHopsSig:vector  ETV
vector 27025  Network.dyn_peer[5]  lookupStabilitySig:vector  ETV
vector 27026  Network.dyn_peer[5]  lookupTimeSig:vector  ETV
vector 27027  Network.dyn_peer[6]  lookupHopsSig:vector  ETV
vector 27028  Network.dyn_peer[6]  lookupStabilitySig:vector  ETV
vector 27029  Network.dyn_peer[6]  lookupTimeSig:vector  ETV
vector 27030  Network.dyn_peer[7]  lookupHopsSig:vector  ETV
vector 27031  Network.dyn_peer[7]  lookupStabilitySig:vector  ETV
vector 27032  Network.dyn_peer[7]  lookupTimeSig:vector  ETV
vector 27033  Network.dyn_peer[8]  lookupHopsSig:vector  ETV
vector 27034  Network.dyn_peer[8]  lookupStabilitySig:vector  ETV
vector 27035  Network.dyn_peer[8]  lookupTimeSig:vector  ETV
vector 27009  Network.dyn_peer[0]  lookupHopsSig:vector  ETV
vector 27010  Network.dyn_peer[0]  lookupStabilitySig:vector  ETV
vector 27011  Network.dyn_peer[0]  lookupTimeSig:vector  ETV
vector 27012  Network.dyn_peer[1]  lookupHopsSig:vector  ETV
vector 27013  Network.dyn_peer[1]  lookupStabilitySig:vector  ETV
vector 27014  Network.dyn_peer[1]  lookupTimeSig:vector  ETV
27009	147	20.401	4
27009	248	20.801	3
27009	316	21.307692184417	4
27009	328	21.613679110011	2
27010	147	20.401	0.19999998807907
27010	248	20.801	0.5
27010	316	21.307692184417	0.69230768084526
27010	328	21.613679110011	0.84615384042263
27011	147	20.401	0.4
27011	248	20.801	0.4
27011	316	21.307692184417	0.5
27011	328	21.613679110011	0.3
27012	174	20.502	5
27012	221	20.708102768417	1
27012	290	21.009646262747	2
27012	311	21.224362270105	1
27013	174	20.502	0
27013	221	20.708102768417	0.83333332836628
27013	290	21.009646262747	0.77777777612209
27013	311	21.224362270105	0.90909090638161
27014	174	20.502	0.5
27014	221	20.708102768417	0.2
27014	290	21.009646262747	0.3
27014	311	21.224362270105	0.2
27015	62	20.103	1
27015	219	20.703	5
27016	62	20.103	0.79999999701977
27016	219	20.703	0
27017	62	20.103	0.1
27017	219	20.703	0.6
27018	67	20.104	1
27018	236	20.72355484345	5
27018	278	20.927900551545	1
27018	314	21.237762981144	2
27019	67	20.104	0.79999999701977
27019	236	20.72355484345	0.16666668653488
27019	278	20.927900551545	0.875
27019	314	21.237762981144	0.83333332836628
27020	67	20.104	0.1
27020	236	20.72355484345	0.6
27020	278	20.927900551545	0.2
27020	314	21.237762981144	0.3
27021	72	20.105	1
27021	124	20.305	1
27021	185	20.521291216629	1
27021	260	20.823460052205	2
27022	72	20.105	0.79999999701977
27022	124	20.305	0.79999999701977
27022	185	20.521291216629	0.79999999701977
27022	260	20.823460052205	0.66666665673256
27023	72	20.105	0.1
27023	124	20.305	0.2
27023	185	20.521291216629	0.2
27023	260	20.823460052205	0.3
27024	95	20.206	2
27024	196	20.606	3
27024	270	20.909319308755	2
27024	304	21.121970855331	1
27025	95	20.206	0.59999999403954
27025	196	20.606	0.39999997615814
27025	270	20.909319308755	0.71428570151329
27025	304	21.121970855331	0.89999999850988
27026	95	20.206	0.2
27026	196	20.606	0.4
27026	270	20.909319308755	0.3
27026	304	21.121970855331	0.2
27027	100	20.207	2
27027	198	20.607	3
27027	254	20.810469262209	1
27027	292	21.014597166087	1
27028	100	20.207	0.59999999403954
27028	198	20.607	0.39999997615814
27028	254	20.810469262209	0.83333332836628
27028	292	21.014597166087	0.88888888806105
27029	100	20.207	0.2
27029	198	20.607	0.4
27029	254	20.810469262209	0.2
27029	292	21.014597166087	0.2
27030	105	20.208	2
27030	207	20.617414484276	3
27030	275	20.918803170142	2
27031	105	20.208	0.59999999403954
27031	207	20.617414484276	0.39999997615814
27031	275	20.918803170142	0.71428570151329
27032	105	20.208	0.2
27032	207	20.617414484276	0.4
27032	275	20.918803170142	0.3
27033	110	20.209	2
27033	288	21.009	7
27033	321	21.419817881815	3
27033	333	21.836036762415	3
27033	338	22.141276838215	2
27034	110	20.209	0.59999999403954
27034	288	21.009	0.22222220897675
27034	321	21.419817881815	0.76923076808453
27034	333	21.836036762415	0.78571428358555
27034	338	22.141276838215	0.85714285075665
27035	110	20.209	0.2
27035	288	21.009	0.8
27035	321	21.419817881815	0.4
27035	333	21.836036762415	0.4
27035	338	22.141276838215	0.3
27036	45	20.01	0
27036	131	20.31295413657	2
27036	227	20.714000332647	3
27036	282	20.949169919139	1
27037	45	20.01	1
27037	131	20.31295413657	0.59999999403954
27037	227	20.714000332647	0.5
27037	282	20.949169919139	0.875
27038	45	20.01	0
27038	131	20.31295413657	0.3
27038	227	20.714000332647	0.4
27038	282	20.949169919139	0.2
30009	11	20	0
30009	12	20.001	0
30009	15	20.002	1
30009	18	20.003	2
30009	21	20.004	3
30009	24	20.005	4
30009	27	20.006	5
30009	30	20.007	6
30009	33	20.008	7
30009	36	20.009	8
30009	39	20.01	9
