version 2
run Stability-43-20130525-17:44:52-19193
attr configname Stability
attr datetime 20130525-17:44:52
attr experiment Stability
attr inifile omnetpp.ini
attr iterationvars $0=1e2
attr iterationvars2 "$0=1e2, $repetition=3"
attr measurement $0=1e2
attr network Network
attr processid 19193
attr repetition 3
attr replication #3
attr resultdir results
attr runnumber 43
attr seedset 43

vector 4128  Network.dyn_peer[0]  lookupHopsSig:vector  ETV
vector 4129  Network.dyn_peer[0]  lookupStabilitySig:vector  ETV
vector 4130  Network.dyn_peer[0]  lookupTimeSig:vector  ETV
vector 4131  Network.dyn_peer[1]  lookupHopsSig:vector  ETV
vector 4132  Network.dyn_peer[1]  lookupStabilitySig:vector  ETV
vector 4133  Network.dyn_peer[1]  lookupTimeSig:vector  ETV
vector 4134  Network.dyn_peer[2]  lookupHopsSig:vector  ETV
vector 4135  Network.dyn_peer[2]  lookupStabilitySig:vector  ETV
vector 4136  Network.dyn_peer[2]  lookupTimeSig:vector  ETV
vector 4137  Network.dyn_peer[3]  lookupHopsSig:vector  ETV
vector 4138  Network.dyn_peer[3]  lookupStabilitySig:vector  ETV
vector 4139  Network.dyn_peer[3]  lookupTimeSig:vector  ETV
vector 4140  Network.dyn_peer[4]  lookupHopsSig:vector  ETV
vector 4141  Network.dyn_peer[4]  lookupStabilitySig:vector  ETV
vector 4142  Network.dyn_peer[4]  lookupTimeSig:vector  ETV
vector 4143  Network.dyn_peer[5]  lookupHopsSig:vector  ETV
vector 4144  Network.dyn_peer[5]  lookupStabilitySig:vector  ETV
vector 4145  Network.dyn_peer[5]  lookupTimeSig:vector  ETV
vector 4146  Network.dyn_peer[6]  lookupHopsSig:vector  ETV
vector 4147  Network.dyn_peer[6]  lookupStabilitySig:vector  ETV
vector 4148  Network.dyn_peer[6]  lookupTimeSig:vector  ETV
vector 4149  Network.dyn_peer[7]  lookupHopsSig:vector  ETV
vector 4150  Network.dyn_peer[7]  lookupStabilitySig:vector  ETV
vector 4151  Network.dyn_peer[7]  lookupTimeSig:vector  ETV
vector 4152  Network.dyn_peer[8]  lookupHopsSig:vector  ETV
vector 4153  Network.dyn_peer[8]  lookupStabilitySig:vector  ETV
vector 4154  Network.dyn_peer[8]  lookupTimeSig:vector  ETV
vector 4155  Network.dyn_peer[9]  lookupHopsSig:vector  ETV
vector 4156  Network.dyn_peer[9]  lookupStabilitySig:vector  ETV
vector 4157  Network.dyn_peer[9]  lookupTimeSig:vector  ETV
vector 4158  Network.dyn_peer[10]  lookupHopsSig:vector  ETV
vector 4159  Network.dyn_peer[10]  lookupStabilitySig:vector  ETV
vector 4160  Network.dyn_peer[10]  lookupTimeSig:vector  ETV
vector 4161  Network.dyn_peer[11]  lookupHopsSig:vector  ETV
vector 4162  Network.dyn_peer[11]  lookupStabilitySig:vector  ETV
vector 4163  Network.dyn_peer[11]  lookupTimeSig:vector  ETV
vector 4167  Network.dyn_peer[13]  lookupHopsSig:vector  ETV
vector 4168  Network.dyn_peer[13]  lookupStabilitySig:vector  ETV
vector 4169  Network.dyn_peer[13]  lookupTimeSig:vector  ETV
vector 4164  Network.dyn_peer[12]  lookupHopsSig:vector  ETV
vector 4165  Network.dyn_peer[12]  lookupStabilitySig:vector  ETV
vector 4166  Network.dyn_peer[12]  lookupTimeSig:vector  ETV
vector 4170  Network.dyn_peer[14]  lookupHopsSig:vector  ETV
vector 4171  Network.dyn_peer[14]  lookupStabilitySig:vector  ETV
vector 4172  Network.dyn_peer[14]  lookupTimeSig:vector  ETV
vector 4176  Network.dyn_peer[16]  lookupHopsSig:vector  ETV
vector 4177  Network.dyn_peer[16]  lookupStabilitySig:vector  ETV
vector 4178  Network.dyn_peer[16]  lookupTimeSig:vector  ETV
vector 4182  Network.dyn_peer[18]  lookupHopsSig:vector  ETV
vector 4183  Network.dyn_peer[18]  lookupStabilitySig:vector  ETV
vector 4184  Network.dyn_peer[18]  lookupTimeSig:vector  ETV
vector 4173  Network.dyn_peer[15]  lookupHopsSig:vector  ETV
vector 4174  Network.dyn_peer[15]  lookupStabilitySig:vector  ETV
vector 4175  Network.dyn_peer[15]  lookupTimeSig:vector  ETV
vector 4179  Network.dyn_peer[17]  lookupHopsSig:vector  ETV
vector 4180  Network.dyn_peer[17]  lookupStabilitySig:vector  ETV
vector 4181  Network.dyn_peer[17]  lookupTimeSig:vector  ETV
vector 4185  Network.dyn_peer[19]  lookupHopsSig:vector  ETV
vector 4186  Network.dyn_peer[19]  lookupStabilitySig:vector  ETV
vector 4187  Network.dyn_peer[19]  lookupTimeSig:vector  ETV
vector 4191  Network.dyn_peer[21]  lookupHopsSig:vector  ETV
vector 4192  Network.dyn_peer[21]  lookupStabilitySig:vector  ETV
vector 4193  Network.dyn_peer[21]  lookupTimeSig:vector  ETV
vector 4200  Network.dyn_peer[24]  lookupHopsSig:vector  ETV
vector 4201  Network.dyn_peer[24]  lookupStabilitySig:vector  ETV
vector 4202  Network.dyn_peer[24]  lookupTimeSig:vector  ETV
vector 4194  Network.dyn_peer[22]  lookupHopsSig:vector  ETV
vector 4195  Network.dyn_peer[22]  lookupStabilitySig:vector  ETV
vector 4196  Network.dyn_peer[22]  lookupTimeSig:vector  ETV
vector 4188  Network.dyn_peer[20]  lookupHopsSig:vector  ETV
vector 4189  Network.dyn_peer[20]  lookupStabilitySig:vector  ETV
vector 4190  Network.dyn_peer[20]  lookupTimeSig:vector  ETV
vector 4203  Network.dyn_peer[25]  lookupHopsSig:vector  ETV
vector 4204  Network.dyn_peer[25]  lookupStabilitySig:vector  ETV
vector 4205  Network.dyn_peer[25]  lookupTimeSig:vector  ETV
vector 4206  Network.dyn_peer[26]  lookupHopsSig:vector  ETV
vector 4207  Network.dyn_peer[26]  lookupStabilitySig:vector  ETV
vector 4208  Network.dyn_peer[26]  lookupTimeSig:vector  ETV
vector 4197  Network.dyn_peer[23]  lookupHopsSig:vector  ETV
vector 4198  Network.dyn_peer[23]  lookupStabilitySig:vector  ETV
vector 4199  Network.dyn_peer[23]  lookupTimeSig:vector  ETV
vector 4212  Network.dyn_peer[28]  lookupHopsSig:vector  ETV
vector 4213  Network.dyn_peer[28]  lookupStabilitySig:vector  ETV
vector 4214  Network.dyn_peer[28]  lookupTimeSig:vector  ETV
vector 4209  Network.dyn_peer[27]  lookupHopsSig:vector  ETV
vector 4210  Network.dyn_peer[27]  lookupStabilitySig:vector  ETV
vector 4211  Network.dyn_peer[27]  lookupTimeSig:vector  ETV
vector 4218  Network.dyn_peer[30]  lookupHopsSig:vector  ETV
vector 4219  Network.dyn_peer[30]  lookupStabilitySig:vector  ETV
vector 4220  Network.dyn_peer[30]  lookupTimeSig:vector  ETV
vector 4215  Network.dyn_peer[29]  lookupHopsSig:vector  ETV
vector 4216  Network.dyn_peer[29]  lookupStabilitySig:vector  ETV
vector 4217  Network.dyn_peer[29]  lookupTimeSig:vector  ETV
vector 4221  Network.dyn_peer[31]  lookupHopsSig:vector  ETV
vector 4222  Network.dyn_peer[31]  lookupStabilitySig:vector  ETV
vector 4223  Network.dyn_peer[31]  lookupTimeSig:vector  ETV
4128	34	20.2	1
4128	61	20.5	2
4128	129	20.905432025156	3
4128	1140	23.6	3
4128	1228	23.8	1
4128	1376	24.107350921728	1
4128	1493	24.309769943828	1
4128	2581	26.5	3
4128	2839	27.2	6
4128	3012	27.512769426319	2
4128	3220	27.918024359182	3
4128	4103	29.8	1
4128	4170	30	1
4128	4378	30.41125511388	3
4128	4506	30.612189009284	1
4128	4600	30.801620056116	1
4128	5571	32.8	1
4128	5738	33.2	3
4128	5886	33.503312260406	2
4128	5912	33.523515666186	2
4128	6029	33.731161958587	1
4128	6064	33.812834191815	2
4128	6160	34.005692241724	3
4128	7330	36.5	5
4128	7434	36.7	1
4128	7569	37.008828478161	3
4128	7784	37.511920758836	4
4128	7916	37.820525379882	2
4128	8865	39.7	1
4128	9019	40	2
4128	10063	42.2	2
4128	10145	42.4	1
4128	10280	42.705219797943	2
4128	10812	43.711775489283	9
4128	11818	45.5	1
4128	12100	46.1	6
4128	12321	46.704077069882	5
4128	13340	48.9	4
4128	13526	49.2	2
4128	13660	49.4001	1
4128	13668	49.408874201753	1
4128	13832	49.710069685696	2
4128	14834	52	2
4128	14926	52.2	1
4128	15044	52.504872287479	2
4128	15181	52.807269097002	2
4128	15301	53.011041073434	1
4128	15306	53.012227936845	1
4128	16486	55.4	9
4128	16673	55.8	4
4128	16805	56.1058299601	2
4128	16902	56.406944354562	2
4128	17766	58.3	1
4128	17886	58.6	2
4128	17974	58.803354722021	1
4128	18816	60.7	1
4128	18947	61	2
4128	19142	61.408969532004	3
4128	20603	64.3	11
4128	20857	64.7	4
4128	20993	64.903426046294	1
4128	21966	66.9	1
4128	22109	67.207832906283	2
4128	22192	67.353371350308	1
4128	23461	69.9	11
4128	23539	70.1	1
4128	23650	70.402561699484	2
4128	23743	70.6001	2
4128	23747	70.606076008641	1
4128	23859	70.807795406875	1
4128	23863	70.81311235019	1
4128	23872	70.816636956282	1
4128	24059	71.215460166204	3
4128	24980	73.1	1
4128	25131	73.5	3
4128	25242	73.8085337448	2
4128	25333	74.005018264525	2
4128	25395	74.116265604504	2
4128	25437	74.207674774426	2
4128	25534	74.411788007304	3
4128	25608	74.522095957764	3
4128	26660	76.4	1
4128	26762	76.7	2
4128	27911	79.1	5
4128	28039	79.5	3
4128	28294	80.107004957692	6
4128	28482	80.513885144138	3
4128	29364	82.4	1
4128	29524	82.803529406557	3
4128	29586	83.011398647571	2
4128	29588	83.013188902632	1
4128	30842	85.8	8
4128	30979	86.2	3
4128	31174	86.604711657718	3
4128	31326	86.917774054647	2
4128	31384	87.020328023869	1
4128	31490	87.3321423298	2
4128	32585	89.5	3
4128	32742	89.8	2
4128	33175	90.405585495522	6
4128	33190	90.412797247335	6
4128	33296	90.712836307252	2
4128	33301	90.715124839386	2
4128	33390	90.925865673454	1
4128	33392	90.930016114847	1
4128	34388	93.3	4
4128	34501	93.6	2
4128	34593	93.816948495604	1
4128	34855	94.320984784279	4
4128	35883	96.3	2
4128	36178	96.8	4
4128	36450	97.208228196294	4
4128	36454	97.208573250184	3
4128	36661	97.616212136841	3
4128	36663	97.617448390303	3
4128	36671	97.625501606181	3
4128	37770	99.9	3
4128	37882	100.2	2
4128	38000	100.404073033956	1
4128	39111	102.5	3
4128	39333	103	5
4128	39402	103.200867938003	1
4128	39590	103.603850481844	3
4128	39882	104.207533062427	5
4128	39887	104.214338589758	5
4128	40880	106.2	1
4128	40953	106.4	1
4128	41370	107.106149270455	6
4128	41469	107.307121518973	1
4128	41609	107.515461388851	1
4128	41736	107.711918637424	1
4128	42823	110.1	4
4128	43078	110.6	4
4128	43370	111.209529295355	3
4128	43372	111.209691953894	6
4128	43588	111.610494597236	3
4128	44528	113.5	1
4128	44757	113.9	3
4128	45910	116.4	0
4128	46274	117	5
4128	46396	117.208927221789	4
4128	47587	119.8	2
4128	47782	120.2	3
4128	47916	120.502387541106	3
4128	48103	120.908097549902	3
4128	49157	123	0
4128	49291	123.2	1
4128	49515	123.617814357052	2
4128	49596	123.811912938886	5
4128	49627	123.92153000268	2
4128	50823	126.5	5
4128	50940	126.8	2
4128	51118	127.206139557629	3
4128	52075	129.4	1
4128	52292	129.8	3
4128	53408	132.1	4
4128	53561	132.4	2
4128	53690	132.704952676945	3
4128	53707	132.714807973391	3
4128	53712	132.71669650332	2
4128	54673	134.8	1
4128	54750	135	1
4128	54884	135.300438375114	2
4128	55022	135.606311432597	4
4128	55025	135.609701208236	2
4128	56022	137.7	1
4128	56500	138.516197262962	8
4128	57572	140.8	2
4128	57708	141.1	2
4128	57816	141.307674140802	1
4128	58057	141.916379652744	5
4128	59120	143.8	3
4128	59252	144.005746497003	1
4128	59590	144.531929794117	2
4128	59634	144.616992972968	7
4128	60622	146.8	2
4128	60868	147.3	4
4128	60967	147.50922909243	1
4128	61063	147.711056904269	1
4128	61068	147.714504363929	1
4128	62051	149.7	0
4128	62275	150.1	4
4128	62352	150.208885201771	1
4128	63466	152.5	5
4128	63997	153.4	9
4128	64199	153.807631573141	3
4128	64373	154.209628654855	3
4128	64379	154.215800259687	3
4128	65265	156.1	1
4128	65393	156.4	2
4128	65516	156.61470359017	1
4128	65711	157.024909358308	3
4128	65793	157.204481479811	8
4128	65815	157.227837984868	1
4128	67018	159.8	4
4128	67136	160.1	2
4128	67220	160.306531960989	1
4128	67348	160.528310580967	1
4128	68395	162.8	2
4128	68620	163.2	4
4128	68751	163.500235646306	2
4128	68927	163.912782408556	3
4128	69008	164.100771671638	4
4128	69079	164.212552011549	2
4128	69084	164.217472837688	2
4128	70240	166.7	5
4128	70476	167.2	4
4128	70840	167.907166269398	8
4128	70859	167.916649594809	9
4128	70957	168.125140814561	1
4128	70960	168.127519148801	1
4128	72013	170.4	2
4128	72135	170.7	2
4128	72362	171.110851235722	1
4128	72368	171.115663906851	3
4128	73416	173.6	3
4128	73565	173.9	2
4128	74014	174.602404611343	8
4128	74027	174.607300274579	3
4128	75139	177	5
4128	75224	177.3	2
4128	75405	177.705900365859	4
4128	75592	178.112296451681	4
4128	75637	178.231027659191	1
4128	76863	180.9	6
4128	76996	181.2	2
4128	77070	181.404965384725	1
4128	77223	181.710021322641	2
4128	77226	181.711485366245	2
4128	77303	181.918944904537	1
4128	77305	181.919960568562	1
4128	78284	184	2
4128	78377	184.2	1
4128	78555	184.605031943793	4
4128	78571	184.61213554715	3
4128	78696	184.912863064308	5
4128	79640	187.1	2
4128	80101	188.009721826051	10
4128	80224	188.312705710853	2
4128	80233	188.318073653852	6
4128	80374	188.614570306277	2
4128	80430	188.723507639088	3
4128	81528	190.8	3
4128	81638	191.006339633378	1
4128	81730	191.213376732866	1
4128	81912	191.628367260744	3
4128	82844	193.5	1
4128	82906	193.7	1
4128	83137	194.210111425224	4
4128	83225	194.412760539012	1
4128	84293	196.7	3
4128	84486	197	3
4128	84727	197.511039706174	4
4128	84878	197.81033994704	4
4128	84882	197.812392114175	2
4128	85912	199.9	4
4128	86004	200.1	1
4128	86109	200.300363285716	1
4128	87280	202.4	5
4128	87359	202.6	1
4128	87580	203.114107148973	5
4128	88592	205.3	1
4128	88822	205.809507189304	5
4128	89005	206.233846434496	3
4128	89125	206.540944601938	2
4128	90139	208.7	2
4128	90292	209.1	3
4128	90409	209.308522411338	1
4128	90569	209.716207702963	3
4128	91655	212.2	6
4128	91843	212.6	3
4128	92016	213.005456766273	3
4128	92101	213.207238505858	1
4128	92226	213.423528761004	1
4128	93117	215.3	2
4128	93251	215.6	2
4128	93440	215.953529548595	2
4128	93617	216.304352808573	7
4128	93649	216.358196145283	3
4128	93687	216.406926386863	1
4128	93764	216.556971160419	2
4128	94927	218.9	3
4128	95111	219.208438610227	2
4128	95399	219.811401794149	6
4128	96807	222.6	12
4128	96931	222.8	1
4128	97046	223.100805675997	2
4128	97136	223.30216184548	1
4129	34	20.2	0.875
4129	61	20.5	0.75
4129	129	20.905432025156	0.625
4129	1140	23.6	0.625
4129	1228	23.8	0.875
4129	1376	24.107350921728	0.875
4129	1493	24.309769943828	0.875
4129	2581	26.5	0.625
4129	2839	27.2	0.25
4129	3012	27.512769426319	0.75
4129	3220	27.918024359182	0.625
4129	4103	29.8	0.875
4129	4170	30	0.875
4129	4378	30.41125511388	0.625
4129	4506	30.612189009284	0.875
4129	4600	30.801620056116	0.875
4129	5571	32.8	0.875
4129	5738	33.2	0.625
4129	5886	33.503312260406	0.75
4129	5912	33.523515666186	0.75
4129	6029	33.731161958587	0.875
4129	6064	33.812834191815	0.75
4129	6160	34.005692241724	0.625
4129	7330	36.5	0.375
4129	7434	36.7	0.875
4129	7569	37.008828478161	0.625
4129	7784	37.511920758836	0.5
4129	7916	37.820525379882	0.75
4129	8865	39.7	0.875
4129	9019	40	0.75
4129	10063	42.2	0.75
4129	10145	42.4	0.875
4129	10280	42.705219797943	0.75
4129	10812	43.711775489283	-0.125
4129	11818	45.5	0.875
4129	12100	46.1	0.25
4129	12321	46.704077069882	0.375
4129	13340	48.9	0.5
4129	13526	49.2	0.75
4129	13660	49.4001	0.875
4129	13668	49.408874201753	0.875
4129	13832	49.710069685696	0.75
4129	14834	52	0.75
4129	14926	52.2	0.875
4129	15044	52.504872287479	0.75
4129	15181	52.807269097002	0.75
4129	15301	53.011041073434	0.875
4129	15306	53.012227936845	0.875
4129	16486	55.4	-0.125
4129	16673	55.8	0.5
4129	16805	56.1058299601	0.75
4129	16902	56.406944354562	0.75
4129	17766	58.3	0.875
4129	17886	58.6	0.75
4129	17974	58.803354722021	0.875
4129	18816	60.7	0.875
4129	18947	61	0.75
4129	19142	61.408969532004	0.625
4129	20603	64.3	-0.375
4129	20857	64.7	0.5
4129	20993	64.903426046294	0.875
4129	21966	66.9	0.875
4129	22109	67.207832906283	0.75
4129	22192	67.353371350308	0.875
4129	23461	69.9	-0.375
4129	23539	70.1	0.875
4129	23650	70.402561699484	0.75
4129	23743	70.6001	0.75
4129	23747	70.606076008641	0.875
4129	23859	70.807795406875	0.875
4129	23863	70.81311235019	0.875
4129	23872	70.816636956282	0.875
4129	24059	71.215460166204	0.625
4129	24980	73.1	0.875
4129	25131	73.5	0.625
4129	25242	73.8085337448	0.75
4129	25333	74.005018264525	0.75
4129	25395	74.116265604504	0.75
4129	25437	74.207674774426	0.75
4129	25534	74.411788007304	0.625
4129	25608	74.522095957764	0.625
4129	26660	76.4	0.875
4129	26762	76.7	0.75
4129	27911	79.1	0.375
4129	28039	79.5	0.625
4129	28294	80.107004957692	0.25
4129	28482	80.513885144138	0.625
4129	29364	82.4	0.875
4129	29524	82.803529406557	0.625
4129	29586	83.011398647571	0.75
4129	29588	83.013188902632	0.875
4129	30842	85.8	0
4129	30979	86.2	0.625
4129	31174	86.604711657718	0.625
4129	31326	86.917774054647	0.75
4129	31384	87.020328023869	0.875
4129	31490	87.3321423298	0.75
4129	32585	89.5	0.625
4129	32742	89.8	0.75
4129	33175	90.405585495522	0.25
4129	33190	90.412797247335	0.25
4129	33296	90.712836307252	0.75
4129	33301	90.715124839386	0.75
4129	33390	90.925865673454	0.875
4129	33392	90.930016114847	0.875
4129	34388	93.3	0.5
4129	34501	93.6	0.75
4129	34593	93.816948495604	0.875
4129	34855	94.320984784279	0.5
4129	35883	96.3	0.75
4129	36178	96.8	0.5
4129	36450	97.208228196294	0.5
4129	36454	97.208573250184	0.625
4129	36661	97.616212136841	0.625
4129	36663	97.617448390303	0.625
4129	36671	97.625501606181	0.625
4129	37770	99.9	0.625
4129	37882	100.2	0.75
4129	38000	100.404073033956	0.875
4129	39111	102.5	0.625
4129	39333	103	0.375
4129	39402	103.200867938003	0.875
4129	39590	103.603850481844	0.625
4129	39882	104.207533062427	0.375
4129	39887	104.214338589758	0.375
4129	40880	106.2	0.875
4129	40953	106.4	0.875
4129	41370	107.106149270455	0.25
4129	41469	107.307121518973	0.875
4129	41609	107.515461388851	0.875
4129	41736	107.711918637424	0.875
4129	42823	110.1	0.5
4129	43078	110.6	0.5
4129	43370	111.209529295355	0.625
4129	43372	111.209691953894	0.25
4129	43588	111.610494597236	0.625
4129	44528	113.5	0.875
4129	44757	113.9	0.625
4129	45910	116.4	1
4129	46274	117	0.375
4129	46396	117.208927221789	0.5
4129	47587	119.8	0.75
4129	47782	120.2	0.625
4129	47916	120.502387541106	0.625
4129	48103	120.908097549902	0.625
4129	49157	123	1
4129	49291	123.2	0.875
4129	49515	123.617814357052	0.75
4129	49596	123.811912938886	0.375
4129	49627	123.92153000268	0.75
4129	50823	126.5	0.375
4129	50940	126.8	0.75
4129	51118	127.206139557629	0.625
4129	52075	129.4	0.875
4129	52292	129.8	0.625
4129	53408	132.1	0.5
4129	53561	132.4	0.75
4129	53690	132.704952676945	0.625
4129	53707	132.714807973391	0.625
4129	53712	132.71669650332	0.75
4129	54673	134.8	0.875
4129	54750	135	0.875
4129	54884	135.300438375114	0.75
4129	55022	135.606311432597	0.5
4129	55025	135.609701208236	0.75
4129	56022	137.7	0.875
4129	56500	138.516197262962	0
4129	57572	140.8	0.75
4129	57708	141.1	0.75
4129	57816	141.307674140802	0.875
4129	58057	141.916379652744	0.375
4129	59120	143.8	0.625
4129	59252	144.005746497003	0.875
4129	59590	144.531929794117	0.75
4129	59634	144.616992972968	0.125
4129	60622	146.8	0.75
4129	60868	147.3	0.5
4129	60967	147.50922909243	0.875
4129	61063	147.711056904269	0.875
4129	61068	147.714504363929	0.875
4129	62051	149.7	1
4129	62275	150.1	0.5
4129	62352	150.208885201771	0.875
4129	63466	152.5	0.375
4129	63997	153.4	-0.125
4129	64199	153.807631573141	0.625
4129	64373	154.209628654855	0.625
4129	64379	154.215800259687	0.625
4129	65265	156.1	0.875
4129	65393	156.4	0.75
4129	65516	156.61470359017	0.875
4129	65711	157.024909358308	0.625
4129	65793	157.204481479811	0
4129	65815	157.227837984868	0.875
4129	67018	159.8	0.5
4129	67136	160.1	0.75
4129	67220	160.306531960989	0.875
4129	67348	160.528310580967	0.875
4129	68395	162.8	0.75
4129	68620	163.2	0.5
4129	68751	163.500235646306	0.75
4129	68927	163.912782408556	0.625
4129	69008	164.100771671638	0.5
4129	69079	164.212552011549	0.75
4129	69084	164.217472837688	0.75
4129	70240	166.7	0.375
4129	70476	167.2	0.5
4129	70840	167.907166269398	0
4129	70859	167.916649594809	-0.125
4129	70957	168.125140814561	0.875
4129	70960	168.127519148801	0.875
4129	72013	170.4	0.75
4129	72135	170.7	0.75
4129	72362	171.110851235722	0.875
4129	72368	171.115663906851	0.625
4129	73416	173.6	0.625
4129	73565	173.9	0.75
4129	74014	174.602404611343	0
4129	74027	174.607300274579	0.625
4129	75139	177	0.375
4129	75224	177.3	0.75
4129	75405	177.705900365859	0.5
4129	75592	178.112296451681	0.5
4129	75637	178.231027659191	0.875
4129	76863	180.9	0.25
4129	76996	181.2	0.75
4129	77070	181.404965384725	0.875
4129	77223	181.710021322641	0.75
4129	77226	181.711485366245	0.75
4129	77303	181.918944904537	0.875
4129	77305	181.919960568562	0.875
4129	78284	184	0.75
4129	78377	184.2	0.875
4129	78555	184.605031943793	0.5
4129	78571	184.61213554715	0.625
4129	78696	184.912863064308	0.375
4129	79640	187.1	0.75
4129	80101	188.009721826051	-0.25
4129	80224	188.312705710853	0.75
4129	80233	188.318073653852	0.25
4129	80374	188.614570306277	0.75
4129	80430	188.723507639088	0.625
4129	81528	190.8	0.625
4129	81638	191.006339633378	0.875
4129	81730	191.213376732866	0.875
4129	81912	191.628367260744	0.625
4129	82844	193.5	0.875
4129	82906	193.7	0.875
4129	83137	194.210111425224	0.5
4129	83225	194.412760539012	0.875
4129	84293	196.7	0.625
4129	84486	197	0.625
4129	84727	197.511039706174	0.5
4129	84878	197.81033994704	0.5
4129	84882	197.812392114175	0.75
4129	85912	199.9	0.5
4129	86004	200.1	0.875
4129	86109	200.300363285716	0.875
4129	87280	202.4	0.375
4129	87359	202.6	0.875
4129	87580	203.114107148973	0.375
4129	88592	205.3	0.875
4129	88822	205.809507189304	0.375
4129	89005	206.233846434496	0.625
4129	89125	206.540944601938	0.75
4129	90139	208.7	0.75
4129	90292	209.1	0.625
4129	90409	209.308522411338	0.875
4129	90569	209.716207702963	0.625
4129	91655	212.2	0.25
4129	91843	212.6	0.625
4129	92016	213.005456766273	0.625
4129	92101	213.207238505858	0.875
4129	92226	213.423528761004	0.875
4129	93117	215.3	0.75
4129	93251	215.6	0.75
4129	93440	215.953529548595	0.75
4129	93617	216.304352808573	0.125
4129	93649	216.358196145283	0.625
4129	93687	216.406926386863	0.875
4129	93764	216.556971160419	0.75
4129	94927	218.9	0.625
4129	95111	219.208438610227	0.75
4129	95399	219.811401794149	0.25
4129	96807	222.6	-0.5
4129	96931	222.8	0.875
4129	97046	223.100805675997	0.75
4129	97136	223.30216184548	0.875
4130	34	20.2	0.1
4130	61	20.5	0.3
4130	129	20.905432025156	0.4
4130	1140	23.6	0.3
4130	1228	23.8	0.2
4130	1376	24.107350921728	0.2
4130	1493	24.309769943828	0.2
4130	2581	26.5	0.2
4130	2839	27.2	0.7
4130	3012	27.512769426319	0.3
4130	3220	27.918024359182	0.4
4130	4103	29.8	0.1
4130	4170	30	0.2
4130	4378	30.41125511388	0.4
4130	4506	30.612189009284	0.2
4130	4600	30.801620056116	0.2
4130	5571	32.8	0.1
4130	5738	33.2	0.4
4130	5886	33.503312260406	0.3
4130	5912	33.523515666186	0.3
4130	6029	33.731161958587	0.2
4130	6064	33.812834191815	0.3
4130	6160	34.005692241724	0.3
4130	7330	36.5	0.4
4130	7434	36.7	0.2
4130	7569	37.008828478161	0.3
4130	7784	37.511920758836	0.5
4130	7916	37.820525379882	0.3
4130	8865	39.7	0.1
4130	9019	40	0.3
4130	10063	42.2	0.2
4130	10145	42.4	0.2
4130	10280	42.705219797943	0.3
4130	10812	43.711775489283	1
4130	11818	45.5	0.1
4130	12100	46.1	0.6
4130	12321	46.704077069882	0.6
4130	13340	48.9	0.4
4130	13526	49.2	0.3
4130	13660	49.4001	0.2
4130	13668	49.408874201753	0.2
4130	13832	49.710069685696	0.3
4130	14834	52	0.2
4130	14926	52.2	0.2
4130	15044	52.504872287479	0.3
4130	15181	52.807269097002	0.3
4130	15301	53.011041073434	0.2
4130	15306	53.012227936845	0.2
4130	16486	55.4	0.6
4130	16673	55.8	0.4
4130	16805	56.1058299601	0.3
4130	16902	56.406944354562	0.3
4130	17766	58.3	0.1
4130	17886	58.6	0.3
4130	17974	58.803354722021	0.2
4130	18816	60.7	0.1
4130	18947	61	0.3
4130	19142	61.408969532004	0.4
4130	20603	64.3	1
4130	20857	64.7	0.4
4130	20993	64.903426046294	0.2
4130	21966	66.9	0.1
4130	22109	67.207832906283	0.3
4130	22192	67.353371350308	0.2
4130	23461	69.9	0.8
4130	23539	70.1	0.2
4130	23650	70.402561699484	0.3
4130	23743	70.6001	0.3
4130	23747	70.606076008641	0.2
4130	23859	70.807795406875	0.2
4130	23863	70.81311235019	0.2
4130	23872	70.816636956282	0.2
4130	24059	71.215460166204	0.4
4130	24980	73.1	0.1
4130	25131	73.5	0.4
4130	25242	73.8085337448	0.3
4130	25333	74.005018264525	0.3
4130	25395	74.116265604504	0.3
4130	25437	74.207674774426	0.2
4130	25534	74.411788007304	0.4
4130	25608	74.522095957764	0.4
4130	26660	76.4	0.1
4130	26762	76.7	0.3
4130	27911	79.1	0.5
4130	28039	79.5	0.4
4130	28294	80.107004957692	0.6
4130	28482	80.513885144138	0.4
4130	29364	82.4	0.1
4130	29524	82.803529406557	0.4
4130	29586	83.011398647571	0.3
4130	29588	83.013188902632	0.2
4130	30842	85.8	0.7
4130	30979	86.2	0.4
4130	31174	86.604711657718	0.4
4130	31326	86.917774054647	0.3
4130	31384	87.020328023869	0.2
4130	31490	87.3321423298	0.3
4130	32585	89.5	0.3
4130	32742	89.8	0.3
4130	33175	90.405585495522	0.6
4130	33190	90.412797247335	0.6
4130	33296	90.712836307252	0.3
4130	33301	90.715124839386	0.3
4130	33390	90.925865673454	0.2
4130	33392	90.930016114847	0.2
4130	34388	93.3	0.4
4130	34501	93.6	0.3
4130	34593	93.816948495604	0.2
4130	34855	94.320984784279	0.5
4130	35883	96.3	0.2
4130	36178	96.8	0.5
4130	36450	97.208228196294	0.4
4130	36454	97.208573250184	0.4
4130	36661	97.616212136841	0.4
4130	36663	97.617448390303	0.4
4130	36671	97.625501606181	0.4
4130	37770	99.9	0.3
4130	37882	100.2	0.3
4130	38000	100.404073033956	0.2
4130	39111	102.5	0.3
4130	39333	103	0.5
4130	39402	103.200867938003	0.2
4130	39590	103.603850481844	0.4
4130	39882	104.207533062427	0.6
4130	39887	104.214338589758	0.6
4130	40880	106.2	0.1
4130	40953	106.4	0.2
4130	41370	107.106149270455	0.7
4130	41469	107.307121518973	0.2
4130	41609	107.515461388851	0.2
4130	41736	107.711918637424	0.2
4130	42823	110.1	0.4
4130	43078	110.6	0.5
4130	43370	111.209529295355	0.4
4130	43372	111.209691953894	0.6
4130	43588	111.610494597236	0.4
4130	44528	113.5	0.1
4130	44757	113.9	0.4
4130	45910	116.4	0
4130	46274	117	0.6
4130	46396	117.208927221789	0.5
4130	47587	119.8	0.2
4130	47782	120.2	0.4
4130	47916	120.502387541106	0.3
4130	48103	120.908097549902	0.4
4130	49157	123	0
4130	49291	123.2	0.2
4130	49515	123.617814357052	0.3
4130	49596	123.811912938886	0.6
4130	49627	123.92153000268	0.3
4130	50823	126.5	0.4
4130	50940	126.8	0.3
4130	51118	127.206139557629	0.4
4130	52075	129.4	0.1
4130	52292	129.8	0.4
4130	53408	132.1	0.3
4130	53561	132.4	0.3
4130	53690	132.704952676945	0.3
4130	53707	132.714807973391	0.4
4130	53712	132.71669650332	0.3
4130	54673	134.8	0.1
4130	54750	135	0.2
4130	54884	135.300438375114	0.3
4130	55022	135.606311432597	0.5
4130	55025	135.609701208236	0.3
4130	56022	137.7	0.1
4130	56500	138.516197262962	0.8
4130	57572	140.8	0.2
4130	57708	141.1	0.3
4130	57816	141.307674140802	0.2
4130	58057	141.916379652744	0.6
4130	59120	143.8	0.3
4130	59252	144.005746497003	0.2
4130	59590	144.531929794117	0.3
4130	59634	144.616992972968	0.6
4130	60622	146.8	0.2
4130	60868	147.3	0.5
4130	60967	147.50922909243	0.2
4130	61063	147.711056904269	0.2
4130	61068	147.714504363929	0.2
4130	62051	149.7	0
4130	62275	150.1	0.4
4130	62352	150.208885201771	0.2
4130	63466	152.5	0.5
4130	63997	153.4	0.9
4130	64199	153.807631573141	0.4
4130	64373	154.209628654855	0.4
4130	64379	154.215800259687	0.4
4130	65265	156.1	0.1
4130	65393	156.4	0.3
4130	65516	156.61470359017	0.2
4130	65711	157.024909358308	0.4
4130	65793	157.204481479811	0.8
4130	65815	157.227837984868	0.2
4130	67018	159.8	0.3
4130	67136	160.1	0.3
4130	67220	160.306531960989	0.2
4130	67348	160.528310580967	0.2
4130	68395	162.8	0.2
4130	68620	163.2	0.4
4130	68751	163.500235646306	0.3
4130	68927	163.912782408556	0.4
4130	69008	164.100771671638	0.4
4130	69079	164.212552011549	0.3
4130	69084	164.217472837688	0.3
4130	70240	166.7	0.5
4130	70476	167.2	0.5
4130	70840	167.907166269398	0.7
4130	70859	167.916649594809	0.7
4130	70957	168.125140814561	0.2
4130	70960	168.127519148801	0.2
4130	72013	170.4	0.2
4130	72135	170.7	0.3
4130	72362	171.110851235722	0.2
4130	72368	171.115663906851	0.4
4130	73416	173.6	0.3
4130	73565	173.9	0.3
4130	74014	174.602404611343	0.7
4130	74027	174.607300274579	0.4
4130	75139	177	0.4
4130	75224	177.3	0.3
4130	75405	177.705900365859	0.4
4130	75592	178.112296451681	0.4
4130	75637	178.231027659191	0.2
4130	76863	180.9	0.5
4130	76996	181.2	0.3
4130	77070	181.404965384725	0.2
4130	77223	181.710021322641	0.3
4130	77226	181.711485366245	0.3
4130	77303	181.918944904537	0.2
4130	77305	181.919960568562	0.2
4130	78284	184	0.2
4130	78377	184.2	0.2
4130	78555	184.605031943793	0.4
4130	78571	184.61213554715	0.3
4130	78696	184.912863064308	0.6
4130	79640	187.1	0.2
4130	80101	188.009721826051	0.9
4130	80224	188.312705710853	0.3
4130	80233	188.318073653852	0.7
4130	80374	188.614570306277	0.3
4130	80430	188.723507639088	0.4
4130	81528	190.8	0.3
4130	81638	191.006339633378	0.2
4130	81730	191.213376732866	0.2
4130	81912	191.628367260744	0.4
4130	82844	193.5	0.1
4130	82906	193.7	0.2
4130	83137	194.210111425224	0.5
4130	83225	194.412760539012	0.2
4130	84293	196.7	0.3
4130	84486	197	0.3
4130	84727	197.511039706174	0.5
4130	84878	197.81033994704	0.5
4130	84882	197.812392114175	0.3
4130	85912	199.9	0.4
4130	86004	200.1	0.2
4130	86109	200.300363285716	0.2
4130	87280	202.4	0.4
4130	87359	202.6	0.2
4130	87580	203.114107148973	0.5
4130	88592	205.3	0.1
4130	88822	205.809507189304	0.5
4130	89005	206.233846434496	0.4
4130	89125	206.540944601938	0.3
4130	90139	208.7	0.2
4130	90292	209.1	0.4
4130	90409	209.308522411338	0.2
4130	90569	209.716207702963	0.4
4130	91655	212.2	0.6
4130	91843	212.6	0.4
4130	92016	213.005456766273	0.4
4130	92101	213.207238505858	0.2
4130	92226	213.423528761004	0.2
4130	93117	215.3	0.2
4130	93251	215.6	0.3
4130	93440	215.953529548595	0.3
4130	93617	216.304352808573	0.7
4130	93649	216.358196145283	0.4
4130	93687	216.406926386863	0.1
4130	93764	216.556971160419	0.3
4130	94927	218.9	0.3
4130	95111	219.208438610227	0.3
4130	95399	219.811401794149	0.6
4130	96807	222.6	1
4130	96931	222.8	0.2
4130	97046	223.100805675997	0.3
4130	97136	223.30216184548	0.2
4131	39	20.2	0
4131	66	20.507984921713	2
4131	113	20.812433135565	2
4131	195	21.122215176925	2
4131	214	21.214633555902	2
4131	1071	23.4	0
4131	1174	23.7	2
4131	1285	23.913574687747	3
4131	2244	25.9	3
4131	2364	26.107101748005	1
4131	3630	28.7	4
4131	3796	29	2
4131	3885	29.205046790097	1
4131	4972	31.5	2
4131	5072	31.7	1
4131	5251	32.029452134409	2
4131	6366	34.5	4
4131	7155	36.1	19
4131	8359	38.6	5
4131	8638	39.1	5
4131	8816	39.600180480026	4
4131	8928	39.805687624115	1
4131	8932	39.806790233522	1
4131	10144	42.4	6
4131	10236	42.6	1
4131	10439	43.001991563411	3
4131	10716	43.511388863098	4
4131	10865	43.816488283028	2
4131	12009	45.9	4
4131	12246	46.5	6
4131	12339	46.711665739232	6