version 2
run Stability-122-20130525-17:50:17-19193
attr configname Stability
attr datetime 20130525-17:50:17
attr experiment Stability
attr inifile omnetpp.ini
attr iterationvars $0=1e-6
attr iterationvars2 "$0=1e-6, $repetition=2"
attr measurement $0=1e-6
attr network Network
attr processid 19193
attr repetition 2
attr replication #2
attr resultdir results
attr runnumber 122
attr seedset 122

vector 11721  Network.dyn_peer[3]  lookupHopsSig:vector  ETV
vector 11722  Network.dyn_peer[3]  lookupStabilitySig:vector  ETV
vector 11723  Network.dyn_peer[3]  lookupTimeSig:vector  ETV
vector 11778  Network.dyn_peer[22]  lookupHopsSig:vector  ETV
vector 11779  Network.dyn_peer[22]  lookupStabilitySig:vector  ETV
vector 11780  Network.dyn_peer[22]  lookupTimeSig:vector  ETV
vector 11715  Network.dyn_peer[1]  lookupHopsSig:vector  ETV
vector 11716  Network.dyn_peer[1]  lookupStabilitySig:vector  ETV
vector 11717  Network.dyn_peer[1]  lookupTimeSig:vector  ETV
vector 11718  Network.dyn_peer[2]  lookupHopsSig:vector  ETV
vector 11719  Network.dyn_peer[2]  lookupStabilitySig:vector  ETV
vector 11720  Network.dyn_peer[2]  lookupTimeSig:vector  ETV
vector 11724  Network.dyn_peer[4]  lookupHopsSig:vector  ETV
vector 11725  Network.dyn_peer[4]  lookupStabilitySig:vector  ETV
vector 11726  Network.dyn_peer[4]  lookupTimeSig:vector  ETV
vector 11742  Network.dyn_peer[10]  lookupHopsSig:vector  ETV
vector 11743  Network.dyn_peer[10]  lookupStabilitySig:vector  ETV
vector 11744  Network.dyn_peer[10]  lookupTimeSig:vector  ETV
vector 11751  Network.dyn_peer[13]  lookupHopsSig:vector  ETV
vector 11752  Network.dyn_peer[13]  lookupStabilitySig:vector  ETV
vector 11753  Network.dyn_peer[13]  lookupTimeSig:vector  ETV
vector 11775  Network.dyn_peer[21]  lookupHopsSig:vector  ETV
vector 11776  Network.dyn_peer[21]  lookupStabilitySig:vector  ETV
vector 11777  Network.dyn_peer[21]  lookupTimeSig:vector  ETV
vector 11784  Network.dyn_peer[24]  lookupHopsSig:vector  ETV
vector 11785  Network.dyn_peer[24]  lookupStabilitySig:vector  ETV
vector 11786  Network.dyn_peer[24]  lookupTimeSig:vector  ETV
vector 11799  Network.dyn_peer[29]  lookupHopsSig:vector  ETV
vector 11800  Network.dyn_peer[29]  lookupStabilitySig:vector  ETV
vector 11801  Network.dyn_peer[29]  lookupTimeSig:vector  ETV
vector 11739  Network.dyn_peer[9]  lookupHopsSig:vector  ETV
vector 11740  Network.dyn_peer[9]  lookupStabilitySig:vector  ETV
vector 11741  Network.dyn_peer[9]  lookupTimeSig:vector  ETV
vector 11748  Network.dyn_peer[12]  lookupHopsSig:vector  ETV
vector 11749  Network.dyn_peer[12]  lookupStabilitySig:vector  ETV
vector 11750  Network.dyn_peer[12]  lookupTimeSig:vector  ETV
vector 11781  Network.dyn_peer[23]  lookupHopsSig:vector  ETV
vector 11782  Network.dyn_peer[23]  lookupStabilitySig:vector  ETV
vector 11783  Network.dyn_peer[23]  lookupTimeSig:vector  ETV
vector 11793  Network.dyn_peer[27]  lookupHopsSig:vector  ETV
vector 11794  Network.dyn_peer[27]  lookupStabilitySig:vector  ETV
vector 11795  Network.dyn_peer[27]  lookupTimeSig:vector  ETV
vector 11802  Network.dyn_peer[30]  lookupHopsSig:vector  ETV
vector 11803  Network.dyn_peer[30]  lookupStabilitySig:vector  ETV
vector 11804  Network.dyn_peer[30]  lookupTimeSig:vector  ETV
vector 11805  Network.dyn_peer[31]  lookupHopsSig:vector  ETV
vector 11806  Network.dyn_peer[31]  lookupStabilitySig:vector  ETV
vector 11807  Network.dyn_peer[31]  lookupTimeSig:vector  ETV
vector 11730  Network.dyn_peer[6]  lookupHopsSig:vector  ETV
vector 11731  Network.dyn_peer[6]  lookupStabilitySig:vector  ETV
vector 11732  Network.dyn_peer[6]  lookupTimeSig:vector  ETV
vector 11733  Network.dyn_peer[7]  lookupHopsSig:vector  ETV
vector 11734  Network.dyn_peer[7]  lookupStabilitySig:vector  ETV
vector 11735  Network.dyn_peer[7]  lookupTimeSig:vector  ETV
vector 11736  Network.dyn_peer[8]  lookupHopsSig:vector  ETV
vector 11737  Network.dyn_peer[8]  lookupStabilitySig:vector  ETV
vector 11738  Network.dyn_peer[8]  lookupTimeSig:vector  ETV
vector 11754  Network.dyn_peer[14]  lookupHopsSig:vector  ETV
vector 11755  Network.dyn_peer[14]  lookupStabilitySig:vector  ETV
vector 11756  Network.dyn_peer[14]  lookupTimeSig:vector  ETV
vector 11757  Network.dyn_peer[15]  lookupHopsSig:vector  ETV
vector 11758  Network.dyn_peer[15]  lookupStabilitySig:vector  ETV
vector 11759  Network.dyn_peer[15]  lookupTimeSig:vector  ETV
vector 11760  Network.dyn_peer[16]  lookupHopsSig:vector  ETV
vector 11761  Network.dyn_peer[16]  lookupStabilitySig:vector  ETV
vector 11762  Network.dyn_peer[16]  lookupTimeSig:vector  ETV
vector 11766  Network.dyn_peer[18]  lookupHopsSig:vector  ETV
vector 11767  Network.dyn_peer[18]  lookupStabilitySig:vector  ETV
vector 11768  Network.dyn_peer[18]  lookupTimeSig:vector  ETV
vector 11712  Network.dyn_peer[0]  lookupHopsSig:vector  ETV
vector 11713  Network.dyn_peer[0]  lookupStabilitySig:vector  ETV
vector 11714  Network.dyn_peer[0]  lookupTimeSig:vector  ETV
vector 11763  Network.dyn_peer[17]  lookupHopsSig:vector  ETV
vector 11764  Network.dyn_peer[17]  lookupStabilitySig:vector  ETV
vector 11765  Network.dyn_peer[17]  lookupTimeSig:vector  ETV
vector 11769  Network.dyn_peer[19]  lookupHopsSig:vector  ETV
vector 11770  Network.dyn_peer[19]  lookupStabilitySig:vector  ETV
vector 11771  Network.dyn_peer[19]  lookupTimeSig:vector  ETV
vector 11772  Network.dyn_peer[20]  lookupHopsSig:vector  ETV
vector 11773  Network.dyn_peer[20]  lookupStabilitySig:vector  ETV
vector 11774  Network.dyn_peer[20]  lookupTimeSig:vector  ETV
vector 11796  Network.dyn_peer[28]  lookupHopsSig:vector  ETV
vector 11797  Network.dyn_peer[28]  lookupStabilitySig:vector  ETV
vector 11798  Network.dyn_peer[28]  lookupTimeSig:vector  ETV
vector 11787  Network.dyn_peer[25]  lookupHopsSig:vector  ETV
vector 11788  Network.dyn_peer[25]  lookupStabilitySig:vector  ETV
vector 11789  Network.dyn_peer[25]  lookupTimeSig:vector  ETV
vector 11727  Network.dyn_peer[5]  lookupHopsSig:vector  ETV
vector 11728  Network.dyn_peer[5]  lookupStabilitySig:vector  ETV
vector 11729  Network.dyn_peer[5]  lookupTimeSig:vector  ETV
vector 11790  Network.dyn_peer[26]  lookupHopsSig:vector  ETV
vector 11791  Network.dyn_peer[26]  lookupStabilitySig:vector  ETV
vector 11792  Network.dyn_peer[26]  lookupTimeSig:vector  ETV
vector 11745  Network.dyn_peer[11]  lookupHopsSig:vector  ETV
vector 11746  Network.dyn_peer[11]  lookupStabilitySig:vector  ETV
vector 11747  Network.dyn_peer[11]  lookupTimeSig:vector  ETV
11712	322	20.400000001	4
11712	431	20.600000001	1
11712	949	21.309856103957	6
11712	1254	21.616193129542	6
11712	1257	21.617123130078	3
11712	1371	21.717969485766	1
11712	1803	22.117969485766	3
11712	2208	22.52494811859	3
11712	2567	22.825481819398	2
11712	2601	22.909604360207	2
11712	3569	23.713155001621	8
11712	3952	24.113155001621	3
11712	4434	24.519206688083	3
11712	4626	24.635623666558	3
11712	4698	24.721508485817	1
11712	4734	24.728227312781	1
11712	5002	24.930318890301	2
11712	7088	26.630318890301	17
11712	7596	27.038392645661	3
11712	7898	27.247668807674	2
11712	8313	27.558187829456	7
11712	8518	27.759395457668	1
11712	8870	28.065216614946	3
11712	9068	28.265216614946	1
11712	9776	28.774309338953	5
11712	10574	29.474309338953	6
11712	11144	30.074409339953	7
11712	11509	30.374409339953	2
11712	11833	30.682425704741	2
11712	11963	30.790571017476	1
11712	12940	31.590571017476	9
11712	13298	31.899907367938	3
11712	13466	32.065098360422	4
11712	13701	32.212276182294	3
11712	13722	32.271153461971	1
11712	14227	32.672330375466	5
11712	14648	33.072330375466	3
11712	15092	33.474202333689	3
11712	15114	33.481356755824	3
11712	15582	33.883016083918	3
11712	15587	33.884716108679	3
11712	15846	34.092910847787	1
11712	15954	34.187019110236	2
11712	16085	34.289366180681	1
11712	17050	35.090198311485	7
11712	17066	35.090298312485	0
11712	18290	36.190298312485	12
11712	18814	36.594782450726	4
11712	18901	36.684251279492	3
11712	19204	36.904381302432	2
11712	19350	37.009992027744	1
11712	19702	37.309992027744	2
11712	20813	38.314035703833	9
11712	21569	39.022427963239	6
11712	21805	39.223520647785	1
11712	23141	40.326583475552	12
11712	24210	41.234021326898	3
11712	24906	41.734800984994	5
11712	25183	41.934800984994	1
11712	26601	43.152762848212	11
11712	27199	43.656575247171	6
11712	27546	44.006508215164	7
11712	27971	44.364087919081	7
11712	28630	44.915295062224	12
11712	28768	45.015395063224	1
11712	29122	45.315395063224	2
11712	29703	45.816637475189	5
11712	29846	45.940073207953	3
11712	30034	46.124053406197	2
11712	30191	46.245691690541	2
11712	30376	46.353444731683	1
11712	30455	46.432223045	2
11712	30585	46.546604474697	1
11712	31195	47.055925958949	5
11712	31377	47.255925958949	1
11712	31831	47.6622642276	3
11712	32350	48.050157129379	6
11712	33239	48.658396350767	7
11712	33250	48.665244115004	10
11712	33882	49.172031338578	6
11712	34418	49.572031338578	3
11712	35136	50.179986772597	5
11712	35490	50.483255505679	2
11712	35618	50.618281154273	2
11712	36004	50.921002312138	3
11712	36036	50.930920288238	3
11712	36306	51.139747811293	1
11712	36715	51.440031707551	3
11712	37097	51.740031707551	2
11712	37572	52.143374880178	3
11712	38521	52.943474881178	8
11712	39029	53.343474881178	3
11712	39457	53.746213391769	3
11712	39831	54.035941471044	4
11712	40102	54.241515611972	2
11712	40449	54.545203720159	3
11712	40488	54.554940000885	4
11712	40812	54.84818425143	11
11712	41194	55.151843838574	3
11712	41774	55.576208474909	2
11712	42136	55.890575008348	2
11712	42304	55.990675009348	1
11712	42787	56.390675009348	3
11712	43447	56.869316177102	1
11712	43627	56.979126184249	0
11712	43658	57.00641874751	5
11712	44112	57.398518087217	10
11712	44968	58.202430909491	8
11712	45499	58.702430909491	5
11712	45651	58.806846610236	0
11712	46230	59.307817569792	4
11712	46713	59.712724883677	3
11712	46924	59.926675745518	1
11712	47169	60.134307910246	2
11712	49151	61.729560343098	7
11712	50491	62.829560343098	14
11712	50741	63.049587498716	1
11712	51413	63.651337147931	5
11712	51663	63.85459940975	2
11712	52092	64.15459940975	2
11712	52416	64.361172133422	1
11712	52690	64.57748294417	1
11712	53558	65.385649925929	8
11712	54132	65.88855839014	4
11712	54378	66.105275586353	1
11712	55374	67.019788244517	8
11712	55737	67.329771657056	2
11712	56497	67.932649094148	6
11712	56764	68.187467471219	6
11712	57398	68.79187444203	5
11712	57597	68.99197444303	2
11712	59074	70.39197444303	16
11712	59804	70.994791508089	5
11712	60060	71.225578718244	7
11712	60283	71.500968082694	2
11712	60286	71.502102906871	4
11712	60652	71.80272082408	3
11712	60846	72.00272082408	2
11712	61436	72.609015315431	5
11712	62373	73.416604770737	8
11712	62983	73.916604770737	4
11712	63533	74.422227618615	4
11712	64267	75.025962359029	5
11712	64628	75.332354272421	2
11712	64942	75.641131281157	5
11712	65818	76.449348902387	9
11712	66093	76.649348902387	1
11712	66393	76.86286167397	1
11712	66688	77.150177910121	2
11712	66836	77.265222378012	3
11712	67606	77.872713895883	7
11712	67943	78.172713895883	2
11712	68033	78.267564496073	1
11712	68333	78.472828861775	3
11712	68370	78.47837428289	0
11712	68792	78.87837428289	3
11712	69801	79.785094542126	8
11712	70055	79.991736347377	1
11712	70538	80.391836348377	4
11712	70758	80.591836348377	1
11712	71059	80.830464014211	1
11712	71334	81.130564015211	3
11712	71521	81.330564015211	1
11712	73280	82.835549833425	17
11712	74464	83.835549833425	10
11712	74907	84.189316789812	2
11712	75351	84.549834333196	4
11712	75580	84.66689236877	1
11712	75583	84.670515477947	1
11712	75636	84.738850379717	9
11712	75728	84.796266304876	7
11712	76130	85.106316202551	3
11712	76532	85.406316202551	3
11712	76718	85.555271419804	1
11712	77107	85.855371420804	3
11712	77361	86.055371420804	1
11712	77738	86.362938070098	2
11712	78025	86.580681186236	1
11712	78322	86.806942199737	2
11712	78854	87.207042200737	4
11712	79651	87.807042200737	5
11712	80643	88.707487316326	9
11712	81318	89.379967481557	12
11712	81410	89.415253774559	6
11712	81441	89.483074196572	1
11712	82169	90.091754784098	8
11712	82661	90.491754784098	3
11712	83520	91.20476144051	7
11712	83730	91.395317252728	8
11712	84195	91.795729088372	4
11712	84997	92.395729088372	6
11712	85411	92.701305082066	2
11712	85927	93.005222290927	2
11712	86588	93.505473104884	5
11712	87091	93.905473104884	3
11712	87471	94.215644573179	2
11712	87926	94.616214971964	3
11712	88217	94.881544264909	4
11712	88574	95.187960438853	2
11712	88837	95.395263494027	1
11712	88855	95.414821004622	2
11712	89552	96.022207331056	7
11712	90056	96.422207331056	3
11712	90440	96.721405270883	2
11712	90775	96.93115676988	6
11712	91009	97.128223109354	3
11712	91629	97.628323110354	6
11712	92114	98.028323110354	3
11712	92512	98.348766063555	3
11712	93036	98.757572966804	5
11712	93570	99.157572966804	3
11712	93945	99.465841431521	2
11712	94108	99.56769710613	0
11712	94481	99.868611762666	2
11712	94764	100.071918110672	1
11712	94795	100.093490410029	1
11712	95376	100.597769168032	5
11712	95958	101.097769168032	5
11712	97003	101.906493159265	7
11712	97166	102.079170729883	8
11712	97383	102.282055289785	2
11712	98852	103.582055289785	13
11712	101269	105.684974222723	27
11712	101821	106.187369224761	4
11712	101989	106.319138293579	1
11712	102882	107.224425065523	9
11712	103381	107.724425065523	4
11712	103639	107.925404273323	1
11712	105318	109.426185574694	12
11712	106004	110.126185574694	6
11712	106674	110.731958920638	7
11712	106706	110.746872724548	7
11712	107387	111.350178783473	2
11712	107708	111.650178783473	2
11712	108591	112.357052788382	4
11712	108959	112.657052788382	2
11712	109693	113.27013391979	5
11712	109904	113.469985904358	9
11712	110089	113.639335557148	6
11712	110217	113.743286501969	1
11712	111199	114.477861718612	1
11712	111939	114.977961719612	6
11712	112407	115.377961719612	3
11712	112687	115.579110498831	1
11712	113314	116.081188348726	4
11712	113401	116.179025063626	3
11712	113516	116.285944932516	1
11712	113719	116.488947045198	1
11712	113924	116.693870114242	1
11712	114465	117.096196890039	5
11712	115013	117.596196890039	4
11712	115783	118.200376955364	6
11712	115789	118.202290962304	6
11712	116203	118.504997643493	2
11712	116629	118.80829356117	3
11712	116853	119.00829356117	1
11712	117698	119.659452957534	4
11712	118381	120.259452957534	5
11712	119023	120.819607856384	9
11712	119376	121.067450818365	9
11712	120223	121.767550819365	8
11712	121178	122.742310859941	5
11712	121557	123.067550819365	12
11712	122412	123.771823173813	7
11712	122938	124.171823173813	3
11712	124133	125.171972939484	9
11712	124355	125.379517995804	2
11712	124806	125.779517995804	3
11712	125834	126.541134319962	6
11712	126087	126.686081428325	11
11712	126339	126.845329271601	2
11712	126347	126.847028810016	2
11712	126556	126.987515450587	2
11712	126566	126.993485181168	2
11712	127490	127.693585182168	7
11712	128412	128.493585182168	8
11712	128651	128.70225358373	1
11712	129170	129.105033534767	3
11712	129274	129.195076347322	3
11712	129675	129.498900813542	2
11712	129829	129.612176648957	4
11712	129831	129.614716811471	3
11712	129984	129.714816812471	1
11712	130747	130.314816812471	5
11712	131213	130.703169017788	2
11712	131226	130.715649087381	4
11712	131849	131.3002385755	5
11712	132214	131.605858584454	3
11712	132766	132.105858584454	4
11712	134068	133.005958585454	12
11712	134436	133.405958585454	3
11712	134885	133.911833533441	4
11712	135012	134.017969598565	1
11712	135523	134.417969598565	3
11712	136801	135.627187242961	12
11712	137008	135.927363039149	2
11712	137277	136.330208623689	3
11712	137435	136.630452593146	2
11712	137466	136.720943943176	1
11712	137507	136.834975517676	1
11713	322	20.400000001	0.5
11713	431	20.600000001	0.875
11713	949	21.309856103957	0.25
11713	1254	21.616193129542	0.25
11713	1257	21.617123130078	0.625
11713	1371	21.717969485766	0.875
11713	1803	22.117969485766	0.625
11713	2208	22.52494811859	0.625
11713	2567	22.825481819398	0.75
11713	2601	22.909604360207	0.75
11713	3569	23.713155001621	0
11713	3952	24.113155001621	0.625
11713	4434	24.519206688083	0.625
11713	4626	24.635623666558	0.625
11713	4698	24.721508485817	0.88888888806105
11713	4734	24.728227312781	0.875
11713	5002	24.930318890301	0.75
11713	7088	26.630318890301	-1.125
11713	7596	27.038392645661	0.625
11713	7898	27.247668807674	0.75
11713	8313	27.558187829456	0.125
11713	8518	27.759395457668	0.875
11713	8870	28.065216614946	0.625
11713	9068	28.265216614946	0.875
11713	9776	28.774309338953	0.375
11713	10574	29.474309338953	0.25
11713	11144	30.074409339953	0.125
11713	11509	30.374409339953	0.75
11713	11833	30.682425704741	0.75
11713	11963	30.790571017476	0.875
11713	12940	31.590571017476	-0.125
11713	13298	31.899907367938	0.625
11713	13466	32.065098360422	0.5
11713	13701	32.212276182294	0.625
11713	13722	32.271153461971	0.875
11713	14227	32.672330375466	0.375
11713	14648	33.072330375466	0.625
11713	15092	33.474202333689	0.625
11713	15114	33.481356755824	0.625
11713	15582	33.883016083918	0.625
11713	15587	33.884716108679	0.625
11713	15846	34.092910847787	0.875
11713	15954	34.187019110236	0.75
11713	16085	34.289366180681	0.875
11713	17050	35.090198311485	0.125
11713	17066	35.090298312485	1
11713	18290	36.190298312485	-0.5
11713	18814	36.594782450726	0.5
11713	18901	36.684251279492	0.625
11713	19204	36.904381302432	0.75
11713	19350	37.009992027744	0.875
11713	19702	37.309992027744	0.75
11713	20813	38.314035703833	-0.125
11713	21569	39.022427963239	0.25
11713	21805	39.223520647785	0.875
11713	23141	40.326583475552	-0.5
11713	24210	41.234021326898	0.625
11713	24906	41.734800984994	0.375
11713	25183	41.934800984994	0.875
11713	26601	43.152762848212	-0.375
11713	27199	43.656575247171	0.25
11713	27546	44.006508215164	0.125
11713	27971	44.364087919081	0.125
11713	28630	44.915295062224	-0.5
11713	28768	45.015395063224	0.875
11713	29122	45.315395063224	0.75
11713	29703	45.816637475189	0.375
11713	29846	45.940073207953	0.625
11713	30034	46.124053406197	0.75
11713	30191	46.245691690541	0.75
11713	30376	46.353444731683	0.875
11713	30455	46.432223045	0.75
11713	30585	46.546604474697	0.875
11713	31195	47.055925958949	0.375
11713	31377	47.255925958949	0.875
11713	31831	47.6622642276	0.625
11713	32350	48.050157129379	0.25
11713	33239	48.658396350767	0.125
11713	33250	48.665244115004	-0.25
11713	33882	49.172031338578	0.25
11713	34418	49.572031338578	0.625
11713	35136	50.179986772597	0.375
11713	35490	50.483255505679	0.75
11713	35618	50.618281154273	0.75
11713	36004	50.921002312138	0.625
11713	36036	50.930920288238	0.625
11713	36306	51.139747811293	0.875
11713	36715	51.440031707551	0.625
11713	37097	51.740031707551	0.75
11713	37572	52.143374880178	0.625
11713	38521	52.943474881178	0
11713	39029	53.343474881178	0.625
11713	39457	53.746213391769	0.625
11713	39831	54.035941471044	0.5
11713	40102	54.241515611972	0.75
11713	40449	54.545203720159	0.625
11713	40488	54.554940000885	0.5
11713	40812	54.84818425143	-0.375
11713	41194	55.151843838574	0.625
11713	41774	55.576208474909	0.75
11713	42136	55.890575008348	0.75
11713	42304	55.990675009348	0.875
11713	42787	56.390675009348	0.625
11713	43447	56.869316177102	0.875
11713	43627	56.979126184249	1
11713	43658	57.00641874751	0.375
11713	44112	57.398518087217	-0.25
11713	44968	58.202430909491	0
11713	45499	58.702430909491	0.375
11713	45651	58.806846610236	1
11713	46230	59.307817569792	0.5
11713	46713	59.712724883677	0.625
11713	46924	59.926675745518	0.875
11713	47169	60.134307910246	0.75
11713	49151	61.729560343098	0.125
11713	50491	62.829560343098	-0.75
11713	50741	63.049587498716	0.875
11713	51413	63.651337147931	0.375
11713	51663	63.85459940975	0.75
11713	52092	64.15459940975	0.75
11713	52416	64.361172133422	0.875
11713	52690	64.57748294417	0.875
11713	53558	65.385649925929	0
11713	54132	65.88855839014	0.5
11713	54378	66.105275586353	0.875
11713	55374	67.019788244517	0
11713	55737	67.329771657056	0.75
11713	56497	67.932649094148	0.25
11713	56764	68.187467471219	0.25
11713	57398	68.79187444203	0.375
11713	57597	68.99197444303	0.75
11713	59074	70.39197444303	-1
11713	59804	70.994791508089	0.375
11713	60060	71.225578718244	0.125
11713	60283	71.500968082694	0.75
11713	60286	71.502102906871	0.5
11713	60652	71.80272082408	0.625
11713	60846	72.00272082408	0.75
11713	61436	72.609015315431	0.375
11713	62373	73.416604770737	0
11713	62983	73.916604770737	0.5
11713	63533	74.422227618615	0.5
11713	64267	75.025962359029	0.375
11713	64628	75.332354272421	0.75
11713	64942	75.641131281157	0.375
11713	65818	76.449348902387	-0.125
11713	66093	76.649348902387	0.875
11713	66393	76.86286167397	0.875
11713	66688	77.150177910121	0.75
11713	66836	77.265222378012	0.625
11713	67606	77.872713895883	0.125
11713	67943	78.172713895883	0.75
11713	68033	78.267564496073	0.875
11713	68333	78.472828861775	0.625
11713	68370	78.47837428289	1
11713	68792	78.87837428289	0.625
11713	69801	79.785094542126	0
11713	70055	79.991736347377	0.875
11713	70538	80.391836348377	0.5
11713	70758	80.591836348377	0.875
11713	71059	80.830464014211	0.875
11713	71334	81.130564015211	0.625
11713	71521	81.330564015211	0.875
11713	73280	82.835549833425	-1.125
11713	74464	83.835549833425	-0.25
11713	74907	84.189316789812	0.75
11713	75351	84.549834333196	0.5
11713	75580	84.66689236877	0.875
11713	75583	84.670515477947	0.875
11713	75636	84.738850379717	-0.125
11713	75728	84.796266304876	0.125
11713	76130	85.106316202551	0.625
11713	76532	85.406316202551	0.625
11713	76718	85.555271419804	0.875
11713	77107	85.855371420804	0.625
11713	77361	86.055371420804	0.875
11713	77738	86.362938070098	0.75
11713	78025	86.580681186236	0.875
11713	78322	86.806942199737	0.75
11713	78854	87.207042200737	0.5
11713	79651	87.807042200737	0.375
11713	80643	88.707487316326	-0.125
11713	81318	89.379967481557	-0.5
11713	81410	89.415253774559	0.25
11713	81441	89.483074196572	0.875
11713	82169	90.091754784098	0
11713	82661	90.491754784098	0.625
11713	83520	91.20476144051	0.125
11713	83730	91.395317252728	0.11111110448837
11713	84195	91.795729088372	0.5
11713	84997	92.395729088372	0.25
11713	85411	92.701305082066	0.75
11713	85927	93.005222290927	0.75
11713	86588	93.505473104884	0.375
11713	87091	93.905473104884	0.625
11713	87471	94.215644573179	0.75
11713	87926	94.616214971964	0.625
11713	88217	94.881544264909	0.5
11713	88574	95.187960438853	0.75
11713	88837	95.395263494027	0.875
11713	88855	95.414821004622	0.75
11713	89552	96.022207331056	0.125
11713	90056	96.422207331056	0.625
11713	90440	96.721405270883	0.75
11713	90775	96.93115676988	0.25
11713	91009	97.128223109354	0.625
11713	91629	97.628323110354	0.25
11713	92114	98.028323110354	0.625
11713	92512	98.348766063555	0.625
11713	93036	98.757572966804	0.375
11713	93570	99.157572966804	0.625
11713	93945	99.465841431521	0.75
11713	94108	99.56769710613	1
11713	94481	99.868611762666	0.75
11713	94764	100.071918110672	0.875
11713	94795	100.093490410029	0.875
11713	95376	100.597769168032	0.375
11713	95958	101.097769168032	0.375
11713	97003	101.906493159265	0.125
11713	97166	102.079170729883	0
11713	97383	102.282055289785	0.75
11713	98852	103.582055289785	-0.625
11713	101269	105.684974222723	-2.375
11713	101821	106.187369224761	0.5
11713	101989	106.319138293579	0.875
11713	102882	107.224425065523	-0.125
11713	103381	107.724425065523	0.5
11713	103639	107.925404273323	0.875
11713	105318	109.426185574694	-0.5
11713	106004	110.126185574694	0.25
11713	106674	110.731958920638	0.125
11713	106706	110.746872724548	0.125
11713	107387	111.350178783473	0.75
11713	107708	111.650178783473	0.75
11713	108591	112.357052788382	0.5
11713	108959	112.657052788382	0.75
11713	109693	113.27013391979	0.375
11713	109904	113.469985904358	-0.125
11713	110089	113.639335557148	0.25
11713	110217	113.743286501969	0.875
11713	111199	114.477861718612	0.875
11713	111939	114.977961719612	0.25
11713	112407	115.377961719612	0.625
11713	112687	115.579110498831	0.875
11713	113314	116.081188348726	0.5
11713	113401	116.179025063626	0.625
11713	113516	116.285944932516	0.875
11713	113719	116.488947045198	0.875
11713	113924	116.693870114242	0.875
11713	114465	117.096196890039	0.375
11713	115013	117.596196890039	0.5
11713	115783	118.200376955364	0.25
11713	115789	118.202290962304	0.25
11713	116203	118.504997643493	0.75
11713	116629	118.80829356117	0.625
11713	116853	119.00829356117	0.875
11713	117698	119.659452957534	0.5
11713	118381	120.259452957534	0.375
11713	119023	120.819607856384	-0.125
11713	119376	121.067450818365	-0.125
11713	120223	121.767550819365	0
11713	121178	122.742310859941	0.375
11713	121557	123.067550819365	-0.5
11713	122412	123.771823173813	0.125
11713	122938	124.171823173813	0.625
11713	124133	125.171972939484	-0.125
11713	124355	125.379517995804	0.75
11713	124806	125.779517995804	0.66666665673256
11713	125834	126.541134319962	0.25
11713	126087	126.686081428325	-0.375
11713	126339	126.845329271601	0.75
11713	126347	126.847028810016	0.75
11713	126556	126.987515450587	0.75
11713	126566	126.993485181168	0.75
11713	127490	127.693585182168	0.125
11713	128412	128.493585182168	0
11713	128651	128.70225358373	0.875
11713	129170	129.105033534767	0.625
11713	129274	129.195076347322	0.625
11713	129675	129.498900813542	0.75
11713	129829	129.612176648957	0.5
11713	129831	129.614716811471	0.625
11713	129984	129.714816812471	0.875
11713	130747	130.314816812471	0.375
11713	131213	130.703169017788	0.75
11713	131226	130.715649087381	0.5
11713	131849	131.3002385755	0.375
11713	132214	131.605858584454	0.625
11713	132766	132.105858584454	0.5
11713	134068	133.005958585454	-0.5
11713	134436	133.405958585454	0.625
11713	134885	133.911833533441	0.5
11713	135012	134.017969598565	0.875
11713	135523	134.417969598565	0.625
11713	136801	135.627187242961	-0.5
11713	137008	135.927363039149	0.75
11713	137277	136.330208623689	0.625
11713	137435	136.630452593146	0.75
11713	137466	136.720943943176	0.875
11713	137507	136.834975517676	0.875
11714	322	20.400000001	0.4
11714	431	20.600000001	0.2
11714	949	21.309856103957	0.7
11714	1254	21.616193129542	0.5
11714	1257	21.617123130078	0.3
11714	1371	21.717969485766	0.1
11714	1803	22.117969485766	0.4
11714	2208	22.52494811859	0.4
11714	2567	22.825481819398	0.3
11714	2601	22.909604360207	0.3
11714	3569	23.713155001621	0.8
11714	3952	24.113155001621	0.4
11714	4434	24.519206688083	0.4
11714	4626	24.635623666558	0.4
11714	4698	24.721508485817	0.2
11714	4734	24.728227312781	0.2
11714	5002	24.930318890301	0.2
11714	7088	26.630318890301	1.7
11714	7596	27.038392645661	0.4
11714	7898	27.247668807674	0.2
11714	8313	27.558187829456	0.8
11714	8518	27.759395457668	0.2
11714	8870	28.065216614946	0.3
11714	9068	28.265216614946	0.2
11714	9776	28.774309338953	0.5
11714	10574	29.474309338953	0.7
11714	11144	30.074409339953	0.6
11714	11509	30.374409339953	0.3
11714	11833	30.682425704741	0.3
11714	11963	30.790571017476	0.1
11714	12940	31.590571017476	0.8
11714	13298	31.899907367938	0.3
11714	13466	32.065098360422	0.4
11714	13701	32.212276182294	0.3
11714	13722	32.271153461971	0.2
11714	14227	32.672330375466	0.4
11714	14648	33.072330375466	0.4
11714	15092	33.474202333689	0.4
11714	15114	33.481356755824	0.4
11714	15582	33.883016083918	0.4
11714	15587	33.884716108679	0.4
11714	15846	34.092910847787	0.2
11714	15954	34.187019110236	0.3
11714	16085	34.289366180681	0.1
11714	17050	35.090198311485	0.8
11714	17066	35.090298312485	0
11714	18290	36.190298312485	1.1
11714	18814	36.594782450726	0.4
11714	18901	36.684251279492	0.4
11714	19204	36.904381302432	0.3
11714	19350	37.009992027744	0.1
11714	19702	37.309992027744	0.3
11714	20813	38.314035703833	1
11714	21569	39.022427963239	0.7
11714	21805	39.223520647785	0.2
11714	23141	40.326583475552	1.1
11714	24210	41.234021326898	0.4
11714	24906	41.734800984994	0.5
11714	25183	41.934800984994	0.2
11714	26601	43.152762848212	1.2
11714	27199	43.656575247171	0.5
11714	27546	44.006508215164	0.8
11714	27971	44.364087919081	0.7
11714	28630	44.915295062224	1.2
11714	28768	45.015395063224	0.1
11714	29122	45.315395063224	0.3
11714	29703	45.816637475189	0.5
11714	29846	45.940073207953	0.4
11714	30034	46.124053406197	0.3
11714	30191	46.245691690541	0.3
11714	30376	46.353444731683	0.1
11714	30455	46.432223045	0.3
11714	30585	46.546604474697	0.2
11714	31195	47.055925958949	0.5
11714	31377	47.255925958949	0.2
11714	31831	47.6622642276	0.4
11714	32350	48.050157129379	0.6
11714	33239	48.658396350767	0.6
11714	33250	48.665244115004	1
11714	33882	49.172031338578	0.5
11714	34418	49.572031338578	0.4
11714	35136	50.179986772597	0.6
11714	35490	50.483255505679	0.3
11714	35618	50.618281154273	0.3
11714	36004	50.921002312138	0.3
11714	36036	50.930920288238	0.3
11714	36306	51.139747811293	0.2
11714	36715	51.440031707551	0.3
11714	37097	51.740031707551	0.3
11714	37572	52.143374880178	0.4
11714	38521	52.943474881178	0.8
11714	39029	53.343474881178	0.4
11714	39457	53.746213391769	0.4
11714	39831	54.035941471044	0.4
11714	40102	54.241515611972	0.2
11714	40449	54.545203720159	0.3
11714	40488	54.554940000885	0.5
11714	40812	54.84818425143	1.1
11714	41194	55.151843838574	0.3
11714	41774	55.576208474909	0.3
11714	42136	55.890575008348	0.3
11714	42304	55.990675009348	0.1
11714	42787	56.390675009348	0.4
11714	43447	56.869316177102	0.2
11714	43627	56.979126184249	0.1
11714	43658	57.00641874751	0.5
11714	44112	57.398518087217	1
11714	44968	58.202430909491	0.8
11714	45499	58.702430909491	0.5
11714	45651	58.806846610236	0.1
11714	46230	59.307817569792	0.5
11714	46713	59.712724883677	0.4
11714	46924	59.926675745518	0.2
11714	47169	60.134307910246	0.2
11714	49151	61.729560343098	0.7
11714	50491	62.829560343098	1.1
11714	50741	63.049587498716	0.2
11714	51413	63.651337147931	0.6
11714	51663	63.85459940975	0.2
11714	52092	64.15459940975	0.3
11714	52416	64.361172133422	0.2
11714	52690	64.57748294417	0.2
11714	53558	65.385649925929	0.8
11714	54132	65.88855839014	0.5
11714	54378	66.105275586353	0.2
11714	55374	67.019788244517	0.9
11714	55737	67.329771657056	0.3
11714	56497	67.932649094148	0.6
11714	56764	68.187467471219	0.7
11714	57398	68.79187444203	0.6
11714	57597	68.99197444303	0.2
11714	59074	70.39197444303	1.4
11714	59804	70.994791508089	0.6
11714	60060	71.225578718244	0.7