version 2
run Stability-132-20130525-17:50:58-19193
attr configname Stability
attr datetime 20130525-17:50:58
attr experiment Stability
attr inifile omnetpp.ini
attr iterationvars $0=1e-7
attr iterationvars2 "$0=1e-7, $repetition=2"
attr measurement $0=1e-7
attr network Network
attr processid 19193
attr repetition 2
attr replication #2
attr resultdir results
attr runnumber 132
attr seedset 132

vector 12702  Network.dyn_peer[10]  lookupHopsSig:vector  ETV
vector 12703  Network.dyn_peer[10]  lookupStabilitySig:vector  ETV
vector 12704  Network.dyn_peer[10]  lookupTimeSig:vector  ETV
vector 12720  Network.dyn_peer[16]  lookupHopsSig:vector  ETV
vector 12721  Network.dyn_peer[16]  lookupStabilitySig:vector  ETV
vector 12722  Network.dyn_peer[16]  lookupTimeSig:vector  ETV
vector 12675  Network.dyn_peer[1]  lookupHopsSig:vector  ETV
vector 12676  Network.dyn_peer[1]  lookupStabilitySig:vector  ETV
vector 12677  Network.dyn_peer[1]  lookupTimeSig:vector  ETV
vector 12678  Network.dyn_peer[2]  lookupHopsSig:vector  ETV
vector 12679  Network.dyn_peer[2]  lookupStabilitySig:vector  ETV
vector 12680  Network.dyn_peer[2]  lookupTimeSig:vector  ETV
vector 12690  Network.dyn_peer[6]  lookupHopsSig:vector  ETV
vector 12691  Network.dyn_peer[6]  lookupStabilitySig:vector  ETV
vector 12692  Network.dyn_peer[6]  lookupTimeSig:vector  ETV
vector 12699  Network.dyn_peer[9]  lookupHopsSig:vector  ETV
vector 12700  Network.dyn_peer[9]  lookupStabilitySig:vector  ETV
vector 12701  Network.dyn_peer[9]  lookupTimeSig:vector  ETV
vector 12708  Network.dyn_peer[12]  lookupHopsSig:vector  ETV
vector 12709  Network.dyn_peer[12]  lookupStabilitySig:vector  ETV
vector 12710  Network.dyn_peer[12]  lookupTimeSig:vector  ETV
vector 12732  Network.dyn_peer[20]  lookupHopsSig:vector  ETV
vector 12733  Network.dyn_peer[20]  lookupStabilitySig:vector  ETV
vector 12734  Network.dyn_peer[20]  lookupTimeSig:vector  ETV
vector 12744  Network.dyn_peer[24]  lookupHopsSig:vector  ETV
vector 12745  Network.dyn_peer[24]  lookupStabilitySig:vector  ETV
vector 12746  Network.dyn_peer[24]  lookupTimeSig:vector  ETV
vector 12747  Network.dyn_peer[25]  lookupHopsSig:vector  ETV
vector 12748  Network.dyn_peer[25]  lookupStabilitySig:vector  ETV
vector 12749  Network.dyn_peer[25]  lookupTimeSig:vector  ETV
vector 12750  Network.dyn_peer[26]  lookupHopsSig:vector  ETV
vector 12751  Network.dyn_peer[26]  lookupStabilitySig:vector  ETV
vector 12752  Network.dyn_peer[26]  lookupTimeSig:vector  ETV
vector 12672  Network.dyn_peer[0]  lookupHopsSig:vector  ETV
vector 12673  Network.dyn_peer[0]  lookupStabilitySig:vector  ETV
vector 12674  Network.dyn_peer[0]  lookupTimeSig:vector  ETV
vector 12681  Network.dyn_peer[3]  lookupHopsSig:vector  ETV
vector 12682  Network.dyn_peer[3]  lookupStabilitySig:vector  ETV
vector 12683  Network.dyn_peer[3]  lookupTimeSig:vector  ETV
vector 12684  Network.dyn_peer[4]  lookupHopsSig:vector  ETV
vector 12685  Network.dyn_peer[4]  lookupStabilitySig:vector  ETV
vector 12686  Network.dyn_peer[4]  lookupTimeSig:vector  ETV
vector 12687  Network.dyn_peer[5]  lookupHopsSig:vector  ETV
vector 12688  Network.dyn_peer[5]  lookupStabilitySig:vector  ETV
vector 12689  Network.dyn_peer[5]  lookupTimeSig:vector  ETV
vector 12693  Network.dyn_peer[7]  lookupHopsSig:vector  ETV
vector 12694  Network.dyn_peer[7]  lookupStabilitySig:vector  ETV
vector 12695  Network.dyn_peer[7]  lookupTimeSig:vector  ETV
vector 12711  Network.dyn_peer[13]  lookupHopsSig:vector  ETV
vector 12712  Network.dyn_peer[13]  lookupStabilitySig:vector  ETV
vector 12713  Network.dyn_peer[13]  lookupTimeSig:vector  ETV
vector 12726  Network.dyn_peer[18]  lookupHopsSig:vector  ETV
vector 12727  Network.dyn_peer[18]  lookupStabilitySig:vector  ETV
vector 12728  Network.dyn_peer[18]  lookupTimeSig:vector  ETV
vector 12738  Network.dyn_peer[22]  lookupHopsSig:vector  ETV
vector 12739  Network.dyn_peer[22]  lookupStabilitySig:vector  ETV
vector 12740  Network.dyn_peer[22]  lookupTimeSig:vector  ETV
vector 12741  Network.dyn_peer[23]  lookupHopsSig:vector  ETV
vector 12742  Network.dyn_peer[23]  lookupStabilitySig:vector  ETV
vector 12743  Network.dyn_peer[23]  lookupTimeSig:vector  ETV
vector 12756  Network.dyn_peer[28]  lookupHopsSig:vector  ETV
vector 12757  Network.dyn_peer[28]  lookupStabilitySig:vector  ETV
vector 12758  Network.dyn_peer[28]  lookupTimeSig:vector  ETV
vector 12705  Network.dyn_peer[11]  lookupHopsSig:vector  ETV
vector 12706  Network.dyn_peer[11]  lookupStabilitySig:vector  ETV
vector 12707  Network.dyn_peer[11]  lookupTimeSig:vector  ETV
vector 12717  Network.dyn_peer[15]  lookupHopsSig:vector  ETV
vector 12718  Network.dyn_peer[15]  lookupStabilitySig:vector  ETV
vector 12719  Network.dyn_peer[15]  lookupTimeSig:vector  ETV
vector 12723  Network.dyn_peer[17]  lookupHopsSig:vector  ETV
vector 12724  Network.dyn_peer[17]  lookupStabilitySig:vector  ETV
vector 12725  Network.dyn_peer[17]  lookupTimeSig:vector  ETV
vector 12729  Network.dyn_peer[19]  lookupHopsSig:vector  ETV
vector 12730  Network.dyn_peer[19]  lookupStabilitySig:vector  ETV
vector 12731  Network.dyn_peer[19]  lookupTimeSig:vector  ETV
vector 12735  Network.dyn_peer[21]  lookupHopsSig:vector  ETV
vector 12736  Network.dyn_peer[21]  lookupStabilitySig:vector  ETV
vector 12737  Network.dyn_peer[21]  lookupTimeSig:vector  ETV
vector 12696  Network.dyn_peer[8]  lookupHopsSig:vector  ETV
vector 12697  Network.dyn_peer[8]  lookupStabilitySig:vector  ETV
vector 12698  Network.dyn_peer[8]  lookupTimeSig:vector  ETV
vector 12759  Network.dyn_peer[29]  lookupHopsSig:vector  ETV
vector 12760  Network.dyn_peer[29]  lookupStabilitySig:vector  ETV
vector 12761  Network.dyn_peer[29]  lookupTimeSig:vector  ETV
vector 12765  Network.dyn_peer[31]  lookupHopsSig:vector  ETV
vector 12766  Network.dyn_peer[31]  lookupStabilitySig:vector  ETV
vector 12767  Network.dyn_peer[31]  lookupTimeSig:vector  ETV
vector 12714  Network.dyn_peer[14]  lookupHopsSig:vector  ETV
vector 12715  Network.dyn_peer[14]  lookupStabilitySig:vector  ETV
vector 12716  Network.dyn_peer[14]  lookupTimeSig:vector  ETV
vector 12762  Network.dyn_peer[30]  lookupHopsSig:vector  ETV
vector 12763  Network.dyn_peer[30]  lookupStabilitySig:vector  ETV
vector 12764  Network.dyn_peer[30]  lookupTimeSig:vector  ETV
vector 12753  Network.dyn_peer[27]  lookupHopsSig:vector  ETV
vector 12754  Network.dyn_peer[27]  lookupStabilitySig:vector  ETV
vector 12755  Network.dyn_peer[27]  lookupTimeSig:vector  ETV
12672	204	20.2000000001	2
12672	434	20.6000000001	3
12672	591	20.804694054356	1
12672	626	20.812367212928	1
12672	988	21.212467213028	4
12672	1808	21.912467213028	6
12672	2871	22.721285818616	7
12672	4854	24.125671509645	14
12672	5123	24.335590804748	1
12672	5165	24.410069386733	8
12672	5358	24.541779184548	1
12672	5852	25.019501454822	5
12672	5949	25.059492230013	5
12672	6517	25.563884379854	5
12672	6971	25.963884379854	3
12672	7180	26.16669800833	1
12672	7958	26.774085935751	6
12672	8707	27.374085935751	6
12672	9094	27.674936735749	2
12672	9273	27.840871696572	2
12672	9282	27.84804453465	4
12672	9692	28.248410888458	4
12672	9869	28.448410888458	1
12672	10840	29.34929653542	9
12672	12653	30.876245956816	11
12672	13058	31.176245956816	2
12672	13666	31.627813156204	2
12672	13842	31.783372420025	5
12672	14373	32.232760962654	5
12672	14415	32.286435646325	4
12672	14441	32.289466447847	4
12672	15420	33.09456131089	8
12672	15980	33.59456131089	4
12672	17982	35.301531325927	19
12672	18003	35.313228481377	11
12672	18253	35.517347195325	2
12672	18550	35.817347195325	2
12672	19099	36.325716585743	4
12672	19810	36.928558675162	5
12672	20234	37.335091193669	3
12672	20406	37.511140635609	3
12672	20686	37.716097323244	2
12672	21653	38.616097323244	10
12672	22272	39.125395187608	4
12672	22541	39.311174561955	1
12672	22592	39.33126071704	1
12672	22605	39.334080799033	1
12672	22620	39.334180799133	0
12672	22885	39.534180799133	1
12672	23271	39.844779759927	1
12672	23494	40.043681540658	5
12672	23526	40.052665279088	1
12672	23610	40.137239879724	1
12672	24269	40.639044565584	6
12672	24957	41.239044565584	5
12672	25224	41.45353228302	1
12672	25814	41.964635754572	4
12672	26061	42.166801644181	1
12672	26066	42.168982642895	1
12672	26411	42.469082642995	3
12672	27166	43.169082642995	7
12672	27506	43.484809725748	2
12672	28220	44.125466208182	6
12672	28330	44.189933942142	7
12672	28622	44.398150170212	2
12672	28913	44.603169343785	2
12672	29395	45.003169343785	4
12672	29868	45.405358410094	3
12672	30017	45.507282132795	1
12672	31292	46.707282132795	11
12672	31457	46.907894489769	1
12672	31773	47.214307839068	2
12672	32126	47.521975604249	3
12672	33461	48.759005267694	8
12672	34406	49.559005267694	7
12672	34700	49.815330219384	6
12672	34850	49.968492705292	3
12672	35050	50.132857788545	2
12672	35306	50.334970079571	2
12672	36061	50.934970079571	6
12672	37122	51.835654219693	8
12672	37377	52.037456179723	1
12672	37772	52.3393999243	3
12672	37912	52.464355204761	4
12672	38180	52.744212391048	3
12672	38184	52.744824009037	7
12672	38317	52.844924009137	1
12672	38536	53.044924009137	1
12672	38984	53.44671879992	3
12672	39487	53.856203752938	3
12672	40048	54.256777343896	3
12672	40642	54.759813157437	6
12672	40859	54.959813157437	1
12672	41347	55.360929914862	3
12672	41700	55.634722178268	4
12672	41726	55.663231857002	2
12672	41940	55.834968346822	1
12672	42844	56.440835891173	7
12672	43320	56.840835891173	3
12672	43602	57.042220258419	1
12672	44080	57.447053117598	3
12672	44811	58.051734312571	6
12672	45334	58.452553150316	4
12672	45759	58.752553150316	2
12672	46233	59.155725718962	5
12672	47097	59.76280703416	6
12672	47864	60.467983607078	7
12672	48367	60.977704279612	4
12672	48954	61.484893277828	5
12672	49444	61.884893277828	4
12672	50128	62.442616647712	9
12672	50275	62.529869500419	3
12672	50369	62.593402013687	7
12672	50372	62.593480738518	7
12672	50685	62.846179389807	3
12672	50704	62.848471055032	3
12672	50775	62.897863529129	2
12672	50784	62.901182696101	2
12672	51544	63.501282696201	6
12672	51771	63.701282696201	1
12672	52182	64.106471113908	3
12672	52946	64.850069616799	9
12672	54225	65.950169616899	12
12672	54832	66.450169616899	4
12672	55702	67.159292309506	7
12672	56310	67.659392309606	5
12672	56922	68.159392309606	4
12672	57479	68.560008189585	3
12672	58193	69.168700289378	6
12672	58508	69.378330924241	1
12672	58600	69.462317758209	1
12672	58903	69.672096937456	1
12672	59038	69.781304009019	3
12672	59449	70.184849885171	4
12672	60123	70.784849885171	6
12672	60817	71.424181124602	5
12672	61053	71.593442766614	9
12672	61334	71.833513577644	3
12672	62404	72.737177125742	11
12672	63074	73.312393441073	3
12672	64322	74.312493441173	10
12672	65897	75.712493441173	15
12672	66163	75.919863899178	2
12672	67077	76.635022321121	2
12672	67178	76.719863899178	7
12672	68440	77.629726294127	10
12672	69063	78.129726294127	4
12672	69495	78.534111746385	3
12672	70113	79.03651318521	5
12672	70790	79.63651318521	6
12672	71239	80.038445982925	3
12672	71448	80.245684077331	1
12672	71555	80.381218776625	4
12672	71578	80.390369903451	1
12672	71637	80.447524333001	1
12672	71875	80.655696654019	1
12672	72032	80.755796654119	1
12672	73785	82.212652151814	9
12672	74032	82.412652151814	1
12672	75292	83.522300420667	11
12672	77496	85.223728572726	19
12672	78121	85.723728572726	4
12672	79226	86.630124231127	8
12672	79958	87.192403539229	3
12672	80202	87.394792025483	1
12672	80225	87.416939495417	6
12672	80390	87.538360000184	8
12672	80793	87.845204181394	3
12672	81954	88.736135126601	2
12672	82657	89.336135126601	6
12672	83157	89.744003893031	3
12672	83666	90.152817500048	4
12672	84023	90.493275642683	3
12672	84333	90.701804781078	1
12672	84460	90.807239583241	4
12672	84963	91.216131607584	5
12672	85921	91.916131607584	6
12672	86493	92.4255928746	4
12672	87043	92.928257180159	4
12672	87242	93.031414235781	1
12672	88053	93.731414235781	6
12672	88285	93.937385994551	1
12672	88517	94.149056486219	1
12672	88594	94.185842405554	1
12672	89253	94.688928510982	5
12672	89975	95.388928510982	6
12672	90532	95.889359809667	5
12672	90693	96.041629613677	5
12672	91073	96.291405413624	3
12672	91271	96.45055140949	4
12672	91327	96.485825820883	3
12672	91692	96.79043279352	2
12672	91755	96.850785422792	3
12672	91928	96.9931124871	2
12672	92137	97.160635820871	3
12672	92149	97.170285525649	2
12672	92210	97.198713180663	8
12672	92228	97.199175264348	0
12672	93011	97.999175264348	7
12672	93620	98.514789014245	4
12672	93732	98.605100766249	5
12672	93879	98.718801925355	1
12672	94149	98.921282422554	3
12672	94368	99.121282422554	1
12672	94846	99.525961071771	3
12672	95550	100.126620283372	5
12672	95746	100.32977873235	1
12672	95872	100.452547328236	1
12672	96085	100.654111746427	1
12672	96714	101.161426001631	5
12672	97122	101.465735255963	2
12672	97371	101.671736160541	1
12672	97502	101.765410627158	1
12672	97749	101.974308698662	2
12672	98331	102.474308698662	4
12672	98745	102.776938725551	2
12672	99311	103.277038725651	5
12672	99761	103.677038725651	3
12672	100232	104.084966152214	5
12672	100967	104.667571551062	2
12672	101399	104.970820139125	3
12672	101847	105.370820139125	3
12672	102050	105.574633775502	1
12672	102675	106.080021604031	5
12672	102953	106.279836680878	4
12672	103123	106.381228612702	5
12672	103308	106.580254366056	2
12672	103712	106.980354366156	4
12672	104025	107.280354366156	2
12672	104347	107.59022303763	3
12672	104743	107.89022303763	2
12672	105063	108.136886615582	2
12672	105207	108.236986615682	1
12672	106063	108.936986615682	6
12672	106464	109.240745786708	3
12672	106795	109.547292511833	3
12672	107614	110.157140745748	6
12672	107675	110.219528411295	5
12672	107993	110.426569485728	2
12672	108599	110.926569485728	4
12672	109472	111.535388069849	5
12672	109894	111.882108794109	7
12672	109951	111.941313985902	3
12672	109993	111.971080870847	12
12672	110389	112.272796015848	3
12672	111311	113.072796015848	7
12672	111866	113.574381066217	4
12672	112779	114.372133864704	2
12672	113006	114.58204541957	9
12672	113351	114.8731812651	4
12672	113357	114.87484211953	4
12672	113753	115.17494211963	3
12672	114618	115.87494211963	6
12672	114990	116.281467908568	3
12672	115177	116.484652371095	1
12672	115262	116.549290295128	1
12672	117095	118.049390295228	17
12672	117622	118.449390295228	3
12672	118138	118.755042652493	4
12672	119045	119.360845897323	6
12672	119878	119.960845897323	6
12672	120804	120.816901961084	6
12672	121467	121.327553128225	3
12672	121536	121.369212604339	13
12672	122035	121.735524737685	3
12672	122105	121.771268399091	4
12672	122856	122.276878136853	6
12672	123201	122.577608859185	2
12672	123693	123.087359176573	5
12672	124119	123.497890048645	3
12672	124724	124.097990048745	6
12672	125938	125.139487381282	6
12672	126509	125.539487381282	5
12672	127016	125.946098214122	3
12672	127424	126.34318793453	3
12672	128019	126.84328793463	5
12672	128664	127.409229214855	1
12672	130659	128.715416447634	15
12672	131014	129.015416447634	2
12672	131426	129.415726760052	3
12672	131771	129.719431200347	3
12672	132103	130.019431200347	2
12672	132220	130.119709949791	1
12672	132788	130.619709949791	4
12672	133420	131.120546714909	4
12672	133826	131.42256361177	5
12672	133991	131.521530776241	3
12672	134252	131.726331984803	2
12672	135583	132.931488006971	11
12672	135789	133.1320613659	1
12672	136402	133.732580838246	6
12673	204	20.2000000001	0.75
12673	434	20.6000000001	0.625
12673	591	20.804694054356	0.875
12673	626	20.812367212928	0.875
12673	988	21.212467213028	0.5
12673	1808	21.912467213028	0.25
12673	2871	22.721285818616	0.125
12673	4854	24.125671509645	-0.75
12673	5123	24.335590804748	0.875
12673	5165	24.410069386733	0
12673	5358	24.541779184548	0.875
12673	5852	25.019501454822	0.44444441795349
12673	5949	25.059492230013	0.375
12673	6517	25.563884379854	0.375
12673	6971	25.963884379854	0.625
12673	7180	26.16669800833	0.875
12673	7958	26.774085935751	0.25
12673	8707	27.374085935751	0.25
12673	9094	27.674936735749	0.75
12673	9273	27.840871696572	0.75
12673	9282	27.84804453465	0.5
12673	9692	28.248410888458	0.5
12673	9869	28.448410888458	0.875
12673	10840	29.34929653542	-0.125
12673	12653	30.876245956816	-0.375
12673	13058	31.176245956816	0.75
12673	13666	31.627813156204	0.75
12673	13842	31.783372420025	0.375
12673	14373	32.232760962654	0.375
12673	14415	32.286435646325	0.5
12673	14441	32.289466447847	0.5
12673	15420	33.09456131089	0
12673	15980	33.59456131089	0.5
12673	17982	35.301531325927	-1.375
12673	18003	35.313228481377	-0.375
12673	18253	35.517347195325	0.75
12673	18550	35.817347195325	0.75
12673	19099	36.325716585743	0.5
12673	19810	36.928558675162	0.375
12673	20234	37.335091193669	0.625
12673	20406	37.511140635609	0.625
12673	20686	37.716097323244	0.75
12673	21653	38.616097323244	-0.25
12673	22272	39.125395187608	0.5
12673	22541	39.311174561955	0.875
12673	22592	39.33126071704	0.875
12673	22605	39.334080799033	0.875
12673	22620	39.334180799133	1
12673	22885	39.534180799133	0.875
12673	23271	39.844779759927	0.875
12673	23494	40.043681540658	0.375
12673	23526	40.052665279088	0.875
12673	23610	40.137239879724	0.875
12673	24269	40.639044565584	0.25
12673	24957	41.239044565584	0.375
12673	25224	41.45353228302	0.875
12673	25814	41.964635754572	0.5
12673	26061	42.166801644181	0.875
12673	26066	42.168982642895	0.875
12673	26411	42.469082642995	0.625
12673	27166	43.169082642995	0.125
12673	27506	43.484809725748	0.75
12673	28220	44.125466208182	0.25
12673	28330	44.189933942142	0.125
12673	28622	44.398150170212	0.75
12673	28913	44.603169343785	0.75
12673	29395	45.003169343785	0.5
12673	29868	45.405358410094	0.625
12673	30017	45.507282132795	0.875
12673	31292	46.707282132795	-0.375
12673	31457	46.907894489769	0.875
12673	31773	47.214307839068	0.75
12673	32126	47.521975604249	0.625
12673	33461	48.759005267694	0.11111110448837
12673	34406	49.559005267694	0.125
12673	34700	49.815330219384	0.25
12673	34850	49.968492705292	0.625
12673	35050	50.132857788545	0.75
12673	35306	50.334970079571	0.75
12673	36061	50.934970079571	0.25
12673	37122	51.835654219693	0
12673	37377	52.037456179723	0.875
12673	37772	52.3393999243	0.625
12673	37912	52.464355204761	0.5
12673	38180	52.744212391048	0.625
12673	38184	52.744824009037	0.125
12673	38317	52.844924009137	0.875
12673	38536	53.044924009137	0.875
12673	38984	53.44671879992	0.625
12673	39487	53.856203752938	0.625
12673	40048	54.256777343896	0.625
12673	40642	54.759813157437	0.25
12673	40859	54.959813157437	0.875
12673	41347	55.360929914862	0.625
12673	41700	55.634722178268	0.5
12673	41726	55.663231857002	0.75
12673	41940	55.834968346822	0.875
12673	42844	56.440835891173	0.125
12673	43320	56.840835891173	0.625
12673	43602	57.042220258419	0.875
12673	44080	57.447053117598	0.625
12673	44811	58.051734312571	0.25
12673	45334	58.452553150316	0.5
12673	45759	58.752553150316	0.75
12673	46233	59.155725718962	0.375
12673	47097	59.76280703416	0.25
12673	47864	60.467983607078	0.125
12673	48367	60.977704279612	0.5
12673	48954	61.484893277828	0.375
12673	49444	61.884893277828	0.5
12673	50128	62.442616647712	-0.125
12673	50275	62.529869500419	0.625
12673	50369	62.593402013687	0.125
12673	50372	62.593480738518	0.125
12673	50685	62.846179389807	0.625
12673	50704	62.848471055032	0.625
12673	50775	62.897863529129	0.75
12673	50784	62.901182696101	0.75
12673	51544	63.501282696201	0.25
12673	51771	63.701282696201	0.875
12673	52182	64.106471113908	0.625
12673	52946	64.850069616799	-0.125
12673	54225	65.950169616899	-0.5
12673	54832	66.450169616899	0.5
12673	55702	67.159292309506	0.125
12673	56310	67.659392309606	0.375
12673	56922	68.159392309606	0.5
12673	57479	68.560008189585	0.625
12673	58193	69.168700289378	0.25
12673	58508	69.378330924241	0.875
12673	58600	69.462317758209	0.875
12673	58903	69.672096937456	0.875
12673	59038	69.781304009019	0.625
12673	59449	70.184849885171	0.5
12673	60123	70.784849885171	0.25
12673	60817	71.424181124602	0.375
12673	61053	71.593442766614	-0.125
12673	61334	71.833513577644	0.625
12673	62404	72.737177125742	-0.375
12673	63074	73.312393441073	0.625
12673	64322	74.312493441173	-0.25
12673	65897	75.712493441173	-0.875
12673	66163	75.919863899178	0.75
12673	67077	76.635022321121	0.75
12673	67178	76.719863899178	0.125
12673	68440	77.629726294127	-0.25
12673	69063	78.129726294127	0.5
12673	69495	78.534111746385	0.625
12673	70113	79.03651318521	0.375
12673	70790	79.63651318521	0.25
12673	71239	80.038445982925	0.625
12673	71448	80.245684077331	0.875
12673	71555	80.381218776625	0.5
12673	71578	80.390369903451	0.875
12673	71637	80.447524333001	0.875
12673	71875	80.655696654019	0.875
12673	72032	80.755796654119	0.875
12673	73785	82.212652151814	-0.125
12673	74032	82.412652151814	0.875
12673	75292	83.522300420667	-0.375
12673	77496	85.223728572726	-1.375
12673	78121	85.723728572726	0.5
12673	79226	86.630124231127	0
12673	79958	87.192403539229	0.625
12673	80202	87.394792025483	0.875
12673	80225	87.416939495417	0.25
12673	80390	87.538360000184	0
12673	80793	87.845204181394	0.625
12673	81954	88.736135126601	0.75
12673	82657	89.336135126601	0.25
12673	83157	89.744003893031	0.625
12673	83666	90.152817500048	0.5
12673	84023	90.493275642683	0.625
12673	84333	90.701804781078	0.875
12673	84460	90.807239583241	0.5
12673	84963	91.216131607584	0.375
12673	85921	91.916131607584	0.25
12673	86493	92.4255928746	0.5
12673	87043	92.928257180159	0.5
12673	87242	93.031414235781	0.875
12673	88053	93.731414235781	0.25
12673	88285	93.937385994551	0.875
12673	88517	94.149056486219	0.875
12673	88594	94.185842405554	0.875
12673	89253	94.688928510982	0.375
12673	89975	95.388928510982	0.25
12673	90532	95.889359809667	0.375
12673	90693	96.041629613677	0.375
12673	91073	96.291405413624	0.625
12673	91271	96.45055140949	0.5
12673	91327	96.485825820883	0.625
12673	91692	96.79043279352	0.75
12673	91755	96.850785422792	0.625
12673	91928	96.9931124871	0.75
12673	92137	97.160635820871	0.625
12673	92149	97.170285525649	0.75
12673	92210	97.198713180663	0
12673	92228	97.199175264348	1
12673	93011	97.999175264348	0.125
12673	93620	98.514789014245	0.5
12673	93732	98.605100766249	0.375
12673	93879	98.718801925355	0.875
12673	94149	98.921282422554	0.625
12673	94368	99.121282422554	0.875
12673	94846	99.525961071771	0.625
12673	95550	100.126620283372	0.375
12673	95746	100.32977873235	0.875
12673	95872	100.452547328236	0.875
12673	96085	100.654111746427	0.875
12673	96714	101.161426001631	0.375
12673	97122	101.465735255963	0.75
12673	97371	101.671736160541	0.875
12673	97502	101.765410627158	0.875
12673	97749	101.974308698662	0.75
12673	98331	102.474308698662	0.5
12673	98745	102.776938725551	0.75
12673	99311	103.277038725651	0.375
12673	99761	103.677038725651	0.625
12673	100232	104.084966152214	0.375
12673	100967	104.667571551062	0.75
12673	101399	104.970820139125	0.625
12673	101847	105.370820139125	0.625
12673	102050	105.574633775502	0.875
12673	102675	106.080021604031	0.375
12673	102953	106.279836680878	0.5
12673	103123	106.381228612702	0.375
12673	103308	106.580254366056	0.75
12673	103712	106.980354366156	0.5
12673	104025	107.280354366156	0.75
12673	104347	107.59022303763	0.625
12673	104743	107.89022303763	0.75
12673	105063	108.136886615582	0.75
12673	105207	108.236986615682	0.875
12673	106063	108.936986615682	0.25
12673	106464	109.240745786708	0.625
12673	106795	109.547292511833	0.625
12673	107614	110.157140745748	0.25
12673	107675	110.219528411295	0.375
12673	107993	110.426569485728	0.75
12673	108599	110.926569485728	0.5
12673	109472	111.535388069849	0.375
12673	109894	111.882108794109	0.125
12673	109951	111.941313985902	0.625
12673	109993	111.971080870847	-0.5
12673	110389	112.272796015848	0.625
12673	111311	113.072796015848	0.125
12673	111866	113.574381066217	0.5
12673	112779	114.372133864704	0.75
12673	113006	114.58204541957	-0.125
12673	113351	114.8731812651	0.5
12673	113357	114.87484211953	0.5
12673	113753	115.17494211963	0.625
12673	114618	115.87494211963	0.25
12673	114990	116.281467908568	0.625
12673	115177	116.484652371095	0.875
12673	115262	116.549290295128	0.875
12673	117095	118.049390295228	-1.125
12673	117622	118.449390295228	0.625
12673	118138	118.755042652493	0.5
12673	119045	119.360845897323	0.25
12673	119878	119.960845897323	0.25
12673	120804	120.816901961084	0.25
12673	121467	121.327553128225	0.625
12673	121536	121.369212604339	-0.625
12673	122035	121.735524737685	0.625
12673	122105	121.771268399091	0.5
12673	122856	122.276878136853	0.25
12673	123201	122.577608859185	0.75
12673	123693	123.087359176573	0.375
12673	124119	123.497890048645	0.625
12673	124724	124.097990048745	0.25
12673	125938	125.139487381282	0.25
12673	126509	125.539487381282	0.375
12673	127016	125.946098214122	0.625
12673	127424	126.34318793453	0.625
12673	128019	126.84328793463	0.375
12673	128664	127.409229214855	0.875
12673	130659	128.715416447634	-0.875
12673	131014	129.015416447634	0.75
12673	131426	129.415726760052	0.625
12673	131771	129.719431200347	0.625
12673	132103	130.019431200347	0.75
12673	132220	130.119709949791	0.875
12673	132788	130.619709949791	0.5
12673	133420	131.120546714909	0.5
12673	133826	131.42256361177	0.375
12673	133991	131.521530776241	0.625
12673	134252	131.726331984803	0.75
12673	135583	132.931488006971	-0.375
12673	135789	133.1320613659	0.875
12673	136402	133.732580838246	0.25
12674	204	20.2000000001	0.2
12674	434	20.6000000001	0.4
12674	591	20.804694054356	0.2
12674	626	20.812367212928	0.2
12674	988	21.212467213028	0.4
12674	1808	21.912467213028	0.7
12674	2871	22.721285818616	0.8
12674	4854	24.125671509645	1.4
12674	5123	24.335590804748	0.2
12674	5165	24.410069386733	0.8
12674	5358	24.541779184548	0.2
12674	5852	25.019501454822	0.6
12674	5949	25.059492230013	0.5
12674	6517	25.563884379854	0.5
12674	6971	25.963884379854	0.4
12674	7180	26.16669800833	0.2
12674	7958	26.774085935751	0.6
12674	8707	27.374085935751	0.6
12674	9094	27.674936735749	0.3
12674	9273	27.840871696572	0.3
12674	9282	27.84804453465	0.5
12674	9692	28.248410888458	0.4
12674	9869	28.448410888458	0.2
12674	10840	29.34929653542	0.9
12674	12653	30.876245956816	1
12674	13058	31.176245956816	0.3
12674	13666	31.627813156204	0.3
12674	13842	31.783372420025	0.6
12674	14373	32.232760962654	0.6
12674	14415	32.286435646325	0.5
12674	14441	32.289466447847	0.5
12674	15420	33.09456131089	0.8
12674	15980	33.59456131089	0.5
12674	17982	35.301531325927	1.7
12674	18003	35.313228481377	1.1
12674	18253	35.517347195325	0.2
12674	18550	35.817347195325	0.3
12674	19099	36.325716585743	0.5
12674	19810	36.928558675162	0.6
12674	20234	37.335091193669	0.4
12674	20406	37.511140635609	0.4
12674	20686	37.716097323244	0.2
12674	21653	38.616097323244	0.9
12674	22272	39.125395187608	0.5
12674	22541	39.311174561955	0.2
12674	22592	39.33126071704	0.2
12674	22605	39.334080799033	0.2
12674	22620	39.334180799133	0
12674	22885	39.534180799133	0.2
12674	23271	39.844779759927	0.2
12674	23494	40.043681540658	0.5
12674	23526	40.052665279088	0.2
12674	23610	40.137239879724	0.2
12674	24269	40.639044565584	0.5
12674	24957	41.239044565584	0.6
12674	25224	41.45353228302	0.2
12674	25814	41.964635754572	0.5
12674	26061	42.166801644181	0.2
12674	26066	42.168982642895	0.2
12674	26411	42.469082642995	0.3
12674	27166	43.169082642995	0.7
12674	27506	43.484809725748	0.3
12674	28220	44.125466208182	0.7
12674	28330	44.189933942142	0.7
12674	28622	44.398150170212	0.2
12674	28913	44.603169343785	0.2
12674	29395	45.003169343785	0.4
12674	29868	45.405358410094	0.4
12674	30017	45.507282132795	0.1
12674	31292	46.707282132795	1.2
12674	31457	46.907894489769	0.2
12674	31773	47.214307839068	0.3
12674	32126	47.521975604249	0.3
12674	33461	48.759005267694	0.8
12674	34406	49.559005267694	0.8
12674	34700	49.815330219384	0.7
12674	34850	49.968492705292	0.4
12674	35050	50.132857788545	0.3
12674	35306	50.334970079571	0.2
12674	36061	50.934970079571	0.6
12674	37122	51.835654219693	0.9
12674	37377	52.037456179723	0.2
12674	37772	52.3393999243	0.3
12674	37912	52.464355204761	0.5
12674	38180	52.744212391048	0.4
12674	38184	52.744824009037	0.7
12674	38317	52.844924009137	0.1
12674	38536	53.044924009137	0.2
12674	38984	53.44671879992	0.4
12674	39487	53.856203752938	0.4
12674	40048	54.256777343896	0.4
12674	40642	54.759813157437	0.5
12674	40859	54.959813157437	0.2
12674	41347	55.360929914862	0.4
12674	41700	55.634722178268	0.5
12674	41726	55.663231857002	0.3
12674	41940	55.834968346822	0.2
12674	42844	56.440835891173	0.6
12674	43320	56.840835891173	0.4
12674	43602	57.042220258419	0.2
12674	44080	57.447053117598	0.4
12674	44811	58.051734312571	0.6
12674	45334	58.452553150316	0.4
12674	45759	58.752553150316	0.3
12674	46233	59.155725718962	0.4
12674	47097	59.76280703416	0.6
12674	47864	60.467983607078	0.7
12674	48367	60.977704279612	0.5
12674	48954	61.484893277828	0.5
12674	49444	61.884893277828	0.4
12674	50128	62.442616647712	0.8
12674	50275	62.529869500419	0.3
12674	50369	62.593402013687	0.7
12674	50372	62.593480738518	0.7
12674	50685	62.846179389807	0.4
12674	50704	62.848471055032	0.4
12674	50775	62.897863529129	0.3
12674	50784	62.901182696101	0.3
12674	51544	63.501282696201	0.6
12674	51771	63.701282696201	0.2
12674	52182	64.106471113908	0.4
12674	52946	64.850069616799	0.9
12674	54225	65.950169616899	1.1
12674	54832	66.450169616899	0.5
12674	55702	67.159292309506	0.7
12674	56310	67.659392309606	0.5
12674	56922	68.159392309606	0.5
12674	57479	68.560008189585	0.4
12674	58193	69.168700289378	0.6
12674	58508	69.378330924241	0.2
12674	58600	69.462317758209	0.2
12674	58903	69.672096937456	0.2
12674	59038	69.781304009019	0.4
12674	59449	70.184849885171	0.4
12674	60123	70.784849885171	0.6
12674	60817	71.424181124602	0.6
12674	61053	71.593442766614	0.8
12674	61334	71.833513577644	0.4
12674	62404	72.737177125742	0.9
12674	63074	73.312393441073	0.4
12674	64322	74.312493441173	1
12674	65897	75.712493441173	1.4
12674	66163	75.919863899178	0.2
12674	67077	76.635022321121	0.3
12674	67178	76.719863899178	0.8
12674	68440	77.629726294127	0.9
12674	69063	78.129726294127	0.5
12674	69495	78.534111746385	0.4
12674	70113	79.03651318521	0.5
12674	70790	79.63651318521	0.6
12674	71239	80.038445982925	0.4
12674	71448	80.245684077331	0.2