version 2
run Stability-51-20130525-17:45:22-19193
attr configname Stability
attr datetime 20130525-17:45:22
attr experiment Stability
attr inifile omnetpp.ini
attr iterationvars $0=1e1
attr iterationvars2 "$0=1e1, $repetition=1"
attr measurement $0=1e1
attr network Network
attr processid 19193
attr repetition 1
attr replication #1
attr resultdir results
attr runnumber 51
attr seedset 51

vector 4896  Network.dyn_peer[0]  lookupHopsSig:vector  ETV
vector 4897  Network.dyn_peer[0]  lookupStabilitySig:vector  ETV
vector 4898  Network.dyn_peer[0]  lookupTimeSig:vector  ETV
vector 4905  Network.dyn_peer[3]  lookupHopsSig:vector  ETV
vector 4906  Network.dyn_peer[3]  lookupStabilitySig:vector  ETV
vector 4907  Network.dyn_peer[3]  lookupTimeSig:vector  ETV
vector 4908  Network.dyn_peer[4]  lookupHopsSig:vector  ETV
vector 4909  Network.dyn_peer[4]  lookupStabilitySig:vector  ETV
vector 4910  Network.dyn_peer[4]  lookupTimeSig:vector  ETV
vector 4938  Network.dyn_peer[14]  lookupHopsSig:vector  ETV
vector 4939  Network.dyn_peer[14]  lookupStabilitySig:vector  ETV
vector 4940  Network.dyn_peer[14]  lookupTimeSig:vector  ETV
vector 4920  Network.dyn_peer[8]  lookupHopsSig:vector  ETV
vector 4921  Network.dyn_peer[8]  lookupStabilitySig:vector  ETV
vector 4922  Network.dyn_peer[8]  lookupTimeSig:vector  ETV
vector 4926  Network.dyn_peer[10]  lookupHopsSig:vector  ETV
vector 4927  Network.dyn_peer[10]  lookupStabilitySig:vector  ETV
vector 4928  Network.dyn_peer[10]  lookupTimeSig:vector  ETV
vector 4956  Network.dyn_peer[20]  lookupHopsSig:vector  ETV
vector 4957  Network.dyn_peer[20]  lookupStabilitySig:vector  ETV
vector 4958  Network.dyn_peer[20]  lookupTimeSig:vector  ETV
vector 4929  Network.dyn_peer[11]  lookupHopsSig:vector  ETV
vector 4930  Network.dyn_peer[11]  lookupStabilitySig:vector  ETV
vector 4931  Network.dyn_peer[11]  lookupTimeSig:vector  ETV
vector 4932  Network.dyn_peer[12]  lookupHopsSig:vector  ETV
vector 4933  Network.dyn_peer[12]  lookupStabilitySig:vector  ETV
vector 4934  Network.dyn_peer[12]  lookupTimeSig:vector  ETV
vector 4941  Network.dyn_peer[15]  lookupHopsSig:vector  ETV
vector 4942  Network.dyn_peer[15]  lookupStabilitySig:vector  ETV
vector 4943  Network.dyn_peer[15]  lookupTimeSig:vector  ETV
vector 4914  Network.dyn_peer[6]  lookupHopsSig:vector  ETV
vector 4915  Network.dyn_peer[6]  lookupStabilitySig:vector  ETV
vector 4916  Network.dyn_peer[6]  lookupTimeSig:vector  ETV
vector 4923  Network.dyn_peer[9]  lookupHopsSig:vector  ETV
vector 4924  Network.dyn_peer[9]  lookupStabilitySig:vector  ETV
vector 4925  Network.dyn_peer[9]  lookupTimeSig:vector  ETV
vector 4953  Network.dyn_peer[19]  lookupHopsSig:vector  ETV
vector 4954  Network.dyn_peer[19]  lookupStabilitySig:vector  ETV
vector 4955  Network.dyn_peer[19]  lookupTimeSig:vector  ETV
vector 4899  Network.dyn_peer[1]  lookupHopsSig:vector  ETV
vector 4900  Network.dyn_peer[1]  lookupStabilitySig:vector  ETV
vector 4901  Network.dyn_peer[1]  lookupTimeSig:vector  ETV
vector 4902  Network.dyn_peer[2]  lookupHopsSig:vector  ETV
vector 4903  Network.dyn_peer[2]  lookupStabilitySig:vector  ETV
vector 4904  Network.dyn_peer[2]  lookupTimeSig:vector  ETV
vector 4968  Network.dyn_peer[24]  lookupHopsSig:vector  ETV
vector 4969  Network.dyn_peer[24]  lookupStabilitySig:vector  ETV
vector 4970  Network.dyn_peer[24]  lookupTimeSig:vector  ETV
vector 4947  Network.dyn_peer[17]  lookupHopsSig:vector  ETV
vector 4948  Network.dyn_peer[17]  lookupStabilitySig:vector  ETV
vector 4949  Network.dyn_peer[17]  lookupTimeSig:vector  ETV
vector 4977  Network.dyn_peer[27]  lookupHopsSig:vector  ETV
vector 4978  Network.dyn_peer[27]  lookupStabilitySig:vector  ETV
vector 4979  Network.dyn_peer[27]  lookupTimeSig:vector  ETV
vector 4980  Network.dyn_peer[28]  lookupHopsSig:vector  ETV
vector 4981  Network.dyn_peer[28]  lookupStabilitySig:vector  ETV
vector 4982  Network.dyn_peer[28]  lookupTimeSig:vector  ETV
vector 4983  Network.dyn_peer[29]  lookupHopsSig:vector  ETV
vector 4984  Network.dyn_peer[29]  lookupStabilitySig:vector  ETV
vector 4985  Network.dyn_peer[29]  lookupTimeSig:vector  ETV
vector 4986  Network.dyn_peer[30]  lookupHopsSig:vector  ETV
vector 4987  Network.dyn_peer[30]  lookupStabilitySig:vector  ETV
vector 4988  Network.dyn_peer[30]  lookupTimeSig:vector  ETV
vector 4959  Network.dyn_peer[21]  lookupHopsSig:vector  ETV
vector 4960  Network.dyn_peer[21]  lookupStabilitySig:vector  ETV
vector 4961  Network.dyn_peer[21]  lookupTimeSig:vector  ETV
vector 4965  Network.dyn_peer[23]  lookupHopsSig:vector  ETV
vector 4966  Network.dyn_peer[23]  lookupStabilitySig:vector  ETV
vector 4967  Network.dyn_peer[23]  lookupTimeSig:vector  ETV
vector 4989  Network.dyn_peer[31]  lookupHopsSig:vector  ETV
vector 4990  Network.dyn_peer[31]  lookupStabilitySig:vector  ETV
vector 4991  Network.dyn_peer[31]  lookupTimeSig:vector  ETV
vector 4911  Network.dyn_peer[5]  lookupHopsSig:vector  ETV
vector 4912  Network.dyn_peer[5]  lookupStabilitySig:vector  ETV
vector 4913  Network.dyn_peer[5]  lookupTimeSig:vector  ETV
vector 4971  Network.dyn_peer[25]  lookupHopsSig:vector  ETV
vector 4972  Network.dyn_peer[25]  lookupStabilitySig:vector  ETV
vector 4973  Network.dyn_peer[25]  lookupTimeSig:vector  ETV
vector 4944  Network.dyn_peer[16]  lookupHopsSig:vector  ETV
vector 4945  Network.dyn_peer[16]  lookupStabilitySig:vector  ETV
vector 4946  Network.dyn_peer[16]  lookupTimeSig:vector  ETV
vector 4950  Network.dyn_peer[18]  lookupHopsSig:vector  ETV
vector 4951  Network.dyn_peer[18]  lookupStabilitySig:vector  ETV
vector 4952  Network.dyn_peer[18]  lookupTimeSig:vector  ETV
vector 4935  Network.dyn_peer[13]  lookupHopsSig:vector  ETV
vector 4936  Network.dyn_peer[13]  lookupStabilitySig:vector  ETV
vector 4937  Network.dyn_peer[13]  lookupTimeSig:vector  ETV
vector 4962  Network.dyn_peer[22]  lookupHopsSig:vector  ETV
vector 4963  Network.dyn_peer[22]  lookupStabilitySig:vector  ETV
vector 4964  Network.dyn_peer[22]  lookupTimeSig:vector  ETV
vector 4974  Network.dyn_peer[26]  lookupHopsSig:vector  ETV
vector 4975  Network.dyn_peer[26]  lookupStabilitySig:vector  ETV
vector 4976  Network.dyn_peer[26]  lookupTimeSig:vector  ETV
vector 4917  Network.dyn_peer[7]  lookupHopsSig:vector  ETV
vector 4918  Network.dyn_peer[7]  lookupStabilitySig:vector  ETV
vector 4919  Network.dyn_peer[7]  lookupTimeSig:vector  ETV
4896	57	20.11	1
4896	202	20.31	1
4896	325	20.511743854067	1
4896	449	20.720311935021	1
4896	1060	21.430531167325	10
4896	1363	21.730531167325	2
4896	1676	21.958404871138	1
4896	2135	22.276350193935	3
4896	3050	22.976350193935	6
4896	3285	23.180251373074	1
4896	4343	23.881352022311	7
4896	4408	23.916703014543	2
4896	4789	24.186080928612	2
4896	4987	24.320316375621	3
4896	5197	24.508026128661	3
4896	5316	24.626571723535	3
4896	5546	24.836671723535	2
4896	5749	25.036671723535	1
4896	6367	25.638631833149	5
4896	6962	26.055425865952	4
4896	7997	26.955425865952	9
4896	8536	27.319598792433	12
4896	8868	27.564804795015	6
4896	9473	28.079677915252	5
4896	9712	28.279677915252	1
4896	10028	28.595152679054	2
4896	10745	29.205848326257	8
4896	11178	29.605953904516	3
4896	11385	29.815918657543	1
4896	11644	30.119048418654	2
4896	12191	30.609582681032	4
4896	12326	30.719682681032	1
4896	12894	31.119682681032	3
4896	14109	32.120346062851	10
4896	14314	32.260843188649	10
4896	14507	32.429534321668	2
4896	14661	32.566522196601	2
4896	15158	33.129808109729	6
4896	15632	33.649421771483	5
4896	16112	34.081811766969	1
4896	16508	34.449421771483	7
4896	16904	34.768624548292	3
4896	17997	35.768624548292	9
4896	18329	36.077184016836	2
4896	18788	36.522442655219	5
4896	19483	37.186880112389	12
4896	19708	37.394473187167	1
4896	19770	37.425037451184	8
4896	20374	37.85148398422	5
4896	20717	38.158677473643	2
4896	21409	38.775550709415	6
4896	21745	39.075550709415	2
4896	22012	39.292527998679	2
4896	22580	39.773326663895	1
4896	22605	39.783426663895	0
4896	23707	40.583426663895	7
4896	23899	40.701673063408	1
4896	25041	41.601673063408	10
4896	25666	42.111773063408	5
4896	26397	42.711773063408	7
4896	27984	43.915169416154	13
4896	28636	44.427909807358	7
4896	29011	44.727909807358	2
4896	29483	45.236188078948	4
4896	29664	45.446008720415	1
4896	30365	46.066046085232	6
4896	31590	47.138483203649	6
4896	31927	47.438483203649	3
4896	32565	47.951100829338	4
4896	32848	48.165837914171	2
4896	33438	48.765837914171	5
4896	34616	49.868015430181	10
4896	34669	49.883921979693	0
4896	35099	50.283921979693	4
4896	35709	50.889353549458	7
4896	36093	51.295641128223	3
4896	36646	51.811987351921	4
4896	36699	51.85878620275	4
4896	36842	51.969188864693	1
4896	37627	52.569188864693	5
4896	37849	52.770716528967	1
4896	38303	53.171406640682	3
4896	38350	53.200704349617	1
4896	38554	53.374030797736	1
4896	38845	53.593703613256	2
4896	39591	54.193703613256	6
4896	41033	55.247130118419	3
4896	41373	55.447130118419	1
4896	41969	55.856788239773	3
4896	42480	56.265345421825	3
4896	42941	56.653089465261	3
4896	43297	56.956644308559	2
4896	43840	57.365390184789	10
4896	44153	57.582243532694	2
4896	45515	58.682243532694	10
4896	45762	58.891776992133	1
4896	45986	59.099813723623	1
4896	46219	59.303917336823	1
4896	46715	59.789157503501	4
4896	46760	59.816405051685	4
4896	46938	59.993732660861	1
4896	47295	60.313129086851	3
4896	47805	60.813129086851	5
4896	48429	61.315238635959	4
4896	48818	61.646178381699	8
4896	48974	61.77419145591	5
4896	49104	61.858743657257	1
4896	49496	62.174913908944	3
4896	50003	62.574913908944	3
4896	50405	62.940646856931	5
4896	50460	63.00677292047	2
4896	51129	63.522260537202	5
4896	51770	64.022260537202	4
4896	52555	64.786633382644	2
4896	52828	64.993252500337	1
4896	52872	65.031576689892	10
4896	53944	65.841733168168	8
4896	54394	66.341733168168	4
4896	54851	66.806781688165	3
4896	54941	66.850081571456	5
4896	55202	67.058076555879	1
4896	55267	67.11821341033	3
4896	55564	67.359228541402	2
4896	56181	67.877462887293	5
4896	56796	68.377462887293	4
4896	57122	68.679814876464	2
4896	57532	69.006923373012	2
4896	57634	69.08059566582	4
4896	58149	69.494342958206	3
4896	58559	69.807049489855	3
4896	60377	71.328862740853	3
4896	61628	72.328862740853	9
4896	61794	72.44858418719	1
4896	62333	72.84858418719	4
4896	62738	73.154420601844	2
4896	63182	73.566016359866	3
4896	63889	74.183150567676	6
4896	64150	74.383150567676	1
4896	64416	74.592424347093	1
4896	65257	75.195145535722	6
4896	65553	75.421969723654	7
4896	65647	75.498629402633	2
4896	66558	76.218594163684	7
4896	67856	77.218594163684	10
4896	68174	77.520544163491	2
4896	68970	78.231827471577	4
4896	69074	78.345949242424	9
4896	69796	78.935362905454	6
4896	70137	79.155909044225	8
4896	70557	79.472915160725	3
4896	71396	80.231932984028	1
4896	72542	81.148783825522	11
4896	73020	81.548783825522	3
4896	73527	81.963814253918	3
4896	74505	82.773914253918	8
4896	74754	82.973914253918	2
4896	75037	83.277317418757	2
4896	76159	84.09585832155	11
4896	76387	84.29585832155	1
4896	76801	84.609167902864	2
4896	77588	85.519842355234	9
4896	78786	86.519842355234	11
4896	79040	86.649283807045	3
4896	79080	86.695597874421	5
4896	79103	86.709638598252	0
4896	79600	87.109638598252	3
4896	80662	88.113502354072	9
4896	81212	88.639671677819	5
4896	81443	88.841026563085	2
4896	81559	88.896674225019	1
4896	82170	89.506774225019	6
4896	82947	90.302489680519	5
4896	83052	90.406774225019	8
4896	83067	90.409061925854	7
4896	83447	90.72818075956	3
4896	84149	91.32818075956	5
4896	84833	91.933393418559	5
4896	85073	92.223753585695	5
4896	85430	92.539384806273	6
4896	85724	92.84707623906	2
4896	85793	92.929629353655	7
4896	86337	93.340457432819	4
4896	87245	94.240457432819	8
4896	88171	95.048763463305	7
4896	88207	95.065086222173	7
4896	88385	95.173008937766	1
4896	88482	95.241347859149	1
4896	88626	95.365825395324	2
4896	90389	96.783106855096	17
4896	91613	97.783106855096	11
4896	92031	98.186842956007	4
4896	92533	98.588171887676	3
4896	92702	98.741453226132	7
4896	92804	98.831647987063	4
4896	93695	99.546296779617	7
4896	95190	100.84884968523	13
4896	95485	101.154669360886	2
4896	96309	101.960265651249	7
4896	96603	102.270365651249	3
4896	97011	102.670365651249	3
4896	97873	103.446669454126	4
4896	98089	103.652419445225	1
4896	98985	104.274867371454	6
4896	99831	104.906096297119	5
4896	100178	105.206096297119	2
4896	100446	105.423018868755	2
4896	101519	106.323018868755	8
4896	102056	106.724792186877	3
4896	102378	107.025091002693	2
4896	102919	107.503332472769	3
4896	103063	107.611969260848	10
4896	103180	107.705019449092	1
4896	103363	107.821695892406	1
4896	104038	108.421695892406	5
4896	104087	108.428207680244	1
4896	104308	108.57989848676	0
4896	105521	109.59539916304	11
4896	106832	110.69539916304	11
4896	107486	111.145753060074	2
4896	107762	111.40247449494	6
4896	107849	111.452307869866	2
4896	108766	112.067439527736	7
4896	109768	112.867439527736	8
4896	110750	113.662187431702	5
4896	110772	113.672271984609	7
4896	111029	113.885182724502	2
4896	111769	114.485182724502	5
4896	112456	114.985273160478	4
4896	112698	115.18695733729	1
4896	112986	115.492632825232	2
4896	114287	116.612618981987	12
4896	114645	117.012618981987	4
4896	114915	117.222718981987	2
4896	116018	118.122718981987	11
4896	116385	118.430709059935	2
4896	117197	119.007933069844	5
4896	117281	119.033534805681	5
4896	117773	119.411603948219	3
4896	118236	119.8241515275	4
4896	119497	120.827951818336	1
4896	119852	121.1241515275	14
4896	120755	121.843505692028	8
4896	121844	122.843505692028	9
4896	122367	123.34753287269	4
4896	122962	123.948001283607	6
4896	123015	123.983682103233	1
4896	123358	124.310638737252	3
4896	123646	124.513931535551	1
4896	123751	124.592309834232	6
4896	124052	124.851049422134	10
4896	124160	124.923713744034	3
4896	124870	125.540746648065	7
4896	125339	125.940746648065	3
4896	125576	126.147500083437	1
4896	126251	126.759625608259	7
4896	127608	127.972572368205	6
4896	127951	128.272572368205	2
4896	128233	128.481636222415	1
4896	128491	128.693694222898	2
4896	128914	129.096294708615	3
4896	129058	129.247888178043	3
4896	129537	129.657988178043	4
4896	130013	130.057988178043	3
4896	130641	130.56795643859	5
4896	130775	130.67805643859	1
4896	131438	131.281169086255	1
4896	132440	132.181169086255	8
4896	132878	132.589217120102	3
4896	133486	133.154377866201	5
4896	135415	134.864477866201	19
4896	136002	135.364477866201	4
4896	136372	135.666326502777	2
4896	136384	135.675794805799	2
4896	137016	136.17499969608	4
4896	137710	136.78509969608	7
4896	138011	137.08509969608	2
4896	138129	137.227332785339	2
4896	138254	137.431854890456	2
4897	57	20.11	0.875
4897	202	20.31	0.875
4897	325	20.511743854067	0.875
4897	449	20.720311935021	0.875
4897	1060	21.430531167325	-0.25
4897	1363	21.730531167325	0.75
4897	1676	21.958404871138	0.875
4897	2135	22.276350193935	0.625
4897	3050	22.976350193935	0.25
4897	3285	23.180251373074	0.875
4897	4343	23.881352022311	0.125
4897	4408	23.916703014543	0.75
4897	4789	24.186080928612	0.75
4897	4987	24.320316375621	0.625
4897	5197	24.508026128661	0.625
4897	5316	24.626571723535	0.625
4897	5546	24.836671723535	0.75
4897	5749	25.036671723535	0.875
4897	6367	25.638631833149	0.375
4897	6962	26.055425865952	0.5
4897	7997	26.955425865952	-0.125
4897	8536	27.319598792433	-0.5
4897	8868	27.564804795015	0.25
4897	9473	28.079677915252	0.375
4897	9712	28.279677915252	0.875
4897	10028	28.595152679054	0.75
4897	10745	29.205848326257	0
4897	11178	29.605953904516	0.625
4897	11385	29.815918657543	0.875
4897	11644	30.119048418654	0.75
4897	12191	30.609582681032	0.5
4897	12326	30.719682681032	0.875
4897	12894	31.119682681032	0.625
4897	14109	32.120346062851	-0.25
4897	14314	32.260843188649	-0.25
4897	14507	32.429534321668	0.75
4897	14661	32.566522196601	0.75
4897	15158	33.129808109729	0.25
4897	15632	33.649421771483	0.375
4897	16112	34.081811766969	0.875
4897	16508	34.449421771483	0.125
4897	16904	34.768624548292	0.625
4897	17997	35.768624548292	-0.125
4897	18329	36.077184016836	0.75
4897	18788	36.522442655219	0.375
4897	19483	37.186880112389	-0.5
4897	19708	37.394473187167	0.875
4897	19770	37.425037451184	0
4897	20374	37.85148398422	0.375
4897	20717	38.158677473643	0.75
4897	21409	38.775550709415	0.25
4897	21745	39.075550709415	0.75
4897	22012	39.292527998679	0.75
4897	22580	39.773326663895	0.875
4897	22605	39.783426663895	1
4897	23707	40.583426663895	0.125
4897	23899	40.701673063408	0.875
4897	25041	41.601673063408	-0.25
4897	25666	42.111773063408	0.375
4897	26397	42.711773063408	0.125
4897	27984	43.915169416154	-0.625
4897	28636	44.427909807358	0.125
4897	29011	44.727909807358	0.75
4897	29483	45.236188078948	0.5
4897	29664	45.446008720415	0.875
4897	30365	46.066046085232	0.25
4897	31590	47.138483203649	0.25
4897	31927	47.438483203649	0.625
4897	32565	47.951100829338	0.5
4897	32848	48.165837914171	0.75
4897	33438	48.765837914171	0.375
4897	34616	49.868015430181	-0.25
4897	34669	49.883921979693	1
4897	35099	50.283921979693	0.5
4897	35709	50.889353549458	0.125
4897	36093	51.295641128223	0.625
4897	36646	51.811987351921	0.5
4897	36699	51.85878620275	0.5
4897	36842	51.969188864693	0.875
4897	37627	52.569188864693	0.375
4897	37849	52.770716528967	0.875
4897	38303	53.171406640682	0.625
4897	38350	53.200704349617	0.875
4897	38554	53.374030797736	0.875
4897	38845	53.593703613256	0.75
4897	39591	54.193703613256	0.25
4897	41033	55.247130118419	0.625
4897	41373	55.447130118419	0.875
4897	41969	55.856788239773	0.625
4897	42480	56.265345421825	0.625
4897	42941	56.653089465261	0.625
4897	43297	56.956644308559	0.75
4897	43840	57.365390184789	-0.25
4897	44153	57.582243532694	0.75
4897	45515	58.682243532694	-0.25
4897	45762	58.891776992133	0.875
4897	45986	59.099813723623	0.875
4897	46219	59.303917336823	0.875
4897	46715	59.789157503501	0.5
4897	46760	59.816405051685	0.5
4897	46938	59.993732660861	0.875
4897	47295	60.313129086851	0.625
4897	47805	60.813129086851	0.375
4897	48429	61.315238635959	0.5
4897	48818	61.646178381699	0
4897	48974	61.77419145591	0.375
4897	49104	61.858743657257	0.875
4897	49496	62.174913908944	0.625
4897	50003	62.574913908944	0.625
4897	50405	62.940646856931	0.375
4897	50460	63.00677292047	0.75
4897	51129	63.522260537202	0.375
4897	51770	64.022260537202	0.5
4897	52555	64.786633382644	0.75
4897	52828	64.993252500337	0.875
4897	52872	65.031576689892	-0.25
4897	53944	65.841733168168	0
4897	54394	66.341733168168	0.5
4897	54851	66.806781688165	0.625
4897	54941	66.850081571456	0.375
4897	55202	67.058076555879	0.875
4897	55267	67.11821341033	0.625
4897	55564	67.359228541402	0.75
4897	56181	67.877462887293	0.375
4897	56796	68.377462887293	0.5
4897	57122	68.679814876464	0.75
4897	57532	69.006923373012	0.75
4897	57634	69.08059566582	0.5
4897	58149	69.494342958206	0.625
4897	58559	69.807049489855	0.625
4897	60377	71.328862740853	0.625
4897	61628	72.328862740853	-0.125
4897	61794	72.44858418719	0.875
4897	62333	72.84858418719	0.5
4897	62738	73.154420601844	0.75
4897	63182	73.566016359866	0.625
4897	63889	74.183150567676	0.25
4897	64150	74.383150567676	0.875
4897	64416	74.592424347093	0.875
4897	65257	75.195145535722	0.25
4897	65553	75.421969723654	0.125
4897	65647	75.498629402633	0.75
4897	66558	76.218594163684	0.125
4897	67856	77.218594163684	-0.25
4897	68174	77.520544163491	0.75
4897	68970	78.231827471577	0.5
4897	69074	78.345949242424	-0.125
4897	69796	78.935362905454	0.25
4897	70137	79.155909044225	0
4897	70557	79.472915160725	0.625
4897	71396	80.231932984028	0.875
4897	72542	81.148783825522	-0.375
4897	73020	81.548783825522	0.625
4897	73527	81.963814253918	0.625
4897	74505	82.773914253918	0
4897	74754	82.973914253918	0.75
4897	75037	83.277317418757	0.75
4897	76159	84.09585832155	-0.375
4897	76387	84.29585832155	0.875
4897	76801	84.609167902864	0.75
4897	77588	85.519842355234	-0.125
4897	78786	86.519842355234	-0.375
4897	79040	86.649283807045	0.625
4897	79080	86.695597874421	0.375
4897	79103	86.709638598252	1
4897	79600	87.109638598252	0.625
4897	80662	88.113502354072	-0.125
4897	81212	88.639671677819	0.375
4897	81443	88.841026563085	0.75
4897	81559	88.896674225019	0.875
4897	82170	89.506774225019	0.25
4897	82947	90.302489680519	0.375
4897	83052	90.406774225019	0
4897	83067	90.409061925854	0.125
4897	83447	90.72818075956	0.625
4897	84149	91.32818075956	0.375
4897	84833	91.933393418559	0.375
4897	85073	92.223753585695	0.375
4897	85430	92.539384806273	0.25
4897	85724	92.84707623906	0.75
4897	85793	92.929629353655	0.125
4897	86337	93.340457432819	0.5
4897	87245	94.240457432819	0
4897	88171	95.048763463305	0.125
4897	88207	95.065086222173	0.125
4897	88385	95.173008937766	0.875
4897	88482	95.241347859149	0.875
4897	88626	95.365825395324	0.75
4897	90389	96.783106855096	-1.125
4897	91613	97.783106855096	-0.375
4897	92031	98.186842956007	0.5
4897	92533	98.588171887676	0.625
4897	92702	98.741453226132	0.125
4897	92804	98.831647987063	0.5
4897	93695	99.546296779617	0.125
4897	95190	100.84884968523	-0.625
4897	95485	101.154669360886	0.75
4897	96309	101.960265651249	0.125
4897	96603	102.270365651249	0.625
4897	97011	102.670365651249	0.625
4897	97873	103.446669454126	0.5
4897	98089	103.652419445225	0.875
4897	98985	104.274867371454	0.25
4897	99831	104.906096297119	0.375
4897	100178	105.206096297119	0.75
4897	100446	105.423018868755	0.75
4897	101519	106.323018868755	0
4897	102056	106.724792186877	0.625
4897	102378	107.025091002693	0.75
4897	102919	107.503332472769	0.625
4897	103063	107.611969260848	-0.25
4897	103180	107.705019449092	0.875
4897	103363	107.821695892406	0.875
4897	104038	108.421695892406	0.375
4897	104087	108.428207680244	0.875
4897	104308	108.57989848676	1
4897	105521	109.59539916304	-0.375
4897	106832	110.69539916304	-0.375
4897	107486	111.145753060074	0.75
4897	107762	111.40247449494	0.25
4897	107849	111.452307869866	0.75
4897	108766	112.067439527736	0.125
4897	109768	112.867439527736	0
4897	110750	113.662187431702	0.375
4897	110772	113.672271984609	0.125
4897	111029	113.885182724502	0.75
4897	111769	114.485182724502	0.375
4897	112456	114.985273160478	0.5
4897	112698	115.18695733729	0.875
4897	112986	115.492632825232	0.75
4897	114287	116.612618981987	-0.5
4897	114645	117.012618981987	0.5
4897	114915	117.222718981987	0.75
4897	116018	118.122718981987	-0.375
4897	116385	118.430709059935	0.75
4897	117197	119.007933069844	0.375
4897	117281	119.033534805681	0.375
4897	117773	119.411603948219	0.625
4897	118236	119.8241515275	0.5
4897	119497	120.827951818336	0.875
4897	119852	121.1241515275	-0.75
4897	120755	121.843505692028	0
4897	121844	122.843505692028	-0.125
4897	122367	123.34753287269	0.5
4897	122962	123.948001283607	0.25
4897	123015	123.983682103233	0.875
4897	123358	124.310638737252	0.625
4897	123646	124.513931535551	0.875
4897	123751	124.592309834232	0.25
4897	124052	124.851049422134	-0.25
4897	124160	124.923713744034	0.625
4897	124870	125.540746648065	0.125
4897	125339	125.940746648065	0.625
4897	125576	126.147500083437	0.875
4897	126251	126.759625608259	0.125
4897	127608	127.972572368205	0.25
4897	127951	128.272572368205	0.75
4897	128233	128.481636222415	0.875
4897	128491	128.693694222898	0.75
4897	128914	129.096294708615	0.625
4897	129058	129.247888178043	0.625
4897	129537	129.657988178043	0.5
4897	130013	130.057988178043	0.625
4897	130641	130.56795643859	0.375
4897	130775	130.67805643859	0.875
4897	131438	131.281169086255	0.875
4897	132440	132.181169086255	0
4897	132878	132.589217120102	0.625
4897	133486	133.154377866201	0.375
4897	135415	134.864477866201	-1.375
4897	136002	135.364477866201	0.5
4897	136372	135.666326502777	0.75
4897	136384	135.675794805799	0.75
4897	137016	136.17499969608	0.5
4897	137710	136.78509969608	0.125
4897	138011	137.08509969608	0.75
4897	138129	137.227332785339	0.75
4897	138254	137.431854890456	0.75
4898	57	20.11	0.1
4898	202	20.31	0.2
4898	325	20.511743854067	0.2
4898	449	20.720311935021	0.2
4898	1060	21.430531167325	0.7
4898	1363	21.730531167325	0.3
4898	1676	21.958404871138	0.2
4898	2135	22.276350193935	0.3
4898	3050	22.976350193935	0.7
4898	3285	23.180251373074	0.2
4898	4343	23.881352022311	0.7
4898	4408	23.916703014543	0.3
4898	4789	24.186080928612	0.3
4898	4987	24.320316375621	0.4
4898	5197	24.508026128661	0.4
4898	5316	24.626571723535	0.4
4898	5546	24.836671723535	0.2
4898	5749	25.036671723535	0.2
4898	6367	25.638631833149	0.6
4898	6962	26.055425865952	0.4
4898	7997	26.955425865952	0.9
4898	8536	27.319598792433	1
4898	8868	27.564804795015	0.6
4898	9473	28.079677915252	0.5
4898	9712	28.279677915252	0.2
4898	10028	28.595152679054	0.3
4898	10745	29.205848326257	0.6
4898	11178	29.605953904516	0.4
4898	11385	29.815918657543	0.2
4898	11644	30.119048418654	0.3
4898	12191	30.609582681032	0.5
4898	12326	30.719682681032	0.1
4898	12894	31.119682681032	0.4
4898	14109	32.120346062851	1
4898	14314	32.260843188649	1.1
4898	14507	32.429534321668	0.3
4898	14661	32.566522196601	0.3
4898	15158	33.129808109729	0.7
4898	15632	33.649421771483	0.5
4898	16112	34.081811766969	0.2
4898	16508	34.449421771483	0.8
4898	16904	34.768624548292	0.3
4898	17997	35.768624548292	1
4898	18329	36.077184016836	0.3
4898	18788	36.522442655219	0.5
4898	19483	37.186880112389	1.1
4898	19708	37.394473187167	0.2
4898	19770	37.425037451184	0.9
4898	20374	37.85148398422	0.4
4898	20717	38.158677473643	0.3
4898	21409	38.775550709415	0.6
4898	21745	39.075550709415	0.3
4898	22012	39.292527998679	0.2
4898	22580	39.773326663895	0.2
4898	22605	39.783426663895	0
4898	23707	40.583426663895	0.8
4898	23899	40.701673063408	0.1
4898	25041	41.601673063408	0.9
4898	25666	42.111773063408	0.5
4898	26397	42.711773063408	0.6
4898	27984	43.915169416154	1.2
4898	28636	44.427909807358	0.5
4898	29011	44.727909807358	0.3
4898	29483	45.236188078948	0.5
4898	29664	45.446008720415	0.2
4898	30365	46.066046085232	0.6
4898	31590	47.138483203649	0.5
4898	31927	47.438483203649	0.3
4898	32565	47.951100829338	0.5
4898	32848	48.165837914171	0.2
4898	33438	48.765837914171	0.6
4898	34616	49.868015430181	1.1
4898	34669	49.883921979693	0
4898	35099	50.283921979693	0.4
4898	35709	50.889353549458	0.6
4898	36093	51.295641128223	0.4
4898	36646	51.811987351921	0.5
4898	36699	51.85878620275	0.5
4898	36842	51.969188864693	0.1
4898	37627	52.569188864693	0.6
4898	37849	52.770716528967	0.2
4898	38303	53.171406640682	0.4
4898	38350	53.200704349617	0.2
4898	38554	53.374030797736	0.2
4898	38845	53.593703613256	0.2
4898	39591	54.193703613256	0.6
4898	41033	55.247130118419	0.3
4898	41373	55.447130118419	0.2
4898	41969	55.856788239773	0.4
4898	42480	56.265345421825	0.4
4898	42941	56.653089465261	0.4
4898	43297	56.956644308559	0.3
4898	43840	57.365390184789	1.1
4898	44153	57.582243532694	0.2
4898	45515	58.682243532694	1.1
4898	45762	58.891776992133	0.2
4898	45986	59.099813723623	0.2
4898	46219	59.303917336823	0.2
4898	46715	59.789157503501	0.5
4898	46760	59.816405051685	0.5
4898	46938	59.993732660861	0.2
4898	47295	60.313129086851	0.3
4898	47805	60.813129086851	0.5
4898	48429	61.315238635959	0.5
4898	48818	61.646178381699	0.7
4898	48974	61.77419145591	0.6
4898	49104	61.858743657257	0.2
4898	49496	62.174913908944	0.3
4898	50003	62.574913908944	0.4
4898	50405	62.940646856931	0.6
4898	50460	63.00677292047	0.3
4898	51129	63.522260537202	0.5
4898	51770	64.022260537202	0.5
4898	52555	64.786633382644	0.3
4898	52828	64.993252500337	0.2
4898	52872	65.031576689892	1
4898	53944	65.841733168168	0.8
4898	54394	66.341733168168	0.5
4898	54851	66.806781688165	0.4
4898	54941	66.850081571456	0.5
4898	55202	67.058076555879	0.2
4898	55267	67.11821341033	0.3
4898	55564	67.359228541402	0.3
4898	56181	67.877462887293	0.5
4898	56796	68.377462887293	0.5
4898	57122	68.679814876464	0.3
4898	57532	69.006923373012	0.3
4898	57634	69.08059566582	0.4
4898	58149	69.494342958206	0.4
4898	58559	69.807049489855	0.3
4898	60377	71.328862740853	0.3
4898	61628	72.328862740853	1
4898	61794	72.44858418719	0.1
4898	62333	72.84858418719	0.4
4898	62738	73.154420601844	0.3
4898	63182	73.566016359866	0.4
4898	63889	74.183150567676	0.6
4898	64150	74.383150567676	0.2
4898	64416	74.592424347093	0.2
4898	65257	75.195145535722	0.6
4898	65553	75.421969723654	0.7
4898	65647	75.498629402633	0.3
4898	66558	76.218594163684	0.7
4898	67856	77.218594163684	1
4898	68174	77.520544163491	0.3
4898	68970	78.231827471577	0.5
4898	69074	78.345949242424	0.8
4898	69796	78.935362905454	0.7
4898	70137	79.155909044225	0.8
4898	70557	79.472915160725	0.3
4898	71396	80.231932984028	0.2
4898	72542	81.148783825522	0.9
4898	73020	81.548783825522	0.4
4898	73527	81.963814253918	0.4
4898	74505	82.773914253918	0.8
4898	74754	82.973914253918	0.2
4898	75037	83.277317418757	0.3
4898	76159	84.09585832155	0.8
4898	76387	84.29585832155	0.2
4898	76801	84.609167902864	0.3
4898	77588	85.519842355234	0.9
4898	78786	86.519842355234	1
4898	79040	86.649283807045	0.4
4898	79080	86.695597874421	0.6
4898	79103	86.709638598252	0
4898	79600	87.109638598252	0.4
4898	80662	88.113502354072	1
4898	81212	88.639671677819	0.5
4898	81443	88.841026563085	0.2
4898	81559	88.896674225019	0.2
4898	82170	89.506774225019	0.6
4898	82947	90.302489680519	0.4
4898	83052	90.406774225019	0.9
4898	83067	90.409061925854	0.5
4898	83447	90.72818075956	0.3
4898	84149	91.32818075956	0.6
4898	84833	91.933393418559	0.6
4898	85073	92.223753585695	0.6
4898	85430	92.539384806273	0.6
4898	85724	92.84707623906	0.3
4898	85793	92.929629353655	0.7
4898	86337	93.340457432819	0.4
4898	87245	94.240457432819	0.9
4898	88171	95.048763463305	0.8
4898	88207	95.065086222173	0.8
4898	88385	95.173008937766	0.1
4898	88482	95.241347859149	0.1
4898	88626	95.365825395324	0.3
4898	90389	96.783106855096	1.4
4898	91613	97.783106855096	1
4898	92031	98.186842956007	0.4
4898	92533	98.588171887676	0.4
4898	92702	98.741453226132	0.8
4898	92804	98.831647987063	0.5
4898	93695	99.546296779617	0.7
4898	95190	100.84884968523	1.3
4898	95485	101.154669360886	0.3
4898	96309	101.960265651249	0.8
4898	96603	102.270365651249	0.3
4898	97011	102.670365651249	0.4
4898	97873	103.446669454126	0.5
4898	98089	103.652419445225	0.2
4898	98985	104.274867371454	0.6
4898	99831	104.906096297119	0.4
4898	100178	105.206096297119	0.3
4898	100446	105.423018868755	0.2
4898	101519	106.323018868755	0.9