version 2
run Stability-106-20130525-17:49:11-19193
attr configname Stability
attr datetime 20130525-17:49:11
attr experiment Stability
attr inifile omnetpp.ini
attr iterationvars $0=1e-4
attr iterationvars2 "$0=1e-4, $repetition=6"
attr measurement $0=1e-4
attr network Network
attr processid 19193
attr repetition 6
attr replication #6
attr resultdir results
attr runnumber 106
attr seedset 106

vector 10179  Network.dyn_peer[1]  lookupHopsSig:vector  ETV
vector 10180  Network.dyn_peer[1]  lookupStabilitySig:vector  ETV
vector 10181  Network.dyn_peer[1]  lookupTimeSig:vector  ETV
vector 10182  Network.dyn_peer[2]  lookupHopsSig:vector  ETV
vector 10183  Network.dyn_peer[2]  lookupStabilitySig:vector  ETV
vector 10184  Network.dyn_peer[2]  lookupTimeSig:vector  ETV
vector 10185  Network.dyn_peer[3]  lookupHopsSig:vector  ETV
vector 10186  Network.dyn_peer[3]  lookupStabilitySig:vector  ETV
vector 10187  Network.dyn_peer[3]  lookupTimeSig:vector  ETV
vector 10188  Network.dyn_peer[4]  lookupHopsSig:vector  ETV
vector 10189  Network.dyn_peer[4]  lookupStabilitySig:vector  ETV
vector 10190  Network.dyn_peer[4]  lookupTimeSig:vector  ETV
vector 10239  Network.dyn_peer[21]  lookupHopsSig:vector  ETV
vector 10240  Network.dyn_peer[21]  lookupStabilitySig:vector  ETV
vector 10241  Network.dyn_peer[21]  lookupTimeSig:vector  ETV
vector 10260  Network.dyn_peer[28]  lookupHopsSig:vector  ETV
vector 10261  Network.dyn_peer[28]  lookupStabilitySig:vector  ETV
vector 10262  Network.dyn_peer[28]  lookupTimeSig:vector  ETV
vector 10269  Network.dyn_peer[31]  lookupHopsSig:vector  ETV
vector 10270  Network.dyn_peer[31]  lookupStabilitySig:vector  ETV
vector 10271  Network.dyn_peer[31]  lookupTimeSig:vector  ETV
vector 10176  Network.dyn_peer[0]  lookupHopsSig:vector  ETV
vector 10177  Network.dyn_peer[0]  lookupStabilitySig:vector  ETV
vector 10178  Network.dyn_peer[0]  lookupTimeSig:vector  ETV
vector 10191  Network.dyn_peer[5]  lookupHopsSig:vector  ETV
vector 10192  Network.dyn_peer[5]  lookupStabilitySig:vector  ETV
vector 10193  Network.dyn_peer[5]  lookupTimeSig:vector  ETV
vector 10194  Network.dyn_peer[6]  lookupHopsSig:vector  ETV
vector 10195  Network.dyn_peer[6]  lookupStabilitySig:vector  ETV
vector 10196  Network.dyn_peer[6]  lookupTimeSig:vector  ETV
vector 10200  Network.dyn_peer[8]  lookupHopsSig:vector  ETV
vector 10201  Network.dyn_peer[8]  lookupStabilitySig:vector  ETV
vector 10202  Network.dyn_peer[8]  lookupTimeSig:vector  ETV
vector 10203  Network.dyn_peer[9]  lookupHopsSig:vector  ETV
vector 10204  Network.dyn_peer[9]  lookupStabilitySig:vector  ETV
vector 10205  Network.dyn_peer[9]  lookupTimeSig:vector  ETV
vector 10206  Network.dyn_peer[10]  lookupHopsSig:vector  ETV
vector 10207  Network.dyn_peer[10]  lookupStabilitySig:vector  ETV
vector 10208  Network.dyn_peer[10]  lookupTimeSig:vector  ETV
vector 10209  Network.dyn_peer[11]  lookupHopsSig:vector  ETV
vector 10210  Network.dyn_peer[11]  lookupStabilitySig:vector  ETV
vector 10211  Network.dyn_peer[11]  lookupTimeSig:vector  ETV
vector 10218  Network.dyn_peer[14]  lookupHopsSig:vector  ETV
vector 10219  Network.dyn_peer[14]  lookupStabilitySig:vector  ETV
vector 10220  Network.dyn_peer[14]  lookupTimeSig:vector  ETV
vector 10227  Network.dyn_peer[17]  lookupHopsSig:vector  ETV
vector 10228  Network.dyn_peer[17]  lookupStabilitySig:vector  ETV
vector 10229  Network.dyn_peer[17]  lookupTimeSig:vector  ETV
vector 10233  Network.dyn_peer[19]  lookupHopsSig:vector  ETV
vector 10234  Network.dyn_peer[19]  lookupStabilitySig:vector  ETV
vector 10235  Network.dyn_peer[19]  lookupTimeSig:vector  ETV
vector 10236  Network.dyn_peer[20]  lookupHopsSig:vector  ETV
vector 10237  Network.dyn_peer[20]  lookupStabilitySig:vector  ETV
vector 10238  Network.dyn_peer[20]  lookupTimeSig:vector  ETV
vector 10245  Network.dyn_peer[23]  lookupHopsSig:vector  ETV
vector 10246  Network.dyn_peer[23]  lookupStabilitySig:vector  ETV
vector 10247  Network.dyn_peer[23]  lookupTimeSig:vector  ETV
vector 10212  Network.dyn_peer[12]  lookupHopsSig:vector  ETV
vector 10213  Network.dyn_peer[12]  lookupStabilitySig:vector  ETV
vector 10214  Network.dyn_peer[12]  lookupTimeSig:vector  ETV
vector 10215  Network.dyn_peer[13]  lookupHopsSig:vector  ETV
vector 10216  Network.dyn_peer[13]  lookupStabilitySig:vector  ETV
vector 10217  Network.dyn_peer[13]  lookupTimeSig:vector  ETV
vector 10224  Network.dyn_peer[16]  lookupHopsSig:vector  ETV
vector 10225  Network.dyn_peer[16]  lookupStabilitySig:vector  ETV
vector 10226  Network.dyn_peer[16]  lookupTimeSig:vector  ETV
vector 10230  Network.dyn_peer[18]  lookupHopsSig:vector  ETV
vector 10231  Network.dyn_peer[18]  lookupStabilitySig:vector  ETV
vector 10232  Network.dyn_peer[18]  lookupTimeSig:vector  ETV
vector 10254  Network.dyn_peer[26]  lookupHopsSig:vector  ETV
vector 10255  Network.dyn_peer[26]  lookupStabilitySig:vector  ETV
vector 10256  Network.dyn_peer[26]  lookupTimeSig:vector  ETV
vector 10263  Network.dyn_peer[29]  lookupHopsSig:vector  ETV
vector 10264  Network.dyn_peer[29]  lookupStabilitySig:vector  ETV
vector 10265  Network.dyn_peer[29]  lookupTimeSig:vector  ETV
vector 10242  Network.dyn_peer[22]  lookupHopsSig:vector  ETV
vector 10243  Network.dyn_peer[22]  lookupStabilitySig:vector  ETV
vector 10244  Network.dyn_peer[22]  lookupTimeSig:vector  ETV
vector 10248  Network.dyn_peer[24]  lookupHopsSig:vector  ETV
vector 10249  Network.dyn_peer[24]  lookupStabilitySig:vector  ETV
vector 10250  Network.dyn_peer[24]  lookupTimeSig:vector  ETV
vector 10251  Network.dyn_peer[25]  lookupHopsSig:vector  ETV
vector 10252  Network.dyn_peer[25]  lookupStabilitySig:vector  ETV
vector 10253  Network.dyn_peer[25]  lookupTimeSig:vector  ETV
vector 10257  Network.dyn_peer[27]  lookupHopsSig:vector  ETV
vector 10258  Network.dyn_peer[27]  lookupStabilitySig:vector  ETV
vector 10259  Network.dyn_peer[27]  lookupTimeSig:vector  ETV
vector 10266  Network.dyn_peer[30]  lookupHopsSig:vector  ETV
vector 10267  Network.dyn_peer[30]  lookupStabilitySig:vector  ETV
vector 10268  Network.dyn_peer[30]  lookupTimeSig:vector  ETV
vector 10197  Network.dyn_peer[7]  lookupHopsSig:vector  ETV
vector 10198  Network.dyn_peer[7]  lookupStabilitySig:vector  ETV
vector 10199  Network.dyn_peer[7]  lookupTimeSig:vector  ETV
vector 10221  Network.dyn_peer[15]  lookupHopsSig:vector  ETV
vector 10222  Network.dyn_peer[15]  lookupStabilitySig:vector  ETV
vector 10223  Network.dyn_peer[15]  lookupTimeSig:vector  ETV
10176	154	20.1000001	1
10176	608	20.8000001	6
10176	817	21.102051687724	2
10176	928	21.203409728338	7
10176	1804	21.903734228444	8
10176	2165	22.203734228444	2
10176	2304	22.31284024225	1
10176	2709	22.71284024225	3
10176	2727	22.71294034225	0
10176	3091	23.01294034225	2
10176	3349	23.222472011296	1
10176	3651	23.430744521662	2
10176	3794	23.537700115306	1
10176	4102	23.837700115306	2
10176	4473	24.138845824337	2
10176	4812	24.450957136497	2
10176	5620	24.951057236497	5
10176	6229	25.451057236497	4
10176	7044	26.058022371988	6
10176	7479	26.362878830729	2
10176	8004	26.863060040935	4
10176	8820	27.570915662713	7
10176	9897	28.570915662713	9
10176	10106	28.778893686373	2
10176	10253	28.886523804315	1
10176	10772	29.403956505514	5
10176	10992	29.613919471334	1
10176	11285	29.901025207476	9
10176	11731	30.279384960872	2
10176	12119	30.581300278363	3
10176	12983	31.281300278363	6
10176	13341	31.591222653099	2
10176	14672	32.696370543473	10
10176	15224	33.103405656864	3
10176	15533	33.403736278713	2
10176	15833	33.704882631905	2
10176	16133	33.928436153322	20
10176	16760	34.434170039382	4
10176	17890	35.239987376959	9
10176	18387	35.639987376959	3
10176	18683	35.84829459414	2
10176	19134	36.14829459414	3
10176	19849	36.805667668346	2
10176	19914	36.85528850223	6
10176	20131	37.109075983609	3
10176	20265	37.248236131119	5
10176	20387	37.365018570379	4
10176	20721	37.66647679787	3
10176	21109	37.96647679787	3
10176	21515	38.272870389477	2
10176	21786	38.473038723768	2
10176	22240	38.773038723768	2
10176	23052	39.576162452524	7
10176	23148	39.684708901557	7
10176	23413	39.97897377149	3
10176	23425	39.992005291696	2
10176	23491	40.031016807217	2
10176	23713	40.235783698784	2
10176	24006	40.535783698784	2
10176	24447	40.940452474866	3
10176	24550	41.036636431671	4
10176	25405	41.738981183628	8
10176	25623	41.938981183628	1
10176	25871	42.145178546382	1
10176	26194	42.449387084639	2
10176	26513	42.768433117136	1
10176	26570	42.850947477887	3
10176	26784	43.052541657515	1
10176	26849	43.077695035772	2
10176	27046	43.261692701416	1
10176	27848	43.869350792441	6
10176	28132	44.069350792441	1
10176	28428	44.274067983661	1
10176	29257	44.974168083661	8
10176	29818	45.474168083661	4
10176	31259	46.58321687634	12
10176	32082	47.28321687634	7
10176	33123	48.147379003812	4
10176	33169	48.187982361217	8
10176	33729	48.593507271541	4
10176	34310	49.093507271541	5
10176	34524	49.297597027003	1
10176	34829	49.60164453812	3
10176	35639	50.302580452513	7
10176	35794	50.437068946278	5
10176	37988	52.237247775012	19
10176	38400	52.537247775012	3
10176	39258	53.243246783876	7
10176	39812	53.646081136894	3
10176	40432	54.153374319139	5
10176	41469	55.153374319139	9
10176	42076	55.656547271476	4
10176	42154	55.710016718128	4
10176	42773	56.367182749069	3
10176	42788	56.367282849069	0
10176	43016	56.567282849069	1
10176	43313	56.781051801619	1
10176	43694	57.10328395625	3
10176	43721	57.108750593583	0
10176	44949	58.208750593583	11
10176	45503	58.696340334381	5
10176	46167	59.19736079293	5
10176	46809	59.79736079293	6
10176	47108	60.102628456718	2
10176	47232	60.207104170611	0
10176	47514	60.512528292902	2
10176	47593	60.602288453077	2
10176	47733	60.707309326825	1
10176	48014	61.007309326825	2
10176	48370	61.311895903732	2
10176	48513	61.433345520085	2
10176	48744	61.633445620085	2
10176	49173	62.033445620085	3
10176	50032	62.836153024595	9
10176	50989	63.636253124595	9
10176	51575	64.136253124595	4
10176	51946	64.448948599092	2
10176	52216	64.653486270295	1
10176	52622	65.010030353641	3
10176	53025	65.315691949407	2
10176	53050	65.354682132478	2
10176	53057	65.357705768542	6
10176	53068	65.364300945375	6
10176	54586	66.569184932334	13
10176	55011	66.969184932334	4
10176	55342	67.274985170343	2
10176	55616	67.555239571894	2
10176	55754	67.680412431833	3
10176	55859	67.786252717897	1
10176	56065	67.986252717897	1
10176	56428	68.298921545901	2
10176	56725	68.605305055056	2
10176	57978	69.808619301827	12
10176	58259	70.108619301827	2
10176	59037	70.716821632953	6
10176	59311	70.917147412143	1
10176	59422	71.01312180292	1
10176	60174	71.618333823712	5
10176	60180	71.618612768618	5
10176	60310	71.718555302805	7
10176	60533	71.922682128505	1
10176	61367	72.52699457389	6
10176	62012	73.02699457389	5
10176	62369	73.32709467389	3
10176	62946	73.784394776991	2
10176	63178	73.989863673646	1
10176	64027	74.697878897298	8
10176	64236	74.897878897298	2
10176	65790	76.402619074313	15
10176	66561	77.111140440072	7
10176	67536	77.911140440072	7
10176	67984	78.21296311663	2
10176	68593	78.77572203359	1
10176	68728	78.885782668514	1
10176	69242	79.385782668514	5
10176	70242	80.189829054416	7
10176	70871	80.799170803778	5
10176	71066	81.002311094092	1
10176	71181	81.124797103717	4
10176	72180	82.026978832431	9
10176	72405	82.226978832431	1
10176	72802	82.536688640738	2
10176	73327	82.940254390406	3
10176	73978	83.340564647093	4
10176	74726	83.940564647093	5
10176	75492	84.647158633961	6
10176	76554	85.527025330923	3
10176	76797	85.727125430923	2
10176	77856	86.627125430923	8
10176	78274	87.027381616342	3
10176	78454	87.200413038754	3
10176	79117	87.800513138754	6
10176	80202	88.800513138754	9
10176	81328	89.704909666635	2
10176	81809	90.11353147154	3
10176	81919	90.14652650736	2
10176	82078	90.301257628983	16
10176	83114	91.20174014693	9
10176	83530	91.50174014693	2
10176	84184	92.013157726433	5
10176	84654	92.434103827696	3
10176	84862	92.634203927696	2
10176	85820	93.434203927696	9
10176	86096	93.642841485189	1
10176	86258	93.750526099804	1
10176	86558	94.050526099804	2
10176	87313	94.659541342649	5
10176	87414	94.750854471021	7
10176	87763	95.067856418962	3
10176	88055	95.267956518962	2
10176	89095	96.099099897887	5
10176	89167	96.171028299692	9
10176	90599	97.2819132613	9
10176	91017	97.5819132613	2
10176	91568	98.090055461095	5
10176	92423	98.898979480487	7
10176	93254	99.624156583599	2
10176	93380	99.728920951566	1
10176	94012	100.328920951566	5
10176	94340	100.630633503791	2
10176	95023	101.139280678554	5
10176	95056	101.16393001547	5
10176	95612	101.566496707239	3
10176	96029	101.875195283007	3
10176	96488	102.275195283007	3
10176	98050	103.48283919667	13
10176	98345	103.69494041072	1
10176	98905	104.104555762356	4
10176	98954	104.168748569653	10
10176	99600	104.680703871922	6
10176	100838	105.65180539336	4
10176	101565	106.25180539336	5
10176	101859	106.493514573076	2
10176	102067	106.700338663213	2
10176	102436	107.000338663213	2
10176	102762	107.305064603254	2
10176	103260	107.715990818817	4
10176	104016	108.422157460172	7
10176	104240	108.622157460172	1
10176	104735	109.029800492795	4
10176	105054	109.331305487775	3
10176	105193	109.43873855704	1
10176	105824	110.03873855704	5
10176	106204	110.248377218286	1
10176	106380	110.364352685371	1
10176	107531	111.353724472112	11
10176	107866	111.663299623816	3
10176	108210	111.963299623816	2
10176	108967	112.56956139597	5
10176	109218	112.705261033894	4
10176	109386	112.874909173749	2
10176	109420	112.899978738253	2
10176	109771	113.199983161152	2
10176	109845	113.213600270747	2
10176	110080	113.406099338537	7
10176	110579	113.815541477955	4
10176	111202	114.311237148557	2
10176	111764	114.811237148557	6
10176	112151	115.112443628968	2
10176	113053	115.821933314847	9
10176	113168	115.920323605348	6
10176	113631	116.314114285959	12
10176	113742	116.357163051548	3
10176	113895	116.517681056343	1
10176	114601	117.02038961322	6
10176	115316	117.62038961322	5
10176	115854	118.021053396665	4
10176	116281	118.428899290281	3
10176	117223	119.133696153138	7
10176	117718	119.533696153138	3
10176	118249	119.934355817638	4
10176	119072	120.634355817638	7
10176	119710	121.134848982811	5
10176	120107	121.429204511184	3
10176	120253	121.542912311696	3
10176	120655	121.854991963439	3
10176	121104	122.238992750274	8
10176	121128	122.264353899901	3
10176	121792	122.868964522779	6
10176	122236	123.268964522779	3
10176	122778	123.670732043094	4
10176	123206	124.019045785342	6
10176	123646	124.3747322282	7
10176	123736	124.421971593396	3
10176	123954	124.597021801331	1
10176	123961	124.597315457551	4
10176	124247	124.798743980546	1
10176	124265	124.801599251249	1
10176	124749	125.201699351249	4
10176	125500	125.78043822338	4
10176	125981	126.18043822338	3
10176	126957	127.020315370088	1
10176	127758	127.631429846073	3
10176	128648	128.331529946073	8
10176	129258	128.805892577489	2
10176	129274	128.814488940724	2
10176	129392	128.931529946073	6
10176	129595	129.117184067231	3
10176	129877	129.321246012122	3
10176	130836	130.100480965411	4
10176	131275	130.500480965411	3
10176	131993	131.106495588813	6
10176	132211	131.310921034114	1
10176	133016	131.916166305594	6
10176	133305	132.116166305594	2
10176	133799	132.520876542798	3
10176	134564	133.130277359537	5
10176	135033	133.538850877403	3
10176	135755	134.139853049581	6
10176	136251	134.545357419915	3
10177	154	20.1000001	0.875
10177	608	20.8000001	0.25
10177	817	21.102051687724	0.75
10177	928	21.203409728338	0.125
10177	1804	21.903734228444	0
10177	2165	22.203734228444	0.75
10177	2304	22.31284024225	0.875
10177	2709	22.71284024225	0.625
10177	2727	22.71294034225	1
10177	3091	23.01294034225	0.75
10177	3349	23.222472011296	0.875
10177	3651	23.430744521662	0.75
10177	3794	23.537700115306	0.875
10177	4102	23.837700115306	0.75
10177	4473	24.138845824337	0.75
10177	4812	24.450957136497	0.75
10177	5620	24.951057236497	0.375
10177	6229	25.451057236497	0.5
10177	7044	26.058022371988	0.25
10177	7479	26.362878830729	0.75
10177	8004	26.863060040935	0.5
10177	8820	27.570915662713	0.125
10177	9897	28.570915662713	-0.125
10177	10106	28.778893686373	0.75
10177	10253	28.886523804315	0.875
10177	10772	29.403956505514	0.375
10177	10992	29.613919471334	0.875
10177	11285	29.901025207476	-0.125
10177	11731	30.279384960872	0.75
10177	12119	30.581300278363	0.625
10177	12983	31.281300278363	0.25
10177	13341	31.591222653099	0.75
10177	14672	32.696370543473	-0.25
10177	15224	33.103405656864	0.625
10177	15533	33.403736278713	0.75
10177	15833	33.704882631905	0.75
10177	16133	33.928436153322	-1.5
10177	16760	34.434170039382	0.5
10177	17890	35.239987376959	-0.125
10177	18387	35.639987376959	0.625
10177	18683	35.84829459414	0.75
10177	19134	36.14829459414	0.625
10177	19849	36.805667668346	0.75
10177	19914	36.85528850223	0.25
10177	20131	37.109075983609	0.625
10177	20265	37.248236131119	0.375
10177	20387	37.365018570379	0.5
10177	20721	37.66647679787	0.625
10177	21109	37.96647679787	0.625
10177	21515	38.272870389477	0.75
10177	21786	38.473038723768	0.75
10177	22240	38.773038723768	0.75
10177	23052	39.576162452524	0.125
10177	23148	39.684708901557	0.125
10177	23413	39.97897377149	0.625
10177	23425	39.992005291696	0.75
10177	23491	40.031016807217	0.75
10177	23713	40.235783698784	0.75
10177	24006	40.535783698784	0.75
10177	24447	40.940452474866	0.625
10177	24550	41.036636431671	0.5
10177	25405	41.738981183628	0
10177	25623	41.938981183628	0.875
10177	25871	42.145178546382	0.875
10177	26194	42.449387084639	0.75
10177	26513	42.768433117136	0.875
10177	26570	42.850947477887	0.625
10177	26784	43.052541657515	0.875
10177	26849	43.077695035772	0.75
10177	27046	43.261692701416	0.875
10177	27848	43.869350792441	0.25
10177	28132	44.069350792441	0.875
10177	28428	44.274067983661	0.875
10177	29257	44.974168083661	0
10177	29818	45.474168083661	0.5
10177	31259	46.58321687634	-0.5
10177	32082	47.28321687634	0.125
10177	33123	48.147379003812	0.5
10177	33169	48.187982361217	0
10177	33729	48.593507271541	0.5
10177	34310	49.093507271541	0.375
10177	34524	49.297597027003	0.875
10177	34829	49.60164453812	0.625
10177	35639	50.302580452513	0.125
10177	35794	50.437068946278	0.375
10177	37988	52.237247775012	-1.375
10177	38400	52.537247775012	0.625
10177	39258	53.243246783876	0.125
10177	39812	53.646081136894	0.625
10177	40432	54.153374319139	0.375
10177	41469	55.153374319139	-0.125
10177	42076	55.656547271476	0.5
10177	42154	55.710016718128	0.5
10177	42773	56.367182749069	0.625
10177	42788	56.367282849069	1
10177	43016	56.567282849069	0.875
10177	43313	56.781051801619	0.875
10177	43694	57.10328395625	0.625
10177	43721	57.108750593583	1
10177	44949	58.208750593583	-0.375
10177	45503	58.696340334381	0.375
10177	46167	59.19736079293	0.375
10177	46809	59.79736079293	0.25
10177	47108	60.102628456718	0.75
10177	47232	60.207104170611	1
10177	47514	60.512528292902	0.75
10177	47593	60.602288453077	0.75
10177	47733	60.707309326825	0.875
10177	48014	61.007309326825	0.75
10177	48370	61.311895903732	0.75
10177	48513	61.433345520085	0.75
10177	48744	61.633445620085	0.75
10177	49173	62.033445620085	0.625
10177	50032	62.836153024595	-0.125
10177	50989	63.636253124595	-0.125
10177	51575	64.136253124595	0.5
10177	51946	64.448948599092	0.75
10177	52216	64.653486270295	0.875
10177	52622	65.010030353641	0.625
10177	53025	65.315691949407	0.75
10177	53050	65.354682132478	0.75
10177	53057	65.357705768542	0.25
10177	53068	65.364300945375	0.25
10177	54586	66.569184932334	-0.625
10177	55011	66.969184932334	0.5
10177	55342	67.274985170343	0.75
10177	55616	67.555239571894	0.75
10177	55754	67.680412431833	0.625
10177	55859	67.786252717897	0.875
10177	56065	67.986252717897	0.875
10177	56428	68.298921545901	0.75
10177	56725	68.605305055056	0.75
10177	57978	69.808619301827	-0.5
10177	58259	70.108619301827	0.75
10177	59037	70.716821632953	0.25
10177	59311	70.917147412143	0.875
10177	59422	71.01312180292	0.875
10177	60174	71.618333823712	0.375
10177	60180	71.618612768618	0.375
10177	60310	71.718555302805	0.125
10177	60533	71.922682128505	0.875
10177	61367	72.52699457389	0.25
10177	62012	73.02699457389	0.375
10177	62369	73.32709467389	0.625
10177	62946	73.784394776991	0.75
10177	63178	73.989863673646	0.875
10177	64027	74.697878897298	0
10177	64236	74.897878897298	0.75
10177	65790	76.402619074313	-0.875
10177	66561	77.111140440072	0.125
10177	67536	77.911140440072	0.125
10177	67984	78.21296311663	0.75
10177	68593	78.77572203359	0.875
10177	68728	78.885782668514	0.875
10177	69242	79.385782668514	0.375
10177	70242	80.189829054416	0.125
10177	70871	80.799170803778	0.375
10177	71066	81.002311094092	0.875
10177	71181	81.124797103717	0.5
10177	72180	82.026978832431	-0.125
10177	72405	82.226978832431	0.875
10177	72802	82.536688640738	0.75
10177	73327	82.940254390406	0.625
10177	73978	83.340564647093	0.5
10177	74726	83.940564647093	0.375
10177	75492	84.647158633961	0.25
10177	76554	85.527025330923	0.625
10177	76797	85.727125430923	0.75
10177	77856	86.627125430923	0
10177	78274	87.027381616342	0.625
10177	78454	87.200413038754	0.625
10177	79117	87.800513138754	0.25
10177	80202	88.800513138754	-0.125
10177	81328	89.704909666635	0.75
10177	81809	90.11353147154	0.625
10177	81919	90.14652650736	0.75
10177	82078	90.301257628983	-1
10177	83114	91.20174014693	-0.125
10177	83530	91.50174014693	0.75
10177	84184	92.013157726433	0.375
10177	84654	92.434103827696	0.625
10177	84862	92.634203927696	0.75
10177	85820	93.434203927696	-0.125
10177	86096	93.642841485189	0.875
10177	86258	93.750526099804	0.875
10177	86558	94.050526099804	0.75
10177	87313	94.659541342649	0.375
10177	87414	94.750854471021	0.125
10177	87763	95.067856418962	0.625
10177	88055	95.267956518962	0.75
10177	89095	96.099099897887	0.375
10177	89167	96.171028299692	-0.125
10177	90599	97.2819132613	-0.125
10177	91017	97.5819132613	0.75
10177	91568	98.090055461095	0.375
10177	92423	98.898979480487	0.125
10177	93254	99.624156583599	0.75
10177	93380	99.728920951566	0.875
10177	94012	100.328920951566	0.375
10177	94340	100.630633503791	0.75
10177	95023	101.139280678554	0.375
10177	95056	101.16393001547	0.375
10177	95612	101.566496707239	0.625
10177	96029	101.875195283007	0.625
10177	96488	102.275195283007	0.625
10177	98050	103.48283919667	-0.625
10177	98345	103.69494041072	0.875
10177	98905	104.104555762356	0.5
10177	98954	104.168748569653	-0.25
10177	99600	104.680703871922	0.25
10177	100838	105.65180539336	0.5
10177	101565	106.25180539336	0.375
10177	101859	106.493514573076	0.75
10177	102067	106.700338663213	0.75
10177	102436	107.000338663213	0.75
10177	102762	107.305064603254	0.75
10177	103260	107.715990818817	0.5
10177	104016	108.422157460172	0.125
10177	104240	108.622157460172	0.875
10177	104735	109.029800492795	0.5
10177	105054	109.331305487775	0.625
10177	105193	109.43873855704	0.875
10177	105824	110.03873855704	0.375
10177	106204	110.248377218286	0.875
10177	106380	110.364352685371	0.875
10177	107531	111.353724472112	-0.375
10177	107866	111.663299623816	0.625
10177	108210	111.963299623816	0.75
10177	108967	112.56956139597	0.375
10177	109218	112.705261033894	0.5
10177	109386	112.874909173749	0.75
10177	109420	112.899978738253	0.75
10177	109771	113.199983161152	0.75
10177	109845	113.213600270747	0.75
10177	110080	113.406099338537	0.125
10177	110579	113.815541477955	0.5
10177	111202	114.311237148557	0.75
10177	111764	114.811237148557	0.25
10177	112151	115.112443628968	0.75
10177	113053	115.821933314847	-0.125
10177	113168	115.920323605348	0.25
10177	113631	116.314114285959	-0.5
10177	113742	116.357163051548	0.625
10177	113895	116.517681056343	0.875
10177	114601	117.02038961322	0.33333331346512
10177	115316	117.62038961322	0.375
10177	115854	118.021053396665	0.5
10177	116281	118.428899290281	0.625
10177	117223	119.133696153138	0.125
10177	117718	119.533696153138	0.625
10177	118249	119.934355817638	0.5
10177	119072	120.634355817638	0.125
10177	119710	121.134848982811	0.375
10177	120107	121.429204511184	0.625
10177	120253	121.542912311696	0.625
10177	120655	121.854991963439	0.625
10177	121104	122.238992750274	0
10177	121128	122.264353899901	0.625
10177	121792	122.868964522779	0.25
10177	122236	123.268964522779	0.625
10177	122778	123.670732043094	0.5
10177	123206	124.019045785342	0.25
10177	123646	124.3747322282	0.125
10177	123736	124.421971593396	0.625
10177	123954	124.597021801331	0.875
10177	123961	124.597315457551	0.5
10177	124247	124.798743980546	0.875
10177	124265	124.801599251249	0.875
10177	124749	125.201699351249	0.5
10177	125500	125.78043822338	0.5
10177	125981	126.18043822338	0.625
10177	126957	127.020315370088	0.875
10177	127758	127.631429846073	0.625
10177	128648	128.331529946073	0
10177	129258	128.805892577489	0.75
10177	129274	128.814488940724	0.75
10177	129392	128.931529946073	0.25
10177	129595	129.117184067231	0.625
10177	129877	129.321246012122	0.625
10177	130836	130.100480965411	0.5
10177	131275	130.500480965411	0.625
10177	131993	131.106495588813	0.25
10177	132211	131.310921034114	0.875
10177	133016	131.916166305594	0.25
10177	133305	132.116166305594	0.75
10177	133799	132.520876542798	0.625
10177	134564	133.130277359537	0.375
10177	135033	133.538850877403	0.625
10177	135755	134.139853049581	0.25
10177	136251	134.545357419915	0.625
10178	154	20.1000001	0.1
10178	608	20.8000001	0.7
10178	817	21.102051687724	0.3
10178	928	21.203409728338	0.8
10178	1804	21.903734228444	0.7
10178	2165	22.203734228444	0.3
10178	2304	22.31284024225	0.1
10178	2709	22.71284024225	0.4
10178	2727	22.71294034225	0
10178	3091	23.01294034225	0.3
10178	3349	23.222472011296	0.2
10178	3651	23.430744521662	0.2
10178	3794	23.537700115306	0.1
10178	4102	23.837700115306	0.3
10178	4473	24.138845824337	0.3
10178	4812	24.450957136497	0.3
10178	5620	24.951057236497	0.5
10178	6229	25.451057236497	0.5
10178	7044	26.058022371988	0.6
10178	7479	26.362878830729	0.3
10178	8004	26.863060040935	0.5
10178	8820	27.570915662713	0.7
10178	9897	28.570915662713	1
10178	10106	28.778893686373	0.2
10178	10253	28.886523804315	0.2
10178	10772	29.403956505514	0.6
10178	10992	29.613919471334	0.2
10178	11285	29.901025207476	1
10178	11731	30.279384960872	0.3
10178	12119	30.581300278363	0.3
10178	12983	31.281300278363	0.7
10178	13341	31.591222653099	0.3
10178	14672	32.696370543473	1.1
10178	15224	33.103405656864	0.4
10178	15533	33.403736278713	0.3
10178	15833	33.704882631905	0.3
10178	16133	33.928436153322	1.9
10178	16760	34.434170039382	0.5
10178	17890	35.239987376959	0.8
10178	18387	35.639987376959	0.4
10178	18683	35.84829459414	0.2
10178	19134	36.14829459414	0.3
10178	19849	36.805667668346	0.2
10178	19914	36.85528850223	0.7
10178	20131	37.109075983609	0.3
10178	20265	37.248236131119	0.6
10178	20387	37.365018570379	0.5
10178	20721	37.66647679787	0.3
10178	21109	37.96647679787	0.3
10178	21515	38.272870389477	0.3
10178	21786	38.473038723768	0.2
10178	22240	38.773038723768	0.3
10178	23052	39.576162452524	0.8
10178	23148	39.684708901557	0.8
10178	23413	39.97897377149	0.4
10178	23425	39.992005291696	0.3
10178	23491	40.031016807217	0.3
10178	23713	40.235783698784	0.2
10178	24006	40.535783698784	0.3
10178	24447	40.940452474866	0.4
10178	24550	41.036636431671	0.4
10178	25405	41.738981183628	0.7
10178	25623	41.938981183628	0.2
10178	25871	42.145178546382	0.2
10178	26194	42.449387084639	0.3
10178	26513	42.768433117136	0.2
10178	26570	42.850947477887	0.4
10178	26784	43.052541657515	0.2
10178	26849	43.077695035772	0.3
10178	27046	43.261692701416	0.2
10178	27848	43.869350792441	0.6
10178	28132	44.069350792441	0.2
10178	28428	44.274067983661	0.2
10178	29257	44.974168083661	0.7
10178	29818	45.474168083661	0.5
10178	31259	46.58321687634	1.1
10178	32082	47.28321687634	0.7
10178	33123	48.147379003812	0.5
10178	33169	48.187982361217	0.9
10178	33729	48.593507271541	0.4
10178	34310	49.093507271541	0.5
10178	34524	49.297597027003	0.2
10178	34829	49.60164453812	0.3
10178	35639	50.302580452513	0.7
10178	35794	50.437068946278	0.6
10178	37988	52.237247775012	1.8
10178	38400	52.537247775012	0.3
10178	39258	53.243246783876	0.7
10178	39812	53.646081136894	0.4
10178	40432	54.153374319139	0.5
10178	41469	55.153374319139	1
10178	42076	55.656547271476	0.5
10178	42154	55.710016718128	0.5
10178	42773	56.367182749069	0.4
10178	42788	56.367282849069	0
10178	43016	56.567282849069	0.2
10178	43313	56.781051801619	0.2
10178	43694	57.10328395625	0.4
10178	43721	57.108750593583	0
10178	44949	58.208750593583	1.1
10178	45503	58.696340334381	0.6
10178	46167	59.19736079293	0.5
10178	46809	59.79736079293	0.6
10178	47108	60.102628456718	0.3
10178	47232	60.207104170611	0.1
10178	47514	60.512528292902	0.3
10178	47593	60.602288453077	0.3
10178	47733	60.707309326825	0.1
10178	48014	61.007309326825	0.3
10178	48370	61.311895903732	0.3
10178	48513	61.433345520085	0.3
10178	48744	61.633445620085	0.2
10178	49173	62.033445620085	0.4
10178	50032	62.836153024595	0.8
10178	50989	63.636253124595	0.8
10178	51575	64.136253124595	0.5
10178	51946	64.448948599092	0.3
10178	52216	64.653486270295	0.2
10178	52622	65.010030353641	0.4
10178	53025	65.315691949407	0.3
10178	53050	65.354682132478	0.3
10178	53057	65.357705768542	0.7
10178	53068	65.364300945375	0.7
10178	54586	66.569184932334	1.2
10178	55011	66.969184932334	0.4
10178	55342	67.274985170343	0.3
10178	55616	67.555239571894	0.3
10178	55754	67.680412431833	0.4
10178	55859	67.786252717897	0.1
10178	56065	67.986252717897	0.2
10178	56428	68.298921545901	0.3
10178	56725	68.605305055056	0.3
10178	57978	69.808619301827	1.2
10178	58259	70.108619301827	0.3
10178	59037	70.716821632953	0.6
10178	59311	70.917147412143	0.2
10178	59422	71.01312180292	0.2
10178	60174	71.618333823712	0.6
10178	60180	71.618612768618	0.6
10178	60310	71.718555302805	0.8
10178	60533	71.922682128505	0.2
10178	61367	72.52699457389	0.6
10178	62012	73.02699457389	0.5
10178	62369	73.32709467389	0.3
10178	62946	73.784394776991	0.3
10178	63178	73.989863673646	0.2
10178	64027	74.697878897298	0.7
10178	64236	74.897878897298	0.2
10178	65790	76.402619074313	1.5
10178	66561	77.111140440072	0.7
10178	67536	77.911140440072	0.8
10178	67984	78.21296311663	0.3
10178	68593	78.77572203359	0.2
10178	68728	78.885782668514	0.1
10178	69242	79.385782668514	0.5
10178	70242	80.189829054416	0.8