file 902565 1369496740                                          
version 2
run Stability-54-20130525-17:45:35-19193
attr configname Stability
attr datetime 20130525-17:45:35
attr experiment Stability
attr inifile omnetpp.ini
attr iterationvars $0=1e1
attr iterationvars2 "$0=1e1, $repetition=4"
attr measurement $0=1e1
attr network Network
attr processid 19193
attr repetition 4
attr replication #4
attr resultdir results
attr runnumber 54
attr seedset 54

vector 5187  Network.dyn_peer[1]  lookupHopsSig:vector  ETV
vector 5188  Network.dyn_peer[1]  lookupStabilitySig:vector  ETV
vector 5189  Network.dyn_peer[1]  lookupTimeSig:vector  ETV
vector 5190  Network.dyn_peer[2]  lookupHopsSig:vector  ETV
vector 5191  Network.dyn_peer[2]  lookupStabilitySig:vector  ETV
vector 5192  Network.dyn_peer[2]  lookupTimeSig:vector  ETV
vector 5193  Network.dyn_peer[3]  lookupHopsSig:vector  ETV
vector 5194  Network.dyn_peer[3]  lookupStabilitySig:vector  ETV
vector 5195  Network.dyn_peer[3]  lookupTimeSig:vector  ETV
vector 5226  Network.dyn_peer[14]  lookupHopsSig:vector  ETV
vector 5227  Network.dyn_peer[14]  lookupStabilitySig:vector  ETV
vector 5228  Network.dyn_peer[14]  lookupTimeSig:vector  ETV
vector 5232  Network.dyn_peer[16]  lookupHopsSig:vector  ETV
vector 5233  Network.dyn_peer[16]  lookupStabilitySig:vector  ETV
vector 5234  Network.dyn_peer[16]  lookupTimeSig:vector  ETV
vector 5241  Network.dyn_peer[19]  lookupHopsSig:vector  ETV
vector 5242  Network.dyn_peer[19]  lookupStabilitySig:vector  ETV
vector 5243  Network.dyn_peer[19]  lookupTimeSig:vector  ETV
vector 5184  Network.dyn_peer[0]  lookupHopsSig:vector  ETV
vector 5185  Network.dyn_peer[0]  lookupStabilitySig:vector  ETV
vector 5186  Network.dyn_peer[0]  lookupTimeSig:vector  ETV
vector 5214  Network.dyn_peer[10]  lookupHopsSig:vector  ETV
vector 5215  Network.dyn_peer[10]  lookupStabilitySig:vector  ETV
vector 5216  Network.dyn_peer[10]  lookupTimeSig:vector  ETV
vector 5223  Network.dyn_peer[13]  lookupHopsSig:vector  ETV
vector 5224  Network.dyn_peer[13]  lookupStabilitySig:vector  ETV
vector 5225  Network.dyn_peer[13]  lookupTimeSig:vector  ETV
vector 5196  Network.dyn_peer[4]  lookupHopsSig:vector  ETV
vector 5197  Network.dyn_peer[4]  lookupStabilitySig:vector  ETV
vector 5198  Network.dyn_peer[4]  lookupTimeSig:vector  ETV
vector 5199  Network.dyn_peer[5]  lookupHopsSig:vector  ETV
vector 5200  Network.dyn_peer[5]  lookupStabilitySig:vector  ETV
vector 5201  Network.dyn_peer[5]  lookupTimeSig:vector  ETV
vector 5229  Network.dyn_peer[15]  lookupHopsSig:vector  ETV
vector 5230  Network.dyn_peer[15]  lookupStabilitySig:vector  ETV
vector 5231  Network.dyn_peer[15]  lookupTimeSig:vector  ETV
vector 5205  Network.dyn_peer[7]  lookupHopsSig:vector  ETV
vector 5206  Network.dyn_peer[7]  lookupStabilitySig:vector  ETV
vector 5207  Network.dyn_peer[7]  lookupTimeSig:vector  ETV
vector 5235  Network.dyn_peer[17]  lookupHopsSig:vector  ETV
vector 5236  Network.dyn_peer[17]  lookupStabilitySig:vector  ETV
vector 5237  Network.dyn_peer[17]  lookupTimeSig:vector  ETV
vector 5208  Network.dyn_peer[8]  lookupHopsSig:vector  ETV
vector 5209  Network.dyn_peer[8]  lookupStabilitySig:vector  ETV
vector 5210  Network.dyn_peer[8]  lookupTimeSig:vector  ETV
vector 5217  Network.dyn_peer[11]  lookupHopsSig:vector  ETV
vector 5218  Network.dyn_peer[11]  lookupStabilitySig:vector  ETV
vector 5219  Network.dyn_peer[11]  lookupTimeSig:vector  ETV
vector 5247  Network.dyn_peer[21]  lookupHopsSig:vector  ETV
vector 5248  Network.dyn_peer[21]  lookupStabilitySig:vector  ETV
vector 5249  Network.dyn_peer[21]  lookupTimeSig:vector  ETV
vector 5250  Network.dyn_peer[22]  lookupHopsSig:vector  ETV
vector 5251  Network.dyn_peer[22]  lookupStabilitySig:vector  ETV
vector 5252  Network.dyn_peer[22]  lookupTimeSig:vector  ETV
vector 5259  Network.dyn_peer[25]  lookupHopsSig:vector  ETV
vector 5260  Network.dyn_peer[25]  lookupStabilitySig:vector  ETV
vector 5261  Network.dyn_peer[25]  lookupTimeSig:vector  ETV
vector 5202  Network.dyn_peer[6]  lookupHopsSig:vector  ETV
vector 5203  Network.dyn_peer[6]  lookupStabilitySig:vector  ETV
vector 5204  Network.dyn_peer[6]  lookupTimeSig:vector  ETV
vector 5277  Network.dyn_peer[31]  lookupHopsSig:vector  ETV
vector 5278  Network.dyn_peer[31]  lookupStabilitySig:vector  ETV
vector 5279  Network.dyn_peer[31]  lookupTimeSig:vector  ETV
vector 5220  Network.dyn_peer[12]  lookupHopsSig:vector  ETV
vector 5221  Network.dyn_peer[12]  lookupStabilitySig:vector  ETV
vector 5222  Network.dyn_peer[12]  lookupTimeSig:vector  ETV
vector 5253  Network.dyn_peer[23]  lookupHopsSig:vector  ETV
vector 5254  Network.dyn_peer[23]  lookupStabilitySig:vector  ETV
vector 5255  Network.dyn_peer[23]  lookupTimeSig:vector  ETV
vector 5238  Network.dyn_peer[18]  lookupHopsSig:vector  ETV
vector 5239  Network.dyn_peer[18]  lookupStabilitySig:vector  ETV
vector 5240  Network.dyn_peer[18]  lookupTimeSig:vector  ETV
vector 5211  Network.dyn_peer[9]  lookupHopsSig:vector  ETV
vector 5212  Network.dyn_peer[9]  lookupStabilitySig:vector  ETV
vector 5213  Network.dyn_peer[9]  lookupTimeSig:vector  ETV
vector 5271  Network.dyn_peer[29]  lookupHopsSig:vector  ETV
vector 5272  Network.dyn_peer[29]  lookupStabilitySig:vector  ETV
vector 5273  Network.dyn_peer[29]  lookupTimeSig:vector  ETV
vector 5244  Network.dyn_peer[20]  lookupHopsSig:vector  ETV
vector 5245  Network.dyn_peer[20]  lookupStabilitySig:vector  ETV
vector 5246  Network.dyn_peer[20]  lookupTimeSig:vector  ETV
vector 5268  Network.dyn_peer[28]  lookupHopsSig:vector  ETV
vector 5269  Network.dyn_peer[28]  lookupStabilitySig:vector  ETV
vector 5270  Network.dyn_peer[28]  lookupTimeSig:vector  ETV
vector 5256  Network.dyn_peer[24]  lookupHopsSig:vector  ETV
vector 5257  Network.dyn_peer[24]  lookupStabilitySig:vector  ETV
vector 5258  Network.dyn_peer[24]  lookupTimeSig:vector  ETV
vector 5265  Network.dyn_peer[27]  lookupHopsSig:vector  ETV
vector 5266  Network.dyn_peer[27]  lookupStabilitySig:vector  ETV
vector 5267  Network.dyn_peer[27]  lookupTimeSig:vector  ETV
vector 5262  Network.dyn_peer[26]  lookupHopsSig:vector  ETV
vector 5263  Network.dyn_peer[26]  lookupStabilitySig:vector  ETV
vector 5264  Network.dyn_peer[26]  lookupTimeSig:vector  ETV
vector 5274  Network.dyn_peer[30]  lookupHopsSig:vector  ETV
vector 5275  Network.dyn_peer[30]  lookupStabilitySig:vector  ETV
vector 5276  Network.dyn_peer[30]  lookupTimeSig:vector  ETV
5184	6378 8350 123 137246 20.21 135.770288026758 285 0 19 1226 7564
5185	14728 9282 123 137246 20.21 135.770288026758 285 -1.375 1 131.75 96.6875
5186	24010 8897 123 137246 20.21 135.770288026758 285 0 1.8 137.5 85.55
5187	32907 8574 62 136283 20.12 134.842670071267 292 0 17 1171 6973
5188	41481 9578 62 136283 20.12 134.842670071267 292 -1.125 1 145.74999997765 108.31867282221
5189	51059 9127 62 136283 20.12 134.842670071267 292 0 1.5 131.2 77.78
5190	60186 8213 70 137125 20.13 135.659449502518 280 0 20 1129 7589
5191	68399 9122 70 137125 20.13 135.659449502518 280 -1.5 1 138.95833332092 116.44888115555
5192	77521 8726 70 137125 20.13 135.659449502518 280 0 1.8 125.4 80.48
5193	86247 8556 78 136417 20.14 134.96917926196 291 0 19 1214 8192
5194	94803 9499 78 136417 20.14 134.96917926196 291 -1.375 1 139.25 115.5
5195	104302 9101 78 136417 20.14 134.96917926196 291 0 1.8 136.3 90.09
5196	113403 9685 156 137252 20.25 135.776981430753 329 0 14 1307 7535
5197	123088 10727 156 137252 20.25 135.776981430753 329 -0.75 1 165.625 119.984375
5198	133815 10314 156 137252 20.25 135.776981430753 329 0 1.5 149 88.08
5199	144129 8846 166 136217 20.26 134.796387577899 301 0 21 1282 8416
5200	152975 9848 166 136217 20.26 134.796387577899 301 -1.625 1 140.83333331347 112.04861109787
5201	162823 9412 166 136217 20.26 134.796387577899 301 0 1.7 142.4 90.48
5202	172235 8558 253 136512 20.37 135.059598548132 290 0 18 1282 8808
5203	180793 9493 253 136512 20.37 135.059598548132 290 -1.25 1 129.75 107.125
5204	190286 9083 253 136512 20.37 135.059598548132 290 0 1.7 142.1 95.49
5205	199369 8827 184 137562 20.28 136.326216160295 300 0 19 1344 9474
5206	208196 9822 184 137562 20.28 136.326216160295 300 -1.375 1 132 112.03125
5207	218018 9371 184 137562 20.28 136.326216160295 300 0 1.8 148 100
5208	227389 8354 197 136850 20.29 135.351695536924 284 0 15 1156 7148
5209	235743 9289 197 136850 20.29 135.351695536924 284 -0.875 1 139.52777777612 106.72993826903
5210	245032 8880 197 136850 20.29 135.351695536924 284 0 1.3 128.9 78.03
5211	253912 8101 324 137033 20.5 135.562120034753 276 0 20 1214 8684
5212	262013 8991 324 137033 20.5 135.562120034753 276 -1.5 1 124.25 108.1875
5213	271004 8614 324 137033 20.5 135.562120034753 276 0 1.9 133.6 91.48
5214	279618 9630 127 136054 20.21 134.659598548132 328 0 15 1265 7383
5215	289248 10688 127 136054 20.21 134.659598548132 328 -0.875 1 169.875 127.109375
5216	299936 10250 127 136054 20.21 134.659598548132 328 0 1.4 143.3 83.17
5217	310186 9348 219 137155 20.32 135.675980540459 318 0 18 1302 8214
5218	319534 10390 219 137155 20.32 135.675980540459 318 -1.25 1 155.34722220898 120.87750771016
5219	329924 9939 219 137155 20.32 135.675980540459 318 0 1.7 146.2 90.24
5220	339863 9080 284 137478 20.43 136.034675911563 309 0 27 1333 9441
5221	348943 10104 284 137478 20.43 136.034675911563 309 -2.375 1 142.38888888806 123.29012345532
5222	359047 9658 284 137478 20.43 136.034675911563 309 0 2.4 148.1 99.69
5223	368705 8958 147 137405 20.24 135.92717442573 305 0 19 1259 8133
5224	377663 9922 147 137405 20.24 135.92717442573 305 -1.375 1 147.625 117.328125
5225	387585 9534 147 137405 20.24 135.92717442573 305 0 1.8 141.5 89.07
5226	397119 7887 88 136124 20.15 134.729956890579 268 0 22 1222 8790
5227	405006 8751 88 136124 20.15 134.729956890579 268 -1.75 1 115.25 99.84375
5228	413757 8363 88 136124 20.15 134.729956890579 268 0 1.9 133.4 90.86
5229	422120 8540 170 136725 20.26 135.249771601019 290 0 16 1168 7288
5230	430660 9483 170 136725 20.26 135.249771601019 290 -1 1 144.05555555224 111.93364197163
5231	440143 9070 170 136725 20.26 135.249771601019 290 0 1.5 131.8 81.88
5232	449213 8367 100 136607 20.17 135.140547121983 285 0 15 1208 7726
5233	457580 9310 100 136607 20.17 135.140547121983 285 -0.875 1 134.08333331347 103.76736109787
5234	466890 8906 100 136607 20.17 135.140547121983 285 0 1.5 134.2 84.54
5235	475796 8834 188 136781 20.28 135.283676617687 300 0 20 1310 8808
5236	484630 9814 188 136781 20.28 135.283676617687 300 -1.5 1 136.26388888806 110.14949845532
5237	494444 9387 188 136781 20.28 135.283676617687 300 0 1.9 145.8 96.16
5238	503831 7963 314 137029 20.49 135.559382802466 270 0 18 1253 8747
5239	511794 8865 314 137029 20.49 135.559382802466 270 -1.25 1 113.375 93.421875
5240	520659 8466 314 137029 20.49 135.559382802466 270 0 1.7 137.6 93.2
5241	529125 8954 116 136763 20.2 135.271565988368 305 0 13 1149 6533
5242	538079 9935 116 136763 20.2 135.271565988368 305 -0.625 1 161.375 119.828125
5243	548014 9527 116 136763 20.2 135.271565988368 305 0 1.4 129.2 72.4
5244	557541 9852 339 136535 20.51 135.081121960349 336 0 17 1258 7144
5245	567393 10950 339 136535 20.51 135.081121960349 336 -1.125 1 178.87499999255 133.16184413286
5246	578343 10482 339 136535 20.51 135.081121960349 336 0 1.6 143.2 81.32
5247	588825 9180 223 136547 20.32 135.091507360667 312 0 17 1290 8276
5248	598005 10222 223 136547 20.32 135.091507360667 312 -1.125 1 150.79166665673 118.8663194312
5249	608227 9765 223 136547 20.32 135.091507360667 312 0 1.6 146 93.2
5250	617992 9395 233 137121 20.33 135.6579060909 320 0 27 1369 9701
5251	627387 10449 233 137121 20.33 135.6579060909 320 -2.375 1 148.875 129.328125
5252	637836 9987 233 137121 20.33 135.6579060909 320 0 2.3 151.1 99.23
5253	647823 9177 292 136372 20.44 134.939704683528 313 0 19 1204 7228
5254	657000 10258 292 136372 20.44 134.939704683528 313 -1.375 1 162.70833333582 124.92457559668
5255	667258 9779 292 136372 20.44 134.939704683528 313 0 1.9 136.4 80.98
5256	677037 8828 412 137300 20.65 135.824162073335 300 0 19 1221 7901
5257	685865 9826 412 137300 20.65 135.824162073335 300 -1.375 1 147.375 118.203125
5258	695691 9388 412 137300 20.65 135.824162073335 300 0 1.7 137.2 86.02
5259	705079 9273 246 137375 20.36 135.872570959857 315 0 18 1389 9347
5260	714352 10285 246 137375 20.36 135.872570959857 315 -1.25 1 141.38888888806 113.82137345532
5261	724637 9860 246 137375 20.36 135.872570959857 315 0 1.7 153.8 101.36
5262	734497 9113 472 137345 20.77 135.8579060909 310 0 20 1297 8657
5263	743610 10144 472 137345 20.77 135.8579060909 310 -1.5 1 147.875 121.015625
5264	753754 9703 472 137345 20.77 135.8579060909 310 0 1.9 146.4 95.22
5265	763457 8482 429 137191 20.68 135.728226966333 289 0 19 1135 6795
5266	771939 9445 429 137191 20.68 135.728226966333 289 -1.375 1 147.30555552244 111.49112651819
5267	781384 9023 429 137191 20.68 135.728226966333 289 0 1.8 127.3 75.59
5268	790407 8682 374 137514 20.59 136.092018586662 295 0 21 1229 7773
5269	799089 9671 374 137514 20.59 136.092018586662 295 -1.625 1 141.43055555224 109.26176697163
5270	808760 9237 374 137514 20.59 136.092018586662 295 0 2 135.9 82.77
5271	817997 9073 328 136687 20.5 135.225110069095 308 0 19 1237 7969
5272	827070 10051 328 136687 20.5 135.225110069095 308 -1.375 1 153.375 123.265625
5273	837121 9649 328 136687 20.5 135.225110069095 308 0 1.7 139.6 87.92
5274	846770 8525 716 137273 21.11 135.785158232083 289 0 16 1284 8428
5275	855295 9495 716 137273 21.11 135.785158232083 289 -1 1 128.56944441795 99.74440584065
5276	864790 9057 716 137273 21.11 135.785158232083 289 0 1.5 141.3 91.27
5277	873847 9052 276 137427 20.42 135.951953228859 307 0 16 1255 7813
5278	882899 10048 276 137427 20.42 135.951953228859 307 -1 1 150.13888888806 115.35262345532
5279	892947 9618 276 137427 20.42 135.951953228859 307 0 1.6 141 87.4
