version 2
run Stability-103-20130525-17:48:58-19193
attr configname Stability
attr datetime 20130525-17:48:58
attr experiment Stability
attr inifile omnetpp.ini
attr iterationvars $0=1e-4
attr iterationvars2 "$0=1e-4, $repetition=3"
attr measurement $0=1e-4
attr network Network
attr processid 19193
attr repetition 3
attr replication #3
attr resultdir results
attr runnumber 103
attr seedset 103

vector 9906  Network.dyn_peer[6]  lookupHopsSig:vector  ETV
vector 9907  Network.dyn_peer[6]  lookupStabilitySig:vector  ETV
vector 9908  Network.dyn_peer[6]  lookupTimeSig:vector  ETV
vector 9927  Network.dyn_peer[13]  lookupHopsSig:vector  ETV
vector 9928  Network.dyn_peer[13]  lookupStabilitySig:vector  ETV
vector 9929  Network.dyn_peer[13]  lookupTimeSig:vector  ETV
vector 9954  Network.dyn_peer[22]  lookupHopsSig:vector  ETV
vector 9955  Network.dyn_peer[22]  lookupStabilitySig:vector  ETV
vector 9956  Network.dyn_peer[22]  lookupTimeSig:vector  ETV
vector 9894  Network.dyn_peer[2]  lookupHopsSig:vector  ETV
vector 9895  Network.dyn_peer[2]  lookupStabilitySig:vector  ETV
vector 9896  Network.dyn_peer[2]  lookupTimeSig:vector  ETV
vector 9897  Network.dyn_peer[3]  lookupHopsSig:vector  ETV
vector 9898  Network.dyn_peer[3]  lookupStabilitySig:vector  ETV
vector 9899  Network.dyn_peer[3]  lookupTimeSig:vector  ETV
vector 9900  Network.dyn_peer[4]  lookupHopsSig:vector  ETV
vector 9901  Network.dyn_peer[4]  lookupStabilitySig:vector  ETV
vector 9902  Network.dyn_peer[4]  lookupTimeSig:vector  ETV
vector 9903  Network.dyn_peer[5]  lookupHopsSig:vector  ETV
vector 9904  Network.dyn_peer[5]  lookupStabilitySig:vector  ETV
vector 9905  Network.dyn_peer[5]  lookupTimeSig:vector  ETV
vector 9909  Network.dyn_peer[7]  lookupHopsSig:vector  ETV
vector 9910  Network.dyn_peer[7]  lookupStabilitySig:vector  ETV
vector 9911  Network.dyn_peer[7]  lookupTimeSig:vector  ETV
vector 9930  Network.dyn_peer[14]  lookupHopsSig:vector  ETV
vector 9931  Network.dyn_peer[14]  lookupStabilitySig:vector  ETV
vector 9932  Network.dyn_peer[14]  lookupTimeSig:vector  ETV
vector 9936  Network.dyn_peer[16]  lookupHopsSig:vector  ETV
vector 9937  Network.dyn_peer[16]  lookupStabilitySig:vector  ETV
vector 9938  Network.dyn_peer[16]  lookupTimeSig:vector  ETV
vector 9942  Network.dyn_peer[18]  lookupHopsSig:vector  ETV
vector 9943  Network.dyn_peer[18]  lookupStabilitySig:vector  ETV
vector 9944  Network.dyn_peer[18]  lookupTimeSig:vector  ETV
vector 9960  Network.dyn_peer[24]  lookupHopsSig:vector  ETV
vector 9961  Network.dyn_peer[24]  lookupStabilitySig:vector  ETV
vector 9962  Network.dyn_peer[24]  lookupTimeSig:vector  ETV
vector 9966  Network.dyn_peer[26]  lookupHopsSig:vector  ETV
vector 9967  Network.dyn_peer[26]  lookupStabilitySig:vector  ETV
vector 9968  Network.dyn_peer[26]  lookupTimeSig:vector  ETV
vector 9978  Network.dyn_peer[30]  lookupHopsSig:vector  ETV
vector 9979  Network.dyn_peer[30]  lookupStabilitySig:vector  ETV
vector 9980  Network.dyn_peer[30]  lookupTimeSig:vector  ETV
vector 9918  Network.dyn_peer[10]  lookupHopsSig:vector  ETV
vector 9919  Network.dyn_peer[10]  lookupStabilitySig:vector  ETV
vector 9920  Network.dyn_peer[10]  lookupTimeSig:vector  ETV
vector 9921  Network.dyn_peer[11]  lookupHopsSig:vector  ETV
vector 9922  Network.dyn_peer[11]  lookupStabilitySig:vector  ETV
vector 9923  Network.dyn_peer[11]  lookupTimeSig:vector  ETV
vector 9933  Network.dyn_peer[15]  lookupHopsSig:vector  ETV
vector 9934  Network.dyn_peer[15]  lookupStabilitySig:vector  ETV
vector 9935  Network.dyn_peer[15]  lookupTimeSig:vector  ETV
vector 9969  Network.dyn_peer[27]  lookupHopsSig:vector  ETV
vector 9970  Network.dyn_peer[27]  lookupStabilitySig:vector  ETV
vector 9971  Network.dyn_peer[27]  lookupTimeSig:vector  ETV
vector 9981  Network.dyn_peer[31]  lookupHopsSig:vector  ETV
vector 9982  Network.dyn_peer[31]  lookupStabilitySig:vector  ETV
vector 9983  Network.dyn_peer[31]  lookupTimeSig:vector  ETV
vector 9888  Network.dyn_peer[0]  lookupHopsSig:vector  ETV
vector 9889  Network.dyn_peer[0]  lookupStabilitySig:vector  ETV
vector 9890  Network.dyn_peer[0]  lookupTimeSig:vector  ETV
vector 9891  Network.dyn_peer[1]  lookupHopsSig:vector  ETV
vector 9892  Network.dyn_peer[1]  lookupStabilitySig:vector  ETV
vector 9893  Network.dyn_peer[1]  lookupTimeSig:vector  ETV
vector 9912  Network.dyn_peer[8]  lookupHopsSig:vector  ETV
vector 9913  Network.dyn_peer[8]  lookupStabilitySig:vector  ETV
vector 9914  Network.dyn_peer[8]  lookupTimeSig:vector  ETV
vector 9915  Network.dyn_peer[9]  lookupHopsSig:vector  ETV
vector 9916  Network.dyn_peer[9]  lookupStabilitySig:vector  ETV
vector 9917  Network.dyn_peer[9]  lookupTimeSig:vector  ETV
vector 9924  Network.dyn_peer[12]  lookupHopsSig:vector  ETV
vector 9925  Network.dyn_peer[12]  lookupStabilitySig:vector  ETV
vector 9926  Network.dyn_peer[12]  lookupTimeSig:vector  ETV
vector 9948  Network.dyn_peer[20]  lookupHopsSig:vector  ETV
vector 9949  Network.dyn_peer[20]  lookupStabilitySig:vector  ETV
vector 9950  Network.dyn_peer[20]  lookupTimeSig:vector  ETV
vector 9957  Network.dyn_peer[23]  lookupHopsSig:vector  ETV
vector 9958  Network.dyn_peer[23]  lookupStabilitySig:vector  ETV
vector 9959  Network.dyn_peer[23]  lookupTimeSig:vector  ETV
vector 9963  Network.dyn_peer[25]  lookupHopsSig:vector  ETV
vector 9964  Network.dyn_peer[25]  lookupStabilitySig:vector  ETV
vector 9965  Network.dyn_peer[25]  lookupTimeSig:vector  ETV
vector 9939  Network.dyn_peer[17]  lookupHopsSig:vector  ETV
vector 9940  Network.dyn_peer[17]  lookupStabilitySig:vector  ETV
vector 9941  Network.dyn_peer[17]  lookupTimeSig:vector  ETV
vector 9945  Network.dyn_peer[19]  lookupHopsSig:vector  ETV
vector 9946  Network.dyn_peer[19]  lookupStabilitySig:vector  ETV
vector 9947  Network.dyn_peer[19]  lookupTimeSig:vector  ETV
vector 9951  Network.dyn_peer[21]  lookupHopsSig:vector  ETV
vector 9952  Network.dyn_peer[21]  lookupStabilitySig:vector  ETV
vector 9953  Network.dyn_peer[21]  lookupTimeSig:vector  ETV
vector 9975  Network.dyn_peer[29]  lookupHopsSig:vector  ETV
vector 9976  Network.dyn_peer[29]  lookupStabilitySig:vector  ETV
vector 9977  Network.dyn_peer[29]  lookupTimeSig:vector  ETV
vector 9972  Network.dyn_peer[28]  lookupHopsSig:vector  ETV
vector 9973  Network.dyn_peer[28]  lookupStabilitySig:vector  ETV
vector 9974  Network.dyn_peer[28]  lookupTimeSig:vector  ETV
9888	271	20.3000001	3
9888	1032	21.3000001	9
9888	1310	21.504665069255	1
9888	1931	21.913539203782	5
9888	2371	22.219305630896	3
9888	3098	22.822021666607	4
9888	3659	23.322021666607	4
9888	3874	23.512836505596	3
9888	4015	23.630849290816	2
9888	4046	23.637962533779	0
9888	4666	24.137962533779	4
9888	4894	24.342223117371	1
9888	5497	24.845270516232	4
9888	5653	24.945370616232	1
9888	6574	25.645370616232	8
9888	6826	25.845470716232	2
9888	7054	26.045470716232	2
9888	7408	26.356905690039	2
9888	7658	26.56620792842	2
9888	7671	26.574890168187	2
9888	8055	26.880160846424	3
9888	8780	27.580160846424	6
9888	8961	27.78221465819	1
9888	9272	28.086858487698	3
9888	9501	28.286858487698	1
9888	10082	28.79522090965	4
9888	10669	29.3991420638	5
9888	10948	29.682255931003	1
9888	11232	29.901952188557	5
9888	11317	29.995319879957	10
9888	13100	31.496286005387	16
9888	13799	32.296286005387	7
9888	13924	32.398089414448	7
9888	14227	32.707247258424	2
9888	14229	32.707311867372	3
9888	14267	32.780698772003	12
9888	14552	32.983858408976	2
9888	15787	34.083858408976	11
9888	16006	34.304223183883	9
9888	16137	34.410472329228	1
9888	16757	35.010472329228	5
9888	17322	35.513372882359	4
9888	17608	35.723261615167	1
9888	17615	35.728082933211	9
9888	17836	35.928183033211	2
9888	18200	36.228183033211	3
9888	18608	36.534171014189	2
9888	19351	37.150748232018	4
9888	19697	37.454634026681	2
9888	20259	37.960725283778	5
9888	20793	38.460725283778	4
9888	21243	38.862180997323	3
9888	21923	39.371650818212	4
9888	22231	39.579051342877	1
9888	22532	39.858842351155	2
9888	23621	40.763915991584	10
9888	24110	41.268059563207	4
9888	24720	41.768159663207	5
9888	25909	42.768159663207	10
9888	26733	43.489961515705	4
9888	26954	43.690158796839	1
9888	27160	43.87621319025	12
9888	27322	43.995833745478	1
9888	28914	45.201976510316	14
9888	29254	45.601976510316	3
9888	30161	46.403983501996	7
9888	30563	46.705907303142	2
9888	30580	46.709378855611	2
9888	30944	47.00938678626	2
9888	30997	47.021992850947	2
9888	31426	47.326205650671	3
9888	31432	47.328377748762	3
9888	31691	47.608710351801	9
9888	32024	47.913272310505	3
9888	32047	47.922323229382	8
9888	32065	47.929858041068	5
9888	32073	47.93251412762	5
9888	32747	48.53261422762	7
9888	33166	48.93261422762	3
9888	33535	49.238558329751	2
9888	33776	49.443014937706	1
9888	33954	49.576383922539	1
9888	34296	49.850922524518	3
9888	34702	50.15641288338	2
9888	34720	50.196358711931	5
9888	35401	50.702081279324	5
9888	35954	51.202081279324	4
9888	36345	51.607804499522	3
9888	36422	51.691351301751	3
9888	36561	51.794561712766	1
9888	37177	52.294561712766	5
9888	37803	52.786886137388	3
9888	38269	53.176781044905	5
9888	38747	53.594692147159	7
9888	38762	53.601155902362	13
9888	39933	54.604134560224	10
9888	40377	55.004134560224	4
9888	40825	55.407201168363	4
9888	40979	55.515291069207	1
9888	41453	55.915291069207	3
9888	41871	56.320821381983	3
9888	42333	56.721681015082	3
9888	42558	56.922258743509	1
9888	42832	57.124361284891	2
9888	43058	57.324361284891	1
9888	43943	58.013408574863	5
9888	44162	58.130106813387	8
9888	44528	58.439032085062	3
9888	44929	58.739032085062	2
9888	45318	59.040610854121	2
9888	46306	59.838492745362	6
9888	46338	59.844744982817	9
9888	46533	60.039226625588	1
9888	46915	60.349123164536	3
9888	47354	60.749123164536	4
9888	48003	61.270648277104	4
9888	48299	61.479539127424	1
9888	48548	61.699452862951	1
9888	48744	61.933222394893	1
9888	49582	62.640097037494	7
9888	49928	62.940097037494	2
9888	50787	63.644290110569	7
9888	51778	64.385718946132	4
9888	51843	64.465489771953	6
9888	52217	64.750259440196	11
9888	52471	64.971099992272	2
9888	52606	65.088257859753	7
9888	53514	65.794861411466	8
9888	53970	66.194861411466	3
9888	54340	66.512922862029	0
9888	55168	67.121447039233	5
9888	55226	67.200036240878	10
9888	55856	67.600553367392	4
9888	56550	68.200553367392	6
9888	57604	69.206967057183	9
9888	58688	70.209463712558	11
9888	59164	70.609463712558	3
9888	59387	70.819090743771	1
9888	60261	71.519506948611	7
9888	61533	72.519506948611	9
9888	62410	73.319607048611	8
9888	62584	73.524143597394	1
9888	62820	73.72649574325	1
9888	62839	73.735524495942	0
9888	63565	74.335524495942	5
9888	63805	74.539646569093	1
9888	64599	75.148286648402	6
9888	65778	76.152385131098	11
9888	66463	76.752385131098	5
9888	66717	76.96186251621	1
9888	67479	77.56196261621	8
9888	68431	78.36196261621	7
9888	68706	78.569112441937	1
9888	69237	78.978979686129	3
9888	69856	79.481543878973	4
9888	70096	79.683689330114	2
9888	71288	80.583689330114	8
9888	71551	80.769698249855	8
9888	71789	80.978320213678	1
9888	72451	81.587260122308	6
9888	73199	82.192857168577	7
9888	73487	82.39411893003	1
9888	74108	82.89421903003	5
9888	74489	83.19421903003	3
9888	75102	83.67423997703	4
9888	75516	83.994984033803	8
9888	75671	84.083422498691	3
9888	76131	84.387234261935	3
9888	76626	84.787234261935	3
9888	76905	84.987721351595	1
9888	77010	85.088324870313	0
9888	77248	85.302272976032	1
9888	77322	85.368572424603	1
9888	77375	85.445287454237	1
9888	77480	85.547490235896	1
9888	77987	85.947490235896	3
9888	78878	86.858185394555	9
9888	79784	87.658285494555	8
9888	80560	88.258285494555	6
9888	81363	88.963914013336	6
9888	81529	89.167119766109	1
9888	81917	89.565227794656	3
9888	82051	89.671957066204	4
9888	82560	90.104490999359	5
9888	82624	90.171138858035	6
9888	82641	90.181403623798	6
9888	82656	90.190461878745	3
9888	82907	90.384231029068	1
9888	83148	90.586562782382	2
9888	83620	90.986562782382	3
9888	83893	91.196020561752	2
9888	84375	91.559988772302	4
9888	84643	91.773551256191	2
9888	84774	91.879985952654	1
9888	84805	91.902047619385	7
9888	84952	92.019871272327	4
9888	85641	92.524270764386	5
9888	86424	93.130569466877	5
9888	86784	93.430669566877	3
9888	88331	94.76655147502	12
9888	88635	95.06655147502	2
9888	88896	95.283158094694	1
9888	89782	96.130970644302	5
9888	90174	96.430970644302	2
9888	90320	96.53213521187	0
9888	90856	96.940163352718	3
9888	91146	97.142838898562	1
9888	91916	97.750758063757	7
9888	92261	98.050758063757	2
9888	92872	98.551151459724	2
9888	94655	100.051151459724	17
9888	95183	100.49098442659	7
9888	95607	100.897637454412	4
9888	96319	101.597637454412	6
9888	96459	101.697737554412	1
9888	97309	102.397737554412	7
9888	99682	104.502504237614	22
9888	100766	105.402504237614	10
9888	100977	105.579849472196	8
9888	101297	105.888985220218	2
9888	101574	106.054736712243	1
9888	102085	106.454736712243	3
9888	102618	106.856272261434	4
9888	102667	106.906945969881	4
9888	103214	107.260482621309	4
9888	103816	107.713696075819	7
9888	103904	107.778680804193	4
9888	104065	107.858243569836	9
9888	104116	107.887925611679	3
9888	104346	108.087347206657	3
9888	104651	108.28802812839	2
9888	105377	108.88802812839	5
9888	105638	109.093379885832	1
9888	105646	109.0981431615	1
9888	106643	109.902430075152	8
9888	107362	110.502430075152	5
9888	107593	110.704434829418	1
9888	107847	110.906768554664	3
9888	108207	111.209677920104	2
9888	108876	111.709778020104	5
9888	109695	112.309778020104	6
9888	110356	112.763873255993	5
9888	110893	113.169502075713	4
9888	112154	114.269502075713	11
9888	112429	114.469602175713	2
9888	112998	114.969602175713	4
9888	113371	115.273560059241	3
9888	113671	115.579298853534	2
9888	114263	116.082663794051	5
9888	114496	116.286867198706	6
9888	114728	116.48778260113	2
9888	115542	117.18778260113	6
9888	116043	117.593873050941	3
9888	116256	117.804420541782	1
9888	116463	118.013890738788	1
9888	117055	118.515675436405	4
9888	117420	118.820273589639	2
9888	117464	118.827486416825	2
9888	117605	118.931430383961	1
9888	118221	119.531430383961	5
9888	118456	119.733446359581	1
9888	118833	120.041924077593	2
9888	119378	120.451305174705	3
9888	119418	120.497244105476	3
9888	119755	120.740885808764	3
9888	120060	120.946055157426	2
9888	120412	121.246055157426	2
9888	120788	121.548845046527	2
9888	121025	121.748945146527	2
9888	121825	122.548945146527	7
9888	123405	123.8571257603	15
9888	124020	124.366911141301	4
9888	124493	124.772735893212	5
9888	125563	125.570712337702	6
9888	127178	126.870712337702	12
9888	128036	127.49349811584	5
9888	128338	127.710956517468	1
9888	128860	128.127672109911	3
9888	128889	128.185524972702	3
9888	128994	128.275253203405	15
9888	130067	129.082724477825	8
9888	130426	129.382724477825	3
9888	131497	130.183519148607	8
9888	131526	130.193262511851	6
9888	131865	130.486538454195	2
9888	131924	130.501123142291	2
9888	132471	130.903464068758	3
9888	132492	130.908582524561	3
9888	133273	131.609575423924	7
9888	133551	131.909575423924	3
9888	134280	132.514499078241	5
9888	135096	133.215866364924	6
9888	135592	133.692770035802	12
9888	135963	134.002765559183	2
9888	135980	134.019876175649	2
9888	136352	134.316059872697	13
9888	136366	134.326985677349	13
9888	136392	134.33278974707	4
9888	136851	134.733041734267	4
9888	137225	135.133041734267	3
9888	138160	136.045216679801	9
9888	138184	136.060865604272	3
9889	271	20.3000001	0.625
9889	1032	21.3000001	-0.125
9889	1310	21.504665069255	0.875
9889	1931	21.913539203782	0.375
9889	2371	22.219305630896	0.625
9889	3098	22.822021666607	0.5
9889	3659	23.322021666607	0.5
9889	3874	23.512836505596	0.625
9889	4015	23.630849290816	0.75
9889	4046	23.637962533779	1
9889	4666	24.137962533779	0.5
9889	4894	24.342223117371	0.875
9889	5497	24.845270516232	0.5
9889	5653	24.945370616232	0.875
9889	6574	25.645370616232	0
9889	6826	25.845470716232	0.75
9889	7054	26.045470716232	0.75
9889	7408	26.356905690039	0.75
9889	7658	26.56620792842	0.75
9889	7671	26.574890168187	0.75
9889	8055	26.880160846424	0.625
9889	8780	27.580160846424	0.25
9889	8961	27.78221465819	0.875
9889	9272	28.086858487698	0.625
9889	9501	28.286858487698	0.875
9889	10082	28.79522090965	0.5
9889	10669	29.3991420638	0.375
9889	10948	29.682255931003	0.875
9889	11232	29.901952188557	0.375
9889	11317	29.995319879957	-0.25
9889	13100	31.496286005387	-1
9889	13799	32.296286005387	0.125
9889	13924	32.398089414448	0.125
9889	14227	32.707247258424	0.75
9889	14229	32.707311867372	0.625
9889	14267	32.780698772003	-0.5
9889	14552	32.983858408976	0.75
9889	15787	34.083858408976	-0.375
9889	16006	34.304223183883	-0.125
9889	16137	34.410472329228	0.875
9889	16757	35.010472329228	0.375
9889	17322	35.513372882359	0.5
9889	17608	35.723261615167	0.875
9889	17615	35.728082933211	-0.125
9889	17836	35.928183033211	0.75
9889	18200	36.228183033211	0.625
9889	18608	36.534171014189	0.75
9889	19351	37.150748232018	0.5
9889	19697	37.454634026681	0.75
9889	20259	37.960725283778	0.375
9889	20793	38.460725283778	0.5
9889	21243	38.862180997323	0.625
9889	21923	39.371650818212	0.5
9889	22231	39.579051342877	0.875
9889	22532	39.858842351155	0.75
9889	23621	40.763915991584	-0.25
9889	24110	41.268059563207	0.5
9889	24720	41.768159663207	0.375
9889	25909	42.768159663207	-0.25
9889	26733	43.489961515705	0.5
9889	26954	43.690158796839	0.875
9889	27160	43.87621319025	-0.5
9889	27322	43.995833745478	0.875
9889	28914	45.201976510316	-0.75
9889	29254	45.601976510316	0.625
9889	30161	46.403983501996	0.125
9889	30563	46.705907303142	0.75
9889	30580	46.709378855611	0.75
9889	30944	47.00938678626	0.75
9889	30997	47.021992850947	0.75
9889	31426	47.326205650671	0.625
9889	31432	47.328377748762	0.625
9889	31691	47.608710351801	-0.125
9889	32024	47.913272310505	0.625
9889	32047	47.922323229382	0
9889	32065	47.929858041068	0.375
9889	32073	47.93251412762	0.375
9889	32747	48.53261422762	0.125
9889	33166	48.93261422762	0.625
9889	33535	49.238558329751	0.75
9889	33776	49.443014937706	0.875
9889	33954	49.576383922539	0.875
9889	34296	49.850922524518	0.625
9889	34702	50.15641288338	0.75
9889	34720	50.196358711931	0.375
9889	35401	50.702081279324	0.375
9889	35954	51.202081279324	0.5
9889	36345	51.607804499522	0.625
9889	36422	51.691351301751	0.625
9889	36561	51.794561712766	0.875
9889	37177	52.294561712766	0.375
9889	37803	52.786886137388	0.625
9889	38269	53.176781044905	0.375
9889	38747	53.594692147159	0.125
9889	38762	53.601155902362	-0.625
9889	39933	54.604134560224	-0.25
9889	40377	55.004134560224	0.5
9889	40825	55.407201168363	0.5
9889	40979	55.515291069207	0.875
9889	41453	55.915291069207	0.625
9889	41871	56.320821381983	0.625
9889	42333	56.721681015082	0.625
9889	42558	56.922258743509	0.875
9889	42832	57.124361284891	0.75
9889	43058	57.324361284891	0.875
9889	43943	58.013408574863	0.375
9889	44162	58.130106813387	0
9889	44528	58.439032085062	0.625
9889	44929	58.739032085062	0.75
9889	45318	59.040610854121	0.75
9889	46306	59.838492745362	0.25
9889	46338	59.844744982817	-0.125
9889	46533	60.039226625588	0.875
9889	46915	60.349123164536	0.625
9889	47354	60.749123164536	0.5
9889	48003	61.270648277104	0.5
9889	48299	61.479539127424	0.875
9889	48548	61.699452862951	0.875
9889	48744	61.933222394893	0.875
9889	49582	62.640097037494	0.125
9889	49928	62.940097037494	0.75
9889	50787	63.644290110569	0.125
9889	51778	64.385718946132	0.5
9889	51843	64.465489771953	0.25
9889	52217	64.750259440196	-0.375
9889	52471	64.971099992272	0.75
9889	52606	65.088257859753	0.125
9889	53514	65.794861411466	0
9889	53970	66.194861411466	0.625
9889	54340	66.512922862029	1
9889	55168	67.121447039233	0.375
9889	55226	67.200036240878	-0.25
9889	55856	67.600553367392	0.5
9889	56550	68.200553367392	0.25
9889	57604	69.206967057183	-0.125
9889	58688	70.209463712558	-0.375
9889	59164	70.609463712558	0.625
9889	59387	70.819090743771	0.875
9889	60261	71.519506948611	0.125
9889	61533	72.519506948611	-0.125
9889	62410	73.319607048611	0
9889	62584	73.524143597394	0.875
9889	62820	73.72649574325	0.875
9889	62839	73.735524495942	1
9889	63565	74.335524495942	0.375
9889	63805	74.539646569093	0.875
9889	64599	75.148286648402	0.25
9889	65778	76.152385131098	-0.375
9889	66463	76.752385131098	0.375
9889	66717	76.96186251621	0.875
9889	67479	77.56196261621	0
9889	68431	78.36196261621	0.125
9889	68706	78.569112441937	0.875
9889	69237	78.978979686129	0.625
9889	69856	79.481543878973	0.5
9889	70096	79.683689330114	0.75
9889	71288	80.583689330114	0
9889	71551	80.769698249855	0
9889	71789	80.978320213678	0.875
9889	72451	81.587260122308	0.25
9889	73199	82.192857168577	0.125
9889	73487	82.39411893003	0.875
9889	74108	82.89421903003	0.375
9889	74489	83.19421903003	0.625
9889	75102	83.67423997703	0.5
9889	75516	83.994984033803	0
9889	75671	84.083422498691	0.625
9889	76131	84.387234261935	0.625
9889	76626	84.787234261935	0.625
9889	76905	84.987721351595	0.875
9889	77010	85.088324870313	1
9889	77248	85.302272976032	0.875
9889	77322	85.368572424603	0.875
9889	77375	85.445287454237	0.875
9889	77480	85.547490235896	0.875
9889	77987	85.947490235896	0.625
9889	78878	86.858185394555	-0.125
9889	79784	87.658285494555	0
9889	80560	88.258285494555	0.25
9889	81363	88.963914013336	0.25
9889	81529	89.167119766109	0.875
9889	81917	89.565227794656	0.625
9889	82051	89.671957066204	0.5
9889	82560	90.104490999359	0.375
9889	82624	90.171138858035	0.25
9889	82641	90.181403623798	0.25
9889	82656	90.190461878745	0.625
9889	82907	90.384231029068	0.875
9889	83148	90.586562782382	0.75
9889	83620	90.986562782382	0.625
9889	83893	91.196020561752	0.75
9889	84375	91.559988772302	0.5
9889	84643	91.773551256191	0.75
9889	84774	91.879985952654	0.875
9889	84805	91.902047619385	0.125
9889	84952	92.019871272327	0.5
9889	85641	92.524270764386	0.375
9889	86424	93.130569466877	0.375
9889	86784	93.430669566877	0.625
9889	88331	94.76655147502	-0.5
9889	88635	95.06655147502	0.75
9889	88896	95.283158094694	0.875
9889	89782	96.130970644302	0.44444441795349
9889	90174	96.430970644302	0.75
9889	90320	96.53213521187	1
9889	90856	96.940163352718	0.625
9889	91146	97.142838898562	0.875
9889	91916	97.750758063757	0.125
9889	92261	98.050758063757	0.75
9889	92872	98.551151459724	0.75
9889	94655	100.051151459724	-1.125
9889	95183	100.49098442659	0.125
9889	95607	100.897637454412	0.5
9889	96319	101.597637454412	0.25
9889	96459	101.697737554412	0.875
9889	97309	102.397737554412	0.125
9889	99682	104.502504237614	-1.75
9889	100766	105.402504237614	-0.25
9889	100977	105.579849472196	0
9889	101297	105.888985220218	0.75
9889	101574	106.054736712243	0.875
9889	102085	106.454736712243	0.625
9889	102618	106.856272261434	0.5
9889	102667	106.906945969881	0.5
9889	103214	107.260482621309	0.5
9889	103816	107.713696075819	0.125
9889	103904	107.778680804193	0.5
9889	104065	107.858243569836	-0.125
9889	104116	107.887925611679	0.625
9889	104346	108.087347206657	0.625
9889	104651	108.28802812839	0.75
9889	105377	108.88802812839	0.375
9889	105638	109.093379885832	0.875
9889	105646	109.0981431615	0.875
9889	106643	109.902430075152	0
9889	107362	110.502430075152	0.375
9889	107593	110.704434829418	0.875
9889	107847	110.906768554664	0.625
9889	108207	111.209677920104	0.75
9889	108876	111.709778020104	0.375
9889	109695	112.309778020104	0.25
9889	110356	112.763873255993	0.375
9889	110893	113.169502075713	0.5
9889	112154	114.269502075713	-0.375
9889	112429	114.469602175713	0.75
9889	112998	114.969602175713	0.5
9889	113371	115.273560059241	0.625
9889	113671	115.579298853534	0.75
9889	114263	116.082663794051	0.375
9889	114496	116.286867198706	0.25
9889	114728	116.48778260113	0.75
9889	115542	117.18778260113	0.25
9889	116043	117.593873050941	0.625
9889	116256	117.804420541782	0.875
9889	116463	118.013890738788	0.875
9889	117055	118.515675436405	0.5
9889	117420	118.820273589639	0.75
9889	117464	118.827486416825	0.75
9889	117605	118.931430383961	0.875
9889	118221	119.531430383961	0.375
9889	118456	119.733446359581	0.875
9889	118833	120.041924077593	0.75
9889	119378	120.451305174705	0.625
9889	119418	120.497244105476	0.625
9889	119755	120.740885808764	0.625
9889	120060	120.946055157426	0.75
9889	120412	121.246055157426	0.75
9889	120788	121.548845046527	0.75
9889	121025	121.748945146527	0.75
9889	121825	122.548945146527	0.125
9889	123405	123.8571257603	-0.875
9889	124020	124.366911141301	0.5
9889	124493	124.772735893212	0.375
9889	125563	125.570712337702	0.33333331346512
9889	127178	126.870712337702	-0.5
9889	128036	127.49349811584	0.375
9889	128338	127.710956517468	0.875
9889	128860	128.127672109911	0.625
9889	128889	128.185524972702	0.625
9889	128994	128.275253203405	-0.875
9889	130067	129.082724477825	0
9889	130426	129.382724477825	0.625
9889	131497	130.183519148607	0
9889	131526	130.193262511851	0.25
9889	131865	130.486538454195	0.75
9889	131924	130.501123142291	0.75
9889	132471	130.903464068758	0.625
9889	132492	130.908582524561	0.625
9889	133273	131.609575423924	0.125
9889	133551	131.909575423924	0.625
9889	134280	132.514499078241	0.375
9889	135096	133.215866364924	0.25
9889	135592	133.692770035802	-0.5
9889	135963	134.002765559183	0.75
9889	135980	134.019876175649	0.75
9889	136352	134.316059872697	-0.625
9889	136366	134.326985677349	-0.625
9889	136392	134.33278974707	0.5
9889	136851	134.733041734267	0.5
9889	137225	135.133041734267	0.625
9889	138160	136.045216679801	-0.125
9889	138184	136.060865604272	0.625
9890	271	20.3000001	0.3
9890	1032	21.3000001	1
9890	1310	21.504665069255	0.2
9890	1931	21.913539203782	0.4
9890	2371	22.219305630896	0.3
9890	3098	22.822021666607	0.4
9890	3659	23.322021666607	0.5
9890	3874	23.512836505596	0.4
9890	4015	23.630849290816	0.3
9890	4046	23.637962533779	0
9890	4666	24.137962533779	0.5
9890	4894	24.342223117371	0.2
9890	5497	24.845270516232	0.5
9890	5653	24.945370616232	0.1
9890	6574	25.645370616232	0.7
9890	6826	25.845470716232	0.2
9890	7054	26.045470716232	0.2
9890	7408	26.356905690039	0.3
9890	7658	26.56620792842	0.2
9890	7671	26.574890168187	0.2
9890	8055	26.880160846424	0.3
9890	8780	27.580160846424	0.7
9890	8961	27.78221465819	0.2
9890	9272	28.086858487698	0.3
9890	9501	28.286858487698	0.2
9890	10082	28.79522090965	0.5
9890	10669	29.3991420638	0.6
9890	10948	29.682255931003	0.2
9890	11232	29.901952188557	0.5
9890	11317	29.995319879957	1.1
9890	13100	31.496286005387	1.5
9890	13799	32.296286005387	0.8
9890	13924	32.398089414448	0.8
9890	14227	32.707247258424	0.3
9890	14229	32.707311867372	0.4
9890	14267	32.780698772003	1.1
9890	14552	32.983858408976	0.2
9890	15787	34.083858408976	1.1
9890	16006	34.304223183883	0.9
9890	16137	34.410472329228	0.1
9890	16757	35.010472329228	0.6
9890	17322	35.513372882359	0.5
9890	17608	35.723261615167	0.2
9890	17615	35.728082933211	0.8
9890	17836	35.928183033211	0.2
9890	18200	36.228183033211	0.3
9890	18608	36.534171014189	0.3
9890	19351	37.150748232018	0.5
9890	19697	37.454634026681	0.3
9890	20259	37.960725283778	0.5
9890	20793	38.460725283778	0.5
9890	21243	38.862180997323	0.4
9890	21923	39.371650818212	0.5
9890	22231	39.579051342877	0.2
9890	22532	39.858842351155	0.3
9890	23621	40.763915991584	0.9
9890	24110	41.268059563207	0.5
9890	24720	41.768159663207	0.5
9890	25909	42.768159663207	1
9890	26733	43.489961515705	0.5
9890	26954	43.690158796839	0.2
9890	27160	43.87621319025	1.1
9890	27322	43.995833745478	0.2
9890	28914	45.201976510316	1.2
9890	29254	45.601976510316	0.4
9890	30161	46.403983501996	0.8
9890	30563	46.705907303142	0.3
9890	30580	46.709378855611	0.3
9890	30944	47.00938678626	0.3
9890	30997	47.021992850947	0.3
9890	31426	47.326205650671	0.3
9890	31432	47.328377748762	0.3
9890	31691	47.608710351801	0.9
9890	32024	47.913272310505	0.3
9890	32047	47.922323229382	0.8
9890	32065	47.929858041068	0.6
9890	32073	47.93251412762	0.6
9890	32747	48.53261422762	0.6
9890	33166	48.93261422762	0.4
9890	33535	49.238558329751	0.3
9890	33776	49.443014937706	0.2
9890	33954	49.576383922539	0.2
9890	34296	49.850922524518	0.4
9890	34702	50.15641288338	0.3
9890	34720	50.196358711931	0.6
9890	35401	50.702081279324	0.5
9890	35954	51.202081279324	0.5
9890	36345	51.607804499522	0.4
9890	36422	51.691351301751	0.4
9890	36561	51.794561712766	0.1
9890	37177	52.294561712766	0.5
9890	37803	52.786886137388	0.3
9890	38269	53.176781044905	0.6
9890	38747	53.594692147159	0.8
9890	38762	53.601155902362	1.3
9890	39933	54.604134560224	1
9890	40377	55.004134560224	0.4
9890	40825	55.407201168363	0.4
9890	40979	55.515291069207	0.1
9890	41453	55.915291069207	0.4
9890	41871	56.320821381983	0.4
9890	42333	56.721681015082	0.4
9890	42558	56.922258743509	0.2
9890	42832	57.124361284891	0.2
9890	43058	57.324361284891	0.2
9890	43943	58.013408574863	0.6
9890	44162	58.130106813387	0.8
9890	44528	58.439032085062	0.3
9890	44929	58.739032085062	0.3
9890	45318	59.040610854121	0.3
9890	46306	59.838492745362	0.6
9890	46338	59.844744982817	0.8
9890	46533	60.039226625588	0.2
9890	46915	60.349123164536	0.3
9890	47354	60.749123164536	0.4
9890	48003	61.270648277104	0.5
9890	48299	61.479539127424	0.2
9890	48548	61.699452862951	0.2
9890	48744	61.933222394893	0.2
9890	49582	62.640097037494	0.7
9890	49928	62.940097037494	0.3
9890	50787	63.644290110569	0.7
9890	51778	64.385718946132	0.5
9890	51843	64.465489771953	0.6
9890	52217	64.750259440196	1.1
9890	52471	64.971099992272	0.3
9890	52606	65.088257859753	0.7
9890	53514	65.794861411466	0.7
9890	53970	66.194861411466	0.4
9890	54340	66.512922862029	0.1
9890	55168	67.121447039233	0.6
9890	55226	67.200036240878	1
9890	55856	67.600553367392	0.4
9890	56550	68.200553367392	0.6
9890	57604	69.206967057183	1
9890	58688	70.209463712558	1
9890	59164	70.609463712558	0.4
9890	59387	70.819090743771	0.2
9890	60261	71.519506948611	0.7
9890	61533	72.519506948611	1
9890	62410	73.319607048611	0.8
9890	62584	73.524143597394	0.2
9890	62820	73.72649574325	0.2
9890	62839	73.735524495942	0
9890	63565	74.335524495942	0.6
9890	63805	74.539646569093	0.2
9890	64599	75.148286648402	0.6
9890	65778	76.152385131098	1
9890	66463	76.752385131098	0.6
9890	66717	76.96186251621	0.2
9890	67479	77.56196261621	0.6
9890	68431	78.36196261621	0.8
9890	68706	78.569112441937	0.2
9890	69237	78.978979686129	0.4
9890	69856	79.481543878973	0.5
9890	70096	79.683689330114	0.2
9890	71288	80.583689330114	0.9