version 2
run Stability-32-20130525-17:44:15-19193
attr configname Stability
attr datetime 20130525-17:44:15
attr experiment Stability
attr inifile omnetpp.ini
attr iterationvars $0=1e3
attr iterationvars2 "$0=1e3, $repetition=2"
attr measurement $0=1e3
attr network Network
attr processid 19193
attr repetition 2
attr replication #2
attr resultdir results
attr runnumber 32
attr seedset 32

vector 3072  Network.dyn_peer[0]  lookupHopsSig:vector  ETV
vector 3073  Network.dyn_peer[0]  lookupStabilitySig:vector  ETV
vector 3074  Network.dyn_peer[0]  lookupTimeSig:vector  ETV
vector 3075  Network.dyn_peer[1]  lookupHopsSig:vector  ETV
vector 3076  Network.dyn_peer[1]  lookupStabilitySig:vector  ETV
vector 3077  Network.dyn_peer[1]  lookupTimeSig:vector  ETV
vector 3078  Network.dyn_peer[2]  lookupHopsSig:vector  ETV
vector 3079  Network.dyn_peer[2]  lookupStabilitySig:vector  ETV
vector 3080  Network.dyn_peer[2]  lookupTimeSig:vector  ETV
vector 3081  Network.dyn_peer[3]  lookupHopsSig:vector  ETV
vector 3082  Network.dyn_peer[3]  lookupStabilitySig:vector  ETV
vector 3083  Network.dyn_peer[3]  lookupTimeSig:vector  ETV
vector 3084  Network.dyn_peer[4]  lookupHopsSig:vector  ETV
vector 3085  Network.dyn_peer[4]  lookupStabilitySig:vector  ETV
vector 3086  Network.dyn_peer[4]  lookupTimeSig:vector  ETV
vector 3087  Network.dyn_peer[5]  lookupHopsSig:vector  ETV
vector 3088  Network.dyn_peer[5]  lookupStabilitySig:vector  ETV
vector 3089  Network.dyn_peer[5]  lookupTimeSig:vector  ETV
vector 3090  Network.dyn_peer[6]  lookupHopsSig:vector  ETV
vector 3091  Network.dyn_peer[6]  lookupStabilitySig:vector  ETV
vector 3092  Network.dyn_peer[6]  lookupTimeSig:vector  ETV
vector 3093  Network.dyn_peer[7]  lookupHopsSig:vector  ETV
vector 3094  Network.dyn_peer[7]  lookupStabilitySig:vector  ETV
vector 3095  Network.dyn_peer[7]  lookupTimeSig:vector  ETV
vector 3096  Network.dyn_peer[8]  lookupHopsSig:vector  ETV
vector 3097  Network.dyn_peer[8]  lookupStabilitySig:vector  ETV
vector 3098  Network.dyn_peer[8]  lookupTimeSig:vector  ETV
vector 3099  Network.dyn_peer[9]  lookupHopsSig:vector  ETV
vector 3100  Network.dyn_peer[9]  lookupStabilitySig:vector  ETV
vector 3101  Network.dyn_peer[9]  lookupTimeSig:vector  ETV
vector 3102  Network.dyn_peer[10]  lookupHopsSig:vector  ETV
vector 3103  Network.dyn_peer[10]  lookupStabilitySig:vector  ETV
vector 3104  Network.dyn_peer[10]  lookupTimeSig:vector  ETV
vector 3105  Network.dyn_peer[11]  lookupHopsSig:vector  ETV
vector 3106  Network.dyn_peer[11]  lookupStabilitySig:vector  ETV
vector 3107  Network.dyn_peer[11]  lookupTimeSig:vector  ETV
vector 3108  Network.dyn_peer[12]  lookupHopsSig:vector  ETV
vector 3109  Network.dyn_peer[12]  lookupStabilitySig:vector  ETV
vector 3110  Network.dyn_peer[12]  lookupTimeSig:vector  ETV
vector 3111  Network.dyn_peer[13]  lookupHopsSig:vector  ETV
vector 3112  Network.dyn_peer[13]  lookupStabilitySig:vector  ETV
vector 3113  Network.dyn_peer[13]  lookupTimeSig:vector  ETV
vector 3114  Network.dyn_peer[14]  lookupHopsSig:vector  ETV
vector 3115  Network.dyn_peer[14]  lookupStabilitySig:vector  ETV
vector 3116  Network.dyn_peer[14]  lookupTimeSig:vector  ETV
vector 3117  Network.dyn_peer[15]  lookupHopsSig:vector  ETV
vector 3118  Network.dyn_peer[15]  lookupStabilitySig:vector  ETV
vector 3119  Network.dyn_peer[15]  lookupTimeSig:vector  ETV
vector 3120  Network.dyn_peer[16]  lookupHopsSig:vector  ETV
vector 3121  Network.dyn_peer[16]  lookupStabilitySig:vector  ETV
vector 3122  Network.dyn_peer[16]  lookupTimeSig:vector  ETV
vector 3123  Network.dyn_peer[17]  lookupHopsSig:vector  ETV
vector 3124  Network.dyn_peer[17]  lookupStabilitySig:vector  ETV
vector 3125  Network.dyn_peer[17]  lookupTimeSig:vector  ETV
vector 3126  Network.dyn_peer[18]  lookupHopsSig:vector  ETV
vector 3127  Network.dyn_peer[18]  lookupStabilitySig:vector  ETV
vector 3128  Network.dyn_peer[18]  lookupTimeSig:vector  ETV
vector 3129  Network.dyn_peer[19]  lookupHopsSig:vector  ETV
vector 3130  Network.dyn_peer[19]  lookupStabilitySig:vector  ETV
vector 3131  Network.dyn_peer[19]  lookupTimeSig:vector  ETV
vector 3132  Network.dyn_peer[20]  lookupHopsSig:vector  ETV
vector 3133  Network.dyn_peer[20]  lookupStabilitySig:vector  ETV
vector 3134  Network.dyn_peer[20]  lookupTimeSig:vector  ETV
vector 3135  Network.dyn_peer[21]  lookupHopsSig:vector  ETV
vector 3136  Network.dyn_peer[21]  lookupStabilitySig:vector  ETV
vector 3137  Network.dyn_peer[21]  lookupTimeSig:vector  ETV
vector 3138  Network.dyn_peer[22]  lookupHopsSig:vector  ETV
vector 3139  Network.dyn_peer[22]  lookupStabilitySig:vector  ETV
vector 3140  Network.dyn_peer[22]  lookupTimeSig:vector  ETV
vector 3141  Network.dyn_peer[23]  lookupHopsSig:vector  ETV
vector 3142  Network.dyn_peer[23]  lookupStabilitySig:vector  ETV
vector 3143  Network.dyn_peer[23]  lookupTimeSig:vector  ETV
vector 3144  Network.dyn_peer[24]  lookupHopsSig:vector  ETV
vector 3145  Network.dyn_peer[24]  lookupStabilitySig:vector  ETV
vector 3146  Network.dyn_peer[24]  lookupTimeSig:vector  ETV
vector 3147  Network.dyn_peer[25]  lookupHopsSig:vector  ETV
vector 3148  Network.dyn_peer[25]  lookupStabilitySig:vector  ETV
vector 3149  Network.dyn_peer[25]  lookupTimeSig:vector  ETV
vector 3150  Network.dyn_peer[26]  lookupHopsSig:vector  ETV
vector 3151  Network.dyn_peer[26]  lookupStabilitySig:vector  ETV
vector 3152  Network.dyn_peer[26]  lookupTimeSig:vector  ETV
vector 3153  Network.dyn_peer[27]  lookupHopsSig:vector  ETV
vector 3154  Network.dyn_peer[27]  lookupStabilitySig:vector  ETV
vector 3155  Network.dyn_peer[27]  lookupTimeSig:vector  ETV
vector 3156  Network.dyn_peer[28]  lookupHopsSig:vector  ETV
vector 3157  Network.dyn_peer[28]  lookupStabilitySig:vector  ETV
vector 3158  Network.dyn_peer[28]  lookupTimeSig:vector  ETV
vector 3159  Network.dyn_peer[29]  lookupHopsSig:vector  ETV
vector 3160  Network.dyn_peer[29]  lookupStabilitySig:vector  ETV
vector 3161  Network.dyn_peer[29]  lookupTimeSig:vector  ETV
vector 3162  Network.dyn_peer[30]  lookupHopsSig:vector  ETV
vector 3163  Network.dyn_peer[30]  lookupStabilitySig:vector  ETV
vector 3164  Network.dyn_peer[30]  lookupTimeSig:vector  ETV
vector 3165  Network.dyn_peer[31]  lookupHopsSig:vector  ETV
vector 3166  Network.dyn_peer[31]  lookupStabilitySig:vector  ETV
vector 3167  Network.dyn_peer[31]  lookupTimeSig:vector  ETV
3072	31	21.1	1
3072	35	21.4	2
3072	39	21.601212429292	1
3072	50	21.844878674003	1
3072	1063	53.2	2
3072	1067	53.5	2
3072	1073	53.804388506044	2
3072	1086	54.034616957182	1
3072	2148	85.2	2
3072	2151	85.4	1
3072	2156	85.617182994184	1
3072	2160	85.820374643904	1
3072	3233	117.2	2
3072	3236	117.4	1
3072	3243	117.721209543604	2
3072	3250	117.93583147042	1
3072	4264	149.1	1
3072	4269	149.302644467625	1
3072	4274	149.603465815113	2
3072	4278	149.804572045655	1
3072	5319	181.1	1
3072	5322	181.3	1
3072	5327	181.608354046156	2
3072	5334	181.821351058117	1
3072	6339	213.1	1
3072	6342	213.3	1
3072	6350	213.621583526782	2
3072	6355	213.831867200757	1
3072	7362	245	0
3072	7366	245.206976147352	1
3072	7371	245.513495257382	2
3072	7378	245.727593003275	1
3072	8398	277.2	2
3072	8401	277.4	1
3072	8405	277.605011721681	1
3072	8410	277.910595315875	2
3072	9414	309.1	1
3072	9418	309.4	2
3072	9423	309.607041598891	1
3072	9429	309.831817940144	1
3072	10447	341.1	1
3072	10465	341.403242293309	2
3072	10471	341.50634056181	2
3072	10475	341.603838049165	1
3072	11493	373.2	2
3072	11497	373.5	2
3072	11507	373.732531012153	1
3072	11517	374.05329821271	2
3072	12544	405.1	1
3072	12547	405.3	1
3072	12551	405.509089899391	1
3072	12556	405.814930352484	2
3072	13562	437	0
3072	13566	437.3	2
3072	13570	437.50898684865	1
3072	13574	437.71707835415	1
3072	14598	469.1	1
3072	14601	469.3	1
3072	14607	469.51396301301	1
3072	14611	469.71419786219	1
3072	15631	501.1	1
3072	15634	501.3	1
3072	15638	501.506651895847	1
3072	15644	501.816914633253	2
3072	16653	533.2	2
3072	16658	533.50463881666	2
3072	16662	533.712447792931	1
3072	16671	534.021521062677	2
3072	17696	565.3	3
3072	17699	565.5	1
3072	17703	565.705907028191	1
3072	17708	565.910748965086	1
3072	18722	597.1	1
3072	18726	597.4	2
3072	18731	597.709200896136	2
3072	18735	597.914134376297	1
3072	19773	629.1	1
3072	19777	629.303449742547	1
3072	19782	629.505940199651	1
3072	19788	629.712720053508	1
3072	20778	661.2	2
3072	20782	661.5	2
3072	20787	661.710235044243	1
3072	20791	661.912650716702	1
3072	21797	693.2	2
3072	21800	693.4	1
3072	21804	693.606019767432	1
3072	21808	693.812598490342	1
3072	22829	725.1	1
3072	22832	725.3	1
3072	22836	725.502203460084	1
3072	22840	725.707457934708	1
3072	23869	757.2	2
3072	23874	757.507978961009	2
3072	23887	757.749537686562	1
3072	23893	757.963868906247	1
3072	24982	789.1	1
3072	24985	789.3	1
3072	24993	789.613208751486	2
3072	24999	789.930338908538	2
3072	26017	821.1	1
3072	26023	821.322799426114	1
3072	26031	821.639795346543	2
3072	26035	821.84801859991	1
3072	27074	853.2	2
3072	27081	853.427734358397	1
3072	27086	853.630148081285	1
3072	27098	853.868801717626	1
3072	28116	885	0
3072	28120	885.3	2
3072	28127	885.523914795963	1
3072	28138	885.866833683609	2
3072	29157	917	0
3072	29172	917.3	2
3072	29177	917.609721098577	2
3072	29181	917.813317548532	1
3072	30188	949.2	2
3072	30191	949.4	1
3072	30197	949.713577468476	2
3072	30204	949.936241038172	1
3072	31206	981.1	1
3072	31210	981.4	2
3072	31214	981.600456746593	1
3072	31218	981.805001929153	1
3072	32255	1013.1	1
3072	32259	1013.4	2
3072	32265	1013.617794083603	1
3072	32272	1013.840684200555	1
3072	33283	1045.1	1
3072	33287	1045.4	2
3072	33292	1045.61910029383	1
3072	33303	1045.845382298805	1
3072	34372	1077.1	1
3072	34376	1077.4	2
3072	34380	1077.600343318253	1
3072	34384	1077.802515952381	1
3072	35421	1109.2	2
3072	35425	1109.5	2
3072	35429	1109.707774535976	1
3072	35435	1109.922210299178	1
3072	36445	1141.1	1
3072	36448	1141.3	1
3072	36452	1141.504751171825	1
3072	36459	1141.720260023585	1
3072	37481	1173.3	3
3072	37484	1173.5	1
3072	37488	1173.709023016875	1
3072	37496	1174.009038539503	2
3072	38481	1205.2	2
3072	38486	1205.509408976775	2
3072	38492	1205.718989187513	1
3072	38496	1205.919068873991	1
3072	39527	1237.1	1
3072	39531	1237.4	2
3072	39535	1237.605904816589	1
3072	39540	1237.813217085037	1
3072	40571	1269.2	2
3072	40575	1269.5	2
3072	40579	1269.700102576471	1
3072	40586	1269.91910322811	1
3072	41598	1301.1	1
3072	41601	1301.3	1
3072	41606	1301.509145938651	1
3072	41610	1301.711554172573	1
3072	42660	1333.1	1
3072	42663	1333.3	1
3072	42667	1333.503935767612	1
3072	42674	1333.725006081637	1
3072	43681	1365.3	3
3072	43684	1365.5	1
3072	43691	1365.814542706612	2
3072	43706	1366.122651240662	2
3072	44705	1397	0
3072	44710	1397.307888720124	2
3072	44715	1397.520949054623	1
3072	44721	1397.741854461884	1
3072	45774	1429.1	1
3072	45778	1429.300949873796	1
3072	45783	1429.505818286572	1
3072	45787	1429.70690124736	1
3072	46774	1461.2	2
3072	46778	1461.40701997739	1
3072	46783	1461.713895529629	2
3072	46788	1461.92392656363	1
3072	47800	1493.1	1
3072	47815	1493.3	1
3072	47820	1493.430362279735	1
3072	47823	1493.509557050599	1
3072	48851	1525	0
3072	48856	1525.300668868089	2
3072	48862	1525.51442323473	1
3072	48879	1525.839223355843	2
3072	49918	1557.3	3
3072	49922	1557.6	2
3072	49926	1557.809229926695	1
3072	49933	1558.014971968214	1
3072	50969	1589.1	1
3072	50972	1589.3	1
3072	50978	1589.506551418442	1
3072	50983	1589.810764062639	2
3072	52024	1621.2	2
3072	52027	1621.4	1
3072	52031	1621.609211317244	1
3072	52037	1621.922570209273	2
3072	53046	1653.2	2
3072	53055	1653.423748078786	1
3072	53060	1653.639562862835	1
3072	53066	1653.956679647928	2
3072	54098	1685.3	3
3072	54102	1685.6	2
3072	54107	1685.90574841838	2
3072	54119	1686.1087570868	1
3072	55109	1717.1	1
3072	55113	1717.4	2
3072	55117	1717.602981507652	1
3072	55129	1717.859985025708	1
3072	56161	1749.1	1
3072	56166	1749.402153731209	2
3072	56172	1749.716950997573	2
3072	56180	1750.026520511834	2
3072	57193	1781.2	2
3072	57199	1781.406757997976	1
3072	57203	1781.61106477689	1
3072	57219	1781.868856172675	1
3072	58253	1813	0
3072	58256	1813.2	1
3072	58260	1813.403751790502	1
3072	58264	1813.611407450732	1
3072	59308	1845.1	1
3072	59311	1845.3	1
3072	59318	1845.608805769226	2
3072	59322	1845.814377890355	1
3072	60328	1877	0
3072	60331	1877.2	1
3072	60337	1877.412731480161	1
3072	60344	1877.639717590581	1
3072	61329	1909.3	3
3072	61333	1909.6	2
3072	61337	1909.800291806848	1
3072	61344	1910.001747201739	1
3072	62329	1941.1	1
3072	62332	1941.3	1
3072	62337	1941.506705367851	1
3072	62342	1941.720407327869	1
3072	63338	1973.2	2
3072	63341	1973.4	1
3072	63349	1973.725797695673	2
3072	63356	1973.941060294957	1
3072	64397	2005.2	2
3072	64401	2005.405584704051	1
3072	64408	2005.618721649668	1
3072	64414	2005.83001230881	1
3072	65439	2037.1	1
3072	65443	2037.4	2
3072	65447	2037.601505655949	1
3072	65454	2037.918166910437	2
3073	31	21.1	0.875
3073	35	21.4	0.75
3073	39	21.601212429292	0.875
3073	50	21.844878674003	0.875
3073	1063	53.2	0.75
3073	1067	53.5	0.75
3073	1073	53.804388506044	0.75
3073	1086	54.034616957182	0.875
3073	2148	85.2	0.75
3073	2151	85.4	0.875
3073	2156	85.617182994184	0.875
3073	2160	85.820374643904	0.875
3073	3233	117.2	0.75
3073	3236	117.4	0.875
3073	3243	117.721209543604	0.75
3073	3250	117.93583147042	0.875
3073	4264	149.1	0.875
3073	4269	149.302644467625	0.875
3073	4274	149.603465815113	0.75
3073	4278	149.804572045655	0.875
3073	5319	181.1	0.875
3073	5322	181.3	0.875
3073	5327	181.608354046156	0.75
3073	5334	181.821351058117	0.875
3073	6339	213.1	0.875
3073	6342	213.3	0.875
3073	6350	213.621583526782	0.75
3073	6355	213.831867200757	0.875
3073	7362	245	1
3073	7366	245.206976147352	0.875
3073	7371	245.513495257382	0.75
3073	7378	245.727593003275	0.875
3073	8398	277.2	0.75
3073	8401	277.4	0.875
3073	8405	277.605011721681	0.875
3073	8410	277.910595315875	0.75
3073	9414	309.1	0.875
3073	9418	309.4	0.75
3073	9423	309.607041598891	0.875
3073	9429	309.831817940144	0.875
3073	10447	341.1	0.875
3073	10465	341.403242293309	0.75
3073	10471	341.50634056181	0.75
3073	10475	341.603838049165	0.875
3073	11493	373.2	0.75
3073	11497	373.5	0.75
3073	11507	373.732531012153	0.875
3073	11517	374.05329821271	0.75
3073	12544	405.1	0.875
3073	12547	405.3	0.875
3073	12551	405.509089899391	0.875
3073	12556	405.814930352484	0.75
3073	13562	437	1
3073	13566	437.3	0.75
3073	13570	437.50898684865	0.875
3073	13574	437.71707835415	0.875
3073	14598	469.1	0.875
3073	14601	469.3	0.875
3073	14607	469.51396301301	0.875
3073	14611	469.71419786219	0.875
3073	15631	501.1	0.875
3073	15634	501.3	0.875
3073	15638	501.506651895847	0.875
3073	15644	501.816914633253	0.75
3073	16653	533.2	0.75
3073	16658	533.50463881666	0.75
3073	16662	533.712447792931	0.875
3073	16671	534.021521062677	0.75
3073	17696	565.3	0.625
3073	17699	565.5	0.875
3073	17703	565.705907028191	0.875
3073	17708	565.910748965086	0.875
3073	18722	597.1	0.875
3073	18726	597.4	0.75
3073	18731	597.709200896136	0.75
3073	18735	597.914134376297	0.875
3073	19773	629.1	0.875
3073	19777	629.303449742547	0.875
3073	19782	629.505940199651	0.875
3073	19788	629.712720053508	0.875
3073	20778	661.2	0.75
3073	20782	661.5	0.75
3073	20787	661.710235044243	0.875
3073	20791	661.912650716702	0.875
3073	21797	693.2	0.75
3073	21800	693.4	0.875
3073	21804	693.606019767432	0.875
3073	21808	693.812598490342	0.875
3073	22829	725.1	0.875
3073	22832	725.3	0.875
3073	22836	725.502203460084	0.875
3073	22840	725.707457934708	0.875
3073	23869	757.2	0.75
3073	23874	757.507978961009	0.75
3073	23887	757.749537686562	0.875
3073	23893	757.963868906247	0.875
3073	24982	789.1	0.875
3073	24985	789.3	0.875
3073	24993	789.613208751486	0.75
3073	24999	789.930338908538	0.75
3073	26017	821.1	0.875
3073	26023	821.322799426114	0.875
3073	26031	821.639795346543	0.75
3073	26035	821.84801859991	0.875
3073	27074	853.2	0.75
3073	27081	853.427734358397	0.875
3073	27086	853.630148081285	0.875
3073	27098	853.868801717626	0.875
3073	28116	885	1
3073	28120	885.3	0.75
3073	28127	885.523914795963	0.875
3073	28138	885.866833683609	0.75
3073	29157	917	1
3073	29172	917.3	0.75
3073	29177	917.609721098577	0.75
3073	29181	917.813317548532	0.875
3073	30188	949.2	0.75
3073	30191	949.4	0.875
3073	30197	949.713577468476	0.75
3073	30204	949.936241038172	0.875
3073	31206	981.1	0.875
3073	31210	981.4	0.75
3073	31214	981.600456746593	0.875
3073	31218	981.805001929153	0.875
3073	32255	1013.1	0.875
3073	32259	1013.4	0.75
3073	32265	1013.617794083603	0.875
3073	32272	1013.840684200555	0.875
3073	33283	1045.1	0.875
3073	33287	1045.4	0.75
3073	33292	1045.61910029383	0.875
3073	33303	1045.845382298805	0.875
3073	34372	1077.1	0.875
3073	34376	1077.4	0.75
3073	34380	1077.600343318253	0.875
3073	34384	1077.802515952381	0.875
3073	35421	1109.2	0.75
3073	35425	1109.5	0.75
3073	35429	1109.707774535976	0.875
3073	35435	1109.922210299178	0.875
3073	36445	1141.1	0.875
3073	36448	1141.3	0.875
3073	36452	1141.504751171825	0.875
3073	36459	1141.720260023585	0.875
3073	37481	1173.3	0.625
3073	37484	1173.5	0.875
3073	37488	1173.709023016875	0.875
3073	37496	1174.009038539503	0.75
3073	38481	1205.2	0.75
3073	38486	1205.509408976775	0.75
3073	38492	1205.718989187513	0.875
3073	38496	1205.919068873991	0.875
3073	39527	1237.1	0.875
3073	39531	1237.4	0.75
3073	39535	1237.605904816589	0.875
3073	39540	1237.813217085037	0.875
3073	40571	1269.2	0.75
3073	40575	1269.5	0.75
3073	40579	1269.700102576471	0.875
3073	40586	1269.91910322811	0.875
3073	41598	1301.1	0.875
3073	41601	1301.3	0.875
3073	41606	1301.509145938651	0.875
3073	41610	1301.711554172573	0.875
3073	42660	1333.1	0.875
3073	42663	1333.3	0.875
3073	42667	1333.503935767612	0.875
3073	42674	1333.725006081637	0.875
3073	43681	1365.3	0.625
3073	43684	1365.5	0.875
3073	43691	1365.814542706612	0.75
3073	43706	1366.122651240662	0.75
3073	44705	1397	1
3073	44710	1397.307888720124	0.75
3073	44715	1397.520949054623	0.875
3073	44721	1397.741854461884	0.875
3073	45774	1429.1	0.875
3073	45778	1429.300949873796	0.875
3073	45783	1429.505818286572	0.875
3073	45787	1429.70690124736	0.875
3073	46774	1461.2	0.75
3073	46778	1461.40701997739	0.875
3073	46783	1461.713895529629	0.75
3073	46788	1461.92392656363	0.875
3073	47800	1493.1	0.875
3073	47815	1493.3	0.875
3073	47820	1493.430362279735	0.875
3073	47823	1493.509557050599	0.875
3073	48851	1525	1
3073	48856	1525.300668868089	0.75
3073	48862	1525.51442323473	0.875
3073	48879	1525.839223355843	0.75
3073	49918	1557.3	0.625
3073	49922	1557.6	0.75
3073	49926	1557.809229926695	0.875
3073	49933	1558.014971968214	0.875
3073	50969	1589.1	0.875
3073	50972	1589.3	0.875
3073	50978	1589.506551418442	0.875
3073	50983	1589.810764062639	0.75
3073	52024	1621.2	0.75
3073	52027	1621.4	0.875
3073	52031	1621.609211317244	0.875
3073	52037	1621.922570209273	0.75
3073	53046	1653.2	0.75
3073	53055	1653.423748078786	0.875
3073	53060	1653.639562862835	0.875
3073	53066	1653.956679647928	0.75
3073	54098	1685.3	0.625
3073	54102	1685.6	0.75
3073	54107	1685.90574841838	0.75
3073	54119	1686.1087570868	0.875
3073	55109	1717.1	0.875
3073	55113	1717.4	0.75
3073	55117	1717.602981507652	0.875
3073	55129	1717.859985025708	0.875
3073	56161	1749.1	0.875
3073	56166	1749.402153731209	0.75
3073	56172	1749.716950997573	0.75
3073	56180	1750.026520511834	0.75
3073	57193	1781.2	0.75
3073	57199	1781.406757997976	0.875
3073	57203	1781.61106477689	0.875
3073	57219	1781.868856172675	0.875
3073	58253	1813	1
3073	58256	1813.2	0.875
3073	58260	1813.403751790502	0.875
3073	58264	1813.611407450732	0.875
3073	59308	1845.1	0.875
3073	59311	1845.3	0.875
3073	59318	1845.608805769226	0.75
3073	59322	1845.814377890355	0.875
3073	60328	1877	1
3073	60331	1877.2	0.875
3073	60337	1877.412731480161	0.875
3073	60344	1877.639717590581	0.875
3073	61329	1909.3	0.625
3073	61333	1909.6	0.75
3073	61337	1909.800291806848	0.875
3073	61344	1910.001747201739	0.875
3073	62329	1941.1	0.875
3073	62332	1941.3	0.875
3073	62337	1941.506705367851	0.875
3073	62342	1941.720407327869	0.875
3073	63338	1973.2	0.75
3073	63341	1973.4	0.875
3073	63349	1973.725797695673	0.75
3073	63356	1973.941060294957	0.875
3073	64397	2005.2	0.75
3073	64401	2005.405584704051	0.875
3073	64408	2005.618721649668	0.875
3073	64414	2005.83001230881	0.875
3073	65439	2037.1	0.875
3073	65443	2037.4	0.75
3073	65447	2037.601505655949	0.875
3073	65454	2037.918166910437	0.75
3074	31	21.1	0.1
3074	35	21.4	0.3
3074	39	21.601212429292	0.2
3074	50	21.844878674003	0.2
3074	1063	53.2	0.2
3074	1067	53.5	0.3
3074	1073	53.804388506044	0.3
3074	1086	54.034616957182	0.2
3074	2148	85.2	0.2
3074	2151	85.4	0.2
3074	2156	85.617182994184	0.2
3074	2160	85.820374643904	0.2
3074	3233	117.2	0.2
3074	3236	117.4	0.2
3074	3243	117.721209543604	0.3
3074	3250	117.93583147042	0.2
3074	4264	149.1	0.1
3074	4269	149.302644467625	0.2
3074	4274	149.603465815113	0.3
3074	4278	149.804572045655	0.2
3074	5319	181.1	0.1
3074	5322	181.3	0.2
3074	5327	181.608354046156	0.3
3074	5334	181.821351058117	0.2
3074	6339	213.1	0.1
3074	6342	213.3	0.2
3074	6350	213.621583526782	0.3
3074	6355	213.831867200757	0.2
3074	7362	245	0
3074	7366	245.206976147352	0.2
3074	7371	245.513495257382	0.3
3074	7378	245.727593003275	0.2
3074	8398	277.2	0.2
3074	8401	277.4	0.2
3074	8405	277.605011721681	0.2
3074	8410	277.910595315875	0.3
3074	9414	309.1	0.1
3074	9418	309.4	0.3
3074	9423	309.607041598891	0.2
3074	9429	309.831817940144	0.2
3074	10447	341.1	0.1
3074	10465	341.403242293309	0.3
3074	10471	341.50634056181	0.3
3074	10475	341.603838049165	0.2
3074	11493	373.2	0.2
3074	11497	373.5	0.3
3074	11507	373.732531012153	0.2
3074	11517	374.05329821271	0.3
3074	12544	405.1	0.1
3074	12547	405.3	0.2
3074	12551	405.509089899391	0.2
3074	12556	405.814930352484	0.3
3074	13562	437	0
3074	13566	437.3	0.3
3074	13570	437.50898684865	0.2
3074	13574	437.71707835415	0.2
3074	14598	469.1	0.1
3074	14601	469.3	0.2
3074	14607	469.51396301301	0.2
3074	14611	469.71419786219	0.2
3074	15631	501.1	0.1
3074	15634	501.3	0.2
3074	15638	501.506651895847	0.2
3074	15644	501.816914633253	0.3
3074	16653	533.2	0.2
3074	16658	533.50463881666	0.3
3074	16662	533.712447792931	0.2
3074	16671	534.021521062677	0.3
3074	17696	565.3	0.3
3074	17699	565.5	0.2
3074	17703	565.705907028191	0.2
3074	17708	565.910748965086	0.2
3074	18722	597.1	0.1
3074	18726	597.4	0.3
3074	18731	597.709200896136	0.3
3074	18735	597.914134376297	0.2
3074	19773	629.1	0.1
3074	19777	629.303449742547	0.2
3074	19782	629.505940199651	0.2
3074	19788	629.712720053508	0.2
3074	20778	661.2	0.2
3074	20782	661.5	0.3
3074	20787	661.710235044243	0.2
3074	20791	661.912650716702	0.2
3074	21797	693.2	0.2
3074	21800	693.4	0.2
3074	21804	693.606019767432	0.2
3074	21808	693.812598490342	0.2
3074	22829	725.1	0.1
3074	22832	725.3	0.2
3074	22836	725.502203460084	0.2
3074	22840	725.707457934708	0.2
3074	23869	757.2	0.2
3074	23874	757.507978961009	0.3
3074	23887	757.749537686562	0.2
3074	23893	757.963868906247	0.2
3074	24982	789.1	0.1
3074	24985	789.3	0.2
3074	24993	789.613208751486	0.3
3074	24999	789.930338908538	0.3
3074	26017	821.1	0.1
3074	26023	821.322799426114	0.2
3074	26031	821.639795346543	0.3
3074	26035	821.84801859991	0.2
3074	27074	853.2	0.2
3074	27081	853.427734358397	0.2
3074	27086	853.630148081285	0.2
3074	27098	853.868801717626	0.2
3074	28116	885	0
3074	28120	885.3	0.3
3074	28127	885.523914795963	0.2
3074	28138	885.866833683609	0.3
3074	29157	917	0
3074	29172	917.3	0.3
3074	29177	917.609721098577	0.3
3074	29181	917.813317548532	0.2
3074	30188	949.2	0.2
3074	30191	949.4	0.2
3074	30197	949.713577468476	0.3
3074	30204	949.936241038172	0.2
3074	31206	981.1	0.1
3074	31210	981.4	0.3
3074	31214	981.600456746593	0.2
3074	31218	981.805001929153	0.2
3074	32255	1013.1	0.1
3074	32259	1013.4	0.3
3074	32265	1013.617794083603	0.2
3074	32272	1013.840684200555	0.2
3074	33283	1045.1	0.1
3074	33287	1045.4	0.3
3074	33292	1045.61910029383	0.2
3074	33303	1045.845382298805	0.2
3074	34372	1077.1	0.1
3074	34376	1077.4	0.3
3074	34380	1077.600343318253	0.2
3074	34384	1077.802515952381	0.2
3074	35421	1109.2	0.2
3074	35425	1109.5	0.3
3074	35429	1109.707774535976	0.2
3074	35435	1109.922210299178	0.2
3074	36445	1141.1	0.1
3074	36448	1141.3	0.2
3074	36452	1141.504751171825	0.2
3074	36459	1141.720260023585	0.2
3074	37481	1173.3	0.3
3074	37484	1173.5	0.2
3074	37488	1173.709023016875	0.2
3074	37496	1174.009038539503	0.3
3074	38481	1205.2	0.2
3074	38486	1205.509408976775	0.3
3074	38492	1205.718989187513	0.2
3074	38496	1205.919068873991	0.2
3074	39527	1237.1	0.1
3074	39531	1237.4	0.3
3074	39535	1237.605904816589	0.2
3074	39540	1237.813217085037	0.2
3074	40571	1269.2	0.2
3074	40575	1269.5	0.3
3074	40579	1269.700102576471	0.2
3074	40586	1269.91910322811	0.2
3074	41598	1301.1	0.1
3074	41601	1301.3	0.2
3074	41606	1301.509145938651	0.2
3074	41610	1301.711554172573	0.2
3074	42660	1333.1	0.1
3074	42663	1333.3	0.2
3074	42667	1333.503935767612	0.2
3074	42674	1333.725006081637	0.2
3074	43681	1365.3	0.3
3074	43684	1365.5	0.2
3074	43691	1365.814542706612	0.3
3074	43706	1366.122651240662	0.3
3074	44705	1397	0
3074	44710	1397.307888720124	0.3
3074	44715	1397.520949054623	0.2
3074	44721	1397.741854461884	0.2
3074	45774	1429.1	0.1
3074	45778	1429.300949873796	0.2
3074	45783	1429.505818286572	0.2
3074	45787	1429.70690124736	0.2
3074	46774	1461.2	0.2
3074	46778	1461.40701997739	0.2
3074	46783	1461.713895529629	0.3
3074	46788	1461.92392656363	0.2
3074	47800	1493.1	0.1
3074	47815	1493.3	0.2
3074	47820	1493.430362279735	0.2
3074	47823	1493.509557050599	0.2
3074	48851	1525	0
3074	48856	1525.300668868089	0.3
3074	48862	1525.51442323473	0.2
3074	48879	1525.839223355843	0.3
3074	49918	1557.3	0.3
3074	49922	1557.6	0.3
3074	49926	1557.809229926695	0.2
3074	49933	1558.014971968214	0.2
3074	50969	1589.1	0.1
3074	50972	1589.3	0.2
3074	50978	1589.506551418442	0.2
3074	50983	1589.810764062639	0.3
3074	52024	1621.2	0.2
3074	52027	1621.4	0.2
3074	52031	1621.609211317244	0.2
3074	52037	1621.922570209273	0.3
3074	53046	1653.2	0.2
3074	53055	1653.423748078786	0.2
3074	53060	1653.639562862835	0.2
3074	53066	1653.956679647928	0.3
3074	54098	1685.3	0.3
3074	54102	1685.6	0.3
3074	54107	1685.90574841838	0.3
3074	54119	1686.1087570868	0.2
3074	55109	1717.1	0.1
3074	55113	1717.4	0.3
3074	55117	1717.602981507652	0.2
3074	55129	1717.859985025708	0.2
3074	56161	1749.1	0.1
3074	56166	1749.402153731209	0.3
3074	56172	1749.716950997573	0.3
3074	56180	1750.026520511834	0.3
3074	57193	1781.2	0.2
3074	57199	1781.406757997976	0.2
3074	57203	1781.61106477689	0.2
3074	57219	1781.868856172675	0.2
3074	58253	1813	0
3074	58256	1813.2	0.2
3074	58260	1813.403751790502	0.2
3074	58264	1813.611407450732	0.2
3074	59308	1845.1	0.1
3074	59311	1845.3	0.2
3074	59318	1845.608805769226	0.3
3074	59322	1845.814377890355	0.2
3074	60328	1877	0
3074	60331	1877.2	0.2
3074	60337	1877.412731480161	0.2
3074	60344	1877.639717590581	0.2
3074	61329	1909.3	0.3
3074	61333	1909.6	0.3
3074	61337	1909.800291806848	0.2
3074	61344	1910.001747201739	0.2
3074	62329	1941.1	0.1
3074	62332	1941.3	0.2
3074	62337	1941.506705367851	0.2
3074	62342	1941.720407327869	0.2
3074	63338	1973.2	0.2
3074	63341	1973.4	0.2
3074	63349	1973.725797695673	0.3
3074	63356	1973.941060294957	0.2
3074	64397	2005.2	0.2
3074	64401	2005.405584704051	0.2
3074	64408	2005.618721649668	0.2
3074	64414	2005.83001230881	0.2
3074	65439	2037.1	0.1
3074	65443	2037.4	0.3
3074	65447	2037.601505655949	0.2
3074	65454	2037.918166910437	0.3
3075	67	22.1	1
3075	70	22.3	1
3075	75	22.603084103788	2
3075	79	22.807992964679	1
3075	1102	54.2	3
3075	1105	54.4	1
3075	1109	54.60876694306	1
3075	1113	54.816497515672	1
3075	2177	86.1	1
3075	2180	86.3	1
3075	2185	86.60180273927	2
3075	2189	86.807047541934	1
3075	3267	118.1	1
3075	3272	118.407321455851	2
3075	3276	118.609861147776	1
3075	3284	118.836266105602	1
3075	4295	150.1	1
3075	4299	150.4	2
3075	4304	150.613504861038	1
3075	4311	150.830057141286	1
3075	5350	182	0
3075	5353	182.2	1
3075	5360	182.417342254483	1
3075	5364	182.618752222704	1
3075	6372	214.1	1
3075	6376	214.4	2
3075	6382	214.620454843169	1
3075	6389	214.848055654386	1
3075	7395	246.1	1
3075	7400	246.404994623577	2
3075	7407	246.714950551263	2
3075	7413	246.928095166519	1
3075	8428	278.2	2
3075	8432	278.5	2
3075	8437	278.712874241139	1
3075	8441	278.918511193667	1
3075	9447	310.2	2
3075	9451	310.5	2
3075	9456	310.804490699197	2
3075	9481	311.137633185025	2
3075	10493	342	0
3075	10497	342.3	2
3075	10502	342.607088410896	2
3075	10508	342.831614162573	1
3075	11531	374.1	1
3075	11534	374.3	1
3075	11538	374.502724161529	1
3075	11542	374.710871734534	1
3075	12573	406.1	1
3075	12577	406.4	2
3075	12582	406.613471351226	1
3075	12593	406.851890865816	1
3075	13591	438.1	1
3075	13598	438.325488238128	1
3075	13604	438.635051668007	2
3075	13616	438.898474294353	1
3075	14628	470.1	1
3075	14633	470.402496271783	2
3075	14637	470.606099832798	1
3075	14642	470.82540743596	1
3075	15662	502.2	2
3075	15665	502.4	1
3075	15670	502.604762713694	1
3075	15680	502.923108936514	2
3075	16685	534.1	1
3075	16689	534.307918469076	1
3075	16694	534.613285874441	2
3075	16698	534.822892719542	1
3075	17725	566.1	1
3075	17729	566.4	2
3075	17733	566.606292270631	1
3075	17739	566.816504592213	1
3075	18751	598	0
3075	18754	598.2	1
3075	18759	598.505823812037	2
3075	18763	598.710009499761	1
3075	19805	630.1	1
3075	19810	630.403761845866	2
3075	19814	630.607696026521	1
3075	19818	630.817448290848	1
3075	20808	662.1	1
3075	20813	662.40003590384	2
3075	20818	662.612355732544	1
3075	20823	662.824896985153	1
3075	21826	694.2	2
3075	21830	694.5	2
3075	21834	694.702629294146	1
3075	21840	694.91821882902	1
3075	22858	726.2	2
3075	22863	726.504878269813	2
3075	22869	726.71787689998	1
3075	22874	726.932927829282	1
3075	23910	758.1	1
3075	23914	758.4	2
3075	23921	758.621013543548	1
3075	23930	758.849503971389	1
3075	25016	790.1	1
3075	25019	790.3	1
3075	25025	790.507766449056	1
3075	25030	790.711909091808	1
3075	26053	822.2	2
3075	26056	822.4	1
3075	26060	822.600154399219	1
3075	26066	822.820585330591	1
3075	27115	854.1	1
3075	27119	854.4	2
3075	27124	854.612954225073	1
3075	27128	854.819707315977	1
3075	28155	886.1	1
3075	28158	886.3	1
3075	28163	886.602732712149	2