file 938696 1369674152                                          
version 2
run Stability-124-20130525-17:50:25-19193
attr configname Stability
attr datetime 20130525-17:50:25
attr experiment Stability
attr inifile omnetpp.ini
attr iterationvars $0=1e-6
attr iterationvars2 "$0=1e-6, $repetition=4"
attr measurement $0=1e-6
attr network Network
attr processid 19193
attr repetition 4
attr replication #4
attr resultdir results
attr runnumber 124
attr seedset 124
vector 11907  Network.dyn_peer[1]  lookupHopsSig:vector  ETV
11907	34733 9669 33 135649 20.000000002 134.076401753107 320 0 24 1250 7568
vector 11908  Network.dyn_peer[1]  lookupStabilitySig:vector  ETV
11908	44402 10716 33 135649 20.000000002 134.076401753107 320 -2 1 163.79166665673 125.8038194312
vector 11909  Network.dyn_peer[1]  lookupTimeSig:vector  ETV
11909	55118 10279 33 135649 20.000000002 134.076401753107 320 0 2.1 141.5 84.33
vector 11928  Network.dyn_peer[8]  lookupHopsSig:vector  ETV
11928	232564 9557 58 134346 20.000000009 132.765546476263 314 0 19 1272 8516
vector 11929  Network.dyn_peer[8]  lookupStabilitySig:vector  ETV
11929	242121 10551 58 134346 20.000000009 132.765546476263 314 -1.375 1 155 129.0625
vector 11930  Network.dyn_peer[8]  lookupTimeSig:vector  ETV
11930	252672 10121 58 134346 20.000000009 132.765546476263 314 0 1.7 142.4 90.92
vector 11937  Network.dyn_peer[11]  lookupHopsSig:vector  ETV
11937	319161 9430 71 134789 20.000000012 133.174576328379 310 0 15 1264 7816
vector 11938  Network.dyn_peer[11]  lookupStabilitySig:vector  ETV
11938	328591 10493 71 134789 20.000000012 133.174576328379 310 -0.875 1 152.19444438815 116.29745365293
vector 11939  Network.dyn_peer[11]  lookupTimeSig:vector  ETV
11939	339084 10027 71 134789 20.000000012 133.174576328379 310 0 1.4 141.9 86.47
vector 11952  Network.dyn_peer[16]  lookupHopsSig:vector  ETV
11952	471590 9648 90 135421 20.000000017 133.74006364063 318 0 19 1249 7859
vector 11953  Network.dyn_peer[16]  lookupStabilitySig:vector  ETV
11953	481238 10711 90 135421 20.000000017 133.74006364063 318 -1.375 1 161.99999997765 128.66242282221
vector 11954  Network.dyn_peer[16]  lookupTimeSig:vector  ETV
11954	491949 10239 90 135421 20.000000017 133.74006364063 318 0 1.7 140.6 85.06
vector 11910  Network.dyn_peer[2]  lookupHopsSig:vector  ETV
11910	65397 7950 142 135233 20.100000003 133.542770776408 261 0 22 1202 8644
vector 11911  Network.dyn_peer[2]  lookupStabilitySig:vector  ETV
11911	73347 8834 142 135233 20.100000003 133.542770776408 261 -1.75 1 110.9999999404 95.472222235468
vector 11912  Network.dyn_peer[2]  lookupTimeSig:vector  ETV
11912	82181 8425 142 135233 20.100000003 133.542770776408 261 0 1.9 130.8 88.94
vector 11913  Network.dyn_peer[3]  lookupHopsSig:vector  ETV
11913	90606 9128 147 135441 20.100000004 133.74766689085 300 0 18 1173 7081
vector 11914  Network.dyn_peer[3]  lookupStabilitySig:vector  ETV
11914	99734 10157 147 135441 20.100000004 133.74766689085 300 -1.25 1 153.4999999702 117.53240737871
vector 11915  Network.dyn_peer[3]  lookupTimeSig:vector  ETV
11915	109891 9706 147 135441 20.100000004 133.74766689085 300 0 1.7 132.2 78.26
vector 11922  Network.dyn_peer[6]  lookupHopsSig:vector  ETV
11922	175833 8860 154 134403 20.100000007 132.796433250207 291 0 19 1232 8146
vector 11923  Network.dyn_peer[6]  lookupStabilitySig:vector  ETV
11923	184693 9833 154 134403 20.100000007 132.796433250207 291 -1.375 1 137.06944444031 110.36439042695
vector 11924  Network.dyn_peer[6]  lookupTimeSig:vector  ETV
11924	194526 9407 154 134403 20.100000007 132.796433250207 291 0 1.7 136.7 88.03
vector 11934  Network.dyn_peer[10]  lookupHopsSig:vector  ETV
11934	289565 9320 162 135743 20.100000011 134.185590585895 307 0 18 1270 7894
vector 11935  Network.dyn_peer[10]  lookupStabilitySig:vector  ETV
11935	298885 10377 162 135743 20.100000011 134.185590585895 307 -1.25 1 148.33333330601 112.92515429597
vector 11936  Network.dyn_peer[10]  lookupTimeSig:vector  ETV
11936	309262 9899 162 135743 20.100000011 134.185590585895 307 0 1.6 141.6 86.76
vector 11940  Network.dyn_peer[12]  lookupHopsSig:vector  ETV
11940	349111 9180 168 135216 20.100000013 133.536332679409 302 0 40 1328 11018
vector 11941  Network.dyn_peer[12]  lookupStabilitySig:vector  ETV
11941	358291 10177 168 135216 20.100000013 133.536332679409 302 -4 1 136 142.15625
vector 11942  Network.dyn_peer[12]  lookupTimeSig:vector  ETV
11942	368468 9746 168 135216 20.100000013 133.536332679409 302 0 3.8 146 111
vector 11958  Network.dyn_peer[18]  lookupHopsSig:vector  ETV
11958	529551 8980 178 135271 20.100000019 133.582554756917 294 0 18 1187 7537
vector 11959  Network.dyn_peer[18]  lookupStabilitySig:vector  ETV
11959	538531 9955 178 135271 20.100000019 133.582554756917 294 -1.25 1 145.69444441795 115.07253084065
vector 11960  Network.dyn_peer[18]  lookupTimeSig:vector  ETV
11960	548486 9529 178 135271 20.100000019 133.582554756917 294 0 1.8 133.3 81.97
vector 11973  Network.dyn_peer[23]  lookupHopsSig:vector  ETV
11973	676326 8245 187 135102 20.100000024 133.442456454354 271 0 19 1215 8847
vector 11974  Network.dyn_peer[23]  lookupStabilitySig:vector  ETV
11974	684571 9148 187 135102 20.100000024 133.442456454354 271 -1.375 1 119.26388888806 105.49324845532
vector 11975  Network.dyn_peer[23]  lookupTimeSig:vector  ETV
11975	693719 8746 187 135102 20.100000024 133.442456454354 271 0 1.8 133.6 92.96
vector 11982  Network.dyn_peer[26]  lookupHopsSig:vector  ETV
11982	760177 9205 194 135519 20.100000027 133.84766689085 303 0 17 1203 7665
vector 11983  Network.dyn_peer[26]  lookupStabilitySig:vector  ETV
11983	769382 10212 194 135519 20.100000027 133.84766689085 303 -1.125 1 152.8749999553 121.97781637826
vector 11984  Network.dyn_peer[26]  lookupTimeSig:vector  ETV
11984	779594 9771 194 135519 20.100000027 133.84766689085 303 0 1.6 137.1 85.21
vector 11988  Network.dyn_peer[28]  lookupHopsSig:vector  ETV
11988	820603 8705 200 135123 20.100000029 133.474057966914 286 0 18 1220 8478
vector 11989  Network.dyn_peer[28]  lookupStabilitySig:vector  ETV
11989	829308 9648 200 135123 20.100000029 133.474057966914 286 -1.25 1 133.76388886571 113.56037806949
vector 11990  Network.dyn_peer[28]  lookupTimeSig:vector  ETV
11990	838956 9240 200 135123 20.100000029 133.474057966914 286 0 1.6 135.4 90.5
vector 11997  Network.dyn_peer[31]  lookupHopsSig:vector  ETV
11997	909850 9093 207 133859 20.100000032 132.374492556335 300 0 25 1231 8397
vector 11998  Network.dyn_peer[31]  lookupStabilitySig:vector  ETV
11998	918943 10105 207 133859 20.100000032 132.374492556335 300 -2.125 1 146.23611110449 123.57040894326
vector 11999  Network.dyn_peer[31]  lookupTimeSig:vector  ETV
11999	929048 9648 207 133859 20.100000032 132.374492556335 300 0 2 137.3 88.29
vector 11931  Network.dyn_peer[9]  lookupHopsSig:vector  ETV
11931	262793 8444 223 134604 20.20000001 132.987830878784 278 0 18 1261 8409
vector 11932  Network.dyn_peer[9]  lookupStabilitySig:vector  ETV
11932	271237 9365 223 134604 20.20000001 132.987830878784 278 -1.25 1 120.58333335817 93.989969109679
vector 11933  Network.dyn_peer[9]  lookupTimeSig:vector  ETV
11933	280602 8963 223 134604 20.20000001 132.987830878784 278 0 1.8 138.9 90.79
vector 11955  Network.dyn_peer[17]  lookupHopsSig:vector  ETV
11955	502188 8624 235 134944 20.200000018 133.290654067311 283 0 21 1263 8595
vector 11956  Network.dyn_peer[17]  lookupStabilitySig:vector  ETV
11956	510812 9593 235 134944 20.200000018 133.290654067311 283 -1.625 1 125.23611110449 101.55922067754
vector 11957  Network.dyn_peer[17]  lookupTimeSig:vector  ETV
11957	520405 9146 235 134944 20.200000018 133.290654067311 283 0 1.9 140.9 93.65
vector 11961  Network.dyn_peer[19]  lookupHopsSig:vector  ETV
11961	558015 9525 241 135714 20.20000002 134.10709105936 313 0 29 1233 8527
vector 11962  Network.dyn_peer[19]  lookupStabilitySig:vector  ETV
11962	567540 10560 241 135714 20.20000002 134.10709105936 313 -2.625 1 158.94999998808 138.08374998331
vector 11963  Network.dyn_peer[19]  lookupTimeSig:vector  ETV
11963	578100 10104 241 135714 20.20000002 134.10709105936 313 0 2.6 138.4 91.54
vector 11967  Network.dyn_peer[21]  lookupHopsSig:vector  ETV
11967	617923 8941 247 134870 20.200000022 133.234588543251 294 0 20 1177 7293
vector 11968  Network.dyn_peer[21]  lookupStabilitySig:vector  ETV
11968	626864 9917 247 134870 20.200000022 133.234588543251 294 -1.5 1 146.875 113.703125
vector 11969  Network.dyn_peer[21]  lookupTimeSig:vector  ETV
11969	636781 9497 247 134870 20.200000022 133.234588543251 294 0 1.9 132.1 80.61
vector 11976  Network.dyn_peer[24]  lookupHopsSig:vector  ETV
11976	702465 8951 254 135660 20.200000025 134.083717897988 295 0 15 1181 7209
vector 11977  Network.dyn_peer[24]  lookupStabilitySig:vector  ETV
11977	711416 9935 254 135660 20.200000025 134.083717897988 295 -0.875 1 147.41666665673 112.4444444312
vector 11978  Network.dyn_peer[24]  lookupTimeSig:vector  ETV
11978	721351 9506 254 135660 20.200000025 134.083717897988 295 0 1.5 132.1 79.29
vector 11979  Network.dyn_peer[25]  lookupHopsSig:vector  ETV
11979	730857 9242 259 134683 20.200000026 133.074476329379 304 0 19 1236 7666
vector 11980  Network.dyn_peer[25]  lookupStabilitySig:vector  ETV
11980	740099 10252 259 134683 20.200000026 133.074476329379 304 -1.375 1 149.5 114.78125
vector 11981  Network.dyn_peer[25]  lookupTimeSig:vector  ETV
11981	750351 9826 259 134683 20.200000026 133.074476329379 304 0 1.9 138.8 84.14
vector 11991  Network.dyn_peer[29]  lookupHopsSig:vector  ETV
11991	848196 10010 267 134062 20.20000003 132.513100874974 328 0 19 1246 7628
vector 11992  Network.dyn_peer[29]  lookupStabilitySig:vector  ETV
11992	858206 11109 267 134062 20.20000003 132.513100874974 328 -1.375 1 172.31944444031 135.77064042695
vector 11993  Network.dyn_peer[29]  lookupTimeSig:vector  ETV
11993	869315 10620 267 134062 20.20000003 132.513100874974 328 0 1.9 140.4 84.28
vector 11916  Network.dyn_peer[4]  lookupHopsSig:vector  ETV
11916	119597 8713 287 135481 20.300000005 133.802101692092 286 0 20 1301 9711
vector 11917  Network.dyn_peer[4]  lookupStabilitySig:vector  ETV
11917	128310 9610 287 135481 20.300000005 133.802101692092 286 -1.5 1 123.375 112.484375
vector 11918  Network.dyn_peer[4]  lookupTimeSig:vector  ETV
11918	137920 9232 287 135481 20.300000005 133.802101692092 286 0 1.7 142.7 101.37
vector 11919  Network.dyn_peer[5]  lookupHopsSig:vector  ETV
11919	147152 9043 292 135817 20.300000006 134.738383285991 297 0 18 1248 8542
vector 11920  Network.dyn_peer[5]  lookupStabilitySig:vector  ETV
11920	156195 10044 292 135817 20.300000006 134.738383285991 297 -1.25 1 141.01388888806 118.49324845532
vector 11921  Network.dyn_peer[5]  lookupTimeSig:vector  ETV
11921	166239 9594 292 135817 20.300000006 134.738383285991 297 0 1.6 139.6 91.42
vector 11943  Network.dyn_peer[13]  lookupHopsSig:vector  ETV
11943	378214 9257 302 134690 20.300000014 133.074576328379 305 0 22 1211 7539
vector 11944  Network.dyn_peer[13]  lookupStabilitySig:vector  ETV
11944	387471 10282 302 134690 20.300000014 133.074576328379 305 -1.75 1 153.65277777612 120.08931326903
vector 11945  Network.dyn_peer[13]  lookupTimeSig:vector  ETV
11945	397753 9846 302 134690 20.300000014 133.074576328379 305 0.1 1.9 137.9 84.13
vector 11964  Network.dyn_peer[20]  lookupHopsSig:vector  ETV
11964	588204 9370 314 135686 20.300000021 134.089834024037 308 0 36 1200 8656
vector 11965  Network.dyn_peer[20]  lookupStabilitySig:vector  ETV
11965	597574 10409 314 135686 20.300000021 134.089834024037 308 -3.5 1 158 143.25
vector 11966  Network.dyn_peer[20]  lookupTimeSig:vector  ETV
11966	607983 9940 314 135686 20.300000021 134.089834024037 308 0 3.5 135.2 92.88
vector 11970  Network.dyn_peer[22]  lookupHopsSig:vector  ETV
11970	646278 9482 320 135049 20.300000023 133.392496292915 312 0 18 1204 7380
vector 11971  Network.dyn_peer[22]  lookupStabilitySig:vector  ETV
11971	655760 10505 320 135049 20.300000023 133.392496292915 312 -1.25 1 161.69444441795 126.38001542033
vector 11972  Network.dyn_peer[22]  lookupTimeSig:vector  ETV
11972	666265 10061 320 135049 20.300000023 133.392496292915 312 0 1.5 136.4 81.64
vector 11985  Network.dyn_peer[27]  lookupHopsSig:vector  ETV
11985	789365 9854 329 135625 20.300000028 134.004796897068 323 0 22 1245 7849
vector 11986  Network.dyn_peer[27]  lookupStabilitySig:vector  ETV
11986	799219 10931 329 135625 20.300000028 134.004796897068 323 -1.75 1 167.44444443285 134.49344134184
vector 11987  Network.dyn_peer[27]  lookupTimeSig:vector  ETV
11987	810150 10453 329 135625 20.300000028 134.004796897068 323 0 1.9 141 86.42
vector 11994  Network.dyn_peer[30]  lookupHopsSig:vector  ETV
11994	879935 9426 336 135799 20.300000031 134.404141182367 310 0 17 1240 7664
vector 11995  Network.dyn_peer[30]  lookupStabilitySig:vector  ETV
11995	889361 10472 336 135799 20.300000031 134.404141182367 310 -1.125 1 155.41111107171 120.01129625819
vector 11996  Network.dyn_peer[30]  lookupTimeSig:vector  ETV
11996	899833 10017 336 135799 20.300000031 134.404141182367 310 0 1.5 139.8 85.1
vector 11925  Network.dyn_peer[7]  lookupHopsSig:vector  ETV
11925	203933 9039 367 134651 20.400000008 133.02837915787 297 0 26 1271 8779
vector 11926  Network.dyn_peer[7]  lookupStabilitySig:vector  ETV
11926	212972 9996 367 134651 20.400000008 133.02837915787 297 -2.25 1 138.15277777612 116.46431326903
vector 11927  Network.dyn_peer[7]  lookupTimeSig:vector  ETV
11927	222968 9596 367 134651 20.400000008 133.02837915787 297 0 2.4 141.7 95.45
vector 11946  Network.dyn_peer[14]  lookupHopsSig:vector  ETV
11946	407599 10245 375 135663 20.400000015 134.084150067015 337 0 17 1245 6985
vector 11947  Network.dyn_peer[14]  lookupStabilitySig:vector  ETV
11947	417844 11381 375 135663 20.400000015 134.084150067015 337 -1.125 1 181.45833332837 135.01793980709
vector 11948  Network.dyn_peer[14]  lookupTimeSig:vector  ETV
11948	429225 10889 375 135663 20.400000015 134.084150067015 337 0 1.6 141.9 79.49
vector 11949  Network.dyn_peer[15]  lookupHopsSig:vector  ETV
11949	440114 9929 440 134469 20.500000016 132.874376328379 327 0 15 1164 6266
vector 11950  Network.dyn_peer[15]  lookupStabilitySig:vector  ETV
11950	450043 11000 440 134469 20.500000016 132.874376328379 327 -0.875 1 181.56944443285 134.00250770023
vector 11951  Network.dyn_peer[15]  lookupTimeSig:vector  ETV
11951	461043 10547 440 134469 20.500000016 132.874376328379 327 0 1.5 134.5 73.41
vector 11904  Network.dyn_peer[0]  lookupHopsSig:vector  ETV
11904	6480 8921 554 135776 20.700000001 134.295619786681 293 0 18 1219 7831
vector 11905  Network.dyn_peer[0]  lookupStabilitySig:vector  ETV
11905	15401 9857 554 135776 20.700000001 134.295619786681 293 -1.25 1 140.75 110.59375
vector 11906  Network.dyn_peer[0]  lookupTimeSig:vector  ETV
11906	25258 9475 554 135776 20.700000001 134.295619786681 293 0 1.7 136.6 85.32
