file 928325 1369674152                                          
version 2
run Stability-130-20130525-17:50:50-19193
attr configname Stability
attr datetime 20130525-17:50:50
attr experiment Stability
attr inifile omnetpp.ini
attr iterationvars $0=1e-7
attr iterationvars2 "$0=1e-7, $repetition=0"
attr measurement $0=1e-7
attr network Network
attr processid 19193
attr repetition 0
attr replication #0
attr resultdir results
attr runnumber 130
attr seedset 130
vector 12507  Network.dyn_peer[9]  lookupHopsSig:vector  ETV
12507	265619 9593 56 136640 20.000000001 134.586019975696 316 0 15 1352 8656
vector 12508  Network.dyn_peer[9]  lookupStabilitySig:vector  ETV
12508	275212 10621 56 136640 20.000000001 134.586019975696 316 -0.875 1 147 113.25
vector 12509  Network.dyn_peer[9]  lookupTimeSig:vector  ETV
12509	285833 10181 56 136640 20.000000001 134.586019975696 316 0 1.3 150.1 93.19
vector 12510  Network.dyn_peer[10]  lookupHopsSig:vector  ETV
12510	296014 8618 63 135715 20.0000000011 133.739360553748 283 0 18 1192 7742
vector 12511  Network.dyn_peer[10]  lookupStabilitySig:vector  ETV
12511	304632 9573 63 135715 20.0000000011 133.739360553748 283 -1.25 1 134.08333332837 106.06983024066
vector 12512  Network.dyn_peer[10]  lookupTimeSig:vector  ETV
12512	314205 9140 63 135715 20.0000000011 133.739360553748 283 0 1.7 133 85.14
vector 12528  Network.dyn_peer[16]  lookupHopsSig:vector  ETV
12528	472478 9158 85 136152 20.0000000017 134.101265991667 301 0 19 1291 8771
vector 12529  Network.dyn_peer[16]  lookupStabilitySig:vector  ETV
12529	481636 10162 85 136152 20.0000000017 134.101265991667 301 -1.375 1 139.625 115.296875
vector 12530  Network.dyn_peer[16]  lookupTimeSig:vector  ETV
12530	491798 9704 85 136152 20.0000000017 134.101265991667 301 0 1.7 142.1 93.15
vector 12531  Network.dyn_peer[17]  lookupHopsSig:vector  ETV
12531	501502 9060 92 135935 20.0000000018 133.923574465723 298 0 25 1241 8257
vector 12532  Network.dyn_peer[17]  lookupStabilitySig:vector  ETV
12532	510562 10051 92 135935 20.0000000018 133.923574465723 298 -2.125 1 142.91666665673 116.8194444312
vector 12533  Network.dyn_peer[17]  lookupTimeSig:vector  ETV
12533	520613 9622 92 135935 20.0000000018 133.923574465723 298 0 2 136.9 85.05
vector 12486  Network.dyn_peer[2]  lookupHopsSig:vector  ETV
12486	60950 8933 142 136934 20.1000000003 135.35100130055 294 0 18 1217 7755
vector 12487  Network.dyn_peer[2]  lookupStabilitySig:vector  ETV
12487	69883 9914 142 136934 20.1000000003 135.35100130055 294 -1.25 1 141.97222220153 110.99498455318
vector 12488  Network.dyn_peer[2]  lookupTimeSig:vector  ETV
12488	79797 9489 142 136934 20.1000000003 135.35100130055 294 0 1.7 136.5 85.39
vector 12489  Network.dyn_peer[3]  lookupHopsSig:vector  ETV
12489	89286 10052 147 135843 20.1000000004 133.873429738308 331 0 16 1320 8244
vector 12490  Network.dyn_peer[3]  lookupStabilitySig:vector  ETV
12490	99338 11133 147 135843 20.1000000004 133.873429738308 331 -1 1 166 129.8125
vector 12491  Network.dyn_peer[3]  lookupTimeSig:vector  ETV
12491	110471 10675 147 135843 20.1000000004 133.873429738308 331 0 1.6 149.3 91.89
vector 12495  Network.dyn_peer[5]  lookupHopsSig:vector  ETV
12495	150056 9167 153 135807 20.1000000006 133.841023955051 301 0 20 1243 8179
vector 12496  Network.dyn_peer[5]  lookupStabilitySig:vector  ETV
12496	159223 10199 153 135807 20.1000000006 133.841023955051 301 -1.5 1 145.81944438815 118.24556321936
vector 12497  Network.dyn_peer[5]  lookupTimeSig:vector  ETV
12497	169422 9736 153 135807 20.1000000006 133.841023955051 301 0 1.8 139.2 87.84
vector 12501  Network.dyn_peer[7]  lookupHopsSig:vector  ETV
12501	206549 9306 159 135832 20.1000000008 133.866804799678 306 1 16 1275 7283
vector 12502  Network.dyn_peer[7]  lookupStabilitySig:vector  ETV
12502	215855 10290 159 135832 20.1000000008 133.866804799678 306 -1 0.875 146.76388883591 101.1606866813
vector 12503  Network.dyn_peer[7]  lookupTimeSig:vector  ETV
12503	226145 9896 159 135832 20.1000000008 133.866804799678 306 0.1 1.4 142.9 82.81
vector 12504  Network.dyn_peer[8]  lookupHopsSig:vector  ETV
12504	236041 9335 164 134946 20.1000000009 133.023555085434 307 0 17 1273 8315
vector 12505  Network.dyn_peer[8]  lookupStabilitySig:vector  ETV
12505	245376 10334 164 134946 20.1000000009 133.023555085434 307 -1.125 1 147.875 118.671875
vector 12506  Network.dyn_peer[8]  lookupTimeSig:vector  ETV
12506	255710 9909 164 134946 20.1000000009 133.023555085434 307 0 1.8 142.4 91.34
vector 12516  Network.dyn_peer[12]  lookupHopsSig:vector  ETV
12516	353893 9701 171 136686 20.1000000013 134.635038623536 319 0 19 1255 7787
vector 12517  Network.dyn_peer[12]  lookupStabilitySig:vector  ETV
12517	363594 10737 171 136686 20.1000000013 134.635038623536 319 -1.375 1 162.125 126.921875
vector 12518  Network.dyn_peer[12]  lookupTimeSig:vector  ETV
12518	374331 10303 171 136686 20.1000000013 134.635038623536 319 0 1.8 140.9 84.75
vector 12522  Network.dyn_peer[14]  lookupHopsSig:vector  ETV
12522	412940 9522 177 136124 20.1000000015 134.085633907133 314 0 20 1278 8090
vector 12523  Network.dyn_peer[14]  lookupStabilitySig:vector  ETV
12523	422462 10578 177 136124 20.1000000015 134.085633907133 314 -1.5 1 154.40277774632 121.11014656263
vector 12524  Network.dyn_peer[14]  lookupTimeSig:vector  ETV
12524	433040 10094 177 136124 20.1000000015 134.085633907133 314 0 1.7 143.4 89.9
vector 12543  Network.dyn_peer[21]  lookupHopsSig:vector  ETV
12543	611033 10031 188 135979 20.1000000022 133.969377385476 330 0 33 1248 8298
vector 12544  Network.dyn_peer[21]  lookupStabilitySig:vector  ETV
12544	621064 11094 188 135979 20.1000000022 133.969377385476 330 -3.125 1 174.01388888806 147.68074845532
vector 12545  Network.dyn_peer[21]  lookupTimeSig:vector  ETV
12545	632158 10646 188 135979 20.1000000022 133.969377385476 330 0 3 142.7 92.27
vector 12552  Network.dyn_peer[24]  lookupHopsSig:vector  ETV
12552	698920 9246 195 136001 20.1000000025 133.978651046613 303 0 17 1358 8886
vector 12553  Network.dyn_peer[24]  lookupStabilitySig:vector  ETV
12553	708166 10228 195 136001 20.1000000025 133.978651046613 303 -1.125 1 133.27777777612 102.38618826903
vector 12554  Network.dyn_peer[24]  lookupTimeSig:vector  ETV
12554	718394 9817 195 136001 20.1000000025 133.978651046613 303 0 1.6 151.7 98.39
vector 12564  Network.dyn_peer[28]  lookupHopsSig:vector  ETV
12564	812751 9443 203 135897 20.1000000029 133.893834446187 311 0 20 1282 7908
vector 12565  Network.dyn_peer[28]  lookupStabilitySig:vector  ETV
12565	822194 10468 203 135897 20.1000000029 133.893834446187 311 -1.5 1 150.81944444031 114.17187499338
vector 12566  Network.dyn_peer[28]  lookupTimeSig:vector  ETV
12566	832662 10029 203 135897 20.1000000029 133.893834446187 311 0 1.8 143.4 86.3
vector 12483  Network.dyn_peer[1]  lookupHopsSig:vector  ETV
12483	34384 8392 218 136498 20.2000000002 134.436482264702 275 0 29 1245 9591
vector 12484  Network.dyn_peer[1]  lookupStabilitySig:vector  ETV
12484	42776 9274 218 136498 20.2000000002 134.436482264702 275 -2.625 1 119.41666665673 113.6631944312
vector 12485  Network.dyn_peer[1]  lookupTimeSig:vector  ETV
12485	52050 8900 218 136498 20.2000000002 134.436482264702 275 0 2.4 134.9 97.73
vector 12513  Network.dyn_peer[11]  lookupHopsSig:vector  ETV
12513	323345 9630 229 136054 20.2000000012 134.02704879954 316 0 23 1344 9496
vector 12514  Network.dyn_peer[11]  lookupStabilitySig:vector  ETV
12514	332975 10701 229 136054 20.2000000012 134.02704879954 316 -1.875 1 148.04166665673 128.4288194312
vector 12515  Network.dyn_peer[11]  lookupTimeSig:vector  ETV
12515	343676 10217 229 136054 20.2000000012 134.02704879954 316 0 2.2 150 102.2
vector 12519  Network.dyn_peer[13]  lookupHopsSig:vector  ETV
12519	384634 8930 235 136853 20.2000000014 134.807396784448 294 0 19 1240 8126
vector 12520  Network.dyn_peer[13]  lookupStabilitySig:vector  ETV
12520	393564 9886 235 136853 20.2000000014 134.807396784448 294 -1.375 1 139.19444441795 111.01003084065
vector 12521  Network.dyn_peer[13]  lookupTimeSig:vector  ETV
12521	403450 9490 235 136853 20.2000000014 134.807396784448 294 0 1.7 137.1 85.85
vector 12534  Network.dyn_peer[18]  lookupHopsSig:vector  ETV
12534	530235 8257 245 136764 20.2000000019 134.701908830385 271 0 22 1218 8668
vector 12535  Network.dyn_peer[18]  lookupStabilitySig:vector  ETV
12535	538492 9142 245 136764 20.2000000019 134.701908830385 271 -1.75 1 118.75 101.9375
vector 12536  Network.dyn_peer[18]  lookupTimeSig:vector  ETV
12536	547634 8752 245 136764 20.2000000019 134.701908830385 271 0 1.9 133.1 90.79
vector 12546  Network.dyn_peer[22]  lookupHopsSig:vector  ETV
12546	642804 8256 253 136444 20.2000000023 134.390539607259 272 0 21 1188 7972
vector 12547  Network.dyn_peer[22]  lookupStabilitySig:vector  ETV
12547	651060 9150 253 136444 20.2000000023 134.390539607259 272 -1.625 1 123.56944444031 99.645640426948
vector 12548  Network.dyn_peer[22]  lookupTimeSig:vector  ETV
12548	660210 8766 253 136444 20.2000000023 134.390539607259 272 0 2 132.8 88.2
vector 12558  Network.dyn_peer[26]  lookupHopsSig:vector  ETV
12558	755944 9068 260 136785 20.2000000027 134.725634424296 298 0 17 1228 8358
vector 12559  Network.dyn_peer[26]  lookupStabilitySig:vector  ETV
12559	765012 10019 260 136785 20.2000000027 134.725634424296 298 -1.125 1 144.5 121.59375
vector 12560  Network.dyn_peer[26]  lookupTimeSig:vector  ETV
12560	775031 9625 260 136785 20.2000000027 134.725634424296 298 0 1.7 137.5 89.93
vector 12567  Network.dyn_peer[29]  lookupHopsSig:vector  ETV
12567	842691 9088 267 136102 20.200000003 134.078651046713 299 0 19 1262 8576
vector 12568  Network.dyn_peer[29]  lookupStabilitySig:vector  ETV
12568	851779 10120 267 136102 20.200000003 134.078651046713 299 -1.375 1 141.4444444254 117.69212961418
vector 12569  Network.dyn_peer[29]  lookupTimeSig:vector  ETV
12569	861899 9641 267 136102 20.200000003 134.078651046713 299 0 1.8 141.9 94.13
vector 12570  Network.dyn_peer[30]  lookupHopsSig:vector  ETV
12570	871540 8413 272 135689 20.2000000031 133.720582265047 276 0 27 1225 9013
vector 12571  Network.dyn_peer[30]  lookupStabilitySig:vector  ETV
12571	879953 9336 272 135689 20.2000000031 133.720582265047 276 -2.375 1 122.875 110.578125
vector 12572  Network.dyn_peer[30]  lookupTimeSig:vector  ETV
12572	889289 8929 272 135689 20.2000000031 133.720582265047 276 0 2.4 135 94.2
vector 12492  Network.dyn_peer[4]  lookupHopsSig:vector  ETV
12492	121146 9104 290 135465 20.3000000005 133.507001971843 300 0 20 1288 8834
vector 12493  Network.dyn_peer[4]  lookupStabilitySig:vector  ETV
12493	130250 10135 290 135465 20.3000000005 133.507001971843 300 -1.5 1 139 116.03125
vector 12494  Network.dyn_peer[4]  lookupTimeSig:vector  ETV
12494	140385 9671 290 135465 20.3000000005 133.507001971843 300 0 1.8 143.3 94.19
vector 12525  Network.dyn_peer[15]  lookupHopsSig:vector  ETV
12525	443134 9251 302 135927 20.3000000016 133.91995864371 304 0 21 1316 8756
vector 12526  Network.dyn_peer[15]  lookupStabilitySig:vector  ETV
12526	452385 10263 302 135927 20.3000000016 133.91995864371 304 -1.625 1 139.54166665673 111.8663194312
vector 12527  Network.dyn_peer[15]  lookupTimeSig:vector  ETV
12527	462648 9830 302 135927 20.3000000016 133.91995864371 304 0.1 1.8 147.4 95.46
vector 12540  Network.dyn_peer[20]  lookupHopsSig:vector  ETV
12540	585957 7904 311 136945 20.3000000021 135.423972157482 259 1 18 1262 9544
vector 12541  Network.dyn_peer[20]  lookupStabilitySig:vector  ETV
12541	593861 8789 311 136945 20.3000000021 135.423972157482 259 -1.25 0.88888888806105 101.41666661948 92.755015393834
vector 12542  Network.dyn_peer[20]  lookupTimeSig:vector  ETV
12542	602650 8383 311 136945 20.3000000021 135.423972157482 259 0.1 1.8 136 97.86
vector 12549  Network.dyn_peer[23]  lookupHopsSig:vector  ETV
12549	668976 9436 319 136282 20.3000000024 134.230223656517 310 0 21 1341 9163
vector 12550  Network.dyn_peer[23]  lookupStabilitySig:vector  ETV
12550	678412 10496 319 136282 20.3000000024 134.230223656517 310 -1.625 1 142.62499994785 117.90374229315
vector 12551  Network.dyn_peer[23]  lookupTimeSig:vector  ETV
12551	688908 10012 319 136282 20.3000000024 134.230223656517 310 0 1.9 148.1 98.27
vector 12561  Network.dyn_peer[27]  lookupHopsSig:vector  ETV
12561	784656 8868 326 136352 20.3000000028 134.294811071357 291 0 25 1295 9717
vector 12562  Network.dyn_peer[27]  lookupStabilitySig:vector  ETV
12562	793524 9826 326 136352 20.3000000028 134.294811071357 291 -2.125 1 129.15277777612 119.12056326903
vector 12563  Network.dyn_peer[27]  lookupTimeSig:vector  ETV
12563	803350 9401 326 136352 20.3000000028 134.294811071357 291 0 2.2 143 101.68
vector 12573  Network.dyn_peer[31]  lookupHopsSig:vector  ETV
12573	898218 9501 333 136721 20.3000000032 134.667083415265 312 0 13 1236 7440
vector 12574  Network.dyn_peer[31]  lookupStabilitySig:vector  ETV
12574	907719 10520 333 136721 20.3000000032 134.667083415265 312 -0.625 1 157.61111109704 119.38695985815
vector 12575  Network.dyn_peer[31]  lookupTimeSig:vector  ETV
12575	918239 10086 333 136721 20.3000000032 134.667083415265 312 0 1.4 139.9 84.37
vector 12498  Network.dyn_peer[6]  lookupHopsSig:vector  ETV
12498	179158 8642 413 136236 20.5000000007 134.189984706236 284 0 19 1257 8547
vector 12499  Network.dyn_peer[6]  lookupStabilitySig:vector  ETV
12499	187800 9583 413 136236 20.5000000007 134.189984706236 284 -1.375 1 126.93055555224 103.35551697163
vector 12500  Network.dyn_peer[6]  lookupTimeSig:vector  ETV
12500	197383 9166 413 136236 20.5000000007 134.189984706236 284 0 1.5 138.8 91.04
vector 12537  Network.dyn_peer[19]  lookupHopsSig:vector  ETV
12537	556386 9324 426 136386 20.500000002 134.33177261471 306 0 24 1241 8147
vector 12538  Network.dyn_peer[19]  lookupStabilitySig:vector  ETV
12538	565710 10355 426 136386 20.500000002 134.33177261471 306 -2 1 151.05555551499 123.2407406988
vector 12539  Network.dyn_peer[19]  lookupTimeSig:vector  ETV
12539	576065 9892 426 136386 20.500000002 134.33177261471 306 0 2.2 138.4 86.52
vector 12480  Network.dyn_peer[0]  lookupHopsSig:vector  ETV
12480	6480 8805 481 136874 20.6000000001 134.842321230128 290 0 16 1195 7417
vector 12481  Network.dyn_peer[0]  lookupStabilitySig:vector  ETV
12481	15285 9749 481 136874 20.6000000001 134.842321230128 290 -1 1 140.75 107.125
vector 12482  Network.dyn_peer[0]  lookupTimeSig:vector  ETV
12482	25034 9350 481 136874 20.6000000001 134.842321230128 290 0 1.7 133.4 82.26
vector 12555  Network.dyn_peer[25]  lookupHopsSig:vector  ETV
12555	728211 8749 613 136706 20.8000000026 134.651809030449 288 0 21 1293 9075
vector 12556  Network.dyn_peer[25]  lookupStabilitySig:vector  ETV
12556	736960 9699 613 136706 20.8000000026 134.651809030449 288 -1.625 1 126.44444441795 106.60378084065
vector 12557  Network.dyn_peer[25]  lookupTimeSig:vector  ETV
12557	746659 9285 613 136706 20.8000000026 134.651809030449 288 0 1.9 143.1 97.63
