version 2
run Stability-54-20130525-17:45:35-19193
attr configname Stability
attr datetime 20130525-17:45:35
attr experiment Stability
attr inifile omnetpp.ini
attr iterationvars $0=1e1
attr iterationvars2 "$0=1e1, $repetition=4"
attr measurement $0=1e1
attr network Network
attr processid 19193
attr repetition 4
attr replication #4
attr resultdir results
attr runnumber 54
attr seedset 54

vector 5187  Network.dyn_peer[1]  lookupHopsSig:vector  ETV
vector 5188  Network.dyn_peer[1]  lookupStabilitySig:vector  ETV
vector 5189  Network.dyn_peer[1]  lookupTimeSig:vector  ETV
vector 5190  Network.dyn_peer[2]  lookupHopsSig:vector  ETV
vector 5191  Network.dyn_peer[2]  lookupStabilitySig:vector  ETV
vector 5192  Network.dyn_peer[2]  lookupTimeSig:vector  ETV
vector 5193  Network.dyn_peer[3]  lookupHopsSig:vector  ETV
vector 5194  Network.dyn_peer[3]  lookupStabilitySig:vector  ETV
vector 5195  Network.dyn_peer[3]  lookupTimeSig:vector  ETV
vector 5226  Network.dyn_peer[14]  lookupHopsSig:vector  ETV
vector 5227  Network.dyn_peer[14]  lookupStabilitySig:vector  ETV
vector 5228  Network.dyn_peer[14]  lookupTimeSig:vector  ETV
vector 5232  Network.dyn_peer[16]  lookupHopsSig:vector  ETV
vector 5233  Network.dyn_peer[16]  lookupStabilitySig:vector  ETV
vector 5234  Network.dyn_peer[16]  lookupTimeSig:vector  ETV
vector 5241  Network.dyn_peer[19]  lookupHopsSig:vector  ETV
vector 5242  Network.dyn_peer[19]  lookupStabilitySig:vector  ETV
vector 5243  Network.dyn_peer[19]  lookupTimeSig:vector  ETV
vector 5184  Network.dyn_peer[0]  lookupHopsSig:vector  ETV
vector 5185  Network.dyn_peer[0]  lookupStabilitySig:vector  ETV
vector 5186  Network.dyn_peer[0]  lookupTimeSig:vector  ETV
vector 5214  Network.dyn_peer[10]  lookupHopsSig:vector  ETV
vector 5215  Network.dyn_peer[10]  lookupStabilitySig:vector  ETV
vector 5216  Network.dyn_peer[10]  lookupTimeSig:vector  ETV
vector 5223  Network.dyn_peer[13]  lookupHopsSig:vector  ETV
vector 5224  Network.dyn_peer[13]  lookupStabilitySig:vector  ETV
vector 5225  Network.dyn_peer[13]  lookupTimeSig:vector  ETV
vector 5196  Network.dyn_peer[4]  lookupHopsSig:vector  ETV
vector 5197  Network.dyn_peer[4]  lookupStabilitySig:vector  ETV
vector 5198  Network.dyn_peer[4]  lookupTimeSig:vector  ETV
vector 5199  Network.dyn_peer[5]  lookupHopsSig:vector  ETV
vector 5200  Network.dyn_peer[5]  lookupStabilitySig:vector  ETV
vector 5201  Network.dyn_peer[5]  lookupTimeSig:vector  ETV
vector 5229  Network.dyn_peer[15]  lookupHopsSig:vector  ETV
vector 5230  Network.dyn_peer[15]  lookupStabilitySig:vector  ETV
vector 5231  Network.dyn_peer[15]  lookupTimeSig:vector  ETV
vector 5205  Network.dyn_peer[7]  lookupHopsSig:vector  ETV
vector 5206  Network.dyn_peer[7]  lookupStabilitySig:vector  ETV
vector 5207  Network.dyn_peer[7]  lookupTimeSig:vector  ETV
vector 5235  Network.dyn_peer[17]  lookupHopsSig:vector  ETV
vector 5236  Network.dyn_peer[17]  lookupStabilitySig:vector  ETV
vector 5237  Network.dyn_peer[17]  lookupTimeSig:vector  ETV
vector 5208  Network.dyn_peer[8]  lookupHopsSig:vector  ETV
vector 5209  Network.dyn_peer[8]  lookupStabilitySig:vector  ETV
vector 5210  Network.dyn_peer[8]  lookupTimeSig:vector  ETV
vector 5217  Network.dyn_peer[11]  lookupHopsSig:vector  ETV
vector 5218  Network.dyn_peer[11]  lookupStabilitySig:vector  ETV
vector 5219  Network.dyn_peer[11]  lookupTimeSig:vector  ETV
vector 5247  Network.dyn_peer[21]  lookupHopsSig:vector  ETV
vector 5248  Network.dyn_peer[21]  lookupStabilitySig:vector  ETV
vector 5249  Network.dyn_peer[21]  lookupTimeSig:vector  ETV
vector 5250  Network.dyn_peer[22]  lookupHopsSig:vector  ETV
vector 5251  Network.dyn_peer[22]  lookupStabilitySig:vector  ETV
vector 5252  Network.dyn_peer[22]  lookupTimeSig:vector  ETV
vector 5259  Network.dyn_peer[25]  lookupHopsSig:vector  ETV
vector 5260  Network.dyn_peer[25]  lookupStabilitySig:vector  ETV
vector 5261  Network.dyn_peer[25]  lookupTimeSig:vector  ETV
vector 5202  Network.dyn_peer[6]  lookupHopsSig:vector  ETV
vector 5203  Network.dyn_peer[6]  lookupStabilitySig:vector  ETV
vector 5204  Network.dyn_peer[6]  lookupTimeSig:vector  ETV
vector 5277  Network.dyn_peer[31]  lookupHopsSig:vector  ETV
vector 5278  Network.dyn_peer[31]  lookupStabilitySig:vector  ETV
vector 5279  Network.dyn_peer[31]  lookupTimeSig:vector  ETV
vector 5220  Network.dyn_peer[12]  lookupHopsSig:vector  ETV
vector 5221  Network.dyn_peer[12]  lookupStabilitySig:vector  ETV
vector 5222  Network.dyn_peer[12]  lookupTimeSig:vector  ETV
vector 5253  Network.dyn_peer[23]  lookupHopsSig:vector  ETV
vector 5254  Network.dyn_peer[23]  lookupStabilitySig:vector  ETV
vector 5255  Network.dyn_peer[23]  lookupTimeSig:vector  ETV
vector 5238  Network.dyn_peer[18]  lookupHopsSig:vector  ETV
vector 5239  Network.dyn_peer[18]  lookupStabilitySig:vector  ETV
vector 5240  Network.dyn_peer[18]  lookupTimeSig:vector  ETV
vector 5211  Network.dyn_peer[9]  lookupHopsSig:vector  ETV
vector 5212  Network.dyn_peer[9]  lookupStabilitySig:vector  ETV
vector 5213  Network.dyn_peer[9]  lookupTimeSig:vector  ETV
vector 5271  Network.dyn_peer[29]  lookupHopsSig:vector  ETV
vector 5272  Network.dyn_peer[29]  lookupStabilitySig:vector  ETV
vector 5273  Network.dyn_peer[29]  lookupTimeSig:vector  ETV
vector 5244  Network.dyn_peer[20]  lookupHopsSig:vector  ETV
vector 5245  Network.dyn_peer[20]  lookupStabilitySig:vector  ETV
vector 5246  Network.dyn_peer[20]  lookupTimeSig:vector  ETV
vector 5268  Network.dyn_peer[28]  lookupHopsSig:vector  ETV
vector 5269  Network.dyn_peer[28]  lookupStabilitySig:vector  ETV
vector 5270  Network.dyn_peer[28]  lookupTimeSig:vector  ETV
vector 5256  Network.dyn_peer[24]  lookupHopsSig:vector  ETV
vector 5257  Network.dyn_peer[24]  lookupStabilitySig:vector  ETV
vector 5258  Network.dyn_peer[24]  lookupTimeSig:vector  ETV
vector 5265  Network.dyn_peer[27]  lookupHopsSig:vector  ETV
vector 5266  Network.dyn_peer[27]  lookupStabilitySig:vector  ETV
vector 5267  Network.dyn_peer[27]  lookupTimeSig:vector  ETV
vector 5262  Network.dyn_peer[26]  lookupHopsSig:vector  ETV
vector 5263  Network.dyn_peer[26]  lookupStabilitySig:vector  ETV
vector 5264  Network.dyn_peer[26]  lookupTimeSig:vector  ETV
vector 5274  Network.dyn_peer[30]  lookupHopsSig:vector  ETV
vector 5275  Network.dyn_peer[30]  lookupStabilitySig:vector  ETV
vector 5276  Network.dyn_peer[30]  lookupTimeSig:vector  ETV
5184	123	20.21	2
5184	335	20.51	2
5184	640	21.020365118456	4
5184	881	21.330465118456	3
5184	1185	21.630465118456	2
5184	1671	22.078777903886	3
5184	1735	22.129628753125	4
5184	1961	22.340685642252	2
5184	2842	23.040685642252	6
5184	3290	23.386452561941	4
5184	3293	23.388377424576	7
5184	5427	25.208507395239	19
5184	6633	26.308507395239	11
5184	7235	26.815003206281	4
5184	7830	27.315889345876	6
5184	8104	27.527522904338	2
5184	8550	27.886209328276	1
5184	9017	28.286209328276	3
5184	9278	28.500483065422	1
5184	9311	28.532713442345	1
5184	9326	28.559108213556	3
5184	9837	28.977113572165	4
5184	10364	29.377113572165	3
5184	10883	29.816706709695	2
5184	11127	30.079539465121	6
5184	11449	30.418665545048	5
5184	11637	30.579944601952	4
5184	12523	31.291120171678	7
5184	13336	31.891120171678	5
5184	13759	32.205348805326	3
5184	14098	32.521331170414	2
5184	14932	33.241601412894	7
5184	15392	33.641601412894	3
5184	17028	35.04662738375	14
5184	17158	35.16735860251	3
5184	17509	35.468910106009	2
5184	18301	36.082151756317	7
5184	19065	36.682151756317	5
5184	19315	36.895191959368	1
5184	19906	37.345334680312	4
5184	20209	37.597032773778	6
5184	20393	37.718259857988	1
5184	21481	38.618259857988	10
5184	21843	38.921144601895	6
5184	21849	38.924800604888	2
5184	23116	39.834900604888	11
5184	23410	40.134900604888	2
5184	23698	40.340302558086	1
5184	24541	41.052346071084	6
5184	24938	41.356173660522	2
5184	25184	41.511184120613	1
5184	26299	42.522901998764	11
5184	27244	43.422901998764	8
5184	27687	43.726221329812	3
5184	27728	43.767217878026	3
5184	28011	43.934806263139	1
5184	28341	44.175191437287	3
5184	28843	44.676415222155	9
5184	28944	44.776587361441	5
5184	29505	45.39058787328	6
5184	29932	45.79058787328	3
5184	30662	46.493786778734	6
5184	31306	47.100291646148	5
5184	31870	47.514972897376	4
5184	32648	48.114972897376	6
5184	33338	48.722376382252	6
5184	33573	48.929377708853	1
5184	33655	48.983734837826	1
5184	33983	49.184217330824	2
5184	34424	49.498509678171	3
5184	35088	49.998509678171	5
5184	35189	50.108609678171	1
5184	36090	50.908609678171	7
5184	36692	51.458882264138	5
5184	37034	51.768982264138	3
5184	37175	51.868982264138	1
5184	37406	52.079913863393	1
5184	37625	52.290013863393	2
5184	38221	52.790013863393	4
5184	38499	53.007115576396	2
5184	39233	53.507115576396	4
5184	39879	54.081432430302	5
5184	40212	54.41146193021	8
5184	40361	54.587610199556	5
5184	40566	54.792088175555	1
5184	40778	55.002188175555	2
5184	41175	55.332173274406	1
5184	42056	56.032173274406	7
5184	42988	56.834556871419	8
5184	44109	57.734829451759	9
5184	44544	58.158585201937	3
5184	44564	58.175470322037	2
5184	44799	58.386466831892	2
5184	45156	58.786466831892	3
5184	45664	59.199947325608	3
5184	46480	59.772411761677	3
5184	46528	59.80303675865	6
5184	46897	60.066588114926	8
5184	47235	60.312480175995	4
5184	47303	60.372888328428	5
5184	47311	60.374359928839	2
5184	48338	61.189807518787	8
5184	49655	62.249985359662	5
5184	50116	62.549985359662	2
5184	50494	62.804151324675	3
5184	50562	62.858856534398	3
5184	50804	63.061852651975	1
5184	51790	63.871952651975	9
5184	52647	64.771952651975	9
5184	53648	65.67460032959	8
5184	53695	65.700708876876	5
5184	54044	66.004729713883	2
5184	54129	66.074622851321	3
5184	54292	66.186624177897	6
5184	54407	66.278806904534	1
5184	54417	66.284620491037	1
5184	54631	66.4331466576	5
5184	54721	66.482600537238	8
5184	54926	66.601725518835	1
5184	55984	67.401725518835	8
5184	56322	67.710296067266	2
5184	56507	67.911916734467	1
5184	56767	68.131840544829	2
5184	57405	68.731840544829	5
5184	57842	69.133952969654	3
5184	57913	69.17082705063	3
5184	58181	69.380984409918	2
5184	58527	69.677555361476	3
5184	58844	69.899892219992	2
5184	60230	70.998457978257	8
5184	60912	71.498457978257	4
5184	61955	72.414915067812	9
5184	62589	73.014915067812	5
5184	63229	73.616783172341	5
5184	63836	74.223968081615	5
5184	64666	75.032901633645	8
5184	65040	75.340720664402	3
5184	65103	75.40899218958	2
5184	65647	75.909107169731	4
5184	65688	75.941026995891	6
5184	66038	76.317080763767	3
5184	66078	76.345224683278	3
5184	66854	76.955728982919	6
5184	67906	77.955728982919	9
5184	67936	77.965828982919	0
5184	68308	78.265828982919	2
5184	68636	78.570877885959	3
5184	69323	79.148017353259	4
5184	69753	79.450786911602	2
5184	69830	79.479908620091	9
5184	69995	79.594777639806	1
5184	70723	80.194777639806	5
5184	71446	80.795349794705	5
5184	71834	81.115928374194	1
5184	71900	81.199424053283	3
5184	72347	81.523047946298	3
5184	72764	81.842664376143	3
5184	73071	82.142664376143	2
5184	73505	82.549580077032	3
5184	73712	82.751178924307	1
5184	74081	83.055226347121	2
5184	74242	83.198211527676	2
5184	74659	83.509817081791	3
5184	75824	84.409817081791	8
5184	75854	84.435834473577	2
5184	76083	84.580787597434	1
5184	76328	84.79009580879	1
5184	76363	84.81137440915	4
5184	76413	84.842735550753	4
5184	76639	85.014933710696	1
5184	77129	85.430423906097	5
5184	77451	85.730423906097	2
5184	77685	85.953242918412	2
5184	78185	86.369361815128	4
5184	78803	86.869361815128	4
5184	79156	87.171555058189	2
5184	79439	87.367870100869	4
5184	79581	87.482638095562	2
5184	79669	87.556293637245	2
5184	80267	87.967068162227	4
5184	81070	88.667068162227	6
5184	81649	89.272904807982	5
5184	81652	89.274167035769	3
5184	82097	89.678103461223	3
5184	82713	90.188203461223	5
5184	83089	90.489266382203	2
5184	84333	91.415220070472	7
5184	85208	92.115220070472	6
5184	85578	92.419279298172	2
5184	86545	93.139184648105	7
5184	86960	93.439184648105	2
5184	87204	93.64796618766	1
5184	87890	94.166984627662	5
5184	88430	94.566984627662	4
5184	89323	95.367552252733	7
5184	89350	95.382750235518	7
5184	89653	95.686722328107	2
5184	89717	95.775172028466	3
5184	89881	95.895163804669	2
5184	90140	96.10572336648	2
5184	91093	96.80572336648	7
5184	91957	97.413673413015	6
5184	92756	98.119746801414	6
5184	93095	98.429846801414	3
5184	93882	99.129846801414	6
5184	94143	99.336245183314	1
5184	94200	99.359401461587	1
5184	94736	99.773541415245	4
5184	94947	99.973541415245	1
5184	95769	100.685947809812	7
5184	96163	100.985947809812	2
5184	96623	101.29125796005	2
5184	97089	101.692515569383	3
5184	97584	102.10264582403	5
5184	98098	102.50264582403	3
5184	98437	102.81274582403	3
5184	99189	103.538192949274	5
5184	100106	104.338192949274	9
5184	100735	104.84480303623	4
5184	101809	105.761001774052	9
5184	101913	105.861001774052	1
5184	103321	107.206357290132	12
5184	104337	108.156913436124	2
5184	104546	108.315455830563	11
5184	104695	108.442719624725	9
5184	104959	108.654421139515	2
5184	105444	109.054421139515	3
5184	105724	109.265259257906	2
5184	106678	110.065259257906	7
5184	107049	110.366826998183	2
5184	107637	110.875650487025	4
5184	107686	110.913970727452	4
5184	108639	111.733080004494	8
5184	109144	112.133080004494	3
5184	109811	112.63353372115	4
5184	110403	113.04363372115	4
5184	111344	113.74363372115	7
5184	111722	114.044530249942	1
5184	111896	114.162211878579	3
5184	112810	114.781228001151	7
5184	113075	114.981228001151	1
5184	113314	115.182755212242	1
5184	113985	115.789051418174	5
5184	114817	116.406809529112	7
5184	115980	117.406809529112	10
5184	116609	117.908345915071	4
5184	116978	118.218581612312	2
5184	117133	118.360912474761	6
5184	117199	118.430221399937	1
5184	117778	118.949162208432	5
5184	118537	119.849162208432	8
5184	118884	120.157607590303	2
5184	120171	121.367707590303	14
5184	120549	121.667707590303	2
5184	121012	122.070613055176	3
5184	121380	122.37389253411	2
5184	122146	122.992818369077	5
5184	122153	122.997880248485	5
5184	122156	122.997980248485	5
5184	122459	123.311094779331	3
5184	123373	124.150293624608	3
5184	123429	124.22049483005	8
5184	123756	124.505526838681	3
5184	124548	125.115626838681	6
5184	124888	125.415626838681	4
5184	125783	126.117796951181	7
5184	126797	126.921194992044	8
5184	127036	127.127012507001	1
5184	127840	127.848510803985	6
5184	128176	128.148594737813	2
5184	129689	129.266122272226	11
5184	130530	130.066122272226	7
5184	130920	130.373434249003	2
5184	131115	130.547495164095	3
5184	131602	130.979442423536	5
5184	132684	131.805398427238	10
5184	133839	132.805398427238	10
5184	134463	133.412927206076	5
5184	135036	133.922191989448	4
5184	135857	134.522630274687	5
5184	136041	134.652665812124	8
5184	136412	134.961464132373	2
5184	136917	135.424516584321	8
5184	137067	135.601451076897	4
5184	137246	135.770288026758	9
5185	123	20.21	0.75
5185	335	20.51	0.75
5185	640	21.020365118456	0.5
5185	881	21.330465118456	0.625
5185	1185	21.630465118456	0.75
5185	1671	22.078777903886	0.625
5185	1735	22.129628753125	0.5
5185	1961	22.340685642252	0.75
5185	2842	23.040685642252	0.25
5185	3290	23.386452561941	0.5
5185	3293	23.388377424576	0.125
5185	5427	25.208507395239	-1.375
5185	6633	26.308507395239	-0.375
5185	7235	26.815003206281	0.5
5185	7830	27.315889345876	0.25
5185	8104	27.527522904338	0.75
5185	8550	27.886209328276	0.875
5185	9017	28.286209328276	0.625
5185	9278	28.500483065422	0.875
5185	9311	28.532713442345	0.875
5185	9326	28.559108213556	0.625
5185	9837	28.977113572165	0.5
5185	10364	29.377113572165	0.625
5185	10883	29.816706709695	0.75
5185	11127	30.079539465121	0.25
5185	11449	30.418665545048	0.375
5185	11637	30.579944601952	0.5
5185	12523	31.291120171678	0.125
5185	13336	31.891120171678	0.375
5185	13759	32.205348805326	0.625
5185	14098	32.521331170414	0.75
5185	14932	33.241601412894	0.125
5185	15392	33.641601412894	0.625
5185	17028	35.04662738375	-0.75
5185	17158	35.16735860251	0.625
5185	17509	35.468910106009	0.75
5185	18301	36.082151756317	0.125
5185	19065	36.682151756317	0.375
5185	19315	36.895191959368	0.875
5185	19906	37.345334680312	0.5
5185	20209	37.597032773778	0.25
5185	20393	37.718259857988	0.875
5185	21481	38.618259857988	-0.25
5185	21843	38.921144601895	0.25
5185	21849	38.924800604888	0.75
5185	23116	39.834900604888	-0.375
5185	23410	40.134900604888	0.75
5185	23698	40.340302558086	0.875
5185	24541	41.052346071084	0.25
5185	24938	41.356173660522	0.75
5185	25184	41.511184120613	0.875
5185	26299	42.522901998764	-0.375
5185	27244	43.422901998764	0
5185	27687	43.726221329812	0.625
5185	27728	43.767217878026	0.625
5185	28011	43.934806263139	0.875
5185	28341	44.175191437287	0.625
5185	28843	44.676415222155	-0.125
5185	28944	44.776587361441	0.375
5185	29505	45.39058787328	0.25
5185	29932	45.79058787328	0.625
5185	30662	46.493786778734	0.25
5185	31306	47.100291646148	0.375
5185	31870	47.514972897376	0.5
5185	32648	48.114972897376	0.25
5185	33338	48.722376382252	0.25
5185	33573	48.929377708853	0.875
5185	33655	48.983734837826	0.875
5185	33983	49.184217330824	0.75
5185	34424	49.498509678171	0.625
5185	35088	49.998509678171	0.375
5185	35189	50.108609678171	0.875
5185	36090	50.908609678171	0.125
5185	36692	51.458882264138	0.375
5185	37034	51.768982264138	0.625
5185	37175	51.868982264138	0.875
5185	37406	52.079913863393	0.875
5185	37625	52.290013863393	0.75
5185	38221	52.790013863393	0.5
5185	38499	53.007115576396	0.75
5185	39233	53.507115576396	0.5
5185	39879	54.081432430302	0.375
5185	40212	54.41146193021	0
5185	40361	54.587610199556	0.375
5185	40566	54.792088175555	0.875
5185	40778	55.002188175555	0.75
5185	41175	55.332173274406	0.875
5185	42056	56.032173274406	0.125
5185	42988	56.834556871419	0
5185	44109	57.734829451759	-0.125
5185	44544	58.158585201937	0.625
5185	44564	58.175470322037	0.75
5185	44799	58.386466831892	0.75
5185	45156	58.786466831892	0.625
5185	45664	59.199947325608	0.625
5185	46480	59.772411761677	0.625
5185	46528	59.80303675865	0.25
5185	46897	60.066588114926	0
5185	47235	60.312480175995	0.5
5185	47303	60.372888328428	0.375
5185	47311	60.374359928839	0.75
5185	48338	61.189807518787	0
5185	49655	62.249985359662	0.375
5185	50116	62.549985359662	0.75
5185	50494	62.804151324675	0.625
5185	50562	62.858856534398	0.625
5185	50804	63.061852651975	0.875
5185	51790	63.871952651975	-0.125
5185	52647	64.771952651975	-0.125
5185	53648	65.67460032959	0
5185	53695	65.700708876876	0.375
5185	54044	66.004729713883	0.75
5185	54129	66.074622851321	0.625
5185	54292	66.186624177897	0.25
5185	54407	66.278806904534	0.875
5185	54417	66.284620491037	0.875
5185	54631	66.4331466576	0.375
5185	54721	66.482600537238	0
5185	54926	66.601725518835	0.875
5185	55984	67.401725518835	0
5185	56322	67.710296067266	0.75
5185	56507	67.911916734467	0.875
5185	56767	68.131840544829	0.75
5185	57405	68.731840544829	0.375
5185	57842	69.133952969654	0.625
5185	57913	69.17082705063	0.625
5185	58181	69.380984409918	0.75
5185	58527	69.677555361476	0.625
5185	58844	69.899892219992	0.75
5185	60230	70.998457978257	0
5185	60912	71.498457978257	0.5
5185	61955	72.414915067812	-0.125
5185	62589	73.014915067812	0.375
5185	63229	73.616783172341	0.375
5185	63836	74.223968081615	0.375
5185	64666	75.032901633645	0
5185	65040	75.340720664402	0.625
5185	65103	75.40899218958	0.75
5185	65647	75.909107169731	0.5
5185	65688	75.941026995891	0.25
5185	66038	76.317080763767	0.625
5185	66078	76.345224683278	0.625
5185	66854	76.955728982919	0.25
5185	67906	77.955728982919	-0.125
5185	67936	77.965828982919	1
5185	68308	78.265828982919	0.75
5185	68636	78.570877885959	0.625
5185	69323	79.148017353259	0.5
5185	69753	79.450786911602	0.75
5185	69830	79.479908620091	-0.125
5185	69995	79.594777639806	0.875
5185	70723	80.194777639806	0.375
5185	71446	80.795349794705	0.375
5185	71834	81.115928374194	0.875
5185	71900	81.199424053283	0.625
5185	72347	81.523047946298	0.625
5185	72764	81.842664376143	0.625
5185	73071	82.142664376143	0.75
5185	73505	82.549580077032	0.625
5185	73712	82.751178924307	0.875
5185	74081	83.055226347121	0.75
5185	74242	83.198211527676	0.75
5185	74659	83.509817081791	0.625
5185	75824	84.409817081791	0
5185	75854	84.435834473577	0.75
5185	76083	84.580787597434	0.875
5185	76328	84.79009580879	0.875
5185	76363	84.81137440915	0.5
5185	76413	84.842735550753	0.5
5185	76639	85.014933710696	0.875
5185	77129	85.430423906097	0.375
5185	77451	85.730423906097	0.75
5185	77685	85.953242918412	0.75
5185	78185	86.369361815128	0.5
5185	78803	86.869361815128	0.5
5185	79156	87.171555058189	0.75
5185	79439	87.367870100869	0.5
5185	79581	87.482638095562	0.75
5185	79669	87.556293637245	0.75
5185	80267	87.967068162227	0.5
5185	81070	88.667068162227	0.25
5185	81649	89.272904807982	0.375
5185	81652	89.274167035769	0.625
5185	82097	89.678103461223	0.625
5185	82713	90.188203461223	0.375
5185	83089	90.489266382203	0.75
5185	84333	91.415220070472	0.125
5185	85208	92.115220070472	0.25
5185	85578	92.419279298172	0.75
5185	86545	93.139184648105	0.125
5185	86960	93.439184648105	0.75
5185	87204	93.64796618766	0.875
5185	87890	94.166984627662	0.375
5185	88430	94.566984627662	0.5
5185	89323	95.367552252733	0.125
5185	89350	95.382750235518	0.125
5185	89653	95.686722328107	0.75
5185	89717	95.775172028466	0.625
5185	89881	95.895163804669	0.75
5185	90140	96.10572336648	0.75
5185	91093	96.80572336648	0.125
5185	91957	97.413673413015	0.25
5185	92756	98.119746801414	0.25
5185	93095	98.429846801414	0.625
5185	93882	99.129846801414	0.25
5185	94143	99.336245183314	0.875
5185	94200	99.359401461587	0.875
5185	94736	99.773541415245	0.5
5185	94947	99.973541415245	0.875
5185	95769	100.685947809812	0.125
5185	96163	100.985947809812	0.75
5185	96623	101.29125796005	0.75
5185	97089	101.692515569383	0.625
5185	97584	102.10264582403	0.375
5185	98098	102.50264582403	0.625
5185	98437	102.81274582403	0.625
5185	99189	103.538192949274	0.375
5185	100106	104.338192949274	-0.125
5185	100735	104.84480303623	0.5
5185	101809	105.761001774052	-0.125
5185	101913	105.861001774052	0.875
5185	103321	107.206357290132	-0.5
5185	104337	108.156913436124	0.75
5185	104546	108.315455830563	-0.375
5185	104695	108.442719624725	-0.125
5185	104959	108.654421139515	0.75
5185	105444	109.054421139515	0.625
5185	105724	109.265259257906	0.75
5185	106678	110.065259257906	0.125
5185	107049	110.366826998183	0.75
5185	107637	110.875650487025	0.5
5185	107686	110.913970727452	0.5
5185	108639	111.733080004494	0
5185	109144	112.133080004494	0.625
5185	109811	112.63353372115	0.5
5185	110403	113.04363372115	0.5
5185	111344	113.74363372115	0.125
5185	111722	114.044530249942	0.875
5185	111896	114.162211878579	0.625
5185	112810	114.781228001151	0.125
5185	113075	114.981228001151	0.875
5185	113314	115.182755212242	0.875
5185	113985	115.789051418174	0.375
5185	114817	116.406809529112	0.125
5185	115980	117.406809529112	-0.25
5185	116609	117.908345915071	0.5
5185	116978	118.218581612312	0.75
5185	117133	118.360912474761	0.25
5185	117199	118.430221399937	0.875
5185	117778	118.949162208432	0.375
5185	118537	119.849162208432	0
5185	118884	120.157607590303	0.75
5185	120171	121.367707590303	-0.75
5185	120549	121.667707590303	0.75
5185	121012	122.070613055176	0.625
5185	121380	122.37389253411	0.75
5185	122146	122.992818369077	0.375
5185	122153	122.997880248485	0.375
5185	122156	122.997980248485	0.375
5185	122459	123.311094779331	0.625
5185	123373	124.150293624608	0.625
5185	123429	124.22049483005	0
5185	123756	124.505526838681	0.625
5185	124548	125.115626838681	0.25
5185	124888	125.415626838681	0.5
5185	125783	126.117796951181	0.125
5185	126797	126.921194992044	0
5185	127036	127.127012507001	0.875
5185	127840	127.848510803985	0.25
5185	128176	128.148594737813	0.75
5185	129689	129.266122272226	-0.375
5185	130530	130.066122272226	0.125
5185	130920	130.373434249003	0.75
5185	131115	130.547495164095	0.625
5185	131602	130.979442423536	0.375
5185	132684	131.805398427238	-0.25
5185	133839	132.805398427238	-0.25
5185	134463	133.412927206076	0.375
5185	135036	133.922191989448	0.5
5185	135857	134.522630274687	0.375
5185	136041	134.652665812124	0
5185	136412	134.961464132373	0.75
5185	136917	135.424516584321	0
5185	137067	135.601451076897	0.5
5185	137246	135.770288026758	-0.125
5186	123	20.21	0.2
5186	335	20.51	0.3
5186	640	21.020365118456	0.5
5186	881	21.330465118456	0.3
5186	1185	21.630465118456	0.3
5186	1671	22.078777903886	0.4
5186	1735	22.129628753125	0.5
5186	1961	22.340685642252	0.2
5186	2842	23.040685642252	0.7
5186	3290	23.386452561941	0.5
5186	3293	23.388377424576	0.6
5186	5427	25.208507395239	1.8
5186	6633	26.308507395239	1.1
5186	7235	26.815003206281	0.5
5186	7830	27.315889345876	0.7
5186	8104	27.527522904338	0.2
5186	8550	27.886209328276	0.1
5186	9017	28.286209328276	0.4
5186	9278	28.500483065422	0.2
5186	9311	28.532713442345	0.2
5186	9326	28.559108213556	0.4
5186	9837	28.977113572165	0.4
5186	10364	29.377113572165	0.4
5186	10883	29.816706709695	0.3
5186	11127	30.079539465121	0.7
5186	11449	30.418665545048	0.6
5186	11637	30.579944601952	0.5
5186	12523	31.291120171678	0.7
5186	13336	31.891120171678	0.6
5186	13759	32.205348805326	0.3
5186	14098	32.521331170414	0.3
5186	14932	33.241601412894	0.7
5186	15392	33.641601412894	0.4
5186	17028	35.04662738375	1.4
5186	17158	35.16735860251	0.4
5186	17509	35.468910106009	0.3
5186	18301	36.082151756317	0.6
5186	19065	36.682151756317	0.6
5186	19315	36.895191959368	0.2
5186	19906	37.345334680312	0.5
5186	20209	37.597032773778	0.7
5186	20393	37.718259857988	0.1
5186	21481	38.618259857988	0.9
5186	21843	38.921144601895	0.6
5186	21849	38.924800604888	0.3
5186	23116	39.834900604888	0.9
5186	23410	40.134900604888	0.3
5186	23698	40.340302558086	0.2
5186	24541	41.052346071084	0.7
5186	24938	41.356173660522	0.3
5186	25184	41.511184120613	0.2
5186	26299	42.522901998764	1
5186	27244	43.422901998764	0.9
5186	27687	43.726221329812	0.3
5186	27728	43.767217878026	0.3
5186	28011	43.934806263139	0.2
5186	28341	44.175191437287	0.4
5186	28843	44.676415222155	0.8
5186	28944	44.776587361441	0.6
5186	29505	45.39058787328	0.6
5186	29932	45.79058787328	0.4
5186	30662	46.493786778734	0.7
5186	31306	47.100291646148	0.6
5186	31870	47.514972897376	0.4
5186	32648	48.114972897376	0.6
5186	33338	48.722376382252	0.6
5186	33573	48.929377708853	0.2
5186	33655	48.983734837826	0.2
5186	33983	49.184217330824	0.2
5186	34424	49.498509678171	0.3
5186	35088	49.998509678171	0.5
5186	35189	50.108609678171	0.1
5186	36090	50.908609678171	0.8
5186	36692	51.458882264138	0.6
5186	37034	51.768982264138	0.3
5186	37175	51.868982264138	0.1
5186	37406	52.079913863393	0.2
5186	37625	52.290013863393	0.2
5186	38221	52.790013863393	0.5
5186	38499	53.007115576396	0.2
5186	39233	53.507115576396	0.5
5186	39879	54.081432430302	0.6
5186	40212	54.41146193021	0.9
5186	40361	54.587610199556	0.5
5186	40566	54.792088175555	0.2
5186	40778	55.002188175555	0.2
5186	41175	55.332173274406	0.1
5186	42056	56.032173274406	0.7
5186	42988	56.834556871419	0.8
5186	44109	57.734829451759	0.9
5186	44544	58.158585201937	0.4
5186	44564	58.175470322037	0.3
5186	44799	58.386466831892	0.2
5186	45156	58.786466831892	0.4
5186	45664	59.199947325608	0.4
5186	46480	59.772411761677	0.4
5186	46528	59.80303675865	0.6
5186	46897	60.066588114926	0.9
5186	47235	60.312480175995	0.5
5186	47303	60.372888328428	0.6
5186	47311	60.374359928839	0.3
5186	48338	61.189807518787	0.8
5186	49655	62.249985359662	0.5
5186	50116	62.549985359662	0.3
5186	50494	62.804151324675	0.4
5186	50562	62.858856534398	0.3
5186	50804	63.061852651975	0.2
5186	51790	63.871952651975	0.8
5186	52647	64.771952651975	0.9
5186	53648	65.67460032959	0.9
5186	53695	65.700708876876	0.6
5186	54044	66.004729713883	0.3
5186	54129	66.074622851321	0.4
5186	54292	66.186624177897	0.7
5186	54407	66.278806904534	0.2
5186	54417	66.284620491037	0.2
5186	54631	66.4331466576	0.6
5186	54721	66.482600537238	0.8
5186	54926	66.601725518835	0.1
5186	55984	67.401725518835	0.8
5186	56322	67.710296067266	0.3
5186	56507	67.911916734467	0.2
5186	56767	68.131840544829	0.2
5186	57405	68.731840544829	0.6
5186	57842	69.133952969654	0.4
5186	57913	69.17082705063	0.4
5186	58181	69.380984409918	0.2
5186	58527	69.677555361476	0.4
5186	58844	69.899892219992	0.2
5186	60230	70.998457978257	0.7
5186	60912	71.498457978257	0.5
5186	61955	72.414915067812	0.9
5186	62589	73.014915067812	0.6
5186	63229	73.616783172341	0.6
5186	63836	74.223968081615	0.6
5186	64666	75.032901633645	0.8
5186	65040	75.340720664402	0.3
5186	65103	75.40899218958	0.3
5186	65647	75.909107169731	0.5
5186	65688	75.941026995891	0.6
5186	66038	76.317080763767	0.4
5186	66078	76.345224683278	0.4
5186	66854	76.955728982919	0.6
5186	67906	77.955728982919	1
5186	67936	77.965828982919	0
5186	68308	78.265828982919	0.3
5186	68636	78.570877885959	0.3
5186	69323	79.148017353259	0.5
5186	69753	79.450786911602	0.3
5186	69830	79.479908620091	0.9
5186	69995	79.594777639806	0.1
5186	70723	80.194777639806	0.6
5186	71446	80.795349794705	0.6
5186	71834	81.115928374194	0.2
5186	71900	81.199424053283	0.4
5186	72347	81.523047946298	0.4
5186	72764	81.842664376143	0.3
5186	73071	82.142664376143	0.3
5186	73505	82.549580077032	0.4
5186	73712	82.751178924307	0.2
5186	74081	83.055226347121	0.3
5186	74242	83.198211527676	0.3
5186	74659	83.509817081791	0.3
5186	75824	84.409817081791	0.9
5186	75854	84.435834473577	0.3
5186	76083	84.580787597434	0.1
5186	76328	84.79009580879	0.2
5186	76363	84.81137440915	0.4
5186	76413	84.842735550753	0.4
5186	76639	85.014933710696	0.2
5186	77129	85.430423906097	0.4
5186	77451	85.730423906097	0.3
5186	77685	85.953242918412	0.3
5186	78185	86.369361815128	0.4
5186	78803	86.869361815128	0.5
5186	79156	87.171555058189	0.3
5186	79439	87.367870100869	0.5
5186	79581	87.482638095562	0.3
5186	79669	87.556293637245	0.3
5186	80267	87.967068162227	0.4
5186	81070	88.667068162227	0.7
5186	81649	89.272904807982	0.6
5186	81652	89.274167035769	0.4
5186	82097	89.678103461223	0.4
5186	82713	90.188203461223	0.5
5186	83089	90.489266382203	0.3
5186	84333	91.415220070472	0.7
5186	85208	92.115220070472	0.7
5186	85578	92.419279298172	0.3
5186	86545	93.139184648105	0.7
5186	86960	93.439184648105	0.3
5186	87204	93.64796618766	0.2
5186	87890	94.166984627662	0.5
5186	88430	94.566984627662	0.4
5186	89323	95.367552252733	0.8