file 698452 1369496649                                          
version 2
run Stability-29-20130525-17:44:06-19193
attr configname Stability
attr datetime 20130525-17:44:06
attr experiment Stability
attr inifile omnetpp.ini
attr iterationvars $0=1e4
attr iterationvars2 "$0=1e4, $repetition=9"
attr measurement $0=1e4
attr network Network
attr processid 19193
attr repetition 9
attr replication #9
attr resultdir results
attr runnumber 29
attr seedset 29

vector 2784  Network.dyn_peer[0]  lookupHopsSig:vector  ETV
vector 2785  Network.dyn_peer[0]  lookupStabilitySig:vector  ETV
vector 2786  Network.dyn_peer[0]  lookupTimeSig:vector  ETV
vector 2787  Network.dyn_peer[1]  lookupHopsSig:vector  ETV
vector 2788  Network.dyn_peer[1]  lookupStabilitySig:vector  ETV
vector 2789  Network.dyn_peer[1]  lookupTimeSig:vector  ETV
vector 2790  Network.dyn_peer[2]  lookupHopsSig:vector  ETV
vector 2791  Network.dyn_peer[2]  lookupStabilitySig:vector  ETV
vector 2792  Network.dyn_peer[2]  lookupTimeSig:vector  ETV
vector 2793  Network.dyn_peer[3]  lookupHopsSig:vector  ETV
vector 2794  Network.dyn_peer[3]  lookupStabilitySig:vector  ETV
vector 2795  Network.dyn_peer[3]  lookupTimeSig:vector  ETV
vector 2796  Network.dyn_peer[4]  lookupHopsSig:vector  ETV
vector 2797  Network.dyn_peer[4]  lookupStabilitySig:vector  ETV
vector 2798  Network.dyn_peer[4]  lookupTimeSig:vector  ETV
vector 2799  Network.dyn_peer[5]  lookupHopsSig:vector  ETV
vector 2800  Network.dyn_peer[5]  lookupStabilitySig:vector  ETV
vector 2801  Network.dyn_peer[5]  lookupTimeSig:vector  ETV
vector 2802  Network.dyn_peer[6]  lookupHopsSig:vector  ETV
vector 2803  Network.dyn_peer[6]  lookupStabilitySig:vector  ETV
vector 2804  Network.dyn_peer[6]  lookupTimeSig:vector  ETV
vector 2805  Network.dyn_peer[7]  lookupHopsSig:vector  ETV
vector 2806  Network.dyn_peer[7]  lookupStabilitySig:vector  ETV
vector 2807  Network.dyn_peer[7]  lookupTimeSig:vector  ETV
vector 2808  Network.dyn_peer[8]  lookupHopsSig:vector  ETV
vector 2809  Network.dyn_peer[8]  lookupStabilitySig:vector  ETV
vector 2810  Network.dyn_peer[8]  lookupTimeSig:vector  ETV
vector 2811  Network.dyn_peer[9]  lookupHopsSig:vector  ETV
vector 2812  Network.dyn_peer[9]  lookupStabilitySig:vector  ETV
vector 2813  Network.dyn_peer[9]  lookupTimeSig:vector  ETV
vector 2814  Network.dyn_peer[10]  lookupHopsSig:vector  ETV
vector 2815  Network.dyn_peer[10]  lookupStabilitySig:vector  ETV
vector 2816  Network.dyn_peer[10]  lookupTimeSig:vector  ETV
vector 2817  Network.dyn_peer[11]  lookupHopsSig:vector  ETV
vector 2818  Network.dyn_peer[11]  lookupStabilitySig:vector  ETV
vector 2819  Network.dyn_peer[11]  lookupTimeSig:vector  ETV
vector 2820  Network.dyn_peer[12]  lookupHopsSig:vector  ETV
vector 2821  Network.dyn_peer[12]  lookupStabilitySig:vector  ETV
vector 2822  Network.dyn_peer[12]  lookupTimeSig:vector  ETV
vector 2823  Network.dyn_peer[13]  lookupHopsSig:vector  ETV
vector 2824  Network.dyn_peer[13]  lookupStabilitySig:vector  ETV
vector 2825  Network.dyn_peer[13]  lookupTimeSig:vector  ETV
vector 2826  Network.dyn_peer[14]  lookupHopsSig:vector  ETV
vector 2827  Network.dyn_peer[14]  lookupStabilitySig:vector  ETV
vector 2828  Network.dyn_peer[14]  lookupTimeSig:vector  ETV
vector 2829  Network.dyn_peer[15]  lookupHopsSig:vector  ETV
vector 2830  Network.dyn_peer[15]  lookupStabilitySig:vector  ETV
vector 2831  Network.dyn_peer[15]  lookupTimeSig:vector  ETV
vector 2832  Network.dyn_peer[16]  lookupHopsSig:vector  ETV
vector 2833  Network.dyn_peer[16]  lookupStabilitySig:vector  ETV
vector 2834  Network.dyn_peer[16]  lookupTimeSig:vector  ETV
vector 2835  Network.dyn_peer[17]  lookupHopsSig:vector  ETV
vector 2836  Network.dyn_peer[17]  lookupStabilitySig:vector  ETV
vector 2837  Network.dyn_peer[17]  lookupTimeSig:vector  ETV
vector 2838  Network.dyn_peer[18]  lookupHopsSig:vector  ETV
vector 2839  Network.dyn_peer[18]  lookupStabilitySig:vector  ETV
vector 2840  Network.dyn_peer[18]  lookupTimeSig:vector  ETV
vector 2841  Network.dyn_peer[19]  lookupHopsSig:vector  ETV
vector 2842  Network.dyn_peer[19]  lookupStabilitySig:vector  ETV
vector 2843  Network.dyn_peer[19]  lookupTimeSig:vector  ETV
vector 2844  Network.dyn_peer[20]  lookupHopsSig:vector  ETV
vector 2845  Network.dyn_peer[20]  lookupStabilitySig:vector  ETV
vector 2846  Network.dyn_peer[20]  lookupTimeSig:vector  ETV
vector 2847  Network.dyn_peer[21]  lookupHopsSig:vector  ETV
vector 2848  Network.dyn_peer[21]  lookupStabilitySig:vector  ETV
vector 2849  Network.dyn_peer[21]  lookupTimeSig:vector  ETV
vector 2850  Network.dyn_peer[22]  lookupHopsSig:vector  ETV
vector 2851  Network.dyn_peer[22]  lookupStabilitySig:vector  ETV
vector 2852  Network.dyn_peer[22]  lookupTimeSig:vector  ETV
vector 2853  Network.dyn_peer[23]  lookupHopsSig:vector  ETV
vector 2854  Network.dyn_peer[23]  lookupStabilitySig:vector  ETV
vector 2855  Network.dyn_peer[23]  lookupTimeSig:vector  ETV
vector 2856  Network.dyn_peer[24]  lookupHopsSig:vector  ETV
vector 2857  Network.dyn_peer[24]  lookupStabilitySig:vector  ETV
vector 2858  Network.dyn_peer[24]  lookupTimeSig:vector  ETV
vector 2859  Network.dyn_peer[25]  lookupHopsSig:vector  ETV
vector 2860  Network.dyn_peer[25]  lookupStabilitySig:vector  ETV
vector 2861  Network.dyn_peer[25]  lookupTimeSig:vector  ETV
vector 2862  Network.dyn_peer[26]  lookupHopsSig:vector  ETV
vector 2863  Network.dyn_peer[26]  lookupStabilitySig:vector  ETV
vector 2864  Network.dyn_peer[26]  lookupTimeSig:vector  ETV
vector 2865  Network.dyn_peer[27]  lookupHopsSig:vector  ETV
vector 2866  Network.dyn_peer[27]  lookupStabilitySig:vector  ETV
vector 2867  Network.dyn_peer[27]  lookupTimeSig:vector  ETV
vector 2868  Network.dyn_peer[28]  lookupHopsSig:vector  ETV
vector 2869  Network.dyn_peer[28]  lookupStabilitySig:vector  ETV
vector 2870  Network.dyn_peer[28]  lookupTimeSig:vector  ETV
vector 2871  Network.dyn_peer[29]  lookupHopsSig:vector  ETV
vector 2872  Network.dyn_peer[29]  lookupStabilitySig:vector  ETV
vector 2873  Network.dyn_peer[29]  lookupTimeSig:vector  ETV
vector 2874  Network.dyn_peer[30]  lookupHopsSig:vector  ETV
vector 2875  Network.dyn_peer[30]  lookupStabilitySig:vector  ETV
vector 2876  Network.dyn_peer[30]  lookupTimeSig:vector  ETV
vector 2877  Network.dyn_peer[31]  lookupHopsSig:vector  ETV
vector 2878  Network.dyn_peer[31]  lookupStabilitySig:vector  ETV
vector 2879  Network.dyn_peer[31]  lookupTimeSig:vector  ETV
2784	6378 6781 31 65448 30.1 20190.829875285236 256 0 3 351 559
2785	13159 7693 31 65448 30.1 20190.829875285236 256 0.625 1 212.125 176.984375
2786	20852 7283 31 65448 30.1 20190.829875285236 256 0 0.3 54.3 12.63
2787	28135 6719 68 65483 40.1 20200.829982926701 256 0 2 341 525
2788	34854 7623 68 65483 40.1 20200.829982926701 256 0.75 1 213.375 178.953125
2789	42477 7217 68 65483 40.1 20200.829982926701 256 0 0.3 53.3 12.31
2790	49694 6689 99 65517 50.2 20210.832371547287 256 0 2 351 549
2791	56383 7598 99 65517 50.2 20210.832371547287 256 0.75 1 212.125 176.828125
2792	63981 7193 99 65517 50.2 20210.832371547287 256 0 0.3 54.3 12.75
2793	71174 6768 128 65548 60 20220.911676191295 256 0 3 352 552
2794	77942 7690 128 65548 60 20220.911676191295 256 0.625 1 212 176.625
2795	85632 7276 128 65548 60 20220.911676191295 256 0 0.4 54.4 12.76
2796	92908 6676 162 65579 70.1 20230.918463984974 256 0 3 354 574
2797	99584 7577 162 65579 70.1 20230.918463984974 256 0.625 1 211.75 176.46875
2798	107161 7174 162 65579 70.1 20230.918463984974 256 0 0.4 54.6 12.92
2799	114335 6792 199 65610 80 20240.908490638149 256 0 3 345 547
2800	121127 7674 199 65610 80 20240.908490638149 256 0.625 1 212.875 178.296875
2801	128801 7282 199 65610 80 20240.908490638149 256 0 0.3 53.7 12.67
2802	136083 6744 230 65639 90.2 20250.709613180492 256 0 3 339 523
2803	142827 7647 230 65639 90.2 20250.709613180492 256 0.625 1 213.625 179.421875
2804	150474 7240 230 65639 90.2 20250.709613180492 256 0 0.3 53.1 12.21
2805	157714 6745 263 65671 100.2 20260.921504139298 256 0 2 337 507
2806	164459 7668 263 65671 100.2 20260.921504139298 256 0.75 1 213.875 179.671875
2807	172127 7249 263 65671 100.2 20260.921504139298 256 0 0.3 52.9 12.05
2808	179376 6687 296 65702 110 20270.903531647895 256 0 3 333 527
2809	186063 7583 296 65702 110 20270.903531647895 256 0.625 1 214.375 180.984375
2810	193646 7173 296 65702 110 20270.903531647895 256 0 0.3 52.5 12.17
2811	200819 6704 326 65732 120.2 20280.813085971429 256 0 3 348 556
2812	207523 7611 326 65732 120.2 20280.813085971429 256 0.625 1 212.5 177.6875
2813	215134 7202 326 65732 120.2 20280.813085971429 256 0 0.4 54 12.72
2814	222336 6786 356 65766 130.1 20290.817503294843 256 0 2 333 511
2815	229122 7673 356 65766 130.1 20290.817503294843 256 0.75 1 214.375 180.734375
2816	236795 7274 356 65766 130.1 20290.817503294843 256 0 0.3 52.5 12.15
2817	244069 6708 387 65798 140 20300.91941284168 256 0 2 355 569
2818	250777 7593 387 65798 140 20300.91941284168 256 0.75 1 211.625 176.140625
2819	258370 7204 387 65798 140 20300.91941284168 256 0 0.3 54.7 13.01
2820	265574 6846 416 65830 150.1 20310.727700690598 256 0 3 338 520
2821	272420 7750 416 65830 150.1 20310.727700690598 256 0.625 1 213.75 179.625
2822	280170 7342 416 65830 150.1 20310.727700690598 256 0 0.4 53 12.2
2823	287512 6727 445 65861 160 20321.007843273179 256 0 3 346 548
2824	294239 7634 445 65861 160 20321.007843273179 256 0.625 1 212.75 178.0625
2825	301873 7225 445 65861 160 20321.007843273179 256 0 0.3 53.8 12.56
2826	309098 6731 480 65899 170.1 20330.657372076491 256 0 2 333 505
2827	315829 7633 480 65899 170.1 20330.657372076491 256 0.75 1 214.375 180.640625
2828	323462 7225 480 65899 170.1 20330.657372076491 256 0 0.3 52.5 11.99
2829	330687 6715 510 65927 180.2 20340.708500784581 256 0 2 330 504
2830	337402 7600 510 65927 180.2 20340.708500784581 256 0.75 1 214.75 181.375
2831	345002 7201 510 65927 180.2 20340.708500784581 256 0 0.3 52.2 12.2
2832	352203 6764 544 65961 190 20350.744322275707 256 0 2 340 520
2833	358967 7674 544 65961 190 20350.744322275707 256 0.75 1 213.5 179.125
2834	366641 7264 544 65961 190 20350.744322275707 256 0 0.3 53.2 12.36
2835	373905 6801 577 65993 200.2 20360.832141081647 256 0 2 340 520
2836	380706 7711 577 65993 200.2 20360.832141081647 256 0.75 1 213.5 179.125
2837	388417 7301 577 65993 200.2 20360.832141081647 256 0 0.3 53.2 12.26
2838	395718 6667 608 66024 210 20370.908412265509 256 0 2 324 486
2839	402385 7558 608 66024 210 20370.908412265509 256 0.75 1 215.5 182.59375
2840	409943 7153 608 66024 210 20370.908412265509 256 0 0.3 51.6 11.78
2841	417096 6813 638 66057 220.1 20380.821774212337 256 0 3 354 578
2842	423909 7711 638 66057 220.1 20380.821774212337 256 0.625 1 211.75 176.53125
2843	431620 7309 638 66057 220.1 20380.821774212337 256 0 0.4 54.6 13.04
2844	438929 6756 676 66086 230.1 20390.719385335898 256 0 2 331 503
2845	445685 7650 676 66086 230.1 20390.719385335898 256 0.75 1 214.625 181.109375
2846	453335 7246 676 66086 230.1 20390.719385335898 256 0 0.3 52.3 11.99
2847	460581 6713 707 66116 240.2 20400.809891900517 256 0 2 349 551
2848	467294 7604 707 66116 240.2 20400.809891900517 256 0.75 1 212.375 177.359375
2849	474898 7209 707 66116 240.2 20400.809891900517 256 0 0.3 54.1 12.79
2850	482107 6691 737 66150 250.1 20411.03168056985 256 0 2 323 475
2851	488798 7603 737 66150 250.1 20411.03168056985 256 0.75 1 215.625 182.671875
2852	496401 7185 737 66150 250.1 20411.03168056985 256 0 0.3 51.5 11.61
2853	503586 6759 767 66183 260.1 20420.835421292395 256 0 2 333 509
2854	510345 7651 767 66183 260.1 20420.835421292395 256 0.75 1 214.375 180.703125
2855	517996 7249 767 66183 260.1 20420.835421292395 256 0 0.3 52.5 12.11
2856	525245 6780 800 66216 270.1 20431.030667060321 256 0 3 342 536
2857	532025 7670 800 66216 270.1 20431.030667060321 256 0.625 1 213.25 178.875
2858	539695 7272 800 66216 270.1 20431.030667060321 256 0 0.4 53.4 12.48
2859	546967 6755 830 66247 280.1 20440.90793170173 256 0 2 353 555
2860	553722 7662 830 66247 280.1 20440.90793170173 256 0.75 1 211.875 176.421875
2861	561384 7259 830 66247 280.1 20440.90793170173 256 0 0.3 54.5 12.75
2862	568643 6729 862 66277 290.1 20450.628984575733 256 0 3 329 493
2863	575372 7642 862 66277 290.1 20450.628984575733 256 0.625 1 214.875 181.453125
2864	583014 7225 862 66277 290.1 20450.628984575733 256 0 0.4 52.1 11.87
2865	590239 6803 892 66311 300.2 20460.927159798149 256 0 2 343 525
2866	597042 7720 892 66311 300.2 20460.927159798149 256 0.75 1 213.125 178.453125
2867	604762 7307 892 66311 300.2 20460.927159798149 256 0 0.3 53.5 12.27
2868	612069 6746 927 66340 310.2 20470.716294316131 256 0 3 339 531
2869	618815 7629 927 66340 310.2 20470.716294316131 256 0.625 1 213.625 179.546875
2870	626444 7234 927 66340 310.2 20470.716294316131 256 0 0.4 53.1 12.51
2871	633678 6721 961 66368 320.1 20480.713671885481 256 0 2 347 543
2872	640399 7619 961 66368 320.1 20480.713671885481 256 0.75 1 212.625 177.734375
2873	648018 7219 961 66368 320.1 20480.713671885481 256 0 0.3 53.9 12.63
2874	655237 6713 994 66396 330.2 20490.715595012832 256 0 3 352 574
2875	661950 7629 994 66396 330.2 20490.715595012832 256 0.625 1 212 176.96875
2876	669579 7213 994 66396 330.2 20490.715595012832 256 0 0.4 54.4 12.86
2877	676792 6758 1023 66427 340 20500.819855793054 256 0 3 335 521
2878	683550 7654 1023 66427 340 20500.819855793054 256 0.625 1 214.125 180.390625
2879	691204 7248 1023 66427 340 20500.819855793054 256 0 0.4 52.7 12.33
