version 2
run Stability-130-20130525-17:50:50-19193
attr configname Stability
attr datetime 20130525-17:50:50
attr experiment Stability
attr inifile omnetpp.ini
attr iterationvars $0=1e-7
attr iterationvars2 "$0=1e-7, $repetition=0"
attr measurement $0=1e-7
attr network Network
attr processid 19193
attr repetition 0
attr replication #0
attr resultdir results
attr runnumber 130
attr seedset 130

vector 12507  Network.dyn_peer[9]  lookupHopsSig:vector  ETV
vector 12508  Network.dyn_peer[9]  lookupStabilitySig:vector  ETV
vector 12509  Network.dyn_peer[9]  lookupTimeSig:vector  ETV
vector 12510  Network.dyn_peer[10]  lookupHopsSig:vector  ETV
vector 12511  Network.dyn_peer[10]  lookupStabilitySig:vector  ETV
vector 12512  Network.dyn_peer[10]  lookupTimeSig:vector  ETV
vector 12528  Network.dyn_peer[16]  lookupHopsSig:vector  ETV
vector 12529  Network.dyn_peer[16]  lookupStabilitySig:vector  ETV
vector 12530  Network.dyn_peer[16]  lookupTimeSig:vector  ETV
vector 12531  Network.dyn_peer[17]  lookupHopsSig:vector  ETV
vector 12532  Network.dyn_peer[17]  lookupStabilitySig:vector  ETV
vector 12533  Network.dyn_peer[17]  lookupTimeSig:vector  ETV
vector 12486  Network.dyn_peer[2]  lookupHopsSig:vector  ETV
vector 12487  Network.dyn_peer[2]  lookupStabilitySig:vector  ETV
vector 12488  Network.dyn_peer[2]  lookupTimeSig:vector  ETV
vector 12489  Network.dyn_peer[3]  lookupHopsSig:vector  ETV
vector 12490  Network.dyn_peer[3]  lookupStabilitySig:vector  ETV
vector 12491  Network.dyn_peer[3]  lookupTimeSig:vector  ETV
vector 12495  Network.dyn_peer[5]  lookupHopsSig:vector  ETV
vector 12496  Network.dyn_peer[5]  lookupStabilitySig:vector  ETV
vector 12497  Network.dyn_peer[5]  lookupTimeSig:vector  ETV
vector 12501  Network.dyn_peer[7]  lookupHopsSig:vector  ETV
vector 12502  Network.dyn_peer[7]  lookupStabilitySig:vector  ETV
vector 12503  Network.dyn_peer[7]  lookupTimeSig:vector  ETV
vector 12504  Network.dyn_peer[8]  lookupHopsSig:vector  ETV
vector 12505  Network.dyn_peer[8]  lookupStabilitySig:vector  ETV
vector 12506  Network.dyn_peer[8]  lookupTimeSig:vector  ETV
vector 12516  Network.dyn_peer[12]  lookupHopsSig:vector  ETV
vector 12517  Network.dyn_peer[12]  lookupStabilitySig:vector  ETV
vector 12518  Network.dyn_peer[12]  lookupTimeSig:vector  ETV
vector 12522  Network.dyn_peer[14]  lookupHopsSig:vector  ETV
vector 12523  Network.dyn_peer[14]  lookupStabilitySig:vector  ETV
vector 12524  Network.dyn_peer[14]  lookupTimeSig:vector  ETV
vector 12543  Network.dyn_peer[21]  lookupHopsSig:vector  ETV
vector 12544  Network.dyn_peer[21]  lookupStabilitySig:vector  ETV
vector 12545  Network.dyn_peer[21]  lookupTimeSig:vector  ETV
vector 12552  Network.dyn_peer[24]  lookupHopsSig:vector  ETV
vector 12553  Network.dyn_peer[24]  lookupStabilitySig:vector  ETV
vector 12554  Network.dyn_peer[24]  lookupTimeSig:vector  ETV
vector 12564  Network.dyn_peer[28]  lookupHopsSig:vector  ETV
vector 12565  Network.dyn_peer[28]  lookupStabilitySig:vector  ETV
vector 12566  Network.dyn_peer[28]  lookupTimeSig:vector  ETV
vector 12483  Network.dyn_peer[1]  lookupHopsSig:vector  ETV
vector 12484  Network.dyn_peer[1]  lookupStabilitySig:vector  ETV
vector 12485  Network.dyn_peer[1]  lookupTimeSig:vector  ETV
vector 12513  Network.dyn_peer[11]  lookupHopsSig:vector  ETV
vector 12514  Network.dyn_peer[11]  lookupStabilitySig:vector  ETV
vector 12515  Network.dyn_peer[11]  lookupTimeSig:vector  ETV
vector 12519  Network.dyn_peer[13]  lookupHopsSig:vector  ETV
vector 12520  Network.dyn_peer[13]  lookupStabilitySig:vector  ETV
vector 12521  Network.dyn_peer[13]  lookupTimeSig:vector  ETV
vector 12534  Network.dyn_peer[18]  lookupHopsSig:vector  ETV
vector 12535  Network.dyn_peer[18]  lookupStabilitySig:vector  ETV
vector 12536  Network.dyn_peer[18]  lookupTimeSig:vector  ETV
vector 12546  Network.dyn_peer[22]  lookupHopsSig:vector  ETV
vector 12547  Network.dyn_peer[22]  lookupStabilitySig:vector  ETV
vector 12548  Network.dyn_peer[22]  lookupTimeSig:vector  ETV
vector 12558  Network.dyn_peer[26]  lookupHopsSig:vector  ETV
vector 12559  Network.dyn_peer[26]  lookupStabilitySig:vector  ETV
vector 12560  Network.dyn_peer[26]  lookupTimeSig:vector  ETV
vector 12567  Network.dyn_peer[29]  lookupHopsSig:vector  ETV
vector 12568  Network.dyn_peer[29]  lookupStabilitySig:vector  ETV
vector 12569  Network.dyn_peer[29]  lookupTimeSig:vector  ETV
vector 12570  Network.dyn_peer[30]  lookupHopsSig:vector  ETV
vector 12571  Network.dyn_peer[30]  lookupStabilitySig:vector  ETV
vector 12572  Network.dyn_peer[30]  lookupTimeSig:vector  ETV
vector 12492  Network.dyn_peer[4]  lookupHopsSig:vector  ETV
vector 12493  Network.dyn_peer[4]  lookupStabilitySig:vector  ETV
vector 12494  Network.dyn_peer[4]  lookupTimeSig:vector  ETV
vector 12525  Network.dyn_peer[15]  lookupHopsSig:vector  ETV
vector 12526  Network.dyn_peer[15]  lookupStabilitySig:vector  ETV
vector 12527  Network.dyn_peer[15]  lookupTimeSig:vector  ETV
vector 12540  Network.dyn_peer[20]  lookupHopsSig:vector  ETV
vector 12541  Network.dyn_peer[20]  lookupStabilitySig:vector  ETV
vector 12542  Network.dyn_peer[20]  lookupTimeSig:vector  ETV
vector 12549  Network.dyn_peer[23]  lookupHopsSig:vector  ETV
vector 12550  Network.dyn_peer[23]  lookupStabilitySig:vector  ETV
vector 12551  Network.dyn_peer[23]  lookupTimeSig:vector  ETV
vector 12561  Network.dyn_peer[27]  lookupHopsSig:vector  ETV
vector 12562  Network.dyn_peer[27]  lookupStabilitySig:vector  ETV
vector 12563  Network.dyn_peer[27]  lookupTimeSig:vector  ETV
vector 12573  Network.dyn_peer[31]  lookupHopsSig:vector  ETV
vector 12574  Network.dyn_peer[31]  lookupStabilitySig:vector  ETV
vector 12575  Network.dyn_peer[31]  lookupTimeSig:vector  ETV
vector 12498  Network.dyn_peer[6]  lookupHopsSig:vector  ETV
vector 12499  Network.dyn_peer[6]  lookupStabilitySig:vector  ETV
vector 12500  Network.dyn_peer[6]  lookupTimeSig:vector  ETV
vector 12537  Network.dyn_peer[19]  lookupHopsSig:vector  ETV
vector 12538  Network.dyn_peer[19]  lookupStabilitySig:vector  ETV
vector 12539  Network.dyn_peer[19]  lookupTimeSig:vector  ETV
vector 12480  Network.dyn_peer[0]  lookupHopsSig:vector  ETV
vector 12481  Network.dyn_peer[0]  lookupStabilitySig:vector  ETV
vector 12482  Network.dyn_peer[0]  lookupTimeSig:vector  ETV
vector 12555  Network.dyn_peer[25]  lookupHopsSig:vector  ETV
vector 12556  Network.dyn_peer[25]  lookupStabilitySig:vector  ETV
vector 12557  Network.dyn_peer[25]  lookupTimeSig:vector  ETV
12480	481	20.6000000001	6
12480	1236	21.6000000001	10
12480	1542	21.810486070235	1
12480	1801	22.016972603335	1
12480	1935	22.119507140591	1
12480	2866	22.919507140591	7
12480	3334	23.32400979601	3
12480	3647	23.62410979611	3
12480	4096	24.02410979611	3
12480	5042	24.953302469193	8
12480	5506	25.354238724126	3
12480	5856	25.66353171898	3
12480	5962	25.74998511667	4
12480	6101	25.930097859403	2
12480	6632	26.43275522437	5
12480	7062	26.83275522437	3
12480	7357	27.058877367634	1
12480	7533	27.260295354612	1
12480	7638	27.365895924446	1
12480	8130	27.865895924446	4
12480	8446	28.270912094489	3
12480	8674	28.47256475656	2
12480	9427	29.166372019669	3
12480	10224	29.866372019669	6
12480	10491	30.066472019769	2
12480	10733	30.266472019769	1
12480	10894	30.369624691073	0
12480	10901	30.371797698434	0
12480	11167	30.577729571357	1
12480	11285	30.677829571457	1
12480	11763	31.177829571457	4
12480	12146	31.485106576066	3
12480	12404	31.685106576066	1
12480	12834	31.994160931186	2
12480	13578	32.599694476084	6
12480	14741	33.599694476084	10
12480	15108	33.903770560769	3
12480	15619	34.303886459784	3
12480	15907	34.603986459884	3
12480	16207	34.903986459884	3
12480	17206	35.811331276951	8
12480	17632	36.119567791348	2
12480	18382	36.724370224272	5
12480	18386	36.724735654689	5
12480	18525	36.825970670473	4
12480	18906	37.128848094005	3
12480	19446	37.553635984278	2
12480	20514	38.325032402446	5
12480	21015	38.73357785827	4
12480	21319	39.03357785827	2
12480	22669	40.243423131008	11
12480	23362	40.841663186244	4
12480	23503	40.971321883066	1
12480	23723	41.150365888266	9
12480	23735	41.153237609221	2
12480	24076	41.450985593997	2
12480	24361	41.652293200701	1
12480	24427	41.676381643616	7
12480	24446	41.682060195755	0
12480	25349	42.482060195755	7
12480	25684	42.788103863504	2
12480	26242	43.191701309201	6
12480	26350	43.289808852751	6
12480	27133	43.894775469027	6
12480	28353	44.805409281689	6
12480	28767	45.1166490294	2
12480	29551	45.705509281789	4
12480	30190	46.305509281789	5
12480	30906	46.915087681726	6
12480	32142	47.845275045701	6
12480	32490	48.145275045701	2
12480	33557	49.051297867805	10
12480	34158	49.551297867805	4
12480	35245	50.357316409185	8
12480	35754	50.759641800372	3
12480	35758	50.761487577611	3
12480	36002	50.963555470304	1
12480	36006	50.963919933667	1
12480	36260	51.1655854176	1
12480	36519	51.3656854177	2
12480	36865	51.6656854177	2
12480	37235	51.985638012797	2
12480	37490	52.194384902286	1
12480	37648	52.35095409574	1
12480	38244	52.859994438933	5
12480	38704	53.269903211022	3
12480	38992	53.479359441666	1
12480	40315	54.480054614848	8
12480	40458	54.587010488941	13
12480	40967	55.086633721582	5
12480	41492	55.587064213171	5
12480	42652	56.621468528205	6
12480	43154	57.021468528205	3
12480	43761	57.528405122734	4
12480	43867	57.665411382372	3
12480	43940	57.72398299065	3
12480	44324	58.02408299075	3
12480	45361	58.72408299075	6
12480	46230	59.427166551752	6
12480	46355	59.540493800607	1
12480	46956	60.003173389136	4
12480	47882	60.609457582616	7
12480	48836	61.309457582616	8
12480	49728	62.113561092597	9
12480	50424	62.713561092597	5
12480	50577	62.830020522319	5
12480	50821	63.123184386624	4
12480	51269	63.523284386724	4
12480	51736	63.923284386724	3
12480	52141	64.223835529202	2
12480	52588	64.549979500698	3
12480	52756	64.726544974682	4
12480	52926	64.845362691331	5
12480	53056	64.951543057333	1
12480	54420	65.899600904734	6
12480	54753	66.109578758362	1
12480	55840	66.918975699106	8
12480	56841	67.742483816099	7
12480	56935	67.818975699106	8
12480	57087	67.951800614007	1
12480	57152	68.031250870606	1
12480	57311	68.157060403262	1
12480	57582	68.357160403362	2
12480	58935	69.5887436926	9
12480	59425	69.993662258822	3
12480	59600	70.200020698234	1
12480	59726	70.300120698334	1
12480	59990	70.504702960058	1
12480	60414	70.862539784343	3
12480	60630	71.015727438735	5
12480	62064	72.21848377179	13
12480	63250	73.31848377179	10
12480	64120	74.024385495401	8
12480	64572	74.424485495501	4
12480	65654	75.324485495501	8
12480	66266	75.830428114692	4
12480	66412	75.939095977228	3
12480	66794	76.331144363945	4
12480	67872	77.235474616779	11
12480	68495	77.735474616779	4
12480	69286	78.446836673026	6
12480	69477	78.570932817137	6
12480	69996	78.978508912237	3
12480	70167	79.152673983627	7
12480	70174	79.155400292014	7
12480	70480	79.382938334378	3
12480	71017	79.786776107889	3
12480	71319	80.07893646201	6
12480	71580	80.288762243733	1
12480	71658	80.350150904934	1
12480	72709	81.25560042631	9
12480	73445	82.033614026661	2
12480	73461	82.05560042631	7
12480	74033	82.56479652766	5
12480	74404	82.842586368158	8
12480	74552	82.970047820867	3
12480	75472	83.678858201824	8
12480	75841	83.978858201824	3
12480	76138	84.181342059517	1
12480	76261	84.297340391613	1
12480	76276	84.316081325101	1
12480	76758	84.688815891338	4
12480	77317	85.194337845295	5
12480	78325	85.894337845295	7
12480	78604	86.094738575268	1
12480	79499	86.842961158367	4
12480	79679	87.005251937378	9
12480	80046	87.312884500359	3
12480	80469	87.619560193809	2
12480	80746	87.828184628978	1
12480	81015	88.030966433407	1
12480	81629	88.531414322766	5
12480	81850	88.745558454918	2
12480	82369	89.146769018084	4
12480	83724	90.146769018084	11
12480	83958	90.351197418192	1
12480	84561	90.953037044907	6
12480	84769	91.157356612892	2
12480	85141	91.557356612892	4
12480	85481	91.857617246583	2
12480	85909	92.267067391527	3
12480	86669	92.867282551193	6
12480	87369	93.467282551193	5
12480	87587	93.673984904921	1
12480	87815	93.876633691443	1
12480	87945	93.986106859796	1
12480	89324	95.043929109851	8
12480	89346	95.086106859796	11
12480	89469	95.189751657553	1
12480	89848	95.499486424708	2
12480	89951	95.551085022288	6
12480	90298	95.833447530723	7
12480	90341	95.852223097573	3
12480	90540	96.005055787839	5
12480	90707	96.114400502991	1
12480	91255	96.514400502991	3
12480	91756	96.92481406857	3
12480	92556	97.62491406867	7
12480	92800	97.828199020332	1
12480	93045	98.033171938475	3
12480	93050	98.033557355722	3
12480	93071	98.033657355822	0
12480	93518	98.433657355822	3
12480	94127	98.943788740868	4
12480	94337	99.153158656407	1
12480	94485	99.261630214622	1
12480	94490	99.266854101734	1
12480	94845	99.563586586165	3
12480	95577	100.16802665767	6
12480	96118	100.66802665767	4
12480	97203	101.579365726895	9
12480	97334	101.684523634682	1
12480	98278	102.489405200555	8
12480	98924	103.06005567861	1
12480	99535	103.56015567871	5
12480	100153	104.06015567871	4
12480	101074	104.865766146475	8
12480	101391	105.165766146475	2
12480	102189	105.87110008861	6
12480	102756	106.283793670118	3
12480	103293	106.683793670118	3
12480	104003	107.189465978438	3
12480	104468	107.500200376159	2
12480	104587	107.591186803997	2
12480	104987	107.899221184929	2
12480	105572	108.302634469787	4
12480	107100	109.522329041064	6
12480	108498	110.722329041064	11
12480	109037	111.225423250955	5
12480	109157	111.334723054577	1
12480	109448	111.634723054577	2
12480	110410	112.324893246228	2
12480	111693	113.524993246328	12
12480	112169	114.024993246328	4
12480	112360	114.228093119881	1
12480	112364	114.229934809028	1
12480	112523	114.395062808612	7
12480	113709	115.395162808712	10
12480	114436	115.896826835967	4
12480	114501	115.929800365445	2
12480	115179	116.430586138007	6
12480	115670	116.838939136271	3
12480	115967	117.101591667891	2
12480	116040	117.146643786468	2
12480	116968	117.862221338941	7
12480	117548	118.262321339041	4
12480	118442	118.962321339041	6
12480	118765	119.265024005205	3
12480	119070	119.573202266283	2
12480	119253	119.761609730983	6
12480	119562	120.066372424356	3
12480	119903	120.366372424356	3
12480	120399	120.774287656635	3
12480	120911	121.097879045574	5
12480	121670	121.705531198737	6
12480	122201	122.105531198737	3
12480	123444	123.176037800976	6
12480	123605	123.312569917811	12
12480	124297	123.883931015676	7
12480	124353	123.921964377055	5
12480	124561	124.124577052939	1
12480	124705	124.2201035362	5
12480	124966	124.425626322131	1
12480	125324	124.73409947083	2
12480	125340	124.736638730888	0
12480	127118	126.436638730888	16
12480	127880	127.044476494717	6
12480	128233	127.352544592006	2
12480	128269	127.376772963893	9
12480	128354	127.464442162721	2
12480	129795	128.672543836722	14
12480	130581	129.372543836722	7
12480	131865	130.479414955935	11
12480	132255	130.782221613339	9
12480	132272	130.787975586788	2
12480	132402	130.902004835747	2
12480	133000	131.409586761148	5
12480	133476	131.809586761148	3
12480	133796	132.110823791137	2
12480	134452	132.617311670184	5
12480	134490	132.659513685534	5
12480	134507	132.664069876156	0
12480	135062	133.164069876156	5
12480	135401	133.464169876256	3
12480	136088	134.064169876256	5
12480	136319	134.273827308471	1
12480	136442	134.390084706236	1
12480	136630	134.575946843094	3
12480	136758	134.696404345799	4
12480	136874	134.842321230128	3
12481	481	20.6000000001	0.25
12481	1236	21.6000000001	-0.25
12481	1542	21.810486070235	0.875
12481	1801	22.016972603335	0.875
12481	1935	22.119507140591	0.875
12481	2866	22.919507140591	0.125
12481	3334	23.32400979601	0.625
12481	3647	23.62410979611	0.625
12481	4096	24.02410979611	0.625
12481	5042	24.953302469193	0
12481	5506	25.354238724126	0.625
12481	5856	25.66353171898	0.625
12481	5962	25.74998511667	0.5
12481	6101	25.930097859403	0.75
12481	6632	26.43275522437	0.375
12481	7062	26.83275522437	0.625
12481	7357	27.058877367634	0.875
12481	7533	27.260295354612	0.875
12481	7638	27.365895924446	0.875
12481	8130	27.865895924446	0.5
12481	8446	28.270912094489	0.625
12481	8674	28.47256475656	0.75
12481	9427	29.166372019669	0.625
12481	10224	29.866372019669	0.25
12481	10491	30.066472019769	0.75
12481	10733	30.266472019769	0.875
12481	10894	30.369624691073	1
12481	10901	30.371797698434	1
12481	11167	30.577729571357	0.875
12481	11285	30.677829571457	0.875
12481	11763	31.177829571457	0.5
12481	12146	31.485106576066	0.625
12481	12404	31.685106576066	0.875
12481	12834	31.994160931186	0.75
12481	13578	32.599694476084	0.25
12481	14741	33.599694476084	-0.25
12481	15108	33.903770560769	0.625
12481	15619	34.303886459784	0.625
12481	15907	34.603986459884	0.625
12481	16207	34.903986459884	0.625
12481	17206	35.811331276951	0
12481	17632	36.119567791348	0.75
12481	18382	36.724370224272	0.375
12481	18386	36.724735654689	0.375
12481	18525	36.825970670473	0.5
12481	18906	37.128848094005	0.625
12481	19446	37.553635984278	0.75
12481	20514	38.325032402446	0.375
12481	21015	38.73357785827	0.5
12481	21319	39.03357785827	0.75
12481	22669	40.243423131008	-0.375
12481	23362	40.841663186244	0.5
12481	23503	40.971321883066	0.875
12481	23723	41.150365888266	-0.125
12481	23735	41.153237609221	0.75
12481	24076	41.450985593997	0.75
12481	24361	41.652293200701	0.875
12481	24427	41.676381643616	0.125
12481	24446	41.682060195755	1
12481	25349	42.482060195755	0.125
12481	25684	42.788103863504	0.75
12481	26242	43.191701309201	0.25
12481	26350	43.289808852751	0.25
12481	27133	43.894775469027	0.25
12481	28353	44.805409281689	0.25
12481	28767	45.1166490294	0.75
12481	29551	45.705509281789	0.5
12481	30190	46.305509281789	0.375
12481	30906	46.915087681726	0.25
12481	32142	47.845275045701	0.25
12481	32490	48.145275045701	0.75
12481	33557	49.051297867805	-0.25
12481	34158	49.551297867805	0.5
12481	35245	50.357316409185	0
12481	35754	50.759641800372	0.625
12481	35758	50.761487577611	0.625
12481	36002	50.963555470304	0.875
12481	36006	50.963919933667	0.875
12481	36260	51.1655854176	0.875
12481	36519	51.3656854177	0.75
12481	36865	51.6656854177	0.75
12481	37235	51.985638012797	0.75
12481	37490	52.194384902286	0.875
12481	37648	52.35095409574	0.875
12481	38244	52.859994438933	0.375
12481	38704	53.269903211022	0.625
12481	38992	53.479359441666	0.875
12481	40315	54.480054614848	0
12481	40458	54.587010488941	-0.625
12481	40967	55.086633721582	0.375
12481	41492	55.587064213171	0.375
12481	42652	56.621468528205	0.25
12481	43154	57.021468528205	0.625
12481	43761	57.528405122734	0.5
12481	43867	57.665411382372	0.625
12481	43940	57.72398299065	0.625
12481	44324	58.02408299075	0.625
12481	45361	58.72408299075	0.25
12481	46230	59.427166551752	0.25
12481	46355	59.540493800607	0.875
12481	46956	60.003173389136	0.5
12481	47882	60.609457582616	0.125
12481	48836	61.309457582616	0
12481	49728	62.113561092597	-0.125
12481	50424	62.713561092597	0.375
12481	50577	62.830020522319	0.375
12481	50821	63.123184386624	0.5
12481	51269	63.523284386724	0.5
12481	51736	63.923284386724	0.625
12481	52141	64.223835529202	0.75
12481	52588	64.549979500698	0.625
12481	52756	64.726544974682	0.5
12481	52926	64.845362691331	0.375
12481	53056	64.951543057333	0.875
12481	54420	65.899600904734	0.25
12481	54753	66.109578758362	0.875
12481	55840	66.918975699106	0
12481	56841	67.742483816099	0.125
12481	56935	67.818975699106	0
12481	57087	67.951800614007	0.875
12481	57152	68.031250870606	0.875
12481	57311	68.157060403262	0.875
12481	57582	68.357160403362	0.75
12481	58935	69.5887436926	-0.125
12481	59425	69.993662258822	0.625
12481	59600	70.200020698234	0.875
12481	59726	70.300120698334	0.875
12481	59990	70.504702960058	0.875
12481	60414	70.862539784343	0.625
12481	60630	71.015727438735	0.375
12481	62064	72.21848377179	-0.625
12481	63250	73.31848377179	-0.25
12481	64120	74.024385495401	0
12481	64572	74.424485495501	0.5
12481	65654	75.324485495501	0
12481	66266	75.830428114692	0.5
12481	66412	75.939095977228	0.625
12481	66794	76.331144363945	0.5
12481	67872	77.235474616779	-0.375
12481	68495	77.735474616779	0.5
12481	69286	78.446836673026	0.25
12481	69477	78.570932817137	0.25
12481	69996	78.978508912237	0.625
12481	70167	79.152673983627	0.125
12481	70174	79.155400292014	0.125
12481	70480	79.382938334378	0.625
12481	71017	79.786776107889	0.625
12481	71319	80.07893646201	0.25
12481	71580	80.288762243733	0.875
12481	71658	80.350150904934	0.875
12481	72709	81.25560042631	-0.125
12481	73445	82.033614026661	0.75
12481	73461	82.05560042631	0.125
12481	74033	82.56479652766	0.375
12481	74404	82.842586368158	0
12481	74552	82.970047820867	0.625
12481	75472	83.678858201824	0
12481	75841	83.978858201824	0.625
12481	76138	84.181342059517	0.875
12481	76261	84.297340391613	0.875
12481	76276	84.316081325101	0.875
12481	76758	84.688815891338	0.5
12481	77317	85.194337845295	0.375
12481	78325	85.894337845295	0.125
12481	78604	86.094738575268	0.875
12481	79499	86.842961158367	0.5
12481	79679	87.005251937378	-0.125
12481	80046	87.312884500359	0.625
12481	80469	87.619560193809	0.75
12481	80746	87.828184628978	0.875
12481	81015	88.030966433407	0.875
12481	81629	88.531414322766	0.375
12481	81850	88.745558454918	0.75
12481	82369	89.146769018084	0.5
12481	83724	90.146769018084	-0.375
12481	83958	90.351197418192	0.875
12481	84561	90.953037044907	0.25
12481	84769	91.157356612892	0.75
12481	85141	91.557356612892	0.5
12481	85481	91.857617246583	0.75
12481	85909	92.267067391527	0.625
12481	86669	92.867282551193	0.25
12481	87369	93.467282551193	0.375
12481	87587	93.673984904921	0.875
12481	87815	93.876633691443	0.875
12481	87945	93.986106859796	0.875
12481	89324	95.043929109851	0
12481	89346	95.086106859796	-0.375
12481	89469	95.189751657553	0.875
12481	89848	95.499486424708	0.75
12481	89951	95.551085022288	0.25
12481	90298	95.833447530723	0.125
12481	90341	95.852223097573	0.625
12481	90540	96.005055787839	0.375
12481	90707	96.114400502991	0.875
12481	91255	96.514400502991	0.625
12481	91756	96.92481406857	0.625
12481	92556	97.62491406867	0.125
12481	92800	97.828199020332	0.875
12481	93045	98.033171938475	0.625
12481	93050	98.033557355722	0.625
12481	93071	98.033657355822	1
12481	93518	98.433657355822	0.625
12481	94127	98.943788740868	0.5
12481	94337	99.153158656407	0.875
12481	94485	99.261630214622	0.875
12481	94490	99.266854101734	0.875
12481	94845	99.563586586165	0.625
12481	95577	100.16802665767	0.25
12481	96118	100.66802665767	0.5
12481	97203	101.579365726895	-0.125
12481	97334	101.684523634682	0.875
12481	98278	102.489405200555	0
12481	98924	103.06005567861	0.875
12481	99535	103.56015567871	0.375
12481	100153	104.06015567871	0.5
12481	101074	104.865766146475	0
12481	101391	105.165766146475	0.75
12481	102189	105.87110008861	0.25
12481	102756	106.283793670118	0.625
12481	103293	106.683793670118	0.625
12481	104003	107.189465978438	0.625
12481	104468	107.500200376159	0.75
12481	104587	107.591186803997	0.75
12481	104987	107.899221184929	0.75
12481	105572	108.302634469787	0.5
12481	107100	109.522329041064	0.25
12481	108498	110.722329041064	-0.375
12481	109037	111.225423250955	0.375
12481	109157	111.334723054577	0.875
12481	109448	111.634723054577	0.75
12481	110410	112.324893246228	0.75
12481	111693	113.524993246328	-0.5
12481	112169	114.024993246328	0.5
12481	112360	114.228093119881	0.875
12481	112364	114.229934809028	0.875
12481	112523	114.395062808612	0.125
12481	113709	115.395162808712	-0.25
12481	114436	115.896826835967	0.5
12481	114501	115.929800365445	0.75
12481	115179	116.430586138007	0.25
12481	115670	116.838939136271	0.625
12481	115967	117.101591667891	0.75
12481	116040	117.146643786468	0.75
12481	116968	117.862221338941	0.125
12481	117548	118.262321339041	0.5
12481	118442	118.962321339041	0.25
12481	118765	119.265024005205	0.625
12481	119070	119.573202266283	0.75
12481	119253	119.761609730983	0.25
12481	119562	120.066372424356	0.625
12481	119903	120.366372424356	0.625
12481	120399	120.774287656635	0.625
12481	120911	121.097879045574	0.375
12481	121670	121.705531198737	0.25
12481	122201	122.105531198737	0.625
12481	123444	123.176037800976	0.25
12481	123605	123.312569917811	-0.5
12481	124297	123.883931015676	0.125
12481	124353	123.921964377055	0.375
12481	124561	124.124577052939	0.875
12481	124705	124.2201035362	0.375
12481	124966	124.425626322131	0.875
12481	125324	124.73409947083	0.75
12481	125340	124.736638730888	1
12481	127118	126.436638730888	-1
12481	127880	127.044476494717	0.25
12481	128233	127.352544592006	0.75
12481	128269	127.376772963893	0
12481	128354	127.464442162721	0.75
12481	129795	128.672543836722	-0.75
12481	130581	129.372543836722	0.125
12481	131865	130.479414955935	-0.375
12481	132255	130.782221613339	-0.125
12481	132272	130.787975586788	0.75
12481	132402	130.902004835747	0.75
12481	133000	131.409586761148	0.375
12481	133476	131.809586761148	0.625
12481	133796	132.110823791137	0.75
12481	134452	132.617311670184	0.375
12481	134490	132.659513685534	0.375
12481	134507	132.664069876156	1
12481	135062	133.164069876156	0.375
12481	135401	133.464169876256	0.625
12481	136088	134.064169876256	0.375
12481	136319	134.273827308471	0.875
12481	136442	134.390084706236	0.875
12481	136630	134.575946843094	0.625
12481	136758	134.696404345799	0.5
12481	136874	134.842321230128	0.625
12482	481	20.6000000001	0.6
12482	1236	21.6000000001	1
12482	1542	21.810486070235	0.2
12482	1801	22.016972603335	0.2
12482	1935	22.119507140591	0.1
12482	2866	22.919507140591	0.8
12482	3334	23.32400979601	0.4
12482	3647	23.62410979611	0.3
12482	4096	24.02410979611	0.4
12482	5042	24.953302469193	0.9
12482	5506	25.354238724126	0.4
12482	5856	25.66353171898	0.3
12482	5962	25.74998511667	0.4
12482	6101	25.930097859403	0.3
12482	6632	26.43275522437	0.5
12482	7062	26.83275522437	0.4
12482	7357	27.058877367634	0.2
12482	7533	27.260295354612	0.2
12482	7638	27.365895924446	0.1
12482	8130	27.865895924446	0.5
12482	8446	28.270912094489	0.4
12482	8674	28.47256475656	0.2
12482	9427	29.166372019669	0.3
12482	10224	29.866372019669	0.7
12482	10491	30.066472019769	0.2
12482	10733	30.266472019769	0.2
12482	10894	30.369624691073	0.1
12482	10901	30.371797698434	0.1
12482	11167	30.577729571357	0.2
12482	11285	30.677829571457	0.1
12482	11763	31.177829571457	0.5
12482	12146	31.485106576066	0.3
12482	12404	31.685106576066	0.2
12482	12834	31.994160931186	0.3
12482	13578	32.599694476084	0.6
12482	14741	33.599694476084	1
12482	15108	33.903770560769	0.3
12482	15619	34.303886459784	0.4
12482	15907	34.603986459884	0.3
12482	16207	34.903986459884	0.3
12482	17206	35.811331276951	0.9
12482	17632	36.119567791348	0.3
12482	18382	36.724370224272	0.6
12482	18386	36.724735654689	0.6
12482	18525	36.825970670473	0.5
12482	18906	37.128848094005	0.3
12482	19446	37.553635984278	0.2
12482	20514	38.325032402446	0.5
12482	21015	38.73357785827	0.4
12482	21319	39.03357785827	0.3
12482	22669	40.243423131008	1.2
12482	23362	40.841663186244	0.5
12482	23503	40.971321883066	0.2
12482	23723	41.150365888266	0.9
12482	23735	41.153237609221	0.3
12482	24076	41.450985593997	0.3
12482	24361	41.652293200701	0.2
12482	24427	41.676381643616	0.7
12482	24446	41.682060195755	0
12482	25349	42.482060195755	0.8
12482	25684	42.788103863504	0.3
12482	26242	43.191701309201	0.6
12482	26350	43.289808852751	0.5
12482	27133	43.894775469027	0.6
12482	28353	44.805409281689	0.6
12482	28767	45.1166490294	0.3
12482	29551	45.705509281789	0.4
12482	30190	46.305509281789	0.6
12482	30906	46.915087681726	0.6
12482	32142	47.845275045701	0.5
12482	32490	48.145275045701	0.3
12482	33557	49.051297867805	0.9
12482	34158	49.551297867805	0.5
12482	35245	50.357316409185	0.8
12482	35754	50.759641800372	0.4
12482	35758	50.761487577611	0.4
12482	36002	50.963555470304	0.2
12482	36006	50.963919933667	0.2
12482	36260	51.1655854176	0.2
12482	36519	51.3656854177	0.2
12482	36865	51.6656854177	0.3
12482	37235	51.985638012797	0.3
12482	37490	52.194384902286	0.2
12482	37648	52.35095409574	0.2
12482	38244	52.859994438933	0.5
12482	38704	53.269903211022	0.4
12482	38992	53.479359441666	0.2
12482	40315	54.480054614848	0.9
12482	40458	54.587010488941	1.1
12482	40967	55.086633721582	0.6
12482	41492	55.587064213171	0.5
12482	42652	56.621468528205	0.6
12482	43154	57.021468528205	0.4
12482	43761	57.528405122734	0.5
12482	43867	57.665411382372	0.4
12482	43940	57.72398299065	0.4
12482	44324	58.02408299075	0.3
12482	45361	58.72408299075	0.7
12482	46230	59.427166551752	0.7
12482	46355	59.540493800607	0.1
12482	46956	60.003173389136	0.5
12482	47882	60.609457582616	0.6
12482	48836	61.309457582616	0.7
12482	49728	62.113561092597	0.8
12482	50424	62.713561092597	0.6
12482	50577	62.830020522319	0.6
12482	50821	63.123184386624	0.4
12482	51269	63.523284386724	0.4
12482	51736	63.923284386724	0.4
12482	52141	64.223835529202	0.3
12482	52588	64.549979500698	0.4
12482	52756	64.726544974682	0.5
12482	52926	64.845362691331	0.6
12482	53056	64.951543057333	0.1
12482	54420	65.899600904734	0.7
12482	54753	66.109578758362	0.2
12482	55840	66.918975699106	0.8
12482	56841	67.742483816099	0.6
12482	56935	67.818975699106	0.9
12482	57087	67.951800614007	0.2
12482	57152	68.031250870606	0.2
12482	57311	68.157060403262	0.2
12482	57582	68.357160403362	0.2
12482	58935	69.5887436926	0.8
12482	59425	69.993662258822	0.4
12482	59600	70.200020698234	0.2
12482	59726	70.300120698334	0.1
12482	59990	70.504702960058	0.2
12482	60414	70.862539784343	0.4
12482	60630	71.015727438735	0.5
12482	62064	72.21848377179	1.2
12482	63250	73.31848377179	1.1
12482	64120	74.024385495401	0.7
12482	64572	74.424485495501	0.4
12482	65654	75.324485495501	0.9
12482	66266	75.830428114692	0.5
12482	66412	75.939095977228	0.4
12482	66794	76.331144363945	0.5
12482	67872	77.235474616779	0.9
12482	68495	77.735474616779	0.5
12482	69286	78.446836673026	0.7
12482	69477	78.570932817137	0.7
12482	69996	78.978508912237	0.4
12482	70167	79.152673983627	0.7
12482	70174	79.155400292014	0.7
12482	70480	79.382938334378	0.4
12482	71017	79.786776107889	0.4
12482	71319	80.07893646201	0.7
12482	71580	80.288762243733	0.2
12482	71658	80.350150904934	0.2
12482	72709	81.25560042631	0.9
12482	73445	82.033614026661	0.3
12482	73461	82.05560042631	0.8
12482	74033	82.56479652766	0.5
12482	74404	82.842586368158	0.8
12482	74552	82.970047820867	0.4
12482	75472	83.678858201824	0.7