version 2
run Stability-149-20130525-17:52:08-19193
attr configname Stability
attr datetime 20130525-17:52:08
attr experiment Stability
attr inifile omnetpp.ini
attr iterationvars $0=1e-8
attr iterationvars2 "$0=1e-8, $repetition=9"
attr measurement $0=1e-8
attr network Network
attr processid 19193
attr repetition 9
attr replication #9
attr resultdir results
attr runnumber 149
attr seedset 149

vector 14322  Network.dyn_peer[6]  lookupHopsSig:vector  ETV
vector 14323  Network.dyn_peer[6]  lookupStabilitySig:vector  ETV
vector 14324  Network.dyn_peer[6]  lookupTimeSig:vector  ETV
vector 14337  Network.dyn_peer[11]  lookupHopsSig:vector  ETV
vector 14338  Network.dyn_peer[11]  lookupStabilitySig:vector  ETV
vector 14339  Network.dyn_peer[11]  lookupTimeSig:vector  ETV
vector 14340  Network.dyn_peer[12]  lookupHopsSig:vector  ETV
vector 14341  Network.dyn_peer[12]  lookupStabilitySig:vector  ETV
vector 14342  Network.dyn_peer[12]  lookupTimeSig:vector  ETV
vector 14304  Network.dyn_peer[0]  lookupHopsSig:vector  ETV
vector 14305  Network.dyn_peer[0]  lookupStabilitySig:vector  ETV
vector 14306  Network.dyn_peer[0]  lookupTimeSig:vector  ETV
vector 14307  Network.dyn_peer[1]  lookupHopsSig:vector  ETV
vector 14308  Network.dyn_peer[1]  lookupStabilitySig:vector  ETV
vector 14309  Network.dyn_peer[1]  lookupTimeSig:vector  ETV
vector 14325  Network.dyn_peer[7]  lookupHopsSig:vector  ETV
vector 14326  Network.dyn_peer[7]  lookupStabilitySig:vector  ETV
vector 14327  Network.dyn_peer[7]  lookupTimeSig:vector  ETV
vector 14343  Network.dyn_peer[13]  lookupHopsSig:vector  ETV
vector 14344  Network.dyn_peer[13]  lookupStabilitySig:vector  ETV
vector 14345  Network.dyn_peer[13]  lookupTimeSig:vector  ETV
vector 14349  Network.dyn_peer[15]  lookupHopsSig:vector  ETV
vector 14350  Network.dyn_peer[15]  lookupStabilitySig:vector  ETV
vector 14351  Network.dyn_peer[15]  lookupTimeSig:vector  ETV
vector 14361  Network.dyn_peer[19]  lookupHopsSig:vector  ETV
vector 14362  Network.dyn_peer[19]  lookupStabilitySig:vector  ETV
vector 14363  Network.dyn_peer[19]  lookupTimeSig:vector  ETV
vector 14367  Network.dyn_peer[21]  lookupHopsSig:vector  ETV
vector 14368  Network.dyn_peer[21]  lookupStabilitySig:vector  ETV
vector 14369  Network.dyn_peer[21]  lookupTimeSig:vector  ETV
vector 14370  Network.dyn_peer[22]  lookupHopsSig:vector  ETV
vector 14371  Network.dyn_peer[22]  lookupStabilitySig:vector  ETV
vector 14372  Network.dyn_peer[22]  lookupTimeSig:vector  ETV
vector 14373  Network.dyn_peer[23]  lookupHopsSig:vector  ETV
vector 14374  Network.dyn_peer[23]  lookupStabilitySig:vector  ETV
vector 14375  Network.dyn_peer[23]  lookupTimeSig:vector  ETV
vector 14388  Network.dyn_peer[28]  lookupHopsSig:vector  ETV
vector 14389  Network.dyn_peer[28]  lookupStabilitySig:vector  ETV
vector 14390  Network.dyn_peer[28]  lookupTimeSig:vector  ETV
vector 14310  Network.dyn_peer[2]  lookupHopsSig:vector  ETV
vector 14311  Network.dyn_peer[2]  lookupStabilitySig:vector  ETV
vector 14312  Network.dyn_peer[2]  lookupTimeSig:vector  ETV
vector 14313  Network.dyn_peer[3]  lookupHopsSig:vector  ETV
vector 14314  Network.dyn_peer[3]  lookupStabilitySig:vector  ETV
vector 14315  Network.dyn_peer[3]  lookupTimeSig:vector  ETV
vector 14319  Network.dyn_peer[5]  lookupHopsSig:vector  ETV
vector 14320  Network.dyn_peer[5]  lookupStabilitySig:vector  ETV
vector 14321  Network.dyn_peer[5]  lookupTimeSig:vector  ETV
vector 14331  Network.dyn_peer[9]  lookupHopsSig:vector  ETV
vector 14332  Network.dyn_peer[9]  lookupStabilitySig:vector  ETV
vector 14333  Network.dyn_peer[9]  lookupTimeSig:vector  ETV
vector 14346  Network.dyn_peer[14]  lookupHopsSig:vector  ETV
vector 14347  Network.dyn_peer[14]  lookupStabilitySig:vector  ETV
vector 14348  Network.dyn_peer[14]  lookupTimeSig:vector  ETV
vector 14352  Network.dyn_peer[16]  lookupHopsSig:vector  ETV
vector 14353  Network.dyn_peer[16]  lookupStabilitySig:vector  ETV
vector 14354  Network.dyn_peer[16]  lookupTimeSig:vector  ETV
vector 14355  Network.dyn_peer[17]  lookupHopsSig:vector  ETV
vector 14356  Network.dyn_peer[17]  lookupStabilitySig:vector  ETV
vector 14357  Network.dyn_peer[17]  lookupTimeSig:vector  ETV
vector 14376  Network.dyn_peer[24]  lookupHopsSig:vector  ETV
vector 14377  Network.dyn_peer[24]  lookupStabilitySig:vector  ETV
vector 14378  Network.dyn_peer[24]  lookupTimeSig:vector  ETV
vector 14382  Network.dyn_peer[26]  lookupHopsSig:vector  ETV
vector 14383  Network.dyn_peer[26]  lookupStabilitySig:vector  ETV
vector 14384  Network.dyn_peer[26]  lookupTimeSig:vector  ETV
vector 14316  Network.dyn_peer[4]  lookupHopsSig:vector  ETV
vector 14317  Network.dyn_peer[4]  lookupStabilitySig:vector  ETV
vector 14318  Network.dyn_peer[4]  lookupTimeSig:vector  ETV
vector 14334  Network.dyn_peer[10]  lookupHopsSig:vector  ETV
vector 14335  Network.dyn_peer[10]  lookupStabilitySig:vector  ETV
vector 14336  Network.dyn_peer[10]  lookupTimeSig:vector  ETV
vector 14358  Network.dyn_peer[18]  lookupHopsSig:vector  ETV
vector 14359  Network.dyn_peer[18]  lookupStabilitySig:vector  ETV
vector 14360  Network.dyn_peer[18]  lookupTimeSig:vector  ETV
vector 14364  Network.dyn_peer[20]  lookupHopsSig:vector  ETV
vector 14365  Network.dyn_peer[20]  lookupStabilitySig:vector  ETV
vector 14366  Network.dyn_peer[20]  lookupTimeSig:vector  ETV
vector 14385  Network.dyn_peer[27]  lookupHopsSig:vector  ETV
vector 14386  Network.dyn_peer[27]  lookupStabilitySig:vector  ETV
vector 14387  Network.dyn_peer[27]  lookupTimeSig:vector  ETV
vector 14391  Network.dyn_peer[29]  lookupHopsSig:vector  ETV
vector 14392  Network.dyn_peer[29]  lookupStabilitySig:vector  ETV
vector 14393  Network.dyn_peer[29]  lookupTimeSig:vector  ETV
vector 14394  Network.dyn_peer[30]  lookupHopsSig:vector  ETV
vector 14395  Network.dyn_peer[30]  lookupStabilitySig:vector  ETV
vector 14396  Network.dyn_peer[30]  lookupTimeSig:vector  ETV
vector 14379  Network.dyn_peer[25]  lookupHopsSig:vector  ETV
vector 14380  Network.dyn_peer[25]  lookupStabilitySig:vector  ETV
vector 14381  Network.dyn_peer[25]  lookupTimeSig:vector  ETV
vector 14397  Network.dyn_peer[31]  lookupHopsSig:vector  ETV
vector 14398  Network.dyn_peer[31]  lookupStabilitySig:vector  ETV
vector 14399  Network.dyn_peer[31]  lookupTimeSig:vector  ETV
vector 14328  Network.dyn_peer[8]  lookupHopsSig:vector  ETV
vector 14329  Network.dyn_peer[8]  lookupStabilitySig:vector  ETV
vector 14330  Network.dyn_peer[8]  lookupTimeSig:vector  ETV
14304	134	20.10000000001	1
14304	394	20.50000000001	3
14304	1120	21.40020000024	5
14304	1639	21.90020000024	4
14304	1847	22.104468816982	1
14304	2614	22.813831193016	7
14304	3663	23.722722224058	8
14304	3716	23.810844115012	8
14304	4143	24.215125755676	15
14304	4199	24.22701487828	4
14304	4296	24.32600368478	4
14304	4526	24.528408274245	2
14304	5303	25.228408274245	7
14304	5685	25.534578357385	2
14304	6566	26.140940030703	5
14304	6819	26.346841621267	1
14304	6964	26.456845363941	5
14304	7665	27.056945363951	6
14304	7883	27.256945363951	1
14304	8407	27.658335466223	3
14304	9315	28.358435466233	8
14304	9824	28.758435466233	3
14304	10075	28.958558958805	1
14304	10601	29.359036624833	3
14304	11894	30.462261556346	12
14304	12421	30.876648014527	3
14304	12657	31.07877490271	1
14304	13120	31.480555954471	5
14304	13137	31.485762374468	5
14304	13352	31.69327509689	2
14304	13476	31.881312566381	3
14304	13505	31.89036226421	2
14304	13552	31.912112259131	1
14304	13810	32.165243082034	10
14304	14952	33.166710481717	10
14304	16162	34.166710481717	9
14304	16502	34.472828037879	2
14304	16953	34.882178387025	3
14304	17114	34.987256525024	1
14304	17959	35.687256525024	6
14304	18958	36.59711941257	9
14304	19690	37.302925431858	7
14304	20335	37.902925431858	6
14304	21175	38.614133855096	6
14304	21559	39.016004162963	4
14304	21809	39.216004162963	1
14304	22760	40.019283934616	7
14304	22881	40.125171263733	0
14304	23441	40.589997110278	1
14304	24155	41.189997110278	6
14304	24526	41.474522432198	1
14304	25059	41.976130642862	4
14304	25103	41.999713022682	9
14304	25309	42.206809132083	1
14304	25939	42.813678970023	6
14304	26484	43.313678970023	4
14304	26979	43.813778970033	5
14304	27236	44.014918112581	1
14304	27614	44.419096621755	3
14304	27833	44.621319464021	1
14304	28667	45.297095328295	2
14304	28718	45.329628419844	7
14304	29675	46.138420311222	9
14304	30011	46.438420311222	2
14304	30641	46.938717870374	4
14304	30658	46.944997242351	4
14304	31077	47.245283002915	2
14304	31084	47.246710137284	2
14304	31104	47.25374388165	2
14304	31618	47.659237850861	3
14304	31638	47.676247222843	3
14304	32672	48.480045376767	8
14304	33179	48.880045376767	3
14304	33868	49.470201290256	1
14304	33931	49.484787891858	5
14304	34196	49.689231730028	2
14304	35309	50.660365318118	7
14304	35626	50.960365318118	2
14304	35910	51.268774139073	2
14304	36301	51.570081158662	2
14304	36602	51.849574701931	2
14304	37209	52.351199182927	5
14304	37431	52.551199182927	2
14304	37939	53.052026858484	4
14304	38161	53.260127004499	1
14304	38182	53.266813925786	0
14304	38806	53.866813925786	5
14304	40002	54.914051356371	2
14304	40919	55.614151356381	7
14304	41282	55.914151356381	2
14304	41668	56.218221711602	2
14304	41706	56.246635713629	2
14304	41816	56.356574799379	1
14304	42047	56.556574799379	1
14304	42293	56.760945212408	1
14304	43435	57.769443990609	10
14304	43829	58.069443990609	2
14304	44094	58.274071475493	1
14304	44487	58.586049668445	1
14304	45313	59.386049668445	7
14304	45671	59.696669098736	6
14304	45798	59.80415010274	1
14304	46437	60.30415010274	4
14304	48274	61.81187810649	7
14304	49044	62.51187810649	6
14304	49890	63.213967366188	6
14304	50685	63.932829986943	4
14304	51068	64.228124493554	11
14304	51095	64.230400287535	0
14304	51495	64.530400287535	2
14304	51864	64.830755133629	3
14304	52663	65.537765858185	8
14304	52830	65.737765858185	1
14304	53400	66.245246336553	4
14304	53570	66.377572928053	2
14304	54341	67.085616829894	7
14304	54697	67.385616829894	3
14304	54926	67.58877828923	1
14304	55400	67.98887828924	5
14304	55894	68.38887828924	3
14304	56597	68.89218378597	5
14304	56934	69.19218378597	2
14304	57154	69.39228378598	3
14304	57916	69.99228378598	6
14304	58582	70.601744763016	6
14304	58936	71.008409992424	3
14304	59221	71.310496179929	2
14304	59357	71.428780877415	2
14304	60478	72.235042086639	8
14304	61676	73.135042086639	8
14304	61931	73.344000997778	1
14304	62644	73.846175010501	4
14304	62672	73.890546122402	4
14304	62800	73.993902362332	1
14304	63021	74.20219986673	1
14304	63083	74.251547376079	3
14304	63104	74.257220700407	0
14304	63425	74.557220700407	2
14304	64015	75.058647313263	4
14304	64052	75.066234495863	4
14304	64292	75.263427539107	2
14304	64752	75.565184134519	2
14304	65141	75.87488972142	3
14304	65342	76.07488972142	1
14304	66392	76.91153556738	9
14304	66819	77.31153556738	3
14304	67930	78.420799629192	9
14304	68449	78.826082953536	4
14304	68739	79.126082953536	2
14304	69148	79.536008492936	3
14304	69422	79.744705793153	1
14304	69738	79.946495994135	2
14304	70410	80.548997186956	5
14304	70629	80.749174671615	1
14304	71165	81.149866557603	4
14304	72273	82.149866557603	9
14304	72509	82.357684085098	1
14304	72968	82.760625226424	3
14304	73074	82.864472884471	2
14304	73241	82.968693811633	1
14304	73896	83.468693811633	4
14304	74300	83.772968383743	2
14304	74655	84.045423325044	1
14304	75533	84.745423325044	6
14304	75984	85.054559285468	5
14304	76029	85.103364186054	3
14304	76173	85.227582749672	3
14304	76191	85.257624883232	1
14304	76444	85.535440228107	2
14304	78048	86.943705427726	16
14304	78863	87.543705427726	6
14304	80181	88.652264591057	12
14304	80847	89.160253358811	4
14304	81113	89.388525912175	1
14304	81321	89.609535953308	1
14304	81679	89.909777199268	3
14304	83560	91.412972010431	7
14304	84684	92.316081347145	9
14304	85144	92.719963632606	4
14304	85527	93.027514507077	2
14304	85535	93.036580917821	2
14304	87475	94.546467364164	15
14304	88127	95.046467364164	4
14304	89241	96.051415247003	9
14304	89321	96.107753055067	9
14304	89549	96.317100292225	2
14304	89988	96.717100292225	3
14304	90658	97.325657497562	5
14304	90856	97.430262811421	2
14304	91538	97.974459275972	1
14304	91775	98.174459275972	1
14304	91794	98.177613510812	0
14304	92465	98.777613510812	5
14304	93101	99.282337279754	4
14304	93228	99.390766914447	4
14304	93314	99.468578116804	4
14304	93464	99.570257920461	1
14304	93965	100.070257920461	4
14304	94443	100.576410510473	4
14304	94918	100.983898191669	4
14304	95070	101.101910451993	5
14304	95090	101.128118743122	4
14304	95105	101.130114354988	0
14304	95697	101.586735001234	3
14304	96607	102.288917077065	8
14304	97596	103.145497444864	6
14304	97620	103.188917077065	8
14304	97875	103.389971000954	1
14304	98566	103.896849507235	5
14304	99847	104.896849507235	9
14304	100335	105.504770950343	5
14304	100978	106.110404343277	5
14304	101849	106.823793661796	7
14304	102318	107.127914069476	3
14304	103010	107.627914069476	4
14304	103458	108.128198712488	4
14304	103912	108.528357448323	5
14304	104809	109.228357448323	6
14304	105124	109.535969388048	2
14304	105961	110.336656647337	3
14304	106304	110.644286343847	3
14304	107431	111.544286343847	11
14304	107444	111.556178921193	5
14304	107919	111.967014557282	2
14304	108280	112.257172052007	6
14304	108356	112.283377600795	3
14304	108831	112.683691281002	4
14304	109582	113.383691281002	6
14304	109903	113.687968288397	2
14304	109910	113.690438613284	2
14304	109992	113.791033736445	2
14304	110343	114.191133736455	4
14304	112243	115.791133736455	16
14304	112792	116.2099237028	4
14304	113182	116.518650387511	3
14304	113231	116.536055924221	2
14304	113421	116.724625583206	1
14304	113669	116.925742166956	2
14304	114019	117.225742166956	3
14304	114490	117.62650196191	3
14304	114989	118.029565679613	3
14304	115338	118.323688577438	2
14304	115755	118.626024986637	5
14304	115897	118.727827852449	1
14304	116524	119.327827852449	5
14304	116804	119.630771222078	2
14304	117030	119.833363067114	1
14304	117067	119.843258971253	0
14304	117394	120.143258971253	3
14304	117810	120.553067121508	3
14304	118166	120.86167697305	2
14304	118578	121.261679164985	4
14304	118865	121.56181727873	3
14304	119200	121.863844633247	2
14304	119477	122.084958068682	1
14304	120225	122.685410027004	6
14304	121096	123.485410027004	7
14304	121818	124.190394289035	6
14304	122040	124.396390997751	1
14304	123134	125.201508011806	7
14304	123823	125.801608011816	6
14304	124259	126.211786086542	3
14304	124770	126.63172352124	3
14304	125013	126.839012095917	2
14304	125530	127.242584379951	3
14304	125815	127.446757425288	5
14304	125818	127.448058735271	3
14304	125825	127.457222939938	1
14304	125980	127.564770081575	1
14304	126419	127.864770081575	2
14304	126824	128.170407584387	2
14304	127052	128.377321555756	2
14304	127289	128.579941025816	4
14304	127570	128.83527241694	5
14304	127593	128.840886048822	7
14304	127980	129.142761569654	3
14304	128521	129.542761569654	3
14304	129062	129.929752797925	3
14304	129093	129.944660883776	3
14304	129666	130.345520978758	4
14304	130564	130.928450874789	3
14304	131144	131.428450874789	4
14304	131964	132.032922578647	6
14304	132170	132.241815652583	1
14304	132312	132.384442999004	5
14304	132767	132.793168319266	4
14304	133451	133.393168319266	5
14304	134462	134.186065724135	3
14304	134747	134.395595431318	10
14304	135041	134.690821702281	4
14305	134	20.10000000001	0.875
14305	394	20.50000000001	0.625
14305	1120	21.40020000024	0.375
14305	1639	21.90020000024	0.5
14305	1847	22.104468816982	0.875
14305	2614	22.813831193016	0.125
14305	3663	23.722722224058	0
14305	3716	23.810844115012	0
14305	4143	24.215125755676	-0.875
14305	4199	24.22701487828	0.5
14305	4296	24.32600368478	0.5
14305	4526	24.528408274245	0.75
14305	5303	25.228408274245	0.125
14305	5685	25.534578357385	0.75
14305	6566	26.140940030703	0.375
14305	6819	26.346841621267	0.875
14305	6964	26.456845363941	0.375
14305	7665	27.056945363951	0.25
14305	7883	27.256945363951	0.875
14305	8407	27.658335466223	0.625
14305	9315	28.358435466233	0
14305	9824	28.758435466233	0.625
14305	10075	28.958558958805	0.875
14305	10601	29.359036624833	0.625
14305	11894	30.462261556346	-0.5
14305	12421	30.876648014527	0.625
14305	12657	31.07877490271	0.875
14305	13120	31.480555954471	0.375
14305	13137	31.485762374468	0.375
14305	13352	31.69327509689	0.75
14305	13476	31.881312566381	0.625
14305	13505	31.89036226421	0.75
14305	13552	31.912112259131	0.875
14305	13810	32.165243082034	-0.25
14305	14952	33.166710481717	-0.25
14305	16162	34.166710481717	-0.125
14305	16502	34.472828037879	0.75
14305	16953	34.882178387025	0.625
14305	17114	34.987256525024	0.875
14305	17959	35.687256525024	0.25
14305	18958	36.59711941257	-0.125
14305	19690	37.302925431858	0.125
14305	20335	37.902925431858	0.25
14305	21175	38.614133855096	0.25
14305	21559	39.016004162963	0.5
14305	21809	39.216004162963	0.875
14305	22760	40.019283934616	0.125
14305	22881	40.125171263733	1
14305	23441	40.589997110278	0.875
14305	24155	41.189997110278	0.25
14305	24526	41.474522432198	0.875
14305	25059	41.976130642862	0.5
14305	25103	41.999713022682	-0.125
14305	25309	42.206809132083	0.875
14305	25939	42.813678970023	0.25
14305	26484	43.313678970023	0.5
14305	26979	43.813778970033	0.375
14305	27236	44.014918112581	0.875
14305	27614	44.419096621755	0.625
14305	27833	44.621319464021	0.875
14305	28667	45.297095328295	0.75
14305	28718	45.329628419844	0.125
14305	29675	46.138420311222	-0.125
14305	30011	46.438420311222	0.75
14305	30641	46.938717870374	0.5
14305	30658	46.944997242351	0.5
14305	31077	47.245283002915	0.75
14305	31084	47.246710137284	0.75
14305	31104	47.25374388165	0.75
14305	31618	47.659237850861	0.625
14305	31638	47.676247222843	0.625
14305	32672	48.480045376767	0
14305	33179	48.880045376767	0.625
14305	33868	49.470201290256	0.875
14305	33931	49.484787891858	0.375
14305	34196	49.689231730028	0.75
14305	35309	50.660365318118	0.125
14305	35626	50.960365318118	0.75
14305	35910	51.268774139073	0.75
14305	36301	51.570081158662	0.75
14305	36602	51.849574701931	0.75
14305	37209	52.351199182927	0.375
14305	37431	52.551199182927	0.75
14305	37939	53.052026858484	0.5
14305	38161	53.260127004499	0.875
14305	38182	53.266813925786	1
14305	38806	53.866813925786	0.375
14305	40002	54.914051356371	0.75
14305	40919	55.614151356381	0.125
14305	41282	55.914151356381	0.75
14305	41668	56.218221711602	0.75
14305	41706	56.246635713629	0.75
14305	41816	56.356574799379	0.875
14305	42047	56.556574799379	0.875
14305	42293	56.760945212408	0.875
14305	43435	57.769443990609	-0.25
14305	43829	58.069443990609	0.75
14305	44094	58.274071475493	0.875
14305	44487	58.586049668445	0.875
14305	45313	59.386049668445	0.125
14305	45671	59.696669098736	0.25
14305	45798	59.80415010274	0.875
14305	46437	60.30415010274	0.5
14305	48274	61.81187810649	0.125
14305	49044	62.51187810649	0.25
14305	49890	63.213967366188	0.25
14305	50685	63.932829986943	0.5
14305	51068	64.228124493554	-0.375
14305	51095	64.230400287535	1
14305	51495	64.530400287535	0.75
14305	51864	64.830755133629	0.625
14305	52663	65.537765858185	0
14305	52830	65.737765858185	0.875
14305	53400	66.245246336553	0.5
14305	53570	66.377572928053	0.75
14305	54341	67.085616829894	0.125
14305	54697	67.385616829894	0.625
14305	54926	67.58877828923	0.875
14305	55400	67.98887828924	0.375
14305	55894	68.38887828924	0.625
14305	56597	68.89218378597	0.375
14305	56934	69.19218378597	0.75
14305	57154	69.39228378598	0.625
14305	57916	69.99228378598	0.25
14305	58582	70.601744763016	0.25
14305	58936	71.008409992424	0.625
14305	59221	71.310496179929	0.75
14305	59357	71.428780877415	0.75
14305	60478	72.235042086639	0
14305	61676	73.135042086639	0
14305	61931	73.344000997778	0.875
14305	62644	73.846175010501	0.5
14305	62672	73.890546122402	0.5
14305	62800	73.993902362332	0.875
14305	63021	74.20219986673	0.875
14305	63083	74.251547376079	0.625
14305	63104	74.257220700407	1
14305	63425	74.557220700407	0.75
14305	64015	75.058647313263	0.5
14305	64052	75.066234495863	0.5
14305	64292	75.263427539107	0.75
14305	64752	75.565184134519	0.75
14305	65141	75.87488972142	0.625
14305	65342	76.07488972142	0.875
14305	66392	76.91153556738	-0.125
14305	66819	77.31153556738	0.625
14305	67930	78.420799629192	-0.125
14305	68449	78.826082953536	0.5
14305	68739	79.126082953536	0.75
14305	69148	79.536008492936	0.625
14305	69422	79.744705793153	0.875
14305	69738	79.946495994135	0.75
14305	70410	80.548997186956	0.375
14305	70629	80.749174671615	0.875
14305	71165	81.149866557603	0.5
14305	72273	82.149866557603	-0.125
14305	72509	82.357684085098	0.875
14305	72968	82.760625226424	0.625
14305	73074	82.864472884471	0.75
14305	73241	82.968693811633	0.875
14305	73896	83.468693811633	0.5
14305	74300	83.772968383743	0.75
14305	74655	84.045423325044	0.875
14305	75533	84.745423325044	0.25
14305	75984	85.054559285468	0.375
14305	76029	85.103364186054	0.625
14305	76173	85.227582749672	0.625
14305	76191	85.257624883232	0.875
14305	76444	85.535440228107	0.75
14305	78048	86.943705427726	-1
14305	78863	87.543705427726	0.25
14305	80181	88.652264591057	-0.5
14305	80847	89.160253358811	0.5
14305	81113	89.388525912175	0.875
14305	81321	89.609535953308	0.875
14305	81679	89.909777199268	0.625
14305	83560	91.412972010431	0.125
14305	84684	92.316081347145	-0.125
14305	85144	92.719963632606	0.5
14305	85527	93.027514507077	0.75
14305	85535	93.036580917821	0.75
14305	87475	94.546467364164	-0.875
14305	88127	95.046467364164	0.5
14305	89241	96.051415247003	-0.125
14305	89321	96.107753055067	-0.125
14305	89549	96.317100292225	0.75
14305	89988	96.717100292225	0.625
14305	90658	97.325657497562	0.375
14305	90856	97.430262811421	0.75
14305	91538	97.974459275972	0.875
14305	91775	98.174459275972	0.875
14305	91794	98.177613510812	1
14305	92465	98.777613510812	0.375
14305	93101	99.282337279754	0.5
14305	93228	99.390766914447	0.5
14305	93314	99.468578116804	0.5
14305	93464	99.570257920461	0.875
14305	93965	100.070257920461	0.5
14305	94443	100.576410510473	0.5
14305	94918	100.983898191669	0.5
14305	95070	101.101910451993	0.375
14305	95090	101.128118743122	0.5
14305	95105	101.130114354988	1
14305	95697	101.586735001234	0.625
14305	96607	102.288917077065	0
14305	97596	103.145497444864	0.25
14305	97620	103.188917077065	0
14305	97875	103.389971000954	0.875
14305	98566	103.896849507235	0.375
14305	99847	104.896849507235	-0.125
14305	100335	105.504770950343	0.375
14305	100978	106.110404343277	0.375
14305	101849	106.823793661796	0.125
14305	102318	107.127914069476	0.625
14305	103010	107.627914069476	0.5
14305	103458	108.128198712488	0.5
14305	103912	108.528357448323	0.375
14305	104809	109.228357448323	0.25
14305	105124	109.535969388048	0.75
14305	105961	110.336656647337	0.625
14305	106304	110.644286343847	0.625
14305	107431	111.544286343847	-0.375
14305	107444	111.556178921193	0.375
14305	107919	111.967014557282	0.75
14305	108280	112.257172052007	0.25
14305	108356	112.283377600795	0.625
14305	108831	112.683691281002	0.5
14305	109582	113.383691281002	0.25
14305	109903	113.687968288397	0.75
14305	109910	113.690438613284	0.75
14305	109992	113.791033736445	0.75
14305	110343	114.191133736455	0.5
14305	112243	115.791133736455	-1
14305	112792	116.2099237028	0.5
14305	113182	116.518650387511	0.625
14305	113231	116.536055924221	0.75
14305	113421	116.724625583206	0.875
14305	113669	116.925742166956	0.75
14305	114019	117.225742166956	0.625
14305	114490	117.62650196191	0.625
14305	114989	118.029565679613	0.625
14305	115338	118.323688577438	0.75
14305	115755	118.626024986637	0.375
14305	115897	118.727827852449	0.875
14305	116524	119.327827852449	0.375
14305	116804	119.630771222078	0.75
14305	117030	119.833363067114	0.875
14305	117067	119.843258971253	1
14305	117394	120.143258971253	0.625
14305	117810	120.553067121508	0.625
14305	118166	120.86167697305	0.75
14305	118578	121.261679164985	0.5
14305	118865	121.56181727873	0.625
14305	119200	121.863844633247	0.75
14305	119477	122.084958068682	0.875
14305	120225	122.685410027004	0.25
14305	121096	123.485410027004	0.125
14305	121818	124.190394289035	0.25
14305	122040	124.396390997751	0.875
14305	123134	125.201508011806	0.125
14305	123823	125.801608011816	0.25
14305	124259	126.211786086542	0.625
14305	124770	126.63172352124	0.625
14305	125013	126.839012095917	0.75
14305	125530	127.242584379951	0.625
14305	125815	127.446757425288	0.375
14305	125818	127.448058735271	0.625
14305	125825	127.457222939938	0.875
14305	125980	127.564770081575	0.875
14305	126419	127.864770081575	0.75
14305	126824	128.170407584387	0.75
14305	127052	128.377321555756	0.75
14305	127289	128.579941025816	0.5
14305	127570	128.83527241694	0.375
14305	127593	128.840886048822	0.125
14305	127980	129.142761569654	0.625
14305	128521	129.542761569654	0.625
14305	129062	129.929752797925	0.625
14305	129093	129.944660883776	0.625
14305	129666	130.345520978758	0.5
14305	130564	130.928450874789	0.625
14305	131144	131.428450874789	0.5
14305	131964	132.032922578647	0.25
14305	132170	132.241815652583	0.875
14305	132312	132.384442999004	0.375
14305	132767	132.793168319266	0.5
14305	133451	133.393168319266	0.375
14305	134462	134.186065724135	0.625
14305	134747	134.395595431318	-0.25
14305	135041	134.690821702281	0.5
14306	134	20.10000000001	0.1
14306	394	20.50000000001	0.4
14306	1120	21.40020000024	0.4
14306	1639	21.90020000024	0.5
14306	1847	22.104468816982	0.2
14306	2614	22.813831193016	0.7
14306	3663	23.722722224058	0.9
14306	3716	23.810844115012	0.9
14306	4143	24.215125755676	1.4
14306	4199	24.22701487828	0.5
14306	4296	24.32600368478	0.5
14306	4526	24.528408274245	0.2
14306	5303	25.228408274245	0.7
14306	5685	25.534578357385	0.3
14306	6566	26.140940030703	0.6
14306	6819	26.346841621267	0.2
14306	6964	26.456845363941	0.5
14306	7665	27.056945363951	0.6
14306	7883	27.256945363951	0.2
14306	8407	27.658335466223	0.4
14306	9315	28.358435466233	0.7
14306	9824	28.758435466233	0.4
14306	10075	28.958558958805	0.2
14306	10601	29.359036624833	0.4
14306	11894	30.462261556346	1.1
14306	12421	30.876648014527	0.4
14306	12657	31.07877490271	0.2
14306	13120	31.480555954471	0.4
14306	13137	31.485762374468	0.4
14306	13352	31.69327509689	0.2
14306	13476	31.881312566381	0.4
14306	13505	31.89036226421	0.3
14306	13552	31.912112259131	0.2
14306	13810	32.165243082034	1
14306	14952	33.166710481717	1
14306	16162	34.166710481717	1
14306	16502	34.472828037879	0.3
14306	16953	34.882178387025	0.4
14306	17114	34.987256525024	0.1
14306	17959	35.687256525024	0.7
14306	18958	36.59711941257	0.9
14306	19690	37.302925431858	0.7
14306	20335	37.902925431858	0.6
14306	21175	38.614133855096	0.7
14306	21559	39.016004162963	0.4
14306	21809	39.216004162963	0.2
14306	22760	40.019283934616	0.8
14306	22881	40.125171263733	0.1
14306	23441	40.589997110278	0.1
14306	24155	41.189997110278	0.6
14306	24526	41.474522432198	0.2
14306	25059	41.976130642862	0.5
14306	25103	41.999713022682	0.8
14306	25309	42.206809132083	0.2
14306	25939	42.813678970023	0.6
14306	26484	43.313678970023	0.5
14306	26979	43.813778970033	0.5
14306	27236	44.014918112581	0.2
14306	27614	44.419096621755	0.4
14306	27833	44.621319464021	0.2
14306	28667	45.297095328295	0.3
14306	28718	45.329628419844	0.7
14306	29675	46.138420311222	0.8
14306	30011	46.438420311222	0.3
14306	30641	46.938717870374	0.5
14306	30658	46.944997242351	0.5
14306	31077	47.245283002915	0.3
14306	31084	47.246710137284	0.3
14306	31104	47.25374388165	0.3
14306	31618	47.659237850861	0.4
14306	31638	47.676247222843	0.4
14306	32672	48.480045376767	0.8
14306	33179	48.880045376767	0.4
14306	33868	49.470201290256	0.2
14306	33931	49.484787891858	0.6
14306	34196	49.689231730028	0.2
14306	35309	50.660365318118	0.7
14306	35626	50.960365318118	0.3
14306	35910	51.268774139073	0.3
14306	36301	51.570081158662	0.3
14306	36602	51.849574701931	0.3
14306	37209	52.351199182927	0.5
14306	37431	52.551199182927	0.2
14306	37939	53.052026858484	0.5
14306	38161	53.260127004499	0.2
14306	38182	53.266813925786	0
14306	38806	53.866813925786	0.6
14306	40002	54.914051356371	0.3
14306	40919	55.614151356381	0.7
14306	41282	55.914151356381	0.3
14306	41668	56.218221711602	0.3
14306	41706	56.246635713629	0.3
14306	41816	56.356574799379	0.1
14306	42047	56.556574799379	0.2
14306	42293	56.760945212408	0.2
14306	43435	57.769443990609	1
14306	43829	58.069443990609	0.3
14306	44094	58.274071475493	0.2
14306	44487	58.586049668445	0.1
14306	45313	59.386049668445	0.8
14306	45671	59.696669098736	0.7
14306	45798	59.80415010274	0.1
14306	46437	60.30415010274	0.5
14306	48274	61.81187810649	0.7
14306	49044	62.51187810649	0.7
14306	49890	63.213967366188	0.7
14306	50685	63.932829986943	0.5
14306	51068	64.228124493554	1
14306	51095	64.230400287535	0
14306	51495	64.530400287535	0.3
14306	51864	64.830755133629	0.3
14306	52663	65.537765858185	0.7
14306	52830	65.737765858185	0.2
14306	53400	66.245246336553	0.5
14306	53570	66.377572928053	0.3
14306	54341	67.085616829894	0.7
14306	54697	67.385616829894	0.3
14306	54926	67.58877828923	0.2
14306	55400	67.98887828924	0.4
14306	55894	68.38887828924	0.4
14306	56597	68.89218378597	0.5
14306	56934	69.19218378597	0.3
14306	57154	69.39228378598	0.2
14306	57916	69.99228378598	0.6
14306	58582	70.601744763016	0.6
14306	58936	71.008409992424	0.4
14306	59221	71.310496179929	0.3
14306	59357	71.428780877415	0.3
14306	60478	72.235042086639	0.8
14306	61676	73.135042086639	0.9
14306	61931	73.344000997778	0.2
14306	62644	73.846175010501	0.5
14306	62672	73.890546122402	0.5
14306	62800	73.993902362332	0.1
14306	63021	74.20219986673	0.2
14306	63083	74.251547376079	0.4
14306	63104	74.257220700407	0
14306	63425	74.557220700407	0.3
14306	64015	75.058647313263	0.5
14306	64052	75.066234495863	0.5
14306	64292	75.263427539107	0.3
14306	64752	75.565184134519	0.3
14306	65141	75.87488972142	0.3
14306	65342	76.07488972142	0.2
14306	66392	76.91153556738	0.8
14306	66819	77.31153556738	0.4
14306	67930	78.420799629192	1
14306	68449	78.826082953536	0.4
14306	68739	79.126082953536	0.3
14306	69148	79.536008492936	0.4
14306	69422	79.744705793153	0.2
14306	69738	79.946495994135	0.2
14306	70410	80.548997186956	0.6
14306	70629	80.749174671615	0.2
14306	71165	81.149866557603	0.4
14306	72273	82.149866557603	1