version 2
run Stability-100-20130525-17:48:46-19193
attr configname Stability
attr datetime 20130525-17:48:46
attr experiment Stability
attr inifile omnetpp.ini
attr iterationvars $0=1e-4
attr iterationvars2 "$0=1e-4, $repetition=0"
attr measurement $0=1e-4
attr network Network
attr processid 19193
attr repetition 0
attr replication #0
attr resultdir results
attr runnumber 100
attr seedset 100

vector 9612  Network.dyn_peer[4]  lookupHopsSig:vector  ETV
vector 9613  Network.dyn_peer[4]  lookupStabilitySig:vector  ETV
vector 9614  Network.dyn_peer[4]  lookupTimeSig:vector  ETV
vector 9636  Network.dyn_peer[12]  lookupHopsSig:vector  ETV
vector 9637  Network.dyn_peer[12]  lookupStabilitySig:vector  ETV
vector 9638  Network.dyn_peer[12]  lookupTimeSig:vector  ETV
vector 9648  Network.dyn_peer[16]  lookupHopsSig:vector  ETV
vector 9649  Network.dyn_peer[16]  lookupStabilitySig:vector  ETV
vector 9650  Network.dyn_peer[16]  lookupTimeSig:vector  ETV
vector 9600  Network.dyn_peer[0]  lookupHopsSig:vector  ETV
vector 9601  Network.dyn_peer[0]  lookupStabilitySig:vector  ETV
vector 9602  Network.dyn_peer[0]  lookupTimeSig:vector  ETV
vector 9618  Network.dyn_peer[6]  lookupHopsSig:vector  ETV
vector 9619  Network.dyn_peer[6]  lookupStabilitySig:vector  ETV
vector 9620  Network.dyn_peer[6]  lookupTimeSig:vector  ETV
vector 9621  Network.dyn_peer[7]  lookupHopsSig:vector  ETV
vector 9622  Network.dyn_peer[7]  lookupStabilitySig:vector  ETV
vector 9623  Network.dyn_peer[7]  lookupTimeSig:vector  ETV
vector 9624  Network.dyn_peer[8]  lookupHopsSig:vector  ETV
vector 9625  Network.dyn_peer[8]  lookupStabilitySig:vector  ETV
vector 9626  Network.dyn_peer[8]  lookupTimeSig:vector  ETV
vector 9639  Network.dyn_peer[13]  lookupHopsSig:vector  ETV
vector 9640  Network.dyn_peer[13]  lookupStabilitySig:vector  ETV
vector 9641  Network.dyn_peer[13]  lookupTimeSig:vector  ETV
vector 9642  Network.dyn_peer[14]  lookupHopsSig:vector  ETV
vector 9643  Network.dyn_peer[14]  lookupStabilitySig:vector  ETV
vector 9644  Network.dyn_peer[14]  lookupTimeSig:vector  ETV
vector 9654  Network.dyn_peer[18]  lookupHopsSig:vector  ETV
vector 9655  Network.dyn_peer[18]  lookupStabilitySig:vector  ETV
vector 9656  Network.dyn_peer[18]  lookupTimeSig:vector  ETV
vector 9684  Network.dyn_peer[28]  lookupHopsSig:vector  ETV
vector 9685  Network.dyn_peer[28]  lookupStabilitySig:vector  ETV
vector 9686  Network.dyn_peer[28]  lookupTimeSig:vector  ETV
vector 9693  Network.dyn_peer[31]  lookupHopsSig:vector  ETV
vector 9694  Network.dyn_peer[31]  lookupStabilitySig:vector  ETV
vector 9695  Network.dyn_peer[31]  lookupTimeSig:vector  ETV
vector 9603  Network.dyn_peer[1]  lookupHopsSig:vector  ETV
vector 9604  Network.dyn_peer[1]  lookupStabilitySig:vector  ETV
vector 9605  Network.dyn_peer[1]  lookupTimeSig:vector  ETV
vector 9606  Network.dyn_peer[2]  lookupHopsSig:vector  ETV
vector 9607  Network.dyn_peer[2]  lookupStabilitySig:vector  ETV
vector 9608  Network.dyn_peer[2]  lookupTimeSig:vector  ETV
vector 9609  Network.dyn_peer[3]  lookupHopsSig:vector  ETV
vector 9610  Network.dyn_peer[3]  lookupStabilitySig:vector  ETV
vector 9611  Network.dyn_peer[3]  lookupTimeSig:vector  ETV
vector 9627  Network.dyn_peer[9]  lookupHopsSig:vector  ETV
vector 9628  Network.dyn_peer[9]  lookupStabilitySig:vector  ETV
vector 9629  Network.dyn_peer[9]  lookupTimeSig:vector  ETV
vector 9645  Network.dyn_peer[15]  lookupHopsSig:vector  ETV
vector 9646  Network.dyn_peer[15]  lookupStabilitySig:vector  ETV
vector 9647  Network.dyn_peer[15]  lookupTimeSig:vector  ETV
vector 9651  Network.dyn_peer[17]  lookupHopsSig:vector  ETV
vector 9652  Network.dyn_peer[17]  lookupStabilitySig:vector  ETV
vector 9653  Network.dyn_peer[17]  lookupTimeSig:vector  ETV
vector 9669  Network.dyn_peer[23]  lookupHopsSig:vector  ETV
vector 9670  Network.dyn_peer[23]  lookupStabilitySig:vector  ETV
vector 9671  Network.dyn_peer[23]  lookupTimeSig:vector  ETV
vector 9678  Network.dyn_peer[26]  lookupHopsSig:vector  ETV
vector 9679  Network.dyn_peer[26]  lookupStabilitySig:vector  ETV
vector 9680  Network.dyn_peer[26]  lookupTimeSig:vector  ETV
vector 9690  Network.dyn_peer[30]  lookupHopsSig:vector  ETV
vector 9691  Network.dyn_peer[30]  lookupStabilitySig:vector  ETV
vector 9692  Network.dyn_peer[30]  lookupTimeSig:vector  ETV
vector 9630  Network.dyn_peer[10]  lookupHopsSig:vector  ETV
vector 9631  Network.dyn_peer[10]  lookupStabilitySig:vector  ETV
vector 9632  Network.dyn_peer[10]  lookupTimeSig:vector  ETV
vector 9633  Network.dyn_peer[11]  lookupHopsSig:vector  ETV
vector 9634  Network.dyn_peer[11]  lookupStabilitySig:vector  ETV
vector 9635  Network.dyn_peer[11]  lookupTimeSig:vector  ETV
vector 9657  Network.dyn_peer[19]  lookupHopsSig:vector  ETV
vector 9658  Network.dyn_peer[19]  lookupStabilitySig:vector  ETV
vector 9659  Network.dyn_peer[19]  lookupTimeSig:vector  ETV
vector 9663  Network.dyn_peer[21]  lookupHopsSig:vector  ETV
vector 9664  Network.dyn_peer[21]  lookupStabilitySig:vector  ETV
vector 9665  Network.dyn_peer[21]  lookupTimeSig:vector  ETV
vector 9666  Network.dyn_peer[22]  lookupHopsSig:vector  ETV
vector 9667  Network.dyn_peer[22]  lookupStabilitySig:vector  ETV
vector 9668  Network.dyn_peer[22]  lookupTimeSig:vector  ETV
vector 9672  Network.dyn_peer[24]  lookupHopsSig:vector  ETV
vector 9673  Network.dyn_peer[24]  lookupStabilitySig:vector  ETV
vector 9674  Network.dyn_peer[24]  lookupTimeSig:vector  ETV
vector 9681  Network.dyn_peer[27]  lookupHopsSig:vector  ETV
vector 9682  Network.dyn_peer[27]  lookupStabilitySig:vector  ETV
vector 9683  Network.dyn_peer[27]  lookupTimeSig:vector  ETV
vector 9687  Network.dyn_peer[29]  lookupHopsSig:vector  ETV
vector 9688  Network.dyn_peer[29]  lookupStabilitySig:vector  ETV
vector 9689  Network.dyn_peer[29]  lookupTimeSig:vector  ETV
vector 9660  Network.dyn_peer[20]  lookupHopsSig:vector  ETV
vector 9661  Network.dyn_peer[20]  lookupStabilitySig:vector  ETV
vector 9662  Network.dyn_peer[20]  lookupTimeSig:vector  ETV
vector 9615  Network.dyn_peer[5]  lookupHopsSig:vector  ETV
vector 9616  Network.dyn_peer[5]  lookupStabilitySig:vector  ETV
vector 9617  Network.dyn_peer[5]  lookupTimeSig:vector  ETV
vector 9675  Network.dyn_peer[25]  lookupHopsSig:vector  ETV
vector 9676  Network.dyn_peer[25]  lookupStabilitySig:vector  ETV
vector 9677  Network.dyn_peer[25]  lookupTimeSig:vector  ETV
9600	136	20.1000001	1
9600	276	20.3000001	1
9600	1059	21.408251048612	10
9600	1542	21.815116498229	3
9600	3055	23.015216598229	14
9600	3504	23.315216598229	2
9600	4420	24.022945359711	7
9600	4962	24.522945359711	4
9600	5395	24.831463669343	2
9600	5590	24.945470704305	2
9600	5841	25.14639790298	1
9600	7487	26.547189394828	15
9600	7986	26.947189394828	3
9600	8653	27.413223752008	2
9600	9026	27.713223752008	2
9600	9676	28.320082274574	5
9600	10601	29.130257218463	8
9600	10934	29.43342956949	3
9600	11402	29.83342956949	3
9600	11687	30.038009753576	1
9600	12164	30.347642689879	2
9600	12464	30.527150828921	2
9600	13579	31.327730321667	8
9600	13970	31.627730321667	2
9600	14396	31.934282317636	1
9600	14517	32.029467754291	3
9600	14538	32.041779633226	1
9600	14740	32.178008063299	1
9600	14969	32.433963108064	3
9600	15108	32.538012566422	1
9600	15548	32.938012566422	3
9600	16379	33.605728456669	5
9600	16761	33.911778389681	2
9600	16786	33.938461426163	12
9600	18528	35.445957011725	16
9600	18756	35.645957011725	2
9600	19470	36.255149252978	5
9600	20151	36.869576273587	6
9600	20380	37.074359094254	1
9600	20386	37.081588091727	1
9600	21002	37.585593753568	6
9600	21304	37.893532420097	2
9600	21531	38.094506836787	1
9600	21832	38.403603339842	2
9600	22042	38.612007393793	2
9600	22332	38.812007393793	1
9600	23179	39.421409951867	5
9600	24188	40.221510051867	9
9600	24427	40.421510051867	1
9600	25595	41.368329471224	5
9600	25907	41.668329471224	2
9600	27057	42.668787971197	11
9600	27327	42.874768662641	1
9600	27818	43.277122298821	4
9600	28095	43.4837556878	2
9600	28394	43.700379733611	3
9600	29026	44.184761637417	12
9600	29263	44.410841060198	6
9600	29949	44.920735974782	5
9600	30696	45.520735974782	5
9600	31697	46.32704044505	7
9600	31813	46.414097675989	5
9600	31848	46.431815601023	5
9600	32076	46.627301388793	3
9600	32263	46.733031635134	1
9600	33034	47.333031635134	5
9600	33325	47.556883670487	2
9600	33682	47.838526490222	5
9600	34053	48.14032229132	3
9600	35234	49.14032229132	10
9600	35718	49.545387236138	5
9600	35976	49.751758510025	1
9600	36024	49.774915584438	2
9600	36151	49.878828081946	1
9600	37013	50.478828081946	5
9600	37743	50.9885699492	4
9600	38973	51.996755941552	11
9600	39176	52.203437775384	1
9600	39697	52.612309325175	3
9600	40214	53.012409425175	4
9600	40547	53.312409425175	2
9600	41104	53.814016262613	4
9600	41666	54.320771015699	4
9600	41933	54.540420787173	3
9600	42259	54.827425701045	5
9600	42618	55.136174820654	2
9600	42732	55.245400086177	6
9600	43323	55.752560086499	6
9600	44372	56.552560086499	8
9600	44379	56.556418817259	6
9600	45425	57.356518917259	8
9600	46009	57.856518917259	4
9600	46519	58.264628720007	3
9600	47050	58.670945631661	4
9600	47381	58.97102392625	2
9600	47808	59.37112402625	4
9600	48308	59.776264583241	4
9600	48756	60.105007018963	1
9600	48899	60.209865339955	1
9600	50142	61.309865339955	10
9600	50399	61.612530144397	2
9600	50452	61.659638286784	2
9600	50716	61.868996602884	1
9600	50949	62.078956534432	2
9600	51093	62.220251726649	7
9600	51171	62.287433755621	1
9600	51357	62.487440973706	1
9600	51509	62.627671390824	3
9600	51770	62.859738386784	7
9600	51809	62.885964620874	9
9600	52833	63.688436271937	8
9600	53298	64.188436271937	4
9600	53588	64.49848699529	3
9600	54495	65.29848699529	7
9600	54918	65.59858709529	3
9600	55820	66.287628315276	3
9600	56179	66.587628315276	2
9600	56402	66.797218603208	1
9600	56558	66.942169656121	1
9600	56641	67.004091269355	1
9600	56910	67.246128156602	2
9600	57475	67.65175126928	5
9600	59115	68.9335228855	2
9600	59728	69.4335228855	5
9600	59879	69.538282239933	0
9600	60390	69.947211427923	4
9600	60547	70.051960878627	1
9600	61018	70.354635998398	3
9600	61036	70.3576934273	0
9600	61956	71.0576934273	6
9600	62556	71.558525870446	4
9600	63533	72.361551442296	7
9600	63804	72.562879509977	1
9600	63859	72.603643712417	2
9600	64699	73.310695298934	7
9600	65734	74.118456753232	8
9600	66387	74.624606637463	4
9600	67247	75.225535025294	7
9600	67883	75.737878208851	4
9600	68354	76.144596973293	3
9600	69604	77.348207441315	12
9600	69644	77.383296514715	12
9600	69810	77.489353353124	2
9600	70171	77.792616284169	3
9600	70741	78.298578304143	5
9600	71510	78.998678404143	8
9600	71762	79.198678404143	2
9600	72392	79.706231291934	5
9600	73110	80.306231291934	5
9600	74010	81.009020903482	6
9600	74016	81.011589657519	6
9600	74378	81.316406130525	3
9600	74815	81.716406130525	3
9600	75279	82.115200903382	2
9600	75845	82.52220546043	4
9600	76130	82.723966272903	1
9600	76543	83.032338191905	2
9600	76548	83.032594282356	2
9600	77040	83.450456128626	4
9600	77422	83.741227093861	7
9600	77425	83.742579661033	7
9600	77546	83.854082280865	3
9600	78359	84.454415991067	6
9600	79540	85.354415991067	9
9600	80130	85.894720167803	4
9600	80610	86.297355228975	3
9600	80880	86.497455328975	2
9600	82934	88.38680545796	14
9600	83174	88.596676796959	1
9600	83381	88.804888301466	1
9600	83769	89.21014098661	4
9600	84620	89.911933137778	8
9600	84635	89.915767569922	8
9600	84806	90.015867669922	1
9600	85191	90.315867669922	2
9600	85715	90.722109679606	4
9600	86535	91.422109679606	6
9600	87523	92.328010480106	8
9600	87620	92.433653842334	6
9600	87747	92.533970240086	1
9600	87893	92.640499577098	1
9600	88729	93.245908890386	6
9600	90280	94.435862563943	9
9600	91378	95.335862563943	8
9600	91832	95.644979175587	2
9600	92178	95.949817519506	2
9600	92190	95.955351833239	6
9600	92512	96.255451933239	3
9600	92946	96.655451933239	3
9600	93727	97.27767042894	8
9600	94207	97.654492673433	3
9600	94222	97.657429932768	10
9600	94369	97.761556675468	1
9600	95955	99.161556675468	15
9600	96178	99.365368957427	1
9600	96679	99.766053881375	3
9600	96738	99.852754800784	3
9600	97174	100.155438368891	3
9600	97850	100.755438368891	5
9600	98357	101.163634959578	3
9600	98481	101.283700898143	3
9600	98704	101.473490895914	2
9600	99135	101.793468412577	5
9600	99156	101.808932865231	5
9600	99885	102.313257002752	6
9600	100411	102.813257002752	4
9600	100665	103.019268359563	1
9600	101671	103.825880256297	9
9600	102122	104.13031632047	4
9600	102856	104.83031632047	7
9600	103227	105.235474781466	3
9600	103590	105.535991271599	2
9600	103631	105.554194984142	2
9600	104405	106.136522828424	5
9600	104572	106.255595044376	6
9600	104677	106.347099982076	7
9600	105406	106.948482253177	6
9600	105913	107.348482253177	3
9600	106690	108.049096754482	6
9600	107098	108.451707685363	4
9600	107801	108.954355809186	5
9600	108541	109.47178994151	3
9600	109226	110.054355809186	11
9600	109383	110.176096509924	6
9600	109576	110.371815087755	6
9600	110563	111.181368201881	8
9600	111875	112.281368201881	10
9600	112688	112.984304719055	6
9600	112808	113.084759720965	1
9600	114172	114.284759720965	13
9600	114357	114.492484139477	1
9600	114612	114.698798520586	1
9600	115247	115.200100197753	7
9600	115688	115.504332642666	3
9600	115951	115.663910681327	2
9600	116080	115.764010781327	1
9600	116416	116.064010781327	2
9600	117816	117.266186017735	12
9600	118275	117.666186017735	3
9600	119034	118.430496295459	4
9600	119299	118.730496295459	2
9600	119770	119.062630354814	3
9600	120581	119.662630354814	5
9600	121122	120.071734276987	3
9600	121508	120.37974414352	2
9600	122057	120.97984424352	7
9600	122394	121.27984424352	2
9600	122593	121.482839682277	1
9600	122939	121.783031949063	2
9600	123138	121.9600069662	2
9600	123318	122.089670409047	2
9600	123661	122.390296684213	2
9600	124106	122.787274029618	3
9600	124207	122.863883384119	9
9600	124388	122.993129283062	5
9600	125142	123.597893265017	6
9600	125779	124.097893265017	4
9600	126048	124.302672028959	1
9600	126441	124.611290050757	2
9600	126980	125.015377455011	3
9600	127406	125.317880133538	2
9600	127877	125.722821460911	4
9600	128106	125.934516588439	1
9600	129588	127.039850111001	13
9600	129982	127.339850111001	2
9600	131629	128.446242552783	11
9600	131861	128.646242552783	1
9600	132286	128.96859697808	2
9600	132710	129.337271449506	5
9600	133879	130.237371549506	9
9600	134501	130.737371549506	4
9600	134824	131.037471649506	3
9600	135636	131.737471649506	6
9600	135884	132.038394894456	2
9600	136426	132.641439500297	6
9601	136	20.1000001	0.875
9601	276	20.3000001	0.875
9601	1059	21.408251048612	-0.25
9601	1542	21.815116498229	0.625
9601	3055	23.015216598229	-0.75
9601	3504	23.315216598229	0.75
9601	4420	24.022945359711	0.125
9601	4962	24.522945359711	0.5
9601	5395	24.831463669343	0.75
9601	5590	24.945470704305	0.75
9601	5841	25.14639790298	0.875
9601	7487	26.547189394828	-0.875
9601	7986	26.947189394828	0.625
9601	8653	27.413223752008	0.75
9601	9026	27.713223752008	0.75
9601	9676	28.320082274574	0.375
9601	10601	29.130257218463	0
9601	10934	29.43342956949	0.625
9601	11402	29.83342956949	0.625
9601	11687	30.038009753576	0.875
9601	12164	30.347642689879	0.75
9601	12464	30.527150828921	0.75
9601	13579	31.327730321667	0
9601	13970	31.627730321667	0.75
9601	14396	31.934282317636	0.875
9601	14517	32.029467754291	0.625
9601	14538	32.041779633226	0.875
9601	14740	32.178008063299	0.875
9601	14969	32.433963108064	0.625
9601	15108	32.538012566422	0.875
9601	15548	32.938012566422	0.625
9601	16379	33.605728456669	0.375
9601	16761	33.911778389681	0.75
9601	16786	33.938461426163	-0.5
9601	18528	35.445957011725	-1
9601	18756	35.645957011725	0.75
9601	19470	36.255149252978	0.375
9601	20151	36.869576273587	0.25
9601	20380	37.074359094254	0.875
9601	20386	37.081588091727	0.875
9601	21002	37.585593753568	0.25
9601	21304	37.893532420097	0.75
9601	21531	38.094506836787	0.875
9601	21832	38.403603339842	0.75
9601	22042	38.612007393793	0.75
9601	22332	38.812007393793	0.875
9601	23179	39.421409951867	0.375
9601	24188	40.221510051867	-0.125
9601	24427	40.421510051867	0.875
9601	25595	41.368329471224	0.375
9601	25907	41.668329471224	0.75
9601	27057	42.668787971197	-0.375
9601	27327	42.874768662641	0.875
9601	27818	43.277122298821	0.5
9601	28095	43.4837556878	0.75
9601	28394	43.700379733611	0.625
9601	29026	44.184761637417	-0.5
9601	29263	44.410841060198	0.25
9601	29949	44.920735974782	0.375
9601	30696	45.520735974782	0.375
9601	31697	46.32704044505	0.125
9601	31813	46.414097675989	0.375
9601	31848	46.431815601023	0.375
9601	32076	46.627301388793	0.625
9601	32263	46.733031635134	0.875
9601	33034	47.333031635134	0.375
9601	33325	47.556883670487	0.75
9601	33682	47.838526490222	0.375
9601	34053	48.14032229132	0.625
9601	35234	49.14032229132	-0.25
9601	35718	49.545387236138	0.375
9601	35976	49.751758510025	0.875
9601	36024	49.774915584438	0.75
9601	36151	49.878828081946	0.875
9601	37013	50.478828081946	0.375
9601	37743	50.9885699492	0.5
9601	38973	51.996755941552	-0.375
9601	39176	52.203437775384	0.875
9601	39697	52.612309325175	0.625
9601	40214	53.012409425175	0.55555555224419
9601	40547	53.312409425175	0.75
9601	41104	53.814016262613	0.5
9601	41666	54.320771015699	0.5
9601	41933	54.540420787173	0.625
9601	42259	54.827425701045	0.375
9601	42618	55.136174820654	0.75
9601	42732	55.245400086177	0.25
9601	43323	55.752560086499	0.25
9601	44372	56.552560086499	0
9601	44379	56.556418817259	0.25
9601	45425	57.356518917259	0
9601	46009	57.856518917259	0.5
9601	46519	58.264628720007	0.625
9601	47050	58.670945631661	0.55555555224419
9601	47381	58.97102392625	0.75
9601	47808	59.37112402625	0.5
9601	48308	59.776264583241	0.5
9601	48756	60.105007018963	0.875
9601	48899	60.209865339955	0.875
9601	50142	61.309865339955	-0.25
9601	50399	61.612530144397	0.75
9601	50452	61.659638286784	0.75
9601	50716	61.868996602884	0.875
9601	50949	62.078956534432	0.75
9601	51093	62.220251726649	0.125
9601	51171	62.287433755621	0.875
9601	51357	62.487440973706	0.875
9601	51509	62.627671390824	0.625
9601	51770	62.859738386784	0.125
9601	51809	62.885964620874	-0.125
9601	52833	63.688436271937	0
9601	53298	64.188436271937	0.5
9601	53588	64.49848699529	0.625
9601	54495	65.29848699529	0.125
9601	54918	65.59858709529	0.625
9601	55820	66.287628315276	0.625
9601	56179	66.587628315276	0.75
9601	56402	66.797218603208	0.875
9601	56558	66.942169656121	0.875
9601	56641	67.004091269355	0.875
9601	56910	67.246128156602	0.75
9601	57475	67.65175126928	0.375
9601	59115	68.9335228855	0.75
9601	59728	69.4335228855	0.375
9601	59879	69.538282239933	1
9601	60390	69.947211427923	0.5
9601	60547	70.051960878627	0.875
9601	61018	70.354635998398	0.625
9601	61036	70.3576934273	1
9601	61956	71.0576934273	0.25
9601	62556	71.558525870446	0.5
9601	63533	72.361551442296	0.125
9601	63804	72.562879509977	0.875
9601	63859	72.603643712417	0.75
9601	64699	73.310695298934	0.125
9601	65734	74.118456753232	0
9601	66387	74.624606637463	0.5
9601	67247	75.225535025294	0.125
9601	67883	75.737878208851	0.5
9601	68354	76.144596973293	0.625
9601	69604	77.348207441315	-0.5
9601	69644	77.383296514715	-0.5
9601	69810	77.489353353124	0.75
9601	70171	77.792616284169	0.625
9601	70741	78.298578304143	0.375
9601	71510	78.998678404143	0
9601	71762	79.198678404143	0.75
9601	72392	79.706231291934	0.375
9601	73110	80.306231291934	0.375
9601	74010	81.009020903482	0.25
9601	74016	81.011589657519	0.25
9601	74378	81.316406130525	0.625
9601	74815	81.716406130525	0.625
9601	75279	82.115200903382	0.75
9601	75845	82.52220546043	0.5
9601	76130	82.723966272903	0.875
9601	76543	83.032338191905	0.75
9601	76548	83.032594282356	0.75
9601	77040	83.450456128626	0.5
9601	77422	83.741227093861	0.125
9601	77425	83.742579661033	0.125
9601	77546	83.854082280865	0.625
9601	78359	84.454415991067	0.25
9601	79540	85.354415991067	-0.125
9601	80130	85.894720167803	0.5
9601	80610	86.297355228975	0.625
9601	80880	86.497455328975	0.75
9601	82934	88.38680545796	-0.75
9601	83174	88.596676796959	0.875
9601	83381	88.804888301466	0.875
9601	83769	89.21014098661	0.5
9601	84620	89.911933137778	0
9601	84635	89.915767569922	0
9601	84806	90.015867669922	0.875
9601	85191	90.315867669922	0.75
9601	85715	90.722109679606	0.5
9601	86535	91.422109679606	0.25
9601	87523	92.328010480106	0
9601	87620	92.433653842334	0.25
9601	87747	92.533970240086	0.875
9601	87893	92.640499577098	0.875
9601	88729	93.245908890386	0.25
9601	90280	94.435862563943	-0.125
9601	91378	95.335862563943	0
9601	91832	95.644979175587	0.75
9601	92178	95.949817519506	0.75
9601	92190	95.955351833239	0.25
9601	92512	96.255451933239	0.625
9601	92946	96.655451933239	0.625
9601	93727	97.27767042894	0
9601	94207	97.654492673433	0.625
9601	94222	97.657429932768	-0.25
9601	94369	97.761556675468	0.875
9601	95955	99.161556675468	-0.875
9601	96178	99.365368957427	0.875
9601	96679	99.766053881375	0.625
9601	96738	99.852754800784	0.625
9601	97174	100.155438368891	0.625
9601	97850	100.755438368891	0.375
9601	98357	101.163634959578	0.625
9601	98481	101.283700898143	0.625
9601	98704	101.473490895914	0.75
9601	99135	101.793468412577	0.375
9601	99156	101.808932865231	0.375
9601	99885	102.313257002752	0.25
9601	100411	102.813257002752	0.5
9601	100665	103.019268359563	0.875
9601	101671	103.825880256297	-0.125
9601	102122	104.13031632047	0.5
9601	102856	104.83031632047	0.125
9601	103227	105.235474781466	0.625
9601	103590	105.535991271599	0.75
9601	103631	105.554194984142	0.75
9601	104405	106.136522828424	0.375
9601	104572	106.255595044376	0.25
9601	104677	106.347099982076	0.125
9601	105406	106.948482253177	0.25
9601	105913	107.348482253177	0.625
9601	106690	108.049096754482	0.25
9601	107098	108.451707685363	0.5
9601	107801	108.954355809186	0.375
9601	108541	109.47178994151	0.625
9601	109226	110.054355809186	-0.375
9601	109383	110.176096509924	0.25
9601	109576	110.371815087755	0.25
9601	110563	111.181368201881	0
9601	111875	112.281368201881	-0.25
9601	112688	112.984304719055	0.25
9601	112808	113.084759720965	0.875
9601	114172	114.284759720965	-0.625
9601	114357	114.492484139477	0.875
9601	114612	114.698798520586	0.875
9601	115247	115.200100197753	0.125
9601	115688	115.504332642666	0.625
9601	115951	115.663910681327	0.75
9601	116080	115.764010781327	0.875
9601	116416	116.064010781327	0.75
9601	117816	117.266186017735	-0.5
9601	118275	117.666186017735	0.625
9601	119034	118.430496295459	0.5
9601	119299	118.730496295459	0.75
9601	119770	119.062630354814	0.625
9601	120581	119.662630354814	0.375
9601	121122	120.071734276987	0.625
9601	121508	120.37974414352	0.75
9601	122057	120.97984424352	0.125
9601	122394	121.27984424352	0.75
9601	122593	121.482839682277	0.875
9601	122939	121.783031949063	0.75
9601	123138	121.9600069662	0.75
9601	123318	122.089670409047	0.75
9601	123661	122.390296684213	0.75
9601	124106	122.787274029618	0.625
9601	124207	122.863883384119	-0.125
9601	124388	122.993129283062	0.375
9601	125142	123.597893265017	0.25
9601	125779	124.097893265017	0.5
9601	126048	124.302672028959	0.875
9601	126441	124.611290050757	0.75
9601	126980	125.015377455011	0.625
9601	127406	125.317880133538	0.75
9601	127877	125.722821460911	0.5
9601	128106	125.934516588439	0.875
9601	129588	127.039850111001	-0.625
9601	129982	127.339850111001	0.75
9601	131629	128.446242552783	-0.375
9601	131861	128.646242552783	0.875
9601	132286	128.96859697808	0.75
9601	132710	129.337271449506	0.375
9601	133879	130.237371549506	-0.125
9601	134501	130.737371549506	0.5
9601	134824	131.037471649506	0.625
9601	135636	131.737471649506	0.25
9601	135884	132.038394894456	0.75
9601	136426	132.641439500297	0.25
9602	136	20.1000001	0.1
9602	276	20.3000001	0.2
9602	1059	21.408251048612	1.1
9602	1542	21.815116498229	0.4
9602	3055	23.015216598229	1.2
9602	3504	23.315216598229	0.3
9602	4420	24.022945359711	0.7
9602	4962	24.522945359711	0.5
9602	5395	24.831463669343	0.3
9602	5590	24.945470704305	0.3
9602	5841	25.14639790298	0.2
9602	7487	26.547189394828	1.4
9602	7986	26.947189394828	0.4
9602	8653	27.413223752008	0.2
9602	9026	27.713223752008	0.3
9602	9676	28.320082274574	0.6
9602	10601	29.130257218463	0.8
9602	10934	29.43342956949	0.3
9602	11402	29.83342956949	0.4
9602	11687	30.038009753576	0.2
9602	12164	30.347642689879	0.3
9602	12464	30.527150828921	0.3
9602	13579	31.327730321667	0.8
9602	13970	31.627730321667	0.3
9602	14396	31.934282317636	0.2
9602	14517	32.029467754291	0.4
9602	14538	32.041779633226	0.1
9602	14740	32.178008063299	0.2
9602	14969	32.433963108064	0.4
9602	15108	32.538012566422	0.1
9602	15548	32.938012566422	0.4
9602	16379	33.605728456669	0.6
9602	16761	33.911778389681	0.3
9602	16786	33.938461426163	1
9602	18528	35.445957011725	1.5
9602	18756	35.645957011725	0.2
9602	19470	36.255149252978	0.6
9602	20151	36.869576273587	0.6
9602	20380	37.074359094254	0.2
9602	20386	37.081588091727	0.2
9602	21002	37.585593753568	0.5
9602	21304	37.893532420097	0.3
9602	21531	38.094506836787	0.2
9602	21832	38.403603339842	0.3
9602	22042	38.612007393793	0.2
9602	22332	38.812007393793	0.2
9602	23179	39.421409951867	0.6
9602	24188	40.221510051867	0.8
9602	24427	40.421510051867	0.2
9602	25595	41.368329471224	0.5
9602	25907	41.668329471224	0.3
9602	27057	42.668787971197	1
9602	27327	42.874768662641	0.2
9602	27818	43.277122298821	0.4
9602	28095	43.4837556878	0.2
9602	28394	43.700379733611	0.4
9602	29026	44.184761637417	1.2
9602	29263	44.410841060198	0.7
9602	29949	44.920735974782	0.5
9602	30696	45.520735974782	0.6
9602	31697	46.32704044505	0.8
9602	31813	46.414097675989	0.6
9602	31848	46.431815601023	0.6
9602	32076	46.627301388793	0.3
9602	32263	46.733031635134	0.1
9602	33034	47.333031635134	0.6
9602	33325	47.556883670487	0.3
9602	33682	47.838526490222	0.5
9602	34053	48.14032229132	0.3
9602	35234	49.14032229132	1
9602	35718	49.545387236138	0.4
9602	35976	49.751758510025	0.2
9602	36024	49.774915584438	0.3
9602	36151	49.878828081946	0.1
9602	37013	50.478828081946	0.6
9602	37743	50.9885699492	0.5
9602	38973	51.996755941552	1
9602	39176	52.203437775384	0.2
9602	39697	52.612309325175	0.4
9602	40214	53.012409425175	0.4
9602	40547	53.312409425175	0.3
9602	41104	53.814016262613	0.5
9602	41666	54.320771015699	0.5
9602	41933	54.540420787173	0.4
9602	42259	54.827425701045	0.5
9602	42618	55.136174820654	0.3
9602	42732	55.245400086177	0.7
9602	43323	55.752560086499	0.5
9602	44372	56.552560086499	0.8
9602	44379	56.556418817259	0.7
9602	45425	57.356518917259	0.8
9602	46009	57.856518917259	0.5
9602	46519	58.264628720007	0.4
9602	47050	58.670945631661	0.4
9602	47381	58.97102392625	0.3
9602	47808	59.37112402625	0.4
9602	48308	59.776264583241	0.4
9602	48756	60.105007018963	0.2
9602	48899	60.209865339955	0.1
9602	50142	61.309865339955	1.1
9602	50399	61.612530144397	0.3
9602	50452	61.659638286784	0.3
9602	50716	61.868996602884	0.2
9602	50949	62.078956534432	0.2
9602	51093	62.220251726649	0.6
9602	51171	62.287433755621	0.2
9602	51357	62.487440973706	0.2
9602	51509	62.627671390824	0.4
9602	51770	62.859738386784	0.8
9602	51809	62.885964620874	0.9
9602	52833	63.688436271937	0.8
9602	53298	64.188436271937	0.5
9602	53588	64.49848699529	0.3
9602	54495	65.29848699529	0.8
9602	54918	65.59858709529	0.3
9602	55820	66.287628315276	0.3
9602	56179	66.587628315276	0.3
9602	56402	66.797218603208	0.2
9602	56558	66.942169656121	0.2
9602	56641	67.004091269355	0.2
9602	56910	67.246128156602	0.3
9602	57475	67.65175126928	0.4
9602	59115	68.9335228855	0.2
9602	59728	69.4335228855	0.5
9602	59879	69.538282239933	0.1
9602	60390	69.947211427923	0.4
9602	60547	70.051960878627	0.1
9602	61018	70.354635998398	0.3
9602	61036	70.3576934273	0
9602	61956	71.0576934273	0.7
9602	62556	71.558525870446	0.5
9602	63533	72.361551442296	0.8
9602	63804	72.562879509977	0.2
9602	63859	72.603643712417	0.3
9602	64699	73.310695298934	0.7
9602	65734	74.118456753232	0.8
9602	66387	74.624606637463	0.5
9602	67247	75.225535025294	0.6
9602	67883	75.737878208851	0.5
9602	68354	76.144596973293	0.4
9602	69604	77.348207441315	1.2
9602	69644	77.383296514715	1.2
9602	69810	77.489353353124	0.1
9602	70171	77.792616284169	0.3
9602	70741	78.298578304143	0.5
9602	71510	78.998678404143	0.7
9602	71762	79.198678404143	0.2
9602	72392	79.706231291934	0.5
9602	73110	80.306231291934	0.6
9602	74010	81.009020903482	0.7
9602	74016	81.011589657519	0.7
9602	74378	81.316406130525	0.3
9602	74815	81.716406130525	0.4
9602	75279	82.115200903382	0.3
9602	75845	82.52220546043	0.4
9602	76130	82.723966272903	0.2
9602	76543	83.032338191905	0.3
9602	76548	83.032594282356	0.3
9602	77040	83.450456128626	0.5
9602	77422	83.741227093861	0.7
9602	77425	83.742579661033	0.7
9602	77546	83.854082280865	0.4
9602	78359	84.454415991067	0.6
9602	79540	85.354415991067	0.9
9602	80130	85.894720167803	0.5
9602	80610	86.297355228975	0.4
9602	80880	86.497455328975	0.2
9602	82934	88.38680545796	1.4
9602	83174	88.596676796959	0.2
9602	83381	88.804888301466	0.2
9602	83769	89.21014098661	0.4
9602	84620	89.911933137778	0.7
9602	84635	89.915767569922	0.7
9602	84806	90.015867669922	0.1
9602	85191	90.315867669922	0.3
9602	85715	90.722109679606	0.4
9602	86535	91.422109679606	0.7
9602	87523	92.328010480106	0.9
9602	87620	92.433653842334	0.6
9602	87747	92.533970240086	0.2
9602	87893	92.640499577098	0.2
9602	88729	93.245908890386	0.6
9602	90280	94.435862563943	0.8
9602	91378	95.335862563943	0.9
9602	91832	95.644979175587	0.3
9602	92178	95.949817519506	0.3
9602	92190	95.955351833239	0.7
9602	92512	96.255451933239	0.3
9602	92946	96.655451933239	0.4
9602	93727	97.27767042894	0.7
9602	94207	97.654492673433	0.3
9602	94222	97.657429932768	1
9602	94369	97.761556675468	0.1
9602	95955	99.161556675468	1.4
9602	96178	99.365368957427	0.2
9602	96679	99.766053881375	0.4
9602	96738	99.852754800784	0.4
9602	97174	100.155438368891	0.3
9602	97850	100.755438368891	0.6
9602	98357	101.163634959578	0.4
9602	98481	101.283700898143	0.4
9602	98704	101.473490895914	0.3
9602	99135	101.793468412577	0.5
9602	99156	101.808932865231	0.5
9602	99885	102.313257002752	0.5
9602	100411	102.813257002752	0.5
9602	100665	103.019268359563	0.2
9602	101671	103.825880256297	0.8
9602	102122	104.13031632047	0.3
9602	102856	104.83031632047	0.7
9602	103227	105.235474781466	0.4
9602	103590	105.535991271599	0.3