version 2
run Stability-24-20130525-17:43:50-19193
attr configname Stability
attr datetime 20130525-17:43:50
attr experiment Stability
attr inifile omnetpp.ini
attr iterationvars $0=1e4
attr iterationvars2 "$0=1e4, $repetition=4"
attr measurement $0=1e4
attr network Network
attr processid 19193
attr repetition 4
attr replication #4
attr resultdir results
attr runnumber 24
attr seedset 24

vector 2304  Network.dyn_peer[0]  lookupHopsSig:vector  ETV
vector 2305  Network.dyn_peer[0]  lookupStabilitySig:vector  ETV
vector 2306  Network.dyn_peer[0]  lookupTimeSig:vector  ETV
vector 2307  Network.dyn_peer[1]  lookupHopsSig:vector  ETV
vector 2308  Network.dyn_peer[1]  lookupStabilitySig:vector  ETV
vector 2309  Network.dyn_peer[1]  lookupTimeSig:vector  ETV
vector 2310  Network.dyn_peer[2]  lookupHopsSig:vector  ETV
vector 2311  Network.dyn_peer[2]  lookupStabilitySig:vector  ETV
vector 2312  Network.dyn_peer[2]  lookupTimeSig:vector  ETV
vector 2313  Network.dyn_peer[3]  lookupHopsSig:vector  ETV
vector 2314  Network.dyn_peer[3]  lookupStabilitySig:vector  ETV
vector 2315  Network.dyn_peer[3]  lookupTimeSig:vector  ETV
vector 2316  Network.dyn_peer[4]  lookupHopsSig:vector  ETV
vector 2317  Network.dyn_peer[4]  lookupStabilitySig:vector  ETV
vector 2318  Network.dyn_peer[4]  lookupTimeSig:vector  ETV
vector 2319  Network.dyn_peer[5]  lookupHopsSig:vector  ETV
vector 2320  Network.dyn_peer[5]  lookupStabilitySig:vector  ETV
vector 2321  Network.dyn_peer[5]  lookupTimeSig:vector  ETV
vector 2322  Network.dyn_peer[6]  lookupHopsSig:vector  ETV
vector 2323  Network.dyn_peer[6]  lookupStabilitySig:vector  ETV
vector 2324  Network.dyn_peer[6]  lookupTimeSig:vector  ETV
vector 2325  Network.dyn_peer[7]  lookupHopsSig:vector  ETV
vector 2326  Network.dyn_peer[7]  lookupStabilitySig:vector  ETV
vector 2327  Network.dyn_peer[7]  lookupTimeSig:vector  ETV
vector 2328  Network.dyn_peer[8]  lookupHopsSig:vector  ETV
vector 2329  Network.dyn_peer[8]  lookupStabilitySig:vector  ETV
vector 2330  Network.dyn_peer[8]  lookupTimeSig:vector  ETV
vector 2331  Network.dyn_peer[9]  lookupHopsSig:vector  ETV
vector 2332  Network.dyn_peer[9]  lookupStabilitySig:vector  ETV
vector 2333  Network.dyn_peer[9]  lookupTimeSig:vector  ETV
vector 2334  Network.dyn_peer[10]  lookupHopsSig:vector  ETV
vector 2335  Network.dyn_peer[10]  lookupStabilitySig:vector  ETV
vector 2336  Network.dyn_peer[10]  lookupTimeSig:vector  ETV
vector 2337  Network.dyn_peer[11]  lookupHopsSig:vector  ETV
vector 2338  Network.dyn_peer[11]  lookupStabilitySig:vector  ETV
vector 2339  Network.dyn_peer[11]  lookupTimeSig:vector  ETV
vector 2340  Network.dyn_peer[12]  lookupHopsSig:vector  ETV
vector 2341  Network.dyn_peer[12]  lookupStabilitySig:vector  ETV
vector 2342  Network.dyn_peer[12]  lookupTimeSig:vector  ETV
vector 2343  Network.dyn_peer[13]  lookupHopsSig:vector  ETV
vector 2344  Network.dyn_peer[13]  lookupStabilitySig:vector  ETV
vector 2345  Network.dyn_peer[13]  lookupTimeSig:vector  ETV
vector 2346  Network.dyn_peer[14]  lookupHopsSig:vector  ETV
vector 2347  Network.dyn_peer[14]  lookupStabilitySig:vector  ETV
vector 2348  Network.dyn_peer[14]  lookupTimeSig:vector  ETV
vector 2349  Network.dyn_peer[15]  lookupHopsSig:vector  ETV
vector 2350  Network.dyn_peer[15]  lookupStabilitySig:vector  ETV
vector 2351  Network.dyn_peer[15]  lookupTimeSig:vector  ETV
vector 2352  Network.dyn_peer[16]  lookupHopsSig:vector  ETV
vector 2353  Network.dyn_peer[16]  lookupStabilitySig:vector  ETV
vector 2354  Network.dyn_peer[16]  lookupTimeSig:vector  ETV
vector 2355  Network.dyn_peer[17]  lookupHopsSig:vector  ETV
vector 2356  Network.dyn_peer[17]  lookupStabilitySig:vector  ETV
vector 2357  Network.dyn_peer[17]  lookupTimeSig:vector  ETV
vector 2358  Network.dyn_peer[18]  lookupHopsSig:vector  ETV
vector 2359  Network.dyn_peer[18]  lookupStabilitySig:vector  ETV
vector 2360  Network.dyn_peer[18]  lookupTimeSig:vector  ETV
vector 2361  Network.dyn_peer[19]  lookupHopsSig:vector  ETV
vector 2362  Network.dyn_peer[19]  lookupStabilitySig:vector  ETV
vector 2363  Network.dyn_peer[19]  lookupTimeSig:vector  ETV
vector 2364  Network.dyn_peer[20]  lookupHopsSig:vector  ETV
vector 2365  Network.dyn_peer[20]  lookupStabilitySig:vector  ETV
vector 2366  Network.dyn_peer[20]  lookupTimeSig:vector  ETV
vector 2367  Network.dyn_peer[21]  lookupHopsSig:vector  ETV
vector 2368  Network.dyn_peer[21]  lookupStabilitySig:vector  ETV
vector 2369  Network.dyn_peer[21]  lookupTimeSig:vector  ETV
vector 2370  Network.dyn_peer[22]  lookupHopsSig:vector  ETV
vector 2371  Network.dyn_peer[22]  lookupStabilitySig:vector  ETV
vector 2372  Network.dyn_peer[22]  lookupTimeSig:vector  ETV
vector 2373  Network.dyn_peer[23]  lookupHopsSig:vector  ETV
vector 2374  Network.dyn_peer[23]  lookupStabilitySig:vector  ETV
vector 2375  Network.dyn_peer[23]  lookupTimeSig:vector  ETV
vector 2376  Network.dyn_peer[24]  lookupHopsSig:vector  ETV
vector 2377  Network.dyn_peer[24]  lookupStabilitySig:vector  ETV
vector 2378  Network.dyn_peer[24]  lookupTimeSig:vector  ETV
vector 2379  Network.dyn_peer[25]  lookupHopsSig:vector  ETV
vector 2380  Network.dyn_peer[25]  lookupStabilitySig:vector  ETV
vector 2381  Network.dyn_peer[25]  lookupTimeSig:vector  ETV
vector 2382  Network.dyn_peer[26]  lookupHopsSig:vector  ETV
vector 2383  Network.dyn_peer[26]  lookupStabilitySig:vector  ETV
vector 2384  Network.dyn_peer[26]  lookupTimeSig:vector  ETV
vector 2385  Network.dyn_peer[27]  lookupHopsSig:vector  ETV
vector 2386  Network.dyn_peer[27]  lookupStabilitySig:vector  ETV
vector 2387  Network.dyn_peer[27]  lookupTimeSig:vector  ETV
vector 2388  Network.dyn_peer[28]  lookupHopsSig:vector  ETV
vector 2389  Network.dyn_peer[28]  lookupStabilitySig:vector  ETV
vector 2390  Network.dyn_peer[28]  lookupTimeSig:vector  ETV
vector 2391  Network.dyn_peer[29]  lookupHopsSig:vector  ETV
vector 2392  Network.dyn_peer[29]  lookupStabilitySig:vector  ETV
vector 2393  Network.dyn_peer[29]  lookupTimeSig:vector  ETV
vector 2394  Network.dyn_peer[30]  lookupHopsSig:vector  ETV
vector 2395  Network.dyn_peer[30]  lookupStabilitySig:vector  ETV
vector 2396  Network.dyn_peer[30]  lookupTimeSig:vector  ETV
vector 2397  Network.dyn_peer[31]  lookupHopsSig:vector  ETV
vector 2398  Network.dyn_peer[31]  lookupStabilitySig:vector  ETV
vector 2399  Network.dyn_peer[31]  lookupTimeSig:vector  ETV
2304	31	30.2	2
2304	35	30.5	2
2304	40	30.80642225475	2
2304	44	31.015956556063	1
2304	1064	350.2	2
2304	1068	350.5	2
2304	1074	350.809424216912	2
2304	1078	351.016321203922	1
2304	2113	670.2	2
2304	2117	670.5	2
2304	2122	670.802464216696	2
2304	2128	671.017867014675	1
2304	3137	990.2	2
2304	3141	990.5	2
2304	3147	990.811881408714	2
2304	3151	991.015268964624	1
2304	4184	1310.2	2
2304	4187	1310.4	1
2304	4192	1310.707030048097	2
2304	4197	1310.911744971169	1
2304	5217	1630	0
2304	5224	1630.305323928838	2
2304	5228	1630.510858955922	1
2304	5232	1630.716463139051	1
2304	6290	1950.1	1
2304	6293	1950.3	1
2304	6298	1950.609373059137	2
2304	6311	1950.849069997074	1
2304	7348	2270.1	1
2304	7351	2270.3	1
2304	7355	2270.506612546364	1
2304	7362	2270.724404333848	1
2304	8363	2590.1	1
2304	8367	2590.4	2
2304	8371	2590.602340154945	1
2304	8377	2591.007666985934	3
2304	9432	2910.2	2
2304	9435	2910.4	1
2304	9439	2910.603194602373	1
2304	9444	2910.810957169572	1
2304	10496	3230.2	2
2304	10500	3230.5	2
2304	10506	3230.722037819431	1
2304	10510	3230.923344276396	1
2304	11516	3550.1	1
2304	11519	3550.3	1
2304	11523	3550.507660917674	1
2304	11533	3550.739954209648	1
2304	12558	3870.1	1
2304	12562	3870.4	2
2304	12566	3870.605788633101	1
2304	12576	3870.835695630398	1
2304	13604	4190	0
2304	13609	4190.206469620551	1
2304	13615	4190.417925369026	1
2304	13620	4190.723250036992	2
2304	14644	4510.2	2
2304	14648	4510.5	2
2304	14653	4510.808101234755	2
2304	14683	4511.137116390734	1
2304	15688	4830.2	2
2304	15691	4830.4	1
2304	15696	4830.606720682228	1
2304	15705	4830.834321973064	1
2304	16745	5150.1	1
2304	16749	5150.4	2
2304	16754	5150.609585577895	1
2304	16759	5150.819027177365	1
2304	17794	5470.1	1
2304	17797	5470.3	1
2304	17802	5470.60820942973	2
2304	17806	5470.808340011408	1
2304	18850	5790	0
2304	18855	5790.215779381768	1
2304	18862	5790.426318450018	1
2304	18867	5790.729066377381	2
2304	19876	6110	0
2304	19879	6110.2	1
2304	19884	6110.406662068285	1
2304	19896	6110.738422109025	2
2304	20915	6430.1	1
2304	20918	6430.3	1
2304	20922	6430.501013696403	1
2304	20927	6430.715555909603	1
2304	21959	6750.2	2
2304	21963	6750.5	2
2304	21967	6750.70823665067	1
2304	21971	6750.91643223391	1
2304	22992	7070.1	1
2304	22997	7070.402565273174	2
2304	23002	7070.71042268305	2
2304	23007	7071.015564616268	2
2304	24045	7390.1	1
2304	24050	7390.407948952033	2
2304	24054	7390.611447844933	1
2304	24058	7390.821391646775	1
2304	25074	7710	0
2304	25078	7710.3	2
2304	25082	7710.506341341123	1
2304	25088	7710.717687323515	1
2304	26092	8030.2	2
2304	26095	8030.4	1
2304	26100	8030.702008359187	2
2304	26104	8030.911495332889	1
2304	27145	8350.2	2
2304	27149	8350.5	2
2304	27157	8350.822580601592	2
2304	27165	8351.043175631932	1
2304	28216	8670.1	1
2304	28219	8670.3	1
2304	28224	8670.508145334967	1
2304	28228	8670.712087521513	1
2304	29250	8990	0
2304	29256	8990.222872291361	1
2304	29261	8990.432938488306	1
2304	29265	8990.640530763667	1
2304	30299	9310.2	2
2304	30303	9310.5	2
2304	30308	9310.705528865027	1
2304	30312	9310.915523234276	1
2304	31356	9630.1	1
2304	31361	9630.408270783894	2
2304	31365	9630.613381339648	1
2304	31371	9630.835042915775	1
2304	32413	9950	0
2304	32416	9950.2	1
2304	32421	9950.503589411692	2
2304	32432	9950.74152950092	1
2304	33462	10270.2	2
2304	33467	10270.6	3
2304	33471	10270.80326751142	1
2304	33475	10271.003503306775	1
2304	34470	10590	0
2304	34473	10590.2	1
2304	34478	10590.503569026545	2
2304	34484	10590.719176682078	1
2304	35496	10910.1	1
2304	35500	10910.4	2
2304	35508	10910.607806074249	1
2304	35513	10910.917116962443	2
2304	36584	11230.1	1
2304	36587	11230.3	1
2304	36593	11230.515328190977	1
2304	36597	11230.724350774628	1
2304	37642	11550.1	1
2304	37648	11550.408997794465	2
2304	37654	11550.717683219684	2
2304	37660	11550.931411008524	1
2304	38648	11870.1	1
2304	38651	11870.3	1
2304	38656	11870.602182721581	2
2304	38665	11870.821338441353	1
2304	39682	12190.2	2
2304	39686	12190.405881648778	1
2304	39693	12190.632719447191	1
2304	39701	12190.866117397625	1
2304	40770	12510.1	1
2304	40777	12510.41042770145	2
2304	40782	12510.713668183921	2
2304	40787	12510.92974541076	1
2304	41805	12830.2	2
2304	41808	12830.4	1
2304	41812	12830.6016239423	1
2304	41817	12830.814355880789	1
2304	42864	13150.2	2
2304	42868	13150.407681185696	1
2304	42873	13150.610674536834	1
2304	42877	13150.811295224724	1
2304	43903	13470.1	1
2304	43908	13470.405684476802	2
2304	43917	13470.638982638232	1
2304	43923	13470.852041255382	1
2304	44930	13790.2	2
2304	44934	13790.5	2
2304	44938	13790.704516486083	1
2304	44942	13790.908259123333	1
2304	45994	14110.1	1
2304	45997	14110.3	1
2304	46002	14110.609837935876	2
2304	46008	14110.828284089413	1
2304	47038	14430.1	1
2304	47043	14430.5	3
2304	47048	14430.801831227471	2
2304	47056	14431.011900666409	1
2304	48062	14750.1	1
2304	48066	14750.4	2
2304	48082	14750.661613767243	1
2304	48093	14750.903449978433	1
2304	49132	15070.1	1
2304	49138	15070.309665069809	1
2304	49143	15070.524840924264	1
2304	49147	15070.726415433249	1
2304	50171	15390.1	1
2304	50176	15390.5	3
2304	50181	15390.702880162714	1
2304	50185	15390.906270033303	1
2304	51207	15710.1	1
2304	51211	15710.4	2
2304	51216	15710.704806803783	2
2304	51221	15710.921630014181	1
2304	52226	16030.1	1
2304	52229	16030.3	1
2304	52234	16030.606536332166	2
2304	52240	16030.915467802794	2
2304	53249	16350.1	1
2304	53253	16350.4	2
2304	53258	16350.700485913429	2
2304	53264	16351.019950338221	2
2304	54344	16670.2	2
2304	54348	16670.5	2
2304	54353	16670.802761573032	2
2304	54358	16671.010995649011	1
2304	55378	16990.1	1
2304	55382	16990.4	2
2304	55387	16990.701357752981	2
2304	55393	16990.920844386475	1
2304	56435	17310.1	1
2304	56438	17310.3	1
2304	56443	17310.514721751405	1
2304	56448	17310.814761227719	2
2304	57485	17630.1	1
2304	57488	17630.3	1
2304	57494	17630.615906496531	2
2304	57498	17630.819342540228	1
2304	58499	17950.2	2
2304	58503	17950.407210886029	1
2304	58508	17950.713947291187	2
2304	58516	17950.943925723373	1
2304	59564	18270.1	1
2304	59568	18270.4	2
2304	59574	18270.709340618151	2
2304	59583	18270.95385105667	1
2304	60609	18590.1	1
2304	60612	18590.3	1
2304	60616	18590.503178751647	1
2304	60621	18590.805944262588	2
2304	61695	18910.1	1
2304	61698	18910.3	1
2304	61702	18910.503623852098	1
2304	61712	18910.740458694384	1
2304	62742	19230.2	2
2304	62747	19230.500999921271	2
2304	62752	19230.713930259662	1
2304	62758	19230.932015453082	1
2304	63821	19550	0
2304	63825	19550.204636652492	1
2304	63831	19550.514218584006	2
2304	63835	19550.718651576205	1
2304	64879	19870.1	1
2304	64883	19870.302159170922	1
2304	64895	19870.636803968091	2
2304	64900	19870.84625713676	1
2304	65930	20190.1	1
2304	65934	20190.4	2
2304	65939	20190.705078918058	2
2304	65947	20191.021762856661	2
2305	31	30.2	0.75
2305	35	30.5	0.75
2305	40	30.80642225475	0.75
2305	44	31.015956556063	0.875
2305	1064	350.2	0.75
2305	1068	350.5	0.75
2305	1074	350.809424216912	0.75
2305	1078	351.016321203922	0.875
2305	2113	670.2	0.75
2305	2117	670.5	0.75
2305	2122	670.802464216696	0.75
2305	2128	671.017867014675	0.875
2305	3137	990.2	0.75
2305	3141	990.5	0.75
2305	3147	990.811881408714	0.75
2305	3151	991.015268964624	0.875
2305	4184	1310.2	0.75
2305	4187	1310.4	0.875
2305	4192	1310.707030048097	0.75
2305	4197	1310.911744971169	0.875
2305	5217	1630	1
2305	5224	1630.305323928838	0.75
2305	5228	1630.510858955922	0.875
2305	5232	1630.716463139051	0.875
2305	6290	1950.1	0.875
2305	6293	1950.3	0.875
2305	6298	1950.609373059137	0.75
2305	6311	1950.849069997074	0.875
2305	7348	2270.1	0.875
2305	7351	2270.3	0.875
2305	7355	2270.506612546364	0.875
2305	7362	2270.724404333848	0.875
2305	8363	2590.1	0.875
2305	8367	2590.4	0.75
2305	8371	2590.602340154945	0.875
2305	8377	2591.007666985934	0.625
2305	9432	2910.2	0.75
2305	9435	2910.4	0.875
2305	9439	2910.603194602373	0.875
2305	9444	2910.810957169572	0.875
2305	10496	3230.2	0.75
2305	10500	3230.5	0.75
2305	10506	3230.722037819431	0.875
2305	10510	3230.923344276396	0.875
2305	11516	3550.1	0.875
2305	11519	3550.3	0.875
2305	11523	3550.507660917674	0.875
2305	11533	3550.739954209648	0.875
2305	12558	3870.1	0.875
2305	12562	3870.4	0.75
2305	12566	3870.605788633101	0.875
2305	12576	3870.835695630398	0.875
2305	13604	4190	1
2305	13609	4190.206469620551	0.875
2305	13615	4190.417925369026	0.875
2305	13620	4190.723250036992	0.75
2305	14644	4510.2	0.75
2305	14648	4510.5	0.75
2305	14653	4510.808101234755	0.75
2305	14683	4511.137116390734	0.875
2305	15688	4830.2	0.75
2305	15691	4830.4	0.875
2305	15696	4830.606720682228	0.875
2305	15705	4830.834321973064	0.875
2305	16745	5150.1	0.875
2305	16749	5150.4	0.75
2305	16754	5150.609585577895	0.875
2305	16759	5150.819027177365	0.875
2305	17794	5470.1	0.875
2305	17797	5470.3	0.875
2305	17802	5470.60820942973	0.75
2305	17806	5470.808340011408	0.875
2305	18850	5790	1
2305	18855	5790.215779381768	0.875
2305	18862	5790.426318450018	0.875
2305	18867	5790.729066377381	0.75
2305	19876	6110	1
2305	19879	6110.2	0.875
2305	19884	6110.406662068285	0.875
2305	19896	6110.738422109025	0.75
2305	20915	6430.1	0.875
2305	20918	6430.3	0.875
2305	20922	6430.501013696403	0.875
2305	20927	6430.715555909603	0.875
2305	21959	6750.2	0.75
2305	21963	6750.5	0.75
2305	21967	6750.70823665067	0.875
2305	21971	6750.91643223391	0.875
2305	22992	7070.1	0.875
2305	22997	7070.402565273174	0.75
2305	23002	7070.71042268305	0.75
2305	23007	7071.015564616268	0.75
2305	24045	7390.1	0.875
2305	24050	7390.407948952033	0.75
2305	24054	7390.611447844933	0.875
2305	24058	7390.821391646775	0.875
2305	25074	7710	1
2305	25078	7710.3	0.75
2305	25082	7710.506341341123	0.875
2305	25088	7710.717687323515	0.875
2305	26092	8030.2	0.75
2305	26095	8030.4	0.875
2305	26100	8030.702008359187	0.75
2305	26104	8030.911495332889	0.875
2305	27145	8350.2	0.75
2305	27149	8350.5	0.75
2305	27157	8350.822580601592	0.75
2305	27165	8351.043175631932	0.875
2305	28216	8670.1	0.875
2305	28219	8670.3	0.875
2305	28224	8670.508145334967	0.875
2305	28228	8670.712087521513	0.875
2305	29250	8990	1
2305	29256	8990.222872291361	0.875
2305	29261	8990.432938488306	0.875
2305	29265	8990.640530763667	0.875
2305	30299	9310.2	0.75
2305	30303	9310.5	0.75
2305	30308	9310.705528865027	0.875
2305	30312	9310.915523234276	0.875
2305	31356	9630.1	0.875
2305	31361	9630.408270783894	0.75
2305	31365	9630.613381339648	0.875
2305	31371	9630.835042915775	0.875
2305	32413	9950	1
2305	32416	9950.2	0.875
2305	32421	9950.503589411692	0.75
2305	32432	9950.74152950092	0.875
2305	33462	10270.2	0.75
2305	33467	10270.6	0.625
2305	33471	10270.80326751142	0.875
2305	33475	10271.003503306775	0.875
2305	34470	10590	1
2305	34473	10590.2	0.875
2305	34478	10590.503569026545	0.75
2305	34484	10590.719176682078	0.875
2305	35496	10910.1	0.875
2305	35500	10910.4	0.75
2305	35508	10910.607806074249	0.875
2305	35513	10910.917116962443	0.75
2305	36584	11230.1	0.875
2305	36587	11230.3	0.875
2305	36593	11230.515328190977	0.875
2305	36597	11230.724350774628	0.875
2305	37642	11550.1	0.875
2305	37648	11550.408997794465	0.75
2305	37654	11550.717683219684	0.75
2305	37660	11550.931411008524	0.875
2305	38648	11870.1	0.875
2305	38651	11870.3	0.875
2305	38656	11870.602182721581	0.75
2305	38665	11870.821338441353	0.875
2305	39682	12190.2	0.75
2305	39686	12190.405881648778	0.875
2305	39693	12190.632719447191	0.875
2305	39701	12190.866117397625	0.875
2305	40770	12510.1	0.875
2305	40777	12510.41042770145	0.75
2305	40782	12510.713668183921	0.75
2305	40787	12510.92974541076	0.875
2305	41805	12830.2	0.75
2305	41808	12830.4	0.875
2305	41812	12830.6016239423	0.875
2305	41817	12830.814355880789	0.875
2305	42864	13150.2	0.75
2305	42868	13150.407681185696	0.875
2305	42873	13150.610674536834	0.875
2305	42877	13150.811295224724	0.875
2305	43903	13470.1	0.875
2305	43908	13470.405684476802	0.75
2305	43917	13470.638982638232	0.875
2305	43923	13470.852041255382	0.875
2305	44930	13790.2	0.75
2305	44934	13790.5	0.75
2305	44938	13790.704516486083	0.875
2305	44942	13790.908259123333	0.875
2305	45994	14110.1	0.875
2305	45997	14110.3	0.875
2305	46002	14110.609837935876	0.75
2305	46008	14110.828284089413	0.875
2305	47038	14430.1	0.875
2305	47043	14430.5	0.625
2305	47048	14430.801831227471	0.75
2305	47056	14431.011900666409	0.875
2305	48062	14750.1	0.875
2305	48066	14750.4	0.75
2305	48082	14750.661613767243	0.875
2305	48093	14750.903449978433	0.875
2305	49132	15070.1	0.875
2305	49138	15070.309665069809	0.875
2305	49143	15070.524840924264	0.875
2305	49147	15070.726415433249	0.875
2305	50171	15390.1	0.875
2305	50176	15390.5	0.625
2305	50181	15390.702880162714	0.875
2305	50185	15390.906270033303	0.875
2305	51207	15710.1	0.875
2305	51211	15710.4	0.75
2305	51216	15710.704806803783	0.75
2305	51221	15710.921630014181	0.875
2305	52226	16030.1	0.875
2305	52229	16030.3	0.875
2305	52234	16030.606536332166	0.75
2305	52240	16030.915467802794	0.75
2305	53249	16350.1	0.875
2305	53253	16350.4	0.75
2305	53258	16350.700485913429	0.75
2305	53264	16351.019950338221	0.75
2305	54344	16670.2	0.75
2305	54348	16670.5	0.75
2305	54353	16670.802761573032	0.75
2305	54358	16671.010995649011	0.875
2305	55378	16990.1	0.875
2305	55382	16990.4	0.75
2305	55387	16990.701357752981	0.75
2305	55393	16990.920844386475	0.875
2305	56435	17310.1	0.875
2305	56438	17310.3	0.875
2305	56443	17310.514721751405	0.875
2305	56448	17310.814761227719	0.75
2305	57485	17630.1	0.875
2305	57488	17630.3	0.875
2305	57494	17630.615906496531	0.75
2305	57498	17630.819342540228	0.875
2305	58499	17950.2	0.75
2305	58503	17950.407210886029	0.875
2305	58508	17950.713947291187	0.75
2305	58516	17950.943925723373	0.875
2305	59564	18270.1	0.875
2305	59568	18270.4	0.75
2305	59574	18270.709340618151	0.75
2305	59583	18270.95385105667	0.875
2305	60609	18590.1	0.875
2305	60612	18590.3	0.875
2305	60616	18590.503178751647	0.875
2305	60621	18590.805944262588	0.75
2305	61695	18910.1	0.875
2305	61698	18910.3	0.875
2305	61702	18910.503623852098	0.875
2305	61712	18910.740458694384	0.875
2305	62742	19230.2	0.75
2305	62747	19230.500999921271	0.75
2305	62752	19230.713930259662	0.875
2305	62758	19230.932015453082	0.875
2305	63821	19550	1
2305	63825	19550.204636652492	0.875
2305	63831	19550.514218584006	0.75
2305	63835	19550.718651576205	0.875
2305	64879	19870.1	0.875
2305	64883	19870.302159170922	0.875
2305	64895	19870.636803968091	0.75
2305	64900	19870.84625713676	0.875
2305	65930	20190.1	0.875
2305	65934	20190.4	0.75
2305	65939	20190.705078918058	0.75
2305	65947	20191.021762856661	0.75
2306	31	30.2	0.2
2306	35	30.5	0.3
2306	40	30.80642225475	0.3
2306	44	31.015956556063	0.2
2306	1064	350.2	0.2
2306	1068	350.5	0.3
2306	1074	350.809424216912	0.3
2306	1078	351.016321203922	0.2
2306	2113	670.2	0.2
2306	2117	670.5	0.3
2306	2122	670.802464216696	0.3
2306	2128	671.017867014675	0.2
2306	3137	990.2	0.2
2306	3141	990.5	0.3
2306	3147	990.811881408714	0.3
2306	3151	991.015268964624	0.2
2306	4184	1310.2	0.2
2306	4187	1310.4	0.2
2306	4192	1310.707030048097	0.3
2306	4197	1310.911744971169	0.2
2306	5217	1630	0
2306	5224	1630.305323928838	0.3
2306	5228	1630.510858955922	0.2
2306	5232	1630.716463139051	0.2
2306	6290	1950.1	0.1
2306	6293	1950.3	0.2
2306	6298	1950.609373059137	0.3
2306	6311	1950.849069997074	0.2
2306	7348	2270.1	0.1
2306	7351	2270.3	0.2
2306	7355	2270.506612546364	0.2
2306	7362	2270.724404333848	0.2
2306	8363	2590.1	0.1
2306	8367	2590.4	0.3
2306	8371	2590.602340154945	0.2
2306	8377	2591.007666985934	0.4
2306	9432	2910.2	0.2
2306	9435	2910.4	0.2
2306	9439	2910.603194602373	0.2
2306	9444	2910.810957169572	0.2
2306	10496	3230.2	0.2
2306	10500	3230.5	0.3
2306	10506	3230.722037819431	0.2
2306	10510	3230.923344276396	0.2
2306	11516	3550.1	0.1
2306	11519	3550.3	0.2
2306	11523	3550.507660917674	0.2
2306	11533	3550.739954209648	0.2
2306	12558	3870.1	0.1
2306	12562	3870.4	0.3
2306	12566	3870.605788633101	0.2
2306	12576	3870.835695630398	0.2
2306	13604	4190	0
2306	13609	4190.206469620551	0.2
2306	13615	4190.417925369026	0.2
2306	13620	4190.723250036992	0.3
2306	14644	4510.2	0.2
2306	14648	4510.5	0.3
2306	14653	4510.808101234755	0.3
2306	14683	4511.137116390734	0.2
2306	15688	4830.2	0.2
2306	15691	4830.4	0.2
2306	15696	4830.606720682228	0.2
2306	15705	4830.834321973064	0.2
2306	16745	5150.1	0.1
2306	16749	5150.4	0.3
2306	16754	5150.609585577895	0.2
2306	16759	5150.819027177365	0.2
2306	17794	5470.1	0.1
2306	17797	5470.3	0.2
2306	17802	5470.60820942973	0.3
2306	17806	5470.808340011408	0.2
2306	18850	5790	0
2306	18855	5790.215779381768	0.2
2306	18862	5790.426318450018	0.2
2306	18867	5790.729066377381	0.3
2306	19876	6110	0
2306	19879	6110.2	0.2
2306	19884	6110.406662068285	0.2
2306	19896	6110.738422109025	0.3
2306	20915	6430.1	0.1
2306	20918	6430.3	0.2
2306	20922	6430.501013696403	0.2
2306	20927	6430.715555909603	0.2
2306	21959	6750.2	0.2
2306	21963	6750.5	0.3
2306	21967	6750.70823665067	0.2
2306	21971	6750.91643223391	0.2
2306	22992	7070.1	0.1
2306	22997	7070.402565273174	0.3
2306	23002	7070.71042268305	0.3
2306	23007	7071.015564616268	0.3
2306	24045	7390.1	0.1
2306	24050	7390.407948952033	0.3
2306	24054	7390.611447844933	0.2
2306	24058	7390.821391646775	0.2
2306	25074	7710	0
2306	25078	7710.3	0.3
2306	25082	7710.506341341123	0.2
2306	25088	7710.717687323515	0.2
2306	26092	8030.2	0.2
2306	26095	8030.4	0.2
2306	26100	8030.702008359187	0.3
2306	26104	8030.911495332889	0.2
2306	27145	8350.2	0.2
2306	27149	8350.5	0.3
2306	27157	8350.822580601592	0.3
2306	27165	8351.043175631932	0.2
2306	28216	8670.1	0.1
2306	28219	8670.3	0.2
2306	28224	8670.508145334967	0.2
2306	28228	8670.712087521513	0.2
2306	29250	8990	0
2306	29256	8990.222872291361	0.2
2306	29261	8990.432938488306	0.2
2306	29265	8990.640530763667	0.2
2306	30299	9310.2	0.2
2306	30303	9310.5	0.3
2306	30308	9310.705528865027	0.2
2306	30312	9310.915523234276	0.2
2306	31356	9630.1	0.1
2306	31361	9630.408270783894	0.3
2306	31365	9630.613381339648	0.2
2306	31371	9630.835042915775	0.2
2306	32413	9950	0
2306	32416	9950.2	0.2
2306	32421	9950.503589411692	0.3
2306	32432	9950.74152950092	0.2
2306	33462	10270.2	0.2
2306	33467	10270.6	0.4
2306	33471	10270.80326751142	0.2
2306	33475	10271.003503306775	0.2
2306	34470	10590	0
2306	34473	10590.2	0.2
2306	34478	10590.503569026545	0.3
2306	34484	10590.719176682078	0.2
2306	35496	10910.1	0.1
2306	35500	10910.4	0.3
2306	35508	10910.607806074249	0.2
2306	35513	10910.917116962443	0.3
2306	36584	11230.1	0.1
2306	36587	11230.3	0.2
2306	36593	11230.515328190977	0.2
2306	36597	11230.724350774628	0.2
2306	37642	11550.1	0.1
2306	37648	11550.408997794465	0.3
2306	37654	11550.717683219684	0.3
2306	37660	11550.931411008524	0.2
2306	38648	11870.1	0.1
2306	38651	11870.3	0.2
2306	38656	11870.602182721581	0.3
2306	38665	11870.821338441353	0.2
2306	39682	12190.2	0.2
2306	39686	12190.405881648778	0.2
2306	39693	12190.632719447191	0.2
2306	39701	12190.866117397625	0.2
2306	40770	12510.1	0.1
2306	40777	12510.41042770145	0.3
2306	40782	12510.713668183921	0.3
2306	40787	12510.92974541076	0.2
2306	41805	12830.2	0.2
2306	41808	12830.4	0.2
2306	41812	12830.6016239423	0.2
2306	41817	12830.814355880789	0.2
2306	42864	13150.2	0.2
2306	42868	13150.407681185696	0.2
2306	42873	13150.610674536834	0.2
2306	42877	13150.811295224724	0.2
2306	43903	13470.1	0.1
2306	43908	13470.405684476802	0.3
2306	43917	13470.638982638232	0.2
2306	43923	13470.852041255382	0.2
2306	44930	13790.2	0.2
2306	44934	13790.5	0.3
2306	44938	13790.704516486083	0.2
2306	44942	13790.908259123333	0.2
2306	45994	14110.1	0.1
2306	45997	14110.3	0.2
2306	46002	14110.609837935876	0.3
2306	46008	14110.828284089413	0.2
2306	47038	14430.1	0.1
2306	47043	14430.5	0.4
2306	47048	14430.801831227471	0.3
2306	47056	14431.011900666409	0.2
2306	48062	14750.1	0.1
2306	48066	14750.4	0.3
2306	48082	14750.661613767243	0.2
2306	48093	14750.903449978433	0.2
2306	49132	15070.1	0.1
2306	49138	15070.309665069809	0.2
2306	49143	15070.524840924264	0.2
2306	49147	15070.726415433249	0.2
2306	50171	15390.1	0.1
2306	50176	15390.5	0.4
2306	50181	15390.702880162714	0.2
2306	50185	15390.906270033303	0.2
2306	51207	15710.1	0.1
2306	51211	15710.4	0.3
2306	51216	15710.704806803783	0.3
2306	51221	15710.921630014181	0.2
2306	52226	16030.1	0.1
2306	52229	16030.3	0.2
2306	52234	16030.606536332166	0.3
2306	52240	16030.915467802794	0.3
2306	53249	16350.1	0.1
2306	53253	16350.4	0.3
2306	53258	16350.700485913429	0.3
2306	53264	16351.019950338221	0.3
2306	54344	16670.2	0.2
2306	54348	16670.5	0.3
2306	54353	16670.802761573032	0.3
2306	54358	16671.010995649011	0.2
2306	55378	16990.1	0.1
2306	55382	16990.4	0.3
2306	55387	16990.701357752981	0.3
2306	55393	16990.920844386475	0.2
2306	56435	17310.1	0.1
2306	56438	17310.3	0.2
2306	56443	17310.514721751405	0.2
2306	56448	17310.814761227719	0.3
2306	57485	17630.1	0.1
2306	57488	17630.3	0.2
2306	57494	17630.615906496531	0.3
2306	57498	17630.819342540228	0.2
2306	58499	17950.2	0.2
2306	58503	17950.407210886029	0.2
2306	58508	17950.713947291187	0.3
2306	58516	17950.943925723373	0.2
2306	59564	18270.1	0.1
2306	59568	18270.4	0.3
2306	59574	18270.709340618151	0.3
2306	59583	18270.95385105667	0.2
2306	60609	18590.1	0.1
2306	60612	18590.3	0.2
2306	60616	18590.503178751647	0.2
2306	60621	18590.805944262588	0.3
2306	61695	18910.1	0.1
2306	61698	18910.3	0.2
2306	61702	18910.503623852098	0.2
2306	61712	18910.740458694384	0.2
2306	62742	19230.2	0.2
2306	62747	19230.500999921271	0.3
2306	62752	19230.713930259662	0.2
2306	62758	19230.932015453082	0.2
2306	63821	19550	0
2306	63825	19550.204636652492	0.2
2306	63831	19550.514218584006	0.3
2306	63835	19550.718651576205	0.2
2306	64879	19870.1	0.1
2306	64883	19870.302159170922	0.2
2306	64895	19870.636803968091	0.3
2306	64900	19870.84625713676	0.2
2306	65930	20190.1	0.1
2306	65934	20190.4	0.3
2306	65939	20190.705078918058	0.3
2306	65947	20191.021762856661	0.3
2307	61	40.1	1
2307	64	40.3	1
2307	68	40.502276832556	1
2307	78	40.830240218134	2
2307	1095	360.1	1
2307	1106	360.439333498026	2
2307	1111	360.65520650583	1
2307	1122	360.98617020505	2
2307	2146	680.2	2
2307	2150	680.5	2
2307	2154	680.706355033628	1
2307	2158	680.91568528249	1
2307	3169	1000.2	2
2307	3174	1000.507301446262	2
2307	3178	1000.712018383273	1
2307	3188	1001.034095319024	2
2307	4213	1320	0
2307	4219	1320.402370482576	3
2307	4223	1320.604164574632	1
2307	4227	1320.810573303686	1
2307	5249	1640.1	1
2307	5253	1640.4	2
2307	5258	1640.703694775714	2
2307	5265	1640.922618442357	1
2307	6328	1960.1	1
2307	6331	1960.3	1
2307	6340	1960.619071680292	2
2307	6344	1960.825183620516	1
2307	7379	2280.1	1
2307	7382	2280.3	1
2307	7387	2280.503118705613	1
2307	7392	2280.805861558891	2
2307	8396	2600.3	3
2307	8401	2600.5144815918	1
2307	8407	2600.728113373497	1
2307	8411	2600.931649630914	1
2307	9461	2920.1	1
2307	9465	2920.4	2
2307	9470	2920.605891871372	1
2307	9475	2920.809697049609	1
2307	10526	3240	0
2307	10530	3240.3	2
2307	10535	3240.608539163484	2
2307	10540	3240.818949699461	1
2307	11550	3560.1	1
2307	11554	3560.4	2
2307	11558	3560.603902546763	1
2307	11566	3560.834718770843	1
2307	12592	3880	0
2307	12595	3880.2	1
2307	12599	3880.409356502592	1
2307	12609	3880.741122035143	2
2307	13638	4200.2	2
2307	13642	4200.40489415059	1
2307	13648	4200.71714130054	2
2307	13652	4200.925571654844	1
2307	14700	4520.1	1
2307	14704	4520.4	2
2307	14710	4520.615976774351	1
2307	14714	4520.825107697493	1
2307	15723	4840.2	2
2307	15727	4840.5	2
2307	15731	4840.70622805702	1
2307	15736	4840.921711492025	1
2307	16777	5160.2	2
2307	16780	5160.4	1
2307	16787	5160.718278865254	2
2307	16792	5161.025895050306	2
2307	17825	5480.3	3
2307	17828	5480.5	1
2307	17834	5480.811469048987	2
2307	17838	5481.016051358514	1
2307	18884	5800.1	1
2307	18888	5800.307847333487	1
2307	18894	5800.520292737815	1
2307	18914	5800.799014078712	1
2307	19913	6120.1	1
2307	19917	6120.4	2
2307	19922	6120.609940805153	1