file 945475 1369674152                                          
version 2
run Stability-147-20130525-17:52:00-19193
attr configname Stability
attr datetime 20130525-17:52:00
attr experiment Stability
attr inifile omnetpp.ini
attr iterationvars $0=1e-8
attr iterationvars2 "$0=1e-8, $repetition=7"
attr measurement $0=1e-8
attr network Network
attr processid 19193
attr repetition 7
attr replication #7
attr resultdir results
attr runnumber 147
attr seedset 147
vector 14148  Network.dyn_peer[12]  lookupHopsSig:vector  ETV
14148	362272 8703 65 137413 20.00000000013 135.944172949804 286 0 19 1257 8141
vector 14149  Network.dyn_peer[12]  lookupStabilitySig:vector  ETV
14149	370975 9605 65 137413 20.00000000013 135.944172949804 286 -1.375 1 128.88888888806 98.977623455318
vector 14150  Network.dyn_peer[12]  lookupTimeSig:vector  ETV
14150	380580 9235 65 137413 20.00000000013 135.944172949804 286 0 1.7 139 88.94
vector 14160  Network.dyn_peer[16]  lookupHopsSig:vector  ETV
14160	478705 8024 81 138796 20.00000000017 137.053688806567 263 0 28 1251 9977
vector 14161  Network.dyn_peer[16]  lookupStabilitySig:vector  ETV
14161	486729 8923 81 138796 20.00000000017 137.053688806567 263 -2.5 1 106.68055555224 106.19926697163
vector 14162  Network.dyn_peer[16]  lookupTimeSig:vector  ETV
14162	495652 8494 81 138796 20.00000000017 137.053688806567 263 0 2.3 137.4 102.6
vector 14127  Network.dyn_peer[5]  lookupHopsSig:vector  ETV
14127	154547 9299 136 138899 20.10000000006 137.223622505818 305 0 18 1379 8733
vector 14128  Network.dyn_peer[5]  lookupStabilitySig:vector  ETV
14128	163846 10273 136 138899 20.10000000006 137.223622505818 305 -1.25 1 132.65277777612 96.745563269029
vector 14129  Network.dyn_peer[5]  lookupTimeSig:vector  ETV
14129	174119 9871 136 138899 20.10000000006 137.223622505818 305 0 1.4 152.3 96.61
vector 14130  Network.dyn_peer[6]  lookupHopsSig:vector  ETV
14130	183990 9570 141 137610 20.10000000007 136.108388310542 314 0 21 1234 7368
vector 14131  Network.dyn_peer[6]  lookupStabilitySig:vector  ETV
14131	193560 10645 141 137610 20.10000000007 136.108388310542 314 -1.625 1 159.90277773142 120.78954470305
vector 14132  Network.dyn_peer[6]  lookupTimeSig:vector  ETV
14132	204205 10173 141 137610 20.10000000007 136.108388310542 314 0 1.9 139.4 82.76
vector 14163  Network.dyn_peer[17]  lookupHopsSig:vector  ETV
14163	504146 9125 156 138665 20.10000000018 136.916796163701 300 0 22 1312 9262
vector 14164  Network.dyn_peer[17]  lookupStabilitySig:vector  ETV
14164	513271 10089 156 138665 20.10000000018 136.916796163701 300 -1.75 1 136.08333332837 116.81983024066
vector 14165  Network.dyn_peer[17]  lookupTimeSig:vector  ETV
14165	523360 9685 156 138665 20.10000000018 136.916796163701 300 0 2 145.4 99.04
vector 14175  Network.dyn_peer[21]  lookupHopsSig:vector  ETV
14175	618293 9869 164 137836 20.10000000022 136.280093546607 324 0 17 1386 9522
vector 14176  Network.dyn_peer[21]  lookupStabilitySig:vector  ETV
14176	628162 10913 164 137836 20.10000000022 136.280093546607 324 -1.125 1 150.91666662693 126.1423611376
vector 14177  Network.dyn_peer[21]  lookupTimeSig:vector  ETV
14177	639075 10475 164 137836 20.10000000022 136.280093546607 324 0.1 1.6 154.3 100.93
vector 14190  Network.dyn_peer[26]  lookupHopsSig:vector  ETV
14190	768589 8975 173 138267 20.10000000027 136.597733716309 294 0 18 1283 8925
vector 14191  Network.dyn_peer[26]  lookupStabilitySig:vector  ETV
14191	777564 9965 173 138267 20.10000000027 136.597733716309 294 -1.25 1 133.73611107469 112.81385027185
vector 14192  Network.dyn_peer[26]  lookupTimeSig:vector  ETV
14192	787529 9516 173 138267 20.10000000027 136.597733716309 294 0 1.6 142.2 94.56
vector 14193  Network.dyn_peer[27]  lookupHopsSig:vector  ETV
14193	797045 9283 178 137810 20.10000000028 136.262897588278 306 0 25 1207 8211
vector 14194  Network.dyn_peer[27]  lookupStabilitySig:vector  ETV
14194	806328 10342 178 137810 20.10000000028 136.262897588278 306 -2.125 1 155.3194444105 132.74556323923
vector 14195  Network.dyn_peer[27]  lookupTimeSig:vector  ETV
14195	816670 9862 178 137810 20.10000000028 136.262897588278 306 0 2.1 136.2 87.26
vector 14196  Network.dyn_peer[28]  lookupHopsSig:vector  ETV
14196	826532 9189 183 137726 20.10000000029 136.194909552783 302 0 32 1300 9182
vector 14197  Network.dyn_peer[28]  lookupStabilitySig:vector  ETV
14197	835721 10179 183 137726 20.10000000029 136.194909552783 302 -3 1 139.59722220898 120.50250771016
vector 14198  Network.dyn_peer[28]  lookupTimeSig:vector  ETV
14198	845900 9750 183 137726 20.10000000029 136.194909552783 302 0 3 144.3 98.55
vector 14205  Network.dyn_peer[31]  lookupHopsSig:vector  ETV
14205	917457 8846 190 138211 20.10000000032 136.558680096963 291 0 24 1288 8830
vector 14206  Network.dyn_peer[31]  lookupStabilitySig:vector  ETV
14206	926303 9782 190 138211 20.10000000032 136.558680096963 291 -2 1 130 106.96875
vector 14207  Network.dyn_peer[31]  lookupTimeSig:vector  ETV
14207	936085 9390 190 138211 20.10000000032 136.558680096963 291 0 1.9 142.8 94.68
vector 14112  Network.dyn_peer[0]  lookupHopsSig:vector  ETV
14112	6480 9761 198 138586 20.20000000001 136.837481757406 321 0 17 1262 7518
vector 14113  Network.dyn_peer[0]  lookupStabilitySig:vector  ETV
14113	16241 10830 198 138586 20.20000000001 136.837481757406 321 -1.125 1 163.45833331347 123.09355708037
vector 14114  Network.dyn_peer[0]  lookupTimeSig:vector  ETV
14114	27071 10360 198 138586 20.20000000001 136.837481757406 321 0 1.5 143.3 85.09
vector 14115  Network.dyn_peer[1]  lookupHopsSig:vector  ETV
14115	37431 8115 203 137657 20.20000000002 136.142799645313 267 0 28 1221 9169
vector 14116  Network.dyn_peer[1]  lookupStabilitySig:vector  ETV
14116	45546 9042 203 137657 20.20000000002 136.142799645313 267 -2.5 1 114.51388888061 105.17534721229
vector 14117  Network.dyn_peer[1]  lookupTimeSig:vector  ETV
14117	54588 8615 203 137657 20.20000000002 136.142799645313 267 0 2.4 133.6 93.42
vector 14118  Network.dyn_peer[2]  lookupHopsSig:vector  ETV
14118	63203 9802 208 138754 20.20000000003 137.016996163701 322 0 17 1336 8950
vector 14119  Network.dyn_peer[2]  lookupStabilitySig:vector  ETV
14119	73005 10871 208 138754 20.20000000003 137.016996163701 322 -1.125 1 155 127.84375
vector 14120  Network.dyn_peer[2]  lookupTimeSig:vector  ETV
14120	83876 10408 208 138754 20.20000000003 137.016996163701 322 0 1.6 148.4 96.74
vector 14145  Network.dyn_peer[11]  lookupHopsSig:vector  ETV
14145	333035 9223 220 137901 20.20000000012 136.324984549453 303 0 18 1259 8111
vector 14146  Network.dyn_peer[11]  lookupStabilitySig:vector  ETV
14146	342258 10226 220 137901 20.20000000012 136.324984549453 303 -1.25 1 145.625 114.984375
vector 14147  Network.dyn_peer[11]  lookupTimeSig:vector  ETV
14147	352484 9788 220 137901 20.20000000012 136.324984549453 303 0 1.7 141.4 90.16
vector 14154  Network.dyn_peer[14]  lookupHopsSig:vector  ETV
14154	420064 8892 228 138443 20.20000000015 136.740516020622 292 0 23 1228 8208
vector 14155  Network.dyn_peer[14]  lookupStabilitySig:vector  ETV
14155	428956 9859 228 138443 20.20000000015 136.740516020622 292 -1.875 1 138.59722219408 113.34934410968
vector 14156  Network.dyn_peer[14]  lookupTimeSig:vector  ETV
14156	438815 9442 228 138443 20.20000000015 136.740516020622 292 0.1 1.8 138.7 90.07
vector 14178  Network.dyn_peer[22]  lookupHopsSig:vector  ETV
14178	649550 9823 240 138943 20.20000000023 137.26123731624 322 0 20 1375 9181
vector 14179  Network.dyn_peer[22]  lookupStabilitySig:vector  ETV
14179	659373 10872 240 138943 20.20000000023 137.26123731624 322 -1.5 1 150.2499999702 121.81867281228
vector 14180  Network.dyn_peer[22]  lookupTimeSig:vector  ETV
14180	670245 10438 240 138943 20.20000000023 137.26123731624 322 0 1.8 153 99.1
vector 14121  Network.dyn_peer[3]  lookupHopsSig:vector  ETV
14121	94284 9753 260 138476 20.30000000004 136.757103790717 320 0 19 1270 7666
vector 14122  Network.dyn_peer[3]  lookupStabilitySig:vector  ETV
14122	104037 10789 260 138476 20.30000000004 136.757103790717 320 -1.375 1 161.25 122.28125
vector 14123  Network.dyn_peer[3]  lookupTimeSig:vector  ETV
14123	114826 10357 260 138476 20.30000000004 136.757103790717 320 0 1.8 143.5 85.65
vector 14142  Network.dyn_peer[10]  lookupHopsSig:vector  ETV
14142	301747 9879 270 137953 20.30000000011 136.364783482794 324 0 19 1357 8683
vector 14143  Network.dyn_peer[10]  lookupStabilitySig:vector  ETV
14143	311626 10925 270 137953 20.30000000011 136.364783482794 324 -1.375 1 154.41666666418 120.48881172435
vector 14144  Network.dyn_peer[10]  lookupTimeSig:vector  ETV
14144	322551 10484 270 137953 20.30000000011 136.364783482794 324 0 1.7 151.7 95.57
vector 14166  Network.dyn_peer[18]  lookupHopsSig:vector  ETV
14166	533045 9313 281 138081 20.30000000019 136.461586799533 306 0 17 1259 7769
vector 14167  Network.dyn_peer[18]  lookupStabilitySig:vector  ETV
14167	542358 10319 281 138081 20.30000000019 136.461586799533 306 -1.125 1 148.65277777612 112.68306326903
vector 14168  Network.dyn_peer[18]  lookupTimeSig:vector  ETV
14168	552677 9892 281 138081 20.30000000019 136.461586799533 306 0 1.7 141.1 86.53
vector 14169  Network.dyn_peer[19]  lookupHopsSig:vector  ETV
14169	562569 8999 286 138921 20.3000000002 137.249341839083 295 0 21 1351 9349
vector 14170  Network.dyn_peer[19]  lookupStabilitySig:vector  ETV
14170	571568 10001 286 138921 20.3000000002 137.249341839083 295 -1.625 1 126.22222219408 103.42746910968
vector 14171  Network.dyn_peer[19]  lookupTimeSig:vector  ETV
14171	581569 9544 286 138921 20.3000000002 137.249341839083 295 0 1.8 149 100.04
vector 14184  Network.dyn_peer[24]  lookupHopsSig:vector  ETV
14184	708605 9476 295 138916 20.30000000025 137.244267515443 312 0 24 1304 8632
vector 14185  Network.dyn_peer[24]  lookupStabilitySig:vector  ETV
14185	718081 10485 295 138916 20.30000000025 137.244267515443 312 -2 1 149.33333331347 121.13541665342
vector 14186  Network.dyn_peer[24]  lookupTimeSig:vector  ETV
14186	728566 10052 295 138916 20.30000000025 137.244267515443 312 0 2.1 144.7 91.91
vector 14187  Network.dyn_peer[25]  lookupHopsSig:vector  ETV
14187	738618 9456 300 138008 20.30000000026 136.416696163701 310 0 20 1340 9322
vector 14188  Network.dyn_peer[25]  lookupStabilitySig:vector  ETV
14188	748074 10499 300 138008 20.30000000026 136.416696163701 310 -1.5 1 142.56944441795 120.71315584065
vector 14189  Network.dyn_peer[25]  lookupTimeSig:vector  ETV
14189	758573 10016 300 138008 20.30000000026 136.416696163701 310 0 1.8 148.6 99.46
vector 14124  Network.dyn_peer[4]  lookupHopsSig:vector  ETV
14124	125183 9257 323 138701 20.40000000005 136.957598513736 304 0 25 1230 7998
vector 14125  Network.dyn_peer[4]  lookupStabilitySig:vector  ETV
14125	134440 10278 323 138701 20.40000000005 136.957598513736 304 -2.125 1 150.51388883591 121.7177854482
vector 14126  Network.dyn_peer[4]  lookupTimeSig:vector  ETV
14126	144718 9829 323 138701 20.40000000005 136.957598513736 304 0 2.2 136.4 84.76
vector 14133  Network.dyn_peer[7]  lookupHopsSig:vector  ETV
14133	214378 9706 330 138994 20.40000000008 137.431590864988 318 0 19 1342 8632
vector 14134  Network.dyn_peer[7]  lookupStabilitySig:vector  ETV
14134	224084 10765 330 138994 20.40000000008 137.431590864988 318 -1.375 1 150.40277773142 117.53954470305
vector 14135  Network.dyn_peer[7]  lookupTimeSig:vector  ETV
14135	234849 10286 330 138994 20.40000000008 137.431590864988 318 0 1.8 150.1 95.27
vector 14136  Network.dyn_peer[8]  lookupHopsSig:vector  ETV
14136	245135 9162 335 138553 20.40000000009 136.807212735283 301 0 14 1244 7710
vector 14137  Network.dyn_peer[8]  lookupStabilitySig:vector  ETV
14137	254297 10149 335 138553 20.40000000009 136.807212735283 301 -0.75 1 145.66666664928 110.55941356406
vector 14138  Network.dyn_peer[8]  lookupTimeSig:vector  ETV
14138	264446 9727 335 138553 20.40000000009 136.807212735283 301 0 1.3 140 87.12
vector 14139  Network.dyn_peer[9]  lookupHopsSig:vector  ETV
14139	274173 8696 340 138781 20.4000000001 137.045364096797 285 0 22 1243 8635
vector 14140  Network.dyn_peer[9]  lookupStabilitySig:vector  ETV
14140	282869 9660 340 138781 20.4000000001 137.045364096797 285 -1.75 1 129.69444444031 109.25501542695
vector 14141  Network.dyn_peer[9]  lookupTimeSig:vector  ETV
14141	292529 9218 340 138781 20.4000000001 137.045364096797 285 0 1.9 138.4 92.48
vector 14151  Network.dyn_peer[13]  lookupHopsSig:vector  ETV
14151	389815 9530 347 138485 20.40000000014 136.76405544885 313 0 16 1248 7730
vector 14152  Network.dyn_peer[13]  lookupStabilitySig:vector  ETV
14152	399345 10604 347 138485 20.40000000014 136.76405544885 313 -1 1 157.02777777612 121.82368826903
vector 14153  Network.dyn_peer[13]  lookupTimeSig:vector  ETV
14153	409949 10115 347 138485 20.40000000014 136.76405544885 313 0 1.6 139.7 85.21
vector 14181  Network.dyn_peer[23]  lookupHopsSig:vector  ETV
14181	680683 8817 363 137851 20.40000000024 136.288917790394 289 0 18 1312 9178
vector 14182  Network.dyn_peer[23]  lookupStabilitySig:vector  ETV
14182	689500 9761 363 137851 20.40000000024 136.288917790394 289 -1.25 1 125 104.40625
vector 14183  Network.dyn_peer[23]  lookupTimeSig:vector  ETV
14183	699261 9344 363 137851 20.40000000024 136.288917790394 289 0 1.7 146.1 101.79
vector 14199  Network.dyn_peer[29]  lookupHopsSig:vector  ETV
14199	855650 9861 372 138982 20.4000000003 137.378037289227 324 0 24 1282 8016
vector 14200  Network.dyn_peer[29]  lookupStabilitySig:vector  ETV
14200	865511 10933 372 138982 20.4000000003 137.378037289227 324 -2 1 163.83333332837 128.85108024066
vector 14201  Network.dyn_peer[29]  lookupTimeSig:vector  ETV
14201	876444 10472 372 138982 20.4000000003 137.378037289227 324 0 2.2 144.9 89.29
vector 14202  Network.dyn_peer[30]  lookupHopsSig:vector  ETV
14202	886916 9646 377 138199 20.40000000031 136.556838832106 317 0 21 1293 8455
vector 14203  Network.dyn_peer[30]  lookupStabilitySig:vector  ETV
14203	896562 10657 377 138199 20.40000000031 136.556838832106 317 -1.625 1 155.44444443285 125.95563270023
vector 14204  Network.dyn_peer[30]  lookupTimeSig:vector  ETV
14204	907219 10238 377 138199 20.40000000031 136.556838832106 317 0 1.7 143.8 89.1
vector 14157  Network.dyn_peer[15]  lookupHopsSig:vector  ETV
14157	448257 9605 406 138536 20.50000000016 136.798922380295 315 0 18 1284 8086
vector 14158  Network.dyn_peer[15]  lookupStabilitySig:vector  ETV
14158	457862 10653 406 138536 20.50000000016 136.798922380295 315 -1.25 1 154.56944444031 120.42689042695
vector 14159  Network.dyn_peer[15]  lookupTimeSig:vector  ETV
14159	468515 10190 406 138536 20.50000000016 136.798922380295 315 0 1.7 143.8 89.04
vector 14172  Network.dyn_peer[20]  lookupHopsSig:vector  ETV
14172	591113 8566 413 138299 20.50000000021 136.616896163701 281 0 20 1248 8918
vector 14173  Network.dyn_peer[20]  lookupStabilitySig:vector  ETV
14173	599679 9515 413 138299 20.50000000021 136.616896163701 281 -1.5 1 125.06944441795 108.40065584065
vector 14174  Network.dyn_peer[20]  lookupTimeSig:vector  ETV
14174	609194 9099 413 138299 20.50000000021 136.616896163701 281 0 1.9 139.1 96.39
