file 890686 1369496761                                          
version 2
run Stability-59-20130525-17:45:57-19193
attr configname Stability
attr datetime 20130525-17:45:57
attr experiment Stability
attr inifile omnetpp.ini
attr iterationvars $0=1e1
attr iterationvars2 "$0=1e1, $repetition=9"
attr measurement $0=1e1
attr network Network
attr processid 19193
attr repetition 9
attr replication #9
attr resultdir results
attr runnumber 59
attr seedset 59

vector 5673  Network.dyn_peer[3]  lookupHopsSig:vector  ETV
vector 5674  Network.dyn_peer[3]  lookupStabilitySig:vector  ETV
vector 5675  Network.dyn_peer[3]  lookupTimeSig:vector  ETV
vector 5664  Network.dyn_peer[0]  lookupHopsSig:vector  ETV
vector 5665  Network.dyn_peer[0]  lookupStabilitySig:vector  ETV
vector 5666  Network.dyn_peer[0]  lookupTimeSig:vector  ETV
vector 5667  Network.dyn_peer[1]  lookupHopsSig:vector  ETV
vector 5668  Network.dyn_peer[1]  lookupStabilitySig:vector  ETV
vector 5669  Network.dyn_peer[1]  lookupTimeSig:vector  ETV
vector 5670  Network.dyn_peer[2]  lookupHopsSig:vector  ETV
vector 5671  Network.dyn_peer[2]  lookupStabilitySig:vector  ETV
vector 5672  Network.dyn_peer[2]  lookupTimeSig:vector  ETV
vector 5676  Network.dyn_peer[4]  lookupHopsSig:vector  ETV
vector 5677  Network.dyn_peer[4]  lookupStabilitySig:vector  ETV
vector 5678  Network.dyn_peer[4]  lookupTimeSig:vector  ETV
vector 5706  Network.dyn_peer[14]  lookupHopsSig:vector  ETV
vector 5707  Network.dyn_peer[14]  lookupStabilitySig:vector  ETV
vector 5708  Network.dyn_peer[14]  lookupTimeSig:vector  ETV
vector 5685  Network.dyn_peer[7]  lookupHopsSig:vector  ETV
vector 5686  Network.dyn_peer[7]  lookupStabilitySig:vector  ETV
vector 5687  Network.dyn_peer[7]  lookupTimeSig:vector  ETV
vector 5691  Network.dyn_peer[9]  lookupHopsSig:vector  ETV
vector 5692  Network.dyn_peer[9]  lookupStabilitySig:vector  ETV
vector 5693  Network.dyn_peer[9]  lookupTimeSig:vector  ETV
vector 5694  Network.dyn_peer[10]  lookupHopsSig:vector  ETV
vector 5695  Network.dyn_peer[10]  lookupStabilitySig:vector  ETV
vector 5696  Network.dyn_peer[10]  lookupTimeSig:vector  ETV
vector 5703  Network.dyn_peer[13]  lookupHopsSig:vector  ETV
vector 5704  Network.dyn_peer[13]  lookupStabilitySig:vector  ETV
vector 5705  Network.dyn_peer[13]  lookupTimeSig:vector  ETV
vector 5739  Network.dyn_peer[25]  lookupHopsSig:vector  ETV
vector 5740  Network.dyn_peer[25]  lookupStabilitySig:vector  ETV
vector 5741  Network.dyn_peer[25]  lookupTimeSig:vector  ETV
vector 5682  Network.dyn_peer[6]  lookupHopsSig:vector  ETV
vector 5683  Network.dyn_peer[6]  lookupStabilitySig:vector  ETV
vector 5684  Network.dyn_peer[6]  lookupTimeSig:vector  ETV
vector 5715  Network.dyn_peer[17]  lookupHopsSig:vector  ETV
vector 5716  Network.dyn_peer[17]  lookupStabilitySig:vector  ETV
vector 5717  Network.dyn_peer[17]  lookupTimeSig:vector  ETV
vector 5697  Network.dyn_peer[11]  lookupHopsSig:vector  ETV
vector 5698  Network.dyn_peer[11]  lookupStabilitySig:vector  ETV
vector 5699  Network.dyn_peer[11]  lookupTimeSig:vector  ETV
vector 5679  Network.dyn_peer[5]  lookupHopsSig:vector  ETV
vector 5680  Network.dyn_peer[5]  lookupStabilitySig:vector  ETV
vector 5681  Network.dyn_peer[5]  lookupTimeSig:vector  ETV
vector 5688  Network.dyn_peer[8]  lookupHopsSig:vector  ETV
vector 5689  Network.dyn_peer[8]  lookupStabilitySig:vector  ETV
vector 5690  Network.dyn_peer[8]  lookupTimeSig:vector  ETV
vector 5718  Network.dyn_peer[18]  lookupHopsSig:vector  ETV
vector 5719  Network.dyn_peer[18]  lookupStabilitySig:vector  ETV
vector 5720  Network.dyn_peer[18]  lookupTimeSig:vector  ETV
vector 5748  Network.dyn_peer[28]  lookupHopsSig:vector  ETV
vector 5749  Network.dyn_peer[28]  lookupStabilitySig:vector  ETV
vector 5750  Network.dyn_peer[28]  lookupTimeSig:vector  ETV
vector 5721  Network.dyn_peer[19]  lookupHopsSig:vector  ETV
vector 5722  Network.dyn_peer[19]  lookupStabilitySig:vector  ETV
vector 5723  Network.dyn_peer[19]  lookupTimeSig:vector  ETV
vector 5757  Network.dyn_peer[31]  lookupHopsSig:vector  ETV
vector 5758  Network.dyn_peer[31]  lookupStabilitySig:vector  ETV
vector 5759  Network.dyn_peer[31]  lookupTimeSig:vector  ETV
vector 5700  Network.dyn_peer[12]  lookupHopsSig:vector  ETV
vector 5701  Network.dyn_peer[12]  lookupStabilitySig:vector  ETV
vector 5702  Network.dyn_peer[12]  lookupTimeSig:vector  ETV
vector 5709  Network.dyn_peer[15]  lookupHopsSig:vector  ETV
vector 5710  Network.dyn_peer[15]  lookupStabilitySig:vector  ETV
vector 5711  Network.dyn_peer[15]  lookupTimeSig:vector  ETV
vector 5712  Network.dyn_peer[16]  lookupHopsSig:vector  ETV
vector 5713  Network.dyn_peer[16]  lookupStabilitySig:vector  ETV
vector 5714  Network.dyn_peer[16]  lookupTimeSig:vector  ETV
vector 5745  Network.dyn_peer[27]  lookupHopsSig:vector  ETV
vector 5746  Network.dyn_peer[27]  lookupStabilitySig:vector  ETV
vector 5747  Network.dyn_peer[27]  lookupTimeSig:vector  ETV
vector 5751  Network.dyn_peer[29]  lookupHopsSig:vector  ETV
vector 5752  Network.dyn_peer[29]  lookupStabilitySig:vector  ETV
vector 5753  Network.dyn_peer[29]  lookupTimeSig:vector  ETV
vector 5724  Network.dyn_peer[20]  lookupHopsSig:vector  ETV
vector 5725  Network.dyn_peer[20]  lookupStabilitySig:vector  ETV
vector 5726  Network.dyn_peer[20]  lookupTimeSig:vector  ETV
vector 5754  Network.dyn_peer[30]  lookupHopsSig:vector  ETV
vector 5755  Network.dyn_peer[30]  lookupStabilitySig:vector  ETV
vector 5756  Network.dyn_peer[30]  lookupTimeSig:vector  ETV
vector 5727  Network.dyn_peer[21]  lookupHopsSig:vector  ETV
vector 5728  Network.dyn_peer[21]  lookupStabilitySig:vector  ETV
vector 5729  Network.dyn_peer[21]  lookupTimeSig:vector  ETV
vector 5730  Network.dyn_peer[22]  lookupHopsSig:vector  ETV
vector 5731  Network.dyn_peer[22]  lookupStabilitySig:vector  ETV
vector 5732  Network.dyn_peer[22]  lookupTimeSig:vector  ETV
vector 5733  Network.dyn_peer[23]  lookupHopsSig:vector  ETV
vector 5734  Network.dyn_peer[23]  lookupStabilitySig:vector  ETV
vector 5735  Network.dyn_peer[23]  lookupTimeSig:vector  ETV
vector 5736  Network.dyn_peer[24]  lookupHopsSig:vector  ETV
vector 5737  Network.dyn_peer[24]  lookupStabilitySig:vector  ETV
vector 5738  Network.dyn_peer[24]  lookupTimeSig:vector  ETV
vector 5742  Network.dyn_peer[26]  lookupHopsSig:vector  ETV
vector 5743  Network.dyn_peer[26]  lookupStabilitySig:vector  ETV
vector 5744  Network.dyn_peer[26]  lookupTimeSig:vector  ETV
5664	6378 8528 63 136766 20.11 134.668079370072 291 0 17 1186 7392
5665	14906 9486 63 136766 20.11 134.668079370072 291 -1.125 1 142.75 110
5666	24392 9067 63 136766 20.11 134.668079370072 291 0 1.6 133.8 83.42
5667	33459 8718 71 136698 20.12 134.621144541324 297 1 17 1245 7495
5668	42177 9708 71 136698 20.12 134.621144541324 297 -1.125 0.88888888806105 141.52777777612 102.89274691064
5669	51885 9294 71 136698 20.12 134.621144541324 297 0.1 1.5 139.7 83.57
5670	61179 8610 79 135858 20.13 133.757257395506 293 0 18 1243 8543
5671	69789 9556 79 135858 20.13 133.757257395506 293 -1.25 1 137.625 115.734375
5672	79345 9172 79 135858 20.13 133.757257395506 293 0.1 1.8 140.1 94.25
5673	88517 8752 39 137230 20.04 135.639164914852 298 0 14 1251 7661
5674	97269 9746 39 137230 20.04 135.639164914852 298 -0.75 1 141.625 104.953125
5675	107015 9313 39 137230 20.04 135.639164914852 298 0 1.3 139.9 85.67
5676	116328 8002 93 137120 20.15 135.084260988604 272 0 27 1202 8654
5677	124330 8889 93 137120 20.15 135.084260988604 272 -2.375 1 121.80555555224 106.77739197163
5678	133219 8499 93 137120 20.15 135.084260988604 272 0 2.4 132.6 89.86
5679	141718 8108 233 136017 20.36 133.879947059035 276 0 17 1292 9244
5680	149826 9026 233 136017 20.36 133.879947059035 276 -1.125 1 114.69444441795 97.498456775406
5681	158852 8613 233 136017 20.36 133.879947059035 276 0 1.6 139.5 95.83
5682	167465 8430 177 136972 20.27 134.889929617346 287 0 22 1227 8321
5683	175895 9362 177 136972 20.27 134.889929617346 287 -1.75 1 133.69444441795 110.32253084065
5684	185257 8947 177 136972 20.27 134.889929617346 287 0 2 135.9 89.25
5685	194204 8506 113 137051 20.18 134.990813920629 289 0 21 1252 9232
5686	202710 9471 113 137051 20.18 134.990813920629 289 -1.625 1 132.52777777612 120.29899691064
5687	212181 9044 113 137051 20.18 134.990813920629 289 0 1.9 139.4 95.6
5688	221225 9221 248 136840 20.39 134.745095935682 314 0 19 1239 7553
5689	230446 10269 248 136840 20.39 134.745095935682 314 -1.375 1 159.2499999702 122.38117281228
5690	240715 9811 248 136840 20.39 134.745095935682 314 0 1.7 139.1 82.97
5691	250526 8338 125 136570 20.2 134.485367723113 284 0 17 1252 8554
5692	258864 9275 125 136570 20.2 134.485367723113 284 -1.125 1 127.5 104.65625
5693	268139 8860 125 136570 20.2 134.485367723113 284 0 1.6 138.4 91.12
5694	276999 8896 134 135699 20.21 133.605784422975 303 0 24 1312 8766
5695	285895 9849 134 135699 20.21 133.605784422975 303 -2 1 139 111.96875
5696	295744 9443 134 135699 20.21 133.605784422975 303 0 2.2 145.6 95.94
5697	305187 9086 213 136944 20.32 134.852644869056 310 0 19 1300 8082
5698	314273 10114 213 136944 20.32 134.852644869056 310 -1.375 1 147.54166665673 111.3350694312
5699	324387 9679 213 136944 20.32 134.852644869056 310 0.1 1.6 143.9 88.01
5700	334066 8351 285 136566 20.43 134.480047059035 284 0 22 1208 8202
5701	342417 9234 285 136566 20.43 134.480047059035 284 -1.75 1 133 110.15625
5702	351651 8880 285 136566 20.43 134.480047059035 284 0 1.9 135.2 88.84
5703	360531 9096 153 137088 20.24 135.036382003908 310 0 22 1359 9153
5704	369627 10104 153 137088 20.24 135.036382003908 310 -1.75 1 140.23611108959 113.3566743669
5705	379731 9665 153 137088 20.24 135.036382003908 310 0 2.2 147.5 96.27
5706	389396 8192 99 136437 20.15 134.343678012341 279 0 20 1181 8067
5707	397588 9100 99 136437 20.15 134.343678012341 279 -1.5 1 131.375 109.796875
5708	406688 8727 99 136437 20.15 134.343678012341 279 0 1.7 132 87.28
5709	415415 8397 300 135593 20.46 133.511846157962 285 0 22 1262 8558
5710	423812 9316 300 135593 20.46 133.511846157962 285 -1.75 1 127.38888883591 103.16859569079
5711	433128 8920 300 135593 20.46 133.511846157962 285 0 2 137.4 89.74
5712	442048 8563 311 135684 20.47 133.601467702984 291 0 18 1231 8167
5713	450611 9491 311 135684 20.47 133.601467702984 291 -1.25 1 137.125 110.859375
5714	460102 9100 311 135684 20.47 133.601467702984 291 0 1.8 136.2 88.46
5715	469202 7704 186 136867 20.28 134.775261470259 262 0 19 1166 8088
5716	476906 8527 186 136867 20.28 134.775261470259 262 -1.375 1 116.25 96.875
5717	485433 8195 186 136867 20.28 134.775261470259 262 0 1.8 128.2 85.92
5718	493628 9108 252 136540 20.39 134.45853434632 310 0 15 1227 7283
5719	502736 10105 252 136540 20.39 134.45853434632 310 -0.875 1 156.77777779102 116.95563271016
5720	512841 9675 252 136540 20.39 134.45853434632 310 0 1.5 138.1 82.29
5721	522516 9183 264 136886 20.4 134.781534794945 312 0 27 1199 7981
5722	531699 10237 264 136886 20.4 134.781534794945 312 -2.375 1 162.18055555224 137.01176697163
5723	541936 9772 264 136886 20.4 134.781534794945 312 0 2.3 134.9 85.15
5724	551708 8290 341 136712 20.51 134.626544696273 282 0 20 1237 7881
5725	559998 9202 341 136712 20.51 134.626544696273 282 -1.5 1 127.375 95.890625
5726	569200 8821 341 136712 20.51 134.626544696273 282 0 1.7 136.1 85.97
5727	578021 8932 355 137220 20.52 135.591936594533 303 0 22 1284 8676
5728	586953 9926 355 137220 20.52 135.591936594533 303 -1.75 1 142.625 117.546875
5729	596879 9507 355 137220 20.52 135.591936594533 303 0 2.1 142.9 94.37
5730	606386 9465 406 136996 20.63 134.921809731592 322 0 16 1276 7644
5731	615851 10550 406 136996 20.63 134.921809731592 322 -1 1 162.59722220898 122.47125771016
5732	626401 10070 406 136996 20.63 134.921809731592 322 0 1.5 143 84.4
5733	636471 10214 413 136257 20.64 134.154480352209 348 0 14 1214 6556
5734	646685 11337 413 136257 20.64 134.154480352209 348 -0.75 1 196.27777777612 146.97993826903
5735	658022 10863 413 136257 20.64 134.154480352209 348 0 1.3 139.9 75.87
5736	668885 8058 419 136344 20.65 134.238313400085 274 0 24 1259 9593
5737	676943 8993 419 136344 20.65 134.238313400085 274 -2 1 116.69444441795 109.19753084065
5738	685936 8566 419 136344 20.65 134.238313400085 274 0 2.2 136.4 98.42
5739	694502 8959 169 136709 20.26 134.623265685073 305 0 21 1281 8855
5740	703461 9952 169 136709 20.26 134.623265685073 305 -1.625 1 144.875 123.109375
5741	713413 9527 169 136709 20.26 134.623265685073 305 0 1.9 141.7 93.61
5742	722940 9324 432 137067 20.67 135.007066666111 318 0 16 1285 7619
5743	732264 10401 432 137067 20.67 135.007066666111 318 -1 1 157.48611108959 115.8879243669
5744	742665 9932 432 137067 20.67 135.007066666111 318 0 1.5 142.6 83.72
5745	752597 9309 318 136680 20.48 134.603517496165 316 0 15 1226 7384
5746	761906 10340 318 136680 20.48 134.603517496165 316 -0.875 1 162.97222219408 124.97839504444
5747	772246 9901 318 136680 20.48 134.603517496165 316 0 1.3 137.7 81.97
5748	782147 8119 256 135732 20.39 133.638573273478 277 0 20 1218 8232
5749	790266 9039 256 135732 20.39 133.638573273478 277 -1.5 1 124.75 101.125
5750	799305 8632 256 135732 20.39 133.638573273478 277 0.1 1.9 134.3 89.23
5751	807937 8732 333 136235 20.5 134.131251998877 297 0 16 1232 7792
5752	816669 9749 333 136235 20.5 134.131251998877 297 -1 1 143.06944444031 110.83314042695
5753	826418 9294 333 136235 20.5 134.131251998877 297 0 1.5 139.5 88.05
5754	835712 9314 345 135552 20.51 133.472610510432 317 0 16 1365 8607
5755	845026 10367 345 135552 20.51 133.472610510432 317 -1 1 146.45833332837 110.33545524066
5756	855393 9915 345 135552 20.51 133.472610510432 317 0 1.5 152.1 95.63
5757	865308 8008 279 135921 20.42 133.791223724103 272 0 21 1227 9019
5758	873316 8859 279 135921 20.42 133.791223724103 272 -1.625 1 118.625 106.171875
5759	882175 8511 279 135921 20.42 133.791223724103 272 0 1.8 133 92.02
