file 22944 1369060354                                           
version 2
run Join-56-20130520-16:32:33-32715
attr configname Join
attr datetime 20130520-16:32:33
attr experiment "\"Join\""
attr inifile omnetpp.ini
attr iterationvars $0=1024
attr iterationvars2 "$0=1024, $repetition=6"
attr measurement $0=1024
attr network Network
attr processid 32715
attr repetition 6
attr replication #6
attr resultdir results
attr runnumber 56
attr seedset 56
vector 56  Network.dyn_peer[0]  lookupHopsSig:vector  ETV
56	444 22500 3066 22446 20.3 1668.522490057991 864 1 47 12746 240204
