version 2
run Join-17-20130520-16:32:12-32715
attr configname Join
attr datetime 20130520-16:32:12
attr experiment "\"Join\""
attr inifile omnetpp.ini
attr iterationvars $0=64
attr iterationvars2 "$0=64, $repetition=7"
attr measurement $0=64
attr network Network
attr processid 32715
attr repetition 7
attr replication #7
attr resultdir results
attr runnumber 17
attr seedset 17

vector 17  Network.dyn_peer[0]  lookupHopsSig:vector  ETV
17	379	20.5	5
17	387	21.109642382296	5
17	392	21.414131882974	2
17	399	21.915654602966	4
17	405	22.124627475701	1
17	427	26.4	4
17	431	26.7	2
17	437	27.102919104865	3
17	447	27.906570341314	7
17	458	28.613172830363	6
17	464	29.021002891591	3
17	470	29.426833691816	3
17	475	29.645883662181	1
17	498	32.5	5
17	504	33	4
17	509	33.3016373231	2
17	515	33.706094777471	3
17	522	34.009184165129	2
17	528	34.40968311446	3
17	550	38.4	4
17	554	38.7	2
17	560	39.105407474455	3
17	564	39.310565299863	1
17	571	39.817677031251	4
17	578	40.1217127712	2
17	585	40.628587088608	4
17	591	41.037023649543	3
17	611	44.2	2
17	620	45	7
17	628	45.601885842042	5
17	636	46.011274704769	3
17	641	46.319094982336	2
17	662	50.3	3
17	669	50.9	5
17	678	51.600881002221	6
17	689	52.310171451663	6
17	710	56.3	3
17	718	57	6
17	726	57.606828593094	5
17	737	58.313779013814	6
17	741	58.523346114422	1
17	747	58.925701426363	3
17	756	59.63019342676	6
17	765	60.139726453693	4
17	788	64.5	5
17	792	64.8	2
17	797	65.106985890925	2
17	806	65.808557986308	6
17	814	66.214612022743	3
17	822	66.818864427357	5
17	827	67.03064831828	1
17	832	67.334352393741	2
17	853	70.3	3
17	857	70.6	2
17	866	71.301688734509	6
17	870	71.507263308905	1
17	880	72.110735773394	5
17	890	72.81731255045	6
17	911	76.3	3
17	919	77	6
17	926	77.509113352955	4
17	936	78.110758756494	5
17	942	78.519385284659	3
17	947	78.826888925091	2
17	952	79.134530901557	2
17	956	79.33508986775	1
17	968	80.136933806854	7
17	973	80.439258511111	2
17	979	80.842773070349	3
17	984	81.149274034693	2
17	992	81.749435524358	5
17	1014	84.4	4
17	1022	85.003376146655	5
17	1031	85.709700628311	6
17	1042	86.413597691195	6
17	1064	90.4	4
17	1071	91	5
17	1077	91.408575990132	3
17	1087	92.017322890283	5
17	1096	92.721580462278	6
17	1101	93.031044847787	2
17	1122	96.3	3
17	1128	96.8	4
17	1133	97.100424166023	2
17	1140	97.606429348773	4
17	1148	98.012107838186	3
17	1155	98.514179539183	4
17	1162	99.015683015797	4
17	1169	99.525244898523	4
17	1179	100.129386309813	5
17	1184	100.43925441438	2
17	1207	104.6	6
17	1212	105	3
17	1219	105.501949812283	4
17	1223	105.702785188464	1
17	1231	106.108892558367	3
17	1237	106.512031433243	3
17	1244	107.018246073106	4
17	1263	110.1	1
17	1267	110.4	2
17	1273	110.803255183966	3
17	1280	111.309007562162	4
17	1284	111.514023652035	1
17	1290	111.920161282005	3
17	1300	112.528944469512	5
17	1323	116.5	5
17	1332	117.201412974216	6
17	1341	117.909851600606	6
17	1351	118.515541648707	5
17	1373	122.4	4
17	1381	123.1	6
17	1389	123.705684852832	5
17	1397	124.111314333592	3
17	1402	124.413174745711	2
17	1409	124.921816503354	4
17	1416	125.421953662659	4
17	1426	126.025993564919	5
17	1448	130.4	4
17	1456	131.1	6
17	1464	131.705859937232	5
17	1471	132.007861039288	2
17	1476	132.311947668307	2
17	1495	136.1	1
17	1501	136.6	4
17	1509	137.208811558163	5
17	1521	138.017944587298	7
17	1528	138.526878900862	4
17	1536	139.132781104583	5
17	1542	139.536118661894	3
17	1551	140.037830605341	4
17	1571	144.2	2
17	1577	144.7	4
17	1585	145.302713210475	5
17	1596	146.011931261861	6
17	1606	146.821787745003	7
17	1613	147.329000483663	4
17	1624	148.035609493109	6
17	1633	148.742378722892	6
17	1642	149.445220107235	6
17	1653	150.155088212782	6
17	1674	154.3	3
17	1680	154.8	4
17	1686	155.200902334176	3
17	1691	155.509883608018	2
17	1702	156.211188055883	6
17	1708	156.62080332439	3
17	1728	160.2	2
17	1735	160.8	5
17	1742	161.30091366382	4
17	1746	161.506486275055	1
17	1768	164.4	4
17	1774	164.9	4
17	1779	165.201352200177	2
17	1784	165.510933048247	2
17	1796	166.313701069496	7
17	1802	166.721292574444	3
17	1806	166.921338590126	1
17	1827	170.3	3
17	1832	170.7	3
17	1838	171.109015894506	3
17	1842	171.309035276164	1
17	1847	171.614196008631	2
17	1867	174.2	2
17	1872	174.6	3
17	1878	175.008411603574	3
17	1882	175.212711123555	1
17	1889	175.715813892629	4
17	1908	178.1	1
17	1912	178.4	2
17	1918	178.806940339889	3
17	1922	179.012073056014	1
17	1926	179.212697347985	1
17	1930	179.418108929042	1
17	1937	179.924256559633	4
17	1950	180.827569926084	8
17	1978	184.4	4
17	1984	184.9	4
17	1990	185.307590592184	3
17	1994	185.516848763059	1
17	1999	185.824544210994	2
17	2019	188.2	2
17	2026	188.8	5
17	2031	189.101508206804	2
17	2036	189.40754073013	2
17	2047	190.115940248513	6
17	2058	191.022099316963	8
17	2081	194.5	5
17	2088	195.1	5
17	2093	195.403602030777	2
17	2097	195.609436782104	1
17	2119	198.4	4
17	2125	198.9	4
17	2136	199.801987425861	8
17	2144	200.202446858979	3
17	2150	200.606139392085	3
17	2156	201.009615048794	3
17	2163	201.42499922577	3
17	2176	202.329453930302	8
17	2197	206.3	3
17	2204	206.9	5
17	2212	207.508247161777	5
17	2216	207.718244995606	1
17	2225	208.220701034717	4
17	2232	208.728880285679	4
17	2240	209.330309377724	5
17	2246	209.734698959117	3
17	2256	210.339396567808	5
17	2277	214.3	3
17	2282	214.7	3
17	2289	215.208794629757	4
17	2297	215.817056546908	5
17	2310	216.724572152926	8
17	2317	217.233715882729	4
17	2324	217.734487087332	4
17	2337	218.63924699636	8
17	2342	218.944509442672	2
17	2347	219.252808911891	2
17	2355	219.859539586163	5
17	2361	220.062201689322	1
17	2368	220.567077898649	4
17	2375	221.068145629226	4
17	2400	224.8	8
17	2404	225.1	2
17	2409	225.403356486742	2
17	2420	226.10796967506	6
17	2440	230.2	2
17	2444	230.5	2
17	2451	231.006602199536	4
17	2459	231.613439435139	5
17	2467	232.023209755809	3
17	2477	232.824186764319	7
17	2499	236.4	4
17	2504	236.8	3
17	2512	237.409428522367	5
17	2518	237.817674189532	3
17	2525	238.121661355987	2
17	2531	238.53148183488	3
17	2538	239.034504215965	4
17	2543	239.342076301794	2
17	2548	239.649009473841	2
17	2571	242.5	5
17	2579	243.2	6
17	2584	243.5071100631	2
17	2589	243.809337055407	2
17	2597	244.218257073854	3
17	2603	244.624755673108	3
17	2625	248.4	4
17	2631	248.9	4
17	2636	249.205650810832	2
17	2644	249.8082649332	5
17	2652	250.209604325261	3
17	2658	250.619591939783	3
17	2663	250.926311319079	2
17	2669	251.328955476088	3
17	2681	252.13846152245	7
17	2686	252.440109039833	2
17	2692	252.843388478904	3
17	2698	253.251220458537	3
17	2721	256.5	5
17	2726	256.9	3
17	2731	257.205141423882	2
17	2739	257.808769804886	5
17	2750	258.513796318009	6
17	2757	259.01982667649	4
17	2777	262.2	2
17	2785	262.9	6
17	2795	263.709706586885	7
17	2807	264.519365455162	7
17	2813	264.833858145596	2
17	2818	265.141606861212	2
17	2822	265.349980003904	1
17	2834	266.159592777889	7
17	2841	266.660622997719	4
17	2848	267.168029709518	4
17	2870	270.4	4
17	2877	271	5
17	2885	271.601752579514	5
17	2897	272.409380491295	7
17	2903	272.818384267977	3
17	2908	273.125863340045	2
17	2916	273.732493534006	5
17	2928	274.537371403951	7
17	2935	275.039528763626	4
17	2942	275.543921791272	4
17	2966	278.6	6
17	2974	279.3	6
17	2980	279.706530874026	3
17	2987	280.015530530304	2
17	3010	284.5	5
17	3015	284.9	3
17	3022	285.4097602921	4
17	3028	285.813908102772	3
17	3035	286.116925630503	2
17	3042	286.621541433505	4
17	3046	286.828110229599	1
17	3065	290.1	1
17	3069	290.4	2
17	3073	290.609681178873	1
17	3079	291.016740725216	3
17	3086	291.520626138105	4
17	3095	292.027259041421	4
17	3101	292.432019077596	3
17	3124	296.5	5
17	3127	296.7	1
17	3137	297.509543676446	7
17	3148	298.215207517801	6
17	3153	298.521299222788	2
17	3172	302.1	1
17	3178	302.6	4
17	3184	303.008672131306	3
17	3192	303.610464189005	5
17	3200	304.014586701264	3
17	3206	304.416755177985	3
17	3211	304.725935015763	2
17	3233	308.4	4
17	3239	308.9	4
17	3246	309.401153822697	4
17	3253	309.909036920848	4
17	3260	310.218073769015	2
17	3267	310.720435403004	4
17	3272	311.030236627644	2
17	3281	311.733558863918	6
17	3290	312.238657982619	4
17	3295	312.540237430061	2
17	3299	312.744701715502	1
17	3323	316.6	6
17	3334	317.6	9
17	3345	318.302069699049	6
17	3352	318.809058308111	4
17	3375	322.5	5
17	3380	322.9	3
17	3386	323.307655564888	3
17	3390	323.515625068705	1
17	3395	323.816069941175	2
17	3402	324.121553880785	2
17	3408	324.529796976196	3
17	3413	324.83284948806	2
17	3417	325.040105706285	1
17	3437	328.2	2
17	3445	328.9	6
17	3453	329.507874584023	5
17	3458	329.811375736749	2
17	3464	330.015417559131	1
17	3485	334.3	3
17	3489	334.6	2
17	3496	335.107422814161	4
17	3503	335.610284068192	4
17	3507	335.815274728437	1
17	3516	336.318607888501	4
17	3522	336.535381326013	1
17	3546	340.6	6
17	3551	341	3
17	3559	341.602669556911	5
17	3571	342.407228548041	7
17	3580	343.107602944235	6
17	3584	343.308413538849	1
17	3588	343.512836285112	1
17	3600	344.321539303981	7
17	3610	345.124436904815	7
17	3616	345.530360327182	3
17	3621	345.838079040668	2
17	3633	346.638906136588	7
17	3656	350.6	6
17	3663	351.2	5
17	3670	351.708883164629	4
17	3680	352.318148763307	5
17	3685	352.6262421683	2
17	3691	353.029511234398	3
17	3699	353.632932718595	5
17	3707	354.041817207828	3
17	3712	354.344694120332	2
17	3718	354.750040729781	3
17	3741	358.5	5
17	3745	358.8	2
17	3751	359.207021119368	3
17	3756	359.516135615857	2
17	3765	360.024927167561	4
17	3786	364.3	3
17	3793	364.9	5
17	3800	365.403199670431	4
17	3805	365.709243647784	2
17	3815	366.220872606764	4
17	3823	366.830679378696	5
17	3843	370.2	2
17	3849	370.604124969809	3
17	3856	371.01532681448	3
17	3866	371.817645035272	7
17	3872	372.021091851412	1
17	3894	376.4	4
17	3901	377	5
17	3909	377.600457979892	5
17	3919	378.202431481144	5
17	3925	378.60958748201	3
17	3931	379.013971583681	3
17	3938	379.516682916456	4
17	3947	380.018581080688	4
17	3956	380.719891319365	6
17	3964	381.326753692686	5
17	3969	381.532752896754	1
17	3993	384.6	6
17	4000	385.2	5
17	4004	385.409767189479	1
17	4014	386.011175076117	5
17	4021	386.518462903483	4
17	4043	390.4	4
17	4049	390.9	4
17	4055	391.308132100931	3
17	4061	391.716484436322	3
17	4069	392.121222085556	3
17	4075	392.530151498258	3
17	4093	396	0
17	4103	396.9	8
17	4112	397.604958133725	6
17	4116	397.811707782526	1
17	4138	400.4	4
17	4144	400.9	4
17	4149	401.209371343788	2
17	4155	401.613689064101	3
17	4165	402.218218196436	5
17	4177	403.226352329134	9
17	4191	404.235500131296	9
17	4198	404.73622218091	4
17	4206	405.346055424685	5
17	4213	405.851259861773	4
17	4234	408.5	5
17	4238	408.8	2
17	4244	409.203947599697	3
17	4248	409.409623204361	1
17	4270	412.4	4
17	4278	413.1	6
17	4291	414.008224646947	8
17	4295	414.216566084234	1
17	4301	414.619576112429	3
17	4305	414.821227105803	1
17	4329	418.6	6
17	4333	418.9	2
17	4338	419.204835509255	2
17	4342	419.409901964461	1
17	4349	419.910180480907	4
17	4358	420.410572671914	4
17	4364	420.813535322014	3
17	4368	421.023382671976	1
17	4389	424.3	3
17	4394	424.7	3
17	4405	425.601460468964	8
17	4417	426.408527400839	7
17	4423	426.810043419057	3
17	4429	427.219483032578	3
17	4450	430.3	3
17	4453	430.5	1
17	4459	430.908070549359	3
17	4467	431.413005022764	4
17	4472	431.71852471558	2
17	4481	432.220544281535	4
17	4486	432.527374651746	2
17	4509	436.5	5
17	4513	436.8	2
17	4517	437.007015245058	1
17	4521	437.207795913502	1
17	4529	437.814823548319	5
17	4536	438.116141317899	2
17	4557	442.3	3
17	4562	442.7	3
17	4566	442.904880003912	1
17	4572	443.309002427427	3
17	4576	443.518515214036	1
17	4596	446.2	2
17	4604	446.9	6
17	4614	447.702196765318	7
17	4623	448.202998884627	4
17	4630	448.70885251827	4
17	4636	449.108875183581	3
17	4640	449.318243201255	1
17	4647	449.819115261774	4
17	4668	452.3	3
17	4672	452.6	2
17	4679	453.102548940561	4
17	4687	453.710244130305	5
17	4698	454.414990057378	6
17	4703	454.719178095311	2
17	4711	455.326274823483	5
17	4718	455.831805481747	4
17	4731	456.741785230922	8
17	4752	460.3	3
17	4758	460.8	4
17	4770	461.802606951363	9
17	4777	462.111394424998	2
17	4782	462.411903999693	2
17	4788	462.816794145506	3
17	4797	463.517821830916	6
17	4817	466.2	2
17	4824	466.8	5
17	4830	467.205056962035	3
17	4836	467.612610446488	3
17	4845	468.114170851598	4
17	4849	468.322687567106	1
17	4854	468.628367911464	2
17	4861	469.131113687924	4
17	4867	469.531549932679	3
17	4877	470.135244711057	5
17	4899	474.4	4
17	4906	475	5
17	4913	475.509673080076	4
17	4922	476.012746048888	4
17	4945	480.5	5
17	4949	480.8	2
17	4955	481.20509749952	3
17	4963	481.813245968073	5
17	4972	482.322536683475	4
17	4978	482.724937031132	3
17	4983	483.028576616193	2
17	4990	483.538075458996	4
17	5001	484.242882465461	6
17	5008	484.746202701071	4
17	5030	488.4	4
17	5036	488.804759707062	3
17	5041	489.107949781548	2
17	5046	489.417580564163	2
17	5052	489.821202737976	3
17	5061	490.330918846899	4
17	5067	490.737782539613	3
17	5074	491.149337238207	3
17	5082	491.756143915866	5
17	5102	494.2	2
17	5109	494.8	5
17	5114	495.10409767305	2
17	5121	495.510968244244	3
17	5126	495.819218611906	2
17	5132	496.024445653904	1
17	5138	496.428166980682	3
17	5148	497.237477220209	7
17	5154	497.643651691268	3
17	5159	497.95353694563	2
17	5180	500.4	4
17	5185	500.8	3
17	5192	501.309864025602	4
17	5200	501.914942154427	5
17	5208	502.32242584752	3
17	5213	502.627508553095	2
17	5234	506.3	3
17	5240	506.8	4
17	5248	507.402694393643	5
17	5258	508.005035027023	5
17	5262	508.212262460281	1
17	5268	508.618606051242	3
17	5291	512.5	5
17	5298	513.1	5
17	5302	513.302493459372	1
17	5307	513.603885820535	2
17	5312	513.906991638333	2
17	5333	516.3	3
17	5337	516.6	2
17	5341	516.804745215931	1
17	5348	517.21915713393	3
17	5353	517.526597357344	2
17	5359	517.930916955497	3
17	5380	520.3	3
17	5386	520.8	4
17	5390	521.004674399846	1
17	5395	521.308526629278	2
17	5401	521.616042818609	2
17	5405	521.822445247939	1
17	5415	522.427739550696	5
17	5434	526.1	1
17	5439	526.5	3
17	5446	527.00268313901	4
17	5453	527.509635494991	4
17	5457	527.714492365307	1
17	5468	528.421045567583	6
17	5489	532.3	3
17	5497	533	6
17	5503	533.405176220391	3
17	5514	534.021807226886	5
17	5520	534.427078168888	3
17	5528	535.032775797794	5
17	5537	535.733024750364	6
17	5549	536.53783406842	7
17	5557	537.142021652443	5
17	5562	537.444520834203	2
17	5582	540.2	2
17	5588	540.7	4
17	5592	540.901010093197	1
17	5599	541.402457162532	4
17	5606	541.912320429404	4
17	5617	542.612403361607	6
17	5638	546.3	3
17	5644	546.8	4
17	5648	547.00848607582	1
17	5656	547.614059987531	5
17	5661	547.921674016103	2
17	5668	548.230731654347	2
17	5672	548.437396810809	1
17	5676	548.643087292357	1
17	5681	548.943456597748	2
17	5686	549.24938162314	2
17	5710	552.6	6
17	5714	552.9	2
17	5718	553.100133921867	1
17	5725	553.60015515038	4
17	5735	554.20833238939	5
17	5740	554.510624690639	2
17	5752	555.513135053136	9
17	5764	556.313180776739	7
17	5770	556.718588121673	3
17	5778	557.326204645142	5
17	5800	560.4	4
17	5804	560.7	2
17	5808	560.905721229587	1
17	5813	561.207641773104	2
17	5817	561.41161084086	1
17	5823	561.81273834615	3
17	5833	562.415179076299	5
17	5838	562.718546264501	2
17	5860	566.4	4
17	5868	567.1	6
17	5874	567.501213401944	3
17	5880	567.904439196667	3
17	5901	570.3	3
17	5908	570.9	5
17	5914	571.303857720836	3
17	5918	571.508365246008	1
17	5922	571.714551232882	1
17	5929	572.023746482921	2
17	5934	572.331322097578	2
17	5943	573.031561317613	6
17	5962	576.1	1
17	5968	576.6	4
17	5974	577.006762373871	3
17	5980	577.411876098266	3
17	5990	578.019886392705	5
17	5995	578.323996436517	2
17	6015	582.2	2
17	6023	582.9	6
17	6028	583.202608823694	2
17	6035	583.705118828906	4
17	6045	584.310619362812	5
17	6065	588.2	2
17	6068	588.4	1
17	6075	588.903331523556	4
17	6082	589.409932749161	4
17	6088	589.818523965144	3
17	6094	590.019877766106	1
17	6098	590.224889164232	1
17	6117	594.1	1
17	6123	594.6	4
17	6132	595.301563992265	6
17	6138	595.70726071573	3
17	6146	596.108285875095	3
17	6154	596.711813731871	5
17	6162	597.317562508582	5
17	6174	598.124372048742	7
17	6183	598.827897718642	6
17	6189	599.232686790935	3
17	6207	602	0
17	6213	602.5	4
17	6218	602.802197414175	2
17	6225	603.307114221711	4
17	6231	603.711978446246	3
17	6240	604.221195243788	4
17	6246	604.631171990181	3
17	6267	608.3	3
17	6275	608.906277157	5
17	6280	609.215031448543	2
17	6288	609.818263402474	5
17	6295	610.121480355937	2
17	6300	610.431323410383	2
17	6305	610.733926813591	2
17	6311	611.143659553174	3
17	6330	614.1	1
17	6336	614.6	4
17	6342	615.004908028386	3
17	6347	615.305270118919	2
17	6353	615.709453179713	3
17	6361	616.110247450876	3
17	6367	616.516193283195	3
17	6389	620.4	4
17	6399	621.3	8
17	6407	621.905862854127	5
17	6416	622.408147227102	4
17	6422	622.809955532843	3
17	6445	626.5	5
17	6451	627	4
17	6458	627.505388969811	4
17	6470	628.308962480245	7
17	6474	628.515048191748	1
17	6495	632.4	4
17	6506	633.4	9
17	6510	633.603244162055	1
17	6519	634.311703512337	6
17	6526	634.813125133101	4
17	6531	635.113850239625	2
17	6538	635.616363165632	4
17	6545	636.120676599451	4
