file 25684 1369674127                                           
version 2
run Join-68-20130520-16:32:56-32715
attr configname Join
attr datetime 20130520-16:32:56
attr experiment "\"Join\""
attr inifile omnetpp.ini
attr iterationvars $0=2048
attr iterationvars2 "$0=2048, $repetition=8"
attr measurement $0=2048
attr network Network
attr processid 32715
attr repetition 8
attr replication #8
attr resultdir results
attr runnumber 68
attr seedset 68
vector 68  Network.dyn_peer[0]  lookupHopsSig:vector  ETV
68	444 25240 5857 33641 20.92209915074 2299.117087679455 942 1 70 18944 491828
