file 23693 1369674127                                           
version 2
run Join-79-20130520-16:33:53-32715
attr configname Join
attr datetime 20130520-16:33:53
attr experiment "\"Join\""
attr inifile omnetpp.ini
attr iterationvars $0=4096
attr iterationvars2 "$0=4096, $repetition=9"
attr measurement $0=4096
attr network Network
attr processid 32715
attr repetition 9
attr replication #9
attr resultdir results
attr runnumber 79
attr seedset 79
vector 79  Network.dyn_peer[0]  lookupHopsSig:vector  ETV
79	444 23249 11379 42659 22.520732312157 2586.945971130397 867 1 87 21794 737182
