version 2
run Join-34-20130520-16:32:17-32715
attr configname Join
attr datetime 20130520-16:32:17
attr experiment "\"Join\""
attr inifile omnetpp.ini
attr iterationvars $0=256
attr iterationvars2 "$0=256, $repetition=4"
attr measurement $0=256
attr network Network
attr processid 32715
attr repetition 4
attr replication #4
attr resultdir results
attr runnumber 34
attr seedset 34

vector 34  Network.dyn_peer[0]  lookupHopsSig:vector  ETV
34	961	20.720082873058	7
34	974	21.827640796295	10
34	994	24.2	2
34	1005	25.2	9
34	1010	25.500721636228	2
34	1014	25.710441913068	1
34	1022	26.116891642465	3
34	1034	27.118678445551	9
34	1055	30.3	3
34	1062	30.9	5
34	1073	31.806184553736	8
34	1087	32.81197192438	9
34	1097	33.61829915269	7
34	1101	33.81872194834	1
34	1110	34.319702077174	4
34	1136	39.1	11
34	1149	40.1	9
34	1159	40.904114187001	7
34	1170	41.804714223616	8
34	1180	42.412921551115	5
34	1189	43.117471012967	6
34	1202	44.024866982053	8
34	1210	44.632871841412	5
34	1217	45.139762231566	4
34	1222	45.440263436993	2
34	1253	49.3	13
34	1258	49.7	3
34	1267	50.208190015156	4
34	1274	50.709259300273	4
34	1293	52.212375877447	14
34	1306	53.315890030195	10
34	1312	53.721503402804	3
34	1329	55.031123846332	12
34	1334	55.33528457653	2
34	1351	56.638511338161	12
34	1377	60.8	8
34	1384	61.4	5
34	1397	62.303832379686	8
34	1404	62.81191841154	4
34	1415	63.713390791249	8
34	1427	64.517297828528	7
34	1432	64.822370093655	2
34	1439	65.322532822116	4
34	1444	65.630390256607	2
34	1459	66.738655681848	10
34	1492	71.5	15
34	1500	72	4
34	1507	72.507164224274	4
34	1518	73.416026545299	8
34	1528	74.024354306447	5
34	1540	75.03153914942	9
34	1549	75.732722242863	6
34	1561	76.533691891387	7
34	1593	81.4	14
34	1608	82.6	11
34	1615	83.108845531509	4
34	1621	83.508927780035	3
34	1631	84.114127875772	5
34	1644	85.221609469769	10
34	1661	86.529368365479	12
34	1666	86.733439267074	1
34	1687	90.3	3
34	1691	90.6	2
34	1695	90.805812355882	1
34	1714	92.306081455751	14
34	1720	92.706299477192	3
34	1728	93.310279479599	5
34	1734	93.715030229412	3
34	1741	94.021951284167	2
34	1752	94.928356003051	8
34	1759	95.433022362247	4
34	1791	99.6	16
34	1795	99.9	2
34	1804	100.405781516437	4
34	1813	101.106105553083	6
34	1826	102.013754687103	8
34	1833	102.516672911842	4
34	1843	103.317167808544	7
34	1855	104.117234410485	7
34	1862	104.620686501965	4
34	1872	105.428353578489	7
34	1879	105.935036226488	4
34	1905	108.8	8
34	1914	109.6	7
34	1935	111.30086341121	16
34	1946	112.001114041758	6
34	1955	112.706004072515	6
34	1962	113.215415875426	4
34	1969	113.715644066886	4
34	1990	116.3	3
34	1996	116.8	4
34	2002	117.204223944449	3
34	2010	117.806726341952	5
34	2020	118.414294418102	5
34	2028	119.021766491998	5
34	2037	119.730429100366	6
34	2067	123.5	15
34	2079	124.4	8
34	2089	125.209674665452	7
34	2096	125.719603802451	4
34	2107	126.423827666492	6
34	2116	127.127440736606	6
34	2124	127.732173158878	5
34	2135	128.43706127359	6
34	2150	129.742417529334	12
34	2179	133.1	11
34	2185	133.6	4
34	2196	134.30369891979	6
34	2209	135.411076377876	10
34	2215	135.820907432226	3
34	2235	138.2	2
34	2240	138.6	3
34	2245	138.905482079987	2
34	2252	139.408029782878	4
34	2264	140.215939487883	7
34	2270	140.621212818045	3
34	2279	141.322711460173	6
34	2297	144.3	3
34	2309	145.4	10
34	2324	146.500107066526	10
34	2334	147.307537931915	7
34	2341	147.811761216056	4
34	2354	148.720751043924	8
34	2360	149.126719389113	3
34	2388	153	10
34	2403	154.2	11
34	2417	155.40522935695	11
34	2427	156.011614184921	5
34	2451	158.016370296842	19
34	2463	159.024239331645	9
34	2468	159.329074742654	2
34	2492	162.6	6
34	2497	163	3
34	2507	163.802223586072	7
34	2517	164.406223901887	5
34	2529	165.41060021175	9
34	2544	166.512249397839	10
34	2551	167.0220801263	4
34	2558	167.528142616318	4
34	2567	168.036694556132	4
34	2589	172.4	4
34	2596	173	5
34	2605	173.702499566406	6
34	2613	174.108037952605	3
34	2622	174.81675222044	6
34	2630	175.330101481874	4
34	2638	175.935306696919	5
34	2648	176.544058726461	5
34	2655	177.045376705383	4
34	2681	181	10
34	2687	181.5	4
34	2691	181.70028829422	1
34	2713	183.50881391252	17
34	2726	184.41879829851	8
34	2736	185.220787880781	7
34	2744	185.824209206133	5
34	2751	186.125968073104	2
34	2755	186.332544890824	1
34	2774	190.1	1
34	2787	191.3	11
34	2795	191.903280372291	5
34	2805	192.508006430882	5
34	2812	193.012414041833	4
34	2828	194.213825500969	11
34	2835	194.722151574255	4
34	2841	195.122989648974	3
34	2856	196.225547674144	10
34	2862	196.630986372506	3
34	2866	196.83359874398	1
34	2873	197.342876083848	4
34	2877	197.54612549693	1
34	2887	198.15579181874	5
34	2891	198.359244196061	1
34	2912	202.4	4
34	2925	203.6	11
34	2937	204.403677503743	7
34	2949	205.410047129689	9
34	2961	206.218943907861	7
34	2966	206.520022533997	2
34	2971	206.820882993184	2
34	2981	207.621765756664	7
34	2995	208.631157621528	9
34	3002	209.135645865892	4
34	3036	213.6	16
34	3045	214.2	5
34	3062	215.705088786538	14
34	3070	216.11460868728	3
34	3074	216.314999861213	1
34	3080	216.718848626193	3
34	3086	217.125323625501	3
34	3095	217.827547798348	6
34	3102	218.133733786484	2
34	3112	218.93564724174	7
34	3134	222.4	4
34	3143	223.2	7
34	3148	223.505598100405	2
34	3153	223.809763258746	2
34	3162	224.314169976098	4
34	3193	229.3	13
34	3204	230.1	7
34	3220	231.503918938522	13
34	3230	232.108878731759	5
34	3237	232.616072916254	4
34	3251	233.818016217058	11
34	3265	234.821765875949	9
34	3281	236.028633070697	11
34	3288	236.537842913807	4
34	3318	241.2	12
34	3325	241.8	5
34	3336	242.504572099798	6
34	3356	244.109078436115	15
34	3367	245.012784365534	8
34	3373	245.416407044022	3
34	3380	245.916684034536	4
34	3389	246.425383812297	4
34	3402	247.528971409262	10
34	3413	248.234496387769	6
34	3441	253.1	11
34	3449	253.8	6
34	3455	254.00789313974	1
34	3468	255.109480308509	10
34	3474	255.519316016361	3
34	3493	257.020480688318	14
34	3503	257.8270123055	7
34	3520	259.128660493765	12
34	3530	259.937839444383	7
34	3542	260.740549887366	7
34	3548	261.148082392579	3
34	3562	262.154193606828	9
34	3585	266.6	6
34	3589	266.9	2
34	3598	267.602185921638	6
34	3610	268.403226618491	7
34	3625	269.704697210487	12
34	3633	270.10561522099	3
34	3650	271.607560031137	14
34	3659	272.113249195711	4
34	3672	273.215811327494	10
34	3681	273.916214421711	6
34	3709	277	10
34	3725	278.3	12
34	3740	279.605477300612	12
34	3751	280.309676494833	6
34	3774	282.212543814659	18
34	3825	286.3	3
34	3832	286.9	5
34	3847	288.001036380736	10
34	3855	288.604588726213	5
34	3869	289.807942528513	11
34	3884	290.909379696503	10
34	3893	291.611950868393	6
34	3905	292.421712598886	7
34	3935	297.2	12
34	3941	297.7	4
34	3951	298.309871649001	5
34	3958	298.810463404428	4
34	3965	299.316852442373	4
34	3969	299.522376813089	1
34	3980	300.223352396585	6
34	3986	300.633311293187	3
34	3995	301.339823073636	6
34	4001	301.747097814635	3
34	4011	302.347153829161	5
34	4031	306.2	2
34	4044	307.4	11
34	4051	307.902002433259	4
34	4061	308.504819559911	5
34	4069	309.112131782816	5
34	4077	309.717014628845	5
34	4084	310.021228444828	2
34	4092	310.622410657292	5
34	4100	311.231164892597	5
34	4107	311.731630233774	4
34	4116	312.239589002759	4
34	4143	317	10
34	4151	317.7	6
34	4166	318.801827720166	10
34	4172	319.209543814221	3
34	4179	319.71301556898	4
34	4189	320.319736827904	5
34	4199	321.128309244079	7
34	4231	325.4	14
34	4245	326.5	10
34	4261	327.90763383452	13
34	4277	329.114222865164	11
34	4293	330.322440423384	11
34	4304	331.224100230502	8
34	4317	332.128011492002	8
34	4328	333.029327169247	8
34	4339	333.933532961879	8
34	4402	337.5	15
34	4410	338	4
34	4419	338.700428132778	6
34	4429	339.502313366816	7
34	4442	340.410644969639	8
34	4452	341.211324061105	7
34	4459	341.711710697117	4
34	4470	342.41470985617	6
34	4476	342.815134273306	3
34	4486	343.61940546387	7
34	4495	344.120080364883	4
34	4504	344.820432551802	6
34	4529	348.9	9
34	4543	350	10
34	4552	350.708624515449	6
34	4563	351.61530915989	8
34	4580	352.921310880826	12
34	4589	353.631288743439	6
34	4604	354.732114322547	10
34	4615	355.636196652281	8
34	4627	356.444745831445	7
34	4636	357.150566296178	6
34	4644	357.759342860103	5
34	4717	361.9	19
34	4722	362.1	1
34	4729	362.608183688225	4
34	4736	363.113212676974	4
34	4744	363.71439512546	5
34	4759	364.82427324682	10
34	4790	369.3	13
34	4795	369.7	3
34	4809	370.704147371563	9
34	4816	371.207912038312	4
34	4820	371.413737396801	1
34	4827	371.916884719119	4
34	4837	372.522310551425	5
34	4844	373.028171487067	4
34	4851	373.537617374589	4
34	4870	375.046118059177	14
34	4898	379	10
34	4904	379.5	4
34	4921	380.801370290848	12
34	4928	381.304065475083	4
34	4943	382.411944185657	10
34	4952	383.118770885524	6
34	4957	383.42424543289	2
34	4986	387.1	11
34	4994	387.8	6
34	5009	388.90190771318	10
34	5024	390.01146676355	10
34	5037	391.112217515804	10
34	5052	392.218910258029	10
34	5063	393.123351228957	8
34	5071	393.731804414876	5
34	5079	394.132495063808	3
34	5084	394.432802562948	2
34	5153	399.2	12
34	5170	399.9	6
34	5196	400.805503689718	8
34	5214	401.615378663073	7
34	5238	402.523546205571	8
34	5258	403.326804372098	7
34	5292	404.53481100324	11
34	5320	408.5	5
34	5331	409.5	9
34	5337	409.903949001764	3
34	5346	410.407807012712	4
34	5353	410.917137881824	4
34	5362	411.621432871172	6
34	5370	412.024252602456	3
34	5381	412.930377280542	8
34	5391	413.731376930873	7
34	5399	414.132785464624	3
34	5412	415.238900664528	10
34	5441	419.1	11
34	5456	420.3	11
34	5462	420.708876193205	3
34	5466	420.917387526847	1
34	5473	421.419907051726	4
34	5491	422.820941517274	13
34	5500	423.523179562494	6
34	5505	423.83011470019	2
34	5516	424.533390477054	6
34	5546	429.2	12
34	5560	430.3	10
34	5574	431.503657815989	11
34	5587	432.406877198509	8
34	5601	433.616739094507	11
34	5612	434.324264525289	6
34	5622	435.129531914659	7
34	5627	435.437168559538	2
34	5639	436.24239436403	7
34	5647	436.850820731274	5
34	5656	437.552622495668	6
34	5683	441.1	11
34	5691	441.8	6
34	5697	442.00905143785	1
34	5706	442.712643641381	6
34	5717	443.617841465413	8
34	5729	444.42424567288	7
34	5739	445.225498118593	7
34	5760	448.6	6
34	5785	450.8	21
34	5798	451.905866594589	10
34	5812	452.906303320112	9
34	5822	453.716129622959	7
34	5837	454.816429585596	10
34	5854	456.12252194161	12
34	5862	456.730361406506	5
34	5873	457.632349605721	8
34	5888	458.73835874913	10
34	5894	459.139634637769	3
34	5926	463.4	14
34	5935	464	5
34	5947	465.009933288132	9
34	5963	466.21004599658	11
34	5977	467.413935155749	11
34	5987	468.02224834201	5
34	6000	469.130378251877	10
34	6005	469.437350428195	2
34	6019	470.440549841124	9
34	6043	474.6	6
34	6048	475	3
34	6053	475.216712596092	1
34	6059	475.617789049976	3
34	6064	475.925850398173	2
34	6076	476.729977114769	7
34	6085	477.431477016604	6
34	6089	477.63555184252	1
34	6094	477.937288561823	2
34	6105	478.6451797079	6
34	6131	483	10
34	6141	483.9	8
34	6150	484.408228558434	4
34	6156	484.817553549897	3
34	6173	486.124297863423	12
34	6182	486.827477131144	6
34	6190	487.429909505006	5
34	6203	488.335388393348	8
34	6211	488.937756795645	5
34	6220	489.646455850684	6
34	6246	492.8	8
34	6258	493.9	10
34	6267	494.40152580009	4
34	6279	495.410047827725	9
34	6313	499.6	16
34	6325	500.5	8
34	6336	501.404863254807	8
34	6349	502.312958519698	8
34	6360	503.216928052442	8
34	6374	504.226235762281	9
34	6383	504.928344942648	6
34	6394	505.836897123709	8
34	6401	506.140508192218	2
34	6411	506.945109363257	7
34	6417	507.347762616898	3
34	6428	508.053868950889	6
34	6450	512.6	6
34	6455	513	3
34	6470	514.103521604344	10
34	6488	515.712434706896	15
34	6511	517.617804268129	18
34	6554	522.3	23
34	6559	522.7	3
34	6567	523.304217545867	5
34	6572	523.604960402892	2
34	6583	524.310624577225	6
34	6601	525.918367333003	15
34	6608	526.225358766401	2
34	6644	531.8	18
34	6653	532.4	5
34	6668	533.70915433268	12
34	6677	534.213499490445	4
34	6690	535.318137794044	10
34	6695	535.627787763872	2
34	6705	536.23653793446	5
34	6721	537.645827751774	13
34	6746	540.7	7
34	6753	541.3	5
34	6767	542.306112897193	9
34	6771	542.514641744726	1
34	6784	543.616948008098	10
34	6793	544.120598221557	4
34	6802	544.828120111467	6
34	6814	545.835743141297	9
34	6822	546.243795388887	3
34	6829	546.753461471932	4
34	6847	550	0
34	6859	551.1	10
34	6874	552.20326736177	10
34	6882	552.810894974024	5
34	6894	553.817899570365	9
34	6909	554.919686316524	10
34	6921	555.928407490406	9
34	6940	557.435825661824	14
34	6955	558.537435340481	10
34	6967	559.537841527199	9
34	7011	564.5	25
34	7018	565.1	5
34	7031	566.007195392104	8
34	7040	566.707366853255	6
34	7044	566.911137791263	1
34	7060	568.120649081795	11
34	7068	568.724597070562	5
34	7083	572	0
34	7090	572.6	5
34	7099	573.308512356907	6
34	7111	574.111947511822	7
34	7117	574.512276739525	3
34	7129	575.52130212419	9
34	7135	575.922529570928	3
34	7158	578.5	5
34	7165	579.1	5
34	7173	579.705896916913	5
34	7184	580.408959264459	6
34	7192	581.016420788971	5
34	7203	581.925942062673	8
34	7213	582.531345474359	5
34	7219	582.937066226554	3
34	7227	583.540314164912	5
34	7243	584.742756689128	11
34	7272	589.1	11
34	7278	589.6	4
34	7290	590.403384718419	7
34	7296	590.811259782457	3
34	7308	591.812418049465	9
34	7317	592.321879510141	4
34	7335	593.929313102361	15
34	7345	594.537611318869	5
34	7352	595.045407924298	4
34	7375	598.5	5
34	7384	599.3	7
34	7399	600.403681473988	10
34	7410	601.306800634553	8
34	7416	601.712884473136	3
34	7425	602.120815784626	3
34	7454	607.1	11
34	7462	607.8	6
34	7471	608.302031971481	4
34	7489	609.906624462599	15
34	7499	610.515514249365	5
34	7508	611.221811213988	6
34	7515	611.723263858383	4
34	7522	612.032560460086	2
34	7529	612.536292609153	4
34	7536	613.042240908106	4
34	7550	614.050619979824	9
34	7571	618.3	3
34	7579	619	6
34	7590	619.904498187692	8
34	7601	620.60968221072	6
34	7606	620.915556822508	2
34	7612	621.322815388979	3
34	7618	621.724804526709	3
34	7629	622.429169994398	6
34	7638	623.134045957381	6
34	7643	623.43766513743	2
34	7676	627.5	15
34	7684	628	4
34	7701	629.50794061307	14
34	7707	629.915140597458	3
34	7716	630.424941792435	4
34	7723	630.930265454198	4
34	7732	631.639383533689	6
34	7741	632.141293541068	4
34	7749	632.742302805735	5
34	7775	636.8	8
34	7786	637.8	9
34	7800	638.809039370105	9
34	7810	639.618706066749	7
34	7821	640.328582074368	6
34	7832	641.234397287814	8
34	7846	642.238056933607	9
34	7866	646.5	5
34	7872	647	4
34	7880	647.602628697911	5
34	7890	648.206648930364	5
34	7899	648.909631545729	6
34	7906	649.419264528093	4
34	7916	650.024782799042	5
34	7923	650.526284533086	4
34	7930	650.933592093392	3
34	7955	654.9	9
34	7961	655.4	4
34	7976	656.503294462766	10
34	7991	657.803774697563	12
34	8001	658.408738841967	5
34	8008	658.917197567206	4
34	8016	659.525412685747	5
34	8022	659.928178974638	3
34	8053	663.3	13
34	8071	664.8	14
34	8079	665.40784957722	5
34	8084	665.707911388826	2
34	8094	666.314587582364	5
34	8103	667.01663309406	6
34	8107	667.220034534991	1
34	8150	672.3	23
34	8155	672.7	3
34	8162	673.209600147854	4
34	8174	674.014234557829	7
34	8184	674.818207049045	7
34	8190	675.226745838226	3
34	8197	675.729890317652	4
34	8221	678.9	9
34	8228	679.5	5
34	8240	680.306588516801	7
34	8246	680.713047043687	3
34	8267	684.3	3
34	8272	684.7	3
34	8277	685.009065264184	2
34	8284	685.512223694571	4
34	8288	685.721878169977	1
34	8301	686.628610752531	8
34	8311	687.436896530616	7
34	8338	690.9	9
34	8345	691.5	5
34	8360	692.603102978204	10
34	8369	693.309518446895	6
34	8375	693.714091273439	3
34	8390	694.818508492356	10
34	8397	695.320705176162	4
34	8413	696.529626966785	11
34	8421	697.137551931075	5
34	8435	698.143640545529	9
34	8462	702.9	9
34	8469	703.5	5
34	8479	704.102118744303	5
34	8495	705.511548190275	13
34	8507	706.314820849988	7
34	8516	707.023103538664	6
34	8525	707.728609731335	6
34	8579	710.8	8
34	8594	712	11
34	8603	712.700025315487	6
34	8609	713.100812920187	3
34	8614	713.40816791925	2
34	8658	718.4	24
34	8662	718.7	2
34	8669	719.201203000631	4
34	8682	720.101455784034	8
34	8693	721.003818250025	8
34	8700	721.512118830807	4
34	8713	722.416466194249	8
34	8724	723.317863403525	8
34	8737	724.21965921806	8
34	8762	728.9	9
34	8768	729.4	4
34	8774	729.809327827661	3
34	8782	730.213142468555	3
34	8793	731.12009131361	8
34	8799	731.527307148843	3
34	8828	735.1	11
34	8836	735.8	6
34	8844	736.205135414716	3
34	8852	736.814285658271	5
34	8861	737.517867145243	6
34	8872	738.223787331334	6
34	8883	739.12415335724	8
34	8893	739.932427113008	7
34	8908	741.037173771889	10
34	8913	741.337429034121	2
34	8920	741.843813992517	4
34	8929	742.348863966501	4
34	8937	742.949121114049	5
34	8941	743.15135334922	1
34	8964	746.5	5
34	8974	747.4	8
34	8987	748.305387890669	8
34	8993	748.706609477481	3
34	9000	749.216323401058	4
34	9013	750.019029932318	7
34	9019	750.423369204364	3
34	9030	751.323761413571	8
34	9037	751.831843148431	4
34	9057	753.431856273557	15
34	9080	756.5	5
34	9091	757.5	9
34	9114	759.400460783559	18
34	9128	760.400866947082	9
34	9143	761.704874141783	12
34	9152	762.210976747887	4
34	9161	762.91295295685	6
34	9176	764.022214603183	10
34	9185	764.722711011859	6
34	9194	765.431401513557	6
34	9204	766.04052478913	5
34	9235	771.3	13
34	9241	771.8	4
34	9251	772.409506281118	5
34	9259	773.0109409921	5
34	9268	773.711106979585	6
34	9277	774.220384143512	4
34	9285	774.824224895683	5
34	9317	779.7	17
34	9330	780.7	9
34	9337	781.205624382027	4
34	9345	781.808994028138	5
34	9359	782.817558377765	9
34	9364	783.119563387814	2
34	9378	784.128922752954	9
34	9392	785.330113265218	11
34	9404	786.134942195317	7
34	9415	787.042420624095	8
34	9425	787.847145459417	7
34	9433	788.250399271906	3
34	9455	792.4	4
34	9464	793.2	7
34	9488	795.20634921299	19
34	9506	796.612161018524	13
34	9518	797.622067321784	9
34	9531	798.526891565002	8
34	9538	799.030717098543	4
34	9543	799.339268606167	2
34	9557	800.343381749393	9
34	9578	804.3	3
34	9581	804.5	1
34	9586	804.809353730543	2
34	9597	805.713919212612	8
34	9610	806.614427415138	8
34	9618	807.130026263454	4
34	9622	807.336263756571	1
34	9628	807.741242157978	3
34	9640	808.544841786309	7
34	9644	808.74551492772	1
34	9653	809.449588919041	6
34	9660	809.954617024714	4
34	9668	810.355025557056	3
34	9674	810.760417662686	3
34	9682	811.363147462538	5
34	9713	815.3	13
34	9725	816.2	8
34	9733	816.805901515204	5
34	9740	817.30985575314	4
34	9754	818.313754891479	9
34	9766	819.321597253752	9
34	9778	820.131158525661	7
34	9801	822.035478989322	18
34	9839	827.1	11
34	9848	827.9	7
34	9856	828.306985683424	3
34	9862	828.716926106029	3
34	9874	829.721101725584	9
34	9886	830.525578163408	7
34	9897	831.435057815718	8
34	9903	831.841950902842	3
34	9962	835	10
34	9975	835.4	3
34	9981	835.606285801122	1
34	10009	836.915976421623	12
34	10018	837.624732255781	6
34	10033	838.734282873639	10
34	10043	839.543424543333	7
34	10053	840.149925283516	5
34	10067	841.35157278996	11
34	10078	842.05233818531	6
34	10090	843.055889921988	9
34	10101	843.958454808174	8
34	10114	844.866897833531	8
34	10151	849.9	19
34	10160	850.5	5
34	10176	851.909539404325	13
34	10186	852.515056463337	5
34	10197	853.421009859781	8
34	10203	853.829027149007	3
34	10212	854.330314969162	4
34	10217	854.633521603017	2
34	10222	854.938614325094	2
34	10227	855.248087283558	2
34	10232	855.549950972275	2
34	10249	856.854793207832	12
34	10254	857.155420459872	2
34	10260	857.563275865774	3
34	10281	860.3	3
34	10292	861.3	9
34	10304	862.101307707841	7
34	10309	862.401661015239	2
34	10315	862.80928022437	3
34	10322	863.309387965346	4
34	10340	864.713150919253	13
34	10348	865.314769439216	5
34	10389	870.1	21
34	10396	870.7	5
34	10408	871.704149748859	9
34	10417	872.208860742015	4
34	10431	873.41799167312	11
34	10461	877.2	12
34	10473	878.1	8
34	10484	879.00195217719	8
34	10495	879.903332946532	8
34	10501	880.105861172732	1
34	10515	881.307462094952	11
34	10521	881.716788272207	3
34	10530	882.221305272771	4
34	10554	886.6	6
34	10558	886.9	2
34	10565	887.40971164056	4
34	10578	888.314584696426	8
34	10588	889.123389067256	7
34	10594	889.529146825808	3
34	10606	890.330277053594	7
34	10613	890.832620164427	4
34	10636	894.5	5
34	10641	894.9	3
34	10647	895.304973549926	3
34	10652	895.610799704621	2
34	10657	895.91359464356	2
34	10670	896.814399466042	8
34	10687	898.117442325973	12
34	10692	898.426551771927	2
34	10699	898.927092363836	4
34	10707	899.529824340189	5
34	10732	902.7	7
34	10740	903.4	6
34	10750	904.005660781746	5
34	10762	905.01327100712	9
34	10778	906.219352293739	11
34	10801	910.5	5
34	10812	911.5	9
34	10823	912.206582963676	6
34	10833	913.01437192727	7
34	10847	914.017641011044	9
34	10854	914.525629826498	4
34	10862	915.131859966316	5
34	10872	915.937566974956	7
34	10883	916.638522246676	6
34	10892	917.340053171415	6
34	10898	917.749143832977	3
34	10928	921.2	12
34	10934	921.7	4
34	10944	922.303878242431	5
34	10953	923.011039057766	6
34	10961	923.615721062476	5
34	10971	924.216777629447	5
34	10978	924.724702224556	4
34	10999	928.6	6
34	11012	929.8	11
34	11024	930.604699318173	7
34	11035	931.50770379508	8
34	11046	932.212436533051	6
34	11069	936.5	5
34	11078	937.3	7
34	11090	938.101739832912	7
34	11100	938.910364005958	7
34	11111	939.816049837769	8
34	11125	940.817043610111	9
34	11132	941.325768915811	4
34	11140	941.926025672012	5
34	11150	942.528983775039	5
34	11158	943.131674529478	5
34	11166	943.733409390613	5
34	11185	945.23790472738	14
34	11192	945.739080314869	4
34	11217	948.7	7
34	11226	949.5	7
34	11239	950.407467051516	8
34	11245	950.814191558216	3
34	11252	951.319381826721	4
34	11257	951.624019060121	2
34	11267	952.231410018841	5
34	11294	957.2	12
34	11300	957.7	4
34	11320	959.305079199278	15
34	11328	959.905853678874	5
34	11343	961.007378395575	10
34	11354	961.817080130185	7
34	11361	962.127040585357	2
34	11382	966.4	4
34	11389	967	5
34	11393	967.208491156408	1
34	11399	967.611807344077	3
34	11406	968.11351150323	4
34	11412	968.520205220014	3
34	11422	969.320416874887	7
34	11429	969.823310819355	4
34	11434	970.130736506276	2
34	11450	971.534823616631	13
