file 25052 1369060421                                           
version 2
run Join-76-20130520-16:33:36-32715
attr configname Join
attr datetime 20130520-16:33:36
attr experiment "\"Join\""
attr inifile omnetpp.ini
attr iterationvars $0=4096
attr iterationvars2 "$0=4096, $repetition=6"
attr measurement $0=4096
attr network Network
attr processid 32715
attr repetition 6
attr replication #6
attr resultdir results
attr runnumber 76
attr seedset 76
vector 76  Network.dyn_peer[0]  lookupHopsSig:vector  ETV
76	444 24608 11412 47527 24.316979691424 3105.936984601521 911 1 96 27009 1054789
