version 2
run Join-62-20130520-16:32:42-32715
attr configname Join
attr datetime 20130520-16:32:42
attr experiment "\"Join\""
attr inifile omnetpp.ini
attr iterationvars $0=2048
attr iterationvars2 "$0=2048, $repetition=2"
attr measurement $0=2048
attr network Network
attr processid 32715
attr repetition 2
attr replication #2
attr resultdir results
attr runnumber 62
attr seedset 62

vector 62  Network.dyn_peer[0]  lookupHopsSig:vector  ETV
62	5886	20.13600584259	11
62	5946	25.545692579983	53
62	6021	28.5	5
62	6047	29.4	8
62	6095	31.800280337512	23
62	6105	32.408551919457	5
62	6121	33.817365678985	13
62	6129	34.227286097929	3
62	6134	34.529701595055	2
62	6147	35.630232039564	10
62	6158	36.335101762786	6
62	6185	41	10
62	6214	43.6	25
62	6224	44.2087248928	5
62	6228	44.40957227612	1
62	6235	44.911082509545	4
62	6256	46.612621109369	16
62	6282	48.815150651139	21
62	6289	49.318150977456	4
62	6319	51.923196833192	25
62	6352	54.630606300807	26
62	6360	55.232198729144	5
62	6373	56.141874485517	8
62	6418	62.5	25
62	6428	63.4	8
62	6457	65.901784950229	24
62	6490	68.604453213468	26
62	6504	69.812325735901	11
62	6535	72.314715769906	24
62	6568	75.224653520188	28
62	6593	77.327796535608	20
62	6616	79.227995551582	18
62	6656	82.628939006982	33
62	6682	84.837851041065	21
62	6716	87.847003931455	29
62	6777	91.1	11
62	6812	92.7	15
62	6855	94.508545441804	17
62	6875	95.314287469542	7
62	6901	96.415477624867	10
62	6985	100.221461475152	37
62	7004	101.624660782346	13
62	7034	104.02950563756	23
62	7052	105.63090392898	15
62	7124	111.3	33
62	7131	111.9	5
62	7148	113.209358921656	12
62	7162	114.217736215325	9
62	7173	115.125866427392	8
62	7189	116.327102039822	11
62	7204	117.633247621643	12
62	7241	122	20
62	7266	124.2	21
62	7293	126.509970886954	22
62	7321	128.916830997553	23
62	7350	131.424811029017	24
62	7376	133.630470058251	21
62	7396	135.235223891834	15
62	7436	140.3	23
62	7467	143.1	27
62	7482	144.206315347941	10
62	7514	147.007999116955	27
62	7534	148.611036806199	15
62	7555	150.31670924507	16
62	7573	151.923418616658	15
62	7594	153.624868650339	16
62	7608	154.633720191435	9
62	7623	155.938656241814	12
62	7668	159.844700030828	38
62	7733	165.548320944832	56
62	7767	169.6	16
62	7802	172.6	29
62	7814	173.600436499735	9
62	7849	176.508107847924	28
62	7873	178.516342325358	19
62	7882	179.226194050496	6
62	7905	181.130458443525	18
62	7914	181.837625792463	6
62	7961	186.9	29
62	7986	189.1	21
62	7995	189.808430651153	6
62	8028	192.513178806904	26
62	8051	194.416253343797	18
62	8075	196.417290756732	19
62	8098	198.320511313776	18
62	8111	199.425194249319	10
62	8129	200.826720433841	13
62	8145	202.031172632601	11
62	8171	207	10
62	8192	208.8	17
62	8242	213.201591186237	43
62	8249	213.709753271795	4
62	8280	217.3	13
62	8303	219.3	19
62	8339	222.309846069794	29
62	8368	224.815109475219	24
62	8393	226.915576414006	20
62	8419	229.121073371673	21
62	8450	231.829624139727	26
62	8492	235.431023228429	35
62	8534	239.033494802552	35
62	8558	241.043268213613	19
62	8566	241.651860642196	5
62	8601	244.555874527977	28
62	8629	246.963670087726	23
62	8653	248.967001368814	19
62	8692	252.273953535329	32
62	8764	261	50
62	8771	261.6	5
62	8783	262.404343779126	7
62	8793	263.214267381112	7
62	8813	264.823254278771	15
62	8852	268.127287422235	32
62	8871	269.835407521305	16
62	8910	273.136585627376	32
62	8945	276.044438736933	28
62	8971	278.246125786971	21
62	9007	281.452638211162	31
62	9054	286.7	27
62	9063	287.5	7
62	9075	288.301081335765	7
62	9099	290.304143892022	19
62	9131	293.106447699866	27
62	9141	293.916032128138	7
62	9185	298.4	24
62	9200	299.8	13
62	9220	301.408239130368	15
62	9244	303.415821878555	19
62	9261	304.724509832646	12
62	9280	306.230338313357	14
62	9303	308.138660647918	18
62	9312	308.844939593684	6
62	9332	310.448230945537	15
62	9362	313.056941598336	25
62	9377	314.159978208317	10
62	9390	315.262099402794	10
62	9411	316.963320120615	16
62	9487	321.8	18
62	9526	323.6	17
62	9541	324.309908558451	6
62	9567	326.513638481471	21
62	9575	327.117445614229	5
62	9583	327.719979482526	5
62	9592	328.220455982747	4
62	9600	328.829525505526	5
62	9608	329.4364463497	5
62	9618	330.044092979165	5
62	9643	334.8	8
62	9666	336.8	19
62	9690	338.803055277029	19
62	9715	340.910220633917	20
62	9739	342.919337440486	19
62	9764	345.02385431026	20
62	9787	346.923968166994	18
62	9793	347.32742879784	3
62	9819	349.531031191211	21
62	9840	351.23748937471	16
62	9870	355.2	12
62	9892	357.1	18
62	9905	358.001620019306	8
62	9938	360.903079581819	28
62	9954	362.10521778338	11
62	9967	363.208166153778	10
62	9976	363.917716282082	6
62	9991	365.018407601499	10
62	10007	366.218484963259	11
62	10020	367.320540378562	10
62	10047	371.1	11
62	10078	373.9	27
62	10102	375.900006897626	19
62	10132	378.304691640478	23
62	10156	380.312012864753	19
62	10170	381.515623334749	11
62	10184	382.522542043538	9
62	10203	384.032165935174	14
62	10222	385.739836820968	16
62	10246	387.748563833749	19
62	10316	393.956594854609	61
62	10400	396.8	8
62	10461	398.9	20
62	10537	402.209080191792	32
62	10553	402.914405326987	6
62	10619	405.817621459869	28
62	10657	408.721746725541	28
62	10706	413.030418934888	42
62	10722	414.237665367984	11
62	10746	416.239628543584	19
62	10841	422.5	25
62	10902	425.3	27
62	10922	426.102054133492	7
62	10959	428.910141368005	27
62	10971	429.914298414187	9
62	11005	432.717824374841	27
62	11019	433.92769097426	11
62	11041	436.4	4
62	11054	437.6	11
62	11074	439.206139283005	15
62	11110	442.208012690012	29
62	11143	445.111341228542	28
62	11183	448.521252422885	33
62	11215	451.322991423125	27
62	11249	454.124975614233	27
62	11286	457.42635831274	32
62	11312	459.635120027977	21
62	11337	461.736502440924	20
62	11388	464.6	6
62	11449	467.3	26
62	11485	468.802546235055	14
62	11531	470.810388523868	19
62	11546	471.51816862157	6
62	11578	475.4	14
62	11615	478.6	31
62	11640	480.709467512932	20
62	11666	482.910692821866	21
62	11693	485.218764307216	22
62	11730	488.319291022903	30
62	11806	497.4	54
62	11838	500.1	26
62	11869	502.807676773373	26
62	11900	505.515667390705	26
62	11906	505.924520769454	3
62	11937	508.429480821492	24
62	11965	510.835103202782	23
62	11970	511.137577226034	2
62	11994	513.145202003794	19
62	12026	515.954680485997	27
62	12073	520.7	27
62	12081	521.4	6
62	12101	523.002902401878	15
62	12108	523.504418524074	4
62	12120	524.311303281754	7
62	12153	527.214329215814	28
62	12174	528.915726736848	16
62	12186	529.923415604702	9
62	12242	534.723775167088	47
62	12265	538.5	5
62	12277	539.6	10
62	12301	541.602139981612	19
62	12324	543.50902147655	18
62	12342	544.917250350102	13
62	12368	547.124965552488	21
62	12382	548.126755918707	9
62	12399	549.63165833119	14
62	12420	551.341461354223	16
62	12443	553.245404125197	18
62	12492	557.545595020287	42
62	12513	559.248217557164	16
62	12538	562.7	7
62	12560	564.6	18
62	12592	567.40107968341	27
62	12627	570.306174837964	28
62	12653	572.508557722257	21
62	12673	574.114315633131	15
62	12693	575.921547691903	17
62	12713	577.52625823938	15
62	12736	579.431830709254	18
62	12752	580.633872357188	11
62	12797	584.5	5
62	12841	588.4	38
62	12866	590.505866943837	20
62	12876	591.312191110646	7
62	12905	595.1	11
62	12932	597.5	23
62	12968	600.505374136546	29
62	12981	601.606414152791	10
62	12998	602.907532880562	12
62	13015	604.211037900123	12
62	13030	605.515349479679	12
62	13059	609.4	14
62	13076	610.8	13
62	13106	613.408547996953	25
62	13123	614.715045421875	12
62	13145	616.518894394235	17
62	13167	618.320403313235	17
62	13198	621.02422800263	26
62	13218	622.627455262575	15
62	13248	625.230006594178	25
62	13270	627.032060658505	17
62	13286	628.234806945868	11
62	13300	629.43700806884	11
62	13393	634.5	25
62	13448	637	24
62	13526	640.500034464367	34
62	13574	642.607405436266	20
62	13628	645.410346654533	27
62	13668	648.813096067153	33
62	13684	650.02077686076	11
62	13833	659.1	51
62	13862	660.3	11
62	13880	661.104056104361	7
62	13926	663.111161248723	19
62	13938	663.61705448941	4
62	13971	665.026875589745	13
62	13991	665.933432138519	8
62	14061	669.035101789896	30
62	14156	674.1	21
62	14190	676.3	21
62	14215	678.400285379344	20
62	14230	679.705105462362	12
62	14243	680.609549171134	8
62	14269	682.81497943739	21
62	14277	683.420374960289	5
62	14287	684.029183443765	5
62	14307	685.830867813368	17
62	14337	688.232071082502	23
62	14404	694.139955434862	58
62	14412	694.743641545972	5
62	14475	702.2	42
62	14513	705.7	34
62	14523	706.308962240798	5
62	14532	707.009749499705	6
62	14549	708.313536787648	12
62	14588	711.814198729375	34
62	14599	712.523196532826	6
62	14651	719.5	35
62	14683	722.2	26
62	14691	722.807391051077	5
62	14716	724.912124100567	20
62	14742	727.119320221887	21
62	14766	729.122442706014	19
62	14783	730.42505654098	12
62	14826	736.3	23
62	14870	740.2	38
62	14904	743.205785823208	29
62	14923	744.712768418038	14
62	14951	747.119846381809	23
62	14965	748.124456783943	9
62	14992	750.424788417853	22
62	15039	754.533230064163	40
62	15070	759.5	15
62	15103	762.3	27
62	15146	766.008449499916	36
62	15179	768.915817968562	28
62	15198	770.418875212029	14
62	15231	773.320250259651	28
62	15264	776.026382446705	26
62	15303	779.52902466318	34
62	15338	782.431544247878	28
62	15370	787.6	16
62	15403	790.4	27
62	15446	794.105290403424	36
62	15482	797.311234953452	31
62	15538	802.119549171612	47
62	15555	803.627682327092	14
62	15570	804.731436003797	10
62	15579	805.437489035803	6
62	15591	806.242191861691	7
62	15600	806.950118395504	6
62	15646	810.956751437885	39
62	15700	817.4	34
62	15713	818.4	9
62	15742	820.900364307945	24
62	15772	823.50157269906	25
62	15808	826.50836360865	29
62	15837	829.016693931326	24
62	15853	830.225068181168	11
62	15881	832.626903854184	23
62	16020	840.8	48
62	16091	844	31
62	16139	846.007727335509	19
62	16160	846.912659050117	8
62	16188	848.414087151393	14
62	16205	849.917059585125	14
62	16225	851.518145709481	15
62	16244	853.018871255108	14
62	16313	857.4	14
62	16352	859.1	16
62	16422	862.101888230866	29
62	16462	863.803584995189	16
62	16520	866.307053500233	24
62	16559	868.011600338596	16
62	16571	869.020009809565	9
62	16602	871.726880343959	26
62	16634	874.33240718818	25
62	16667	877.23827480313	28
62	16695	879.638387529098	23
62	16718	881.544433539034	18
62	16754	884.551011566577	29
62	16805	891.2	32
62	16817	892.1	8
62	16826	892.804383919613	6
62	16838	893.811538389813	9
62	16847	894.314465937024	4
62	16858	895.220028596835	8
62	16875	896.524802423066	12
62	16899	898.527205737524	19
62	16947	904.8	28
62	16992	908.8	39
62	17005	909.901856807568	10
62	17020	911.008100619441	10
62	17037	912.30889731038	12
62	17052	913.610911821046	12
62	17084	916.213272817347	25
62	17108	918.21460874045	19
62	17120	919.219868030673	9
62	17146	922.8	8
62	17165	924.4	15
62	17189	926.407368039214	19
62	17202	927.515326612603	10
62	17221	929.020582787573	14
62	17243	930.824476620682	17
62	17249	931.232083214709	3
62	17271	933.034279942767	17
62	17296	935.139232430163	20
62	17318	936.947563015074	17
62	17336	938.355015367276	13
62	17358	940.164341093375	17
62	17393	943.26522894464	30
62	17410	944.57090689704	12
62	17429	946.071294403769	14
62	17469	952.1	21
62	17496	954.5	23
62	17517	956.207950298341	16
62	17545	958.60809279164	23
62	17551	959.012932421929	3
62	17558	959.522658697602	4
62	17564	959.922968239509	3
62	17585	961.6292810931	16
62	17594	962.13212421805	4
62	17609	963.440767370784	12
62	17657	968.8	28
62	17677	970.5	16
62	17696	972.00255016807	14
62	17743	976.112094882898	40
62	17763	977.919288856141	17
62	17786	979.82463153699	18
62	17837	984.129827874659	42
62	17862	986.239671975893	20
62	17900	989.645375956468	33
62	17927	991.946636059674	22
62	17970	996.3	23
62	18022	1001	46
62	18064	1004.606504223113	35
62	18090	1006.815351139953	21
62	18115	1008.91619281689	20
62	18153	1012.12390922585	31
62	18168	1013.429138265964	12
62	18227	1017	10
62	18286	1019.7	26
62	18348	1024.007510038402	42
62	18378	1026.611859036003	25
62	18406	1029.01881194068	23
62	18431	1031.123803244115	20
62	18457	1033.329266523649	21
62	18481	1035.336202940444	19
62	18500	1036.840989326705	14
62	18647	1042.7	27
62	18709	1044.6	18
62	18739	1045.704343174744	10
62	18768	1046.912926798494	11
62	18779	1047.813675432478	8
62	18795	1049.016086031785	11
62	18810	1050.119801709584	10
62	18849	1056.2	22
62	18916	1062.2	59
62	18939	1064.100964486647	18
62	18976	1067.407114262184	32
62	19011	1070.308744038391	28
62	19019	1070.918154268452	5
62	19041	1072.721193307017	17
62	19070	1075.230508083506	24
62	19077	1075.733063278401	4
62	19087	1076.338148487247	5
62	19097	1077.145741257972	7
62	19166	1081.3	13
62	19213	1083.4	20
62	19241	1084.600382000906	11
62	19255	1085.80803754344	11
62	19268	1086.709158444815	8
62	19292	1088.716746750956	19
62	19306	1089.926358991314	11
62	19327	1091.627489772895	16
62	19372	1096.5	25
62	19401	1099.1	25
62	19418	1100.405401890026	12
62	19441	1102.307672521678	18
62	19458	1103.809285268929	14
62	19470	1104.618196981073	7
62	19494	1106.622073391509	19
62	19523	1109.128067594986	24
62	19547	1111.128256519879	19
62	19571	1113.137838170318	19
62	19598	1115.441839721169	22
62	19608	1116.048424021761	5
62	19622	1117.256925285042	11
62	19637	1118.363203905227	10
62	19680	1124.4	24
62	19704	1126.5	20
62	19713	1127.207783778533	6
62	19743	1129.808450750121	25
62	19756	1130.715389464624	8
62	19789	1133.622395755958	28
62	19823	1136.428783094139	27
62	19844	1138.132011248428	16
62	19902	1145.8	38
62	19945	1149.6	37
62	19980	1152.509447659766	28
62	20001	1154.213479845984	16
62	20018	1155.71700091712	14
62	20058	1159.123612676675	33
62	20097	1162.432874028377	32
62	20135	1165.8408515713	33
62	20166	1168.349333458553	24
62	20205	1171.850176788697	34
62	20238	1174.553247456343	26
62	20280	1180.3	23
62	20294	1181.6	12
62	20310	1182.80936193569	11
62	20332	1184.610868946452	17
62	20350	1186.012564038984	13
62	20393	1189.921191104653	38
62	20410	1191.22470301558	12
62	20427	1192.529617509261	12
62	20447	1194.136754289023	15
62	20479	1196.943447812204	27
62	20507	1201	10
62	20530	1203	19
62	20545	1204.104647967298	10
62	20564	1205.80529870046	16
62	20581	1207.114846125302	12
62	20630	1211.414855017725	42
62	20642	1212.22053117908	7
62	20652	1213.029821635667	7
62	20684	1215.835153521004	27
62	20695	1216.537853898683	6
62	20704	1217.244226211963	6
62	20721	1218.551303224602	12
62	20744	1220.454105700362	18
62	20849	1227	30
62	20888	1228.8	17
62	20924	1230.200061963228	13
62	20934	1230.603416098374	3
62	20962	1231.909349479928	12
62	20988	1233.513753314305	15
62	21012	1235.520664132151	19
62	21034	1237.327991853609	17
62	21055	1239.028790287076	16
62	21061	1239.430928346285	3
62	21084	1242.5	5
62	21089	1242.9	3
62	21117	1245.302896808732	23
62	21153	1248.308091437552	29
62	21181	1250.709541411093	23
62	21209	1253.110732318761	23
62	21233	1255.114551107044	19
62	21239	1255.518832629813	3
62	21249	1256.121555003636	5
62	21257	1256.725105969082	5
62	21278	1258.425570274345	16
62	21289	1259.335262583874	8
62	21322	1262.043907368267	26
62	21366	1268.5	25
62	21400	1271.6	30
62	21418	1273.005940187387	13
62	21435	1274.311764992843	12
62	21474	1277.812117035928	34
62	21496	1279.620151659265	17
62	21537	1283.127766687735	34
62	21561	1285.132576985058	19
62	21714	1290.9	29
62	21781	1292.9	19
62	21872	1295.608823781136	26
62	21951	1298.214285484458	25
62	21992	1300.222468243773	19
62	22017	1302.324200616549	20
62	22027	1303.131447019872	7
62	22036	1303.833773738543	6
62	22043	1304.140463039552	2
62	22069	1306.345785327116	21
62	22087	1307.946625383391	15
62	22096	1308.453680722217	4
62	22106	1309.254300952769	7
62	22118	1310.05978742516	7
62	22146	1312.46365736953	23
62	22249	1318.8	28
62	22284	1320.4	15
62	22304	1321.606689026518	11
62	22324	1323.212893089555	15
62	22349	1325.319658018376	20
62	22376	1327.628093216826	22
62	22388	1328.431584208972	7
62	22403	1329.73999018872	12
62	22410	1330.048335263138	2
62	22422	1331.056981253449	9
62	22450	1333.466640918959	23
62	22500	1337.87100522514	43
62	22549	1340.5	5
62	22576	1341.8	12
62	22597	1342.609890416162	7
62	22625	1343.814904309622	11
62	22699	1347.121934664737	32
62	22755	1349.628711409858	24
62	22800	1351.629509617374	19
62	22837	1353.238096786378	15
62	22868	1355.94446131914	26
62	22903	1358.853031851228	28
62	22935	1361.657280693822	27
62	22952	1362.96353349375	12
62	22985	1365.869988235602	28
62	23088	1371.1	31
62	23139	1373.4	22
62	23183	1375.304424941292	18
62	23215	1376.610684915926	12
62	23252	1378.7155785719	20
62	23284	1381.5209054961	27
62	23310	1383.728484400861	21
62	23349	1387.029869155358	32
62	23393	1392.6	26
62	23415	1394.5	18
62	23428	1395.608082245131	10
62	23446	1397.016213366302	13
62	23460	1398.022362229445	9
62	23503	1401.924589326736	38
62	23516	1402.830383893645	8
62	23523	1403.331337880208	4
62	23536	1404.237762667953	8
62	23545	1404.938219563336	6
62	23570	1407.039221363467	20
62	23604	1411.6	16
62	23623	1413.2	15
62	23637	1414.201660835039	9
62	23647	1415.010234438524	7
62	23730	1422.318700465435	72
62	23747	1423.819988903585	14
62	23780	1426.525582240014	26
62	23818	1429.928330127563	33
62	23853	1432.83001391321	28
62	23874	1434.539655484445	16
62	23902	1439	10
62	23937	1442	29
62	24010	1448.500438993689	64
62	24030	1450.104935688361	15
62	24059	1452.610012929663	24
62	24107	1456.81812308384	41
62	24134	1460.9	9
62	24141	1461.5	5
62	24161	1463.104617921395	15
62	24192	1465.806932518842	26
62	24214	1467.611811630638	17
62	24240	1469.813089616229	21
62	24294	1474.419323866875	45
62	24373	1483.7	57
62	24389	1485	12
62	24396	1485.508934190405	4
62	24420	1487.513355338626	19
62	24448	1489.922638310849	23
62	24467	1491.428828437487	14
62	24493	1493.638545180447	21
62	24557	1500.5	45
62	24575	1502	14
62	24596	1503.901204204466	18
62	24619	1505.810460589784	18
62	24635	1507.014740252522	11
62	24658	1508.922791264731	18
62	24678	1510.5250353685	15
62	24724	1516.9	29
62	24809	1524.5	75
62	24830	1526.201155896901	16
62	24836	1526.604803758537	3
62	24866	1531.2	12
62	24894	1533.7	24
62	24923	1536.006307389782	22
62	24949	1538.213441283366	21
62	24971	1540.022183217546	17
62	24984	1541.129493646582	10
62	25003	1542.632304592726	14
62	25027	1544.632967814954	19
62	25046	1546.140125792137	14
62	25064	1547.745561859957	15
62	25090	1549.951574316192	21
62	25119	1552.254040819969	22
62	25159	1558.2	22
62	25170	1559.2	9
62	25213	1562.902009204113	36
62	25228	1564.00254701648	10
62	25238	1564.807539933259	7
62	25254	1566.013457328544	11
62	25262	1566.619914883626	5
62	25275	1567.728197619553	10
62	25311	1570.729128784699	29
62	25352	1574.233620440204	34
62	25365	1575.342032718913	10
62	25380	1576.444879247353	10
62	25394	1577.647059857323	11
62	25406	1578.451417247123	7
62	25430	1580.454900703766	19
62	25473	1584.160614293714	36
62	25554	1589.9	19
62	25569	1590.5	5
62	25623	1594.608810980899	40
62	25646	1596.509321895986	18
62	25675	1599.014332767277	24
62	25684	1599.72106534151	6
62	25697	1600.625946781035	8
62	25705	1601.227778969125	5
62	25720	1602.336285913074	10
62	25749	1607.3	13
62	25765	1608.6	12
62	25786	1610.300482249909	16
62	25812	1612.501436835352	21
62	25821	1613.211291567794	6
62	25845	1615.216774465613	19
62	25863	1616.620203229749	13
62	25868	1616.920250679789	2
62	25887	1618.42326733209	14
62	25921	1621.431537027054	29
62	25953	1625.4	14
62	25972	1627	15
62	25994	1628.801924187017	17
62	26028	1631.803741116672	29
62	26050	1633.60644026257	17
62	26059	1634.109366108571	4
62	26077	1635.717613295873	15
62	26122	1640.8	28
62	26144	1642.7	18
62	26173	1645.200346875861	24
62	26186	1646.106565464455	8
62	26209	1648.012121818041	18
62	26218	1648.719966724623	6
62	26223	1649.023468750697	2
62	26234	1649.92631712232	8
62	26243	1650.43346023532	4
62	26252	1651.136984481919	6
62	26335	1656.7	27
62	26370	1659.9	31
62	26388	1661.30775173491	13
62	26422	1664.113356778983	27
62	26461	1667.621083715029	34
62	26483	1669.427562247593	17
62	26510	1671.732626560266	22
62	26530	1673.334360368317	15
62	26607	1677.8	18
62	26683	1682.8	49
62	26699	1684.004196944264	11
62	26720	1685.911398685208	18
62	26813	1690.6	26
62	26840	1691.9	12
62	26862	1692.804741728962	8
62	26884	1694.610951047821	17
62	26895	1695.51435993357	8
62	26911	1696.72419606028	11
62	26924	1697.826016664708	10
62	26969	1702.8	28
62	26998	1705.4	25
62	27024	1707.609797232458	21
62	27060	1710.619110954496	29
62	27084	1712.628219047399	19
62	27099	1713.931313431864	12
62	27133	1716.73309088768	27
62	27170	1721.9	19
62	27186	1723.2	12
62	27205	1724.701896637394	14
62	27223	1726.102156837657	13
62	27249	1728.308034510877	21
62	27270	1732.3	3
62	27284	1733.6	12
62	27305	1735.30585030124	16
62	27349	1739.115471040363	37
62	27356	1739.623330134557	4
62	27380	1741.625118829941	19
62	27414	1744.427070802601	27
62	27442	1746.83060264368	23
62	27460	1748.234834547461	13
62	27483	1750.141857606341	18
62	27515	1755.6	16
62	27540	1757.8	21
62	27564	1759.804387741903	19
62	27592	1762.009087953061	21
62	27638	1766.011589599022	39
62	27654	1767.414824069275	13
62	27677	1769.317302364716	18
62	27701	1772.6	6
62	27721	1774.3	16
62	27744	1776.206254140057	18
62	27788	1780.008482049279	37
62	27825	1783.311942853631	32
62	27848	1785.215531359383	18
62	27885	1788.322288498038	30
62	27911	1793.1	11
62	27927	1794.4	12
62	27936	1795.102580857365	6
62	27963	1797.408003352612	22
62	27982	1798.916524554699	14
62	27998	1800.122104644059	11
62	28018	1801.923187935446	17
62	28040	1803.726822315168	17
62	28057	1805.035685948012	12
62	28075	1806.439894016147	13
62	28137	1811.3	13
62	28159	1812.2	8
62	28217	1814.805365329324	25
62	28237	1815.606868824425	7
62	28253	1816.20694705848	5
62	28267	1816.812214078888	5
62	28284	1817.521032392725	6
62	28335	1820.5	5
62	28364	1821.8	12
62	28374	1822.108099671823	2
62	28380	1822.315780688982	1
62	28450	1825.516766172823	31
62	28458	1825.817440882433	2
62	28480	1826.726673544892	8
62	28502	1827.632548982675	8
62	28564	1830.236735209661	25
62	28632	1833.239629815189	29
62	28708	1839.7	37
62	28742	1842.6	28
62	28774	1845.406664869117	27
62	28798	1847.416661171843	19
62	28819	1849.125066202836	16
62	28837	1850.526656140872	13
62	28868	1853.226956964797	26
62	28887	1854.729283532736	14
62	28918	1857.435684155042	26
62	28936	1858.844793243627	13
62	28974	1862.045029324123	31
62	29008	1865.05084828535	29
62	29053	1870.5	25
62	29080	1872.9	23
62	29118	1876.10475176471	31
62	29151	1879.013610314933	28
62	29184	1881.915595627281	28
62	29203	1883.422965549068	14
62	29238	1886.326832809704	28
62	29269	1889.035314698523	26
62	29307	1892.242346540953	31
62	29339	1895.04984562041	27
62	29372	1897.949922814881	28
62	29407	1900.855174751958	28
62	29436	1905.3	13
62	29472	1908.4	30
62	29482	1909.207012703984	7
62	29494	1910.013204675886	7
62	29506	1911.018464487605	9
62	29528	1912.82667775179	17
62	29551	1914.734366057305	18
62	29578	1919.2	12
62	29608	1921.9	26
62	29630	1923.707937667523	17
62	29666	1926.716279522526	29
62	29697	1929.420654915301	26
62	29721	1931.422688857831	19
62	29732	1932.125911317914	6
62	29771	1935.635574570511	34
62	29792	1937.342507473787	16
62	29841	1942.9	29
62	29860	1944.5	15
62	29880	1946.103160591996	15
62	29894	1947.30428011601	11
62	29920	1949.50895966973	21
62	29963	1953.213870132794	36
62	29975	1954.014117378506	7
62	30003	1956.423897455758	23
62	30033	1959.024382874152	25
62	30138	1965.1	31
62	30189	1967.5	23
62	30225	1969.104810287992	15
62	30250	1970.208180482001	10
62	30267	1971.713302587824	14
62	30311	1975.521008137095	37
62	30327	1976.721049451807	11
62	30352	1978.82195828757	20
62	30378	1981.023395332328	21
62	30405	1983.325832002888	22
62	30424	1984.828721329764	14
62	30446	1986.631158899407	17
62	30504	1993.8	38
62	30531	1996	21
62	30584	2000.700851368301	46
62	30625	2004.203711742071	34
62	30659	2007.205855952335	29
62	30689	2009.807044366694	25
62	30759	2013.6	16
62	30791	2015.7	20
62	30810	2017.202394050362	14
62	30835	2019.307708522726	20
62	30859	2021.309798005406	19
62	30874	2022.419505627845	10
62	30887	2023.527653074479	10
62	30906	2025.034652419335	14
62	30921	2026.134832477874	10
62	30962	2029.841587889273	36
62	30972	2030.449500667966	5
62	31006	2033.458370025477	29
62	31048	2038.2	22
62	31054	2038.7	4
62	31065	2039.608095193435	8
62	31077	2040.408349638273	7
62	31085	2041.012104513106	5
62	31104	2042.519618526137	14
62	31131	2044.82951834651	22
62	31155	2046.831855938633	19
62	31173	2048.241008531291	13
62	31223	2052.644753420062	43
62	31248	2054.7524064838	20
62	31254	2055.155677570779	3
62	31284	2059.2	12
62	31297	2060.2	9
62	31324	2062.502000475898	22
62	31366	2066.102970591752	35
62	31403	2069.409443891147	32
62	31428	2071.517616161136	20
62	31481	2074.7	7
62	31505	2076.7	19
62	31517	2077.701145619575	9
62	31542	2079.807816934862	20
62	31574	2082.410740457982	25
62	31602	2084.820433857333	23
62	31630	2087.227442617329	23
62	31659	2091.4	14
62	31676	2092.8	13
62	31694	2094.204566319368	13
62	31704	2095.004631490946	7
62	31723	2096.513214183027	14
62	31739	2097.913302702022	13
62	31763	2099.913827754578	19
62	31793	2102.316432691556	23
62	31821	2104.725724207465	23
62	31840	2106.230743153225	14
62	31857	2107.734806280189	14
62	31872	2108.840551537945	10
62	31882	2109.650041014157	7
62	31901	2111.151963960652	14
62	31918	2112.454130145756	12
62	31977	2117.1	11
62	32010	2118.6	14
62	32047	2120.308328312316	16
62	32099	2122.814508802801	24
62	32128	2124.717805752394	18
62	32154	2127.124756750567	23
62	32170	2128.531705074804	13
62	32192	2130.536926193179	19
62	32215	2132.637608000163	20
