file 25151 1369060392                                           
version 2
run Join-71-20130520-16:33:06-32715
attr configname Join
attr datetime 20130520-16:33:06
attr experiment "\"Join\""
attr inifile omnetpp.ini
attr iterationvars $0=4096
attr iterationvars2 "$0=4096, $repetition=1"
attr measurement $0=4096
attr network Network
attr processid 32715
attr repetition 1
attr replication #1
attr resultdir results
attr runnumber 71
attr seedset 71
vector 71  Network.dyn_peer[0]  lookupHopsSig:vector  ETV
71	444 24707 11396 45395 20.422830224279 2765.124790366904 916 1 102 23537 818349
