file 21431 1369060337                                           
version 2
run Join-33-20130520-16:32:17-32715
attr configname Join
attr datetime 20130520-16:32:17
attr experiment "\"Join\""
attr inifile omnetpp.ini
attr iterationvars $0=256
attr iterationvars2 "$0=256, $repetition=3"
attr measurement $0=256
attr network Network
attr processid 32715
attr repetition 3
attr replication #3
attr resultdir results
attr runnumber 33
attr seedset 33
vector 33  Network.dyn_peer[0]  lookupHopsSig:vector  ETV
33	441 20990 993 11941 20.226541098099 1018.243896335304 850 0 22 6201 56895
