version 2
run Join-43-20130520-16:32:21-32715
attr configname Join
attr datetime 20130520-16:32:21
attr experiment "\"Join\""
attr inifile omnetpp.ini
attr iterationvars $0=512
attr iterationvars2 "$0=512, $repetition=3"
attr measurement $0=512
attr network Network
attr processid 32715
attr repetition 3
attr replication #3
attr resultdir results
attr runnumber 43
attr seedset 43

vector 43  Network.dyn_peer[0]  lookupHopsSig:vector  ETV
43	1686	22.4	4
43	1707	24.2	17
43	1718	25.103354127202	8
43	1727	25.807106187604	6
43	1750	27.716898272803	18
43	1761	28.418263064852	6
43	1771	29.2201778902	7
43	1799	33.3	13
43	1811	34.2	8
43	1826	35.505449010047	12
43	1836	36.109789497535	5
43	1848	37.11715449507	9
43	1852	37.320973623	1
43	1867	38.428982036419	10
43	1896	43.4	14
43	1913	44.8	13
43	1920	45.302323723128	4
43	1929	45.920022276578	5
43	1946	47.22821547526	12
43	1952	47.633965213867	3
43	1977	49.735182946489	20
43	2002	51.841706477798	20
43	2014	52.646805897728	7
43	2026	53.655083410155	9
43	2042	54.766667791114	10
43	2051	55.476654240715	6
43	2067	56.679382212401	11
43	2080	57.782779302877	10
43	2096	58.990143855822	11
43	2106	59.792504499771	7
43	2122	61.000034104296	11
43	2156	65.7	17
43	2166	66.4	6
43	2178	67.400746579703	9
43	2188	68.002517758875	5
43	2202	69.210076410213	11
43	2219	70.517873998492	12
43	2229	71.326581202238	7
43	2240	72.032761219048	6
43	2256	73.441197434321	13
43	2268	74.249550313099	7
43	2282	75.454937696409	11
43	2299	76.763803470308	12
43	2313	77.97285874513	11
43	2342	81.3	13
43	2357	82.5	11
43	2369	83.50176410116	9
43	2383	84.508497427233	9
43	2395	85.515167164857	9
43	2410	86.62420328344	10
43	2420	87.429131606025	7
43	2437	88.736885444942	12
43	2459	90.544692021967	17
43	2473	91.753494441213	11
43	2492	93.263049014449	14
43	2508	94.469040706388	11
43	2528	96.069285576997	15
43	2562	101.6	16
43	2571	102.2	5
43	2594	104.102265874699	18
43	2607	105.209801312854	10
43	2621	106.209910774311	9
43	2633	107.215016085308	9
43	2647	108.215161791115	9
43	2672	113	10
43	2680	113.7	6
43	2694	114.708290738831	9
43	2718	116.714540243562	19
43	2741	118.616533362421	18
43	2756	119.922117537535	12
43	2785	123.1	11
43	2798	124.1	9
43	2813	125.408386503802	12
43	2820	125.912639936524	4
43	2829	126.412960232667	4
43	2834	126.717759893902	2
43	2851	128.024147501829	12
43	2859	128.632841282597	5
43	2872	129.739307774434	10
43	2906	133.8	18
43	2914	134.3	4
43	2923	135.009829042002	6
43	2932	135.717400143206	6
43	2946	136.721990619449	9
43	2964	138.125129751281	13
43	2976	139.132525939282	9
43	2998	142.7	7
43	3021	144.7	19
43	3038	146.002415536229	12
43	3059	147.903134693574	18
43	3072	148.809144884693	8
43	3089	150.112970553716	12
43	3113	154.6	6
43	3120	155.2	5
43	3132	156.000804648119	7
43	3147	157.303954722405	12
43	3154	157.806936526271	4
43	3167	158.716078033557	8
43	3180	159.824766699576	10
43	3196	161.027495249896	11
43	3219	164.5	5
43	3231	165.6	10
43	3246	166.703097012434	10
43	3259	167.80726678363	10
43	3266	168.107424630405	2
43	3279	169.213654232051	10
43	3312	173.5	15
43	3326	174.6	10
43	3337	175.501575561452	8
43	3351	176.505778738823	9
43	3365	177.707188483257	11
43	3369	177.915943677012	1
43	3383	178.918215013932	9
43	3398	180.02612110711	10
43	3446	185.5	15
43	3461	186.7	11
43	3480	188.201041292918	14
43	3496	189.610409741263	13
43	3517	191.313862072197	16
43	3587	194.8	8
43	3598	195.5	6
43	3613	196.605402436268	10
43	3631	198.014869156959	13
43	3645	199.219110935388	11
43	3654	199.831443022579	5
43	3681	202.9	9
43	3691	203.8	8
43	3704	204.705227746879	8
43	3715	205.612244713845	8
43	3727	206.413176875224	7
43	3741	207.613625095714	11
43	3756	208.715325271847	10
43	3785	213.4	14
43	3791	213.9	4
43	3805	214.907290966699	9
43	3826	216.610416849776	16
43	3845	218.119495204879	14
43	3855	218.924568493665	7
43	3865	219.733098763135	7
43	3878	220.641963963749	8
43	3896	222.045845561121	13
43	3905	222.751484354625	6
43	3974	227.4	14
43	3983	227.8	3
43	3997	228.303118607555	4
43	4025	229.507496935775	11
43	4040	230.009375422281	4
43	4053	230.514684612029	4
43	4074	231.422157324978	8
43	4112	235	10
43	4126	236.1	10
43	4137	237.002320013733	8
43	4147	237.803220608122	7
43	4160	238.707637832687	8
43	4171	239.613538989176	8
43	4193	241.420234311935	17
43	4198	241.723259314847	2
43	4205	242.023516609325	2
43	4211	242.428242833228	3
43	4224	243.528688757696	10
43	4257	247.5	15
43	4269	248.4	8
43	4275	248.809801729714	3
43	4287	249.815381275929	9
43	4301	250.821990351	9
43	4310	251.522792715055	6
43	4340	255.2	12
43	4354	256.3	10
43	4359	256.603221204797	2
43	4374	257.908632171383	12
43	4396	259.714478407305	17
43	4418	261.518353522208	17
43	4431	262.419809746774	8
43	4440	263.125374464259	6
43	4448	263.733454692202	5
43	4463	264.83930439205	10
43	4476	265.945040490989	10
43	4484	266.3472993126	3
43	4520	271.9	19
43	4533	272.9	9
43	4544	273.807771268319	8
43	4560	275.017511193675	11
43	4577	276.318548397128	12
43	4592	277.625819058941	12
43	4607	278.727075475157	10
43	4631	280.728613312952	19
43	4643	281.728669607895	9
43	4672	285.3	13
43	4684	286.2	8
43	4701	287.705096894793	14
43	4714	288.608637977926	8
43	4723	289.309617326086	6
43	4731	289.911857820494	5
43	4742	290.615269263392	6
43	4757	291.91924298058	12
43	4803	296.6	26
43	4806	296.8	1
43	4810	297.004148467553	1
43	4829	298.511055440948	14
43	4849	300.115183143556	15
43	4861	301.12002036691	9
43	4880	302.622673800688	14
43	4926	308.6	26
43	4937	309.6	9
43	4947	310.208891012286	5
43	4952	310.512104768884	2
43	4960	311.119112193636	5
43	4973	312.021089901568	8
43	4983	312.822240442053	7
43	4988	313.123384051885	2
43	4993	313.428211765059	2
43	5013	315.031006309536	15
43	5031	316.440678491724	13
43	5039	317.047428177763	5
43	5050	317.949343246508	8
43	5130	320.8	8
43	5147	321.5	6
43	5171	322.500458854783	9
43	5204	324.107217663691	15
43	5210	324.508490206165	3
43	5214	324.717112771585	1
43	5231	326.026165035786	12
43	5243	327.028115637081	9
43	5275	331.4	14
43	5292	332.8	13
43	5323	335.50380504271	26
43	5341	336.910250179003	13
43	5360	338.417541913698	14
43	5376	339.827445156879	13
43	5386	340.427563090724	5
43	5406	342.028948172253	15
43	5419	343.137290631776	10
43	5448	347.3	13
43	5466	348.8	14
43	5482	350.001370109505	11
43	5497	351.308785681558	12
43	5514	352.617344656883	12
43	5529	353.919679758581	12
43	5548	355.427405335178	14
43	5565	356.735550564321	12
43	5608	362.5	25
43	5612	362.8	2
43	5619	363.309657978641	4
43	5623	363.516386055205	1
43	5648	365.624281168644	20
43	5662	366.626834860242	9
43	5684	368.436318821828	17
43	5694	369.246229823068	7
43	5699	369.547862614848	2
43	5704	369.857425350677	2
43	5711	370.164998017328	2
43	5717	370.572757050266	3
43	5721	370.781374563848	1
43	5729	371.385442686009	5
43	5752	374.6	6
43	5761	375.4	7
43	5777	376.604419877652	11
43	5787	377.406549716016	7
43	5797	378.014597604031	5
43	5814	379.515250392163	14
43	5826	380.320240840057	7
43	5841	381.620710874532	12
43	5854	382.529362350363	8
43	5887	387.5	15
43	5891	387.8	2
43	5905	388.80194786007	9
43	5923	390.202038531216	13
43	5931	390.805399665153	5
43	5943	391.813007341171	9
43	5963	393.415487820365	15
43	5980	394.722239334837	12
43	5997	396.025805200722	12
43	6013	397.427616862682	13
43	6031	398.82810935771	13
43	6047	400.036500852775	11
43	6062	401.338459311452	12
43	6091	405.1	11
43	6096	405.5	3
43	6109	406.404494473354	8
43	6120	407.305649437701	8
43	6133	408.211988633949	8
43	6146	409.313723953846	10
43	6160	410.314082375483	9
43	6171	411.219391987707	8
43	6194	413.12066082954	18
43	6217	414.926057118513	17
43	6233	416.134931320266	11
43	6243	416.942307526988	7
43	6249	417.350480066544	3
43	6267	418.754804414004	13
43	6288	422.3	3
43	6311	424.3	19
43	6323	425.309969685696	9
43	6335	426.114247326186	7
43	6359	428.120250968147	19
43	6368	428.826584435446	6
43	6459	434.4	24
43	6500	436.1	16
43	6520	437.001798291218	8
43	6538	437.805965508709	7
43	6561	439.114163306511	12
43	6578	440.422037492827	12
43	6598	442.022776513969	15
43	6614	443.423843149846	13
43	6631	444.729280540773	12
43	6670	450.1	21
43	6678	450.8	6
43	6688	451.504954071947	6
43	6707	453.012898923911	14
43	6717	453.814435108665	7
43	6734	455.117956902096	12
43	6743	455.822839040216	6
43	6754	456.523622510814	6
43	6765	457.430014558181	8
43	6781	458.630435808655	11
43	6791	459.438970782514	7
43	6798	459.944874250136	4
43	6838	464.1	21
43	6847	464.9	7
43	6864	466.203387429255	12
43	6872	466.811753986959	5
43	6881	467.515865262869	6
43	6891	468.119409979117	5
43	6902	469.025555213306	8
43	6940	474.1	21
43	6946	474.6	4
43	6965	476.105444796672	14
43	6978	477.212177458752	10
43	6985	477.716380913278	4
43	6998	478.61943220768	8
43	7009	479.521534448667	8
43	7030	481.223057180226	16
43	7050	484.2	2
43	7066	485.7	14
43	7089	487.602324844258	18
43	7099	488.205921724903	5
43	7110	489.1100128871	8
43	7120	489.913741733721	7
43	7132	490.714862255338	7
43	7142	491.524279237839	7
43	7153	492.226230693867	6
43	7170	493.729422030067	14
43	7198	497	10
43	7213	498.2	11
43	7222	498.906370893991	6
43	7233	499.815185974246	8
43	7246	500.723456367257	8
43	7259	501.832643094626	10
43	7269	502.441671267831	5
43	7281	503.441980953751	9
43	7288	503.951117260934	4
43	7301	504.856791205481	8
43	7338	509.9	19
43	7353	511.1	11
43	7363	511.907764458234	7
43	7372	512.411747263869	4
43	7379	512.914894296986	4
43	7398	514.421119254469	14
43	7414	515.826778465067	13
43	7429	516.929837044468	10
43	7438	517.634637872734	6
43	7447	518.140583312712	4
43	7460	519.24760176925	10
43	7469	519.95214680833	6
43	7488	521.461269370982	14
43	7511	524.5	5
43	7522	525.5	9
43	7533	526.20771623291	6
43	7549	527.61651849161	13
43	7570	529.325899298012	16
43	7583	530.233496812316	8
43	7606	534.5	5
43	7616	535.4	8
43	7635	536.905758381367	14
43	7646	537.806293012902	8
43	7666	539.408992948212	15
43	7673	539.909582209627	4
43	7686	540.8126306873	8
43	7697	541.717835176512	8
43	7743	546.6	26
43	7746	546.8	1
43	7755	547.507280680986	6
43	7764	548.015105712918	4
43	7770	548.417161832355	3
43	7784	549.61756303005	11
43	7794	550.218945065458	5
43	7817	552.127367589534	18
43	7845	557	10
43	7853	557.7	6
43	7872	559.201981962069	14
43	7885	560.103678007418	8
43	7921	563.311947492015	31
43	7934	564.215560061534	8
43	7947	565.322322562779	10
43	7966	566.824818716651	14
43	7972	567.233300266737	3
43	7992	568.842319038892	15
43	8017	572.7	7
43	8029	573.8	10
43	8049	575.406396942625	15
43	8063	576.411089344937	9
43	8075	577.416194879554	9
43	8090	578.521214937925	10
43	8114	580.528372710755	19
43	8126	581.537516513748	9
43	8131	581.840733444638	2
43	8233	586	20
43	8274	587.9	18
43	8298	588.808504279227	8
43	8312	589.408516791378	5
43	8334	590.215592108756	7
43	8346	590.620685169655	3
43	8422	594.7	7
43	8439	595.3	5
43	8459	596.005434391081	6
43	8477	596.810289025152	7
43	8489	597.310467476312	4
43	8535	599.212897644173	18
43	8549	599.813065727979	5
43	8575	602.7	7
43	8596	604.5	17
43	8605	605.203251509875	6
43	8617	606.005299333225	7
43	8626	606.710171620704	6
43	8635	607.411895697508	6
43	8652	608.720172537453	12
43	8658	609.12725338048	3
43	8665	609.635812350834	4
43	8700	613.8	18
43	8709	614.4	5
43	8716	614.905504422192	4
43	8732	616.110305642731	11
43	8742	616.912628316612	7
43	8760	618.314368259921	13
43	8774	619.519683224868	11
43	8786	620.321070177531	7
43	8795	621.023466987054	6
43	8844	625.5	15
43	8855	626.3	7
43	8861	626.702010610746	3
43	8866	627.011107240386	2
43	8871	627.314573007823	2
43	8878	627.820074404544	4
43	8892	628.821124530875	9
43	8913	630.531110093053	16
43	8926	631.631179489974	10
43	8958	635.4	14
43	8974	636.7	12
43	8988	637.903771976432	11
43	9001	638.810252633662	8
43	9018	640.119653524359	12
43	9037	641.8203861221	16
43	9054	643.121861227711	12
43	9074	644.727711975269	15
43	9080	645.1366279107	3
43	9096	646.336990446382	11
43	9108	647.340853649041	9
43	9125	648.648544380735	12
43	9137	649.651408184049	9
43	9164	652.9	9
43	9174	653.8	8
43	9186	654.608809760054	7
43	9196	655.418341155722	7
43	9209	656.323143587703	8
43	9218	657.029074308515	6
43	9236	658.438346086525	13
43	9264	663.3	13
43	9282	664.8	14
43	9289	665.300500760865	4
43	9314	667.402283832178	20
43	9328	668.412010637492	9
43	9342	669.614390944981	11
43	9358	670.815364046348	11
43	9364	671.223665567978	3
43	9381	672.530612327718	12
43	9411	675.137389051984	25
43	9425	676.147323881641	9
43	9455	681.2	12
43	9470	682.4	11
43	9480	683.200401513627	7
43	9485	683.501289865508	2
43	9494	684.007109148335	4
43	9500	684.409613667931	3
43	9510	685.211171848584	7
43	9544	689.6	16
43	9553	690.2	5
43	9562	690.903034300494	6
43	9570	691.511357333263	5
43	9584	692.51295167147	9
43	9595	693.417803256146	8
43	9610	694.521230916634	10
43	9619	695.224569381372	6
43	9627	695.833070908357	5
43	9634	696.13678886041	2
43	9641	696.644854255979	4
43	9648	697.145306769107	4
43	9663	698.250562561322	10
43	9699	703.8	18
43	9705	704.1	2
43	9715	704.908024482114	7
43	9725	705.710060854458	7
43	9739	706.713879111175	9
43	9749	707.516436118242	7
43	9764	708.622238106092	10
43	9792	711.03142680353	23
43	9822	715.2	12
43	9827	715.6	3
43	9835	716.002117481015	3
43	9851	717.411183727027	13
43	9856	717.717815561687	2
43	9864	718.125223951715	3
43	9869	718.426599928206	2
43	9874	718.734082533507	2
43	9883	719.440128161215	6
43	9897	720.445092756624	9
43	9916	724.3	3
43	9938	726.2	18
43	9950	727.203933301265	9
43	9956	727.606315532782	3
43	9964	728.015245487758	3
43	9970	728.415333345036	3
43	9980	729.222552312055	7
43	9988	729.823720316045	5
43	10001	730.732844804796	8
43	10024	734.5	5
43	10036	735.6	10
43	10051	736.703195520762	10
43	10071	738.309846889292	15
43	10087	739.715685424724	13
43	10098	740.41958586518	6
43	10106	741.022428767465	5
43	10116	741.826859646074	7
43	10127	742.529885527957	6
43	10137	743.332113112157	7
43	10149	744.141529183119	7
43	10159	744.945078864173	7
43	10174	746.05090194643	10
43	10186	747.054641502599	9
43	10204	748.45841966285	13
43	10289	754.2	22
43	10317	756.7	24
43	10329	757.703000638822	9
43	10343	758.709760657117	9
43	10355	759.710902422411	9
43	10367	760.51225976743	7
43	10377	761.319838097772	7
43	10391	762.329496982082	9
43	10400	763.034863012983	6
43	10424	766.6	6
43	10434	767.5	8
43	10458	769.507820420993	19
43	10482	771.511629580309	19
43	10499	772.812146380283	12
43	10507	773.41962791075	5
43	10526	774.928672697665	14
43	10552	778.8	8
43	10557	779.2	3
43	10566	779.907521560085	6
43	10578	780.708295861552	7
43	10585	781.210488316281	4
43	10597	782.011516855682	7
43	10621	784.020814904066	19
43	10630	784.728759862641	6
43	10635	785.036936621321	2
43	10690	788.6	6
43	10697	788.9	2
43	10712	789.608758931616	6
43	10725	790.511582905009	8
43	10747	792.32074127386	17
43	10754	792.824160833762	4
43	10762	793.433975775896	5
43	10789	797.2	12
43	10805	798.5	12
43	10825	800.101450138778	15
43	10836	801.008649088057	8
43	10843	801.516440058586	4
43	10857	802.519107106656	9
43	10862	802.824823766089	2
43	10880	804.233784405532	13
43	10910	806.839071286088	25
43	10968	810.9	9
43	10979	811.9	9
43	10990	812.604738570891	6
43	11011	814.307034036458	16
43	11020	815.008229988486	6
43	11030	815.811447228622	7
43	11042	816.614836482382	7
43	11053	817.524360932099	8
43	11062	818.033420570219	4
43	11082	819.838060843237	17
43	11106	821.838232930463	19
43	11141	825.7	17
43	11151	826.4	6
43	11162	827.30707756944	8
43	11169	827.807681547396	4
43	11180	828.509663759083	6
43	11203	830.418967767436	18
43	11209	830.82530631496	3
43	11232	834.5	5
43	11241	835.3	7
43	11245	835.50440081658	1
43	11265	837.111364907083	15
43	11279	838.118766579426	9
43	11298	839.824124182575	16
43	11309	840.526630862088	6
43	11317	841.133233331949	5
43	11325	841.735304798003	5
43	11340	842.843876368406	10
43	11358	844.252732421315	13
43	11387	849.1	11
43	11399	850	8
43	11407	850.603021191637	5
43	11415	851.208851151737	5
43	11433	852.610902831452	13
43	11467	855.61885619119	29
43	11486	857.122445434489	14
43	11503	858.429108426793	12
43	11514	859.335042093024	8
43	11535	862.3	3
43	11541	862.8	4
43	11560	864.300993934895	14
43	11567	864.803189448245	4
43	11572	865.107315175455	2
43	11582	865.909011637036	7
43	11594	866.717153366893	7
43	11611	868.018267761355	12
43	11623	869.02317734997	9
43	11632	869.726507947942	6
43	11653	871.430354784672	16
43	11730	875.8	18
43	11755	876.8	9
43	11770	877.802935677622	9
43	11784	878.806702717011	9
43	11808	880.808349337192	19
43	11820	881.814611706666	9
43	11831	882.520345125689	6
43	11840	883.226211227899	6
43	11856	884.434085021997	11
43	11869	885.534108513277	10
43	11878	886.036527910695	4
43	11908	891.2	12
43	11911	891.4	1
43	11916	891.706198916418	2
43	11924	892.116172910704	3
43	11930	892.51883760132	3
43	11938	893.123764469242	5
43	11948	893.930587036593	7
43	11975	896.9	9
43	11991	898.2	12
43	12004	899.304154713395	10
43	12018	900.313808843823	9
43	12031	901.414453795702	10
43	12047	902.616183269266	11
43	12065	904.022740193121	13
43	12078	905.128264965098	10
43	12103	908.7	7
43	12114	909.7	9
43	12130	910.900956360273	11
43	12142	911.905961505099	9
43	12156	912.908583915267	9
43	12161	913.212423495595	2
43	12176	914.315644286517	10
43	12188	915.317081860038	9
43	12194	915.726727840231	3
43	12218	918.8	8
43	12234	920.1	12
43	12252	921.709001610439	15
43	12265	922.613055828923	8
43	12277	923.616896966855	9
43	12297	925.21833348732	15
43	12313	926.419937196171	11
43	12344	931.3	13
43	12350	931.8	4
43	12371	933.509598231569	16
43	12394	935.410762989159	18
43	12404	936.011013963852	5
43	12411	936.517105469921	4
43	12420	937.219551028239	6
43	12428	937.826376047686	5
43	12438	938.434705333397	5
43	12446	939.042934591781	5
43	12469	942.5	5
43	12481	943.6	10
43	12502	945.308330947577	16
43	12508	945.71066109182	3
43	12515	946.012213434087	2
43	12568	951.8	18
43	12580	952.7	8
43	12586	953.101247537904	3
43	12595	953.805411528963	6
43	12618	955.713331373233	18
43	12634	956.91491572491	11
43	12641	957.419009963822	4
43	12663	959.226159678572	17
43	12681	960.630460565206	13
43	12690	961.335454084758	6
43	12698	961.941752312813	5
43	12856	966.8	28
43	12895	968.6	17
43	12935	970.202815032522	15
43	12959	971.210437987618	9
43	12995	972.714881010073	14
43	13021	974.622526042103	18
43	13036	975.929118672039	12
43	13050	976.938672744173	9
43	13066	978.14492832316	11
43	13073	978.649624707104	4
43	13088	979.955727850842	12
43	13101	980.857457560115	8
43	13117	982.061980084565	11
43	13124	982.564303889262	4
43	13134	983.368143766076	7
43	13150	984.577170246665	11
43	13165	985.880683512361	12
43	13182	987.183698961601	12
43	13200	990.1	1
43	13207	990.7	5
43	13214	991.205786519781	4
43	13226	992.015452073744	7
43	13239	993.121609098577	10
43	13244	993.428569463273	2
43	13263	994.933566866235	14
43	13294	999.3	13
43	13299	999.7	3
43	13307	1000.107249107321	3
43	13336	1002.615911526842	24
43	13356	1004.222989665066	15
43	13374	1005.831626543473	15
43	13389	1006.935973384103	10
43	13412	1008.839474180689	18
43	13423	1009.746744054731	8
43	13440	1011.047851763691	12
43	13445	1011.355486396711	2
43	13542	1015.3	13
43	13579	1016.8	14
43	13609	1018.206868404513	13
43	13635	1020.407939170272	21
43	13647	1021.413077434395	9
43	13668	1023.113739811061	16
43	13690	1024.917573594031	17
43	13709	1026.424439511992	14
43	13717	1027.028497601257	5
43	13731	1028.035839691656	9
43	13756	1032.7	7
43	13761	1033.1	3
43	13779	1034.506841589114	13
43	13787	1035.110745816118	5
43	13792	1035.420168238076	2
43	13805	1036.328051726986	8
43	13812	1036.833334815623	4
43	13819	1037.341633077088	4
43	13835	1038.550214868277	11
43	13865	1043.2	12
43	13878	1044.2	9
43	13890	1045.208568528813	9
43	13902	1046.015541701837	7
43	13913	1046.923746187292	8
43	13917	1047.129226579715	1
43	13957	1052	20
43	13961	1052.3	2
43	13969	1052.908808581794	5
43	13986	1054.210771424956	12
43	14004	1055.815316728215	15
43	14020	1057.019961109802	11
43	14036	1058.222078741225	11
43	14062	1060.42992323198	21
43	14082	1062.03331082891	15
43	14119	1067.9	19
43	14128	1068.5	5
43	14154	1070.707210615049	21
43	14168	1071.912484054488	11
43	14183	1073.021050310306	10
43	14190	1073.529729472215	4
43	14209	1075.030616802654	14
43	14226	1076.331985124421	12
43	14239	1077.441150994293	10
43	14252	1078.349380957837	8
43	14265	1079.459256482369	10
43	14278	1080.363874609952	8
43	14295	1081.865493233336	14
43	14334	1084.2	2
43	14340	1084.7	4
43	14344	1084.906890054901	1
43	14352	1085.512155112143	5
43	14364	1086.3201236626	7
43	14379	1087.621558207465	12
43	14383	1087.827813828983	1
43	14397	1088.832522796264	9
43	14404	1089.337444866976	4
43	14412	1089.947057574064	5
43	14421	1090.451463259345	4
43	14437	1091.852726765813	13
43	14488	1097.3	33
43	14502	1098.4	10
43	14518	1099.804868635653	13
43	14532	1100.81452570967	9
43	14543	1101.724447993844	8
43	14556	1102.627352605686	8
43	14568	1103.631180523112	9
43	14597	1107.4	14
43	14613	1108.7	12
43	14632	1110.200889842587	14
43	14644	1111.207077039114	9
43	14650	1111.607795170451	3
43	14662	1112.409763008422	7
43	14677	1113.718216512127	12
43	14697	1115.323278884709	15
43	14709	1116.12445611598	7
43	14733	1120.8	8
43	14751	1122.3	14
43	14764	1123.407481531884	10
43	14780	1124.611499499016	11
43	14792	1125.613405797692	9
43	14808	1126.820473420744	11
43	14820	1127.820807099575	9
43	14833	1128.726524851964	8
43	14857	1132.8	8
43	14864	1133.4	5
43	14874	1134.001321959092	5
43	14878	1134.207253127691	1
43	14885	1134.70996200774	4
43	14907	1136.515168110366	17
43	14915	1137.115839868992	5
43	14920	1137.419702036705	2
43	14963	1142.3	23
43	14973	1143.2	8
43	14988	1144.307807572067	10
43	14998	1145.116432958128	7
43	15005	1145.617331072687	4
43	15017	1146.42384843173	7
43	15039	1148.224559247216	17
43	15069	1153.2	12
43	15081	1154.1	8
43	15097	1155.502902174841	13
43	15108	1156.208462779556	6
43	15118	1157.014124443087	7
43	15123	1157.322340139486	2
43	15130	1157.83050159293	4
43	15146	1159.03694197904	11
43	15162	1160.237693248981	11
43	15171	1160.946662780985	6
43	15187	1162.15564745448	11
43	15203	1163.560522166073	13
43	15220	1164.865623644184	12
43	15245	1168.8	8
43	15256	1169.8	9
43	15275	1171.302861914071	14
43	15286	1172.007383370878	6
43	15298	1173.009710776713	9
43	15317	1174.510310311301	14
43	15331	1175.719325753734	11
43	15351	1177.326996659396	15
43	15370	1178.83221973685	14
43	15389	1180.339611213141	14
43	15397	1180.939728916186	5
43	15424	1185.1	11
43	15432	1185.8	6
43	15441	1186.304473137643	4
43	15447	1186.713495726556	3
43	15455	1187.315351472034	5
43	15469	1188.319332097452	9
43	15479	1189.125004289985	7
43	15488	1189.830364432045	6
43	15502	1190.836871196344	9
43	15514	1191.83971405253	9
43	15540	1195	10
43	15554	1196.1	10
43	15568	1197.3026169928	11
43	15589	1199.008788000456	16
43	15613	1202.6	6
43	15625	1203.7	10
43	15641	1204.90313317487	11
43	15657	1206.10352272019	11
43	15666	1206.813452030364	6
43	15674	1207.418150658637	5
43	15688	1208.427283027399	9
43	15710	1212.7	7
43	15723	1213.9	11
43	15737	1214.909841775496	9
43	15745	1215.513430763343	5
43	15766	1217.220659413879	16
43	15773	1217.729525494951	4
43	15790	1219.029604059435	12
43	15794	1219.239388802322	1
43	15827	1223.7	17
43	15833	1224	2
43	15842	1224.701057326782	6
43	15852	1225.505860197918	7
43	15874	1227.306880898484	17
43	15885	1228.008618170797	6
43	15895	1228.818091952322	7
43	15917	1230.623566518408	17
43	15935	1234.2	2
43	15940	1234.6	3
43	15964	1236.604909930035	19
43	15970	1237.005242713595	3
43	15977	1237.51078941627	4
43	16003	1239.711008257538	21
43	16017	1240.711807762335	9
43	16029	1241.715064284002	9
43	16044	1242.822115140442	10
43	16051	1243.327464587605	4
43	16056	1243.630539722973	2
43	16065	1244.133929591157	4
43	16070	1244.443532430682	2
43	16078	1245.052183724633	5
43	16105	1249.1	11
43	16109	1249.4	2
43	16119	1250.202471999588	7
43	16126	1250.704399462755	4
43	16136	1251.505780763698	7
43	16150	1252.715712771464	11
43	16158	1253.319150619292	5
43	16165	1253.820886077088	4
43	16178	1254.930669276966	10
43	16191	1256.040017296723	10
