version 2
run Join-65-20130520-16:32:49-32715
attr configname Join
attr datetime 20130520-16:32:49
attr experiment "\"Join\""
attr inifile omnetpp.ini
attr iterationvars $0=2048
attr iterationvars2 "$0=2048, $repetition=5"
attr measurement $0=2048
attr network Network
attr processid 32715
attr repetition 5
attr replication #5
attr resultdir results
attr runnumber 65
attr seedset 65

vector 65  Network.dyn_peer[0]  lookupHopsSig:vector  ETV
65	5854	20.821830416327	14
65	5908	25.629911179619	47
65	5949	30.4	24
65	5979	33.1	26
65	5998	34.606799529762	14
65	6041	38.309056489147	36
65	6071	40.917486129243	25
65	6102	43.618263749722	26
65	6132	46.026655419482	23
65	6183	53.4	34
65	6189	53.9	4
65	6211	55.707316502067	17
65	6233	57.510318508625	17
65	6248	58.619132859997	10
65	6259	59.522163687331	8
65	6268	60.030733592509	4
65	6286	64.3	3
65	6307	66.1	17
65	6330	68.000841588361	18
65	6351	69.905626424708	18
65	6362	70.609216032285	6
65	6368	71.016789164311	3
65	6397	73.520590200899	24
65	6453	78.321418449752	47
65	6469	79.72669331835	13
65	6507	82.933967160618	31
65	6527	84.539923135608	15
65	6573	90.6	26
65	6592	92.2	15
65	6607	93.501220451092	12
65	6625	94.901564698509	13
65	6650	97.010500257807	20
65	6671	98.720425255687	16
65	6689	100.129580888556	13
65	6696	100.633015838129	4
65	6728	103.434266570718	27
65	6747	104.938515515916	14
65	6796	111	30
65	6814	112.5	14
65	6828	113.7018129423	11
65	6847	115.211580975942	14
65	6861	116.216271485236	9
65	6874	117.325340656951	10
65	6913	120.631742543269	32
65	6983	129.1	51
65	6997	130.2	10
65	7033	133.403514000454	31
65	7072	136.712036405377	32
65	7097	138.814656884967	20
65	7124	141.117358298465	22
65	7160	144.121432987165	29
65	7195	147.230109362187	30
65	7234	150.538908024517	32
65	7246	151.538970323715	9
65	7422	159.7	57
65	7481	162.3	25
65	7539	164.90034276019	25
65	7605	167.905504538418	29
65	7672	171.207264505248	32
65	7703	173.911599294185	26
65	7725	176.4	4
65	7749	178.5	20
65	7790	182.001791871597	34
65	7828	185.405565332122	33
65	7860	188.012654847166	25
65	7874	189.216658520869	11
65	7917	192.921523415032	36
65	7986	201	50
65	7990	201.3	2
65	8028	204.500640947087	31
65	8048	206.106052129721	15
65	8054	206.507780822287	3
65	8089	209.609617549387	30
65	8107	211.012750630836	13
65	8151	216.7	27
65	8174	218.7	19
65	8200	220.908557891836	21
65	8225	223.010254702826	20
65	8245	224.616314005981	15
65	8269	226.61841077244	19
65	8292	228.52397139947	18
65	8307	229.830273325814	12
65	8337	232.230391672321	23
65	8355	233.835853433145	15
65	8377	235.637714656288	17
65	8410	238.341297776998	26
65	8432	240.148248393096	17
65	8461	242.656624794679	24
65	8482	244.362493264812	16
65	8516	247.362756501754	29
65	8597	255.9	59
65	8607	256.6	6
65	8633	258.808411690618	21
65	8658	260.916169713046	20
65	8688	263.517934055805	25
65	8708	265.123588787502	15
65	8748	270	20
65	8783	273.2	31
65	8813	275.805752611062	25
65	8827	276.813139834091	9
65	8860	279.713995187875	28
65	8870	280.323625324537	5
65	8896	282.52986459439	21
65	8922	284.731194371169	21
65	8949	287.038976212942	22
65	8995	292.6	26
65	9058	298.2	55
65	9083	300.308131180023	20
65	9100	301.81677437822	14
65	9147	305.917199764462	40
65	9166	307.423060688009	14
65	9214	311.631063973098	41
65	9233	313.140387738421	14
65	9302	317.5	15
65	9349	319.6	20
65	9397	321.806825759939	21
65	9451	324.114835239587	22
65	9526	327.620053774485	34
65	9558	330.22042436746	25
65	9568	331.029199450572	7
65	9605	335.9	19
65	9657	340.4	44
65	9681	342.408642852727	19
65	9697	343.810249834693	13
65	9710	344.716249192868	8
65	9761	349.226045348533	44
65	9765	349.428436969288	1
65	9800	352.33269950574	28
65	9830	354.933896932133	25
65	9845	356.037329329665	10
65	9865	357.840022036052	17
65	9896	360.349648996254	24
65	9913	361.856673011714	14
65	9933	363.459241848431	15
65	10008	367.8	18
65	10042	369.7	18
65	10059	371.006078544748	12
65	10082	372.912753807522	18
65	10099	374.214874346306	12
65	10129	376.815420832795	25
65	10156	379.118312391923	22
65	10202	384.6	26
65	10209	385.2	5
65	10247	388.4070608047	31
65	10278	391.108642100412	26
65	10301	393.018009387841	18
65	10306	393.32008812843	2
65	10327	395.021819143671	16
65	10390	400.526550923353	54
65	10396	400.933054138505	3
65	10403	401.436202394796	4
65	10430	403.742040772988	22
65	10438	404.145608843076	3
65	10455	405.646450917364	14
65	10477	407.451082962091	17
65	10551	411.8	18
65	10568	412.5	6
65	10634	415.503757813763	29
65	10716	419.009116716263	34
65	10776	421.713602403913	26
65	10846	424.822388445493	30
65	10908	427.630238162765	27
65	10966	430.23165546286	25
65	11042	433.737903607735	34
65	11084	436.343396720206	25
65	11148	444.2	42
65	11174	446.5	22
65	11207	449.409154365351	28
65	11243	452.414927218264	29
65	11277	455.41712056879	29
65	11284	455.920534130793	4
65	11335	461.1	31
65	11349	462.2	10
65	11361	463.207544543659	9
65	11391	465.814349803481	25
65	11401	466.416250341866	5
65	11414	467.523607562306	10
65	11432	468.929153300505	13
65	11455	470.830518823519	18
65	11507	477.4	34
65	11542	480.4	29
65	11568	482.602668259376	21
65	11632	488.211515083342	55
65	11656	490.219329701991	19
65	11680	492.228582427285	19
65	11696	493.632212630894	13
65	11718	495.437049051941	17
65	11737	496.937343725041	14
65	11752	498.03904268123	10
65	11767	499.346531518765	12
65	11792	501.450824326185	20
65	11812	503.059756889176	15
65	11829	504.364094191969	12
65	11853	508.7	7
65	11870	510.1	13
65	11895	512.20046112182	20
65	11914	513.901388646996	16
65	11953	517.206190846106	32
65	11998	521.11491808125	38
65	12030	523.915234891557	27
65	12045	525.024113990779	10
65	12121	530.7	27
65	12149	533.2	24
65	12187	536.40866581107	31
65	12210	538.316188995786	18
65	12232	540.123315350668	17
65	12248	541.532824597257	13
65	12272	543.54268076231	19
65	12314	547.150508599097	35
65	12522	554.6	46
65	12547	555.8	11
65	12619	559.006489855274	31
65	12681	562.411508626182	33
65	12692	563.319904437429	8
65	12709	564.62948535895	12
65	12745	567.835542107352	31
65	12766	570.6	6
65	12786	572.3	16
65	12816	574.908584827128	25
65	12839	576.817424327592	18
65	12850	577.724603064789	8
65	12861	578.433318964734	6
65	12894	581.338775169939	28
65	12914	584.2	2
65	12927	585.4	11
65	12945	586.804267424677	13
65	12962	588.112597698084	12
65	12971	588.822383057401	6
65	12988	590.126476758697	12
65	12999	591.031993899882	8
65	13035	594.033157261976	29
65	13053	595.633305034551	15
65	13069	596.834941479272	11
65	13088	598.335961237744	14
65	13131	604.5	25
65	13153	606.4	18
65	13165	607.402785340209	9
65	13199	610.204626203611	27
65	13221	612.011512334436	17
65	13299	621.6	56
65	13314	622.8	11
65	13327	623.908558337436	10
65	13358	626.418271983993	24
65	13406	630.622428583503	41
65	13426	632.226392861551	15
65	13451	634.33188126337	20
65	13484	637.234126478803	28
65	13530	641.236580397511	39
65	13539	641.940218245735	6
65	13575	645.8	18
65	13599	647.9	20
65	13609	648.507604581862	5
65	13620	649.413856470402	8
65	13627	649.917073730124	4
65	13636	650.424826358927	4
65	13650	651.63083124493	11
65	13663	652.531198813037	8
65	13726	660.3	43
65	13737	661.3	9
65	13758	663.0040453172	16
65	13765	663.510077248978	4
65	13797	666.117283822601	25
65	13827	668.725743382969	25
65	13863	671.929548890476	31
65	13881	673.338952533343	13
65	13903	675.139757153022	17
65	13935	677.946202441777	27
65	13962	680.048720782191	20
65	14006	686.4	24
65	14017	687.4	9
65	14034	688.700628605447	12
65	14060	690.904797794431	21
65	14072	691.914000681222	9
65	14089	693.223750421579	12
65	14109	694.828722436034	15
65	14146	700	20
65	14161	701.4	13
65	14185	703.403182356578	19
65	14200	704.506311173484	10
65	14234	707.5095372185	29
65	14256	709.312739239449	17
65	14295	712.614181450179	32
65	14308	713.716975927401	10
65	14334	715.925752771842	21
65	14362	719.2	12
65	14392	721.9	26
65	14434	725.509201109139	35
65	14476	729.111820697232	35
65	14513	732.220783316026	30
65	14524	733.126119586246	8
65	14568	736.935001641943	37
65	14608	740.343190234569	33
65	14634	742.550782535851	21
65	14692	749.9	39
65	14711	751.5	15
65	14748	754.604694895688	30
65	14781	757.505214252792	28
65	14830	761.806071413784	42
65	14873	765.513448411704	36
65	14919	769.513767626921	39
65	14956	772.622349188274	30
65	15001	776.52468571623	38
65	15045	780.328242301246	37
65	15096	787.1	31
65	15113	788.5	13
65	15133	790.104296943394	15
65	15159	792.311665321702	21
65	15189	794.916209211127	25
65	15204	796.018007342136	10
65	15218	797.224441392794	11
65	15290	805	50
65	15336	809.1	40
65	15359	811.007704756653	18
65	15376	812.311113337357	12
65	15388	813.318957643587	9
65	15407	814.824109767159	14
65	15415	815.42732098415	5
65	15438	817.335968882471	18
65	15449	818.042019664232	6
65	15488	824.1	21
65	15514	826.4	22
65	15528	827.606178644094	11
65	15564	830.607360075599	29
65	15594	833.2147155621	25
65	15618	835.219524955258	19
65	15655	838.324411444137	30
65	15673	839.925068020773	15
65	15699	843	10
65	15724	845.2	21
65	15745	846.90431402228	16
65	15751	847.310327625597	3
65	15768	848.617630601866	12
65	15783	849.919981393428	12
65	15801	851.328404170314	13
65	15856	856.032797959255	46
65	15882	858.238313930881	21
65	15898	859.645792325228	13
65	15928	862.052716914949	23
65	15969	865.761595424353	36
65	16022	868.7	7
65	16037	869.4	6
65	16091	872.301170142751	28
65	16113	874.105603316099	17
65	16130	875.607003229259	14
65	16142	876.411870472134	7
65	16154	877.421481533449	9
65	16177	879.324663687448	18
65	16188	880.033353768158	6
65	16221	882.934010181831	28
65	16232	883.838538271012	8
65	16317	888.2	22
65	16390	891.6	33
65	16455	894.708358958519	30
65	16496	898.218132614443	34
65	16534	901.623338287794	33
65	16572	904.829292101885	31
65	16593	906.537794978312	16
65	16660	914.8	48
65	16681	916.6	17
65	16705	918.606261349541	19
65	16750	922.508852292128	38
65	16765	923.814091162347	12
65	16784	925.320037303486	14
65	16814	927.925848660539	25
65	16837	929.827518720494	18
65	16861	931.830827123033	19
65	17027	939.9	59
65	17047	941.6	16
65	17062	942.70154796737	10
65	17079	944.008585230947	12
65	17099	945.809461257838	17
65	17146	949.911307122321	40
65	17176	952.313729958208	23
65	17221	956.220290654732	38
65	17239	957.822860579082	15
65	17276	960.927898312382	30
65	17287	961.833771870584	8
65	17315	965	10
65	17339	967.1	20
65	17364	969.20064251512	20
65	17390	971.408862246083	21
65	17410	973.013503651424	15
65	17439	975.520102007834	24
65	17497	980.522437945003	49
65	17503	980.929598399637	3
65	17522	982.437045527897	14
65	17599	991.5	55
65	17642	995.3	37
65	17672	997.905614974172	25
65	17694	999.713690783676	17
65	17732	1002.917696111522	31
65	17749	1004.225524299601	12
65	17773	1006.227511209177	19
65	17790	1007.729703731115	14
65	17815	1009.835590519019	20
65	17827	1010.643034813768	7
65	17838	1011.544595964474	8
65	17878	1014.950337601418	33
65	17913	1019.8	18
65	17951	1023.1	32
65	17973	1024.908543305548	17
65	17984	1025.815069410421	8
65	18023	1029.115271631427	32
65	18054	1031.815672244791	26
65	18061	1032.122910245983	2
65	18132	1041.2	52
65	18144	1042.1	8
65	18179	1045.209080202509	30
65	18207	1047.609299678061	23
65	18225	1049.015648673706	13
65	18244	1050.524680823384	14
65	18254	1051.330505461856	7
65	18262	1051.934557426215	5
65	18303	1055.435765286592	34
65	18325	1057.237645729215	17
65	18359	1060.044145058931	27
65	18472	1067.5	35
65	18546	1071	34
65	18554	1071.609032914999	5
65	18595	1075.113464330487	34
65	18634	1078.421474990824	32
65	18641	1078.923798531505	4
65	18662	1080.629703096735	16
65	18771	1088.1	41
65	18790	1089.9	17
65	18833	1093.60511333357	36
65	18863	1096.010239820754	23
65	18881	1097.611575133329	15
65	18919	1100.815899221856	31
65	18949	1103.418275238222	25
65	18991	1108.5	25
65	19015	1110.6	20
65	19044	1113.10820603949	24
65	19053	1113.810573725232	6
65	19074	1115.511790294651	16
65	19112	1118.719069903182	31
65	19139	1121.022127073864	22
65	19154	1122.125523083694	10
65	19206	1129.2	32
65	19214	1129.9	6
65	19249	1132.802301323178	28
65	19283	1135.803425401075	29
65	19297	1136.803971861717	9
65	19314	1138.104748017175	12
65	19348	1141.107443638864	29
65	19388	1144.510749140005	33
65	19416	1149	10
65	19440	1151.1	20
65	19470	1153.706825416269	25
65	19500	1156.110122338667	23
65	19517	1157.61570555955	14
65	19543	1159.818093957799	21
65	19573	1162.219902089573	23
65	19617	1168.7	27
65	19640	1170.7	19
65	19662	1172.506827999853	17
65	19676	1173.715861112884	11
65	19710	1176.522940784007	27
65	19732	1178.331850281079	17
65	19801	1184.441658138719	60
65	19833	1187.242761479977	27
65	19922	1192.4	24
65	19985	1195.4	29
65	20062	1198.809897532623	33
65	20124	1201.613394694599	27
65	20179	1205.918884379652	42
65	20218	1209.225261205239	32
65	20255	1212.330385697341	30
65	20264	1213.039177188944	6
65	20270	1213.442002005391	3
65	20309	1216.744841078529	32
65	20348	1220.045961523989	32
65	20474	1226.1	21
65	20622	1231.3	51
65	20634	1232.100099107404	7
65	20669	1235.203441244787	30
65	20703	1238.003722706813	27
65	20766	1243.704029812934	56
65	20801	1246.610186099391	28
65	20847	1250.619205270211	39
65	20927	1259.8	58
65	20941	1260.9	10
65	20951	1261.709305357581	7
65	20964	1262.61240270656	8
65	20978	1263.814272005801	11
65	20998	1265.416427286591	15
65	21005	1265.920735276162	4
65	21049	1270.7	27
65	21057	1271.4	6
65	21062	1271.700776019089	2
65	21098	1274.704591325206	29
65	21123	1276.813060320153	20
65	21141	1278.215894097618	13
65	21173	1281.019120969811	27
65	21203	1283.625764118453	25
65	21219	1284.830632425294	11
65	21250	1289.3	13
65	21272	1291.2	18
65	21314	1294.808815420821	35
65	21327	1295.915043798353	10
65	21356	1298.218853575346	22
65	21367	1299.12005009644	8
65	21387	1300.727532328078	15
65	21420	1303.631415597209	28
65	21459	1306.93348593512	32
65	21498	1310.24269736542	32
65	21535	1313.550419516028	32
65	21571	1316.550858849471	29
65	21606	1319.655906781028	30
65	21619	1320.55854302779	8
65	21715	1326.8	28
65	21778	1329.7	28
65	21830	1332.603470661533	28
65	21863	1335.505707494667	28
65	21886	1337.409060304357	18
65	21909	1339.309300885346	18
65	21939	1341.914327083745	25
65	22012	1349.4	54
65	22049	1352.6	31
65	22080	1355.300480514077	26
65	22105	1357.402565876982	20
65	22145	1360.809297282386	33
65	22179	1363.817849426807	29
65	22214	1366.721360050036	28
65	22264	1371.130034137839	43
65	22300	1374.131102206174	29
65	22329	1376.639802174912	24
65	22349	1378.241315720949	15
65	22353	1378.448287021912	1
65	22374	1380.15543213829	16
65	22505	1388.2	42
65	22574	1391.4	31
65	22644	1394.508956093089	30
65	22685	1397.710195532873	31
65	22721	1400.719771261658	29
65	22755	1403.725963712353	29
65	22817	1409.127703714936	53
65	22846	1411.637240436903	24
65	22872	1413.839489365033	21
65	22991	1419.7	37
65	23010	1420.5	7
65	23038	1421.809442610088	12
65	23082	1423.713335672541	18
65	23123	1425.522088430447	17
65	23147	1426.431109665641	8
65	23177	1427.83821042684	13
65	23245	1431.5	15
65	23289	1434.2	26
65	23306	1435.709846089859	14
65	23342	1438.717493233046	29
65	23376	1441.722462642866	29
65	23413	1444.825707343251	30
65	23418	1445.134402256617	2
65	23449	1447.843885779196	26
65	23481	1450.452393752193	25
65	23512	1455.5	15
65	23555	1459.3	37
65	23592	1462.40217546012	30
65	23622	1465.004594015809	25
65	23659	1468.106486209704	30
65	23682	1470.015892364725	18
65	23694	1471.018916315042	9
65	23717	1474.8	8
65	23737	1476.5	16
65	23795	1481.706074013635	51
65	23836	1485.213666126788	34
65	23883	1489.320321927044	40
65	23931	1493.524248223964	41
65	23962	1496.026887161576	24
65	24002	1499.632668834964	35
65	24035	1502.338164953619	26
65	24124	1508.4	24
65	24167	1510.3	18
65	24186	1511.109044029524	7
65	24232	1513.215105281961	20
65	24264	1514.51991282196	12
65	24298	1516.026128756673	14
65	24358	1518.731509833684	26
65	24404	1520.635342592605	18
65	24444	1522.336045232767	16
65	24504	1525.038034980525	26
65	24554	1527.244235748024	21
65	24608	1529.647361486874	23
65	24691	1534.15431532779	44
65	24725	1539.8	18
65	24768	1543.6	37
65	24791	1545.503912864127	18
65	24819	1547.908870210919	23
65	24855	1550.911276699582	29
65	24895	1554.317992977064	33
65	24921	1556.519650813757	21
65	24955	1561.9	19
65	24981	1564	20
65	25008	1566.30262912384	22
65	25054	1570.312451534182	39
65	25082	1572.721338040874	23
65	25105	1574.626647232983	18
65	25126	1576.334469253593	16
65	25163	1579.635034007683	32
65	25280	1585.7	37
65	25359	1589.2	34
65	25383	1590.20469847196	9
65	25426	1592.506332339874	22
65	25446	1594.108791586401	15
65	25465	1595.810617530136	16
65	25509	1599.616130991212	37
65	25577	1606.9	49
65	25596	1608.5	15
65	25628	1611.305763920361	27
65	25656	1613.714984324832	23
65	25675	1615.224193360515	14
65	25701	1617.432465688554	21
65	25720	1618.933388714234	14
65	25725	1619.233606343879	2
65	25760	1623.7	17
65	25782	1625.6	18
65	25799	1626.904193796478	12
65	25817	1628.307813357887	13
65	25841	1630.315647612935	19
65	25888	1636.7	27
65	25893	1637.1	3
65	25903	1637.900027361123	7
65	25920	1639.202423912926	12
65	25932	1640.00700529008	7
65	25951	1641.713269809825	16
65	25977	1643.923223180599	21
65	26022	1648.8	28
65	26037	1650	11
65	26052	1651.303171791431	12
65	26076	1653.305551219074	19
65	26109	1656.012101972579	26
65	26124	1657.321551871975	12
65	26152	1659.731327018623	23
65	26172	1661.336497470684	15
65	26191	1662.841925404482	14
65	26211	1664.44802123226	15
65	26226	1665.750220728814	12
65	26262	1668.750386652259	29
65	26280	1670.152205653876	13
65	26317	1675.9	19
65	26334	1677.3	13
65	26353	1678.807850499919	14
65	26370	1680.112117116257	12
65	26386	1681.515711938006	13
65	26403	1682.819523525504	12
65	26421	1684.226335342075	13
65	26487	1692.7	47
65	26529	1696.4	36
65	26536	1696.905993503548	4
65	26545	1697.613623197785	6
65	26576	1700.11448815306	24
65	26602	1702.320824680633	21
65	26641	1705.825936927971	34
65	26659	1707.22755425375	13
65	26671	1708.029349940456	7
65	26718	1714.9	29
65	26735	1716.3	13
65	26768	1719.202276720751	28
65	26797	1721.710466795551	24
65	26835	1724.913242225804	31
65	26870	1729.7	17
65	26881	1730.5	7
65	26893	1731.50093184072	9
65	26907	1732.504128676694	9
65	26915	1733.111571224384	5
65	26937	1734.913019387406	17
65	26954	1736.217353041014	12
65	26995	1742.4	24
65	27026	1745.2	27
65	27047	1746.900795803766	16
65	27080	1749.80770764966	28
65	27120	1753.208642489125	33
65	27125	1753.514337383792	2
65	27213	1762.4	64
65	27233	1764.1	16
65	27271	1767.507704658457	33
65	27305	1770.30898321401	27
65	27333	1772.711361219693	23
65	27387	1776.8	8
65	27437	1780	31
65	27451	1781.206260833209	11
65	27476	1783.307348967745	20
65	27520	1787.114297063856	37
65	27566	1791.122314604821	39
65	27582	1792.324208572672	11
65	27603	1794.027516157075	16
65	27722	1802.3	43
65	27746	1804.4	20
65	27771	1806.508106893682	20
65	27796	1808.617086344702	20
65	27815	1810.11975659098	14
65	27827	1811.127116636824	9
65	27848	1812.836829899432	16
65	27927	1819.942218604305	70
65	27956	1822.243312317955	22
65	27965	1822.946063001363	6
65	28029	1827.6	16
65	28067	1830.9	32
65	28104	1834.001717407526	30
65	28129	1836.102532852899	20
65	28166	1839.411635927485	32
65	28205	1842.717430904246	32
65	28230	1844.818730339125	20
65	28269	1850.2	22
65	28287	1851.9	16
65	28359	1858.109024945409	61
65	28378	1859.818860078684	16
65	28420	1863.419153134114	35
65	28426	1863.827761337662	3
65	28445	1865.336605938123	14
65	28471	1867.53877627052	21
65	28490	1869.047437952257	14
65	28516	1871.252455845936	21
65	28560	1876.4	24
65	28585	1878.6	21
65	28609	1880.608541777678	19
65	28627	1882.018215566493	13
65	28646	1883.726926635176	16
65	28666	1885.32774615919	15
65	28706	1888.733306089572	33
65	28713	1889.243036944058	4
65	28738	1891.347821210438	20
65	28790	1897.2	32
65	28804	1898.3	10
65	28837	1901.205816533335	28
65	28852	1902.308552180079	10
65	28889	1905.609476802972	32
65	28899	1906.218371327536	5
65	28925	1908.425667155317	21
65	28936	1909.326480908479	8
65	28960	1911.330403242336	19
65	28974	1912.335560295764	9
65	28997	1914.236041452116	18
65	29018	1918.3	3
65	29028	1919.2	8
65	29057	1921.707835664642	24
65	29081	1923.715685722404	19
65	29113	1926.316995940632	25
65	29134	1928.024308738647	16
65	29154	1929.831528172235	17
65	29174	1931.434307835048	15
65	29223	1934.9	9
65	29253	1937.6	26
65	29265	1938.407632912122	7
65	29276	1939.313055587407	8
65	29300	1941.319945379058	19
65	29328	1943.727871224593	23
65	29337	1944.237691298841	4
65	29354	1945.738029740421	14
65	29371	1947.043375057243	12
65	29391	1948.652365277477	15
65	29427	1951.860064435542	31
65	29455	1954.06861251189	21
65	29461	1954.478191258971	3
65	29472	1955.384606412996	8
65	29524	1961.3	33
65	29539	1962.5	11
65	29573	1965.503317635902	29
65	29604	1968.011409064184	24
65	29614	1968.819356397012	7
65	29639	1970.92355256528	20
65	29647	1971.528569834852	5
65	29680	1974.228882541286	26
65	29696	1975.632438616011	13
65	29732	1979.8	18
65	29741	1980.4	5
65	29761	1982.007596937653	15
65	29768	1982.51697290277	4
65	29774	1982.920036747615	3
65	29786	1983.927442212159	9
65	29796	1984.534634029493	5
65	29819	1988.8	8
65	29829	1989.7	8
65	29839	1990.305195972886	5
65	29854	1991.606998586204	12
65	29872	1993.010738765821	13
65	29888	1994.212224148311	11
65	29895	1994.72013822894	4
65	29914	1996.23003120462	14
65	29937	1998.131775018417	18
65	29965	2000.534066192018	23
65	30036	2007.6	36
65	30055	2009.2	15
65	30093	2012.406159668504	31
65	30130	2015.708698453339	32
65	30155	2017.817599152083	20
65	30196	2021.324080580678	34
65	30224	2023.725345445508	23
65	30240	2026.1	1
65	30268	2028.6	24
65	30317	2032.904159072523	42
65	30341	2034.904266624957	19
65	30385	2038.704585486306	37
65	30425	2042.113073509882	33
65	30474	2046.419383743509	42
65	30506	2049.227106170674	27
65	30524	2050.635012807304	13
65	30533	2051.344100657031	6
65	30591	2057.8	38
65	30624	2060.6	27
65	30661	2063.901326227167	32
65	30704	2067.610381929888	36
65	30719	2068.717589173039	10
65	30739	2070.317591836407	15
65	30749	2071.11932066381	7
65	30787	2074.322099272364	31
65	30809	2076.128848941432	17
65	30820	2077.036450301777	8
65	30836	2078.243535261229	11
65	30865	2080.750183127031	24
65	30976	2085.7	17
65	31059	2088.3	25
65	31104	2090.003517316554	16
65	31166	2092.808729325786	27
65	31196	2094.111880274076	12
65	31260	2097.012559416516	28
65	31358	2101.617238730935	45
65	31397	2104.926155123475	32
65	31439	2108.531615130984	35
65	31471	2111.336331136313	27
65	31510	2114.636407918064	32
65	31572	2122.1	41
65	31603	2124.9	27
65	31636	2127.800261446041	28
65	31670	2130.60170905351	27
65	31679	2131.309552446047	6
65	31723	2135.110739895531	37
65	31764	2138.619947618746	34
65	31798	2141.624973138036	29
65	31843	2145.534565173318	38
65	31883	2148.941571009513	33
65	31895	2149.942304435586	9
65	31930	2153.7	17
65	31965	2156.7	29
65	31991	2158.902637926496	21
65	31996	2159.208453550778	2
65	32003	2159.711620095713	4
65	32035	2162.315601061681	25
65	32072	2165.617392766059	32
65	32090	2168.3	3
65	32096	2168.8	4
65	32141	2172.709968649835	38
65	32146	2173.01953564047	2
65	32167	2174.72865331088	16
65	32214	2178.831153176438	40
65	32237	2180.733821577319	18
65	32266	2183.243713983452	24
65	32305	2186.549813144315	32
65	32352	2190.4	4
65	32373	2191.2	7
65	32473	2195.702237609829	44
65	32571	2199.711072125005	39
65	32622	2204.015630941464	42
65	32651	2206.515635816788	24
65	32679	2208.91765033416	23
65	32687	2209.525838161879	5
65	32711	2211.533379316816	19
65	32752	2215.034856558706	34
65	32769	2216.339090783818	12
65	32796	2218.639448064375	22
65	32849	2223.340005688716	46
65	32907	2229.8	38
65	32931	2231.9	20
65	32955	2233.903114678617	19
65	32978	2235.808839864194	18
65	33008	2238.213145154513	23
65	33023	2239.51495897627	12
65	33036	2240.424162482736	8
65	33057	2242.130459882507	16
65	33066	2242.832006453279	6
65	33083	2244.139129891021	12
65	33102	2245.847973055786	16
65	33130	2248.048540978429	21
65	33155	2252.9	9
65	33166	2253.9	9
65	33201	2256.800968559002	28
65	33214	2257.909266989919	10
65	33231	2259.212551321039	12
65	33267	2262.221605052846	29
65	33286	2263.925066931115	16
65	33321	2267.8	18
65	33333	2268.9	10
65	33356	2271.007159349119	20
65	33373	2272.512006266945	14
65	33406	2275.620536573484	30
65	33426	2277.43025189469	17
65	33458	2280.431380329193	29
