version 2
run Join-93-20130520-16:41:21-32715
attr configname Join
attr datetime 20130520-16:41:21
attr experiment "\"Join\""
attr inifile omnetpp.ini
attr iterationvars $0=16384
attr iterationvars2 "$0=16384, $repetition=3"
attr measurement $0=16384
attr network Network
attr processid 32715
attr repetition 3
attr replication #3
attr resultdir results
attr runnumber 93
attr seedset 93

vector 93  Network.dyn_peer[0]  lookupHopsSig:vector  ETV
93	43624	23.50967380456	98
93	43690	29.316317658543	57
93	43780	37.317812515373	79
93	43821	40.825127373076	34
93	43854	43.726131217422	28
93	43905	48.033906218484	42
93	43977	54.437385388989	63
93	44004	56.740350135682	22
93	44054	61.142612068961	43
93	44164	72.5	85
93	44263	81.5	89
93	44307	85.309825949359	37
93	44342	88.21505437602	28
93	44375	91.118456211031	28
93	44401	93.325567556856	21
93	44419	94.72637985105	13
93	44476	99.827317956179	50
93	44552	106.427858485987	65
93	44583	111.3	13
93	44675	119.6	82
93	44692	120.908100904833	12
93	44849	135.00974712412	140
93	44934	142.519289375712	74
93	44950	143.924620658648	13
93	44964	144.92477070661	9
93	44981	146.225550090616	12
93	45034	150.928591555593	46
93	45076	154.529438334883	35
93	45149	159.7	17
93	45274	165.5	57
93	45361	171.007347305149	54
93	45415	175.809470859802	47
93	45467	180.215089941212	43
93	45475	180.816167466846	5
93	45566	188.917989863318	80
93	45618	193.526592378711	45
93	45633	194.629102047615	10
93	45642	195.337306931659	6
93	45684	198.939197039939	35
93	45739	205.7	37
93	45824	213.3	75
93	45863	216.606269913988	32
93	46003	229.213881236153	125
93	46073	235.417221935713	61
93	46216	248.117412532607	126
93	46264	252.318549221048	41
93	46320	259.6	36
93	46361	263.2	35
93	46389	265.601869039016	23
93	46457	271.602191038434	59
93	46487	274.002694935332	23
93	46513	276.208010769576	21
93	46588	282.911224175876	66
93	46615	285.217079401251	22
93	46663	289.423132546571	41
93	46720	294.327014469098	48
93	46768	298.534294102553	41
93	46793	300.635079870685	20
93	46842	304.937257949693	42
93	46976	318.6	106
93	47060	326.1	74
93	47142	333.509220915921	73
93	47233	341.615228927803	80
93	47288	346.32081317746	46
93	47398	356.128034747284	97
93	47523	367.433667123889	112
93	47635	378.9	89
93	47674	382.3	33
93	47712	385.707037438808	33
93	47809	394.210838928461	84
93	47904	402.712521428168	84
93	47997	411.016324364475	82
93	48096	419.918409870548	88
93	48259	435.6	136
93	48372	445.8	101
93	48515	458.500396154236	126
93	48540	460.608206868282	20
93	48618	467.617066793004	69
93	48705	475.326247021628	76
93	48926	495.234056197851	198
93	48992	501.036445741568	57
93	49066	507.638128368065	65
93	49103	510.738842920784	30
93	49120	512.042543576128	12
93	49135	513.345656040342	12
93	49150	514.448123738356	10
93	49346	522.8	48
93	49485	529.4	65
93	49544	534.509096476337	50
93	49593	538.815033061284	42
93	49632	542.115829697226	32
93	49652	543.925736403502	17
93	49731	550.833278912605	68
93	49751	552.436268800707	15
93	49785	555.444401981842	29
93	49808	557.352020555203	18
93	49920	568.7	87
93	49963	572.5	37
93	49983	574.101800420584	15
93	50032	578.405663201473	42
93	50089	583.510147187893	50
93	50286	601.21365756268	176
93	50316	605.2	12
93	50371	610	47
93	50443	616.40076602607	63
93	50454	617.309194299701	8
93	50498	621.110547326401	37
93	50521	623.013683890835	18
93	50605	630.421468271147	73
93	50638	633.322677249563	28
93	50661	635.230310144113	18
93	50741	642.231883256442	69
93	50778	645.532561911651	32
93	51035	659.3	113
93	51099	665	56
93	51211	675.00111444761	99
93	51276	680.705722062307	56
93	51356	687.914553994055	71
93	51459	697.020108612462	90
93	51501	700.626557521501	35
93	51523	702.427955232735	17
93	51730	714	80
93	51811	717.8	37
93	51853	719.604185698896	17
93	51937	723.410065136593	37
93	51978	725.218455312586	17
93	52031	727.624628775309	23
93	52259	738.928107909679	112
93	52288	741.432165698306	24
93	52369	748.539051998741	70
93	52491	759.543106837953	109
93	52561	765.747904870692	61
93	52597	769.8	18
93	52653	774.7	48
93	52697	778.507866116911	37
93	52755	783.709265694645	51
93	52830	790.2160188895	64
93	52936	799.820861617417	95
93	53021	807.322898494961	74
93	53191	824.1	141
93	53232	827.9	37
93	53319	835.609686121304	76
93	53418	844.310899328215	86
93	53469	848.815114667027	44
93	53520	853.322120878237	44
93	53616	861.925835524298	85
93	53700	866.2	22
93	53829	872.6	63
93	53894	878.30962150898	56
93	53954	883.716246037117	53
93	54016	889.11855964719	53
93	54035	890.626211854016	14
93	54054	892.13286115148	14
93	54069	893.433599794051	12
93	54213	907.6	116
93	54255	911.3	36
93	54284	913.804779588361	24
93	54327	917.506249453066	36
93	54359	920.115350334564	25
93	54437	927.121305956899	69
93	54511	933.72470215695	65
93	54645	946.9	109
93	54692	951.1	41
93	54765	957.609100804231	64
93	54806	961.113513319203	34
93	54848	964.715246759116	35
93	54891	968.422997662761	36
93	54927	971.624936476404	31
93	54988	978.2	42
93	55056	984.3	60
93	55089	987.20883807609	28
93	55167	994.011776339934	67
93	55238	1000.315949377509	62
93	55392	1016.4	124
93	55435	1020.2	37
93	55475	1023.801734083339	35
93	55569	1032.009901192954	81
93	55586	1033.515509337559	14
93	55602	1034.721599761969	11
93	55608	1035.128314180972	3
93	55644	1038.128990742039	29
93	55685	1044.1	21
93	55746	1049.7	55
93	55783	1052.801670931733	30
93	55818	1055.909201699033	30
93	55881	1061.413536057342	54
93	55945	1067.022549270887	55
93	56014	1073.131058304768	60
93	56164	1088.3	123
93	56209	1092.3	39
93	56259	1096.701719347282	43
93	56281	1098.502079154519	17
93	56315	1101.504629874958	29
93	56378	1107.012337841084	54
93	56448	1113.219872234	61
93	56506	1118.223776554159	49
93	56529	1120.123904493703	18
93	56570	1123.827925004105	36
93	56649	1129.3	33
93	56674	1131.5	21
93	56721	1135.600144319883	40
93	56799	1142.40835445946	67
93	56824	1144.518168747778	20
93	56857	1147.428122394698	28
93	56874	1148.729517461111	12
93	56899	1150.835016901717	20
93	56960	1156.136261597574	52
93	57007	1160.244376192675	40
93	57350	1178.5	145
93	57459	1183.6	50
93	57580	1190.207655450543	65
93	57619	1193.710355530038	34
93	57730	1203.619200109596	98
93	57743	1204.525926546089	8
93	57799	1209.529338908211	49
93	57929	1221.137395142492	115
93	58138	1235.5	115
93	58171	1238.3	27
93	58181	1239.104048803453	7
93	58206	1241.204729776323	20
93	58350	1254.005089664076	127
93	58375	1256.111949683219	20
93	58400	1258.219170116254	20
93	58426	1260.425924766327	21
93	58509	1267.93060901162	74
93	58575	1274.4	44
93	58660	1282	75
93	58725	1287.907725244329	58
93	58821	1296.314663456954	83
93	58905	1303.916507443325	75
93	58954	1308.019709530938	40
93	59006	1312.626626781569	45
93	59071	1320.6	46
93	59117	1324.7	40
93	59143	1326.900584595245	21
93	59275	1338.701932405791	117
93	59314	1342.00701021978	32
93	59398	1349.608709621986	75
93	59486	1358.4	64
93	59528	1362.1	36
93	59590	1367.703718265863	55
93	59653	1373.212683583523	54
93	59705	1377.815597371549	45
93	59744	1381.124443546441	32
93	59766	1382.925765574726	17
93	59856	1390.9332051337	79
93	59901	1394.838222851643	38
93	59963	1402.2	42
93	60019	1407.3	50
93	60122	1416.404828473294	90
93	60181	1421.711719131792	52
93	60246	1427.414513094372	56
93	60296	1431.818317179193	43
93	60351	1436.525960781771	46
93	60515	1453.7	137
93	60578	1459.3	55
93	60661	1466.601898282833	72
93	60740	1473.7101234578	70
93	60799	1478.819362889449	50
93	60829	1481.421548471921	25
93	60905	1488.029747059941	65
93	61005	1499.9	79
93	61025	1501.6	16
93	61062	1504.702586823101	30
93	61084	1506.50393659905	17
93	61151	1512.410488130386	58
93	61238	1520.112534446312	76
93	61310	1526.515099276586	63
93	61397	1534.223995917302	76
93	61479	1541.630740174678	73
93	61548	1547.730920214116	60
93	61606	1552.736676672395	49
93	61695	1561.3	53
93	61777	1568.6	72
93	61840	1574.107601277318	54
93	61892	1578.713566052063	45
93	61983	1586.82300418323	80
93	62081	1595.628189948106	87
93	62170	1603.536309206723	78
93	62280	1613.342852353953	97
93	62397	1623.851162295784	104
93	62452	1626.9	9
93	62556	1631.8	48
93	62688	1637.908687609469	60
93	62718	1639.20974231607	12
93	62870	1646.110717073329	68
93	62990	1651.718601279383	55
93	63046	1654.222917853804	24
93	63138	1658.428743962043	41
93	63236	1662.938709643837	44
93	63558	1675	90
93	63637	1678.5	34
93	63809	1686.402717423734	78
93	63986	1696.302974822641	98
93	63999	1697.409923042877	10
93	64033	1700.216547275107	27
93	64104	1706.51657807335	62
93	64206	1715.72383846041	91
93	64295	1723.629353499088	78
93	64425	1735.231687003508	115
93	64527	1744.237872709516	89
93	64568	1747.93958281579	36
93	64647	1755.7	57
93	64706	1760.9	51
93	64795	1768.809017849175	78
93	64830	1771.917958100416	30
93	64863	1774.620602407626	26
93	64965	1783.82777489377	91
93	65054	1791.733009008002	78
93	65129	1798.240948530757	64
93	65204	1804.948338874091	66
93	65291	1812.654448355773	76
93	65460	1829.9	139
93	65490	1832.4	24
93	65613	1843.503162765146	110
93	65644	1846.010116560199	24
93	65731	1853.918814880059	78
93	65753	1855.726868884214	17
93	65786	1858.434363874469	26
93	65814	1860.836970859083	23
93	65860	1864.844235635243	39
93	65995	1878.7	107
93	66023	1881.2	24
93	66051	1883.602498794503	23
93	66110	1888.711981730821	50
93	66137	1891.015879750627	22
93	66213	1897.822532031021	67
93	66241	1900.030609021281	21
93	66310	1909	50
93	66335	1911.2	21
93	66426	1919.301045410966	80
93	66474	1923.501488906871	41
93	66533	1928.603332853794	50
93	66561	1931.005602416188	23
93	66578	1932.306178077856	12
93	66702	1943.508400984018	111
93	67101	1962.8	168
93	67144	1964.8	19
93	67307	1976.800965818373	119
93	67379	1983.201282685426	63
93	67419	1986.608353379093	33
93	67594	2002.313743580327	156
93	67674	2009.514679605952	71
93	67724	2013.922609886581	43
93	67799	2020.432515184008	64
93	67871	2026.840626060985	63
93	67935	2032.445422937084	55
93	68062	2043.951002649286	114
93	68162	2053.6	76
93	68245	2061	73
93	68317	2067.405223481017	63
93	68373	2072.211042814329	47
93	68451	2079.21811009349	69
93	68544	2087.52023734884	82
93	68637	2095.828931387063	82
93	68697	2102.1	41
93	68701	2102.4	2
93	68810	2112.108381090236	96
93	68826	2113.510984280781	13
93	68845	2115.018448963194	14
93	68865	2116.624473052696	15
93	68910	2120.526139029001	38
93	68944	2123.530158916494	29
93	68970	2125.732505356153	21
93	69004	2128.534327225462	27
93	69439	2150.5	185
93	69528	2154.7	41
93	69564	2156.805475995778	20
93	69602	2160.009377568017	31
93	69629	2162.317309260319	22
93	69689	2167.720477135965	53
93	69718	2170.025368633942	22
93	69751	2172.929426671542	28
93	69785	2175.936412710876	29
93	69818	2178.645207282756	26
93	69864	2182.655198316794	39
93	69900	2185.860505813677	31
93	69971	2193.1	51
93	69996	2195.3	21
93	70193	2213.004626124312	176
93	70312	2223.711303667786	106
93	70471	2231.8	58
93	70548	2235.2	33
93	70626	2238.708029903592	34
93	70686	2241.40928550939	26
93	70808	2247.114246550823	56
93	70816	2247.420075228979	2
93	70868	2249.821238877501	23
93	70987	2255.428679399169	55
93	71028	2258.936442474836	34
93	71052	2260.946190610154	19
93	71079	2263.25487582946	22
93	71107	2265.658430513551	23
93	71223	2277.1	91
93	71265	2280.8	36
93	71316	2285.304725952283	44
93	71372	2290.106569855261	47
93	71560	2307.115307408947	169
93	71579	2308.617321373707	14
93	71615	2311.824688496131	31
93	71666	2316.133484827079	42
93	71691	2318.238934482058	20
93	71717	2320.447030468691	21
93	71745	2322.856252118463	23
93	71833	2332.6	66
93	71852	2334.2	15
93	71876	2336.203246280439	19
93	71888	2337.20931027126	9
93	71912	2339.21282063184	19
93	71952	2342.617624565385	33
93	71973	2344.321454720484	16
93	72048	2351.028895984511	66
93	72072	2353.038710463179	19
93	72148	2359.841411212321	67
93	72202	2364.443865846718	45
93	72226	2366.452913824404	19
93	72541	2383.3	133
93	72601	2386.2	28
93	72631	2388.808954384929	25
93	72701	2395.013019520616	61
93	72745	2398.822211605903	37
93	72784	2402.12954624161	32
93	72864	2409.331663747652	71
93	72919	2415.8	38
93	73017	2424.5	86
93	73087	2430.706284606317	61
93	73156	2436.809146901685	60
93	73194	2440.009892828505	31
93	73270	2446.810532285059	67
93	73388	2457.411260717224	105
93	73466	2465.9	59
93	73508	2469.6	36
93	73571	2475.10243396965	54
93	73598	2477.411604423659	22
93	73622	2479.413116747174	19
93	73688	2485.221074060989	57
93	73714	2487.425628475763	21
93	73802	2495.233990934574	77
93	73987	2511.938292349091	166
93	74348	2522	80
93	74492	2526.5	44
93	74765	2535.004198780944	84
93	74829	2537.01028553771	19
93	75050	2543.920259312979	68
93	75161	2547.323971359712	33
93	75279	2554.426342961286	70
93	75376	2563.131158266177	86
93	75443	2569.035810259585	58
93	75531	2574.4	24
93	75647	2579.8	53
93	75767	2585.300315593495	54
93	75821	2587.800952847325	24
93	75999	2596.010324647936	81
93	76259	2610.311551537145	142
93	76330	2616.613447535269	62
93	76373	2620.317162440738	36
93	76394	2622.017503802843	16
93	76456	2627.619415648888	55
93	76503	2631.728322649552	40
93	76585	2638.928382717916	71
93	76733	2654	120
93	76770	2657.4	33
93	76821	2661.901620231359	44
93	76860	2665.209584531511	32
93	76905	2669.112841393199	38
93	76930	2671.216731910825	20
93	77012	2678.424018228762	71
93	77198	2697.7	157
93	77285	2705.5	77
93	77373	2713.302795983431	77
93	77395	2715.111198778791	17
93	77419	2717.120799375442	19
93	77444	2719.223720419742	20
93	77478	2722.033354575165	27
93	77499	2723.942027387259	18
93	77565	2730.6	46
93	77596	2733.4	27
93	77645	2737.702696872509	42
93	77737	2745.911131998418	81
93	77776	2749.215375574797	32
93	77845	2755.321509965751	60
93	77911	2761.124573326711	57
93	77936	2763.230233498103	20
93	78054	2773.835514321035	105
93	78269	2784.3	83
93	78364	2788.7	43
93	78482	2794.101724545524	53
93	78552	2799.408758534501	52
93	78672	2810.012051477919	105
93	78789	2820.516967584923	104
93	78853	2826.123019008428	55
93	79040	2845.8	158
93	79145	2855.2	93
93	79206	2860.50187109451	52
93	79294	2868.309983323518	77
93	79346	2872.918351391899	45
93	79424	2879.925398584884	69
93	79483	2885.025943236376	50
93	79552	2891.127767290707	60
93	79683	2896.3	23
93	79911	2903.4	70
93	79966	2905.105127812114	16
93	80047	2907.906975222504	27
93	80157	2913.007062725505	50
93	80177	2913.909185871995	8
93	80211	2915.514853744412	15
93	80300	2924.8	68
93	80310	2925.7	8
93	80326	2926.90580121285	11
93	80342	2928.112948848108	11
93	80403	2933.613109167419	54
93	80462	2938.719393064424	50
93	80506	2942.523007433035	37
93	80575	2948.628868000323	60
93	80688	2958.732012446089	100
93	80760	2965.135802135713	63
93	80836	2971.937560024143	67
93	80913	2978.645225153733	66
93	80950	2981.945586858908	32
93	81026	2989.5	55
93	81045	2991.1	15
93	81072	2993.401976081978	22
93	81150	3000.208536393416	67
93	81225	3006.915631296848	66
93	81250	3009.016100427363	20
93	81283	3011.920886155801	28
93	81294	3012.621574431442	6
93	81322	3015.031081580024	23
93	81348	3017.231412447439	21
93	81478	3030.2	102
93	81560	3037.7	74
93	81615	3042.404331704545	46
93	81668	3047.114296513862	46
93	81752	3054.516393386911	73
93	81839	3062.22186283967	76
93	82011	3077.822540342954	155
93	82086	3084.325291796214	64
93	82137	3088.835208633373	44
93	82202	3094.53652320874	56
93	82274	3100.939736057481	63
93	82466	3118.140363187229	171
93	82543	3127.5	55
93	82699	3141.6	140
93	82732	3144.304074230887	26
93	82788	3149.305210649926	49
93	82830	3152.90607633394	35
93	82846	3154.109306302695	11
93	82869	3156.015769562134	18
93	82923	3160.818946528441	47
93	83102	3170.7	67
93	83197	3175.1	43
93	83337	3181.604336672085	64
93	83467	3187.613738917878	59
93	83565	3194.519440448085	68
93	83658	3202.824659764208	82
93	83769	3212.724882031362	98
93	84192	3234	180
93	84343	3241.1	70
93	84456	3250.909067488177	97
93	84551	3259.4171638677	84
93	84743	3276.619382120737	171
93	84801	3281.823780782428	51
93	85027	3302.025852168193	201
93	85122	3310.530158949482	84
93	85128	3310.934992133382	3
93	85157	3313.435249055857	24
93	85214	3318.339836554576	48
93	85293	3325.440283914182	70
93	85333	3328.844079536177	33
93	85449	3341.1	91
93	85494	3345.1	39
93	85539	3349.00766047216	38
93	85668	3360.515039366311	114
93	85771	3369.820613306564	92
93	85827	3374.621404837499	47
93	85873	3378.622356034355	39
93	86003	3390.22706435971	115
93	86026	3392.133654838425	18
93	86128	3401.341968931713	91
93	86148	3402.949287719488	15
93	86277	3414.454890585421	114
93	86387	3426.6	86
93	86422	3429.8	31
93	86516	3438.003560626585	81
93	86547	3440.704805689499	26
93	86575	3443.111313832482	23
93	86634	3448.21921039647	50
93	86662	3450.620106357906	23
93	86889	3473.4	194
93	86913	3475.5	20
93	86972	3480.600569683923	50
93	87160	3497.602159433797	169
93	87230	3503.806975562713	61
93	87346	3514.016038641269	101
93	87417	3520.319704844172	62
93	87467	3524.71986089518	43
93	87475	3525.322569836836	5
93	87637	3541.2	132
93	87692	3546	47
93	87734	3549.800295533861	37
93	87822	3557.608744306463	77
93	87896	3564.014158263971	63
93	88002	3573.614512375787	95
93	88078	3580.217661903738	65
93	88217	3595.1	111
93	88251	3598	28
93	88302	3602.507394390695	44
93	88357	3607.411325706981	48
93	88445	3615.211361093792	77
93	88545	3624.013512047981	87
93	88563	3625.613718108804	15
93	88640	3632.321731176696	66
93	88737	3641.025382165273	86
93	88828	3650.7	67
93	88878	3655.2	44
93	88937	3660.301338021473	50
93	88993	3665.305309145082	49
93	89007	3666.31284466822	9
93	89082	3673.020384767025	66
93	89167	3680.529405717213	74
93	89215	3684.733251468999	41
93	89286	3691.033955586099	62
93	89383	3699.739121083862	86
93	89444	3705.045605516282	52
93	89546	3714.049055490134	89
93	89585	3720.1	21
93	89642	3725.3	51
93	89669	3727.607946219823	22
93	89694	3729.708843632449	20
93	89770	3736.317054586265	65
93	89886	3746.72688830348	103
93	89936	3751.129536828857	43
93	90011	3757.831515081771	66
93	90067	3762.638570983544	47
93	90161	3771.039528370636	83
93	90197	3774.043251426689	29
93	90214	3775.547089749962	14
93	90251	3778.649735779723	30
93	90327	3787.4	54
93	90439	3797.5	100
93	90479	3800.903021155653	33
93	90513	3803.906494913391	29
93	90550	3807.011177467465	30
93	90640	3815.017686492615	79
93	90703	3820.523200443906	54
93	90779	3827.323722296943	67
93	91013	3841	110
93	91088	3847.8	67
93	91166	3854.609776448307	67
93	91266	3863.614576664185	89
93	91299	3866.320855682382	26
93	91374	3873.022636378755	66
93	91449	3879.726553239704	66
93	91493	3883.533201594085	37
93	91594	3892.441475035618	88
93	91696	3901.649082585149	91
93	91795	3911.5	75
93	91896	3920.5	89
93	91969	3927.00483789985	64
93	92067	3935.811765815796	87
93	92150	3943.119169758584	72
93	92236	3950.726532107063	75
93	92291	3955.631226006986	48
93	92339	3961.1	31
93	92421	3968.4	72
93	92495	3975.004865567225	65
93	92628	3986.905702806305	118
93	92672	3990.713636528352	37
93	92686	3991.919938924203	11
93	92736	3996.120343677017	41
93	92772	3999.325505221427	31
93	92790	4000.733283415489	13
93	92822	4003.534012845706	27
93	92878	4008.337030385134	47
93	92921	4014.4	24
93	92944	4016.4	19
93	92993	4020.706391263008	42
93	93063	4026.9116806636	61
93	93096	4029.813186404425	28
93	93105	4030.32063565557	4
93	93128	4032.225544294878	18
93	93233	4044.2	82
93	93285	4048.9	46
93	93332	4053.004023713821	40
93	93356	4055.005945649628	19
93	93436	4062.015826617478	69
93	93491	4066.916911987055	48
93	93567	4073.719857903055	67
93	93664	4082.221257116386	84
93	93722	4087.428749002082	51
93	93789	4093.338200391587	58
93	93873	4100.74222970843	73
93	94075	4121	170
93	94137	4126.5	54
93	94247	4136.308923694503	97
93	94351	4145.717775161503	93
93	94458	4155.22062992436	94
93	94502	4159.027705133758	37
93	94609	4168.537540929459	94
93	94658	4172.837941766383	42
93	94764	4182.23867920952	93
93	94903	4197.3	113
93	94916	4198.3	9
93	94927	4199.202085635673	8
93	95001	4205.807409471025	65
93	95017	4207.01436824973	11
93	95031	4208.024289060987	9
93	95062	4210.724552526893	26
93	95181	4223.6	96
93	95278	4232.2	85
93	95358	4239.402736743288	71
93	95436	4246.205048177766	67
93	95519	4253.705904722269	74
93	95596	4260.415653976431	66
93	95757	4274.92141127456	144
93	95796	4278.228721333909	32
93	95850	4283.030516729272	47
93	95886	4286.037928094073	29
93	96020	4298.045217009634	119
93	96112	4308.8	68
93	96117	4309.2	3
93	96188	4315.502571906284	62
93	96292	4324.70335728398	91
93	96338	4328.709179715343	39
93	96379	4332.216509765091	34
93	96451	4338.616894731694	63
93	96465	4339.824460292046	11
93	96550	4347.326663923835	74
93	96685	4360.9	109
93	96738	4365.7	47
93	96823	4373.203094938895	74
93	96901	4380.006561952165	67
93	96943	4383.809325896249	37
93	97017	4390.215507879598	63
93	97072	4395.118097854837	48
93	97157	4402.624943557016	74
93	97259	4413.8	78
93	97310	4418.2	43
93	97367	4423.309819064363	50
93	97433	4429.115654529648	57
93	97495	4434.517784314924	53
93	97525	4437.127188072123	25
93	97561	4440.131151787913	29
93	97603	4443.934302152553	37
93	97670	4449.836674761794	58
93	97779	4459.544874597309	96
93	97802	4461.44651269909	18
93	97939	4473.750754440738	122
93	98056	4479.8	38
93	98095	4481.6	17
93	98109	4482.104213391642	4
93	98162	4484.410580158084	22
93	98230	4487.615688979403	31
93	98343	4492.72217506348	50
93	98388	4494.730556196403	19
93	98432	4496.738192771633	19
93	98486	4499.238793240328	24
93	98622	4505.547143921289	62
93	98668	4507.64760156689	20
93	98714	4509.751105967255	20
93	98940	4520.8	88
93	99043	4525.7	48
93	99151	4530.605948144162	48
93	99325	4538.707715421756	80
93	99437	4543.80981844338	50
93	99505	4549.813323246032	59
93	99571	4555.621899766482	57
93	99706	4569	110
93	99724	4570.5	14
93	99779	4575.408563807036	48
93	99922	4588.108612546503	126
93	100029	4597.818576444132	96
93	100069	4601.225935022934	33
93	100162	4609.530750551375	82
93	100197	4612.432271711379	28
93	100226	4614.934859785551	24
93	100292	4620.73860732386	57
93	100306	4621.947096931621	11
93	100371	4628.4	44
93	100451	4635.7	72
93	100472	4637.404082965536	16
93	100548	4644.012421961591	65
93	100649	4653.11339700135	90
93	100678	4655.61506761251	24
93	100735	4660.517801132222	48
93	100803	4666.519222418501	59
93	100872	4672.628589289763	60
93	100956	4682	60
93	101010	4686.9	48
93	101097	4694.603681901912	76
93	101171	4701.212552823014	65
93	101233	4706.619139072952	53
93	101285	4711.223478203056	45
93	101388	4720.324878208852	90
93	101440	4724.927329189207	45
93	101470	4727.532849727061	25
93	101561	4735.642555074982	80
93	101665	4744.84607836034	91
93	101756	4752.951801336431	80
93	101885	4766.3	103
93	102019	4778.4	120
93	102065	4782.407107631962	39
93	102159	4790.810752184721	83
93	102172	4791.917637834741	10
93	102212	4795.31963597935	33
93	102436	4815.527818567297	201
93	102489	4820.027893515448	44
93	102545	4827.6	36
93	102605	4832.9	52
93	102686	4840.006406241229	70
93	102722	4843.207593542991	31
93	102785	4848.710743989072	54
93	102805	4850.313928688492	15
93	102818	4851.420685533208	10
93	102843	4855	10
93	102949	4864.5	94
93	103006	4869.605179087684	50
93	103061	4874.30918040031	46
93	103164	4883.614810794956	92
93	103203	4886.915567072824	32
93	103245	4890.520921417848	35
93	103287	4894.122196879373	35
93	103340	4898.828109408416	46
93	103393	4903.535791043433	46
93	103426	4906.239040149418	26
93	103719	4922	120
93	103806	4926	39
93	103984	4934.307063438079	82
93	104062	4937.907067393748	35
93	104169	4944.212478346548	62
93	104269	4953.217671060897	89
93	104304	4956.12255068466	28
93	104368	4961.929097223837	57
93	104414	4965.930094053704	39
93	104523	4975.632789486463	96
93	104554	4978.137077424139	24
93	104739	4994.845104638179	166
93	104796	5001.7	37
93	104854	5006.8	50
93	104885	5009.509119398593	26
93	104920	5012.414839695635	28
93	105016	5021.018054635307	85
93	105152	5029.9	59
93	105173	5031.7	17
93	105228	5036.406540004932	46
93	105241	5037.50801432595	10
93	105295	5042.114109965487	45
93	105347	5046.715780210577	45
93	105400	5051.41943587993	46
93	105460	5056.61950530142	51
93	105576	5069.2	92
93	105610	5072.1	28
93	105636	5074.303902088273	21
93	105648	5075.305753218223	9
93	105671	5077.215149668055	18
93	105742	5083.521023004935	62
93	105752	5084.129624069623	5
93	105803	5091.4	34
93	105838	5094.4	29
93	105884	5098.400965415695	39
93	105971	5106.101777976422	76
93	106049	5113.109611958247	69
93	106145	5121.7103633259	85
93	106233	5129.517100977059	77
93	106283	5133.926317380871	43
93	106304	5135.627547694162	16
93	106362	5140.629747856954	49
93	106428	5146.437658386617	57
93	106511	5153.942839070863	74
93	106587	5160.551538034495	65
93	106689	5171.8	78
93	106762	5178.2	63
93	106809	5182.306075471101	40
93	106874	5188.011630331565	56
93	106944	5194.214065722162	61
93	107014	5200.41789243092	61
93	107100	5208.026038861204	75
93	107139	5214.2	22
93	107280	5227	127
93	107377	5235.709441805232	86
93	107439	5241.118574700482	53
93	107509	5247.325510621639	61
93	107521	5248.125832700377	7
93	107566	5254.5	25
93	107640	5261.2	66
93	107660	5262.802358874168	15
93	107684	5264.803218859014	19
93	107719	5267.907043623261	30
93	107755	5270.910265045094	29
93	107775	5272.510412106423	15
93	107794	5274.018484842278	14
93	107827	5276.927327045683	28
93	107855	5279.334191466624	23
93	107888	5282.042956763404	26
93	107919	5284.749347920634	26
93	107995	5291.554068445397	67
93	108117	5302.364046806736	107
93	108230	5309.6	36
93	108331	5314.2	45
93	108389	5316.802089486934	25
93	108585	5326.209426820552	93
93	108677	5334.409595003853	81
93	108732	5339.319367608051	48
93	108806	5345.922666075853	65
93	108914	5355.526945614176	95
93	109112	5365.9	79
93	109285	5374.3	83
93	109468	5383.208196945036	88
93	109540	5390.210706399662	69
93	109608	5396.811581881802	65
93	109660	5401.815065183184	49
93	109733	5408.915484937982	70
