file 24056 1369060371                                           
version 2
run Join-65-20130520-16:32:49-32715
attr configname Join
attr datetime 20130520-16:32:49
attr experiment "\"Join\""
attr inifile omnetpp.ini
attr iterationvars $0=2048
attr iterationvars2 "$0=2048, $repetition=5"
attr measurement $0=2048
attr network Network
attr processid 32715
attr repetition 5
attr replication #5
attr resultdir results
attr runnumber 65
attr seedset 65
vector 65  Network.dyn_peer[0]  lookupHopsSig:vector  ETV
65	444 23612 5854 33458 20.821830416327 2280.431380329193 887 1 70 18746 516940
