version 2
run Join-10-20130520-16:32:11-32715
attr configname Join
attr datetime 20130520-16:32:11
attr experiment "\"Join\""
attr inifile omnetpp.ini
attr iterationvars $0=64
attr iterationvars2 "$0=64, $repetition=0"
attr measurement $0=64
attr network Network
attr processid 32715
attr repetition 0
attr replication #0
attr resultdir results
attr runnumber 10
attr seedset 10

vector 10  Network.dyn_peer[0]  lookupHopsSig:vector  ETV
10	391	20.5	5
10	395	20.8	2
10	399	21.001467011261	1
10	408	21.707098918156	6
10	416	22.108132728889	3
10	422	22.511130027609	3
10	429	23.016035574403	4
10	449	26.2	2
10	452	26.4	1
10	459	26.90159193732	4
10	465	27.303650392081	3
10	473	27.90415516882	5
10	495	30.4	4
10	498	30.6	1
10	504	31.000615663768	3
10	508	31.202404691837	1
10	513	31.507396998681	2
10	517	31.716255269675	1
10	527	32.125665029416	3
10	544	36.2	2
10	550	36.7	4
10	559	37.401068795784	6
10	566	37.910937686981	4
10	576	38.518383719426	5
10	585	39.220767046584	6
10	592	39.725464899487	4
10	612	42.5	5
10	617	42.9	3
10	623	43.308154557929	3
10	627	43.509994906137	1
10	633	43.916937175878	3
10	641	44.323387897171	3
10	649	44.925494858131	5
10	656	45.425981138185	4
10	666	46.03115957887	5
10	671	46.333645703923	2
10	680	47.043142403804	6
10	704	50.6	6
10	712	51.3	6
10	719	51.80381411537	4
10	726	52.110293039623	2
10	733	52.61951536747	4
10	739	53.02296838891	3
10	746	53.532221957666	4
10	767	56.3	3
10	774	56.9	5
10	779	57.201373732523	2
10	783	57.401522332725	1
10	788	57.708965291955	2
10	795	58.018744284593	2
10	799	58.222211191182	1
10	806	58.727941480221	4
10	812	59.133718122744	3
10	834	62.4	4
10	838	62.7	2
10	844	63.108773352385	3
10	852	63.716945119423	5
10	859	64.02278707771	2
10	867	64.630911726235	5
10	888	68.3	3
10	894	68.8	4
10	900	69.204284507369	3
10	909	69.911726428731	6
10	916	70.218665329394	2
10	923	70.720527807156	4
10	945	74.4	4
10	954	75.2	7
10	959	75.501662021437	2
10	964	75.808198250722	2
10	987	78.5	5
10	997	79.4	8
10	1004	79.900901067354	4
10	1013	80.403023195831	4
10	1019	80.811023883294	3
10	1025	81.220643549296	3
10	1031	81.626294812878	3
10	1039	82.028906216278	3
10	1050	82.93479969339	8
10	1059	83.643437395347	6
10	1079	86.3	3
10	1083	86.6	2
10	1089	87.002959037597	3
10	1095	87.310053944689	2
10	1100	87.619392467133	2
10	1108	88.019699315511	3
10	1113	88.325288310843	2
10	1120	88.829819360867	4
10	1126	89.236543851914	3
10	1134	89.843992492703	5
10	1142	90.24476304534	3
10	1147	90.550335999407	2
10	1169	94.4	4
10	1174	94.8	3
10	1178	95.000234320899	1
10	1188	95.808616934096	7
10	1194	96.017968224292	1
10	1213	100.1	1
10	1218	100.5	3
10	1225	101.008485091829	4
10	1233	101.614295565131	5
10	1237	101.820327194939	1
10	1245	102.222666406503	3
10	1252	102.730477012681	4
10	1262	103.535306804584	7
10	1268	103.94146417335	3
10	1277	104.446934606596	4
10	1283	104.847146258496	3
10	1290	105.355864381587	4
10	1312	108.4	4
10	1316	108.7	2
10	1324	109.204754044282	4
10	1331	109.709885271367	4
10	1342	110.410055571127	6
10	1347	110.714895780059	2
10	1357	111.516884130409	7
10	1381	114.6	6
10	1386	115	3
10	1391	115.300146348737	2
10	1398	115.807005568432	4
10	1406	116.215493209146	3
10	1411	116.518758533506	2
10	1430	120.1	1
10	1434	120.4	2
10	1444	121.204168984137	7
10	1456	122.004178850815	7
10	1464	122.605346145877	5
10	1468	122.812844671258	1
10	1475	123.316231462594	4
10	1498	126.5	5
10	1501	126.7	1
10	1506	127.003729385086	2
10	1512	127.404500239086	3
10	1519	127.912927057824	4
10	1528	128.414986560416	4
10	1536	129.022579525214	5
10	1545	129.728317287523	6
10	1556	130.429975112612	6
10	1565	131.132913428173	6
10	1571	131.540454991458	3
10	1582	132.24701225884	6
10	1588	132.561007881548	2
10	1611	136.5	5
10	1617	137	4
10	1625	137.600968560026	5
10	1630	137.909101720868	2
10	1644	138.918063253191	9
10	1649	139.225911920386	2
10	1654	139.533011399226	2
10	1660	139.936945590318	3
10	1681	142.3	3
10	1687	142.8	4
10	1696	143.501785884504	6
10	1709	144.404358913376	8
10	1718	145.113643872254	6
10	1727	145.821937891494	6
10	1736	146.324718389029	4
10	1742	146.732082216106	3
10	1746	146.936559304757	1
10	1767	150.3	3
10	1771	150.6	2
10	1777	151.002131865664	3
10	1783	151.406584321883	3
10	1793	152.015541411366	5
10	1814	156.3	3
10	1823	157.1	7
10	1833	157.904651333296	7
10	1841	158.31330685947	3
10	1845	158.522136032901	1
10	1851	158.925238869994	3
10	1855	159.127048076007	1
10	1862	159.627300715439	4
10	1866	159.830862460263	1
10	1875	160.331354411845	4
10	1882	160.834404325811	4
10	1889	161.336250594171	4
10	1897	161.943511581706	5
10	1920	164.5	5
10	1924	164.8	2
10	1929	165.1091358173	2
10	1934	165.412673035556	2
10	1938	165.617251530728	1
10	1943	165.919882672464	2
10	1951	166.321184790343	3
10	1956	166.62661244572	2
10	1960	166.834711362413	1
10	1965	167.137272844394	2
10	1970	167.441307542834	2
10	1975	167.744365917076	2
10	1997	170.4	4
10	2000	170.6	1
10	2009	171.302742948192	6
10	2014	171.606847125063	2
10	2019	171.913938184712	2
10	2026	172.218028106785	2
10	2031	172.521585830203	2
10	2049	176.3	3
10	2055	176.8	4
10	2061	177.20568675107	3
10	2067	177.611068226282	3
10	2076	178.111861889158	4
10	2084	178.717452754306	5
10	2088	178.927323555091	1
10	2096	179.528548654917	5
10	2106	180.132207181703	5
10	2126	184.2	2
10	2131	184.6	3
10	2137	185.005112086478	3
10	2141	185.205495994558	1
10	2148	185.714413620281	4
10	2159	186.414935720188	6
10	2214	190.3	3
10	2229	190.9	5
10	2248	191.50723481636	5
10	2258	192.108784456406	5
10	2268	192.918673626153	7
10	2276	193.523246113703	5
10	2282	193.925533936967	3
10	2288	194.135223004496	1
10	2297	194.841370021604	6
10	2303	195.244509086442	3
10	2322	198.1	1
10	2327	198.5	3
10	2332	198.806275618553	2
10	2340	199.314983984947	4
10	2346	199.721298950803	3
10	2353	200.024181482218	2
10	2358	200.327957081707	2
10	2362	200.530705033059	1
10	2366	200.73298345745	1
10	2387	204.3	3
10	2393	204.8	4
10	2399	205.113698892012	2
10	2404	205.41633292367	2
10	2409	205.719817975845	2
10	2416	206.021041335041	2
10	2421	206.324889767173	2
10	2425	206.529477009452	1
10	2433	207.137681157381	5
10	2452	210.1	1
10	2455	210.3	1
10	2461	210.701932537269	3
10	2468	211.210682627737	4
10	2474	211.519930803387	2
10	2479	211.82945724274	2
10	2489	212.437320530723	5
10	2509	216.2	2
10	2515	216.7	4
10	2522	217.209639005255	4
10	2530	217.811572669766	5
10	2549	220.1	1
10	2555	220.6	4
10	2563	221.201467688102	5
10	2572	221.90940513485	6
10	2582	222.510544737883	5
10	2589	223.017777070873	4
10	2598	223.721497359948	6
10	2616	226.3	3
10	2625	227.1	7
10	2634	227.808285313742	6
10	2645	228.51466566459	6
10	2652	229.014689374509	4
10	2662	229.814781585537	7
10	2674	230.617939467179	7
10	2680	231.023374117517	3
10	2686	231.430489475663	3
10	2698	232.233867022119	7
10	2706	232.837130738353	5
10	2725	236.1	1
10	2728	236.3	1
10	2741	237.403841218468	10
10	2747	237.812526726656	3
10	2755	238.21648790462	3
10	2760	238.517571211918	2
10	2764	238.726544011379	1
10	2784	242.2	2
10	2790	242.7	4
10	2794	242.900712734484	1
10	2804	243.702014489935	7
10	2811	244.005061017493	2
10	2822	244.810644362556	7
10	2828	245.218484005454	3
10	2834	245.622771759178	3
10	2855	248.3	3
10	2859	248.6	2
10	2863	248.808784661781	1
10	2869	249.214717355246	3
10	2875	249.62352527584	3
10	2883	250.02568515294	3
10	2890	250.531694695013	4
10	2898	251.134980253343	5
10	2905	251.641432530818	4
10	2916	252.342115258298	6
10	2937	256.3	3
10	2945	257	6
10	2952	257.506917746074	4
10	2961	258.0080877955	4
10	2969	258.609978090021	5
10	2973	258.816851755014	1
10	2981	259.424881830428	5
10	2986	259.72633201658	2
10	2994	260.131479654055	3
10	3001	260.641104937273	4
10	3010	261.256450579822	5
10	3017	261.758228467308	4
10	3038	264.3	3
10	3043	264.7	3
10	3049	265.105086868698	3
10	3055	265.510375407535	3
10	3060	265.811695114168	2
10	3070	266.418658196885	5
10	3082	267.420956297214	9
10	3086	267.623003913315	1
10	3134	270.5	5
10	3140	271	4
10	3147	271.506696855165	4
10	3152	271.816450782348	2
10	3159	272.12051829544	2
10	3166	272.626024903295	4
10	3173	273.129594406097	4
10	3178	273.43024347591	2
10	3199	276.5	5
10	3202	276.7	1
10	3206	276.909969897586	1
10	3215	277.232237967096	2
10	3222	277.737677854682	4
10	3229	278.044676794554	2
10	3234	278.349120629164	2
10	3238	278.549700127252	1
10	3245	279.052707230223	4
10	3253	279.655273305906	5
10	3274	282.3	3
10	3278	282.6	2
10	3284	283.008706156518	3
10	3288	283.210171313332	1
10	3293	283.516114090547	2
10	3299	283.920609238341	3
10	3309	284.522126434817	5
10	3315	284.928140838576	3
10	3323	285.536328054344	5
10	3343	288.2	2
10	3348	288.6	3
10	3357	289.307207999017	6
10	3364	289.808974349474	4
10	3375	290.514482410092	6
10	3379	290.719324396672	1
10	3384	291.027710166783	2
10	3390	291.434845712387	3
10	3397	291.940649025891	4
10	3405	292.34546103878	3
10	3411	292.747306756193	3
10	3416	293.048714340678	2
10	3438	296.4	4
10	3445	297	5
10	3451	297.405167892747	3
10	3462	298.112406097952	6
10	3467	298.418667534651	2
10	3475	299.025384857608	5
10	3494	302.1	1
10	3498	302.4	2
10	3503	302.704133046562	2
10	3508	303.012550038485	2
10	3515	303.517904725681	4
10	3519	303.723062242237	1
10	3527	304.126488673444	3
10	3547	308.2	2
10	3553	308.7	4
10	3559	309.105418873131	3
10	3563	309.314775573103	1
10	3568	309.62303168869	2
10	3573	309.929158980491	2
10	3582	310.435937143462	4
10	3587	310.744364528425	2
10	3593	311.151307294687	3
10	3599	311.553486379048	3
10	3605	311.955678164086	3
10	3627	314.4	4
10	3632	314.8	3
10	3639	315.302258127264	4
10	3644	315.603520639671	2
10	3652	316.004841190976	3
10	3656	316.206373160249	1
10	3678	320.4	4
10	3683	320.8	3
10	3687	321.005810579122	1
10	3693	321.407131398424	3
10	3698	321.708006328937	2
10	3705	322.01526176141	2
10	3727	326.4	4
10	3732	326.8	3
10	3738	327.207327952748	3
10	3742	327.407998137553	1
10	3746	327.608869421162	1
10	3751	327.909987969644	2
10	3760	328.316515249673	3
10	3764	328.524247365922	1
10	3769	328.825595205165	2
10	3790	332.3	3
10	3799	333.1	7
10	3809	333.9075472357	7
10	3819	334.510817622283	5
10	3825	334.913542884049	3
10	3829	335.115163467154	1
10	3833	335.320828637131	1
10	3837	335.521469306244	1
10	3846	336.026236155954	4
10	3855	336.73364952497	6
10	3877	340.4	4
10	3882	340.8	3
10	3888	341.206937373594	3
10	3893	341.515536795565	2
10	3899	341.922719167349	3
10	3910	342.627795461096	6
10	3914	342.835359284669	1
10	3921	343.341119585629	4
10	3933	344.141492805758	7
10	3939	344.544031780438	3
10	3946	345.050820134406	4
10	3968	348.4	4
10	3975	349	5
10	3980	349.300637997272	2
10	3986	349.706779959618	3
10	3994	350.107133387079	3
10	4001	350.522029316901	3
10	4008	351.029368257306	4
10	4013	351.332641408038	2
10	4019	351.735857063852	3
10	4040	354.4	4
10	4044	354.7	2
10	4053	355.311635933503	5
10	4060	355.631278231236	2
10	4080	358.2	2
10	4087	358.8	5
10	4096	359.500193474595	6
10	4107	360.203602594474	6
10	4116	360.905119458757	6
10	4122	361.307626837609	3
10	4133	362.007965862735	6
10	4151	366.3	3
10	4158	366.9	5
10	4164	367.303062530916	3
10	4171	367.811317176168	4
10	4178	368.116999026356	2
10	4183	368.421121400478	2
10	4187	368.624799607468	1
10	4194	369.127331398925	4
10	4214	372.2	2
10	4222	372.9	6
10	4230	373.502162789748	5
10	4236	373.908875358753	3
10	4243	374.215978097185	2
10	4250	374.723041406018	4
10	4260	375.529320029537	7
10	4279	378.1	1
10	4283	378.4	2
10	4293	379.113389224931	6
10	4299	379.518926709344	3
10	4320	382.3	3
10	4329	383.004376639469	6
10	4337	383.613299334015	5
10	4345	384.018999317379	3
10	4351	384.422090368964	3
10	4355	384.623200189826	1
10	4359	384.824556287513	1
10	4365	385.229839122041	3
10	4372	385.737348388572	4
10	4393	388.3	3
10	4398	388.7	3
10	4402	388.903836153561	1
10	4410	389.508135414586	5
10	4419	390.015468449123	4
10	4426	390.523856914991	4
10	4433	391.025157319172	4
10	4456	394.5	5
10	4461	394.9	3
10	4471	395.700588940116	7
10	4478	396.004672806769	2
10	4486	396.605592299647	5
10	4505	400.1	1
10	4512	400.7	5
10	4521	401.40951415969	6
10	4525	401.617623501933	1
10	4530	401.920093715335	2
10	4537	402.22919773654	2
10	4541	402.43516591065	1
10	4564	406.5	5
10	4571	407.006517863702	4
10	4577	407.223511253767	1
10	4585	407.642633043234	3
10	4590	407.858249830782	1
10	4597	408.070519305254	1
10	4606	408.680863814097	5
10	4628	412.4	4
10	4633	412.8	3
10	4641	413.409809240079	5
10	4645	413.609895832752	1
10	4653	414.017253474222	3
10	4676	418.5	5
10	4682	419	4
10	4687	419.30443177086	2
10	4694	419.811656459271	4
10	4701	420.113386956482	2
10	4707	420.520547536568	3
10	4714	421.021692807647	4
10	4719	421.329666908945	2
10	4740	424.3	3
10	4747	424.9	5
10	4753	425.305017459983	3
10	4759	425.714061280273	3
10	4767	426.116917682353	3
10	4773	426.524661363447	3
10	4781	427.131028321697	5
10	4787	427.536292191249	3
10	4805	430.2	2
10	4810	430.6	3
10	4821	431.507620668024	8
10	4826	431.815080316443	2
10	4848	434.4	4
10	4853	434.8	3
10	4860	435.305106313144	4
10	4868	435.905624875749	5
10	4876	436.312079762354	3
10	4882	436.719712577537	3
10	4886	436.921243245681	1
10	4892	437.321655145022	3
10	4896	437.521672741558	1
10	4908	438.232391843232	6
10	4927	442.1	1
10	4932	442.5	3
10	4937	442.801628021204	2
10	4943	443.204418917211	3
10	4950	443.714115251993	4
10	4959	444.215322048392	4
10	4965	444.618197174533	3
10	4985	448.2	2
10	4989	448.5	2
10	4995	448.909149274239	3
10	5002	449.41286433092	4
10	5013	450.115303081869	6
10	5017	450.318279634969	1
10	5025	450.922228217973	5
10	5030	451.226497109341	2
10	5036	451.636199504679	3
10	5044	452.039827505857	3
10	5048	452.242583702198	1
10	5068	456.2	2
10	5075	456.8	5
10	5083	457.405200742902	5
10	5090	457.914047929781	4
10	5097	458.216415290656	2
10	5101	458.425125340412	1
10	5106	458.733664800215	2
10	5110	458.935129509821	1
10	5134	462.6	6
10	5140	463.1	4
10	5148	463.70061087884	5
10	5157	464.208992584319	4
10	5163	464.615995634046	3
10	5170	465.12311594593	4
10	5178	465.724136240544	5
10	5189	466.427210034764	6
10	5194	466.729110630428	2
10	5216	470.4	4
10	5219	470.6	1
10	5225	471.000898116382	3
10	5234	471.702328338264	6
10	5242	472.104273119973	3
10	5249	472.611304039122	4
10	5254	472.917462117823	2
10	5262	473.526624933702	5
10	5282	476.2	2
10	5287	476.6	3
10	5294	477.105628470405	4
10	5298	477.313830022273	1
10	5305	477.816467580186	4
10	5311	478.02253862266	1
10	5331	482.2	2
10	5336	482.6	3
10	5345	483.302950758978	6
10	5357	484.103627080898	7
10	5362	484.405460466404	2
10	5369	484.912569559827	4
10	5377	485.421595190589	4
10	5388	486.12902840289	6
10	5396	486.738323568698	5
10	5421	490.7	7
10	5428	491.3	5
10	5435	491.808320847621	4
10	5441	492.009989041887	1
10	5449	492.610123627472	5
10	5456	493.111563553258	4
10	5462	493.516656907228	3
10	5473	494.217047088962	6
10	5493	498.2	2
10	5497	498.5	2
10	5501	498.700114285212	1
10	5506	499.009161417567	2
10	5514	499.612479857561	5
10	5519	499.920098910595	2
10	5526	500.220713221384	2
10	5549	504.8	8
10	5554	505.2	3
10	5566	506.006169905043	7
10	5574	506.610291242729	5
10	5581	507.119905347697	4
10	5588	507.620288069705	4
10	5613	510.7	7
10	5617	511	2
10	5622	511.307579140213	2
10	5627	511.615672813529	2
10	5635	512.02230225333	3
10	5655	516.2	2
10	5662	516.8	5
10	5667	517.108612943282	2
10	5672	517.413330409363	2
10	5677	517.722443411582	2
10	5687	518.328828170619	5
10	5709	522.4	4
10	5719	523.3	8
10	5724	523.608430448847	2
10	5729	523.909451779927	2
10	5737	524.315622225416	3
10	5743	524.725376270164	3
10	5749	525.126782257435	3
10	5753	525.333470541079	1
10	5775	528.4	4
10	5782	529	5
10	5787	529.308443584719	2
10	5794	529.817761770174	4
10	5804	530.419963230119	5
10	5825	534.3	3
10	5829	534.6	2
10	5836	535.10632168106	4
10	5841	535.412425965554	2
10	5846	535.71771582665	2
10	5850	535.922954525482	1
10	5858	536.327762876225	3
10	5865	536.834159167753	4
10	5888	540.5	5
10	5892	540.8	2
10	5899	541.303035285465	4
10	5906	541.71690682422	3
10	5914	542.118622754463	3
10	5921	542.527825059618	3
10	5944	546.5	5
10	5947	546.7	1
10	5954	547.204866662044	4
10	5959	547.510688891101	2
10	5968	548.012435486186	4
10	5976	548.615393673474	5
10	5980	548.819188548262	1
10	5984	549.022416709645	1
10	5988	549.225203283265	1
10	5994	549.541253261429	2
10	6016	552.4	4
10	6020	552.7	2
10	6026	553.10104014066	3
10	6033	553.606032175172	4
10	6046	554.510049993723	8
10	6052	554.913957564594	3
10	6057	555.124623706827	1
10	6064	555.629672144895	4
10	6072	556.036653754854	3
10	6081	556.54496696429	4
10	6104	560.5	5
10	6107	560.7	1
10	6116	561.402679960003	6
10	6122	561.811523216617	3
10	6132	562.415014571995	5
10	6137	562.724870430545	2
10	6157	566.2	2
10	6162	566.6	3
10	6167	566.905874919535	2
10	6173	567.315208402683	3
10	6181	567.919381289721	5
10	6190	568.425927271751	4
10	6195	568.731981908077	2
10	6200	569.039899825533	2
10	6206	569.443429598982	3
10	6228	572.4	4
10	6235	573	5
10	6240	573.303347967315	2
10	6248	573.910020230574	5
10	6257	574.411152761891	4
10	6265	575.015056568521	5
10	6271	575.424104708285	3
10	6276	575.726261689056	2
10	6285	576.22630392819	4
10	6307	580.4	4
10	6311	580.7	2
10	6317	581.103041098383	3
10	6323	581.512462597568	3
10	6328	581.818466934151	2
10	6335	582.121496231052	2
10	6342	582.623808607444	4
10	6362	586.5	5
10	6365	586.7	1
10	6373	587.300959200642	5
10	6384	588.005306699897	6
10	6390	588.409324678694	3
10	6396	588.819038164614	3
10	6400	589.026348441008	1
10	6420	592.2	2
10	6427	592.8	5
10	6433	593.20938449487	3
10	6441	593.81165888406	5
10	6466	596.7	7
10	6471	597.1	3
10	6478	597.600956068758	4
10	6483	597.907296706279	2
10	6491	598.218354644618	2
10	6511	602.2	2
10	6516	602.6	3
10	6522	603.004705171568	3
10	6527	603.213853002401	1
10	6535	603.817576688195	5
10	6545	604.424649772622	5
10	6554	605.130175752939	6
10	6574	608.2	2
10	6581	608.8	5
10	6585	609.004225478835	1
10	6590	609.307034693559	2
10	6594	609.507416715559	1
10	6598	609.714841191435	1
10	6602	609.916783219153	1
10	6612	610.519771491099	5
10	6632	614.4	4
10	6642	615.3	8
10	6648	615.70434655141	3
10	6657	616.204390627896	4
10	6663	616.605264678909	3
10	6667	616.806662481717	1
10	6671	617.013995512054	1
10	6677	617.416953149086	3
10	6697	620.2	2
10	6705	620.9	6
10	6714	621.600592829387	6
10	6725	622.302692751053	6
10	6731	622.712365506314	3
10	6740	623.420150428029	6
10	6746	623.823756393325	3
10	6766	626.5	5
10	6772	627	4
10	6779	627.501676963092	4
10	6784	627.805455743101	2
10	6790	628.014702569186	1
10	6813	632.5	5
10	6818	632.9	3
10	6822	633.101987586328	1
10	6830	633.709223922401	5
10	6838	634.113999187974	3
10	6846	634.715863287248	5
10	6854	635.32307225458	5
10	6875	638.4	4
10	6880	638.8	3
10	6889	639.509613006666	6
10	6896	640.016943549501	4
10	6900	640.222419525318	1
10	6909	640.929343048125	6
10	6914	641.231571684137	2
10	6923	641.931676438212	6
10	6932	642.633803705173	6
10	6940	643.234661381137	5
