file 27426 1369060620                                           
version 2
run Join-88-20130520-16:36:39-32715
attr configname Join
attr datetime 20130520-16:36:39
attr experiment "\"Join\""
attr inifile omnetpp.ini
attr iterationvars $0=8192
attr iterationvars2 "$0=8192, $repetition=8"
attr measurement $0=8192
attr network Network
attr processid 32715
attr repetition 8
attr replication #8
attr resultdir results
attr runnumber 88
attr seedset 88
vector 88  Network.dyn_peer[0]  lookupHopsSig:vector  ETV
88	444 26982 22298 82782 21.822957024697 4609.659604581598 985 3 158 42036 2293168
