file 19377 1369674127                                           
version 2
run Join-25-20130520-16:32:14-32715
attr configname Join
attr datetime 20130520-16:32:14
attr experiment "\"Join\""
attr inifile omnetpp.ini
attr iterationvars $0=128
attr iterationvars2 "$0=128, $repetition=5"
attr measurement $0=128
attr network Network
attr processid 32715
attr repetition 5
attr replication #5
attr resultdir results
attr runnumber 25
attr seedset 25
vector 25  Network.dyn_peer[0]  lookupHopsSig:vector  ETV
25	441 18936 580 8360 20.051284695867 754.362054185384 788 0 14 3687 21635
