version 2
run Join-22-20130520-16:32:14-32715
attr configname Join
attr datetime 20130520-16:32:14
attr experiment "\"Join\""
attr inifile omnetpp.ini
attr iterationvars $0=128
attr iterationvars2 "$0=128, $repetition=2"
attr measurement $0=128
attr network Network
attr processid 32715
attr repetition 2
attr replication #2
attr resultdir results
attr runnumber 22
attr seedset 22

vector 22  Network.dyn_peer[0]  lookupHopsSig:vector  ETV
22	584	20.426112569055	7
22	592	21.031804921777	5
22	616	24.6	6
22	625	25.4	7
22	635	26.005474306039	5
22	642	26.511376923712	4
22	656	27.713316843475	11
22	666	28.321206951148	5
22	688	32.4	4
22	698	33.3	8
22	709	34.001702844202	6
22	718	34.705656024664	6
22	732	35.914573832516	11
22	744	36.720876737256	7
22	753	37.424289400398	6
22	775	40.4	4
22	788	41.6	11
22	802	42.600855555592	9
22	812	43.40349941821	7
22	824	44.213476261381	7
22	836	45.221975245697	9
22	851	46.330046890259	10
22	865	47.533230394951	11
22	870	47.837763580497	2
22	878	48.244298720134	3
22	902	52.6	6
22	906	52.9	2
22	912	53.306813144844	3
22	917	53.608768806384	2
22	932	54.713196622183	10
22	937	55.022394617075	2
22	957	58.2	2
22	965	58.9	6
22	971	59.208967675818	2
22	978	59.715353299404	4
22	985	60.023148614497	2
22	992	60.52348994635	4
22	998	60.930363742033	3
22	1005	61.435454722758	4
22	1015	62.041202352648	5
22	1023	62.649451372064	5
22	1028	62.952630624474	2
22	1053	66.7	7
22	1059	67.2	4
22	1071	68.009178908409	7
22	1078	68.516202807922	4
22	1086	69.123439221367	5
22	1091	69.430572179233	2
22	1098	69.936163482887	4
22	1109	70.644596295365	6
22	1116	71.145338913585	4
22	1140	74.6	6
22	1158	76.1	14
22	1169	77.006015605961	8
22	1174	77.314590072261	2
22	1182	77.923242328324	5
22	1189	78.22939814569	2
22	1194	78.530081145635	2
22	1204	79.334476992676	7
22	1217	80.244439242346	8
22	1236	84.3	3
22	1245	85.1	7
22	1254	85.803856478706	6
22	1262	86.210618632042	3
22	1275	87.320010732526	10
22	1280	87.62685025327	2
22	1301	90.3	3
22	1310	91.1	7
22	1323	92.002397146197	8
22	1328	92.311434336022	2
22	1334	92.717546689823	3
22	1344	93.524910183733	7
22	1356	94.326836076348	7
22	1375	98.4	4
22	1381	98.9	4
22	1386	99.203103686859	2
22	1395	99.908899904889	6
22	1407	100.713297513121	7
22	1418	101.621035865992	8
22	1426	102.027589959427	3
22	1451	106.7	7
22	1461	107.6	8
22	1470	108.1058908254	4
22	1475	108.406696253882	2
22	1497	112.4	4
22	1508	113.4	9
22	1518	114.00954588083	5
22	1526	114.611562222781	5
22	1536	115.413247564605	7
22	1549	116.319503999706	8
22	1555	116.727697161021	3
22	1560	117.034088228642	2
22	1567	117.538288809474	4
22	1576	118.048270328581	4
22	1582	118.453524252623	3
22	1592	119.259856841202	7
22	1614	122.4	4
22	1623	123.2	7
22	1632	123.904618814729	6
22	1646	124.907921794715	9
22	1656	125.712334165949	7
22	1668	126.514347955694	7
22	1674	126.918964590665	3
22	1683	127.619738966284	6
22	1728	130.2	2
22	1747	130.9	6
22	1755	131.204409969418	2
22	1773	131.905872424095	6
22	1789	132.512685820557	5
22	1797	133.122233878875	5
22	1817	136.2	2
22	1825	136.9	6
22	1830	137.200759721002	2
22	1835	137.506920431572	2
22	1863	141	10
22	1868	141.4	3
22	1873	141.700729065223	2
22	1883	142.310295866066	5
22	1891	142.911131230359	5
22	1898	143.413538934971	4
22	1908	144.020029850125	5
22	1917	144.721675866388	6
22	1923	145.1275433771	3
22	1928	145.435045693133	2
22	1939	146.13876219443	6
22	1964	150.8	8
22	1971	151.4	5
22	1977	151.805753467096	3
22	1984	152.111738344504	2
22	1989	152.414101738104	2
22	1995	152.82387875794	3
22	2002	153.330681013302	4
22	2006	153.539315801453	1
22	2010	153.74411119494	1
22	2020	154.352957287445	5
22	2030	155.16073245344	7
22	2050	158.2	2
22	2054	158.5	2
22	2065	159.404091300119	8
22	2075	160.011920293278	5
22	2085	160.813336121474	7
22	2092	161.319571384172	4
22	2103	162.020426054204	6
22	2114	162.92938823415	8
22	2136	166.6	6
22	2143	167.2	5
22	2155	168.000348993104	7
22	2169	169.203019742294	11
22	2173	169.409004837948	1
22	2179	169.818285695757	3
22	2198	172.1	1
22	2207	172.9	7
22	2214	173.402862745078	4
22	2225	174.109965716841	6
22	2230	174.415903047198	2
22	2235	174.721711193272	2
22	2243	175.32922879083	5
22	2251	175.932612907715	5
22	2261	176.539672631068	5
22	2265	176.746049085683	1
22	2272	177.252753814095	4
22	2277	177.558759284915	2
22	2288	178.262916178308	6
22	2293	178.563219481413	2
22	2320	182.9	9
22	2330	183.8	8
22	2342	184.603510529226	7
22	2352	185.407625815446	7
22	2357	185.716203068526	2
22	2364	186.02539266466	2
22	2373	186.733440249339	6
22	2378	187.037823012054	2
22	2397	190.3	3
22	2405	191	6
22	2412	191.50614385192	4
22	2421	192.008279570119	4
22	2426	192.309955618697	2
22	2433	192.818544733073	4
22	2454	196.3	3
22	2460	196.8	4
22	2467	197.300356834358	4
22	2481	198.305777338004	9
22	2490	199.006611104396	6
22	2500	199.81413105123	7
22	2519	202.1	1
22	2523	202.4	2
22	2533	203.200880808932	7
22	2545	204.003724963722	7
22	2553	204.609330059877	5
22	2565	205.615370938666	9
22	2570	205.917599403417	2
22	2578	206.318845627306	3
22	2582	206.522438349968	1
22	2629	210.3	3
22	2640	210.7	3
22	2649	211.406408615869	6
22	2655	211.719728031218	2
22	2667	212.527274864545	7
22	2676	213.233691248142	6
22	2689	214.142262427301	8
22	2693	214.346217425413	1
22	2699	214.752366850311	3
22	2722	218.5	5
22	2726	218.8	2
22	2731	219.105591263805	2
22	2737	219.511120267632	3
22	2742	219.816396701103	2
22	2766	222.6	6
22	2775	223.4	7
22	2782	223.902382575797	4
22	2793	224.612112634386	6
22	2799	225.020870211291	3
22	2806	225.520994196719	4
22	2810	225.721889208535	1
22	2819	226.231791079501	4
22	2830	227.137966898314	8
22	2843	228.043166761277	8
22	2867	232.6	6
22	2874	233.2	5
22	2880	233.601834000363	3
22	2890	234.206997090848	5
22	2900	235.011838014535	7
22	2923	238.5	5
22	2930	239.1	5
22	2938	239.702562284641	5
22	2946	240.109686477176	3
22	2956	240.914206649301	7
22	2963	241.423045182228	4
22	2967	241.627361263714	1
22	2972	241.929850286598	2
22	2997	244.7	7
22	3005	245.4	6
22	3015	246.003703990709	5
22	3022	246.50464366066	4
22	3030	247.011360146893	4
22	3037	247.513450223203	4
22	3046	248.018484904493	4
22	3050	248.221215326752	1
22	3061	249.12844065886	8
22	3081	252.2	2
22	3088	252.8	5
22	3098	253.606056541842	7
22	3106	254.007388701098	3
22	3131	258.7	7
22	3140	259.5	7
22	3145	259.806273656787	2
22	3155	260.410135592102	5
22	3161	260.819339886301	3
22	3168	261.329166341144	4
22	3179	262.03647745994	6
22	3184	262.344174910146	2
22	3210	266.8	8
22	3213	267	1
22	3222	267.702526933124	6
22	3232	268.307981872325	5
22	3240	268.911165415161	5
22	3251	269.821086156243	8
22	3260	270.322174748124	4
22	3266	270.724424091183	3
22	3274	271.331200387388	5
22	3281	271.832445726362	4
22	3289	272.237492694491	3
22	3299	273.046579276392	7
22	3306	273.44799353936	3
22	3316	274.049114382756	5
22	3323	274.552956400802	4
22	3348	278.7	7
22	3354	279.2	4
22	3358	279.407301432893	1
22	3363	279.71090257442	2
22	3374	280.420075521293	6
22	3382	281.025732499408	5
22	3389	281.529902734936	4
22	3411	284.4	4
22	3421	285.3	8
22	3436	286.408305121699	10
22	3440	286.613050454996	1
22	3444	286.815904273478	1
22	3449	287.120366752921	2
22	3457	287.729051112882	5
22	3483	290.8	8
22	3489	291.3	4
22	3495	291.709815384529	3
22	3506	292.418899374359	6
22	3514	293.019929801501	5
22	3521	293.526937865059	4
22	3530	294.035853193677	4
22	3534	294.239630805952	1
22	3540	294.641181994697	3
22	3547	295.148687628094	4
22	3552	295.454617662509	2
22	3576	298.6	6
22	3581	299	3
22	3592	299.908113438056	8
22	3601	300.411978106272	4
22	3607	300.812043363725	3
22	3616	301.520010707083	6
22	3638	304.4	4
22	3644	304.9	4
22	3653	305.600574714266	6
22	3658	305.902944832131	2
22	3667	306.407943700222	4
22	3673	306.813919236793	3
22	3677	307.01660328248	1
22	3683	307.420665152244	3
22	3693	308.024892551678	5
22	3698	308.33387137823	2
22	3721	312.5	5
22	3729	313.2	6
22	3738	313.905853652604	6
22	3749	314.610275443675	6
22	3761	315.617854193541	9
22	3775	316.619877814013	9
22	3787	317.620598643552	9
22	3800	318.525161584799	8
22	3808	319.127520179445	5
22	3836	323	10
22	3844	323.7	6
22	3854	324.301528402986	5
22	3863	325.004018934296	6
22	3870	325.504625972834	4
22	3880	326.108694912047	5
22	3885	326.416079924365	2
22	3890	326.725242326245	2
22	3900	327.534493572671	7
22	3905	327.843750481722	2
22	3917	328.643834043641	7
22	3939	332.4	4
22	3946	333	5
22	3951	333.309901605381	2
22	3957	333.710073875717	3
22	3965	334.117360176485	3
22	3971	334.518986993379	3
22	3977	334.927480027932	3
22	3984	335.435312675894	4
22	4003	338.3	3
22	4010	338.9	5
22	4016	339.303729016627	3
22	4028	340.108357085897	7
22	4033	340.414635620761	2
22	4047	341.616617779008	11
22	4056	342.122561246883	4
22	4066	342.929049328712	7
22	4077	343.832442749363	8
22	4099	346.5	5
22	4104	346.9	3
22	4113	347.602445553008	6
22	4118	347.904692502371	2
22	4127	348.412688623354	4
22	4139	349.416256040292	9
22	4145	349.823810945513	3
22	4155	350.430247146274	5
22	4164	351.138827647977	6
22	4182	352.545094132991	13
22	4203	356.3	3
22	4214	357.3	9
22	4228	358.308823332409	9
22	4236	358.91090363338	5
22	4253	360.220753463545	12
22	4262	360.921963872037	6
22	4266	361.128896168619	1
22	4271	361.429716219442	2
22	4295	364.6	6
22	4303	365.3	6
22	4309	365.704415119616	3
22	4320	366.413349126607	6
22	4330	367.218804912575	7
22	4342	368.022772171861	7
22	4350	368.62337806812	5
22	4358	369.230770096103	5
22	4382	372.6	6
22	4394	373.7	10
22	4408	374.701625801783	9
22	4421	375.804599521564	10
22	4433	376.612739053995	7
22	4443	377.421779804076	7
22	4455	378.2310283664	7
22	4461	378.639603573902	3
22	4472	379.545329661467	8
22	4477	379.855043352434	2
22	4489	380.662475610616	7
22	4496	381.16395171111	4
22	4506	381.970770108853	7
22	4512	382.1707857297	1
22	4535	386.5	5
22	4540	386.9	3
22	4549	387.60757081238	6
22	4557	388.008511038666	3
22	4562	388.31416000089	2
22	4568	388.718636488654	3
22	4594	392.8	8
22	4601	393.4	5
22	4611	394.007715114196	5
22	4617	394.41684259076	3
22	4629	395.419293588659	9
22	4654	398.7	7
22	4661	399.3	5
22	4666	399.606723448529	2
22	4672	399.910897532852	2
22	4684	400.719203858917	7
22	4691	401.219258884362	4
22	4696	401.521665948783	2
22	4702	401.926827334219	3
22	4714	402.728773354017	7
22	4723	403.43318237405	6
22	4780	406.7	7
22	4791	407.1	3
22	4809	407.800163843783	6
22	4821	408.208363127321	3
22	4834	409.016794444419	7
22	4859	412.7	7
22	4868	413.5	7
22	4877	414.002034187945	4
22	4884	414.502176763726	4
22	4890	414.908877760857	3
22	4895	415.218824617942	2
22	4904	415.920821802383	6
22	4929	418.7	7
22	4939	419.6	8
22	4949	420.208678248252	5
22	4954	420.509976750919	2
22	4959	420.81016712281	2
22	4964	421.110616776499	2
22	4970	421.517552728544	3
22	4979	422.01863185039	4
22	4987	422.622790841415	5
22	5008	426.3	3
22	5012	426.6	2
22	5025	427.700131985011	10
22	5036	428.405778957716	6
22	5045	429.106746170878	6
22	5051	429.508399425494	3
22	5069	432	0
22	5076	432.6	5
22	5083	433.101101460242	4
22	5088	433.403076199769	2
22	5092	433.604929973502	1
22	5100	434.00600783234	3
22	5113	435.111355841951	10
22	5121	435.720506484461	5
22	5133	436.528664594254	7
22	5141	437.131617461686	5
22	5147	437.533526151253	3
22	5158	438.242868439294	6
22	5179	442.3	3
22	5192	443.5	11
22	5202	444.109576179808	5
22	5206	444.315121832086	1
22	5215	445.024480272998	6
22	5237	448.4	4
22	5253	449.9	14
22	5264	450.605579237197	6
22	5274	451.414242350693	7
22	5287	452.314560621391	8
22	5309	456.4	4
22	5321	457.5	10
22	5326	457.803719764528	2
22	5341	458.907362270997	10
22	5346	459.209361618151	2
22	5360	460.217587600286	9
22	5369	460.918104638027	6
22	5380	461.827927534133	8
22	5386	462.036868529231	1
22	5409	466.5	5
22	5414	466.9	3
22	5423	467.607451443844	6
22	5438	468.716257045149	10
22	5448	469.525280377211	7
22	5453	469.828899550179	2
22	5462	470.335420217802	4
22	5487	474.7	7
22	5493	475.2	4
22	5499	475.600787442603	3
22	5509	476.209161282434	5
22	5513	476.413253634028	1
22	5520	476.919917836748	4
22	5528	477.524335733952	5
22	5537	478.031269204986	4
22	5562	482.7	7
22	5569	483.3	5
22	5574	483.607743368588	2
22	5583	484.117261610051	4
22	5594	485.027055921236	8
22	5600	485.430359960871	3
22	5607	485.938759540926	4
22	5616	486.447365156182	4
22	5623	486.858229058836	3
22	5632	487.561037767805	6
22	5643	488.270045181222	6
22	5662	492.2	2
22	5669	492.8	5
22	5673	493.005756127766	1
22	5677	493.21270227525	1
22	5682	493.518292492892	2
22	5693	494.224039507872	6
22	5702	494.929490854098	6
22	5714	495.938328358012	9
22	5737	498.5	5
22	5742	498.9	3
22	5752	499.701919768296	7
22	5765	500.606592645563	8
22	5776	501.51067019306	8
22	5780	501.717992223874	1
22	5791	502.418308696546	6
22	5796	502.719238971131	2
22	5809	503.828536753022	10
22	5818	504.333712319909	4
22	5839	508.4	4
22	5843	508.7	2
22	5857	509.906884690681	11
22	5866	510.413101027355	4
22	5890	514.6	6
22	5900	515.5	8
22	5912	516.306301789153	7
22	5922	517.106475658279	7
22	5932	517.909744545037	7
22	5943	518.616686735373	6
22	5952	519.323883463995	6
22	5974	522.4	4
22	5981	523	5
22	5991	523.802017313232	7
22	6000	524.305302036285	4
22	6005	524.612279934758	2
22	6012	525.118537881191	4
22	6022	525.9222023347	7
22	6028	526.123178436588	1
22	6036	526.729927758238	5
22	6043	527.238658738002	4
22	6069	530.8	8
22	6075	531.3	4
22	6083	531.901593354407	5
22	6094	532.606559886228	6
22	6099	532.910142174373	2
22	6106	533.418562787201	4
22	6111	533.727057770437	2
22	6124	534.63638085365	8
22	6131	535.137898373002	4
22	6140	535.84152845153	6
22	6149	536.345476908875	4
22	6154	536.653540676541	2
22	6161	537.157654769946	4
22	6168	537.658224149841	4
22	6194	540.9	9
22	6199	541.3	3
22	6205	541.707724395201	3
22	6213	542.10795504023	3
22	6221	542.714435734985	5
22	6226	543.015383971639	2
22	6233	543.520704855975	4
22	6255	546.7	7
22	6263	547.301360725995	5
22	6275	548.106331318497	7
22	6284	548.808205020482	6
22	6291	549.313674085581	4
22	6303	550.116801464723	7
22	6313	550.923643019311	7
22	6321	551.524752138771	5
22	6326	551.829404936693	2
22	6332	552.036351569499	1
22	6356	556.6	6
22	6366	557.5	8
22	6380	558.508498705702	9
22	6389	559.216451421512	6
22	6393	559.422591741636	1
22	6404	560.126627211898	6
22	6409	560.432616647117	2
22	6417	561.037233314922	5
22	6424	561.538472978591	4
22	6430	561.941207652077	3
22	6438	562.346161326124	3
22	6445	562.856115415932	4
22	6452	563.364387771207	4
22	6475	566.5	5
22	6479	566.8	2
22	6488	567.500148323678	6
22	6498	568.10041188029	5
22	6504	568.505449619604	3
22	6514	569.315223517628	7
22	6519	569.620879205705	2
22	6539	572.2	2
22	6542	572.4	1
22	6550	573.000951544146	5
22	6556	573.403106431029	3
22	6566	574.012164446778	5
22	6571	574.321060834847	2
22	6577	574.730041920585	3
22	6581	574.933957380883	1
22	6587	575.341403336394	3
22	6610	578.5	5
22	6620	579.4	8
22	6627	579.902471049921	4
22	6636	580.402907152335	4
22	6642	580.803928370273	3
22	6650	581.408819568354	5
22	6661	582.117401520115	6
22	6665	582.320805334622	1
22	6669	582.523058259136	1
22	6679	583.327279105598	7
22	6686	583.831356334378	4
22	6710	586.6	6
22	6715	587	3
22	6724	587.705580991669	6
22	6728	587.907465922806	1
22	6735	588.208858408459	2
22	6740	588.510702141347	2
22	6746	588.92004471238	3
22	6751	589.222352539817	2
22	6759	589.823554738843	5
22	6766	590.127362730348	2
22	6773	590.629013161532	4
22	6788	591.838806845224	11
22	6814	594.8	8
22	6817	595	1
22	6832	596.101376400061	10
22	6844	597.101987534556	9
22	6854	597.911792217697	7
22	6861	598.221578180802	2
22	6882	602.3	3
22	6894	603.4	10
22	6905	604.100617032018	6
22	6917	605.102795618054	9
22	6922	605.407803315048	2
22	6927	605.710842395949	2
22	6935	606.116205850697	3
22	6941	606.517126557039	3
22	6951	607.319179737159	7
22	6958	607.819809409704	4
22	6975	610.1	1
22	6979	610.4	2
22	6985	610.808491555554	3
22	6990	611.110449501019	2
22	6995	611.414455244202	2
22	7006	612.028805338451	5
22	7015	612.735092836038	6
22	7021	612.954043252673	1
22	7045	616.6	6
22	7053	617.3	6
22	7061	617.902433530942	5
22	7072	618.609268006274	6
22	7080	619.216802027883	5
22	7086	619.624640044403	3
22	7095	620.12980535256	4
22	7101	620.532541315218	3
22	7110	621.235796211969	6
22	7119	621.936427456505	6
22	7132	622.843159427679	8
22	7143	623.75045298046	8
22	7155	624.558339835971	7
22	7164	625.263514512069	6
22	7170	625.672267797404	3
22	7193	628.6	6
22	7196	628.8	1
22	7207	629.522240808601	6
22	7211	629.730666109739	1
22	7219	630.140048980115	3
22	7224	630.440488032668	2
22	7232	631.044751588482	5
22	7237	631.348398415726	2
22	7242	631.653059670622	2
22	7247	631.958071961756	2
22	7260	632.86728552549	8
22	7282	636.4	4
22	7289	637	5
22	7305	638.205540599464	11
22	7317	639.209892655517	9
22	7324	639.710520629525	4
22	7335	640.41182269074	6
22	7344	641.112596235708	6
22	7350	641.51335888941	3
22	7356	641.918031421649	3
22	7364	642.320330111657	3
22	7376	643.326172748594	9
22	7387	644.031588719121	6
22	7391	644.231898283087	1
22	7413	648.4	4
22	7421	649.1	6
22	7426	649.405613564436	2
22	7436	650.011825599325	5
22	7446	650.813248048498	7
22	7491	654.2	2
22	7506	654.9	6
22	7512	655.108513993213	1
22	7525	655.513701057431	3
22	7552	656.621337834789	10
22	7574	657.522979319977	8
22	7589	658.326213257856	7
22	7611	662.4	4
22	7616	662.8	3
22	7625	663.501560895193	6
22	7638	664.409802286218	8
22	7649	665.316887222021	8
22	7657	665.917087012303	5
22	7664	666.22023864105	2
22	7674	667.020857937376	7
22	7694	670.4	4
22	7704	671.3	8
22	7710	671.706872727293	3
22	7724	672.715525745974	9
22	7730	673.117746746303	3
22	7744	674.118766245409	9
22	7756	675.123294087075	9
22	7770	676.124315623314	9
22	7793	680.5	5
22	7797	680.8	2
22	7804	681.302744920502	4
22	7810	681.711193042496	3
22	7819	682.211651252317	4
22	7839	686.2	2
22	7849	687.1	8
22	7863	688.10517897258	9
22	7877	689.31331597252	11
22	7881	689.522872327402	1
22	7892	690.230961329535	6
22	7899	690.732154980731	4
22	7907	691.340529641162	5
22	7913	691.746078787797	3
22	7924	692.454062487417	6
22	7946	696.4	4
22	7955	697.2	7
22	7959	697.405511930722	1
22	7969	698.005859130732	5
22	7992	702.5	5
22	7996	702.8	2
22	8004	703.407012438743	5
22	8014	704.011213732475	5
22	8020	704.41457027369	3
22	8026	704.820893026337	3
22	8032	705.228115545742	3
22	8050	708.3	3
22	8058	709	6
22	8063	709.303367877355	2
22	8070	709.804304884601	4
22	8077	710.109233203033	2
22	8083	710.420188330758	2
22	8089	710.821944940981	3
22	8100	711.7290427879	8
22	8107	712.030275957669	2
22	8117	712.831597872095	7
22	8126	713.5415615983	6
22	8130	713.746186167092	1
22	8151	716.3	3
22	8158	716.9	5
22	8169	717.80143389655	8
22	8178	718.310540720135	4
22	8183	718.612870368337	2
22	8202	722.1	1
22	8209	722.7	5
22	8218	723.40463221918	6
22	8232	724.404788798428	9
22	8239	724.906328032839	4
22	8250	725.809300606698	8
22	8264	726.816227601797	9
22	8269	727.119155836631	2
22	8295	730.8	8
22	8298	731	1
22	8305	731.504603914022	4
22	8317	732.314566395275	7
22	8322	732.618642324397	2
22	8334	733.621354333783	9
22	8346	734.427983475247	7
22	8355	735.133627925881	6
22	8375	738.4	4
22	8388	739.6	11
22	8400	740.409408919503	7
22	8412	741.415348733248	9
22	8423	742.118416865061	6
22	8432	742.826006142129	6
22	8448	744.030941621239	11
22	8459	744.934994353353	8
22	8479	748.2	2
22	8488	749	7
22	8493	749.305957635564	2
22	8500	749.808706397437	4
22	8509	750.317203460479	4
22	8516	750.826234400785	4
22	8532	752.03553999827	11
22	8540	752.644727047586	5
22	8554	753.845491697161	11
22	8570	755.049220416973	11
22	8584	756.055439779412	9
22	8596	757.063790108217	9
22	8602	757.469110407133	3
22	8627	760.7	7
22	8631	761	2
22	8637	761.403962079514	3
22	8649	762.212973195602	7
22	8657	762.815319302055	5
22	8667	763.616043805965	7
22	8679	764.417418606179	7
22	8684	764.718578169625	2
22	8692	765.321425939621	5
22	8715	768.5	5
22	8722	769.1	5
22	8731	769.808995677705	6
22	8738	770.116122128502	2
22	8742	770.320623556889	1
22	8748	770.725609998362	3
22	8756	771.329728411693	5
22	8762	771.636074422293	2
22	8782	774.2	2
22	8792	775.1	8
22	8803	775.905994328173	7
22	8809	776.114722020722	1
22	8815	776.524219075737	3
22	8826	777.429289178869	8
22	8833	777.935114336423	4
22	8849	779.13575008683	11
22	8876	782.9	9
22	8881	783.3	3
22	8894	784.209821700227	8
22	8900	784.61945018354	3
22	8907	785.127354761547	4
22	8928	788.4	4
22	8936	789.1	6
22	8943	789.601593582308	4
22	8951	790.210561898873	5
22	8961	791.010819849458	7
22	8969	791.616330123534	5
22	8976	792.121168926355	4
22	8983	792.627794967441	4
22	8993	793.43742182917	7
22	8999	793.840807382103	3
