file 24275 1369674127                                           
version 2
run Join-72-20130520-16:33:12-32715
attr configname Join
attr datetime 20130520-16:33:12
attr experiment "\"Join\""
attr inifile omnetpp.ini
attr iterationvars $0=4096
attr iterationvars2 "$0=4096, $repetition=2"
attr measurement $0=4096
attr network Network
attr processid 32715
attr repetition 2
attr replication #2
attr resultdir results
attr runnumber 72
attr seedset 72
vector 72  Network.dyn_peer[0]  lookupHopsSig:vector  ETV
72	444 23831 11398 46015 22.136516879333 2804.624016100671 885 1 97 24121 833653
