version 2
run Join-7-20130520-16:32:10-32715
attr configname Join
attr datetime 20130520-16:32:10
attr experiment "\"Join\""
attr inifile omnetpp.ini
attr iterationvars $0=32
attr iterationvars2 "$0=32, $repetition=7"
attr measurement $0=32
attr network Network
attr processid 32715
attr repetition 7
attr replication #7
attr resultdir results
attr runnumber 7
attr seedset 7

vector 7  Network.dyn_peer[0]  lookupHopsSig:vector  ETV
7	283	20.2	2
7	287	20.5	2
7	292	20.803088526807	2
7	297	21.109579715325	2
7	302	21.415505662166	2
7	310	21.923431001476	4
7	318	22.332116317234	3
7	323	22.641766027279	2
7	331	23.152652789646	4
7	353	26.4	4
7	356	26.6	1
7	361	26.906617097945	2
7	368	27.415031865038	4
7	373	27.723417531416	2
7	383	28.324728637827	5
7	387	28.530054213772	1
7	406	32.1	1
7	410	32.4	2
7	415	32.707418471961	2
7	419	32.915407421651	1
7	423	33.120265673922	1
7	430	33.525658319968	3
7	449	36.1	1
7	454	36.5	3
7	460	36.903971778114	3
7	465	37.20697596711	2
7	469	37.414834134037	1
7	473	37.616489148017	1
7	494	40.3	3
7	497	40.5	1
7	502	40.805198816806	2
7	509	41.312947820564	4
7	514	41.621628856048	2
7	522	42.029592763072	3
7	527	42.334186377938	2
7	548	46.3	3
7	551	46.5	1
7	558	47.007782136041	4
7	564	47.412761327114	3
7	569	47.72163421665	2
7	590	50.3	3
7	595	50.7	3
7	599	50.902681744643	1
7	605	51.312072858202	3
7	625	54.2	2
7	630	54.6	3
7	636	55.003859036741	3
7	642	55.406624667469	3
7	646	55.608955573804	1
7	654	56.01371321885	3
7	658	56.2154710127	1
7	664	56.623438622274	3
7	668	56.827423680131	1
7	672	57.034596102412	1
7	693	60.3	3
7	698	60.7	3
7	702	60.906407810626	1
7	707	61.20710033131	2
7	712	61.512060501872	2
7	717	61.815631208134	2
7	723	62.020361766212	1
7	743	66.2	2
7	748	66.6	3
7	756	67.205998544346	5
7	762	67.61337653713	3
7	770	68.020658150014	3
7	775	68.321073880013	2
7	780	68.629286156093	2
7	784	68.836863959653	1
7	803	72.1	1
7	807	72.4	2
7	814	72.904202568316	4
7	820	73.308122583875	3
7	824	73.512753946034	1
7	829	73.822149873657	2
7	835	74.022704868693	1
7	840	74.324834054428	2
7	846	74.638381438407	2
7	851	74.944459145954	2
7	871	78.2	2
7	877	78.7	4
7	883	79.101859988879	3
7	888	79.403141467365	2
7	894	79.811264692517	3
7	901	80.113568999217	2
7	921	84.2	2
7	925	84.5	2
7	929	84.707980814084	1
7	936	85.210221600431	4
7	942	85.521412944875	2
7	946	85.725597110802	1
7	950	85.927292348066	1
7	956	86.127483914658	1
7	961	86.435306216143	2
7	965	86.64214395333	1
7	986	90.3	3
7	990	90.6	2
7	995	90.905326448022	2
7	1000	91.210831878464	2
7	1005	91.51880139202	2
7	1009	91.724027303032	1
7	1013	91.933778699837	1
7	1029	94.1	1
7	1035	94.6	4
7	1040	94.905272857877	2
7	1046	95.314039867142	3
7	1054	95.923884524436	5
7	1076	98.4	4
7	1081	98.8	3
7	1087	99.204415297408	3
7	1093	99.613515026364	3
7	1098	99.83033254264	1
7	1117	102.1	1
7	1125	102.8	6
7	1129	103.006649689669	1
7	1134	103.310565622862	2
7	1153	106.1	1
7	1159	106.6	4
7	1164	106.901647166588	2
7	1172	107.508697870279	5
7	1178	107.909053158302	3
7	1199	110.3	3
7	1203	110.6	2
7	1207	110.805284325606	1
7	1216	111.505731988176	6
7	1221	111.714031052446	1
7	1241	114.2	2
7	1245	114.5	2
7	1253	114.91785409898	3
7	1257	115.118086002622	1
7	1262	115.423263803379	2
7	1266	115.628511001743	1
7	1286	118.2	2
7	1289	118.4	1
7	1295	118.707013368704	2
7	1300	119.009165448059	2
7	1305	119.312479020216	2
7	1310	119.612596928075	2
7	1315	119.918500386616	2
7	1336	122.3	3
7	1342	122.8	4
7	1348	123.209762138212	3
7	1353	123.512178167349	2
7	1358	123.817692698251	2
7	1365	124.11779849734	2
7	1369	124.31851565945	1
7	1373	124.526822062724	1
7	1378	124.830222740904	2
7	1382	125.039488870296	1
7	1386	125.241917894225	1
7	1406	128.2	2
7	1411	128.6	3
7	1417	129.008661990379	3
7	1422	129.312168005878	2
7	1426	129.518264153907	1
7	1436	130.120140581256	5
7	1457	134.3	3
7	1463	134.8	4
7	1469	135.106704934562	2
7	1473	135.309477130392	1
7	1479	135.616146819039	2
7	1488	136.120650573472	4
7	1508	140.2	2
7	1514	140.7	4
7	1520	141.106725610271	3
7	1526	141.509963599296	3
7	1531	141.810676996139	2
7	1538	142.11807592535	2
7	1543	142.421683730283	2
7	1549	142.823509435393	3
7	1555	143.22769043084	3
7	1561	143.634650650275	3
7	1569	144.036464693189	3
7	1575	144.441732043827	3
7	1582	144.946942184912	4
7	1601	148.1	1
7	1606	148.5	3
7	1613	149.005097764907	4
7	1618	149.312468645488	2
7	1624	149.719359017192	3
7	1632	150.120961041316	3
7	1641	150.826695321426	6
7	1648	151.328620403558	4
7	1667	154.1	1
7	1671	154.4	2
7	1675	154.609585899533	1
7	1681	155.011648758094	3
7	1686	155.321429276732	2
7	1691	155.630616368802	2
7	1695	155.83268518021	1
7	1716	158.3	3
7	1720	158.6	2
7	1724	158.803694859156	1
7	1728	159.00497422289	1
7	1732	159.207300933838	1
7	1737	159.515570876287	2
7	1741	159.720081662324	1
7	1748	160.022456021509	2
7	1752	160.225219193342	1
7	1771	164.1	1
7	1777	164.6	4
7	1783	165.000517595759	3
7	1790	165.50434270719	4
7	1799	166.004361253633	4
7	1806	166.510862536922	4
7	1810	166.712632261389	1
7	1815	167.01858847249	2
7	1821	167.423972730831	3
7	1827	167.831492266416	3
7	1834	168.136872428339	2
7	1840	168.53748908167	3
7	1847	168.950055014674	3
7	1869	172.5	5
7	1874	172.9	3
7	1882	173.410288466928	4
7	1888	173.814785512062	3
7	1907	176.1	1
7	1910	176.3	1
7	1916	176.706564502927	3
7	1921	177.006606104573	2
7	1928	177.409542509383	3
7	1935	177.919277265095	4
7	1942	178.219643946601	2
7	1947	178.431919739512	1
7	1970	182.5	5
7	1974	182.8	2
7	1981	183.300396285743	4
7	1985	183.501879233095	1
7	1990	183.811765576439	2
7	1999	184.313842529338	4
7	2020	188.3	3
7	2025	188.7	3
7	2032	189.207610847461	4
7	2038	189.609459805616	3
7	2042	189.811340104848	1
7	2049	190.119443674628	2
7	2056	190.622520220568	4
7	2079	194.5	5
7	2085	195	4
7	2089	195.206795967714	1
7	2096	195.707715016202	4
7	2104	196.112210990282	3
7	2110	196.521167090107	3
7	2116	196.925063721158	3
7	2138	200.4	4
7	2142	200.7	2
7	2146	200.901047113025	1
7	2151	201.203662303639	2
7	2155	201.410511343983	1
7	2159	201.618033706851	1
7	2164	201.926202646792	2
7	2171	202.141873030951	1
7	2175	202.348629877276	1
7	2179	202.551050103362	1
7	2184	202.856034821024	2
7	2188	203.063889028226	1
7	2208	206.2	2
7	2214	206.7	4
7	2222	207.303038220934	5
7	2227	207.608845274674	2
7	2231	207.813654527482	1
7	2238	208.116548255576	2
7	2245	208.619698553594	4
7	2251	209.024830987636	3
7	2256	209.325211209723	2
7	2277	212.3	3
7	2283	212.8	4
7	2288	213.108469065616	2
7	2295	213.612201389174	4
7	2303	214.016413926225	3
7	2323	218.2	2
7	2328	218.6	3
7	2333	218.900926511911	2
7	2337	219.101919987045	1
7	2342	219.408249521624	2
7	2347	219.714712062704	2
7	2354	220.01752086512	2
7	2362	220.52333984559	4
7	2382	224.2	2
7	2386	224.5	2
7	2391	224.804575988736	2
7	2397	225.207487091335	3
7	2406	225.916440759176	6
7	2413	226.2219130591	2
7	2433	230.2	2
7	2436	230.4	1
7	2443	230.903279110984	4
7	2450	231.410614934017	4
7	2474	234.6	6
7	2480	235.1	4
7	2484	235.305617406563	1
7	2491	235.811445346802	4
7	2498	236.120386800196	2
7	2517	240.1	1
7	2522	240.5	3
7	2528	240.902432477162	3
7	2534	241.312284673691	3
7	2541	241.819544530903	4
7	2550	242.320701671388	4
7	2557	242.830406251387	4
7	2576	246.1	1
7	2580	246.4	2
7	2586	246.803708749001	3
7	2591	247.107257383025	2
7	2596	247.410872033796	2
7	2601	247.716920669277	2
7	2605	247.92568599082	1
7	2611	248.131315699235	1
7	2617	248.534588635674	3
7	2622	248.840829938844	2
7	2631	249.456636754886	5
7	2650	252.1	1
7	2656	252.500595326561	3
7	2660	252.706765831434	1
7	2664	252.909216924935	1
7	2669	253.213446590121	2
7	2689	256.2	2
7	2694	256.6	3
7	2698	256.801600334579	1
7	2704	257.207592009582	3
7	2709	257.510572142099	2
7	2714	257.721784263684	1
7	2722	258.123810238209	3
7	2728	258.525460005327	3
7	2734	258.934744540579	3
7	2739	259.242523141193	2
7	2759	262.2	2
7	2764	262.6	3
7	2769	262.909311211784	2
7	2775	263.31461326566	3
7	2782	263.817558988693	4
7	2791	264.317990688043	4
7	2796	264.624728744662	2
7	2802	265.034038291458	3
7	2806	265.241210909337	1
7	2812	265.644793164753	3
7	2832	268.2	2
7	2837	268.6	3
7	2842	268.908818126039	2
7	2846	269.109743944073	1
7	2852	269.51246653835	3
7	2861	270.013527130546	4
7	2866	270.217781140364	1
7	2887	274.3	3
7	2891	274.6	2
7	2896	274.906920088538	2
7	2901	275.207390220173	2
7	2921	278.2	2
7	2924	278.4	1
7	2929	278.706374591877	2
7	2936	279.121085429083	3
7	2955	282.1	1
7	2960	282.407630720683	2
7	2966	282.816719997822	3
7	2971	283.126101346084	2
7	2978	283.628462462758	4
7	2999	286.3	3
7	3003	286.6	2
7	3010	287.109992083059	4
7	3015	287.410114964928	2
7	3021	287.810592697073	3
7	3028	288.111252367902	2
7	3033	288.415146846878	2
7	3038	288.723680253661	2
7	3044	289.035357472992	2
7	3064	292.2	2
7	3069	292.6	3
7	3075	293.006093866426	3
7	3082	293.510439476507	4
7	3092	294.114425499382	5
7	3096	294.323129255323	1
7	3102	294.731474042523	3
7	3123	298.3	3
7	3129	298.8	4
7	3133	299.006960286821	1
7	3140	299.514136651164	4
7	3160	302.2	2
7	3164	302.5	2
7	3170	302.90471738317	3
7	3174	303.109576603709	1
7	3179	303.412973877942	2
7	3183	303.618024411595	1
7	3187	303.82266954903	1
7	3206	306.1	1
7	3210	306.4	2
7	3216	306.80664590755	3
7	3221	307.109241618513	2
7	3226	307.412983617523	2
7	3246	310.2	2
7	3251	310.6	3
7	3255	310.806823835943	1
7	3261	311.211590108854	3
7	3266	311.515810124255	2
7	3286	314.2	2
7	3290	314.5	2
7	3297	315.009351746845	4
7	3305	315.61619415211	5
7	3314	316.119354623234	4
7	3320	316.520487879872	3
7	3326	316.929417649937	3
7	3347	320.3	3
7	3351	320.6	2
7	3355	320.809076846081	1
7	3361	321.21700666292	3
7	3366	321.524491342887	2
7	3370	321.725010911872	1
7	3378	322.129197081989	3
7	3400	326.4	4
7	3406	326.9	4
7	3410	327.106741113218	1
7	3415	327.414496462396	2
7	3419	327.616153601666	1
7	3439	330.2	2
7	3445	330.7	4
7	3450	331.005582626746	2
7	3456	331.410444961523	3
7	3462	331.810856683228	3
7	3469	332.117430947049	2
7	3488	336.1	1
7	3491	336.3	1
7	3495	336.502544619003	1
7	3499	336.710932576583	1
7	3506	337.12916870629	3
7	3511	337.43666110744	2
7	3515	337.638215313951	1
7	3519	337.846641469329	1
7	3526	338.152103853576	2
7	3545	342.1	1
7	3550	342.5	3
7	3554	342.704666283966	1
7	3560	343.104948987864	3
7	3566	343.513938997775	3
7	3577	344.219064467796	6
7	3581	344.422015579345	1
7	3602	348.3	3
7	3608	348.8	4
7	3613	349.101081838349	2
7	3618	349.401695421083	2
7	3624	349.810024822131	3
7	3633	350.319568025651	4
7	3655	354.4	4
7	3661	354.9	4
7	3668	355.404971288358	4
7	3677	355.917944153262	4
7	3687	356.525284560079	5
7	3707	360.2	2
7	3712	360.6	3
7	3717	360.904477012967	2
7	3724	361.414125476383	4
7	3731	361.919058641678	4
7	3751	364.2	2
7	3756	364.6	3
7	3761	364.901472300889	2
7	3767	365.305634144602	3
7	3771	365.511028206645	1
7	3775	365.720714888408	1
7	3795	368.2	2
7	3799	368.5	2
7	3803	368.70460304598	1
7	3807	368.911853256923	1
7	3812	369.214598679243	2
7	3818	369.615325663255	3
7	3840	372.4	4
7	3845	372.8	3
7	3851	373.202758845153	3
7	3856	373.512719864392	2
7	3861	373.817217700507	2
7	3868	374.118039801495	2
7	3874	374.527328552652	3
7	3896	378.4	4
7	3899	378.6	1
7	3905	379.004773847518	3
7	3911	379.411217996493	3
7	3918	379.913875001157	4
7	3938	382.2	2
7	3943	382.6	3
7	3948	382.815517181912	1
7	3954	383.128561144849	2
7	3959	383.435684596659	2
7	3977	386	0
7	3980	386.2	1
7	3985	386.509875744287	2
7	3990	386.819774885595	2
7	3994	387.029652005595	1
7	4001	387.440730631102	3
7	4006	387.745740483789	2
7	4026	390.2	2
7	4031	390.6	3
7	4035	390.807819598235	1
7	4041	391.214942865464	3
7	4047	391.618280393212	3
7	4058	392.135702054879	4
7	4064	392.539043935922	3
7	4070	392.944463564313	3
7	4075	393.2521425784	2
7	4095	396.2	2
7	4099	396.5	2
7	4104	396.808950965404	2
7	4111	397.309178928085	4
7	4115	397.517249481281	1
7	4119	397.720211222054	1
7	4123	397.925055911607	1
7	4130	398.225347615388	2
7	4150	402.2	2
7	4154	402.5	2
7	4158	402.709811953529	1
7	4164	402.917869852194	1
7	4171	403.426760091119	4
7	4175	403.63077017641	1
7	4180	403.939346265132	2
7	4187	404.146629860736	1
7	4192	404.350467901729	1
7	4198	404.756037723041	3
7	4219	408.3	3
7	4223	408.6	2
7	4228	408.909504454056	2
7	4233	409.218429691422	2
7	4238	409.52834777846	2
7	4244	409.936403271341	3
7	4250	410.139215588424	1
7	4254	410.346608530793	1
7	4274	414.2	2
7	4277	414.4	1
7	4284	414.905575638979	4
7	4290	415.315557516247	3
7	4296	415.722124563101	3
7	4303	416.023818078191	2
7	4322	420.1	1
7	4326	420.4	2
7	4331	420.709213790791	2
7	4337	421.117567543159	3
7	4341	421.326719553803	1
7	4345	421.536592103205	1
7	4350	421.84602984314	2
7	4358	422.25534514025	3
7	4377	426.1	1
7	4380	426.3	1
7	4386	426.700486925372	3
7	4391	427.007510046448	2
7	4397	427.416670228367	3
7	4416	430.1	1
7	4420	430.4	2
7	4424	430.604617164279	1
7	4431	431.109203306689	4
7	4436	431.413688108142	2
7	4442	431.725449584981	2
7	4463	434.3	3
7	4468	434.603741576496	2
7	4474	434.916474433262	2
7	4478	435.124197622526	1
7	4483	435.432421098207	2
7	4488	435.734770667715	2
7	4499	436.43614604496	6
7	4504	436.739389768052	2
7	4524	440.2	2
7	4529	440.6	3
7	4533	440.8021674199	1
7	4538	441.107156870671	2
7	4558	444.2	2
7	4564	444.7	4
7	4569	445.005749244967	2
7	4574	445.312595845563	2
7	4582	445.921956091827	5
7	4589	446.222328079448	2
7	4610	450.3	3
7	4614	450.6	2
7	4618	450.802069047966	1
7	4622	451.011564817199	1
7	4626	451.215692309638	1
7	4630	451.420996265468	1
7	4634	451.627457541244	1
7	4638	451.83083104162	1
7	4647	452.334696705194	4
7	4665	456	0
7	4669	456.3	2
7	4673	456.508980868638	1
7	4677	456.711021004535	1
7	4681	456.91167260429	1
7	4702	460.3	3
7	4706	460.6	2
7	4713	461.104110291071	4
7	4719	461.506778340939	3
7	4725	461.913782655183	3
7	4731	462.122924029262	1
7	4737	462.52812132248	3
7	4744	463.02979117566	4
7	4764	466.2	2
7	4767	466.4	1
7	4772	466.704882183582	2
7	4780	467.039811151992	2
7	4785	467.341676537124	2
7	4790	467.557400061382	1
7	4799	468.058643779927	4
7	4817	472	0
7	4821	472.3	2
7	4826	472.606218282638	2
7	4830	472.807107352329	1
7	4835	473.113251487185	2
7	4840	473.417204257429	2
7	4845	473.721124647736	2
7	4852	474.021866524502	2
7	4857	474.323348191702	2
7	4876	478.1	1
7	4882	478.6	4
7	4889	479.106862174724	4
7	4894	479.412615765679	2
7	4899	479.719601232061	2
7	4906	480.026610406465	2
7	4910	480.22740398521	1
7	4915	480.536809559468	2
7	4920	480.838449382194	2
7	4925	481.045965451984	1
7	4944	484.1	1
7	4948	484.306927826842	1
7	4952	484.516529273774	1
7	4957	484.817135720717	2
7	4961	485.026075233312	1
7	4966	485.331333752034	2
7	4972	485.733376291807	3
7	4992	488.2	2
7	4999	488.8	5
7	5006	489.307965329301	4
7	5012	489.713665305811	3
7	5020	490.115290643104	3
7	5024	490.318975876098	1
7	5045	494.3	3
7	5050	494.7	3
7	5056	495.108505390647	3
7	5061	495.414341163418	2
7	5066	495.627919846753	1
7	5086	498.2	2
7	5089	498.4	1
7	5094	498.708678495306	2
7	5100	499.109810600645	3
7	5107	499.523862617852	3
7	5127	502.2	2
7	5130	502.4	1
7	5134	502.603656221406	1
7	5140	502.909703565152	2
7	5144	503.116005017993	1
7	5149	503.419881863901	2
7	5153	503.623257158044	1
7	5158	503.932397007664	2
7	5178	506.2	2
7	5182	506.5	2
7	5187	506.804786986878	2
7	5196	507.220275947142	3
7	5201	507.431452542315	1
7	5206	507.740760205008	2
7	5214	508.14205093901	3
7	5235	512.3	3
7	5239	512.6	2
7	5245	513.004228272063	3
7	5249	513.208993859032	1
7	5256	513.71458046205	4
7	5264	514.114974547672	3
7	5270	514.51638535413	3
7	5275	514.81955642543	2
7	5295	518.2	2
7	5299	518.5	2
7	5303	518.708122479582	1
7	5309	519.1172923333	3
7	5313	519.323680878625	1
7	5320	519.82952436501	4
7	5329	520.32994206988	4
7	5335	520.739275746878	3
7	5340	521.046728354084	2
7	5359	524.2	2
7	5365	524.601169668554	3
7	5369	524.801169733746	1
7	5374	525.107241109261	2
7	5381	525.511755539963	3
7	5387	525.912272938999	3
7	5392	526.118428688392	1
