file 19040 1369060333                                           
version 2
run Join-18-20130520-16:32:13-32715
attr configname Join
attr datetime 20130520-16:32:13
attr experiment "\"Join\""
attr inifile omnetpp.ini
attr iterationvars $0=64
attr iterationvars2 "$0=64, $repetition=8"
attr measurement $0=64
attr network Network
attr processid 32715
attr repetition 8
attr replication #8
attr resultdir results
attr runnumber 18
attr seedset 18
vector 18  Network.dyn_peer[0]  lookupHopsSig:vector  ETV
18	438 18602 433 6938 22.6 654.213257935125 776 0 9 2575 10727
