version 2
run Join-95-20130520-16:43:58-32715
attr configname Join
attr datetime 20130520-16:43:58
attr experiment "\"Join\""
attr inifile omnetpp.ini
attr iterationvars $0=16384
attr iterationvars2 "$0=16384, $repetition=5"
attr measurement $0=16384
attr network Network
attr processid 32715
attr repetition 5
attr replication #5
attr resultdir results
attr runnumber 95
attr seedset 95

vector 95  Network.dyn_peer[0]  lookupHopsSig:vector  ETV
95	43500	20.005579465575	20
95	43609	29.915566743443	98
95	43627	31.323724904631	13
95	43739	41.323965908899	99
95	43871	53.125598430973	117
95	43964	62.9	69
95	44040	69.8	68
95	44120	76.8033724023	69
95	44230	86.613268166526	97
95	44351	97.521875502126	108
95	44388	100.625856687674	30
95	44599	112	80
95	44742	120.3	82
95	44856	130.502881494322	101
95	44898	134.109770809881	35
95	44984	141.911922397495	77
95	45174	151.3	73
95	45314	159.8	84
95	45420	169.208405384263	93
95	45476	174.013725987961	47
95	45522	178.016346761853	39
95	45721	189.7	77
95	45938	199.6	98
95	46001	202.905624906304	32
95	46063	208.306465959353	53
95	46177	218.507926499389	101
95	46232	223.41595385197	48
95	46302	229.616519738372	61
95	46370	235.623585095579	59
95	46572	255	170
95	46662	263.1	80
95	46741	270.008566893471	68
95	46821	277.212274937694	71
95	46965	290.014135325615	127
95	47007	293.81860725252	37
95	47066	298.926477137555	50
95	47114	303.134221060169	41
95	47197	310.443807961584	72
95	47292	318.951141558174	84
95	47374	326.152049391428	71
95	47507	336.8	68
95	47605	345.7	88
95	47700	354.004531502923	82
95	47765	359.913531476868	58
95	47826	365.218081322155	52
95	47935	374.918620931337	96
95	48025	382.91956761967	79
95	48155	394.520601110172	115
95	48199	398.330284637769	37
95	48303	405.2	32
95	48511	415.1	98
95	48593	422.303521178895	71
95	48672	429.411908306443	70
95	48701	431.916767961134	24
95	48773	438.122063296465	61
95	48853	445.331905957904	71
95	49075	466.9	189
95	49162	474.7	77
95	49168	475.102168394299	3
95	49205	478.209551569721	30
95	49220	479.511270882146	12
95	49258	482.714097506721	31
95	49300	486.323763976209	35
95	49435	498.432966218979	120
95	49462	502.9	9
95	49579	513.5	105
95	49699	524.100418016142	105
95	49772	530.603563370639	64
95	49891	541.303707325509	106
95	50013	552.10818709063	107
95	50089	558.910135933725	67
95	50195	568.312171330687	93
95	50225	570.916316463237	25
95	50270	574.819719744988	38
95	50313	578.529102383723	36
95	50436	589.63270962848	110
95	50483	593.736489699388	40
95	50575	601.941075435719	81
95	50735	609.9	59
95	50876	616.5	65
95	50931	621.40111282312	48
95	51039	631.005382181121	95
95	51147	640.606634455752	95
95	51257	652.4	84
95	51353	661.1	86
95	51461	670.702674292952	95
95	51568	680.207226683566	94
95	51614	684.214084316227	39
95	51641	686.523595791848	22
95	51655	687.732848709134	11
95	51741	696.5	65
95	51782	700.1	35
95	51830	704.306277825774	41
95	51854	706.312009952773	19
95	51943	714.216233928868	78
95	51991	718.41745898814	41
95	52088	727.117679784356	86
95	52186	735.918540778853	87
95	52308	746.719172672777	107
95	52316	747.323796278872	5
95	52329	748.233421359872	8
95	52423	756.633432470056	83
95	52481	763.8	38
95	52524	767.6	37
95	52561	770.709150997109	30
95	52647	778.318862371514	75
95	52671	780.32425774282	19
95	52750	787.431782333314	70
95	52803	793.3	33
95	52858	798.1	47
95	52906	802.304283124774	41
95	52938	805.104808084717	27
95	53000	810.512018378895	53
95	53060	815.91716093354	53
95	53186	827.126138587669	111
95	53369	845.1	151
95	53455	852.8	76
95	53498	856.509573398726	36
95	53579	863.814602170982	72
95	53645	869.624565677214	57
95	53690	873.532201900749	38
95	53723	876.240744459802	26
95	53803	883.448068366391	71
95	53848	887.351479287047	38
95	53943	895.8585527133	84
95	54056	906.7	87
95	54104	911	42
95	54156	915.601760056687	45
95	54230	922.010092287913	63
95	54315	929.717092303279	76
95	54402	937.422481209634	76
95	54479	944.13080602586	66
95	54564	951.840083884878	76
95	54624	957.040483593262	51
95	54705	964.146976175816	70
95	54872	979.4	114
95	54943	985.8	63
95	55017	992.203811682208	63
95	55061	996.013278776045	37
95	55170	1005.915510596734	98
95	55268	1014.522794942556	85
95	55347	1021.623810257309	70
95	55434	1030.6	66
95	55498	1036.3	56
95	55557	1041.601292022867	52
95	55635	1048.40607928001	67
95	55713	1055.406322281986	69
95	55750	1058.515884809346	30
95	55785	1061.62483790027	30
95	55817	1064.23429424077	25
95	55897	1071.444126585982	71
95	55904	1071.952060751653	4
95	55927	1073.852607256619	18
95	56023	1082.25269203972	83
95	56088	1087.3	13
95	56265	1095.5	81
95	56446	1104.202671801778	86
95	56527	1111.50319853672	72
95	56598	1117.806984962685	62
95	56618	1119.408037552036	15
95	56632	1120.41507913593	9
95	56708	1127.221848632402	67
95	56782	1133.829983617374	65
95	56927	1147.7	117
95	56969	1151.4	36
95	57120	1164.900936391116	134
95	57316	1182.508884044794	175
95	57391	1189.215147960231	66
95	57470	1197.7	57
95	57545	1204.3	65
95	57618	1210.802902999685	64
95	57711	1219.110120024962	82
95	57793	1226.311168719606	71
95	57847	1231.115610282045	47
95	57909	1236.517109341489	53
95	57958	1240.823618829914	42
95	58093	1254.7	107
95	58140	1258.9	41
95	58156	1260.107046747987	11
95	58185	1262.610850882313	24
95	58208	1264.5154432641	18
95	58305	1273.22446179433	86
95	58324	1274.732844892376	14
95	58348	1276.734930026627	19
95	58403	1281.640501530925	48
95	58450	1285.746386121774	40
95	58484	1288.554658201238	27
95	58547	1294.064316254408	54
95	58646	1299.4	14
95	58811	1304.6	51
95	59046	1313.602205985207	89
95	59180	1319.802252391748	61
95	59324	1326.507975440711	66
95	59383	1329.116769614632	25
95	59461	1332.723646461633	35
95	59550	1339.225823293912	64
95	59599	1343.528059867552	42
95	59641	1347.136900444772	35
95	59720	1354.037161463574	68
95	60133	1375.8	178
95	60304	1383.8	79
95	60414	1388.800277026267	49
95	60530	1394.102449303615	52
95	60554	1395.21040577231	10
95	60586	1396.617784303657	13
95	60678	1400.818149254035	41
95	60738	1403.626539963953	27
95	60928	1413.1	71
95	61009	1416.9	37
95	61081	1420.100651760979	31
95	61116	1422.006594001271	18
95	61201	1429.707087026657	76
95	61412	1440.2	82
95	61595	1448.8	85
95	61769	1456.802241536646	79
95	61971	1466.206767116344	93
95	62085	1471.511582995002	52
95	62269	1480.017663730416	84
95	62419	1487.027134314282	69
95	62634	1498	80
95	62703	1501.3	32
95	62774	1506.500639103853	51
95	62827	1511.205383472828	46
95	62870	1514.91073323387	36
95	62964	1519.2	12
95	63062	1523.5	42
95	63108	1525.605775820126	20
95	63125	1526.215189001178	5
95	63307	1534.722327234991	84
95	63379	1538.024289206761	32
95	63505	1543.92874573607	58
95	63637	1550.038693029191	60
95	63737	1554.64172287255	45
95	63829	1558.946084954745	42
95	63929	1563.546356152465	45
95	63993	1566.455130695764	28
95	64284	1581.3	113
95	64421	1591.4	100
95	64460	1594.700105618503	32
95	64543	1602.002610996096	72
95	64659	1612.403900462077	103
95	64992	1624.7	87
95	65149	1630.3	55
95	65169	1631.706645704964	13
95	65225	1636.514701502229	47
95	65316	1644.618360748827	80
95	65364	1648.819378220485	41
95	65384	1650.425894166139	15
95	65460	1657.233628391377	67
95	65525	1662.942967361549	56
95	65533	1663.545963470991	5
95	65550	1664.846729283897	12
95	65594	1670.6	26
95	65660	1676.5	58
95	65704	1680.305417954374	37
95	65735	1683.009319804328	26
95	65777	1686.611506375154	35
95	65828	1691.113516984533	44
95	65871	1694.822119768229	36
95	65967	1705.5	75
95	65997	1708	24
95	66047	1712.401417004894	43
95	66074	1714.711310958063	22
95	66130	1719.720169841334	49
95	66166	1722.724497734197	29
95	66238	1729.125571123268	63
95	66392	1744.7	127
95	66441	1749.1	43
95	66477	1752.101148587923	29
95	66489	1753.104452602953	9
95	66538	1757.413149787547	42
95	66606	1763.417185315998	59
95	66654	1767.623216202068	41
95	66723	1773.728794166508	60
95	66762	1777.037979320918	32
95	66826	1782.647197014497	55
95	66885	1787.95517039604	52
95	66995	1798.5	85
95	67042	1802.7	41
95	67073	1805.403479387923	26
95	67167	1813.808987816192	83
95	67211	1817.617151463035	37
95	67281	1823.821608056429	61
95	67380	1832.530666369754	86
95	67470	1840.534301202348	79
95	67702	1851.3	73
95	67789	1855.3	39
95	67919	1861.307246182635	59
95	68071	1868.409684199073	70
95	68319	1879.917894364096	114
95	68602	1893.5	115
95	68745	1900.1	65
95	68795	1902.408808634071	22
95	68839	1904.412858708365	19
95	68887	1906.522354525545	20
95	68993	1911.430909924419	48
95	69184	1921.538422738341	100
95	69281	1930.046113208133	84
95	69384	1939.349158654493	92
95	69410	1941.552829811035	21
95	69488	1948.355693635719	67
95	69555	1954.256963695163	58
95	69665	1964.062302045567	97
95	69734	1970.165058237294	60
95	69865	1984.4	104
95	69914	1988.8	43
95	69981	1994.708188709379	58
95	70039	1999.91501488425	51
95	70070	2002.419103264961	24
95	70140	2008.621999174422	61
95	70279	2021.131938408885	124
95	70365	2028.737514444102	75
95	70394	2031.237548528915	24
95	70454	2036.441418846536	51
95	70548	2044.84837771207	83
95	70595	2048.958277895568	40
95	70681	2056.567083797863	75
95	70750	2064.9	49
95	70789	2068.3	33
95	70885	2076.901858253201	85
95	70934	2081.205145898411	42
95	70976	2084.80570142549	35
95	71102	2096.014352265279	111
95	71162	2101.417020672975	53
95	71261	2110.119725150196	86
95	71320	2115.427406366386	52
95	71414	2123.834715756075	83
95	71502	2131.64312110295	77
95	71598	2140.048040419299	83
95	71676	2147.051713844152	69
95	71749	2153.560118007907	64
95	71817	2159.563584803543	59
95	71904	2167.264372458453	76
95	72012	2176.874196878375	95
95	72169	2192.8	128
95	72252	2200.2	73
95	72298	2204.207377066826	39
95	72361	2209.909660608039	56
95	72421	2215.110592456221	51
95	72514	2223.41610281237	82
95	72660	2236.423656748363	129
95	72712	2241.029027190459	45
95	72782	2247.234973934932	61
95	72856	2253.839312544517	65
95	72944	2261.647778757531	77
95	73019	2268.1495230023	64
95	73089	2274.356200262424	61
95	73358	2289	110
95	73397	2291.3	22
95	73418	2293.008468250622	16
95	73427	2293.708771152888	6
95	73453	2295.910221838059	21
95	73483	2298.317654698346	23
95	73519	2301.521605046982	31
95	73668	2316.2	122
95	73744	2323.1	68
95	73819	2329.80504931207	66
95	73982	2344.31175325351	144
95	74058	2351.113835804471	67
95	74154	2359.721111348137	85
95	74209	2364.430047215305	46
95	74241	2367.235140897345	27
95	74309	2373.242110647607	59
95	74373	2378.845509053199	55
95	74421	2383.054549715377	41
95	74513	2391.261733303787	81
95	74736	2402.8	88
95	74855	2408.3	54
95	74945	2412.501200263747	41
95	75043	2417.005083408169	44
95	75101	2419.715062352264	26
95	75188	2423.724835847444	39
95	75294	2428.531026109478	47
95	75569	2442.6	106
95	75692	2448.4	57
95	75940	2459.907759394622	114
95	76041	2466.309075390344	63
95	76119	2473.317290299752	69
95	76177	2478.319523894757	49
95	76253	2485.125397121105	67
95	76295	2488.735086259536	35
95	76417	2499.739998212309	109
95	76442	2501.849129000896	20
95	76525	2509.151920995782	72
95	76533	2509.757540774301	5
95	76610	2516.464488391026	66
95	76663	2521.169389561281	46
95	76724	2528	40
95	76784	2533.5	54
95	76819	2536.400273394817	28
95	76875	2541.409772328834	49
95	76920	2545.319108881046	38
95	76969	2549.621614098687	42
95	77013	2553.426549272645	37
95	77079	2559.23434911436	57
95	77150	2567.1	51
95	77206	2572	48
95	77292	2579.806022040406	77
95	77351	2584.907738541089	50
95	77457	2594.309568267575	93
95	77528	2600.60977720694	62
95	77619	2608.709856257162	80
95	77703	2616.115628151148	73
95	77787	2626.2	62
95	77860	2632.8	65
95	77904	2636.602672596294	37
95	77970	2642.412654564678	57
95	77994	2644.416214368463	19
95	78050	2649.421369423266	49
95	78111	2654.721823789282	52
95	78154	2658.423066803084	36
95	78373	2674.5	125
95	78408	2677.7	31
95	78529	2688.409027845661	106
95	78587	2693.614784472726	51
95	78655	2699.62416667417	59
95	78710	2704.332442513497	46
95	78772	2709.938749063876	55
95	78795	2711.847290171368	18
95	78826	2714.347922388764	24
95	79110	2730.6	126
95	79275	2745.6	149
95	79287	2746.407960500321	7
95	79318	2749.112459405285	26
95	79415	2757.815226670391	86
95	79522	2767.322199691258	94
95	79571	2771.632148997763	42
95	79629	2776.632586228803	49
95	79916	2791.8	118
95	80075	2799.2	73
95	80211	2805.505717680279	62
95	80291	2809.11043886786	35
95	80367	2812.616552084892	34
95	80489	2818.221738310831	55
95	80544	2820.627923724755	23
95	80596	2822.935886377833	22
95	80644	2825.136791867109	21
95	80738	2829.442270601129	42
95	80862	2835.244504908414	57
95	81114	2846.952203090274	116
95	81212	2855.062015968751	80
95	81286	2861.663739675822	65
95	81318	2864.268890069579	25
95	81337	2865.977402958038	16
95	81421	2873.386820465379	73
95	81498	2881.5	55
95	81550	2886	44
95	81681	2897.905954559696	118
95	81697	2899.112730215051	11
95	81826	2910.61481686605	114
95	81955	2922.122542025303	114
95	81978	2924.023590818029	18
95	82094	2937.3	93
95	82134	2940.8	34
95	82263	2952.300526942471	114
95	82390	2963.806037006583	114
95	82429	2967.109276407111	32
95	82561	2978.917565960424	117
95	82635	2985.51759877587	65
95	82779	2998.31832608521	127
95	82911	3010.125645951221	117
95	83012	3019.226647254219	90
95	83208	3026.4	44
95	83497	3035.6	91
95	83570	3038.705111040284	30
95	83646	3042.112678924542	33
95	83749	3046.918437933958	47
95	83868	3052.420474523502	54
95	83953	3056.325417992785	38
95	84071	3061.828078181115	54
95	84189	3069.5310288926	76
95	84255	3075.337893206206	57
95	84364	3085.042142053827	96
95	84450	3092.647312687503	75
95	84566	3103.050887099905	103
95	84661	3113.1	71
95	84670	3113.9	7
95	84715	3117.807982194207	38
95	84745	3120.210991393991	23
95	84815	3128.8	48
95	84837	3130.7	18
95	84899	3136.103539225105	53
95	84916	3137.605447588613	14
95	84983	3143.511794445706	58
95	85075	3151.714682222425	81
95	85134	3156.814761381442	50
95	85162	3159.219158868544	23
95	85234	3165.620540928711	63
95	85258	3167.624454431904	19
95	85344	3175.226335412645	75
95	85519	3192.3	143
95	85617	3201.2	88
95	85680	3206.700933911148	54
95	85707	3209.008685483738	22
95	85762	3213.918466909626	48
95	85822	3219.119361902727	51
95	85844	3220.921126512566	17
95	85891	3225.026564630411	40
95	85989	3233.835009238819	87
95	86130	3247.5	115
95	86187	3252.5	49
95	86254	3258.406095814073	58
95	86283	3260.912628777526	24
95	86374	3269.021399972378	80
95	86401	3271.330294750528	22
95	86508	3280.839236738204	94
95	86635	3292.145029350649	112
95	86675	3295.754524589049	35
95	86710	3298.65961471258	28
95	86798	3308.5	65
95	86844	3312.6	40
95	86907	3318.103339180597	54
95	86992	3325.804598610403	76
95	87016	3327.804632396464	19
95	87074	3332.81285244454	49
95	87137	3338.315811499767	54
95	87193	3345.9	39
95	87259	3351.8	58
95	87334	3358.306407287241	64
95	87407	3364.814539864104	64
95	87518	3374.724502322877	98
95	87543	3376.83293920195	20
95	87561	3378.239789241946	13
95	87704	3391.147653012629	128
95	87735	3393.848431498938	26
95	87859	3404.85232984688	109
95	88184	3421.6	136
95	88299	3427	53
95	88411	3432.109973836687	50
95	88464	3434.516875808922	23
95	88682	3444.624629668324	100
95	88801	3450.333180101053	56
95	88905	3459.739793526495	93
95	88929	3461.744764922472	19
95	88985	3466.549916985795	47
95	89121	3477.9	79
95	89224	3487.1	91
95	89312	3494.908932326722	77
95	89418	3504.315053294824	93
95	89522	3513.715098660487	93
95	89585	3519.21523518517	54
95	89623	3522.420663346155	31
95	89733	3532.226292125175	97
95	89837	3541.632560477279	93
95	89891	3546.233187956308	45
95	89945	3551.041759556684	47
95	90019	3555.8	18
95	90146	3561.8	59
95	90311	3569.30586725732	74
95	90409	3573.911052119246	45
95	90549	3580.217831550453	62
95	90575	3581.426325782952	11
95	90716	3590.42682399672	89
95	90799	3597.931033398078	74
95	90944	3611.7	117
95	91040	3620.2	84
95	91102	3625.804915084454	55
95	91202	3634.609012095424	87
95	91239	3637.911977308097	32
95	91307	3643.921763207065	59
95	91712	3657.9	119
95	91757	3659.9	19
95	91873	3665.204914287307	52
95	91880	3665.40973113688	1
95	91920	3667.117908496899	16
95	91984	3670.018448276464	28
95	92042	3674.927470337129	48
95	92103	3682.2	42
95	92135	3685.1	28
95	92145	3685.900651036496	7
95	92179	3688.710368644119	27
95	92196	3690.018439946604	12
95	92304	3699.820661064459	97
95	92332	3702.02582594767	21
95	92358	3704.235731462668	21
95	92372	3705.442265812923	11
95	92390	3706.847716145641	13
95	92416	3709.05002584686	21
95	92431	3710.158027784051	10
95	92459	3715.2	12
95	92548	3723.2	79
95	92607	3728.309090336351	50
95	92688	3735.615933236874	72
95	92772	3743.022992481876	73
95	92783	3743.923380200541	8
95	92833	3748.131225650894	41
95	92886	3752.83829165808	46
95	92985	3761.745682045014	88
95	93252	3774.9	109
95	93465	3784.8	98
95	93697	3795.706926652947	108
95	93797	3800.207573806845	44
95	93949	3807.31301466582	70
95	94097	3814.115010609886	67
95	94180	3822.4	44
95	94244	3828.1	56
95	94296	3832.706016422137	45
95	94358	3838.107900324027	53
95	94407	3842.414474965784	42
95	94464	3847.518637644402	50
95	94523	3852.619153995432	50
95	94679	3868.9	129
95	94769	3877	80
95	94881	3887.007870388403	99
95	94975	3895.413627852261	83
95	95065	3903.41728046449	79
95	95152	3911.125165537647	76
95	95242	3919.129041307773	79
95	95287	3923.033444021995	38
95	95380	3931.338474920637	82
95	95492	3942.8	88
95	95530	3946.1	32
95	95602	3952.507759844355	63
95	95654	3957.110944428166	45
95	95686	3959.919147161463	27
95	95727	3963.422027843788	34
95	95828	3972.330399504609	88
95	95888	3977.736140700648	53
95	95930	3981.338099096514	35
95	95956	3983.543879162458	21
95	96005	3987.849929863427	42
95	96051	3991.849932525151	39
95	96097	3995.850458971215	39
95	96158	4001.160316282573	52
95	96270	4007.6	36
95	96422	4014.5	68
95	96532	4019.703855018294	51
95	96596	4022.509238126836	27
95	96736	4030.515406517155	79
95	96757	4032.221488331632	16
95	96838	4039.523107088886	72
95	96966	4052	100
95	97048	4059.5	74
95	97091	4063.205576043473	36
95	97159	4069.210349823056	59
95	97246	4076.916649802952	76
95	97313	4082.821496013378	58
95	97340	4085.125200120786	22
95	97479	4099.4	114
95	97566	4107.2	77
95	97611	4111.106991782959	38
95	97696	4118.60999428875	74
95	97771	4125.314063447089	66
95	97864	4133.623154024166	82
95	98077	4142.3	63
95	98135	4145	26
95	98253	4150.401008966134	53
95	98339	4154.40213016661	39
95	98392	4159.107132498546	46
95	98419	4161.416173889363	22
95	98500	4168.525729991682	70
95	98531	4171.233598987348	26
95	98571	4174.633945282487	33
95	98628	4179.742096672778	50
95	98712	4187.142988564954	73
95	98781	4193.2495451838	60
95	98841	4198.454415954143	51
95	98893	4203.061578632715	45
95	98979	4210.662933502167	75
95	99024	4214.571954921584	38
95	99156	4224.1	61
95	99206	4228.6	44
95	99322	4239.003925747624	103
95	99421	4247.913425040442	88
95	99496	4254.422657055683	64
95	99628	4266.226275652135	117
95	99662	4269.235650873331	29
95	99708	4273.243632928356	39
95	99804	4281.844472375569	85
95	99843	4285.149225323557	32
95	99848	4285.455564508967	2
95	99894	4289.459719248619	39
95	99951	4295.7	37
95	99997	4299.8	40
95	100052	4304.504880120824	46
95	100063	4305.413861761961	8
95	100075	4306.213958238388	7
95	100110	4309.321330802721	30
95	100130	4310.923956027604	15
95	100147	4312.228026422167	12
95	100179	4315.029240028483	27
95	100330	4328.532003197963	134
95	100341	4329.440972593708	8
95	100383	4333.049849616274	35
95	100475	4342.8	68
95	100593	4353.5	106
95	100636	4357.201281569628	36
95	100658	4359.004176955264	17
95	100729	4365.308740233845	62
95	100802	4371.814197104711	64
95	100867	4377.518366752013	56
95	100922	4382.224181643361	46
95	101041	4395.5	95
95	101093	4400	44
95	101133	4403.603375875658	35
95	101180	4407.704915742135	40
95	101227	4411.814119887318	40
95	101245	4413.221409691226	13
95	101303	4418.230365722289	49
95	101353	4422.637522413733	43
95	101453	4431.638380561836	89
95	101530	4438.344180835787	66
95	101620	4448.8	68
95	101691	4455.2	63
95	101803	4465.207140687049	99
95	101828	4467.314926945712	20
95	101889	4472.618242659052	52
95	101913	4474.628033403372	19
95	102010	4483.330585746778	86
95	102080	4489.539082385214	61
95	102108	4491.941051662797	23
95	102189	4499.050165735629	70
95	102207	4500.457382416416	13
95	102279	4509	50
95	102377	4517.9	88
95	102455	4524.700069209516	67
95	102480	4526.807527879611	20
95	102520	4530.214618856848	33
95	102619	4539.119616127444	88
95	102693	4545.723686188747	65
95	102822	4558.4	104
95	102902	4565.7	72
95	102980	4572.500517303089	67
95	103030	4576.908066954184	43
95	103133	4586.01594793152	90
95	103231	4594.823885896016	87
95	103274	4598.530978817281	36
95	103392	4609.133341229586	105
95	103589	4619.5	75
95	103724	4625.6	60
95	103902	4633.904748142145	82
95	104000	4638.407831033624	44
95	104160	4645.912063745367	74
95	104410	4657.612810428994	116
95	104518	4665.714661955336	80
95	104610	4673.920107077565	81
95	104705	4682.222359638903	82
95	104780	4688.926383350589	66
95	104870	4696.929230059918	79
95	104965	4705.435963101647	84
95	105041	4712.036487774501	65
95	105257	4731.643031381844	195
95	105315	4737.8	38
95	105361	4741.9	40
95	105425	4747.501122166162	55
95	105451	4749.706360730902	21
95	105526	4756.210940086511	64
95	105610	4763.814697836146	75
95	105775	4778.514913479257	146
95	105821	4782.516715654118	39
95	105918	4793.3	73
95	105958	4796.8	34
95	105975	4798.109964852833	12
95	106093	4808.717406318974	105
95	106159	4814.518129253763	57
95	106276	4825.025288182672	104
95	106319	4828.732310832464	36
95	106400	4838	60
95	106460	4843.5	54
95	106522	4848.901261524194	53
95	106566	4852.70651857714	37
95	106592	4854.909728976521	21
95	106646	4859.714781861785	47
95	106678	4862.321199449356	25
95	106771	4873.2	72
95	106798	4875.6	23
95	106840	4879.201986998096	35
95	106906	4885.010421014663	57
95	106972	4890.81896159744	57
95	107125	4904.525527361287	136
95	107219	4912.93134959155	83
95	107271	4917.538390049357	45
95	107295	4919.548386838424	19
95	107384	4927.45156281032	78
95	107419	4931.7	17
95	107472	4936.3	45
95	107511	4939.802495928814	34
95	107552	4943.309512400713	34
95	107603	4947.810004012516	44
95	107661	4952.81483484248	49
95	107735	4959.422608192447	65
95	107786	4963.92341876144	44
95	107810	4965.927992183044	19
95	107859	4970.028391237193	40
95	107911	4974.63577843319	45
95	107935	4976.640260320064	19
95	108002	4984.7	47
95	108046	4988.6	38
95	108071	4990.707833901222	20
95	108231	5005.114773159969	143
95	108323	5013.317111769638	81
95	108370	5017.422657140747	40
95	108484	5027.625836635203	101
95	108536	5032.027291292379	43
95	108585	5036.336549447927	42
95	108631	5040.344385899194	39
95	108674	5044.05284859515	36
95	108854	5062.9	149
95	108938	5070.4	74
95	109027	5078.309288394984	78
95	109109	5085.717328705023	73
95	109124	5086.82135737948	10
95	109180	5091.822875212886	49
95	109237	5096.730776338694	48
95	109264	5099.03570933178	22
95	109425	5105.3	33
95	109541	5109	36
95	109815	5121.701070094385	126
95	109835	5122.506428131083	7
95	109961	5128.408130450962	58
95	110066	5133.314940137146	48
95	110108	5135.215974069468	18
95	110169	5138.716738211398	34
95	110194	5140.820205456057	20
95	110247	5145.521661758766	46
95	110291	5149.326553186891	37
95	110396	5160	80
95	110465	5166.2	61
95	110560	5174.700177055215	84
95	110601	5178.200727447736	34
95	110648	5182.309460151713	40
95	110694	5186.319325129087	39
95	110788	5194.728473473181	83
95	110836	5198.933380811416	41
95	110882	5202.938407767046	39
95	110909	5205.2442052795	22
95	111068	5213.7	57
95	111275	5223.3	95
95	111487	5233.108892265153	97
95	111611	5238.812791829407	56
95	111697	5242.813591876961	39
95	111865	5250.621702138438	77
95	112031	5258.321953705471	76
95	112159	5264.222591240067	58
95	112336	5272.724411775221	84
95	112402	5277.5	15
95	112626	5288	104
95	112688	5290.907721204406	28
95	112801	5297.416580210022	64
95	112844	5301.124497925884	36
95	112915	5307.425810462413	62
95	112971	5312.228369242979	47
95	113007	5315.436036390456	31
95	113056	5319.741161666853	42
95	113115	5324.845621417961	50
95	113194	5331.950647650465	70
95	113277	5340	60
95	113338	5345.6	55
95	113416	5352.407221486	67
95	113461	5356.307956479463	38
95	113496	5359.410899041924	30
95	113581	5366.911805054566	74
95	113601	5368.512325350003	15
95	113629	5370.915260631792	23
95	113695	5376.724504715644	57
95	113753	5383.8	38
95	113815	5389.3	54
95	113872	5394.206327621135	48
95	113954	5401.615228140295	73
95	113992	5404.81551016149	31
95	114033	5408.323748418657	34
95	114062	5410.826429413739	24
95	114119	5415.92659807201	50
95	114238	5426.426635803296	104
95	114303	5432.13198479542	56
95	114354	5436.632241107306	44
95	114421	5442.533830871823	58
95	114608	5459.437812538536	168
95	114638	5463.2	12
95	114666	5465.7	24
95	114809	5478.400880910116	126
95	114879	5484.601787760462	61
95	114897	5486.004632576545	13
95	114903	5486.409583636726	3
95	114907	5486.610191523492	1
95	114966	5491.914985580119	52
95	115029	5497.420554504222	54
95	115344	5513.2	132
95	115355	5513.6	3
95	115457	5518.20655032267	45
95	115614	5525.614379946751	73
95	115671	5530.521172669742	48
95	115694	5532.427955073171	18
95	115751	5537.528274057308	50
95	115835	5544.937590170419	73
95	115892	5551.7	37
95	115953	5557.1	53
95	116061	5566.707231556617	95
95	116161	5575.708709253184	89
95	116224	5581.212669008147	54
95	116304	5588.213289178045	69
95	116394	5596.222930797898	79
95	116498	5605.629216002587	93
95	116602	5614.834047271411	91
95	116679	5621.737019525288	68
95	116774	5630.037120462603	82
95	116881	5639.738140063998	96
95	116983	5648.748131114144	89
95	117087	5655.2	32
95	117290	5664.7	94
95	117394	5669.501765800253	47
95	117529	5675.708134774239	61
95	117566	5678.812153637059	30
95	117622	5685.6	36
95	117684	5691.1	54
95	117772	5698.902784672551	77
95	117802	5701.504482027647	25
95	117914	5711.508998140397	99
95	118017	5720.614568377917	90
95	118219	5742.5	185
95	118269	5747.4	48
95	118321	5752.409565757105	49
95	118384	5758.513514993744	60
95	118395	5759.415894298913	8
95	118469	5766.625332282216	71
95	118540	5773.531248333056	68
95	118630	5782.339834039616	87
95	118722	5791.347355096963	89
