file 20451 1369060336                                           
version 2
run Join-29-20130520-16:32:15-32715
attr configname Join
attr datetime 20130520-16:32:15
attr experiment "\"Join\""
attr inifile omnetpp.ini
attr iterationvars $0=128
attr iterationvars2 "$0=128, $repetition=9"
attr measurement $0=128
attr network Network
attr processid 32715
attr repetition 9
attr replication #9
attr resultdir results
attr runnumber 29
attr seedset 29
vector 29  Network.dyn_peer[0]  lookupHopsSig:vector  ETV
29	441 20010 588 8945 20.618823762975 796.436211293399 827 0 16 4074 25186
