version 2
run Join-3-20130520-16:32:10-32715
attr configname Join
attr datetime 20130520-16:32:10
attr experiment "\"Join\""
attr inifile omnetpp.ini
attr iterationvars $0=32
attr iterationvars2 "$0=32, $repetition=3"
attr measurement $0=32
attr network Network
attr processid 32715
attr repetition 3
attr replication #3
attr resultdir results
attr runnumber 3
attr seedset 3

vector 3  Network.dyn_peer[0]  lookupHopsSig:vector  ETV
3	297	22.2	2
3	302	22.6	3
3	310	23.205216043367	5
3	314	23.409667493886	1
3	321	23.911093487349	4
3	341	26.2	2
3	344	26.4	1
3	351	26.909716026093	4
3	356	27.212910976444	2
3	360	27.415216818511	1
3	367	27.915429075913	4
3	376	28.422343851009	4
3	380	28.627168309034	1
3	401	32.3	3
3	404	32.5	1
3	408	32.704750886065	1
3	413	33.013931186289	2
3	417	33.219897824063	1
3	423	33.621967485419	3
3	428	33.922637179645	2
3	434	34.131894507489	1
3	455	38.3	3
3	458	38.5	1
3	463	38.801518609926	2
3	470	39.311421621811	4
3	474	39.512422665251	1
3	478	39.719349171415	1
3	485	40.020642110046	2
3	489	40.228163510346	1
3	493	40.43369628766	1
3	501	41.034858453563	5
3	505	41.236736601812	1
3	526	44.3	3
3	530	44.6	2
3	535	44.903295713579	2
3	540	45.208705910311	2
3	560	48.2	2
3	567	48.8	5
3	575	49.404247299507	5
3	581	49.813514556353	3
3	589	50.22171236364	3
3	593	50.43010429424	1
3	600	50.935817141688	4
3	620	54.2	2
3	625	54.6	3
3	629	54.808421031879	1
3	634	55.111920284097	2
3	638	55.319367807329	1
3	644	55.727095194164	3
3	648	55.933698453189	1
3	654	56.142663419768	1
3	658	56.351803172388	1
3	678	60.2	2
3	681	60.4	1
3	686	60.708819084477	2
3	690	60.914347530214	1
3	697	61.419801356382	4
3	703	61.821765162159	3
3	711	62.230045383329	3
3	718	62.731966106298	4
3	724	63.13430302639	3
3	745	66.3	3
3	750	66.7	3
3	755	67.009720983607	2
3	761	67.417382511167	3
3	768	67.925892225388	4
3	776	68.327774733868	3
3	781	68.633210677166	2
3	785	68.837904490289	1
3	791	69.238802398965	3
3	811	72.2	2
3	815	72.5	2
3	821	72.902984068538	3
3	826	73.21086025054	2
3	830	73.413548323827	1
3	851	76.3	3
3	855	76.6	2
3	861	77.002179857692	3
3	866	77.30790223389	2
3	872	77.709674367737	3
3	880	78.113098563605	3
3	886	78.513834800251	3
3	890	78.719931257398	1
3	896	79.12885518932	3
3	917	82.3	3
3	921	82.6	2
3	926	82.909999754638	2
3	931	83.21414102385	2
3	937	83.517311590648	2
3	943	83.919883654428	3
3	951	84.22474380339	2
3	970	88.1	1
3	975	88.5	3
3	981	88.904789782983	3
3	986	89.213142246088	2
3	994	89.815890051204	5
3	1001	90.117353213427	2
3	1006	90.423875444675	2
3	1011	90.733829876423	2
3	1033	94.4	4
3	1036	94.6	1
3	1042	95.000701325079	3
3	1046	95.20561948056	1
3	1052	95.606196795437	3
3	1056	95.807493379277	1
3	1064	96.208322089424	3
3	1068	96.416922624053	1
3	1074	96.826519695958	3
3	1078	97.028703674976	1
3	1082	97.234111283329	1
3	1104	100.4	4
3	1107	100.6	1
3	1111	100.809912957209	1
3	1115	101.012516407947	1
3	1119	101.2140931055	1
3	1123	101.42101288059	1
3	1127	101.625719540402	1
3	1132	101.934675243695	2
3	1152	104.4	4
3	1157	104.8	3
3	1161	105.006967499877	1
3	1168	105.515608696573	4
3	1172	105.723092773769	1
3	1179	106.026001498224	2
3	1201	110.4	4
3	1205	110.600815710425	1
3	1211	111.007765344809	3
3	1216	111.31084218209	2
3	1221	111.619256378268	2
3	1226	111.924866240939	2
3	1235	112.341336365816	3
3	1240	112.644927441106	2
3	1245	112.945876254444	2
3	1265	116.4	4
3	1269	116.7	2
3	1274	117.00313819112	2
3	1279	117.309633923705	2
3	1285	117.713829751318	3
3	1292	118.016929367664	2
3	1298	118.334115025733	2
3	1305	118.835652427798	4
3	1311	119.240619077343	3
3	1317	119.649420325232	3
3	1339	122.4	4
3	1343	122.7	2
3	1348	123.006234036136	2
3	1353	123.309911065964	2
3	1358	123.619889189962	2
3	1366	124.021938587655	3
3	1385	128.1	1
3	1390	128.5	3
3	1395	128.803024982914	2
3	1400	129.112677264401	2
3	1404	129.313736481649	1
3	1410	129.720724581672	3
3	1414	129.923587622955	1
3	1421	130.22841259334	2
3	1440	134.1	1
3	1445	134.5	3
3	1451	134.906976656643	3
3	1456	135.215698451785	2
3	1462	135.615953730513	3
3	1470	136.016875046417	3
3	1477	136.526160034881	4
3	1484	136.931950292364	3
3	1490	137.340267903262	3
3	1494	137.548268476533	1
3	1499	137.856751515492	2
3	1519	140.2	2
3	1524	140.6	3
3	1530	140.906622760493	2
3	1534	141.111058637282	1
3	1538	141.316453102297	1
3	1546	141.922883852085	5
3	1566	144.2	2
3	1574	144.9	6
3	1578	145.105347348707	1
3	1589	145.916906315599	7
3	1599	146.520985485581	5
3	1605	146.923293848259	3
3	1611	147.324350440304	3
3	1623	148.134003373824	7
3	1628	148.43839340083	2
3	1650	152.4	4
3	1655	152.8	3
3	1660	153.109485276481	2
3	1665	153.416686788818	2
3	1670	153.723691906628	2
3	1674	153.927792819975	1
3	1697	156.5	5
3	1701	156.8	2
3	1705	157.000556415459	1
3	1710	157.302780178654	2
3	1714	157.510207551381	1
3	1718	157.713775008265	1
3	1722	157.916821872545	1
3	1728	158.124649447849	1
3	1732	158.329817291522	1
3	1739	158.834311303454	4
3	1744	159.135873927722	2
3	1749	159.440643245364	2
3	1756	159.950422769491	4
3	1775	162.1	1
3	1779	162.4	2
3	1784	162.702624273479	2
3	1790	163.10336465143	3
3	1813	166.5	5
3	1818	166.9	3
3	1823	167.20361083775	2
3	1827	167.412453252034	1
3	1834	167.728813273466	2
3	1841	168.02949877269	2
3	1847	168.23522957335	1
3	1868	172.3	3
3	1871	172.5	1
3	1875	172.701837723159	1
3	1881	173.111766958729	3
3	1901	176.2	2
3	1907	176.7	4
3	1913	177.105833119091	3
3	1919	177.515623891639	3
3	1924	177.821829018459	2
3	1934	178.424762563597	5
3	1940	178.828490678629	3
3	1945	179.133033796437	2
3	1949	179.339221162272	1
3	1969	182.2	2
3	1978	183	7
3	1984	183.314161724538	2
3	1996	184.120076984587	7
3	2006	184.92160787761	7
3	2011	185.22285409511	2
3	2016	185.525087324887	2
3	2021	185.82539661685	2
3	2044	188.5	5
3	2047	188.7	1
3	2054	189.200007455202	4
3	2059	189.502753829897	2
3	2064	189.803056943473	2
3	2070	190.012476087108	1
3	2092	194.4	4
3	2096	194.7	2
3	2100	194.906795018077	1
3	2108	195.233132482717	2
3	2114	195.544306376625	2
3	2138	198.6	6
3	2143	199	3
3	2152	199.701807403289	6
3	2161	200.206201618564	4
3	2181	204.2	2
3	2185	204.5	2
3	2193	205.009109802028	4
3	2200	205.517043028809	4
3	2219	208.1	1
3	2226	208.7	5
3	2231	209.002643255258	2
3	2236	209.309023784072	2
3	2244	209.913126986142	5
3	2252	210.319678325251	3
3	2259	210.829038047043	4
3	2264	211.129042835198	2
3	2285	214.3	3
3	2288	214.5	1
3	2292	214.707020201254	1
3	2298	215.114711538168	3
3	2302	215.320382203672	1
3	2309	215.820632456497	4
3	2317	216.226748394861	3
3	2337	220.2	2
3	2340	220.4	1
3	2346	220.805839300926	3
3	2354	221.405881965332	5
3	2364	222.006887742459	5
3	2369	222.309353097133	2
3	2373	222.514372330566	1
3	2395	226.4	4
3	2401	226.802946934928	3
3	2407	227.121217096493	2
3	2411	227.328119858171	1
3	2415	227.537832080533	1
3	2435	230.2	2
3	2440	230.6	3
3	2445	230.908444469796	2
3	2450	231.214771027491	2
3	2455	231.520944473753	2
3	2460	231.825601404444	2
3	2468	232.235546604711	3
3	2474	232.644117269024	3
3	2481	233.14745909874	4
3	2486	233.449184281222	2
3	2510	236.6	6
3	2517	237.01723571849	3
3	2523	237.425198978646	3
3	2527	237.631958944536	1
3	2531	237.833016359525	1
3	2539	238.144629291324	2
3	2562	242.5	5
3	2566	242.8	2
3	2571	243.107800032224	2
3	2576	243.411203356974	2
3	2597	246.3	3
3	2600	246.5	1
3	2604	246.708714895453	1
3	2609	247.0089852142	2
3	2628	250.1	1
3	2632	250.4	2
3	2638	250.80251930301	3
3	2642	251.010751638586	1
3	2663	254.3	3
3	2668	254.7	3
3	2675	255.107312029473	3
3	2680	255.414460896147	2
3	2700	258.2	2
3	2706	258.7	4
3	2710	258.907890442563	1
3	2715	259.212661358953	2
3	2719	259.413547137513	1
3	2739	262.2	2
3	2745	262.7	4
3	2750	263.002904848912	2
3	2755	263.310546391342	2
3	2760	263.619553500072	2
3	2768	264.02160989559	3
3	2773	264.328297771385	2
3	2792	268.1	1
3	2798	268.6	4
3	2806	269.207431035696	5
3	2812	269.609932925095	3
3	2822	270.214115153168	5
3	2829	270.723313359263	4
3	2837	271.333062795196	5
3	2841	271.541688846042	1
3	2862	274.3	3
3	2866	274.6	2
3	2870	274.805398721443	1
3	2875	275.106548043766	2
3	2896	278.3	3
3	2902	278.8	4
3	2907	279.108970636078	2
3	2911	279.314308996463	1
3	2916	279.619792276631	2
3	2920	279.821056649627	1
3	2926	280.0294790619	1
3	2930	280.230208232795	1
3	2950	284.2	2
3	2954	284.5	2
3	2960	284.900435060935	3
3	2964	285.107183160297	1
3	2986	288.4	4
3	2989	288.6	1
3	2995	289.005969046121	3
3	3000	289.306809852888	2
3	3021	292.3	3
3	3031	293.2	8
3	3036	293.505711356264	2
3	3049	294.412217777983	8
3	3055	294.819317345108	3
3	3066	295.724749139636	8
3	3076	296.327963786663	5
3	3094	300.3	3
3	3098	300.6	2
3	3102	300.804520116215	1
3	3108	301.1116598765	2
3	3131	304.5	5
3	3134	304.7	1
3	3138	304.904124310663	1
3	3143	305.118110865988	1
3	3164	308.3	3
3	3168	308.6	2
3	3174	309.000021255607	3
3	3180	309.406301510459	3
3	3186	309.808398574855	3
3	3194	310.212484473296	3
3	3201	310.71465084598	4
3	3209	311.221459286268	4
3	3213	311.42509754192	1
3	3233	314.2	2
3	3238	314.6	3
3	3245	315.104867111835	4
3	3250	315.414427343396	2
3	3257	315.83216623076	3
3	3265	316.236116838657	3
3	3269	316.442371922593	1
3	3288	320.1	1
3	3294	320.6	4
3	3302	321.206238250834	5
3	3310	321.813055918253	5
3	3319	322.315759838252	4
3	3326	322.820670451364	4
3	3332	323.230046401436	3
3	3336	323.437544605906	1
3	3343	323.945241153083	4
3	3351	324.347639390673	3
3	3359	324.949095340976	5
3	3381	328.4	4
3	3387	328.9	4
3	3392	329.205051844688	2
3	3397	329.505542407978	2
3	3417	332.2	2
3	3420	332.4	1
3	3424	332.605749080537	1
3	3429	332.906142695019	2
3	3434	333.114356655044	1
3	3455	336.3	3
3	3460	336.7	3
3	3465	337.003386457024	2
3	3471	337.408894783013	3
3	3478	337.914163821946	4
3	3486	338.32355785674	3
3	3492	338.728886645092	3
3	3512	342.2	2
3	3518	342.7	4
3	3525	343.200507799815	4
3	3531	343.604603532116	3
3	3535	343.810137860466	1
3	3542	344.116145846285	2
3	3549	344.520696357299	3
3	3554	344.830527975178	2
3	3561	345.244120238251	3
3	3568	345.753265035622	4
3	3576	346.154647829771	3
3	3598	350.4	4
3	3604	350.9	4
3	3610	351.303282363528	3
3	3614	351.505209833266	1
3	3618	351.706072269441	1
3	3622	351.913333949409	1
3	3628	352.116760742065	1
3	3651	356.5	5
3	3655	356.704645369774	1
3	3662	357.214199813508	4
3	3668	357.614266755701	3
3	3672	357.822085785375	1
3	3679	358.031408011961	1
3	3698	362.1	1
3	3704	362.6	4
3	3709	362.905728607103	2
3	3713	363.106556527358	1
3	3718	363.408521157018	2
3	3738	366.2	2
3	3742	366.5	2
3	3747	366.808840809762	2
3	3753	367.215034082463	3
3	3758	367.519845719883	2
3	3763	367.82187679647	2
3	3784	370.3	3
3	3788	370.6	2
3	3795	371.100608136581	4
3	3801	371.504555655321	3
3	3807	371.806468990599	2
3	3815	372.209497586139	3
3	3822	372.716101056702	4
3	3826	372.916472426242	1
3	3833	373.328155797203	3
3	3838	373.63418879983	2
3	3858	376.2	2
3	3865	376.8	5
3	3871	377.204265652622	3
3	3878	377.707184964445	4
3	3885	378.01241980979	2
3	3891	378.415340129628	3
3	3899	378.930295355079	4
3	3905	379.338564626615	3
3	3925	382.2	2
3	3930	382.6	3
3	3935	382.909052649009	2
3	3942	383.411932395609	4
3	3948	383.812063223708	3
3	3954	384.012339599784	1
3	3973	388.1	1
3	3979	388.6	4
3	3983	388.803818250398	1
3	3988	389.107591745135	2
3	4007	392.1	1
3	4013	392.6	4
3	4019	393.007158819742	3
3	4024	393.314187595823	2
3	4030	393.618751386116	2
3	4052	396.4	4
3	4057	396.8	3
3	4062	397.104806917845	2
3	4066	397.311927462168	1
3	4070	397.512769678676	1
3	4090	400.2	2
3	4095	400.6	3
3	4102	401.109306215124	4
3	4106	401.312144856927	1
3	4110	401.519779056258	1
3	4134	404.6	6
3	4137	404.8	1
3	4144	405.304943295717	4
3	4149	405.610067531636	2
3	4159	406.2153475836	5
3	4164	406.52200942146	2
3	4184	410.2	2
3	4190	410.7	4
3	4195	410.908843042023	1
3	4199	411.113084201024	1
3	4205	411.518538236676	3
3	4227	414.4	4
3	4230	414.6	1
3	4235	414.903627879219	2
3	4241	415.31076059173	3
3	4252	416.018140920008	6
3	4256	416.225746338976	1
3	4265	416.648838759727	3
3	4286	420.3	3
3	4290	420.6	2
3	4295	420.9062231264	2
3	4300	421.207119051017	2
3	4307	421.520997724689	2
3	4313	421.926963942742	3
3	4319	422.130378709071	1
3	4325	422.440475015671	2
3	4346	426.3	3
3	4349	426.5	1
3	4354	426.807617862378	2
3	4359	427.109066829958	2
3	4363	427.311553729278	1
3	4369	427.718218536559	3
3	4377	428.122684928754	3
3	4383	428.532277270218	3
3	4387	428.733250319983	1
3	4391	428.9348226668	1
3	4395	429.14406133402	1
3	4399	429.344344274735	1
3	4404	429.644742216265	2
3	4425	432.3	3
3	4429	432.6	2
3	4433	432.805059662773	1
3	4439	433.106614924347	2
3	4443	433.316107294595	1
3	4450	433.817884944105	4
3	4470	436.2	2
3	4475	436.6	3
3	4480	436.903264935766	2
3	4486	437.311799047989	3
3	4492	437.715026721683	3
3	4514	440.4	4
3	4517	440.6	1
3	4523	441.006202485102	3
3	4527	441.209796579134	1
3	4532	441.514273353247	2
3	4541	442.015715180996	4
3	4545	442.220771150621	1
3	4550	442.526943562193	2
3	4554	442.730858579777	1
3	4574	446.2	2
3	4578	446.5	2
3	4582	446.709541480317	1
3	4587	447.010960334585	2
3	4592	447.318104071713	2
3	4599	447.825081356172	4
3	4608	448.326787463908	4
3	4612	448.536445026436	1
3	4634	452.4	4
3	4637	452.6	1
3	4641	452.802843508834	1
3	4645	453.002990656678	1
3	4653	453.519473605401	4
3	4658	453.823960141146	2
3	4664	454.033278754495	1
3	4684	458.2	2
3	4688	458.5	2
3	4694	458.901635880344	3
3	4701	459.405444291463	4
3	4708	459.908410245662	4
3	4716	460.315856293262	3
3	4723	460.822213868267	4
3	4728	461.123292379228	2
3	4748	464.2	2
3	4755	464.8	5
3	4760	465.101255073181	2
3	4764	465.301956263307	1
3	4769	465.608271162876	2
3	4777	466.016501615024	3
3	4783	466.423317866851	3
3	4805	470.4	4
3	4808	470.6	1
3	4814	471.001737984463	3
3	4820	471.214051412598	1
3	4825	471.515778830573	2
3	4845	474.2	2
3	4848	474.4	1
3	4852	474.600327285318	1
3	4857	474.901192466723	2
3	4863	475.310574850967	3
3	4869	475.714928716747	3
3	4878	476.217904631111	4
3	4883	476.525776220804	2
3	4889	476.935635238459	3
3	4896	477.440535847266	4
3	4917	480.3	3
3	4921	480.6	2
3	4926	480.904517649845	2
3	4930	481.110800794032	1
3	4937	481.52057406788	3
3	4941	481.729061136718	1
3	4949	482.137483700569	3
3	4954	482.440176291737	2
3	4959	482.748569864531	2
3	4979	486.2	2
3	4983	486.5	2
3	4991	487.102480970139	5
3	4997	487.505956652031	3
3	5002	487.815051667433	2
3	5023	490.3	3
3	5028	490.7	3
3	5033	491.005104728352	2
3	5037	491.212452145257	1
3	5043	491.615406407908	3
3	5047	491.824229722855	1
3	5053	492.027645506421	1
3	5057	492.23409367697	1
3	5062	492.537312067511	2
3	5067	492.838336835181	2
3	5084	496.1	1
3	5087	496.3	1
3	5092	496.602364475682	2
3	5096	496.806333472336	1
3	5102	497.207978221602	3
3	5108	497.611216562525	3
3	5117	498.016117138679	3
3	5126	498.44690120215	3
3	5144	502	0
3	5149	502.4	3
3	5153	502.604213763575	1
3	5162	503.30913873793	6
3	5166	503.517820410236	1
3	5188	506.4	4
3	5191	506.6	1
3	5195	506.806442014831	1
3	5200	507.112935134016	2
3	5219	510.1	1
3	5224	510.5	3
3	5229	510.804354378927	2
3	5236	511.3054118093	4
3	5241	511.613782095821	2
3	5250	512.119105311246	4
3	5256	512.524523202868	3
3	5261	512.833783298277	2
3	5281	516.2	2
3	5286	516.6	3
3	5293	517.102764783077	4
3	5297	517.310031091744	1
3	5317	520.2	2
3	5321	520.5	2
3	5327	520.907393599201	3
3	5332	521.207952460685	2
3	5355	524.5	5
3	5358	524.7	1
3	5362	524.906772732562	1
3	5369	525.413555124934	4
3	5374	525.717940453522	2
3	5391	528	0
3	5394	528.2	1
3	5401	528.705281651283	4
3	5410	529.412587556938	6
3	5414	529.619638102831	1
3	5420	530.021157051221	3
3	5424	530.222912167553	1
