file 21774 1369674127                                           
version 2
run Join-34-20130520-16:32:17-32715
attr configname Join
attr datetime 20130520-16:32:17
attr experiment "\"Join\""
attr inifile omnetpp.ini
attr iterationvars $0=256
attr iterationvars2 "$0=256, $repetition=4"
attr measurement $0=256
attr network Network
attr processid 32715
attr repetition 4
attr replication #4
attr resultdir results
attr runnumber 34
attr seedset 34
vector 34  Network.dyn_peer[0]  lookupHopsSig:vector  ETV
34	441 21333 961 11450 20.720082873058 971.534823616631 867 0 25 5708 50146
