file 23501 1369674127                                           
version 2
run Join-50-20130520-16:32:26-32715
attr configname Join
attr datetime 20130520-16:32:26
attr experiment "\"Join\""
attr inifile omnetpp.ini
attr iterationvars $0=1024
attr iterationvars2 "$0=1024, $repetition=0"
attr measurement $0=1024
attr network Network
attr processid 32715
attr repetition 0
attr replication #0
attr resultdir results
attr runnumber 50
attr seedset 50
vector 50  Network.dyn_peer[0]  lookupHopsSig:vector  ETV
50	444 23057 3110 21199 20.208354210238 1599.722608963288 888 1 56 11925 212371
