version 2
run Join-44-20130520-16:32:22-32715
attr configname Join
attr datetime 20130520-16:32:22
attr experiment "\"Join\""
attr inifile omnetpp.ini
attr iterationvars $0=512
attr iterationvars2 "$0=512, $repetition=4"
attr measurement $0=512
attr network Network
attr processid 32715
attr repetition 4
attr replication #4
attr resultdir results
attr runnumber 44
attr seedset 44

vector 44  Network.dyn_peer[0]  lookupHopsSig:vector  ETV
44	1649	20.5	5
44	1664	21.9	13
44	1672	22.300960625754	3
44	1704	25.110611665862	27
44	1710	25.520428855454	3
44	1719	26.022461608708	4
44	1724	26.325029536168	2
44	1735	27.226513232734	8
44	1741	27.635084740888	3
44	1755	28.637835077413	9
44	1767	29.639479757961	9
44	1791	32.6	6
44	1798	33.2	5
44	1819	34.902795805507	16
44	1829	35.711975749695	7
44	1847	37.115515143071	13
44	1866	38.615564392451	14
44	1878	39.621702570954	9
44	1920	44.2	22
44	1941	46	17
44	1950	46.709520495752	6
44	1969	48.216481525426	14
44	1988	52.1	1
44	1999	53.1	9
44	2013	54.107196596278	9
44	2024	55.016950642514	8
44	2040	56.225381307255	11
44	2050	57.027502249204	7
44	2070	58.631928561173	15
44	2080	59.439494329976	7
44	2101	61.144229709134	16
44	2116	62.244622655374	10
44	2126	63.053271706286	7
44	2140	64.054937542134	9
44	2168	69	10
44	2173	69.4	3
44	2192	70.909614411611	14
44	2204	71.916103375975	9
44	2221	73.220469314055	12
44	2239	74.622304544932	13
44	2258	76.123540613095	14
44	2283	78.233087904132	20
44	2297	79.438654783763	11
44	2325	81.848220982208	23
44	2353	85	10
44	2363	85.9	8
44	2380	87.206709520295	12
44	2394	88.208839114152	9
44	2403	88.915845895055	6
44	2423	90.521960941405	15
44	2429	90.922594996251	3
44	2454	93.028151130425	20
44	2462	93.628356620632	5
44	2476	94.636668556183	9
44	2491	95.946238664807	12
44	2505	96.950188840352	9
44	2535	101.2	12
44	2542	101.8	5
44	2561	103.300055556637	14
44	2568	103.802631432993	4
44	2581	104.704050940628	8
44	2595	105.906496778085	11
44	2603	106.310308891596	3
44	2635	109.113517805864	27
44	2639	109.316733653775	1
44	2680	114.1	21
44	2705	116.3	21
44	2709	116.503728288414	1
44	2714	116.811579813381	2
44	2722	117.416216433373	5
44	2729	117.91760000469	4
44	2742	118.820147273722	8
44	2759	120.128472027948	12
44	2799	126	20
44	2816	127.6	15
44	2824	128.000578453254	3
44	2842	129.607055086646	15
44	2891	132.9	9
44	2900	133.7	7
44	2910	134.305009385794	5
44	2935	136.405218874634	20
44	2949	137.608346167086	11
44	2982	141.5	15
44	3002	143.2	16
44	3010	143.806585680679	5
44	3030	145.407812474029	15
44	3044	146.410755981187	9
44	3057	147.514313419588	10
44	3068	148.218972123245	6
44	3082	149.427470698809	11
44	3103	152.3	3
44	3113	153.2	8
44	3126	154.107965585396	8
44	3143	155.608354140368	14
44	3157	156.611098868999	9
44	3168	157.512444266069	8
44	3180	158.317152230036	7
44	3188	158.920371836316	5
44	3194	159.326282592056	3
44	3200	159.733284714576	3
44	3212	160.53963129963	7
44	3246	165.6	16
44	3258	166.5	8
44	3266	167.100030850006	5
44	3276	167.909456432905	7
44	3297	169.617437417398	16
44	3315	171.018322537215	13
44	3321	171.421944401673	3
44	3386	175.2	12
44	3407	176.1	8
44	3433	177.208884654897	10
44	3459	178.21153916547	9
44	3479	179.114378074264	8
44	3497	179.824271896512	6
44	3521	180.826412273326	9
44	3553	184.8	8
44	3559	185.3	4
44	3566	185.806532640908	4
44	3585	187.314852125182	14
44	3592	187.819049033811	4
44	3604	188.623005553423	7
44	3610	189.031323424838	3
44	3617	189.540388960921	4
44	3632	190.648628724146	10
44	3655	192.551746295628	18
44	3667	193.553041612299	9
44	3699	197.4	14
44	3705	197.9	4
44	3715	198.506399477438	5
44	3726	199.408327869863	8
44	3760	203.6	16
44	3768	204.1	4
44	3800	206.907417789457	27
44	3817	208.212240701936	12
44	3827	209.02020698831	7
44	3842	210.121528111282	10
44	3848	210.526931191387	3
44	3861	211.634200489267	10
44	3872	212.334533493381	6
44	3881	213.036232485158	6
44	3932	216.8	8
44	3939	217.4	5
44	3949	218.006336685237	5
44	3956	218.514890521466	4
44	3961	218.820688908225	2
44	3973	219.824358517063	9
44	3987	220.831497026666	9
44	3996	221.538183239801	6
44	4014	222.939225029151	13
44	4030	224.143632737434	11
44	4043	225.24909329973	10
44	4058	226.359078749437	10
44	4087	231.1	11
44	4116	233.7	25
44	4126	234.309568576852	5
44	4142	235.716199558276	13
44	4158	236.920998943928	11
44	4164	237.323347881131	3
44	4187	239.225446826417	18
44	4253	243.4	14
44	4266	244.4	9
44	4282	245.809178660598	13
44	4297	246.917191788384	10
44	4309	247.921419384837	9
44	4321	248.7223948646	7
44	4330	249.426661862536	6
44	4335	249.730448531623	2
44	4365	252.137227119377	23
44	4401	257.8	18
44	4421	259.5	16
44	4430	260.002682867916	4
44	4439	260.704284996054	6
44	4449	261.50574119136	7
44	4459	262.107925304891	5
44	4471	263.108402898699	9
44	4478	263.613382689909	4
44	4508	267.4	14
44	4524	268.7	12
44	4537	269.807808100432	10
44	4557	271.412346332263	15
44	4567	272.012701686663	5
44	4585	273.617741484167	15
44	4604	275.120012191692	14
44	4610	275.520989136297	3
44	4621	276.227723432073	6
44	4635	277.42927554943	11
44	4655	279.036196220033	15
44	4669	280.039153019366	9
44	4761	284.9	9
44	4781	285.4	4
44	4829	287.205033790296	17
44	4869	288.808492350065	15
44	4893	289.913072259054	10
44	4903	290.519481649198	5
44	4915	291.519998755761	9
44	4925	292.12658536644	5
44	4940	293.429984917855	12
44	4968	297	10
44	4986	298.5	14
44	4992	298.908823475099	3
44	5018	301.115183576479	21
44	5034	302.320597253759	11
44	5067	305.224630304321	28
44	5097	307.828856939945	25
44	5122	309.929626517825	20
44	5138	311.135763315149	11
44	5151	312.045713399933	8
44	5161	312.84783354395	7
44	5179	314.256168598098	13
44	5203	318.6	6
44	5211	319.3	6
44	5218	319.800706179717	4
44	5229	320.504824040043	6
44	5235	320.907992040712	3
44	5247	321.913001822916	9
44	5259	322.716955640246	7
44	5289	327.5	15
44	5306	328.9	13
44	5336	331.505706083148	25
44	5349	332.407401703833	8
44	5379	335.013985050073	25
44	5402	338.5	5
44	5410	339.2	6
44	5422	340.006828754753	7
44	5431	340.71418968137	6
44	5451	342.321966325779	15
44	5458	342.825056023656	4
44	5465	343.330206121471	4
44	5498	347.5	15
44	5508	348.2	6
44	5516	348.804387631837	5
44	5521	349.113960323409	2
44	5529	349.717455572714	5
44	5540	350.426936314722	6
44	5549	351.135253535929	6
44	5581	355.7	17
44	5595	356.8	10
44	5613	358.203230403396	13
44	5626	359.307431699679	10
44	5640	360.314522265264	9
44	5651	361.217262491195	8
44	5669	362.621193842592	13
44	5681	363.621584192779	9
44	5693	364.429703954629	7
44	5707	365.635434254788	11
44	5718	366.336726164459	6
44	5728	367.144677582694	7
44	5741	368.048274143358	8
44	5752	368.948644081345	8
44	5764	369.9502064261	9
44	5793	373.2	12
44	5807	374.3	10
44	5818	375.207345166066	8
44	5830	376.01074788208	7
44	5838	376.619707966478	5
44	5852	377.827969505315	11
44	5867	378.934686243036	10
44	5894	383.2	12
44	5911	384.6	13
44	5924	385.707034938542	10
44	5941	387.009916661534	12
44	5958	388.317946009206	12
44	5970	389.325573173981	9
44	5978	389.929923438279	5
44	5984	390.131620247192	1
44	5997	391.241527664666	10
44	6003	391.643221167775	3
44	6022	394.1	1
44	6038	395.6	14
44	6053	396.704975054089	10
44	6065	397.713957743814	9
44	6082	399.022743759464	12
44	6096	400.029296512963	9
44	6108	401.032252436688	9
44	6156	407.1	31
44	6171	408.3	11
44	6186	409.608966035039	12
44	6202	410.812152793981	11
44	6228	413.019339184612	21
44	6237	413.722668976043	6
44	6248	414.429434110198	6
44	6256	415.030444661601	5
44	6267	415.93201578849	8
44	6299	419.4	14
44	6318	421	15
44	6326	421.605489717805	5
44	6345	423.113272178598	14
44	6361	424.3226851149	11
44	6375	425.525329559054	11
44	6395	427.13377607562	15
44	6417	428.936197557769	17
44	6439	430.741839128477	17
44	6460	434.4	4
44	6468	435.1	6
44	6476	435.703195113029	5
44	6483	436.005351807332	2
44	6493	436.808156156091	7
44	6514	438.514773193863	16
44	6518	438.720802012407	1
44	6523	439.026517727675	2
44	6532	439.728796546537	6
44	6552	441.337830911265	15
44	6571	442.843982520795	14
44	6580	443.550682439573	6
44	6622	448.4	24
44	6636	449.7	12
44	6643	450.00423671591	2
44	6662	451.708713359768	16
44	6670	452.116256051017	3
44	6682	453.120273977422	9
44	6687	453.427731619714	2
44	6692	453.73497655813	2
44	6712	456.4	4
44	6721	457.2	7
44	6738	458.502079842404	12
44	6752	459.711393062322	11
44	6766	460.718596378058	9
44	6796	465.2	12
44	6804	465.9	6
44	6815	466.601067345303	6
44	6829	467.807577936712	11
44	6848	469.308093413447	14
44	6867	470.81714553638	14
44	6884	472.123393816068	12
44	6919	477.7	17
44	6925	478	2
44	6939	479.209589324889	11
44	6955	480.414380246654	11
44	6967	481.419239053641	9
44	6993	483.627079838012	21
44	7009	484.835733840882	11
44	7018	485.536344725801	6
44	7081	490.5	25
44	7091	491.4	8
44	7106	492.504384048236	10
44	7110	492.707892928216	1
44	7115	493.010303137844	2
44	7120	493.311620519502	2
44	7142	495.115525261835	17
44	7147	495.41736411925	2
44	7151	495.621307097795	1
44	7184	499.7	17
44	7197	500.7	9
44	7219	502.501015894496	17
44	7228	503.205709613272	6
44	7243	504.312325807713	10
44	7254	505.221246123866	8
44	7267	506.129954390682	8
44	7272	506.437961610953	2
44	7298	510.8	8
44	7307	511.6	7
44	7319	512.402450257705	7
44	7330	513.307327794313	8
44	7341	514.014535935338	6
44	7361	515.820269100045	17
44	7398	519.9	19
44	7415	521.3	13
44	7427	522.106826806406	7
44	7432	522.409490515592	2
44	7438	522.815306176331	3
44	7444	523.217831836226	3
44	7474	527.2	12
44	7487	528.2	9
44	7501	529.405226120515	11
44	7512	530.114718164852	6
44	7527	531.420892210809	12
44	7545	532.829837712029	13
44	7556	533.731350751487	8
44	7597	538.4	24
44	7605	539.1	6
44	7615	539.903557213381	7
44	7634	541.406366513996	14
44	7649	542.507232961422	10
44	7668	544.010285989758	14
44	7677	544.719535120615	6
44	7684	545.219805094435	4
44	7693	545.920163710704	6
44	7733	550	20
44	7747	551.3	12
44	7755	551.908512016574	5
44	7766	552.614291015399	6
44	7779	553.723103157907	10
44	7796	555.024621873466	12
44	7812	556.226840548578	11
44	7823	557.135220724534	8
44	7836	558.042506408699	8
44	7840	558.243911945438	1
44	7847	558.744816324028	4
44	7854	559.250548921846	4
44	7885	563.3	13
44	7906	565.1	17
44	7916	565.906083241677	7
44	7931	567.012961054927	10
44	7946	568.12194377573	10
44	7953	568.623668384072	4
44	7960	569.123917299164	4
44	7966	569.525306781229	3
44	7976	570.131435142251	5
44	7987	571.03548345712	8
44	8011	574.6	6
44	8021	575.5	8
44	8037	576.701984736996	11
44	8043	577.108689980553	3
44	8059	578.314321115146	11
44	8105	584.6	26
44	8115	585.5	8
44	8129	586.501243125123	9
44	8142	587.602068849086	10
44	8154	588.407166946822	7
44	8181	590.710733610252	22
44	8199	592.115357366702	13
44	8213	593.325073072045	11
44	8225	594.129651217386	7
44	8244	595.837934618838	16
44	8271	598.9	9
44	8294	600.9	19
44	8309	602.009332275036	10
44	8322	603.111192550106	10
44	8332	603.913376728462	7
44	8349	605.219849679531	12
44	8376	607.523482214741	22
44	8397	610.6	6
44	8407	611.5	8
44	8422	612.605611167824	10
44	8443	614.308868835849	16
44	8456	615.413067611189	10
44	8463	615.913721479823	4
44	8482	617.417548402054	14
44	8497	618.525979261526	10
44	8516	620.03547465772	14
44	8524	620.636290254421	5
44	8534	621.436624501506	7
44	8554	623.041456298593	15
44	8586	627.5	15
44	8600	628.6	10
44	8609	629.30511176669	6
44	8624	630.412455596974	10
44	8632	631.012989576229	5
44	8641	631.71639658113	6
44	8651	632.324191355896	5
44	8665	633.524204017836	11
44	8679	634.52997285982	9
44	8693	635.739961842895	11
44	8730	639.9	19
44	8746	641.2	12
44	8762	642.406020827619	11
44	8778	643.809725525939	13
44	8798	645.415654277984	15
44	8810	646.21643735979	7
44	8822	647.219226280509	9
44	8828	647.625640596775	3
44	8833	647.926468227533	2
44	8857	650.6	6
44	8875	652.1	14
44	8888	653.201075618353	10
44	8897	653.908941975359	6
44	8906	654.416633621621	4
44	8914	655.020927062166	5
44	8920	655.430215255032	3
44	8939	656.939770149745	14
44	8960	658.646304328977	16
44	9057	664.5	25
44	9079	665.6	10
44	9090	666.300871083186	6
44	9096	666.703902165134	3
44	9108	667.710073579064	9
44	9116	668.11333617731	3
44	9128	669.122349335539	9
44	9152	672.9	9
44	9157	673.3	3
44	9170	674.207588973497	8
44	9197	676.507631549141	22
44	9206	677.213444642542	6
44	9234	681	10
44	9251	682.4	13
44	9259	683.003358015869	5
44	9269	683.806425965676	7
44	9287	685.208262683556	13
44	9302	686.316130919121	10
44	9313	687.225831653256	8
44	9330	688.528331977838	12
44	9337	689.035122574659	4
44	9345	689.64343453882	5
44	9396	695.1	31
44	9403	695.7	5
44	9422	697.2068479693	14
44	9431	697.912093817272	6
44	9458	700.019856101159	20
44	9482	702.022259849555	19
44	9506	706.6	6
44	9519	707.8	11
44	9533	708.801966602737	9
44	9553	710.402623921027	15
44	9575	712.204432205929	17
44	9608	717.5	15
44	9631	719.5	19
44	9649	720.907014067156	13
44	9669	722.511013290408	15
44	9685	723.917365631706	13
44	9701	725.125526308615	11
44	9714	726.027043241443	8
44	9722	726.633648737293	5
44	9740	728.040821259267	13
44	9766	732.8	8
44	9786	734.5	16
44	9794	735.100745577532	5
44	9814	736.704330128283	15
44	9833	738.211951643662	14
44	9849	739.618504703741	13
44	9863	740.620392655336	9
44	9875	741.624124049317	9
44	9890	742.733570393382	10
44	9896	743.139727768783	3
44	9916	744.742121863971	15
44	9929	745.845035896075	10
44	9935	746.04620550458	1
44	9958	750.5	5
44	9967	751.3	7
44	9986	752.80609446305	14
44	9996	753.614297785143	7
44	10008	754.422172378721	7
44	10018	755.223774474305	7
44	10025	755.726187059122	4
44	10032	756.026382378471	2
44	10039	756.533298960277	4
44	10048	757.234616053518	6
44	10057	757.939641483537	6
44	10064	758.24952169096	2
44	10110	764.6	26
44	10119	765.4	7
44	10132	766.300482294999	8
44	10155	768.209957811454	18
44	10168	769.31182409474	10
44	10182	770.319499531654	9
44	10207	772.42392734864	20
44	10216	773.124542403202	6
44	10229	774.024625720791	8
44	10241	775.027584301265	9
44	10259	776.430663505859	13
44	10279	778.038152965825	15
44	10287	778.646847719418	5
44	10294	779.147393422308	4
44	10302	779.752628567798	5
44	10315	780.658092545419	8
44	10323	781.26718237554	5
44	10332	781.975546580455	6
44	10379	786.8	28
44	10395	788.1	12
44	10414	789.808797383932	16
44	10421	790.11152794453	2
44	10430	790.819199154357	6
44	10439	791.524805533374	6
44	10454	792.634332715019	10
44	10466	793.643014730694	9
44	10480	794.651466905911	9
44	10498	796.05687505605	13
44	10525	801.1	11
44	10533	801.8	6
44	10545	802.600399191526	7
44	10567	804.401187790166	17
44	10582	805.702880712097	12
44	10607	807.807133560736	20
44	10643	810.9	9
44	10649	811.4	4
44	10653	811.60997054748	1
44	10671	813.011248930592	13
44	10679	813.620472185273	5
44	10687	814.026155228739	3
44	10703	815.428096322683	13
44	10714	816.133122639048	6
44	10720	816.541362174867	3
44	10736	817.945346418087	13
44	10745	818.449524882753	4
44	10761	819.854364763799	13
44	10769	820.255084127502	3
44	10790	824.5	5
44	10803	825.7	11
44	10813	826.300465356777	5
44	10836	828.203269777257	18
44	10852	829.61148857975	13
44	10868	830.819971978171	11
44	10874	831.229387029626	3
44	10886	832.038531635578	7
44	10910	836.6	6
44	10922	837.7	10
44	10930	838.109784566019	3
44	10953	840.018656389365	18
44	10965	841.019526579197	9
44	10991	843.227016024928	21
44	11010	844.732321616055	14
44	11031	846.434401341318	16
44	11046	847.738322076897	12
44	11071	849.839352685331	20
44	11092	851.542757046445	16
44	11111	853.045487219683	14
44	11133	856.6	6
44	11141	857.3	6
44	11159	858.708973596778	13
44	11178	860.211300943651	14
44	11196	861.816019290186	15
44	11216	863.423168695036	15
44	11244	865.823529384452	23
44	11262	867.226631746961	13
44	11276	868.233384423645	9
44	11300	872.6	6
44	11319	874.2	15
44	11338	875.906297616416	16
44	11357	877.410728566055	14
44	11372	878.512879404912	10
44	11384	879.513349346543	9
44	11406	881.314675865381	17
44	11430	883.319846141657	19
44	11442	884.122626788196	7
44	11455	885.225845229445	10
44	11478	887.127701463073	18
44	11499	888.828013906718	16
44	11521	890.630672669884	17
44	11527	891.03510402191	3
44	11551	894.6	6
44	11564	895.8	11
44	11574	896.40447243581	5
44	11582	897.008643980137	5
44	11590	897.610112820711	5
44	11600	898.2183770552	5
44	11606	898.618811894892	3
44	11614	899.227432825082	5
44	11622	899.835794413886	5
44	11630	900.239171050405	3
44	11675	904.3	3
44	11686	904.8	4
44	11718	906.00112107492	11
44	11730	906.509130386777	4
44	11751	907.710032160011	11
44	11759	908.116554621191	3
44	11767	908.721652648987	5
44	11778	909.630097380508	8
44	11800	911.436542130344	17
44	11827	914.9	9
44	11843	916.2	12
44	11851	916.805943284023	5
44	11860	917.513673199594	6
44	11869	918.021946944063	4
44	11880	918.924210139025	8
44	11890	919.728541208553	7
44	11898	920.129311194199	3
44	11914	921.537591371054	13
44	11956	926.2	22
44	11961	926.6	3
44	11967	927.001476883767	3
44	11973	927.405154634381	3
44	11984	928.108298672602	6
44	11996	929.115146937162	9
44	12012	930.324273169426	11
44	12018	930.730004760321	3
44	12024	931.13739851224	3
44	12034	931.940331308743	7
44	12045	932.648567073572	6
44	12122	937.6	16
44	12146	938.7	10
44	12155	939.405139664681	6
44	12170	940.514287277359	10
44	12174	940.721070119528	1
44	12187	941.825424512472	10
44	12195	942.227308424425	3
44	12205	943.035258755912	7
44	12213	943.637230495654	5
44	12227	944.644639371081	9
44	12241	945.850108697732	11
44	12248	946.159204455119	2
44	12274	950.8	8
44	12278	951.1	2
44	12305	953.409342757209	22
44	12311	953.81751811915	3
44	12329	955.223743683916	13
44	12333	955.426267896023	1
44	12343	956.029209392378	5
44	12349	956.4338926299	3
44	12365	957.836741821303	13
44	12379	958.836772862351	9
44	12404	960.937452656411	20
44	12441	965.9	19
44	12450	966.5	5
44	12458	967.108608490501	5
44	12466	967.718004878924	5
44	12478	968.518116049726	7
44	12490	969.528004947075	9
44	12502	970.33576269879	7
44	12530	975	10
44	12540	975.9	8
44	12547	976.208918993349	2
44	12565	977.816043845745	15
44	12595	980.225569728172	23
44	12614	981.92840183738	16
44	12641	984.030835492921	20
44	12656	985.340256722327	12
44	12687	989.3	13
44	12708	991.1	17
44	12715	991.600795602831	4
44	12740	993.709293119874	20
44	12764	995.712077419801	19
44	12774	996.312305394351	5
44	12784	997.116097671348	7
44	12791	997.616971436345	4
44	12827	1001.8	18
44	12844	1003.2	13
44	12863	1004.704131170667	14
44	12877	1005.910843408226	11
44	12895	1007.316295221871	13
44	12911	1008.521007260362	11
44	12921	1009.330023100444	7
44	12944	1012.8	8
44	12956	1013.9	10
44	12965	1014.404222776792	4
44	12971	1014.807976275845	3
44	12976	1015.117893458324	2
44	12983	1015.623909286778	4
44	13000	1016.924911099016	12
44	13018	1018.333506440895	13
44	13029	1019.238723628013	8
44	13054	1021.344528427	20
44	13121	1025.2	12
44	13146	1026.6	13
44	13166	1028.209524325607	15
44	13184	1029.816715062632	15
44	13197	1030.717344621213	8
44	13208	1031.621840486836	8
44	13221	1032.526472435579	8
44	13231	1033.328810933974	7
44	13242	1034.031572148577	6
44	13250	1034.632933284198	5
44	13261	1035.535938397608	8
44	13287	1038.8	8
44	13292	1039.2	3
44	13300	1039.806182029843	5
44	13319	1041.306533166484	14
44	13337	1042.708682152127	13
44	13346	1043.410100652448	6
44	13362	1044.611481344248	11
44	13403	1050.4	24
44	13419	1051.9	14
44	13432	1052.809554651745	8
44	13445	1053.910616104521	10
44	13458	1054.816550448811	8
44	13471	1055.91825867056	10
44	13556	1059.9	19
44	13571	1060.4	4
44	13589	1061.207267595138	7
44	13599	1061.514702833322	2
44	13643	1063.420817761306	18
44	13695	1065.725316163933	22
44	13759	1069.1	11
44	13773	1070.2	10
44	13786	1071.306904365308	10
44	13803	1072.612014562028	12
44	13816	1073.720750970108	10
44	13833	1075.021633199559	12
44	13848	1076.124206156498	10
44	13867	1077.831362702171	16
44	13879	1078.633301021121	7
44	13894	1079.937914024202	12
44	13910	1081.143622893385	11
44	13935	1083.253187655598	20
44	13950	1084.355858555153	10
44	13977	1088.9	9
44	13992	1090.1	11
44	14001	1090.809003198079	6
44	14013	1091.810237061434	9
44	14029	1093.011061788186	11
44	14038	1093.713484397734	6
44	14055	1095.018051525334	12
44	14080	1099	10
44	14093	1100	9
44	14119	1102.209450393747	21
44	14126	1102.718812708127	4
44	14145	1104.222893907845	14
44	14163	1105.827947549235	15
44	14175	1106.630692425202	7
44	14182	1107.138024678017	4
44	14196	1108.145226807432	9
44	14204	1108.752118774611	5
44	14233	1113.3	13
44	14256	1115.3	19
44	14276	1116.90439406607	15
44	14293	1118.212521099652	12
44	14310	1119.71434423246	14
44	14328	1121.115679136238	13
44	14335	1121.616844513507	4
44	14340	1121.919389076768	2
44	14356	1123.128990089324	11
44	14371	1124.232943778707	10
44	14385	1125.434067186548	11
44	14413	1129	10
44	14439	1131.3	22
44	14456	1132.60533375547	12
44	14469	1133.714094535694	10
44	14477	1134.121615182391	3
44	14482	1134.427995376197	2
44	14512	1139.2	12
44	14532	1140.9	16
44	14547	1142.009230320772	10
44	14559	1143.009964118711	9
44	14568	1143.711612534173	6
44	14580	1144.517903162517	7
44	14601	1146.22366470473	16
44	14645	1152.7	27
44	14655	1153.6	8
44	14681	1155.804423853503	21
44	14695	1156.809702690066	9
44	14716	1158.510609290568	16
44	14758	1164.2	22
44	14781	1166.2	19
44	14795	1167.400589926866	11
44	14810	1168.507902630799	10
44	14823	1169.611604599681	10
44	14860	1172.716233656027	30
44	14873	1173.819070280285	10
44	14882	1174.327089136699	4
44	14917	1179.7	17
44	14928	1180.5	7
44	14941	1181.600602439634	10
44	14958	1182.903036357922	12
44	14970	1183.908822368873	9
44	14988	1185.312839067229	13
44	15002	1186.317641769586	9
44	15039	1191.9	19
44	15060	1193.7	17
44	15093	1196.401096375307	26
44	15099	1196.80676213778	3
44	15112	1197.914384259585	10
44	15128	1199.121824151457	11
44	15148	1200.726317425025	15
44	15174	1202.934995789375	21
44	15192	1206.2	2
44	15199	1206.8	5
44	15215	1208.008593219204	11
44	15229	1209.212321367305	11
44	15237	1209.821258490096	5
44	15253	1211.025860365537	11
44	15262	1211.731494090746	6
44	15284	1213.539091551513	17
44	15297	1214.443022941164	8
44	15306	1215.14436878058	6
44	15322	1216.352452616571	11
44	15330	1216.957100424841	5
44	15355	1220.9	9
44	15365	1221.8	8
44	15382	1223.107335699016	12
44	15388	1223.515089954912	3
44	15409	1225.222867779197	16
44	15418	1225.931382051087	6
44	15434	1227.133085416471	11
44	15457	1229.035245813563	18
44	15512	1232.6	6
44	15543	1233.9	12
44	15567	1234.802991116384	8
44	15585	1235.512708140781	6
44	15599	1236.020378747211	4
44	15615	1236.621885315709	5
44	15651	1238.12979876786	14
44	15657	1238.337444253114	1
44	15701	1240.140298864507	17
44	15715	1240.741360391064	5
44	15733	1241.448868692479	6
44	15771	1245.2	12
44	15783	1246.3	10
44	15795	1247.307246671044	9
44	15803	1247.912448820362	5
44	15810	1248.415086252225	4
44	15817	1248.915198959227	4
44	15823	1249.318946035009	3
