file 22803 1369674127                                           
version 2
run Join-46-20130520-16:32:23-32715
attr configname Join
attr datetime 20130520-16:32:23
attr experiment "\"Join\""
attr inifile omnetpp.ini
attr iterationvars $0=512
attr iterationvars2 "$0=512, $repetition=6"
attr measurement $0=512
attr network Network
attr processid 32715
attr repetition 6
attr replication #6
attr resultdir results
attr runnumber 46
attr seedset 46
vector 46  Network.dyn_peer[0]  lookupHopsSig:vector  ETV
46	441 22362 1683 14910 20.5 1210.026071270906 885 1 35 8148 97668
