file 25001 1369674127                                           
version 2
run Join-84-20130520-16:35:17-32715
attr configname Join
attr datetime 20130520-16:35:17
attr experiment "\"Join\""
attr inifile omnetpp.ini
attr iterationvars $0=8192
attr iterationvars2 "$0=8192, $repetition=4"
attr measurement $0=8192
attr network Network
attr processid 32715
attr repetition 4
attr replication #4
attr resultdir results
attr runnumber 84
attr seedset 84
vector 84  Network.dyn_peer[0]  lookupHopsSig:vector  ETV
84	444 24557 22230 71418 21.308351018749 4028.910854537073 905 1 135 36319 1912101
