version 2
run Join-39-20130520-16:32:19-32715
attr configname Join
attr datetime 20130520-16:32:19
attr experiment "\"Join\""
attr inifile omnetpp.ini
attr iterationvars $0=256
attr iterationvars2 "$0=256, $repetition=9"
attr measurement $0=256
attr network Network
attr processid 32715
attr repetition 9
attr replication #9
attr resultdir results
attr runnumber 39
attr seedset 39

vector 39  Network.dyn_peer[0]  lookupHopsSig:vector  ETV
39	974	20.413684062435	8
39	980	20.822775196392	3
39	993	21.927193176125	10
39	1023	25.2	12
39	1039	26.5	12
39	1053	27.704211379075	11
39	1064	28.413092028789	6
39	1094	33.2	12
39	1102	33.9	6
39	1111	34.401451357374	4
39	1121	35.210464001392	7
39	1134	36.111544785037	8
39	1150	37.518587308794	13
39	1156	37.920722083712	3
39	1184	41	10
39	1193	41.8	7
39	1205	42.608897507151	7
39	1212	43.110897645356	4
39	1230	44.512624193613	13
39	1239	45.222209971725	6
39	1246	45.731627008857	4
39	1267	47.438186369105	16
39	1274	47.943862976573	4
39	1283	48.451225594702	4
39	1291	49.052035930159	5
39	1297	49.45339558917	3
39	1303	49.856828921785	3
39	1311	50.260794850609	3
39	1336	54.8	8
39	1341	55.2	3
39	1348	55.70690808668	4
39	1355	56.00860050507	2
39	1359	56.212699839792	1
39	1366	56.71585243111	4
39	1373	57.217964962043	4
39	1388	58.318947449761	10
39	1416	63	10
39	1423	63.6	5
39	1439	64.805635071182	11
39	1451	65.713959877872	8
39	1460	66.220911835684	4
39	1471	67.125476122943	8
39	1490	68.630886037384	14
39	1512	72.4	4
39	1526	73.7	12
39	1539	74.600297614235	8
39	1554	75.906656602971	12
39	1568	76.912468692057	9
39	1575	77.414026291421	4
39	1588	78.318137263163	8
39	1596	78.926830675204	5
39	1605	79.632646087517	6
39	1616	80.338901044057	6
39	1625	81.041086346375	6
39	1636	81.944909394607	8
39	1647	82.647022808452	6
39	1659	83.562868526546	8
39	1689	87.2	12
39	1697	87.9	6
39	1706	88.407190229368	4
39	1715	89.107195336747	6
39	1724	89.815038263444	6
39	1734	90.42088219213	5
39	1743	91.130266757259	6
39	1769	95.1	11
39	1774	95.5	3
39	1789	96.603775055564	10
39	1796	97.105107811057	4
39	1811	98.213107601051	10
39	1815	98.416181242019	1
39	1820	98.724407238646	2
39	1842	100.528970581681	17
39	1864	104.4	4
39	1870	104.9	4
39	1886	106.106349935925	11
39	1900	107.315925301941	11
39	1917	108.617884554077	12
39	1930	109.726088842894	10
39	1942	110.532367545964	7
39	1954	111.53737293135	9
39	1963	112.037499110175	4
39	1997	117.6	16
39	2004	118	3
39	2021	119.500296095977	14
39	2044	121.406393747182	18
39	2057	122.310353885215	8
39	2067	123.116843533561	7
39	2089	126.4	4
39	2099	127.3	8
39	2116	128.607437690743	12
39	2131	129.91462710099	12
39	2148	131.223737488174	12
39	2164	132.427990738907	11
39	2170	132.830686768832	3
39	2199	137.4	14
39	2209	138.1	6
39	2217	138.703599748695	5
39	2227	139.504252811269	7
39	2231	139.710151900536	1
39	2242	140.414613019613	6
39	2254	141.421808313905	9
39	2267	142.327696682282	8
39	2282	143.630491509623	12
39	2295	144.532176414778	8
39	2305	145.335895841676	7
39	2319	146.340409397434	9
39	2344	150.7	7
39	2350	151.2	4
39	2358	151.802422657809	5
39	2370	152.608463558968	7
39	2376	153.014198263817	3
39	2384	153.620545832422	5
39	2394	154.2295045306	5
39	2399	154.534114458186	2
39	2405	154.940235462614	3
39	2414	155.642837780599	6
39	2423	156.14729609866	4
39	2429	156.55081350229	3
39	2457	161	10
39	2465	161.7	6
39	2478	162.604818349617	8
39	2488	163.410099934815	7
39	2504	164.614951911715	11
39	2516	165.616611030648	9
39	2526	166.21958453965	5
39	2537	167.124496588586	8
39	2544	167.631843929642	4
39	2558	168.633433438778	9
39	2588	173.2	12
39	2595	173.8	5
39	2611	175.005172581474	11
39	2626	176.105463429609	10
39	2634	176.708263361818	5
39	2668	181.6	16
39	2681	182.6	9
39	2695	183.803221534232	11
39	2707	184.603539061667	7
39	2729	186.406817012149	17
39	2756	190.9	9
39	2766	191.8	8
39	2777	192.504668134762	6
39	2788	193.406125388808	8
39	2801	194.309037633066	8
39	2807	194.710693205134	3
39	2817	195.515290290021	7
39	2823	195.92088860429	3
39	2837	196.922733884631	9
39	2846	197.626619988091	6
39	2857	198.330791991106	6
39	2885	200.732423095749	23
39	2893	201.334009324274	5
39	2901	201.94131735005	5
39	2910	202.448888371724	4
39	2917	202.954156729669	4
39	2926	203.663529685963	6
39	2949	206.5	5
39	2956	207.1	5
39	2972	208.303309208082	11
39	2980	208.907011234203	5
39	2991	209.815108743581	8
39	3002	210.52409591151	6
39	3008	210.931362994386	3
39	3016	211.536201289096	5
39	3030	212.53771904418	9
39	3059	217.1	11
39	3067	217.8	6
39	3085	219.201024100747	13
39	3093	219.808945950166	5
39	3102	220.318824266729	4
39	3108	220.723261131113	3
39	3114	221.130198622226	3
39	3120	221.539654241177	3
39	3137	222.848342142611	12
39	3146	223.548423820834	6
39	3150	223.754695268752	1
39	3178	227	10
39	3185	227.6	5
39	3197	228.401843083139	7
39	3202	228.711525190662	2
39	3211	229.420429165839	6
39	3221	230.029298686031	5
39	3230	230.735044203712	6
39	3249	234.4	4
39	3254	234.8	3
39	3262	235.407957748812	5
39	3272	236.01244733082	5
39	3278	236.420251698474	3
39	3283	236.727836641828	2
39	3290	237.232258095047	4
39	3302	238.04062280405	7
39	3353	242.5	5
39	3378	243.6	10
39	3400	244.508213265037	8
39	3410	244.815085403788	2
39	3434	245.819408268925	9
39	3474	249.4	14
39	3483	250	5
39	3494	250.906627056167	8
39	3504	251.712958815283	7
39	3514	252.313110536582	5
39	3524	253.114239753697	7
39	3533	253.822215420746	6
39	3557	256.9	9
39	3565	257.6	6
39	3579	258.600974344646	9
39	3587	259.20154178288	5
39	3596	259.910219806762	6
39	3608	260.714648895071	7
39	3641	265.5	15
39	3652	266.3	7
39	3657	266.602711367071	2
39	3661	266.812217286445	1
39	3683	268.620440346993	17
39	3694	269.526093597201	8
39	3699	269.833148983475	2
39	3707	270.238926669804	3
39	3711	270.440912668281	1
39	3734	274.5	5
39	3745	275.5	9
39	3754	276.005946250932	4
39	3759	276.311398478638	2
39	3767	276.91223387603	5
39	3786	278.42096595807	14
39	3820	283.6	16
39	3829	284.2	5
39	3838	284.905678426853	6
39	3848	285.709389474239	7
39	3856	286.116550481457	3
39	3863	286.619958032414	4
39	3877	287.820818750844	11
39	3911	291.6	16
39	3922	292.4	7
39	3929	292.904520969602	4
39	3936	293.410174001375	4
39	3948	294.219495510201	7
39	3958	295.023490475048	7
39	3969	295.931484572537	8
39	3994	299	10
39	4002	299.7	6
39	4010	300.109181573686	3
39	4017	300.617067899281	4
39	4027	301.424472394479	7
39	4044	302.726428192379	12
39	4052	303.327705999694	5
39	4066	304.336382903929	9
39	4079	305.440744517899	10
39	4102	308.5	5
39	4113	309.5	9
39	4132	311.006036149563	14
39	4149	312.313105461966	12
39	4161	313.322933939188	9
39	4172	314.023589092036	6
39	4178	314.425452232062	3
39	4189	315.326990522361	8
39	4200	316.031412226213	6
39	4230	321.2	12
39	4244	322.3	10
39	4253	323.000840412732	6
39	4264	323.904832443312	8
39	4276	324.71171147748	7
39	4288	325.712094389687	9
39	4301	326.621565355521	8
39	4330	331.1	11
39	4335	331.5	3
39	4344	332.009697024014	4
39	4352	332.61613255382	5
39	4370	334.023982469397	13
39	4386	335.427454549073	13
39	4392	335.836037426238	3
39	4403	336.536162334458	6
39	4412	337.243776088586	6
39	4428	338.451840201018	11
39	4459	343.5	15
39	4473	344.6	10
39	4482	345.300774310766	6
39	4497	346.404023076872	10
39	4511	347.611883695298	11
39	4536	350.7	7
39	4545	351.5	7
39	4557	352.307830599939	7
39	4565	352.908515935157	5
39	4577	353.91059433505	9
39	4589	354.716164792108	7
39	4596	355.21729162398	4
39	4623	358.9	9
39	4641	360.4	14
39	4646	360.704780238056	2
39	4665	362.213598494822	14
39	4674	362.919111789135	6
39	4681	363.426580127727	4
39	4700	364.930568768556	14
39	4736	368.6	6
39	4743	369.2	5
39	4758	370.302296179307	10
39	4772	371.511567241486	11
39	4782	372.117559088141	5
39	4798	373.525149318946	13
39	4834	377.8	18
39	4839	378	1
39	4851	379.005782343628	9
39	4861	379.809187691148	7
39	4872	380.514272313224	6
39	4881	381.215589437751	6
39	4890	381.923664197345	6
39	4899	382.423866606457	4
39	4909	383.232193037869	7
39	4917	383.839869754723	5
39	4927	384.448612460998	5
39	4936	385.154621958633	6
39	4960	388.6	6
39	4972	389.7	10
39	4990	391.107492440335	13
39	5003	392.013017090343	8
39	5020	393.518096743955	14
39	5034	394.526312282744	9
39	5042	395.128379602562	5
39	5052	395.929411037195	7
39	5065	396.835402321851	8
39	5077	397.842521350542	9
39	5104	400.9	9
39	5111	401.5	5
39	5116	401.801882333601	2
39	5129	402.708332436074	8
39	5140	403.617867192547	8
39	5161	406.3	3
39	5174	407.5	11
39	5184	408.109382318588	5
39	5194	408.916982734407	7
39	5210	410.117103387369	11
39	5224	411.321622281987	11
39	5235	412.024925924201	6
39	5257	416.7	7
39	5261	417	2
39	5269	417.608686414535	5
39	5274	417.912120110762	2
39	5283	418.413668459352	4
39	5294	419.320013573575	8
39	5307	420.22764868743	8
39	5317	421.030953857861	7
39	5339	424.6	6
39	5352	425.8	11
39	5359	426.104438157412	2
39	5364	426.411341472428	2
39	5377	427.422122837359	9
39	5393	428.628352923675	11
39	5408	429.937526209109	12
39	5420	430.738910651937	7
39	5442	434.4	4
39	5454	435.5	10
39	5469	436.609508178133	10
39	5477	437.210014957293	5
39	5489	438.019116643731	7
39	5497	438.620337139711	5
39	5502	438.929852585995	2
39	5523	442.3	3
39	5536	443.5	11
39	5549	444.406389483211	8
39	5557	445.006662410648	5
39	5564	445.513753738206	4
39	5613	448.4	4
39	5616	448.6	1
39	5620	448.807535976951	1
39	5629	449.514122625512	6
39	5639	450.023851160063	4
39	5654	451.331602890969	12
39	5666	452.13740774485	7
39	5676	452.943719652497	7
39	5686	453.748499960311	7
39	5693	454.055621353318	2
39	5722	459.1	11
39	5731	459.9	7
39	5741	460.507003004883	5
39	5751	461.311255814378	7
39	5758	461.81877635228	4
39	5792	465.6	16
39	5795	465.8	1
39	5812	467.109323696305	12
39	5827	468.216459488192	10
39	5840	469.320544238724	10
39	5871	473.3	13
39	5884	474.3	9
39	5889	474.608062008875	2
39	5899	475.408190335803	7
39	5911	476.21814360734	7
39	5917	476.623176150174	3
39	5932	477.927728829824	12
39	5939	478.234830502714	2
39	5944	478.538045282631	2
39	5948	478.73965023514	1
39	5957	479.439771112987	6
39	5969	480.245100878173	7
39	5979	481.051576847283	7
39	6012	485.6	16
39	6023	486.4	7
39	6031	487.00100587221	5
39	6051	488.601940773626	15
39	6065	489.805537808978	11
39	6081	491.015052346962	11
39	6097	492.218363615199	11
39	6102	492.520947416458	2
39	6116	493.727347735397	11
39	6127	494.432107474377	6
39	6139	495.432820393574	9
39	6172	499.6	16
39	6180	500.1	4
39	6184	500.304130798503	1
39	6192	500.90832191069	5
39	6202	501.712651778423	7
39	6214	502.516146080799	7
39	6227	503.625074926798	10
39	6238	504.333272606862	6
39	6246	504.938303371806	5
39	6251	505.248143082317	2
39	6256	505.558086611761	2
39	6281	508.7	7
39	6291	509.6	8
39	6304	510.503984733209	8
39	6311	511.011100466245	4
39	6321	511.820829240051	7
39	6333	512.627144600611	7
39	6338	512.929704861461	2
39	6348	513.730296735273	7
39	6360	514.538577843565	7
39	6365	514.841051709813	2
39	6376	515.74434252321	8
39	6400	518.6	6
39	6405	519	3
39	6412	519.508442270332	4
39	6428	520.717741239159	11
39	6435	521.221131297335	4
39	6440	521.525076363909	2
39	6453	522.430413681916	8
39	6464	523.338546060558	8
39	6478	524.339158726403	9
39	6497	528.1	1
39	6513	529.6	14
39	6530	530.902028891406	12
39	6540	531.706921217601	7
39	6557	533.009531725106	12
39	6575	534.412552156526	13
39	6591	535.815714290131	13
39	6610	537.322963468093	14
39	6621	538.031936278637	6
39	6644	542.7	7
39	6651	543.3	5
39	6665	544.305675312727	9
39	6678	545.408616650099	10
39	6690	546.215992984528	7
39	6697	546.722542595631	4
39	6711	547.922800589364	11
39	6718	548.231011587825	2
39	6727	548.938713343405	6
39	6753	552.8	8
39	6757	553.1	2
39	6761	553.30693688903	1
39	6766	553.613964224841	2
39	6774	554.018523333036	3
39	6784	554.818559714484	7
39	6793	555.521618694181	6
39	6802	556.029993844928	4
39	6822	560.4	4
39	6832	561.3	8
39	6845	562.204737960379	8
39	6852	562.710363893042	4
39	6864	563.716107150724	9
39	6878	564.717171972147	9
39	6887	565.4207524905	6
39	6900	566.326354343622	8
39	6910	567.134440438231	7
39	6925	568.235665105204	10
39	6931	568.636788728986	3
39	6962	573.3	13
39	6968	573.8	4
39	6977	574.300474726487	4
39	6982	574.609268175069	2
39	7010	579	10
39	7023	580	9
39	7032	580.701222283625	6
39	7043	581.602905437731	8
39	7051	582.006952414418	3
39	7060	582.708529764237	6
39	7068	583.312059245747	5
39	7082	584.218191070744	8
39	7095	585.322172345312	10
39	7103	585.926467272546	5
39	7129	589	10
39	7145	590.205046145014	11
39	7158	591.314887362293	10
39	7176	592.720909775754	13
39	7186	593.521288385721	7
39	7198	594.323639187579	7
39	7208	595.126144228467	7
39	7217	595.835383615227	6
39	7228	596.543149905152	6
39	7237	597.246841592749	6
39	7253	598.452445591611	11
39	7262	599.160480288162	6
39	7286	602.6	6
39	7293	603.2	5
39	7307	604.201215812948	9
39	7317	605.005523908671	7
39	7325	605.611471397003	5
39	7334	606.119358943132	4
39	7339	606.426717347646	2
39	7351	607.430753746723	9
39	7368	608.736335993189	12
39	7381	609.841880620148	10
39	7388	610.148318917069	2
39	7392	610.357826604614	1
39	7406	611.564766792765	11
39	7435	615.1	11
39	7443	615.8	6
39	7452	616.300174462276	4
39	7463	617.209257952736	8
39	7469	617.610048033201	3
39	7477	618.013544412792	3
39	7500	622.5	5
39	7512	623.6	10
39	7522	624.204486814553	5
39	7526	624.404533828685	1
39	7537	625.308787065206	8
39	7544	625.723087639083	3
39	7548	625.925249581014	1
39	7555	626.228317565723	2
39	7578	630.5	5
39	7587	631.3	7
39	7602	632.406510350028	10
39	7614	633.412094461725	9
39	7626	634.217583526031	7
39	7634	634.819999224914	5
39	7646	635.828220677068	9
39	7661	636.930373745983	10
39	7678	640.1	1
39	7689	641.1	9
39	7703	642.103416432337	9
39	7712	642.811485678468	6
39	7729	644.121233183581	12
39	7745	645.526859351692	13
39	7751	645.935097323697	3
39	7761	646.540533099248	5
39	7766	646.844594504268	2
39	7787	650.3	3
39	7795	651	6
39	7810	652.101118217222	10
39	7816	652.505740800844	3
39	7826	653.31171688575	7
39	7837	654.014479188299	6
39	7844	654.518070413402	4
39	7865	658.6	6
39	7882	660	13
39	7886	660.200575497779	1
39	7897	661.105027492635	8
39	7907	661.912751255705	7
39	7942	665.7	17
39	7953	666.5	7
39	7959	666.908358939285	3
39	7969	667.711219092113	7
39	7973	667.915770249589	1
39	7983	668.522829716437	5
39	7991	669.13222706531	5
39	7998	669.634471926058	4
39	8003	669.942366535365	2
39	8018	671.045322552651	10
39	8028	671.848931068691	7
39	8036	672.25358003233	3
39	8047	673.15407893028	8
39	8063	674.355125813057	11
39	8074	675.263932733229	8
39	8083	675.973543214998	6
39	8114	679.4	14
39	8127	680.4	9
39	8139	681.404754430251	9
39	8149	682.014730418263	5
39	8162	683.120203780433	10
39	8180	684.522254355397	13
39	8186	684.927930114186	3
39	8194	685.535770249551	5
39	8199	685.844778357977	2
39	8209	686.454767206036	5
39	8222	687.556693668043	10
39	8243	690.3	3
39	8247	690.6	2
39	8258	691.506000657989	8
39	8267	692.01396445013	4
39	8275	692.615920685249	5
39	8282	693.12140196278	4
39	8291	693.825943205794	6
39	8304	694.732070847202	8
39	8316	695.735096219155	9
39	8345	699.1	11
39	8353	699.8	6
39	8363	700.401505795659	5
39	8367	700.602876662451	1
39	8380	701.710729188513	10
39	8399	703.218234719516	14
39	8426	706.9	9
39	8435	707.7	7
39	8443	708.10478632061	3
39	8452	708.805976141339	6
39	8464	709.810101486064	9
39	8478	710.81330217138	9
39	8487	711.519805840503	6
39	8516	715.1	11
39	8525	715.9	7
39	8535	716.501430470296	5
39	8549	717.709762278161	11
39	8560	718.410558216615	6
39	8569	719.111362139202	6
39	8583	720.117276074496	9
39	8590	720.619532333147	4
39	8596	721.02204904268	3
39	8625	725.1	11
39	8631	725.6	4
39	8641	726.20393925589	5
39	8656	727.50575464287	12
39	8671	728.613838981375	10
39	8683	729.622886680002	9
39	8693	730.224170203558	5
39	8701	730.825929797566	5
39	8708	731.335736760482	4
39	8719	732.040864859387	6
39	8745	737	10
39	8750	737.4	3
39	8764	738.401160161129	9
39	8771	738.908310460959	4
39	8786	740.010242208455	10
39	8791	740.318731980045	2
39	8803	741.319065750812	9
39	8818	742.425164266596	10
39	8852	747.6	16
39	8861	748.2	5
39	8875	749.402477384896	11
39	8899	751.404828408765	19
39	8905	751.805598909507	3
39	8913	752.209968684461	3
39	8919	752.613968259413	3
39	8927	753.220496478113	5
39	8940	754.128204833769	8
39	8947	754.63042308675	4
39	8972	758.8	8
39	8982	759.7	8
39	8999	761.006603595893	12
39	9009	761.810961698278	7
39	9019	762.419874591758	5
39	9050	767.3	13
39	9060	768	6
39	9072	769.001365589352	9
39	9086	770.007640442386	9
39	9091	770.312044971199	2
39	9102	771.220249434916	8
39	9119	772.52707823193	12
39	9140	776.6	6
39	9154	777.9	12
39	9166	778.704458294427	7
39	9175	779.406164999334	6
39	9188	780.309186802029	8
39	9196	780.91441997355	5
39	9208	781.921595196546	9
39	9225	783.231449300955	12
39	9232	783.739083219571	4
39	9254	786.6	6
39	9263	787.4	7
39	9268	787.702251083338	2
39	9280	788.508980578213	7
39	9289	789.214201670462	6
39	9322	793.5	15
39	9333	794.3	7
39	9346	795.409915544043	10
39	9352	795.810829934344	3
39	9364	796.611503136231	7
39	9373	797.319736446883	6
39	9385	798.124948229049	7
39	9393	798.726785015952	5
39	9402	799.428068375793	6
39	9412	800.032566754986	5
39	9428	801.439674821678	13
39	9449	804.3	3
39	9460	805.3	9
39	9467	805.805996191636	4
39	9478	806.513973548646	6
39	9487	807.218492304217	6
39	9502	808.320999454928	10
39	9510	808.930179410143	5
39	9537	812.9	9
39	9543	813.4	4
39	9556	814.3021254382	8
39	9562	814.710177413236	3
39	9568	815.112269610747	3
39	9583	816.220498466462	10
39	9588	816.521335141545	2
39	9611	818.427764727368	18
39	9636	822.7	7
39	9652	824	12
39	9661	824.700490159003	6
39	9670	825.406846152592	6
39	9676	825.808669774643	3
39	9687	826.510347184835	6
39	9692	826.816687596845	2
39	9717	830.7	7
39	9734	832.1	13
39	9743	832.807817427096	6
39	9754	833.714322333942	8
39	9776	835.515311088052	17
39	9798	838.4	4
39	9810	839.5	10
39	9827	840.806960643127	12
39	9836	841.510215053011	6
39	9852	842.718766932459	11
39	9872	844.225456436717	14
39	9882	845.031403816117	7
39	9891	845.739331400609	6
39	9910	847.246947273335	14
39	9927	848.554327625506	12
39	9950	852.6	6
39	9959	853.4	7
39	9971	854.202174588623	7
39	9983	855.209141045431	9
39	9995	856.013264075507	7
39	10005	856.81998694416	7
39	10016	857.724815207243	8
39	10028	858.530726131424	7
39	10040	859.534426217095	9
39	10051	860.239851560152	6
39	10058	860.741419663749	4
39	10070	861.745460100123	9
39	10083	862.650971130212	8
39	10092	863.353412902336	6
39	10097	863.658731533991	2
39	10119	866.4	4
39	10128	867.2	7
39	10143	868.302704235357	10
39	10147	868.503056575024	1
39	10153	868.903066987578	3
39	10169	870.106664600906	11
39	10211	874.5	5
39	10221	875.4	8
39	10234	876.303726909828	8
39	10239	876.605321979379	2
39	10253	877.811071112261	11
39	10266	878.718120055157	8
39	10274	879.32240767746	5
39	10282	879.924273774842	5
39	10296	880.932582467614	9
39	10303	881.435431802178	4
39	10327	884.6	6
39	10336	885.4	7
39	10348	886.200816765937	7
39	10363	887.502455711545	12
39	10372	888.010922021866	4
39	10379	888.517626179242	4
39	10390	889.427189923487	8
39	10401	890.128703563336	6
39	10415	891.336942150666	11
39	10422	891.843851390388	4
39	10438	893.04433698764	11
39	10445	893.546259347851	4
39	10458	894.447563776044	8
39	10480	898.4	4
39	10489	899.2	7
39	10495	899.609579108008	3
39	10507	900.411555634441	7
39	10516	901.11609852374	6
39	10532	902.321926029845	11
39	10541	903.024443023073	6
39	10549	903.628489029273	5
39	10566	904.93617419139	12
39	10586	908.2	2
39	10598	909.3	10
39	10609	910.007626978291	6
39	10622	911.10978929968	10
39	10628	911.519329025704	3
39	10643	912.624577115194	10
39	10662	914.125320321705	14
39	10674	915.130934511862	9
39	10681	915.635987894808	4
39	10708	918.9	9
39	10719	919.9	9
39	10725	920.106528234481	1
39	10735	920.91652527578	7
39	10746	921.82523405557	8
39	10755	922.334219859498	4
39	10781	926.8	8
39	10789	927.5	6
39	10807	928.908682455425	13
39	10814	929.410271934948	4
39	10828	930.419022635477	9
39	10844	931.827649450168	13
39	10854	932.429287131951	5
39	10881	936.9	9
39	10890	937.7	7
39	10904	938.70510730253	9
39	10915	939.607881635508	8
39	10919	939.808017543429	1
39	10928	940.309459711688	4
39	10940	941.312819359616	9
39	10955	942.417099222705	10
39	10963	943.026779892909	5
39	10982	944.534574466448	14
39	11011	949.1	11
39	11024	950.1	9
39	11029	950.40327001292	2
39	11045	951.810456888256	13
39	11057	952.612760288302	7
39	11067	953.422460305335	7
39	11078	954.128803605118	6
39	11091	955.22928642078	10
39	11103	956.0315340811	7
39	11117	957.237386239253	11
39	11162	961.2	12
39	11176	962.3	10
39	11183	962.808718248291	4
39	11196	963.916619188708	10
39	11202	964.123578941309	1
39	11214	965.123925391458	9
39	11227	966.02478129841	8
39	11244	967.527706857459	14
39	11273	971.1	11
39	11285	972	8
39	11299	973.20715634206	11
39	11304	973.514324325829	2
39	11313	974.015869052878	4
39	11346	979.5	15
39	11350	979.8	2
39	11361	980.500709921049	6
39	11373	981.503182814586	9
39	11387	982.512513439756	9
39	11399	983.420398761057	8
39	11416	984.730356195575	12
39	11433	986.03525467574	12
39	11453	987.835884507509	17
39	11467	988.839520385734	9
39	11477	989.645942329343	7
39	11493	990.846234486817	11
39	11503	991.655247925712	7
39	11524	994.4	4
39	11533	995.2	7
39	11545	996.20898127244	9
39	11555	997.00950636915	7
39	11568	998.117026946845	10
39	11578	998.924761566743	7
39	11591	1000.026164031093	10
