version 2
run Join-60-20130520-16:32:37-32715
attr configname Join
attr datetime 20130520-16:32:37
attr experiment "\"Join\""
attr inifile omnetpp.ini
attr iterationvars $0=2048
attr iterationvars2 "$0=2048, $repetition=0"
attr measurement $0=2048
attr network Network
attr processid 32715
attr repetition 0
attr replication #0
attr resultdir results
attr runnumber 60
attr seedset 60

vector 60  Network.dyn_peer[0]  lookupHopsSig:vector  ETV
60	5912	21.9	22
60	5919	22.206899991254	2
60	5937	23.81591197963	15
60	5993	28.616133566711	47
60	6040	34.7	27
60	6071	37.5	27
60	6076	37.801979068575	2
60	6097	39.502941169141	16
60	6108	40.206929153998	6
60	6145	43.509846899707	32
60	6204	49.9	39
60	6215	50.7	7
60	6249	53.708990605832	29
60	6293	57.518459136809	37
60	6302	58.019984433829	4
60	6348	62.027082521455	39
60	6390	65.830034417198	37
60	6440	70.039711518499	41
60	6451	70.942116778182	8
60	6516	78.5	45
60	6526	79.4	8
60	6543	80.704801327711	12
60	6562	82.210668532896	14
60	6577	83.51475389435	12
60	6599	85.316308732284	17
60	6611	86.117181313379	7
60	6634	90.8	8
60	6644	91.7	8
60	6654	92.302693760283	5
60	6682	94.702741024836	23
60	6689	95.203825238535	4
60	6696	95.705776832219	4
60	6718	97.510338908286	17
60	6778	104.1	41
60	6789	105.1	9
60	6826	108.207856028482	30
60	6836	109.017801789372	7
60	6858	110.820457409201	17
60	6877	112.323863618117	14
60	6881	112.530292386199	1
60	6886	112.835283631943	2
60	6912	115.039155821583	21
60	6958	120.8	28
60	6970	121.9	10
60	6999	124.20079061934	22
60	7026	126.506354762455	22
60	7051	128.614096975205	20
60	7071	130.215134387199	15
60	7106	133.319766221326	30
60	7174	140.9	49
60	7202	143.4	24
60	7235	146.100040368656	26
60	7249	147.305403076616	11
60	7290	150.815359414262	34
60	7314	152.824838643409	19
60	7344	155.429749833426	25
60	7448	159.5	15
60	7478	160.7	11
60	7492	161.302446359028	5
60	7561	164.20935839497	28
60	7608	168.012536854562	37
60	7645	171.318296667667	32
60	7665	172.928009555164	15
60	7683	174.329898749821	13
60	7729	178.331543214906	39
60	7742	179.439478360692	10
60	7825	184.1	21
60	7854	185.5	13
60	7894	187.203675123548	16
60	7930	188.808679318064	15
60	7989	191.414817676394	25
60	8043	193.823026266371	23
60	8053	194.125858035577	2
60	8107	196.529843280411	23
60	8172	201.3	13
60	8197	203.5	21
60	8213	204.70500182074	11
60	8231	206.113101261739	13
60	8247	207.513262646099	13
60	8303	212.321763584877	47
60	8341	215.727105693034	33
60	8356	216.830318750859	10
60	8380	218.8376029623	19
60	8433	222.7	7
60	8466	224.1	13
60	8534	227.206512014465	30
60	8566	228.606628639602	13
60	8592	229.708283308902	10
60	8604	230.109406555121	3
60	8632	231.412496291085	12
60	8670	233.020787146815	15
60	8728	238.029818839325	49
60	8745	239.530662080369	14
60	8759	240.531023698577	9
60	8769	241.33408007286	7
60	8868	246.9	29
60	8929	249.6	26
60	8969	251.307155216122	16
60	9041	254.515002114043	31
60	9109	257.61631155728	30
60	9162	261.018516254034	33
60	9203	264.519415869831	34
60	9234	267.224351335039	26
60	9271	270.324695506434	30
60	9293	272.132321506215	17
60	9342	276.440668874061	42
60	9374	279.242383768706	27
60	9386	280.047422940051	7
60	9417	282.749057162655	26
60	9438	284.458124544533	16
60	9555	291.7	37
60	9588	293.1	13
60	9661	296.309789384114	31
60	9748	300.315110780069	39
60	9780	302.122668633857	17
60	9788	302.725671017556	5
60	9796	303.325937718918	5
60	9840	307.125998464689	37
60	9903	311.2	12
60	9922	312	7
60	9970	314.505440825866	24
60	9977	315.00736611151	4
60	9984	315.516586582775	4
60	10006	317.326093152149	17
60	10065	323.9	39
60	10100	326.9	29
60	10110	327.705609573067	7
60	10170	332.912604467626	51
60	10187	334.22070598473	12
60	10220	337.129996084456	28
60	10230	337.931602612358	7
60	10244	338.934016744675	9
60	10264	340.541093063227	15
60	10285	342.247481954724	16
60	10337	349.2	32
60	10363	351.5	22
60	10406	355.205204501852	36
60	10454	359.407854006771	41
60	10486	362.008106677593	25
60	10506	363.813578189516	17
60	10551	367.720678003155	38
60	10559	368.121399984745	3
60	10606	372.222008645712	40
60	10628	374.023681680099	17
60	10639	374.924628420127	8
60	10686	379.028538123517	40
60	10704	380.430176206811	13
60	10719	381.732658339659	12
60	10740	383.43406619486	16
60	10776	386.436792235212	29
60	10868	392.6	26
60	10905	394.2	15
60	10931	395.202348731858	9
60	10969	396.911830579519	16
60	11009	398.616241424429	16
60	11087	402.218925426086	35
60	11145	404.72053407856	24
60	11245	409.226732942757	44
60	11309	412.036587099646	27
60	11365	416.4	4
60	11399	419.5	30
60	11421	421.305605691915	17
60	11440	422.807195937472	14
60	11462	424.610448656954	17
60	11487	426.717958726953	20
60	11532	430.626335696731	38
60	11578	434.635737688217	39
60	11623	438.53753586599	38
60	11644	440.244461530515	16
60	11706	448.2	42
60	11733	450.6	23
60	11762	453.107002420318	24
60	11802	456.509408749527	33
60	11826	458.516394419349	19
60	11861	461.622123414008	30
60	11891	464.024230367969	23
60	11919	469.3	13
60	11945	471.6	22
60	11965	473.204528759946	15
60	11980	474.309745007806	10
60	12019	477.817998065812	34
60	12032	478.724710084633	8
60	12060	481.125269352591	23
60	12085	485	10
60	12103	486.5	14
60	12113	487.306315751189	7
60	12148	490.215034613487	28
60	12173	492.320157773218	20
60	12194	494.02213208931	16
60	12214	495.824641492133	17
60	12245	498.329545637065	24
60	12282	501.637623155951	32
60	12327	505.540438657312	38
60	12368	509.042108872455	34
60	12404	512.043903103229	29
60	12413	512.745389396578	6
60	12419	513.154768707707	3
60	12457	516.364089155671	31
60	12480	518.268719806744	18
60	12542	526	40
60	12560	527.7	16
60	12581	529.40900383508	16
60	12608	531.718040922281	22
60	12629	533.418148870779	16
60	12644	534.520121942582	10
60	12672	536.925034524128	23
60	12715	542.3	23
60	12788	548.9	65
60	12816	551.304228485675	23
60	12849	554.008111990982	26
60	12873	556.01622408255	19
60	12888	557.325722667616	12
60	12987	562.9	29
60	13046	565.7	27
60	13094	567.809773752088	20
60	13128	569.21525858157	13
60	13174	571.320870055238	20
60	13220	573.321359659429	19
60	13353	578.1	21
60	13415	580	18
60	13468	582.405878493327	23
60	13500	585.214784824971	27
60	13555	591.5	35
60	13586	594.1	25
60	13601	595.405895721535	12
60	13605	595.610303155679	1
60	13657	600.018445508085	43
60	13669	601.021311229195	9
60	13676	601.522980400889	4
60	13747	608.9	49
60	13779	611.8	28
60	13790	612.501823498352	6
60	13821	615.207428734627	26
60	13840	616.713867412161	14
60	13860	618.318548969296	15
60	13875	619.622736154932	12
60	13889	620.625949686758	9
60	13900	621.527864548961	8
60	13931	624.031109271337	24
60	13971	630.2	22
60	14000	632.8	25
60	14025	634.909131750811	20
60	14055	637.51717252188	25
60	14100	641.426266399646	38
60	14135	644.333659418833	28
60	14187	648.940505378709	45
60	14252	656.6	46
60	14278	658.9	22
60	14306	661.303689853074	23
60	14334	663.709167688114	23
60	14353	665.217155827972	14
60	14402	669.524622300096	42
60	14493	674.5	25
60	14540	678.7	41
60	14562	680.50651517912	17
60	14582	682.111173507591	15
60	14595	683.218227733481	10
60	14602	683.725270380231	4
60	14616	684.734532344592	9
60	14647	687.437961261893	26
60	14663	688.639857476492	11
60	14734	693.7	17
60	14787	697.5	37
60	14803	698.703148812786	11
60	14843	702.111862185086	33
60	14859	703.516709500675	13
60	14896	706.625470755873	30
60	14908	707.626710447338	9
60	14976	714.9	49
60	14987	715.9	9
60	15018	718.403609548807	24
60	15032	719.607528639486	11
60	15068	722.614350561966	29
60	15110	726.222484508138	35
60	15122	727.222833402652	9
60	15140	728.62668245229	13
60	15148	729.233312222459	5
60	15189	732.738380862343	34
60	15203	733.946986790433	11
60	15259	739.6	36
60	15269	740.3	6
60	15286	741.807900954403	14
60	15308	743.614221685521	17
60	15365	748.521113278825	48
60	15387	750.330853246041	17
60	15427	753.939594236633	35
60	15443	755.146479654668	11
60	15494	758.4	4
60	15551	761.1	26
60	15607	764.708974347119	35
60	15651	768.514757005879	37
60	15675	770.516177300644	19
60	15717	774.117671015056	35
60	15734	775.624511680615	14
60	15787	781.3	33
60	15797	782	6
60	15838	785.701315811711	36
60	15856	787.105545257727	13
60	15872	788.31070009057	11
60	15882	789.116032941251	7
60	15906	792.6	6
60	15949	796.4	37
60	15957	797.005875633333	5
60	16005	801.214016484478	41
60	16020	802.322860026065	10
60	16074	807.127716849771	47
60	16100	809.330797988386	21
60	16124	811.333654059299	19
60	16166	814.938630668387	35
60	16216	818.6	6
60	16254	820.2	15
60	16296	822.103512320064	18
60	16358	824.808649672846	26
60	16418	827.510772605211	26
60	16450	828.918687020885	13
60	16486	831.124277198491	21
60	16508	832.933514737088	17
60	16548	838	20
60	16556	838.7	6
60	16612	843.707679159932	49
60	16653	847.20829227022	34
60	16680	849.510552749918	22
60	16705	851.613210460469	20
60	16763	856.621803734795	49
60	16807	860.422699888806	37
60	16835	865	10
60	16870	868	29
60	16955	875.700979796571	76
60	16977	877.507160911119	17
60	17002	879.61693057285	20
60	17013	880.320609054989	6
60	17065	887.2	32
60	17080	888.4	11
60	17107	890.708586450705	22
60	17147	894.112274408549	33
60	17181	897.119302589324	29
60	17203	898.922770433801	17
60	17259	903.924348882774	49
60	17308	908.027998008706	40
60	17324	909.430143537676	13
60	17352	911.832819234396	23
60	17388	915.8	18
60	17412	917.9	20
60	17449	921.0049681169	30
60	17466	922.306954247811	12
60	17496	924.916876204155	25
60	17533	928.025261696538	30
60	17572	931.533545814226	34
60	17587	932.640165093824	10
60	17630	936.3478273286	36
60	17715	942.2	22
60	17756	944.1	18
60	17781	945.209317494272	10
60	17813	946.913874578757	16
60	17836	948.822429495818	18
60	17860	950.831915526877	19
60	17903	954.539780463136	36
60	17947	960.7	27
60	17975	963.2	24
60	18013	966.407875000771	31
60	18039	968.614085344983	21
60	18079	972.018682725963	33
60	18091	973.01907274774	9
60	18111	974.621035294588	15
60	18149	980.1	21
60	18173	982.2	20
60	18200	984.509192277891	22
60	18215	985.811583778284	12
60	18230	986.912589114511	10
60	18256	989.121334809481	21
60	18292	992.129271844182	29
60	18312	993.938649106727	17
60	18343	996.442104751919	24
60	18415	1005	50
60	18438	1007	19
60	18447	1007.704167191027	6
60	18486	1011.008253815878	32
60	18497	1011.917723991771	8
60	18584	1016.1	21
60	18647	1019	28
60	18711	1021.909939667277	28
60	18787	1025.213790330343	32
60	18881	1029.515418796565	42
60	18923	1031.318390451513	17
60	18949	1032.423230534625	10
60	18975	1033.531550718628	10
60	18995	1034.337910802998	7
60	19033	1037.047680403029	26
60	19079	1041.047997718616	39
60	19246	1050.1	61
60	19291	1052	18
60	19343	1054.406455620476	23
60	19427	1058.112147417408	36
60	19479	1060.513257577009	23
60	19525	1063.222224994135	26
60	19553	1065.627537302797	23
60	19591	1070.1	21
60	19610	1071.9	17
60	19631	1073.60016497401	16
60	19663	1076.205846631561	25
60	19687	1078.215743459075	19
60	19739	1082.825695317933	45
60	19765	1085.034855382184	21
60	19786	1086.736170864016	16
60	19814	1089.138424164309	23
60	19835	1090.840355296268	16
60	19856	1092.542173618493	16
60	19883	1094.842557361203	22
60	19931	1101	30
60	19939	1101.7	6
60	19962	1103.601521292361	18
60	19983	1105.306555443254	16
60	20028	1109.215651509253	38
60	20052	1111.222336953693	19
60	20073	1112.927220261533	16
60	20114	1118.4	24
60	20158	1122.3	38
60	20187	1124.800583277656	24
60	20200	1125.910582202937	10
60	20221	1127.618540202738	16
60	20235	1128.627301522267	9
60	20290	1133.536595345071	48
60	20307	1134.836690321531	12
60	20320	1135.940504716305	10
60	20334	1136.944660200193	9
60	20367	1139.849170243165	28
60	20392	1141.954173421491	20
60	20443	1147.1	31
60	20450	1147.7	5
60	20468	1149.105790866462	13
60	20476	1149.706312716237	5
60	20480	1149.907021690452	1
60	20510	1152.310816404648	23
60	20538	1154.719230473843	23
60	20567	1157.225738788559	24
60	20627	1164	40
60	20658	1166.8	27
60	20703	1170.703242053466	38
60	20730	1173.010574431463	22
60	20738	1173.616789578666	5
60	20768	1176.022599933171	23
60	20785	1177.524881323012	14
60	20804	1179.025093111369	14
60	20823	1180.532227388835	14
60	20839	1181.933716084217	13
60	20921	1186.1	21
60	20994	1189.5	33
60	21062	1192.50561540622	29
60	21116	1195.010525409101	24
60	21184	1198.012834593855	29
60	21243	1200.717739427749	26
60	21271	1201.925716951589	11
60	21299	1203.127228535829	11
60	21375	1206.528477300541	33
60	21447	1209.836419511319	32
60	21487	1211.545982121676	16
60	21527	1213.350150291102	17
60	21614	1218.5	25
60	21682	1224.6	60
60	21704	1226.405416098302	17
60	21748	1230.209977847807	37
60	21780	1233.019964384596	27
60	21820	1236.420719967308	33
60	21857	1239.722248280584	32
60	21888	1242.231461058496	24
60	21895	1242.736440677493	4
60	21918	1246.6	6
60	21937	1248.2	15
60	21969	1251.009835965412	27
60	22006	1254.119122559686	30
60	22044	1257.524879524299	33
60	22079	1260.430510165103	28
60	22113	1263.434264812756	29
60	22155	1267.040255129842	35
60	22181	1269.243284102964	21
60	22205	1271.252365129412	19
60	22241	1274.257892454915	29
60	22258	1275.759111947276	14
60	22300	1280.2	22
60	22316	1281.7	14
60	22325	1282.207972523146	4
60	22342	1283.716806336992	14
60	22372	1287.2	12
60	22389	1288.6	13
60	22433	1292.408373318244	37
60	22443	1293.215265571241	7
60	22495	1297.818986657723	45
60	22526	1300.319451520792	24
60	22539	1301.424457487491	10
60	22567	1305	10
60	22577	1305.9	8
60	22596	1307.403156978881	14
60	22621	1309.50755559235	20
60	22647	1311.711476623109	21
60	22671	1313.716256818853	19
60	22685	1314.716341183318	9
60	22698	1315.816590290357	10
60	22751	1321.3	33
60	22766	1322.5	11
60	22778	1323.502210498806	9
60	22802	1325.50962961252	19
60	22836	1328.316805044782	27
60	22840	1328.517056844552	1
60	22853	1329.626147911614	10
60	22858	1329.933309291536	2
60	22873	1331.036051703698	10
60	22906	1333.943859001332	28
60	22946	1337.34863534513	33
60	22962	1338.55556027151	11
60	23010	1342.756150892731	41
60	23095	1352.1	61
60	23136	1355.9	37
60	23149	1356.801513727786	8
60	23161	1357.80218938632	9
60	23174	1358.710445168866	8
60	23197	1360.619404984591	18
60	23215	1362.022463894562	13
60	23242	1364.327197214517	22
60	23300	1371.8	38
60	23354	1376.5	46
60	23404	1380.906247414085	43
60	23413	1381.611368785616	6
60	23421	1382.018834204141	3
60	23430	1382.721628549443	6
60	23479	1387.021837626553	42
60	23496	1388.327608007969	12
60	23507	1389.235646557743	8
60	23537	1391.837820163429	25
60	23595	1396.838338967034	49
60	23613	1398.241669788291	13
60	23662	1402.549878750744	42
60	23670	1403.157488903899	5
60	23676	1403.557800348654	3
60	23753	1410.266048078065	66
60	23838	1416.1	21
60	23881	1418	18
60	23944	1421.105094877996	30
60	23965	1422.806538102398	16
60	23970	1423.110724973917	2
60	23990	1424.715866258608	15
60	24032	1428.319211086866	35
60	24066	1433.9	19
60	24089	1435.9	19
60	24130	1439.407740331285	34
60	24184	1444.017451367392	45
60	24221	1447.327073311791	32
60	24242	1449.036314930707	16
60	24256	1450.042223039547	9
60	24393	1458.6	46
60	24464	1461.8	31
60	24527	1465.201326953482	33
60	24544	1466.504561661916	12
60	24572	1468.907364430274	23
60	24609	1472.015879061692	30
60	24618	1472.721582732556	6
60	24641	1474.627401715623	18
60	24661	1476.234245599074	15
60	24685	1478.23664515561	19
60	24726	1481.942213853635	36
60	24776	1487	30
60	24808	1489.9	28
60	24839	1492.400252181738	24
60	24855	1493.809791552218	13
60	24872	1495.114457733566	12
60	24914	1498.723056857516	35
60	24927	1499.829970505998	10
60	24990	1503.2	12
60	25049	1505.9	26
60	25114	1508.705142583623	27
60	25148	1511.711725744194	29
60	25171	1513.614467537474	18
60	25212	1517.118778981204	34
60	25243	1519.827356720264	26
60	25255	1520.63722191795	7
60	25288	1523.543356441499	28
60	25411	1528.9	29
60	25424	1529.5	5
60	25477	1531.804716421149	22
60	25521	1535.612207829663	37
60	25562	1539.117456417721	34
60	25615	1543.819519663177	46
60	25631	1545.027944206496	11
60	25651	1546.635915375671	15
60	25672	1548.337547090698	16
60	25698	1550.54589000899	21
60	25711	1551.64831902179	10
60	25754	1555.354748422876	36
60	25775	1558.5	5
60	25827	1563.2	46
60	25886	1568.304086707299	50
60	25936	1572.711854930784	43
60	25958	1574.520584976168	17
60	25992	1579.6	16
60	26030	1582.9	32
60	26059	1585.407344336698	24
60	26065	1585.81276224188	3
60	26075	1586.422409016924	5
60	26125	1590.829852577348	43
60	26144	1592.337912131611	14
60	26170	1594.547876910751	21
60	26176	1594.952598788549	3
60	26183	1595.453324701582	4
60	26194	1596.156205927083	6
60	26202	1596.764097110038	5
60	26215	1597.86560382128	10
60	26224	1598.37229569355	4
60	26277	1605.4	34
60	26320	1609.2	37
60	26334	1610.208736008345	9
60	26358	1612.21811032724	19
60	26371	1613.322935991197	10
60	26427	1618.125466713572	47
60	26442	1619.432313199708	12
60	26465	1621.333186853333	18
60	26483	1622.734018875416	13
60	26502	1624.241045165459	14
60	26509	1624.750403585702	4
60	26549	1628.154873999005	33
60	26640	1634.5	25
60	26701	1637.4	28
60	26751	1640.108616765474	26
60	26784	1643.015210158293	28
60	26812	1645.421504089705	23
60	26844	1648.027493264107	25
60	26874	1650.636878934253	25
60	26911	1656	20
60	26937	1658.3	22
60	26988	1662.803292727791	44
60	26996	1663.408467498602	5
60	27016	1665.00922803582	15
60	27036	1666.617800509245	15
60	27054	1668.023479372933	13
60	27064	1668.830862471544	7
60	27094	1671.440544632462	25
60	27111	1672.750128296779	12
60	27131	1674.355395776475	15
60	27149	1675.960448381127	15
60	27183	1678.760698725526	27
60	27233	1685.1	31
60	27258	1687.3	21
60	27306	1691.500714246835	41
60	27318	1692.309324688894	7
60	27334	1693.709657384558	13
60	27431	1698.7	27
60	27472	1701.4	26
60	27492	1703.009526933624	15
60	27523	1705.719090637247	26
60	27555	1708.325449951632	25
60	27576	1710.034258601973	16
60	27592	1711.439946117517	13
60	27633	1714.949307050876	34
60	27665	1717.755268190022	27
60	27705	1722	20
60	27720	1723.4	13
60	27742	1725.204613615167	17
60	27776	1728.011781674807	27
60	27795	1729.713172279216	16
60	27840	1733.617814086865	38
60	27852	1734.41940561184	7
60	27879	1736.724065784505	22
60	27922	1740.428127326651	36
60	27952	1743.030178772432	25
60	28003	1747.531738891363	44
60	28132	1754.2	42
60	28201	1757.8	35
60	28237	1760.801872625688	29
60	28262	1762.905323593862	20
60	28295	1765.814947464564	28
60	28311	1767.024869256026	11
60	28354	1770.727408973858	36
60	28376	1774.7	7
60	28392	1776	12
60	28406	1777.209242875769	11
60	28426	1778.814254993737	15
60	28455	1781.323322023343	24
60	28476	1783.023884563347	16
60	28521	1788.5	25
60	28554	1791.5	29
60	28568	1792.503395875871	9
60	28580	1793.508926290144	9
60	28598	1794.91842876161	13
60	28621	1796.827547828047	18
60	28634	1797.934249676032	10
60	28653	1799.441967187965	14
60	28748	1804.8	28
60	28789	1806.5	16
60	28807	1807.30565707264	7
60	28825	1808.014905661693	6
60	28876	1810.223591753639	21
60	28905	1811.72962382292	14
60	28915	1812.337162022524	5
60	28965	1819.3	33
60	28981	1820.6	12
60	28991	1821.405999528961	7
60	29039	1825.614004096844	41
60	29062	1827.51677557404	18
60	29094	1830.121343676774	25
60	29119	1832.222822900165	20
60	29153	1835.224995002734	29
60	29170	1836.531398670425	12
60	29234	1844.2	42
60	29261	1846.6	23
60	29271	1847.40777114174	7
60	29285	1848.412756837151	9
60	29295	1849.216452576081	7
60	29339	1853.017267328142	37
60	29355	1854.220439834284	11
60	29365	1855.029821576628	7
60	29389	1857.033392670348	19
60	29411	1858.836357070272	17
60	29485	1863.5	15
60	29512	1864.6	10
60	29531	1865.604341435339	9
60	29543	1866.409774558001	7
60	29582	1869.910731612	34
60	29605	1871.814210538392	18
60	29619	1872.821812191133	9
60	29632	1873.922943896746	10
60	29643	1874.629224508103	6
60	29653	1875.433673642069	7
60	29692	1878.743050111805	32
60	29711	1882.3	3
60	29735	1884.4	20
60	29761	1886.609214610455	21
60	29798	1889.914106079228	32
60	29839	1893.415212783817	34
60	29882	1897.116173551146	36
60	29918	1900.116766370768	29
60	29957	1903.62630105183	34
60	29981	1905.630162951815	19
60	30011	1908.034788505457	23
60	30020	1908.743875312177	6
60	30060	1914	20
60	30102	1917.9	38
60	30125	1919.809725517486	18
60	30140	1920.913183534336	10
60	30217	1925.8	18
60	30236	1926.6	7
60	30262	1927.706378298285	10
60	30311	1929.915028842768	21
60	30327	1930.517692372644	5
60	30363	1932.02682608536	14
60	30383	1932.927647496105	8
60	30447	1937.7	17
60	30476	1940.1	23
60	30521	1944.006422797141	38
60	30568	1948.113125986948	40
60	30629	1953.620118913946	54
60	30677	1957.824258086094	41
60	30728	1962.127383308186	42
60	30757	1967.4	14
60	30778	1969.2	17
60	30785	1969.702135787301	4
60	30810	1971.808674044313	20
60	30826	1973.014661818055	11
60	30854	1975.418606458943	23
60	30872	1976.827429707195	13
60	30895	1978.736076834276	18
60	30905	1979.538886306036	7
60	30923	1980.938964844596	13
60	30934	1981.844618525617	8
60	30942	1982.253097556238	3
60	30965	1984.162382365267	18
60	31016	1991.3	33
60	31037	1993.1	17
60	31086	1997.405224283984	42
60	31127	2000.910410577716	34
60	31153	2003.119646100944	21
60	31204	2007.620039557322	44
60	31226	2009.426028561423	17
60	31273	2013.531224246922	40
60	31320	2017.634573811512	40
60	31352	2020.239411469877	25
60	31401	2024.540852450849	42
60	31432	2029.4	14
60	31460	2031.9	24
60	31474	2032.907219808357	9
60	31491	2034.209821046787	12
60	31509	2035.810505648367	15
60	31528	2037.314458564007	14
60	31546	2038.714702536064	13
60	31577	2041.418730436762	26
60	31591	2042.42494637643	9
60	31598	2042.926500098605	4
60	31623	2046.9	9
60	31631	2047.6	6
60	31663	2050.208203557336	25
60	31673	2051.01679704124	7
60	31695	2052.817317736112	17
60	31748	2057.521326084363	46
60	31789	2061.025943068342	34
60	31810	2064.3	3
60	31820	2065.2	8
60	31886	2071.0072461949	57
60	31919	2073.916722843862	28
60	31929	2074.52534990157	5
60	31983	2079.332813676036	47
60	32010	2082.9	9
60	32043	2085.9	29
60	32075	2088.508321450634	25
60	32095	2090.114196687517	15
60	32121	2092.322464479577	21
60	32132	2093.225277927132	8
60	32154	2095.03408079773	17
60	32176	2096.837726988262	17
60	32205	2099.342789951898	24
60	32231	2101.549116976298	21
60	32284	2106.053880162355	44
60	32318	2111.6	16
60	32334	2112.9	12
60	32353	2114.405778418884	14
60	32417	2120.013650814329	55
60	32443	2122.217415821174	21
60	32453	2123.017552795588	7
60	32473	2124.6233777503	15
60	32492	2126.132412311423	14
60	32558	2134.4	44
60	32580	2136.3	18
60	32624	2140.10314450907	37
60	32657	2143.006125236155	28
60	32690	2145.914720054277	28
60	32711	2147.62267951818	16
60	32733	2149.428977899831	17
60	32757	2151.434850098001	19
60	32773	2152.641250283084	11
60	32806	2155.548964034918	28
60	32839	2158.255103355751	26
60	32856	2159.765048413903	14
60	32879	2162.5	5
60	32889	2163.4	8
60	32910	2165.109070555828	16
60	32947	2168.210511425109	30
60	32976	2170.714162186567	24
60	33003	2173.019616868315	22
60	33040	2176.123695997261	30
60	33056	2177.528380254805	13
60	33099	2181.237417949933	36
60	33120	2182.937777458437	16
60	33160	2188	20
60	33194	2191.1	30
60	33234	2194.504568313846	33
60	33254	2196.105623947539	15
60	33292	2199.510254330864	33
60	33331	2202.811424247853	32
60	33339	2203.420556399186	5
60	33366	2205.726001847066	22
60	33373	2206.026247472517	2
60	33433	2211.428543907565	53
60	33526	2216.5	25
60	33585	2219.1	25
60	33637	2221.509454240044	23
60	33657	2222.318452468616	7
60	33675	2223.120084149743	7
60	33715	2224.820679771046	16
60	33744	2226.02996716016	11
60	33775	2228.336742012731	22
60	33842	2236.5	45
60	33872	2239.2	26
60	33901	2241.707531769429	24
60	33935	2244.508958833445	27
60	33959	2246.513233001093	19
60	33982	2248.414524658429	18
60	33998	2249.815162409042	13
60	34038	2254.3	23
60	34085	2258.9	45
60	34094	2259.606976870805	6
60	34108	2260.81068479098	11
60	34152	2265.015084179123	41
60	34179	2267.518612665622	24
60	34186	2268.019535335625	4
60	34230	2272.222239506786	41
60	34236	2272.63129655273	3
60	34252	2274.032818952024	13
60	34272	2275.833518266852	17
60	34291	2277.54120705444	16
60	34333	2281.549662532446	39
60	34353	2283.350913170655	17
