version 2
run Join-68-20130520-16:32:56-32715
attr configname Join
attr datetime 20130520-16:32:56
attr experiment "\"Join\""
attr inifile omnetpp.ini
attr iterationvars $0=2048
attr iterationvars2 "$0=2048, $repetition=8"
attr measurement $0=2048
attr network Network
attr processid 32715
attr repetition 8
attr replication #8
attr resultdir results
attr runnumber 68
attr seedset 68

vector 68  Network.dyn_peer[0]  lookupHopsSig:vector  ETV
68	5857	20.92209915074	24
68	5884	23.230008736466	22
68	5900	24.434161316432	11
68	5928	26.8440622497	23
68	5974	32.8	28
68	6013	36.2	33
68	6059	40.206053524073	39
68	6104	44.109151488225	38
68	6142	47.514570088457	33
68	6186	51.324389022563	37
68	6222	54.331987754381	29
68	6236	55.536978991687	11
68	6242	55.939397133634	3
68	6323	63.045815712736	70
68	6334	63.950379527337	8
68	6472	68.4	24
68	6536	70.3	18
68	6556	70.909375985453	5
68	6624	72.817727534949	18
68	6664	74.419958583485	15
68	6685	76.121845437689	16
68	6720	79.223236019092	30
68	6749	83.1	11
68	6765	84.4	12
68	6774	85.100572710174	6
68	6789	86.201851433261	10
68	6827	89.61132635852	33
68	6875	93.811489543704	41
68	6899	95.814865830416	19
68	6916	97.120118912713	12
68	6932	98.320673936757	11
68	6958	100.521056522813	21
68	7042	105.5	15
68	7072	106.8	12
68	7088	107.501011280575	6
68	7126	109.109327627927	15
68	7146	109.912539666205	7
68	7159	110.322445588657	3
68	7177	111.126430445541	7
68	7209	112.532977064742	13
68	7267	115.140661645891	25
68	7329	118.7	7
68	7346	119.5	7
68	7383	122.202542758691	26
68	7427	126.008213495043	37
68	7465	129.412858242829	33
68	7499	132.213057931369	27
68	7509	133.017256615206	7
68	7539	135.622759385898	25
68	7591	140.023187597503	43
68	7623	142.827934378508	27
68	7715	147.1	11
68	7792	150.7	35
68	7814	152.502761392095	17
68	7836	154.310488402817	17
68	7857	156.015985457393	16
68	7888	158.722131417909	26
68	7928	162.131910123271	33
68	7941	163.240012524046	10
68	7964	165.143665907084	18
68	7996	167.95307310466	27
68	8042	172.7	27
68	8058	174	12
68	8071	175.102100637059	10
68	8106	178.002380203669	28
68	8138	180.805611102566	27
68	8168	183.412817805822	25
68	8204	186.421685780575	29
68	8246	190.023990139918	35
68	8280	193.028452542346	29
68	8309	195.536928141136	24
68	8334	197.640234413054	20
68	8349	198.742094996092	10
68	8358	199.44471467819	6
68	8378	201.045442835215	15
68	8404	203.24997928592	21
68	8433	205.751586851359	24
68	8537	210.1	21
68	8582	212.2	20
68	8654	215.503813773121	32
68	8671	216.812946969473	12
68	8711	220.21439100569	33
68	8749	223.619363475631	33
68	8759	224.226141002018	5
68	8769	225.035049768528	7
68	8791	226.838184288553	17
68	8836	230.747029759633	38
68	8884	236.8	28
68	8895	237.8	9
68	8928	240.506062192555	26
68	8940	241.514895973097	9
68	8974	244.323182054214	27
68	8987	245.428661012007	10
68	9003	246.631358347924	11
68	9009	247.035727073312	3
68	9050	250.545164649928	34
68	9093	254.254271626813	36
68	9158	259.3	13
68	9239	263	36
68	9285	265.00915291744	19
68	9309	266.009617697935	9
68	9337	267.614743794527	15
68	9354	268.918359084544	12
68	9413	275.9	39
68	9456	279.7	37
68	9485	282.009205478569	22
68	9501	283.414597306316	13
68	9520	284.921774098136	14
68	9543	286.828595890636	18
68	9567	288.834558257239	19
68	9604	294	20
68	9609	294.4	3
68	9652	298.109334149709	36
68	9665	299.211213564904	10
68	9711	303.219686690886	39
68	9757	307.227912199194	39
68	9784	309.534427533468	22
68	9822	312.740003562028	31
68	9862	316.146147523376	33
68	9898	319.349371722089	31
68	9917	320.856958725296	14
68	9949	323.664569141987	27
68	9976	327	10
68	10005	329.6	25
68	10039	332.403667643924	27
68	10083	336.212345030921	37
68	10091	336.814460688364	5
68	10110	338.318550443917	14
68	10138	340.720027252957	23
68	10148	341.526818222214	7
68	10159	342.235557671311	6
68	10173	343.444113355402	11
68	10214	348.1	21
68	10240	350.4	22
68	10263	352.307714834481	18
68	10286	354.215950647764	18
68	10320	357.223557858449	29
68	10342	359.024830725016	17
68	10366	361.029503928706	19
68	10385	364.4	4
68	10397	365.5	10
68	10414	366.806867823076	12
68	10434	368.416461718235	15
68	10447	369.51709663292	10
68	10456	370.023219956802	4
68	10486	372.627364006843	25
68	10499	373.736948169536	10
68	10510	374.441020549925	6
68	10554	378.242287230017	37
68	10569	379.548158451042	12
68	10589	381.148690652633	15
68	10623	385.6	16
68	10648	387.8	21
68	10673	389.907751081103	20
68	10697	391.90881216745	19
68	10730	394.609940869762	26
68	10755	396.712757037948	20
68	10783	399.113969035241	23
68	10802	400.623759501126	14
68	10815	401.72783593414	10
68	10837	403.529310247561	17
68	10861	405.532497858012	19
68	10879	406.932964745415	13
68	10922	410.637784950185	36
68	10946	412.647390700868	19
68	10976	415.254800757931	25
68	11000	417.255740302028	19
68	11024	419.261854375821	19
68	11054	421.862026854854	25
68	11082	424.062896631453	21
68	11126	430.5	25
68	11145	432.1	15
68	11175	434.705410734482	25
68	11197	436.509084744902	17
68	11226	439.014922932266	24
68	11284	444.024678092774	49
68	11312	446.425641624236	23
68	11370	451.630397408222	51
68	11435	455.2	12
68	11490	459.7	44
68	11505	460.801141516482	10
68	11531	463.00820965906	21
68	11546	464.108968811154	10
68	11585	467.612922362471	34
68	11615	470.014916223178	23
68	11631	471.424774556739	13
68	11667	474.425958247856	29
68	11701	477.431552462168	29
68	11725	479.43823301136	19
68	11781	485.6	36
68	11815	488.5	28
68	11845	491.108080545424	25
68	11872	493.415034257159	22
68	11894	495.222771447826	17
68	11929	498.123002225275	28
68	11960	500.823791107216	26
68	12001	506.4	24
68	12029	508.9	24
68	12050	510.600478662301	16
68	12075	512.707638627306	20
68	12092	514.017239900074	12
68	12107	515.325296505739	12
68	12132	517.42711340877	20
68	12168	520.43398300389	29
68	12191	522.341089320626	18
68	12254	527.9	19
68	12269	529.1	11
68	12290	530.804802704297	16
68	12301	531.707215509521	8
68	12335	534.509820567347	27
68	12350	535.812673953954	12
68	12372	537.621618036966	17
68	12395	539.531308470236	18
68	12405	540.139860250016	5
68	12419	541.347270977385	11
68	12445	543.54942723228	21
68	12471	545.757541230545	21
68	12483	546.565047781079	7
68	12498	547.872218730799	12
68	12526	550.077204642617	21
68	12570	556.4	24
68	12589	558	15
68	12639	562.403516354579	43
68	12664	564.51025846426	20
68	12689	566.620054864281	20
68	12696	567.129970989872	4
68	12737	570.638170081106	34
68	12840	577.1	31
68	12869	578.4	12
68	12913	581.80432190834	33
68	12935	583.613158997936	17
68	12965	586.021199454062	23
68	12978	587.128834537367	10
68	12998	588.729434119818	15
68	13025	591.036801194172	22
68	13066	594.539870059206	34
68	13070	594.744028768446	1
68	13128	601.8	38
68	13159	604.4	25
68	13192	607.30836025526	28
68	13211	608.813842270553	14
68	13249	612.023176834817	31
68	13265	613.425106849324	13
68	13286	615.127770221103	16
68	13306	616.736519973895	15
68	13332	618.943650739095	21
68	13350	620.344104099669	13
68	13374	622.346282672993	19
68	13389	623.646334724413	12
68	13405	624.856129746696	11
68	13461	629.86088740502	49
68	13503	634.2	22
68	13520	635.8	15
68	13548	638.004885967352	21
68	13565	639.507123252802	14
68	13593	641.912218960448	23
68	13621	644.114143374752	21
68	13639	645.719807389749	15
68	13655	646.923410398424	11
68	13681	649.128214167381	21
68	13686	649.432462348771	2
68	13699	650.338607126631	8
68	13723	652.34129191312	19
68	13795	661	50
68	13809	662.1	10
68	13839	664.707443047272	25
68	13852	665.814274806272	10
68	13898	669.814862997225	39
68	13940	673.41645758938	35
68	13951	674.117058084597	6
68	14012	679.1	11
68	14053	681.3	21
68	14081	683.704374081068	23
68	14112	686.212381664143	24
68	14149	689.519646309927	32
68	14174	691.628991838578	20
68	14216	695.234093314992	35
68	14235	698.4	4
68	14250	699.8	13
68	14279	702.105899700995	22
68	14291	703.110571110781	9
68	14295	703.317436084415	1
68	14302	703.826994410884	4
68	14315	704.734826704527	8
68	14347	709.7	17
68	14360	710.7	9
68	14392	713.506049309677	27
68	14435	717.215874731549	36
68	14454	718.724923129173	14
68	14499	722.629273512003	38
68	14543	726.436396202519	37
68	14585	732.5	25
68	14607	734.4	18
68	14629	736.203006484992	17
68	14659	738.803044571447	25
68	14681	740.605071743776	17
68	14703	742.414755164012	17
68	14716	743.519000501949	10
68	14738	745.328429762625	17
68	14778	750.2	22
68	14811	753.2	29
68	14849	756.40315684566	31
68	14865	757.807543769867	13
68	14902	760.916738816578	30
68	14940	764.121055309252	31
68	14963	766.026731443301	18
68	14989	768.229703398303	21
68	15033	772.036265089831	37
68	15061	774.442371342783	23
68	15067	774.84537905565	3
68	15107	779.7	17
68	15116	780.3	5
68	15156	783.900273925573	35
68	15179	785.802073973707	18
68	15188	786.310534125625	4
68	15200	787.318544926029	9
68	15228	789.721135620021	23
68	15268	793.124314963449	33
68	15287	794.627074141219	14
68	15338	799.130595405414	44
68	15352	800.131039210844	9
68	15381	802.635042596528	24
68	15407	806.8	8
68	15430	808.8	19
68	15453	810.703833302946	18
68	15466	811.804701799668	10
68	15486	813.410057341157	15
68	15501	814.514613403439	10
68	15543	820.2	22
68	15574	823	27
68	15625	827.50743678617	44
68	15653	829.914133619267	23
68	15685	832.522433978052	25
68	15715	835.130966781671	25
68	15750	838.033662362063	28
68	15778	840.437817266931	23
68	15837	845	10
68	15842	845.2	1
68	15890	847.301017378501	20
68	15908	848.003236525277	6
68	15958	850.212680374935	21
68	15971	850.722096843118	4
68	16003	852.024895060445	12
68	16069	855.031174339205	29
68	16096	856.938130096313	18
68	16126	861.4	14
68	16149	863.4	19
68	16174	865.500564737063	20
68	16192	866.907158226586	13
68	16213	868.616015628451	16
68	16232	870.117687975238	14
68	16270	873.525172056222	33
68	16313	878.3	23
68	16333	880	16
68	16353	881.803678602576	17
68	16373	883.408856902641	15
68	16397	885.413570571855	19
68	16429	888.017130724712	25
68	16446	889.524130190954	14
68	16473	891.827496808658	22
68	16538	896.4	24
68	16544	896.9	4
68	16555	897.801037810095	8
68	16593	901.006759222631	31
68	16621	903.316106062511	22
68	16626	903.621464762972	2
68	16640	904.62973143131	9
68	16663	906.535423128667	18
68	16693	909.143696815517	25
68	16712	910.65056867584	14
68	16731	914.3	3
68	16765	917.4	30
68	16797	920.000064173869	25
68	16825	922.400944992496	23
68	16870	926.304701455343	38
68	16915	930.213735243247	38
68	16952	933.519626379881	32
68	16997	937.420843546487	38
68	17024	939.722544809895	22
68	17097	947.3	53
68	17123	949.6	22
68	17133	950.200381609546	5
68	17146	951.303301244978	10
68	17182	954.312866520948	29
68	17197	955.618258817967	12
68	17266	961.723222367121	60
68	17337	968.9	49
68	17345	969.6	6
68	17380	972.501776724325	28
68	17401	974.205208155296	16
68	17411	975.008332870667	7
68	17439	977.418073299384	23
68	17463	979.427606411633	19
68	17483	981.035598867555	15
68	17503	982.638018898864	15
68	17524	984.34316289236	16
68	17570	990.7	27
68	17596	993	22
68	17623	995.300474153407	22
68	17656	998.007067764947	26
68	17674	999.616455699094	15
68	17748	1007.2	52
68	17782	1010.1	28
68	17809	1012.401076260309	22
68	17831	1014.205940278521	17
68	17868	1017.510930176087	32
68	17912	1021.315255545781	37
68	17942	1023.919144231537	25
68	17964	1025.72840295816	17
68	17982	1027.137313119915	13
68	18039	1032.038941109964	48
68	18211	1039.6	36
68	18257	1040.9	12
68	18311	1042.804137155401	18
68	18328	1044.109449931673	12
68	18342	1045.310161833028	11
68	18381	1048.610231092668	32
68	18399	1050.017716589635	13
68	18442	1053.926795186172	38
68	18476	1056.729334466766	27
68	18521	1060.631497248619	38
68	18561	1064.039922637506	33
68	18642	1073.9	59
68	18671	1076.3	23
68	18697	1078.509535511378	21
68	18710	1079.614050796031	10
68	18746	1082.621133198876	29
68	18773	1084.924951432576	22
68	18804	1087.634613730887	26
68	18844	1092.3	23
68	18897	1097.1	47
68	18913	1098.301696020511	11
68	18937	1100.311427546068	19
68	18964	1102.615734936703	22
68	18979	1103.9170939632	12
68	19022	1108.3	23
68	19035	1109.5	11
68	19049	1110.50701449573	9
68	19068	1112.007583117298	14
68	19079	1112.911846581778	8
68	19116	1116.020040408129	30
68	19144	1118.427528579831	23
68	19156	1119.432332377233	9
68	19213	1124.335142100999	48
68	19226	1125.444498503451	10
68	19245	1126.95122208366	14
68	19269	1128.953943692153	19
68	19281	1129.954893965258	9
68	19317	1132.9635178389	29
68	19430	1139.5	35
68	19499	1142.5	29
68	19523	1144.500657892287	19
68	19534	1145.401385667046	8
68	19556	1147.206309012457	17
68	19603	1152.7	27
68	19613	1153.6	8
68	19627	1154.604998807099	9
68	19652	1156.711303798726	20
68	19659	1157.213344167098	4
68	19676	1158.516940581828	12
68	19691	1159.825748102116	12
68	19707	1161.025851160542	11
68	19733	1163.235740373954	21
68	19742	1163.945466270984	6
68	19807	1170.3	43
68	19836	1172.9	25
68	19866	1175.501093993468	25
68	19884	1176.911002630425	13
68	19905	1178.617085300766	16
68	19919	1179.818175911307	11
68	19937	1181.2229607249	13
68	19954	1182.529574967142	12
68	19979	1186.7	7
68	20009	1189.4	26
68	20023	1190.401102521305	9
68	20057	1193.404617778753	29
68	20114	1198.305529146789	48
68	20158	1202.107744659488	37
68	20203	1206.016479343199	38
68	20218	1207.322485557319	12
68	20225	1207.828375691398	4
68	20256	1211.3	13
68	20276	1213	16
68	20298	1214.805612281039	17
68	20310	1215.807431877606	9
68	20334	1217.813957957405	19
68	20410	1224.41624802911	65
68	20442	1227.217969867678	27
68	20463	1228.918741593987	16
68	20475	1229.924766944884	9
68	20491	1231.126457235212	11
68	20517	1233.327519299038	21
68	20556	1236.632099370043	32
68	20608	1243.3	33
68	20628	1245	16
68	20649	1246.704149214646	16
68	20670	1248.411066297022	16
68	20690	1250.019230297188	15
68	20710	1251.822559198028	17
68	20742	1254.431610282772	25
68	20775	1257.338185009465	28
68	20795	1258.943047032109	15
68	20813	1260.344825487243	13
68	20846	1263.252303081635	28
68	20876	1265.859119588444	25
68	20886	1266.463977546361	5
68	20898	1267.467322139029	9
68	20932	1271.6	16
68	20943	1272.4	7
68	20972	1274.90659114927	24
68	20990	1276.307578007161	13
68	21015	1278.411357718674	20
68	21056	1284.1	21
68	21074	1285.8	16
68	21087	1286.701962528089	8
68	21106	1288.203620024581	14
68	21123	1289.711897314536	14
68	21157	1292.512080458354	27
68	21173	1293.914121334629	13
68	21189	1295.116193947085	11
68	21215	1297.323639442765	21
68	21244	1299.830333562314	24
68	21327	1305.2	32
68	21340	1306.2	9
68	21378	1309.605283344527	33
68	21415	1312.714751944834	30
68	21440	1314.823870261461	20
68	21446	1315.231109287816	3
68	21459	1316.135329694245	8
68	21511	1323.5	35
68	21525	1324.6	10
68	21550	1326.701924823806	20
68	21559	1327.404565456101	6
68	21585	1329.612007433216	21
68	21607	1331.413095949888	17
68	21648	1334.913118473179	34
68	21669	1336.616457118379	16
68	21742	1343.116483330834	64
68	21768	1346.8	8
68	21805	1350	31
68	21821	1351.401659940048	13
68	21835	1352.406559946599	9
68	21844	1353.110537616616	6
68	21864	1354.720359947232	15
68	21882	1356.124800999844	13
68	21887	1356.431384509719	2
68	21910	1358.331856266584	18
68	21938	1360.739760120986	23
68	21950	1361.743289922918	9
68	21963	1362.647817494466	8
68	22076	1369.5	35
68	22125	1371.7	21
68	22191	1374.605289687374	28
68	22257	1377.506744717922	28
68	22321	1380.31572922137	27
68	22375	1383.224330844354	28
68	22403	1385.633305795666	23
68	22425	1387.43605532611	17
68	22464	1390.744753354564	32
68	22490	1392.953595881042	21
68	22515	1395.058255289028	20
68	22529	1396.061090150888	9
68	22554	1398.166263518724	20
68	22574	1399.970794663638	17
68	22603	1402.271526457545	22
68	22642	1408	20
68	22662	1409.9	18
68	22685	1411.801681336057	18
68	22714	1414.106239723136	22
68	22747	1417.007909134643	28
68	22783	1420.010265943897	29
68	22815	1422.810595641864	27
68	22861	1428.9	29
68	22893	1431.8	28
68	22908	1432.901646268127	10
68	22941	1435.805616247648	28
68	22965	1437.809754799542	19
68	22989	1439.814675121617	19
68	23022	1442.520257913211	26
68	23033	1443.422144986944	8
68	23055	1446.4	4
68	23091	1449.7	32
68	23123	1452.304885249249	25
68	23160	1455.608114529619	32
68	23202	1459.209853340402	35
68	23246	1462.3	3
68	23306	1465.1	27
68	23362	1467.603063072327	24
68	23379	1468.211759082528	5
68	23433	1470.717798991144	24
68	23461	1471.926086157985	11
68	23521	1474.430135657536	24
68	23535	1475.035283908906	5
68	23582	1477.539373471289	24
68	23625	1481.243857223027	36
68	23659	1484.049950815577	27
68	23688	1486.553689829183	24
68	23753	1494.4	44
68	23786	1497.4	29
68	23825	1500.703955544647	32
68	23868	1504.404577737135	36
68	23905	1507.710166725936	32
68	23944	1511.018490013711	32
68	23965	1512.725166264486	16
68	23972	1513.23085073657	4
68	24069	1518.8	28
68	24124	1521.3	24
68	24180	1523.90584904226	25
68	24234	1526.905942181474	29
68	24252	1528.306357923389	13
68	24274	1530.114245733759	17
68	24311	1533.420388109444	32
68	24332	1535.126854969267	16
68	24361	1537.631825758814	24
68	24406	1542.5	25
68	24424	1544	14
68	24450	1546.20995781922	21
68	24462	1547.214121214146	9
68	24496	1550.022826015268	27
68	24516	1551.832150705888	17
68	24609	1556.6	26
68	24668	1559.3	26
68	24731	1562.007729542376	26
68	24778	1564.708050061675	26
68	24789	1565.617854237809	8
68	24828	1568.926503044856	32
68	24859	1571.63582390391	26
68	24902	1576.6	26
68	24973	1583	63
68	25002	1585.506631828844	24
68	25020	1586.913976971439	13
68	25031	1587.815599476077	8
68	25040	1588.318674901874	4
68	25080	1592.1	1
68	25102	1593.1	9
68	25142	1594.800796160923	16
68	25164	1595.70588439315	8
68	25232	1598.706466348219	29
68	25327	1604.315468365546	55
68	25340	1605.417870430502	10
68	25353	1606.323946445116	8
68	25364	1607.225731345913	8
68	25395	1609.932488531125	26
68	25408	1610.836235086502	8
68	25442	1613.837316422256	29
68	25460	1615.244291648504	13
68	25538	1619.9	19
68	25617	1623.3	33
68	25650	1626.009225172644	26
68	25674	1628.018433999711	19
68	25712	1631.418983922247	33
68	25719	1631.919554851183	4
68	25737	1633.325283656907	13
68	25755	1634.726366057137	13
68	25790	1637.828364195413	30
68	25809	1639.329323835108	14
68	25823	1640.337724928411	9
68	25854	1643.040149878512	26
68	25963	1649.2	32
68	26010	1652.1	28
68	26021	1653.00790285693	8
68	26046	1655.112711612193	20
68	26113	1661.020053961872	58
68	26141	1663.424288909029	23
68	26154	1664.330669083847	8
68	26200	1670.6	26
68	26205	1671	3
68	26238	1673.903034893032	28
68	26256	1675.307512933073	13
68	26282	1677.516261107035	21
68	26316	1680.320764265899	27
68	26341	1682.428802643551	20
68	26367	1684.631402016705	21
68	26415	1688.834441276187	41
68	26438	1690.738312641253	18
68	26443	1691.038401477009	2
68	26464	1692.739236643112	16
68	26521	1699.7	37
68	26555	1702.6	28
68	26564	1703.306214502153	6
68	26581	1704.610598957368	12
68	26609	1707.015105109921	23
68	26620	1707.917267821345	8
68	26644	1709.923117658479	19
68	26652	1710.323483264545	3
68	26677	1712.42654526491	20
68	26684	1712.934180696965	4
68	26781	1720.3	43
68	26792	1721.3	9
68	26810	1722.701502737833	13
68	26839	1725.210412257415	24
68	26853	1726.210726164408	9
68	26878	1728.313397588765	20
68	26912	1731.315828387767	29
68	27021	1737.3	33
68	27064	1739.2	18
68	27110	1741.30958079955	20
68	27176	1744.111352600673	27
68	27196	1745.014744637244	8
68	27240	1747.024496849266	19
68	27277	1749.133423761986	20
68	27317	1754.3	23
68	27330	1755.5	11
68	27352	1757.302951263606	17
68	27396	1761.108702453086	37
68	27425	1763.609412914479	24
68	27455	1766.016591138524	23
68	27473	1767.619944912591	15
68	27516	1772.3	23
68	27541	1774.5	21
68	27562	1776.205277740771	16
68	27574	1777.208576296774	9
68	27600	1779.414830151185	21
68	27644	1783.216779999352	37
68	27660	1784.417769502497	11
68	27668	1785.018363900522	5
68	27697	1787.52370696268	24
68	27716	1789.024329443596	14
68	27754	1792.224893490787	31
68	27765	1793.134569055506	8
68	27789	1795.137981833164	19
68	27807	1796.540255861883	13
68	27846	1802	20
68	27864	1803.7	16
68	27875	1804.402716252661	6
68	27895	1806.012477838182	15
68	27914	1807.721707441636	16
68	27935	1809.429247014808	16
68	27957	1811.236683468407	17
68	27979	1814.7	7
68	28009	1817.4	26
68	28033	1819.408944204163	19
68	28053	1821.01727448055	15
68	28072	1822.518321300711	14
68	28080	1823.124238270536	5
68	28096	1824.325677323142	11
68	28189	1830.5	25
68	28272	1834.3	37
68	28323	1838.206853914412	38
68	28332	1838.913967782691	6
68	28354	1840.723573736104	17
68	28394	1844.125104777559	33
68	28444	1848.529509080422	43
68	28555	1856.1	41
68	28572	1857.7	15
68	28594	1859.501467177786	17
68	28608	1860.503917976102	9
68	28618	1861.310072227389	7
68	28643	1863.414190910398	20
68	28649	1863.823545901724	3
68	28677	1866.025173646556	21
68	28685	1866.628320771902	5
68	28697	1867.632933468298	9
68	28702	1867.937525112681	2
68	28718	1869.143310855134	11
68	28763	1874.7	27
68	28770	1875.3	5
68	28777	1875.800577278023	4
68	28785	1876.201031055727	3
68	28797	1877.206854102254	9
68	28837	1880.607294184622	33
68	28866	1883.109936585489	24
68	28899	1887.5	15
68	28909	1888.2	6
68	28918	1888.908631154077	6
68	28936	1890.315309647707	13
68	28949	1891.424289365309	10
68	28989	1894.82713842684	33
68	29010	1896.528053849617	16
68	29042	1899.329365512971	27
68	29071	1901.835087559763	24
68	29116	1904.2	2
68	29201	1908.1	38
68	29289	1912.002128306373	38
68	29331	1914.702399084586	26
68	29355	1916.705160824956	19
68	29376	1918.407160867838	16
68	29418	1924.2	22
68	29442	1926.3	20
68	29456	1927.5085740113	11
68	29493	1930.614099056124	30
68	29515	1932.414851900187	17
68	29530	1933.718355446336	12
68	29549	1935.227700939217	14
68	29569	1936.836551361844	15
68	29611	1940.440004360951	35
68	29674	1945.8	18
68	29704	1948.3	24
68	29737	1951.209236678956	28
68	29764	1953.517551775493	22
68	29780	1954.722820360569	11
68	29811	1957.428702410491	26
68	29822	1958.136317624143	6
68	29831	1958.844170903943	6
68	29850	1960.352962957853	14
68	29887	1963.66169342972	32
68	29906	1965.165524539208	14
68	29933	1967.471627522533	22
68	29948	1968.574781257021	10
68	29977	1973.3	13
68	29999	1975.2	18
68	30020	1976.903119939081	16
68	30025	1977.209148155485	2
68	30046	1978.918000582029	16
68	30072	1981.118337942018	21
68	30087	1982.224552419507	10
68	30096	1982.933288220507	6
68	30116	1984.536698772625	15
68	30170	1991.4	34
68	30186	1992.7	12
68	30209	1994.602169220517	18
68	30237	1997.005944952733	23
68	30264	1999.308568406932	22
68	30306	2002.914308449011	35
68	30337	2005.619433113932	26
68	30380	2009.328377638821	36
68	30422	2012.936603208783	35
68	30464	2016.542382367658	35
68	30495	2019.251455501932	26
68	30520	2021.359293304587	20
68	30550	2023.968550811617	25
68	30592	2027.575823956331	35
68	30617	2029.684227230685	20
68	30664	2033.786371093169	40
68	30706	2037.390347505109	35
68	30724	2040.1	1
68	30738	2041.4	12
68	30750	2042.202702282869	7
68	30754	2042.407117914049	1
68	30765	2043.312910129692	8
68	30778	2044.213959093013	8
68	30788	2045.017185202271	7
68	30806	2046.420053315481	13
68	30821	2047.729742739425	12
68	30846	2049.831683097461	20
68	30896	2055	30
68	30920	2057.1	20
68	30939	2058.603505556413	14
68	30957	2060.005771845653	13
68	30971	2061.214827695797	11
68	30987	2062.415220204063	11
68	31025	2065.819200285346	33
68	31079	2071.7	37
68	31116	2074.9	31
68	31135	2076.404482994202	14
68	31166	2079.106233047949	26
68	31181	2080.207781100088	10
68	31210	2082.71124704565	24
68	31265	2087.620340999714	48
68	31287	2089.42128819612	17
68	31302	2090.528719836682	10
68	31314	2091.529814792088	9
68	31325	2092.231724945629	6
68	31351	2094.432807327072	21
68	31384	2097.342086740728	28
68	31423	2101.2	12
68	31449	2103.5	22
68	31485	2106.500224006758	29
68	31504	2108.002981332866	14
68	31541	2111.303662669702	32
68	31571	2113.905513701535	25
68	31593	2115.71496038476	17
68	31636	2119.420774013253	36
68	31678	2124.4	24
68	31704	2126.7	22
68	31743	2130.005001622091	32
68	31776	2132.911268921386	28
68	31810	2135.92010693227	29
68	31839	2138.22409884519	22
68	31847	2138.827368317994	5
68	31867	2140.43704630373	15
68	31892	2142.539412641133	20
68	31924	2145.342759335167	27
68	31946	2147.143306882833	17
68	31966	2148.752198181061	15
68	31980	2149.961812182503	11
68	32020	2154.1	21
68	32025	2154.5	3
68	32047	2156.308378297344	17
68	32053	2156.71161541741	3
68	32078	2158.821419930731	20
68	32083	2159.131373612636	2
68	32113	2161.736053328653	25
68	32121	2162.142618648723	3
68	32128	2162.647059215825	4
68	32154	2164.849029684877	21
68	32193	2168.157427389121	32
68	32240	2174.7	27
68	32257	2176.1	13
68	32266	2176.807639478575	6
68	32288	2178.616698184508	17
68	32299	2179.517721708005	8
68	32321	2181.323976421083	17
68	32338	2182.626822942175	12
68	32382	2188.7	27
68	32399	2190.1	13
68	32423	2192.101488632003	19
68	32453	2194.70804291336	25
68	32473	2196.317852696873	15
68	32490	2197.827359420355	14
68	32525	2200.731497203882	28
68	32563	2206.1	21
68	32587	2208.2	20
68	32611	2210.208756385482	19
68	32634	2212.117840065682	18
68	32659	2214.22385443595	20
68	32672	2215.326959361722	10
68	32719	2219.432397572015	40
68	32762	2223.13326175897	36
68	32808	2227.142241782663	39
68	32835	2229.451589417635	22
68	32942	2235.8	38
68	32964	2237.7	18
68	32990	2239.90029592823	21
68	33021	2242.409391444777	24
68	33049	2244.810892955353	23
68	33058	2245.512450208966	6
68	33093	2248.420778599003	28
68	33123	2251.026897828263	25
68	33141	2252.436462253798	13
68	33170	2257.1	11
68	33195	2259.3	21
68	33238	2263.005568916609	36
68	33259	2264.714211545512	16
68	33284	2266.817726423034	20
68	33328	2270.623634409833	37
68	33353	2272.732327498552	20
68	33372	2274.239908121962	14
68	33397	2276.347246542007	20
68	33424	2278.652943187507	22
68	33445	2280.354215042972	16
68	33478	2283.25719098124	28
68	33518	2288.5	25
68	33528	2289.4	8
68	33542	2290.604463448794	11
68	33560	2292.209066411919	15
68	33571	2293.112752934047	8
68	33599	2295.714131041695	25
68	33615	2297.115152310193	13
68	33619	2297.315415289159	1
68	33635	2298.715864185119	13
68	33641	2299.117087679455	3
