file 22848 1369060355                                           
version 2
run Join-57-20130520-16:32:34-32715
attr configname Join
attr datetime 20130520-16:32:34
attr experiment "\"Join\""
attr inifile omnetpp.ini
attr iterationvars $0=1024
attr iterationvars2 "$0=1024, $repetition=7"
attr measurement $0=1024
attr network Network
attr processid 32715
attr repetition 7
attr replication #7
attr resultdir results
attr runnumber 57
attr seedset 57
vector 57  Network.dyn_peer[0]  lookupHopsSig:vector  ETV
57	444 22404 3085 21405 20.613081691564 1620.120487037318 861 1 50 12135 213739
