version 2
run Join-12-20130520-16:32:11-32715
attr configname Join
attr datetime 20130520-16:32:11
attr experiment "\"Join\""
attr inifile omnetpp.ini
attr iterationvars $0=64
attr iterationvars2 "$0=64, $repetition=2"
attr measurement $0=64
attr network Network
attr processid 32715
attr repetition 2
attr replication #2
attr resultdir results
attr runnumber 12
attr seedset 12

vector 12  Network.dyn_peer[0]  lookupHopsSig:vector  ETV
12	407	20.020466473855	1
12	411	20.224494945963	1
12	416	20.527300093238	2
12	420	20.736151870236	1
12	444	24.6	6
12	449	25	3
12	458	25.70143180957	6
12	470	26.507911401315	7
12	479	27.208734939653	6
12	485	27.613851369158	3
12	508	30.5	5
12	514	31	4
12	520	31.406009595128	3
12	530	32.007363946539	5
12	538	32.607894336484	5
12	547	33.30981144422	6
12	571	36.6	6
12	577	37.1	4
12	581	37.30414924567	1
12	588	37.806687327643	4
12	596	38.20805490634	3
12	601	38.50914976056	2
12	621	42.2	2
12	626	42.6	3
12	631	42.900763177345	2
12	635	43.106813231224	1
12	640	43.416036737232	2
12	647	43.918937956589	4
12	656	44.420655739017	4
12	663	44.73860648197	2
12	672	45.440557954526	6
12	696	48.6	6
12	699	48.8	1
12	703	49.003347240814	1
12	707	49.205205524775	1
12	714	49.706980588491	4
12	723	50.110194261046	3
12	730	50.611014159102	4
12	734	50.811118543144	1
12	742	51.417249582349	5
12	765	54.5	5
12	769	54.8	2
12	773	55.00315668238	1
12	779	55.408779994232	3
12	785	55.818466177532	3
12	795	56.42260123281	5
12	799	56.631337058373	1
12	805	57.033811813044	3
12	811	57.442939652931	3
12	817	57.851463385876	3
12	826	58.353162368498	4
12	848	62.4	4
12	853	62.8	3
12	860	63.309128459689	4
12	871	64.014038009403	6
12	894	68.5	5
12	900	69	4
12	905	69.306421826307	2
12	910	69.613845929403	2
12	915	69.91862950649	2
12	939	72.6	6
12	948	73.4	7
12	953	73.701492236903	2
12	957	73.901496459235	1
12	965	74.308962297198	3
12	972	74.809255878502	4
12	978	75.215670354443	3
12	983	75.524816262617	2
12	992	76.027798572946	4
12	1002	76.829424291795	7
12	1006	77.033182570742	1
12	1014	77.63547056824	5
12	1022	78.045356846857	3
12	1028	78.454369832959	3
12	1046	82.1	1
12	1052	82.6	4
12	1061	83.306136534551	6
12	1068	83.810392314798	4
12	1076	84.216576241896	3
12	1100	88.6	6
12	1108	89.3	6
12	1114	89.706103793471	3
12	1118	89.913880588027	1
12	1124	90.115584704951	1
12	1131	90.625083525765	4
12	1138	91.127697021511	4
12	1144	91.534726843288	3
12	1153	92.035706705668	4
12	1160	92.536868763016	4
12	1184	96.6	6
12	1193	97.4	7
12	1199	97.808972300183	3
12	1208	98.315292615649	4
12	1213	98.617535189819	2
12	1220	99.118489892355	4
12	1240	102.2	2
12	1247	102.8	5
12	1251	103.000880152729	1
12	1257	103.410593405691	3
12	1263	103.811592323022	3
12	1271	104.221284146852	3
12	1277	104.621374958623	3
12	1283	105.028809138256	3
12	1289	105.435305184951	3
12	1293	105.640482077881	1
12	1298	105.950377900428	2
12	1306	106.352022700058	3
12	1312	106.752140899616	3
12	1322	107.561634715298	7
12	1344	110.4	4
12	1347	110.6	1
12	1355	111.201988762253	5
12	1363	111.802499148248	5
12	1371	112.211855805523	3
12	1375	112.419605207694	1
12	1379	112.620120006449	1
12	1386	113.02882386192	3
12	1392	113.437877820616	3
12	1414	116.4	4
12	1420	116.9	4
12	1426	117.303378825306	3
12	1440	118.307665438898	9
12	1447	118.811195432899	4
12	1452	119.117493932732	2
12	1459	119.619050631675	4
12	1464	119.926813444959	2
12	1473	120.436552441958	4
12	1499	124.8	8
12	1507	125.5	6
12	1513	125.908267999808	3
12	1521	126.310033223067	3
12	1526	126.615246275688	2
12	1551	130.7	7
12	1557	131.2	4
12	1564	131.702951888735	4
12	1572	132.112411669978	3
12	1581	132.816036477953	6
12	1591	133.626029214584	7
12	1602	134.331861613441	6
12	1606	134.538570849303	1
12	1614	135.146139047161	5
12	1618	135.354034808586	1
12	1639	138.3	3
12	1644	138.7	3
12	1650	139.104584118374	3
12	1654	139.304846988582	1
12	1661	139.805697941024	4
12	1667	140.013162368615	1
12	1673	140.418097884217	3
12	1679	140.824263764999	3
12	1685	141.228359841792	3
12	1690	141.529351888796	2
12	1714	144.6	6
12	1719	145	3
12	1726	145.506686041229	4
12	1731	145.80954297149	2
12	1738	146.117990747395	2
12	1745	146.620475132316	4
12	1754	147.326257304083	6
12	1759	147.628060795927	2
12	1764	147.930187756876	2
12	1772	148.336025987531	3
12	1777	148.642059901478	2
12	1783	149.043599087526	3
12	1788	149.351354793822	2
12	1800	150.158472069676	7
12	1818	154.1	1
12	1821	154.3	1
12	1828	154.80193737928	4
12	1835	155.30458867537	4
12	1841	155.711791686743	3
12	1851	156.315762013803	5
12	1859	156.924336273815	5
12	1866	157.429466434042	4
12	1876	158.032782214318	5
12	1882	158.436224256501	3
12	1901	162.1	1
12	1905	162.4	2
12	1909	162.602917189274	1
12	1917	163.205914118261	5
12	1922	163.510551703073	2
12	1931	164.012705281322	4
12	1939	164.620429862072	5
12	1964	168.7	7
12	1970	169.100417259545	3
12	1977	169.603328334481	4
12	1985	170.009783188129	3
12	1991	170.417357925301	3
12	1998	170.828276236253	3
12	2004	171.233752761273	3
12	2010	171.640537059571	3
12	2019	172.143452294004	4
12	2025	172.550141197441	3
12	2033	173.158399648615	5
12	2056	176.5	5
12	2063	177.1	5
12	2068	177.405954826294	2
12	2075	177.90937471775	4
12	2083	178.311122096594	3
12	2089	178.712442949641	3
12	2097	179.31789153219	5
12	2102	179.62246736163	2
12	2125	182.5	5
12	2134	183.3	7
12	2145	184.005504497506	6
12	2155	184.80914187571	7
12	2161	185.215386694112	3
12	2166	185.51872230578	2
12	2177	186.222139327211	6
12	2184	186.72320357384	4
12	2209	190.7	7
12	2215	191.2	4
12	2223	191.808422327754	5
12	2232	192.309548550574	4
12	2238	192.71370267224	3
12	2246	193.318541928124	5
12	2269	196.5	5
12	2274	196.9	3
12	2279	197.209971593318	2
12	2286	197.71177551316	4
12	2296	198.314910552675	5
12	2302	198.722965473093	3
12	2309	199.228658308638	4
12	2316	199.735265663237	4
12	2320	199.940440388348	1
12	2326	200.146574739527	1
12	2346	204.2	2
12	2351	204.6	3
12	2355	204.807049617809	1
12	2364	205.511780615858	6
12	2374	206.116673697416	5
12	2396	210.4	4
12	2403	211	5
12	2412	211.702268802849	6
12	2423	212.412141670814	6
12	2431	213.013569952301	5
12	2439	213.614669990013	5
12	2444	213.921964241203	2
12	2461	216.2	2
12	2468	216.8	5
12	2476	217.401444298319	5
12	2482	217.805360894565	3
12	2490	218.209694730053	3
12	2495	218.510074142283	2
12	2499	218.712798037354	1
12	2503	218.914348150204	1
12	2509	219.321775940755	3
12	2517	219.923482430766	5
12	2527	220.532481335464	5
12	2532	220.74099620896	1
12	2557	224.8	8
12	2561	225.1	2
12	2566	225.403474941833	2
12	2573	225.819648505227	3
12	2581	226.219678934268	3
12	2586	226.526224474285	2
12	2592	226.933332626486	3
12	2596	227.135662385906	1
12	2615	230.1	1
12	2619	230.4	2
12	2625	230.805502468517	3
12	2632	231.311555921306	4
12	2643	232.02132369692	6
12	2647	232.227410501963	1
12	2654	232.734069610083	4
12	2660	233.13446444433	3
12	2666	233.536108399665	3
12	2672	233.94516275923	3
12	2682	234.552156816353	5
12	2706	238.6	6
12	2711	239	3
12	2717	239.403879035285	3
12	2724	239.906337975684	4
12	2730	240.115414321656	1
12	2734	240.31622298287	1
12	2738	240.520744298407	1
12	2745	241.024958240845	4
12	2770	244.7	7
12	2778	245.4	6
12	2785	245.90160902142	4
12	2794	246.405336400824	4
12	2799	246.71397391905	2
12	2803	246.920173959216	1
12	2824	250.3	3
12	2830	250.8	4
12	2838	251.403759157401	5
12	2848	252.013255165777	5
12	2855	252.515748801039	4
12	2861	252.82577287239	2
12	2865	253.032468512237	1
12	2872	253.533903314824	4
12	2898	256.8	8
12	2902	257.1	2
12	2906	257.308721333232	1
12	2912	257.717020474981	3
12	2919	258.0180888834	2
12	2924	258.320780132497	2
12	2932	258.927717109821	5
12	2939	259.429427667032	4
12	2946	259.932617096423	4
12	2954	260.33788142406	3
12	2962	260.943730113015	5
12	2982	264.2	2
12	2988	264.7	4
12	2994	265.101164820049	3
12	3000	265.510323357418	3
12	3009	266.016321423671	4
12	3015	266.424908844824	3
12	3019	266.633275193781	1
12	3040	270.3	3
12	3046	270.8	4
12	3054	271.407845133382	5
12	3060	271.81366042708	3
12	3066	272.020769515917	1
12	3070	272.225916418991	1
12	3075	272.530706031628	2
12	3095	276.2	2
12	3100	276.6	3
12	3107	277.101637875384	4
12	3114	277.607463327557	4
12	3119	277.911738911149	2
12	3126	278.113496480591	1
12	3134	278.62050495041	4
12	3140	279.028946558515	3
12	3147	279.534037589445	4
12	3168	282.4	4
12	3174	282.9	4
12	3180	283.303455282382	3
12	3186	283.712456747896	3
12	3191	283.915185722835	1
12	3200	284.321750208756	3
12	3205	284.627294805491	2
12	3229	288.6	6
12	3237	289.3	6
12	3241	289.509294254488	1
12	3247	289.913015736363	3
12	3255	290.321303387401	3
12	3259	290.529927488991	1
12	3267	291.130195159315	5
12	3273	291.53900079686	3
12	3279	291.947903505019	3
12	3291	292.753195635336	7
12	3314	296.5	5
12	3317	296.7	1
12	3326	297.403773011614	6
12	3330	297.60771977679	1
12	3343	298.515902586117	8
12	3363	302.2	2
12	3370	302.8	5
12	3374	303.000942454629	1
12	3383	303.710866815152	6
12	3391	304.11304339616	3
12	3398	304.613490383586	4
12	3403	304.922593551169	2
12	3407	305.125702040056	1
12	3415	305.727722209561	5
12	3424	306.231838045243	4
12	3431	306.739900985548	4
12	3440	307.44215361813	6
12	3450	308.043309623477	5
12	3467	312.1	1
12	3472	312.5	3
12	3480	313.108110206662	5
12	3487	313.609424101767	4
12	3497	314.211883902673	5
12	3505	314.816935050266	5
12	3510	315.123273567412	2
12	3516	315.525006877804	3
12	3525	316.028611256695	4
12	3531	316.435625549834	3
12	3552	320.4	4
12	3558	320.9	4
12	3564	321.308299071998	3
12	3576	322.110204672892	7
12	3583	322.614316276111	4
12	3588	322.91733778258	2
12	3596	323.518236928476	5
12	3605	324.02000165175	4
12	3612	324.52974902676	4
12	3629	328.1	1
12	3634	328.5	3
12	3640	328.900092143008	3
12	3644	329.109367305721	1
12	3649	329.414919094446	2
12	3669	332.2	2
12	3674	332.6	3
12	3681	333.104015253132	4
12	3685	333.305523075949	1
12	3693	333.908312572563	5
12	3699	334.11570861857	1
12	3703	334.320517868544	1
12	3727	338.6	6
12	3734	339.2	5
12	3741	339.707284997296	4
12	3749	340.111037729179	3
12	3753	340.318627192314	1
12	3758	340.624604708951	2
12	3763	340.927201201024	2
12	3769	341.333622832894	3
12	3775	341.741009804419	3
12	3798	344.7	7
12	3802	345	2
12	3807	345.303934004371	2
12	3818	346.005166806086	6
12	3829	346.817492754422	7
12	3837	347.424810961834	5
12	3844	347.933527694849	4
12	3864	350.5	5
12	3869	350.9	3
12	3875	351.309987904073	3
12	3880	351.614261355108	2
12	3890	352.223897336918	5
12	3895	352.533734475521	2
12	3901	352.933799671528	3
12	3922	356.3	3
12	3929	356.9	5
12	3937	357.502358187681	5
12	3946	358.006331053834	4
12	3952	358.414571153462	3
12	3958	358.81751574989	3
12	3964	359.224223767167	3
12	3985	362.3	3
12	3988	362.5	1
12	3994	362.902083818523	3
12	4001	363.407515449241	4
12	4007	363.809678331537	3
12	4027	366.2	2
12	4033	366.7	4
12	4044	367.608603629497	8
12	4048	367.811716889265	1
12	4057	368.31459056763	4
12	4062	368.622659383358	2
12	4069	369.12414511484	4
12	4088	372.1	1
12	4094	372.507145570116	3
12	4099	372.809261900242	2
12	4105	373.210414353527	3
12	4110	373.519871636768	2
12	4115	373.824350254686	2
12	4124	374.330354103922	4
12	4128	374.535621798714	1
12	4132	374.74328252264	1
12	4137	375.052245891265	2
12	4143	375.455014045216	3
12	4149	375.86421657678	3
12	4170	378.5	5
12	4177	379.00781476102	4
12	4184	379.514705495642	4
12	4189	379.816457821038	2
12	4196	380.122202229099	2
12	4219	384.5	5
12	4227	385.2	6
12	4233	385.603226776663	3
12	4237	385.809951282681	1
12	4243	386.017335909422	1
12	4249	386.425590765421	3
12	4253	386.628429359805	1
12	4257	386.836589443413	1
12	4263	387.2451161289	3
12	4285	390.6	6
12	4293	391.3	6
12	4299	391.708580126354	3
12	4307	392.118211887242	3
12	4315	392.720267233446	5
12	4338	396.5	5
12	4345	397.1	5
12	4351	397.507905887849	3
12	4363	398.309098653063	7
12	4372	399.018823007169	6
12	4379	399.527309728829	4
12	4389	400.131172531201	5
12	4398	400.832424753925	6
12	4404	401.235608248251	3
12	4410	401.636145391772	3
12	4418	402.039904736804	3
12	4441	406.5	5
12	4446	406.9	3
12	4452	407.309475383122	3
12	4465	408.213583321807	8
12	4471	408.619451051857	3
12	4476	408.828139349982	1
12	4484	409.435358061982	5
12	4494	410.03787060767	5
12	4503	410.745355187906	6
12	4523	414.2	2
12	4529	414.7	4
12	4535	415.102533226979	3
12	4541	415.509518772139	3
12	4547	415.918832327165	3
12	4554	416.221583127822	2
12	4560	416.63055644389	3
12	4565	416.930767018848	2
12	4570	417.23819608213	2
12	4574	417.440426791597	1
12	4596	420.5	5
12	4600	420.8	2
12	4606	421.201706987998	3
12	4612	421.607785186966	3
12	4616	421.812863864251	1
12	4638	424.4	4
12	4647	424.716381332948	2
12	4653	425.12563434386	3
12	4658	425.339258269632	1
12	4681	428.5	5
12	4688	429.1	5
12	4693	429.402857745781	2
12	4698	429.705888375274	2
12	4712	430.714189829583	9
12	4738	434.8	8
12	4742	435.1	2
12	4746	435.303932554889	1
12	4752	435.711516783565	3
12	4759	436.020875118825	2
12	4783	440.6	6
12	4789	441.1	4
12	4796	441.605359321234	4
12	4804	442.012293272646	3
12	4812	442.612835979937	5
12	4818	443.0208151567	3
12	4824	443.422875182041	3
12	4828	443.627520875978	1
12	4849	446.3	3
12	4857	447	6
12	4865	447.608019467496	5
12	4874	448.112131365872	4
12	4895	452.3	3
12	4901	452.8	4
12	4910	453.506818876187	6
12	4923	454.413238846361	8
12	4930	454.917981367443	4
12	4936	455.323239478381	3
12	4942	455.727183526629	3
12	4949	456.036625668532	2
12	4954	456.344613418155	2
12	4958	456.548238743659	1
12	4963	456.849197867704	2
12	4989	460.8	8
12	4999	461.7	8
12	5007	462.108081096238	3
12	5013	462.508597048641	3
12	5018	462.813975400537	2
12	5025	463.321993766744	4
12	5031	463.724386793044	3
12	5035	463.926289244247	1
12	5044	464.331808265649	3
12	5053	465.038384822428	6
12	5074	468.3	3
12	5078	468.6	2
12	5088	469.40008116181	7
12	5095	469.90630347036	4
12	5102	470.207599962292	2
12	5106	470.41364105424	1
12	5112	470.819604247776	3
12	5118	471.227556158632	3
12	5122	471.429641725187	1
12	5126	471.631884737744	1
12	5132	471.936845620972	2
12	5154	474.4	4
12	5160	474.9	4
12	5165	475.208667714011	2
12	5169	475.409883103842	1
12	5173	475.610069554179	1
12	5178	475.914446540298	2
12	5185	476.223314310056	2
12	5190	476.531296614736	2
12	5194	476.734791895553	1
12	5201	477.238250153983	4
12	5225	480.6	6
12	5235	481.5	8
12	5240	481.803304716409	2
12	5251	482.503961389907	6
12	5257	482.912725521402	3
12	5266	483.61368137976	6
12	5279	484.522276814771	8
12	5284	484.822551806317	2
12	5291	485.32323316289	4
12	5297	485.731250044022	3
12	5305	486.137857458901	3
12	5310	486.441391720708	2
12	5315	486.745245044821	2
12	5340	490.7	7
12	5346	491.2	4
12	5351	491.502678632824	2
12	5361	492.106333600328	5
12	5368	492.607757318172	4
12	5373	492.913935379233	2
12	5379	493.322681253914	3
12	5385	493.726299412437	3
12	5393	494.127417269915	3
12	5398	494.434635405247	2
12	5405	494.94228769255	4
12	5427	498.5	5
12	5430	498.7	1
12	5437	499.201254824828	4
12	5446	499.903246399582	6
12	5456	500.511646582753	5
12	5460	500.715076180131	1
12	5469	501.326060851018	5
12	5473	501.528945608983	1
12	5477	501.731916320541	1
12	5497	504.3	3
12	5501	504.6	2
12	5507	505.008071339665	3
12	5522	506.108899847365	10
12	5543	510.3	3
12	5550	510.9	5
12	5557	511.4067100948	4
12	5564	511.913426480153	4
12	5574	512.522946409067	5
12	5581	513.025764956975	4
12	5603	516.4	4
12	5608	516.8	3
12	5617	517.507055401252	6
12	5623	517.81452089646	2
12	5629	518.01709244699	1
12	5636	518.518056753603	4
12	5642	518.925512491312	3
12	5648	519.22775039301	2
12	5670	522.4	4
12	5676	522.9	4
12	5683	523.405557707345	4
12	5688	523.708477675488	2
12	5695	524.018061532619	2
12	5703	524.625570077191	5
12	5710	525.133163995454	4
12	5730	528.2	2
12	5739	529	7
12	5746	529.507459509146	4
12	5752	529.912310775389	3
12	5760	530.312578728286	3
12	5766	530.720807428861	3
12	5772	531.129748624137	3
12	5780	531.733139623976	5
12	5800	534.2	2
12	5804	534.5	2
12	5809	534.803956526492	2
12	5815	535.205287705838	3
12	5821	535.605811748286	3
12	5826	535.915580497198	2
12	5850	538.6	6
12	5857	539.2	5
12	5864	539.702897932468	4
12	5868	539.908990123995	1
12	5879	540.617664940214	6
12	5886	541.12452348525	4
12	5906	544.2	2
12	5911	544.6	3
12	5917	545.005540691546	3
12	5923	545.412418575742	3
12	5929	545.818437312155	3
12	5935	546.025637509066	1
12	5939	546.230342480188	1
12	5944	546.532865394737	2
12	5949	546.840780438628	2
12	5967	550	0
12	5972	550.4	3
12	5980	551.008046607996	5
12	5986	551.408833185612	3
12	5992	551.81639968185	3
12	6001	552.32544485812	4
12	6010	553.026325412557	6
12	6016	553.427134222762	3
12	6021	553.730086944551	2
12	6029	554.136984352488	3
12	6035	554.546362533289	3
12	6039	554.752539849727	1
12	6043	554.95724585732	1
12	6066	558.6	6
12	6070	558.9	2
12	6076	559.308592871499	3
12	6081	559.61101223789	2
12	6091	560.215769856386	5
12	6098	560.723265875175	4
12	6106	561.333252998283	5
12	6113	561.836944706749	4
12	6119	562.04097887925	1
12	6124	562.343157884407	2
12	6147	566.5	5
12	6151	566.8	2
12	6157	567.202641416606	3
12	6164	567.707466763439	4
12	6171	568.011878021093	2
12	6176	568.317680136585	2
12	6181	568.624398355905	2
12	6206	572.7	7
12	6213	573.3	5
12	6220	573.800433256744	4
12	6228	574.20139556714	3
12	6249	578.3	3
12	6256	578.9	5
12	6266	579.701432099598	7
12	6276	580.302834285438	5
12	6281	580.611763157812	2
12	6287	581.017324964851	3
12	6291	581.224245332311	1
12	6295	581.424987600228	1
12	6301	581.830063155951	3
12	6323	584.4	4
12	6326	584.6	1
12	6330	584.806466637572	1
12	6334	585.010064124976	1
12	6354	588.2	2
12	6363	589	7
12	6369	589.409274893032	3
12	6379	590.010557485375	5
12	6388	590.712825390795	6
12	6395	591.222515134013	4
12	6403	591.83148548515	5
12	6410	592.13810968941	2
12	6416	592.540659737944	3
12	6422	592.94791262626	3
12	6427	593.254130986584	2
12	6449	596.4	4
12	6455	596.9	4
12	6461	597.302888151339	3
12	6469	597.912365862989	5
12	6480	598.614319076404	6
12	6485	598.91882632548	2
12	6492	599.428146772079	4
12	6497	599.73543113846	2
12	6506	600.243820390723	4
12	6513	600.748597033287	4
12	6520	601.250162199745	4
12	6541	604.4	4
12	6549	605.1	6
12	6554	605.309890211466	1
12	6561	605.81960698617	4
12	6583	608.4	4
12	6594	609.4	9
12	6598	609.603607453953	1
12	6606	610.009395364257	3
12	6614	610.618771148735	5
12	6619	610.928561391605	2
12	6643	614.6	6
12	6648	615	3
12	6656	615.606956588709	5
12	6660	615.812907227037	1
12	6666	616.020174590187	1
12	6671	616.323139623802	2
12	6675	616.527592239983	1
12	6694	620.4	4
12	6700	620.9	4
12	6707	621.407259149018	4
12	6712	621.716999286324	2
12	6719	622.020431447412	2
12	6724	622.323996137886	2
12	6728	622.528386516194	1
12	6734	622.936304259412	3
12	6740	623.340282412122	3
12	6745	623.64166184208	2
12	6750	623.950286325552	2
12	6757	624.256972457154	2
12	6761	624.459748600206	1
12	6768	624.966131261884	4
12	6792	628.7	7
12	6801	629.5	7
12	6807	629.903064146302	3
12	6818	630.607008408211	6
12	6826	631.214352490332	5
12	6834	631.822161677124	5
12	6842	632.227400238449	3
12	6862	636.5	5
12	6870	637.2	6
12	6874	637.40910777843	1
12	6884	638.009755395251	5
12	6891	638.517276399848	4
12	6897	638.917597595059	3
12	6901	639.125030535733	1
12	6908	639.633273052455	4
12	6913	639.934188672307	2
12	6935	642.4	4
12	6939	642.7	2
12	6943	642.906179775386	1
12	6947	643.107446944827	1
12	6951	643.308015023369	1
12	6959	643.819502681673	4
12	6965	644.020916756277	1
12	6970	644.322424393977	2
12	6975	644.629548304752	2
12	6980	644.844011637601	1
12	6985	645.15353502203	2
12	6989	645.355191180037	1
12	6994	645.664825061635	2
12	7004	646.26571867869	5
12	7024	650.2	2
12	7027	650.4	1
12	7036	651.100785517131	6
12	7045	651.802759349538	6
12	7054	652.311631726649	4
12	7059	652.62146380567	2
12	7064	652.92872979453	2
12	7069	653.235217379826	2
12	7091	656.6	6
12	7096	657	3
12	7111	658.101968296167	10
12	7118	658.604719823935	4
12	7140	662.5	5
12	7145	662.9	3
12	7151	663.302732411166	3
12	7158	663.811774974841	4
12	7164	664.212332760759	3
12	7171	664.71495012992	4
12	7176	665.015895432598	2
12	7180	665.219951865986	1
12	7185	665.524879825099	2
12	7191	665.928085195811	3
