version 2
run Join-78-20130520-16:33:47-32715
attr configname Join
attr datetime 20130520-16:33:47
attr experiment "\"Join\""
attr inifile omnetpp.ini
attr iterationvars $0=4096
attr iterationvars2 "$0=4096, $repetition=8"
attr measurement $0=4096
attr network Network
attr processid 32715
attr repetition 8
attr replication #8
attr resultdir results
attr runnumber 78
attr seedset 78

vector 78  Network.dyn_peer[0]  lookupHopsSig:vector  ETV
78	11430	21.914523672667	53
78	11461	24.415195882123	24
78	11491	27.019999500916	25
78	11555	32.628346229724	55
78	11582	34.930991865747	22
78	11598	36.131963643593	11
78	11626	38.538014173275	23
78	11668	42.14615550956	35
78	11717	49.1	31
78	11748	51.9	27
78	11790	55.500985652236	35
78	11812	57.306421794038	17
78	11862	61.712470710865	43
78	11872	62.317514942005	5
78	11925	67.019247606646	46
78	11936	67.919447615281	8
78	12071	80.9	109
78	12123	85.6	46
78	12160	88.709799115941	30
78	12189	91.217328206015	24
78	12211	93.017931098046	17
78	12258	97.124982783945	40
78	12310	101.732883717999	45
78	12340	104.142423168652	23
78	12365	106.249648098513	20
78	12410	110.154848308931	38
78	12440	115.2	12
78	12467	117.6	23
78	12490	119.50533154061	18
78	12512	121.312198345655	17
78	12558	125.321482525235	39
78	12602	129.131047876106	37
78	12642	132.535175030735	33
78	12656	133.736677517044	11
78	12679	135.637518763715	18
78	12693	136.645186125755	9
78	12755	142.051048638732	53
78	12802	148.7	27
78	12853	153.3	45
78	12895	156.904288777178	35
78	12935	160.305189143551	33
78	12981	164.30707898659	39
78	12995	165.509238082376	11
78	13038	169.209624493129	36
78	13081	174.6	26
78	13112	177.4	27
78	13131	178.901853826076	14
78	13156	181.003435182284	20
78	13210	185.804105763427	47
78	13229	187.311779256424	14
78	13262	190.014530471787	26
78	13289	192.319385966807	22
78	13432	200.7	47
78	13473	202.5	17
78	13507	204.003871078335	14
78	13539	205.509650560791	14
78	13576	207.216604606636	16
78	13599	209.124865633119	18
78	13619	210.730330452369	15
78	13694	219.6	56
78	13726	222.3	26
78	13750	224.30348860281	19
78	13778	226.710601844153	23
78	13817	230.011765000651	32
78	13830	231.117893947391	10
78	13875	235.021150668966	38
78	13921	239.027384027435	39
78	13939	240.429289015714	13
78	13968	242.939122830937	24
78	13993	245.041790307071	20
78	14057	250.649144267062	55
78	14111	255.455032587041	47
78	14146	258.35813535539	28
78	14231	268.2	62
78	14284	273	47
78	14339	277.909433978302	48
78	14366	280.017944999013	20
78	14385	281.726670578738	16
78	14438	286.231132481085	44
78	14517	295.7	57
78	14557	299.2	34
78	14586	301.702739033505	24
78	14640	306.311930826414	45
78	14693	311.018605945415	46
78	14746	315.721005562252	46
78	14838	323.923761285987	81
78	14859	325.631370388293	16
78	14883	327.638229551103	19
78	14927	331.444703859206	37
78	14998	338.9	49
78	15022	341	20
78	15048	343.206161925026	21
78	15057	343.906754967115	6
78	15090	346.615182086498	26
78	15138	350.821019711649	41
78	15156	352.224485971891	13
78	15191	355.325609666109	30
78	15236	359.231108784158	38
78	15265	361.739016009743	24
78	15330	368.3	43
78	15377	372.5	41
78	15400	374.4002601272	18
78	15425	376.503184607258	20
78	15459	379.511032385035	29
78	15468	380.012075514335	4
78	15481	381.115307120748	10
78	15556	389.6	56
78	15572	390.9	12
78	15620	395.108897857954	41
78	15642	396.916821242714	17
78	15659	398.218888973352	12
78	15698	401.727617502832	34
78	15746	405.93222323081	41
78	15765	407.440196339322	14
78	15802	410.54069908989	30
78	15850	414.742202138203	41
78	15891	418.249993836358	34
78	16025	432.6	106
78	16045	434.3	16
78	16070	436.406618496524	20
78	16106	439.613090013416	31
78	16130	441.613134741067	19
78	16152	443.418132304843	17
78	16169	444.722313314853	12
78	16244	451.427823732427	66
78	16301	457.7	37
78	16324	459.7	19
78	16357	462.405011635706	26
78	16382	464.50569456766	20
78	16414	467.313980784342	27
78	16452	470.51985805287	31
78	16548	479.124491195948	85
78	16571	481.031716453755	18
78	16596	483.138048381079	20
78	16606	483.944449159894	7
78	16646	487.353339302877	33
78	16672	489.559727801212	21
78	16703	492.060696522818	24
78	16824	505.5	95
78	16878	510.2	46
78	16931	514.902044955608	46
78	16994	520.409165214621	54
78	17003	521.114958814719	6
78	17039	524.124896083836	29
78	17049	524.926642427275	7
78	17086	528.034809377077	30
78	17122	531.242850679543	31
78	17131	531.94941611688	6
78	17142	532.650820031483	6
78	17162	534.251666162279	15
78	17210	540.8	28
78	17250	544.3	34
78	17277	546.600843561594	22
78	17284	547.10469532336	4
78	17301	548.404916174934	12
78	17350	552.712934924753	42
78	17392	556.321261362745	35
78	17431	559.830467397181	34
78	17453	561.639128423853	17
78	17479	563.844462968763	21
78	17535	568.648477756893	47
78	17612	573.9	19
78	17681	577	30
78	17702	578.400772658458	13
78	17732	581.006109926683	25
78	17800	587.008065784136	59
78	17830	589.617084837097	25
78	17862	593.4	14
78	17877	594.6	11
78	17913	597.804670638272	31
78	17935	599.611410196635	17
78	17987	604.014215475711	43
78	18008	605.922223585826	18
78	18029	607.62498324296	16
78	18071	611.225935990426	35
78	18102	613.927059908923	26
78	18182	620.936800166989	69
78	18263	626	20
78	18322	628.8	27
78	18416	633.10019839938	42
78	18472	635.60264818449	24
78	18532	638.207138457542	25
78	18568	639.91047470281	16
78	18620	642.218888016968	22
78	18670	644.420440732118	21
78	18738	648.327787832949	38
78	18746	648.932788030913	5
78	18773	652.9	9
78	18809	656	30
78	18834	658.108996791695	20
78	18924	666.117102104909	79
78	18940	667.518351283617	13
78	19052	673.8	38
78	19063	674.6	7
78	19095	677.406980511331	27
78	19109	678.414290580543	9
78	19120	679.32227205544	8
78	19169	683.626106747428	42
78	19183	684.634860685511	9
78	19242	692	40
78	19271	694.6	25
78	19298	696.900020591241	22
78	19320	698.708040730342	17
78	19353	701.616202724842	28
78	19386	705.5	15
78	19420	708.4	28
78	19456	711.609619306495	31
78	19481	713.718411856683	20
78	19495	714.720688143799	9
78	19544	719.024315543736	42
78	19566	720.832892468392	17
78	19622	725.7	17
78	19652	728.2	24
78	19679	730.501032733561	22
78	19699	732.103634325971	15
78	19717	733.712142079625	15
78	19768	738.019072407671	42
78	19799	740.727618167445	26
78	19853	747.7	37
78	19913	753	52
78	19934	754.707609087871	16
78	19953	756.210743384656	14
78	19999	760.219269220078	39
78	20027	762.621099075494	23
78	20073	766.630211748444	39
78	20136	774.4	44
78	20178	778.1	36
78	20213	781.207864571758	30
78	20228	782.310697806775	10
78	20265	785.610943821574	32
78	20284	787.118188559541	14
78	20314	789.727036542636	25
78	20331	791.02727427269	12
78	20364	793.935834866672	28
78	20386	795.740288096566	17
78	20412	797.944380771447	21
78	20435	799.85082445925	18
78	20479	803.651482124816	37
78	20519	807.057471949156	33
78	20556	811.9	19
78	20611	816.7	47
78	20665	821.507922029395	47
78	20689	823.510369791763	19
78	20723	826.312827827799	27
78	20769	830.322196161087	39
78	20786	831.831152162238	14
78	20843	836.738866114488	48
78	20898	841.648524593859	48
78	20932	845.6	16
78	21002	851.9	62
78	21030	854.105358372072	21
78	21054	856.108439780787	19
78	21088	859.108609468391	29
78	21116	861.518320173997	23
78	21202	870.2	62
78	21225	872.2	19
78	21239	873.406970638181	11
78	21254	874.512067331641	10
78	21265	875.413636576151	8
78	21308	879.114775202315	36
78	21377	885.218552917471	60
78	21418	888.724557898501	34
78	21440	890.533539612086	17
78	21472	893.335073605561	27
78	21553	901.9	59
78	21586	904.7	27
78	21627	908.203127368944	34
78	21674	912.303773739949	40
78	21717	916.013375658773	36
78	21778	921.519025340516	54
78	21809	924.025648007737	24
78	21817	924.626222441547	5
78	21850	927.534807272317	28
78	21880	931.2	12
78	21935	936	47
78	21976	939.704154571897	36
78	22008	942.311577543913	25
78	22038	944.91575871799	25
78	22066	947.324548803477	23
78	22102	950.32875338088	29
78	22116	951.537625475972	11
78	22179	957.044832059532	54
78	22244	962.746168517766	56
78	22279	965.848170327418	30
78	22311	968.458074176206	25
78	22388	977.5	55
78	22420	980.2	26
78	22472	984.805090122616	45
78	22503	987.511970764284	26
78	22544	991.018687198617	34
78	22567	992.925606774209	18
78	22608	996.431803223081	34
78	22638	999.032596959956	25
78	22670	1001.833494429725	27
78	22736	1007.642119347366	57
78	22756	1009.243936647625	15
78	22778	1011.044766293695	17
78	22823	1014.945293300378	38
78	22851	1017.355214505882	23
78	22901	1023	30
78	22929	1025.5	24
78	22991	1030.906567575854	53
78	23019	1033.312429382371	23
78	23045	1035.515933492677	21
78	23111	1041.318554323794	57
78	23251	1055.2	112
78	23269	1056.7	14
78	23283	1057.905786551758	11
78	23336	1062.415164281692	44
78	23360	1064.416160968147	19
78	23380	1066.023819919706	15
78	23451	1072.333570964613	62
78	23520	1080.7	47
78	23546	1083	22
78	23577	1085.70193239313	26
78	23610	1088.402469106164	26
78	23638	1090.803113423277	23
78	23681	1094.507736399402	36
78	23734	1099.21384880135	46
78	23760	1101.414295228334	21
78	23780	1104.2	2
78	23819	1107.8	35
78	23842	1109.703440819985	18
78	23872	1112.10413969874	23
78	23918	1116.10720786175	39
78	24091	1126.4	64
78	24174	1130.2	37
78	24234	1132.901371084433	26
78	24286	1136.501779121383	35
78	24306	1138.102512356141	15
78	24346	1141.705780470443	35
78	24368	1143.51062997643	17
78	24389	1145.216123164748	16
78	24396	1145.717764977319	4
78	24414	1147.120246764321	13
78	24459	1151.02642371827	38
78	24502	1154.733032185835	36
78	24551	1159.037393071401	42
78	24593	1162.646805787057	35
78	24627	1165.651653357772	29
78	24650	1168.6	6
78	24658	1169.3	6
78	24699	1172.803283742829	34
78	24745	1176.811641580851	39
78	24802	1181.918344855371	50
78	24845	1185.625569672442	36
78	24887	1189.232282216587	35
78	24928	1192.73997856261	34
78	24958	1195.34658289314	25
78	24998	1198.754313424439	33
78	25047	1203.056128295198	42
78	25071	1206.7	7
78	25097	1209	22
78	25119	1210.807275942408	17
78	25141	1212.607780487171	17
78	25193	1217.212778985494	45
78	25231	1220.413696956195	31
78	25258	1222.721503623382	22
78	25282	1224.731171781053	19
78	25295	1225.835632408673	10
78	25349	1230.445188984789	45
78	25406	1237.8	38
78	25447	1241.4	35
78	25469	1243.20794149667	17
78	25510	1246.710682246482	34
78	25540	1249.314492518773	25
78	25573	1252.023608751871	26
78	25630	1257.124505957508	50
78	25702	1265.3	53
78	25739	1268.5	31
78	25760	1270.204499174356	16
78	25788	1272.607846822132	23
78	25822	1275.616420180658	29
78	25870	1279.820779355797	41
78	25942	1286.026187066808	61
78	25991	1292.9	29
78	26009	1294.4	14
78	26056	1298.500974605192	40
78	26103	1302.606923730148	40
78	26118	1303.908351452341	12
78	26162	1307.710392409527	37
78	26231	1313.819381733582	60
78	26268	1316.927167503199	30
78	26312	1320.73483593629	37
78	26348	1323.935854922656	31
78	26367	1325.443622230933	14
78	26421	1330.051329084838	45
78	26448	1332.358066370764	22
78	26513	1340.5	45
78	26537	1342.6	20
78	26546	1343.303991929776	6
78	26585	1346.612651006964	32
78	26599	1347.820119846042	11
78	26649	1352.025383187034	41
78	26677	1354.425788077353	23
78	26749	1360.833452810467	63
78	26792	1366.3	23
78	26830	1369.8	34
78	26838	1370.209262020764	3
78	26848	1371.013408242856	7
78	26853	1371.319153788914	2
78	26873	1372.921029479864	15
78	26941	1378.928780879736	59
78	26947	1379.33240289382	3
78	26990	1383.03370595851	36
78	27042	1387.638127639535	45
78	27055	1388.546687321822	8
78	27071	1389.949815093037	13
78	27084	1390.856225468854	8
78	27117	1393.764894604797	28
78	27149	1396.370033515703	25
78	27264	1408.9	89
78	27294	1411.6	26
78	27330	1414.608110118545	29
78	27363	1417.50983279982	28
78	27400	1420.614783041182	30
78	27415	1421.921436400092	12
78	27458	1425.629112418785	36
78	27488	1428.035427439999	23
78	27521	1433.5	15
78	27562	1437.1	35
78	27594	1439.902112382012	27
78	27640	1443.906399560726	39
78	27683	1447.606403086673	36
78	27752	1453.71406632355	60
78	27795	1457.415156840354	36
78	27838	1461.115261288543	36
78	27870	1463.921626068702	27
78	27968	1472.52559452521	85
78	28039	1480.9	49
78	28059	1482.6	16
78	28065	1483.008623474272	3
78	28070	1483.313218829994	2
78	28076	1483.715802055854	3
78	28102	1485.924579166772	21
78	28135	1488.625479761212	26
78	28159	1490.631499312411	19
78	28172	1491.732249055535	10
78	28191	1493.237459476385	14
78	28204	1494.140575296415	8
78	28220	1495.545712547942	13
78	28238	1498	0
78	28288	1502.5	44
78	28311	1504.403508970914	18
78	28359	1508.609092696667	41
78	28428	1514.710822814395	60
78	28477	1519.014401001396	42
78	28519	1522.622721673484	35
78	28597	1531.6	56
78	28622	1533.8	21
78	28667	1537.701537381706	38
78	28687	1539.307364242006	15
78	28734	1543.409973125463	40
78	28739	1543.715130329304	2
78	28790	1548.022250796788	42
78	28841	1552.522812426088	44
78	28932	1558.5	25
78	28999	1561.6	30
78	29043	1563.601038852147	19
78	29087	1565.503148353837	18
78	29171	1569.311901355634	37
78	29219	1571.417229301211	20
78	29267	1573.619820500503	21
78	29321	1576.6	6
78	29344	1578.6	19
78	29384	1582.000530519059	33
78	29419	1585.100740775842	30
78	29483	1590.708151397068	55
78	29517	1593.71124282263	29
78	29532	1594.813296254712	10
78	29584	1599.416948011023	45
78	29618	1602.219704099701	27
78	29682	1610.2	42
78	29729	1614.4	41
78	29760	1617.10069254247	26
78	29798	1620.303812340984	31
78	29820	1622.108780500632	17
78	29840	1623.912717120558	17
78	29895	1628.618616088823	46
78	29969	1635.224277488152	65
78	29997	1637.63119875923	23
78	30053	1642.439969595691	47
78	30083	1645.044141665582	25
78	30145	1650.451610896476	53
78	30165	1652.054891227104	15
78	30215	1656.462670783002	43
78	30339	1664.1	41
78	30364	1665.3	11
78	30394	1666.50073703068	11
78	30416	1667.510255698982	9
78	30454	1669.112000352077	15
78	30484	1670.414909611791	12
78	30538	1672.817044462016	23
78	30621	1679.5	35
78	30632	1680.3	7
78	30660	1682.70696158844	23
78	30686	1684.910861579011	21
78	30718	1687.714050477267	27
78	30743	1689.821806397651	20
78	30764	1691.525700166443	16
78	30796	1694.125730479069	25
78	30838	1697.930605044665	37
78	30867	1700.23732717628	22
78	30935	1706.247160436095	59
78	30992	1713.9	39
78	31005	1714.9	9
78	31049	1718.705642221458	37
78	31075	1720.913313984763	21
78	31079	1721.118767105267	1
78	31102	1723.023044752954	18
78	31127	1725.124370929704	20
78	31141	1726.127540162785	9
78	31192	1733.1	31
78	31226	1736	28
78	31277	1740.507994197821	44
78	31297	1742.112305015292	15
78	31332	1745.212535985677	30
78	31340	1745.818569812522	5
78	31368	1748.020420585061	21
78	31388	1749.823631532933	17
78	31435	1753.929994258904	40
78	31480	1757.830582426563	38
78	31502	1759.630734183627	17
78	31517	1760.737804907426	10
78	31550	1765.5	15
78	31589	1768.9	33
78	31620	1771.606193301347	26
78	31656	1774.61186530563	29
78	31670	1775.819066951616	11
78	31711	1779.319795140348	34
78	31735	1781.320442847864	19
78	31775	1784.725680975723	33
78	31818	1788.43479021464	36
78	31841	1790.335011041252	18
78	31870	1792.836930681952	24
78	31975	1804.1	81
78	32020	1808.1	39
78	32033	1809.203732873357	10
78	32079	1813.209917850871	39
78	32133	1819.4	34
78	32171	1822.7	32
78	32212	1826.200910985767	34
78	32235	1828.108352222162	18
78	32251	1829.516892394948	13
78	32321	1835.719721672058	61
78	32361	1839.12743415944	33
78	32403	1842.728689072227	35
78	32465	1848.130705872685	53
78	32511	1852.1368707273	39
78	32571	1857.538731877415	53
78	32653	1864.743998397246	71
78	32826	1874.2	62
78	32944	1880.7	64
78	32989	1884.609233520433	38
78	33004	1885.914419450479	12
78	33046	1889.521203307731	35
78	33068	1891.326818226292	17
78	33090	1893.134550999542	17
78	33125	1896.042633804992	28
78	33144	1897.749282037488	16
78	33173	1900.050598910667	22
78	33200	1902.354687935807	22
78	33205	1902.662503565623	2
78	33253	1908.8	28
78	33263	1909.7	8
78	33302	1913.004948879908	32
78	33324	1914.808653210405	17
78	33364	1918.215256571519	33
78	33395	1920.920493808026	26
78	33419	1922.925094830377	19
78	33569	1928.9	29
78	33608	1930.7	17
78	33642	1932.201159669812	14
78	33702	1936.407770776075	41
78	33737	1939.51123020721	30
78	33763	1941.719409335417	21
78	33804	1945.228466203471	34
78	33868	1950.83459867024	55
78	33943	1957.544350358107	66
78	34033	1965.4	54
78	34089	1970.3	48
78	34125	1973.508233644585	31
78	34206	1980.609840859696	70
78	34236	1983.215690212188	25
78	34264	1985.617123906436	23
78	34288	1987.620977557381	19
78	34313	1989.728484740269	20
78	34338	1991.837852337567	20
78	34367	1994.140954340111	22
78	34412	1998.042894039157	38
78	34443	2003.3	13
78	34497	2008	46
78	34534	2011.300672111574	32
78	34590	2016.105907687717	47
78	34625	2019.210279406753	30
78	34678	2023.915457039912	46
78	34699	2025.616932499477	16
78	34781	2034.1	61
78	34808	2036.5	23
78	34850	2040.107030662151	35
78	34858	2040.712922695225	5
78	34877	2042.219176307117	14
78	34905	2044.623866236728	23
78	34929	2046.629806928994	19
78	34981	2051.233786870705	45
78	35009	2053.636417606571	23
78	35031	2055.443482911549	17
78	35060	2059.2	12
78	35072	2060.1	8
78	35109	2063.401553777216	32
78	35142	2066.107214145313	26
78	35173	2068.815499684139	26
78	35195	2070.61926884119	17
78	35208	2071.72436258439	10
78	35230	2073.527777591778	17
78	35267	2076.630330992401	30
78	35345	2085.6	56
78	35390	2089.6	39
78	35414	2091.604951345238	19
78	35439	2093.713943011248	20
78	35461	2095.520513636976	17
78	35495	2098.324666537336	27
78	35508	2099.428974773321	10
78	35518	2100.03052430924	5
78	35548	2102.639668068459	25
78	35609	2107.1	11
78	35678	2110.2	30
78	35805	2116.009326353212	57
78	35871	2119.010742941833	29
78	35940	2122.114444638496	30
78	36011	2125.421867312789	32
78	36048	2128.030575316329	25
78	36086	2131.436523729685	33
78	36118	2134.045357559303	25
78	36140	2138.6	6
78	36146	2139.1	4
78	36170	2141.103383424242	19
78	36190	2142.712346373325	15
78	36218	2145.112809677905	23
78	36233	2146.213616023737	10
78	36284	2150.723502920123	44
78	36307	2152.624054345967	18
78	36329	2154.42892404612	17
78	36341	2155.435002456776	9
78	36345	2155.64452894401	1
78	36367	2157.448257058115	17
78	36391	2159.453146092196	19
78	36407	2160.662553460563	11
78	36425	2162.065985479724	13
78	36479	2169.4	34
78	36503	2171.5	20
78	36529	2173.701983376296	21
78	36541	2174.511929988483	7
78	36552	2175.421837458877	8
78	36562	2176.031671440683	5
78	36591	2178.537781756071	24
78	36612	2180.247325911212	16
78	36640	2182.656384987071	23
78	36702	2190	40
78	36738	2193.3	32
78	36789	2197.803048039537	44
78	36809	2199.403639235563	15
78	36845	2202.410810809541	29
78	36866	2204.114570515132	16
78	36901	2207.219454709349	30
78	36918	2208.5285762378	12
78	37003	2218.1	61
78	37038	2221.3	31
78	37061	2223.203720280379	18
78	37104	2226.913339762394	36
78	37149	2230.813850522362	38
78	37176	2233.115384111303	22
78	37224	2237.320907689343	41
78	37251	2239.624367054044	22
78	37283	2242.22554858925	25
78	37340	2248.4	24
78	37350	2249.3	8
78	37387	2252.402563513393	30
78	37415	2254.810116092151	23
78	37443	2257.213659987275	23
78	37484	2260.715901093704	34
78	37507	2262.624311794477	18
78	37558	2267.131630065477	44
78	37598	2270.533419389117	33
78	37603	2270.835201513483	2
78	37624	2272.53622121161	16
78	37685	2280	40
78	37714	2282.6	25
78	37745	2285.308071807497	26
78	37772	2287.612055761434	22
78	37820	2291.817247007761	41
78	37871	2296.126470737754	42
78	37920	2300.435073115586	42
78	37976	2307.9	39
78	38026	2312.2	42
78	38088	2317.80953692421	55
78	38126	2321.018467689267	31
78	38162	2324.02601402297	29
78	38191	2326.530208738428	24
78	38205	2327.73498825666	11
78	38259	2333.7	37
78	38287	2336	22
78	38306	2337.701721285081	16
78	38357	2342.003442251521	42
78	38476	2349.8	38
78	38485	2350.1	2
78	38539	2352.601503560338	24
78	38563	2353.607792031776	9
78	38635	2358.717726456696	50
78	38648	2359.82032843224	10
78	38686	2363.025899497282	31
78	38746	2368.234424713446	51
78	38774	2370.642598288637	23
78	38831	2375.749637125339	50
78	38928	2380.6	26
78	39001	2384.2	35
78	39074	2390.707448053606	64
78	39097	2392.607555689855	18
78	39166	2398.715301668277	60
78	39178	2399.725225453405	9
78	39199	2401.434564637171	16
78	39299	2411.9	79
78	39318	2413.5	15
78	39337	2415.000853393969	14
78	39357	2416.608346817341	15
78	39431	2423.209083500137	65
78	39439	2423.816481840692	5
78	39474	2426.719970309827	28
78	39509	2429.826788724914	30
78	39571	2436	40
78	39609	2439.5	34
78	39645	2442.505068424164	29
78	39688	2446.212525935128	36
78	39701	2447.321481117218	10
78	39718	2448.626313349225	12
78	39901	2462	100
78	39927	2464.3	22
78	39957	2466.906744382008	25
78	39972	2468.006829296214	10
78	39986	2469.209994026178	11
78	40000	2470.211141513537	9
78	40025	2472.317639938562	20
78	40034	2473.019148541418	6
78	40053	2474.520041305265	14
78	40079	2476.72244452141	21
78	40159	2483.927785762834	71
78	40292	2490.2	42
78	40359	2493.1	28
78	40385	2494.200373831579	10
78	40474	2498.403302501904	41
78	40504	2501.009805894555	25
78	40536	2503.81778685309	27
78	40566	2506.218563068087	23
78	40626	2514.1	41
78	40640	2515.4	12
78	40662	2517.206191825284	17
78	40735	2523.708631763494	64
78	40778	2527.412980440103	36
78	40854	2533.7	37
78	40869	2534.9	11
78	40886	2536.203352309407	12
78	40925	2539.710343986116	34
78	40934	2540.213049076618	4
78	40980	2544.221538415222	39
78	41018	2547.629140210388	33
78	41028	2548.235913646867	5
78	41055	2553.1	11
78	41091	2556.2	30
78	41130	2559.703517405157	34
78	41149	2561.205694766909	14
78	41154	2561.510358653874	2
78	41204	2565.917020635167	43
78	41226	2567.72401306969	17
78	41282	2573.6	36
78	41361	2580.6	69
78	41397	2583.800020255187	31
78	41436	2587.101882272603	32
78	41494	2592.102918278947	49
78	41504	2592.91268505379	7
78	41514	2593.719219061528	7
78	41539	2595.827034252344	20
78	41548	2596.331572728417	4
78	41576	2598.739019942955	23
78	41583	2599.240823815277	4
78	41653	2605.448083172818	61
78	41717	2610.2	22
78	41744	2612.6	23
78	41769	2614.70433507546	20
78	41825	2619.70527489283	49
78	41870	2623.606743099709	38
78	41917	2627.709529263101	40
78	41961	2631.517422395989	37
78	42020	2636.618492935777	50
78	42061	2640.125478393947	34
78	42146	2647	30
78	42167	2648.8	17
78	42189	2650.603307570333	17
78	42211	2652.409802841138	17
78	42233	2654.21317147212	17
78	42256	2656.121164628929	18
78	42326	2662.325361890276	61
78	42441	2675.2	92
78	42485	2679.1	38
78	42535	2683.503374348618	43
78	42547	2684.304062046634	7
78	42559	2685.307915720589	9
78	42596	2688.411658930704	30
78	42604	2689.013202854359	5
78	42613	2689.718060868451	6
78	42650	2692.818398284941	30
78	42726	2701.4	54
78	42754	2703.9	24
78	42842	2711.707361464283	77
78	42884	2715.309512884313	35
78	42900	2716.511504583527	11
78	42935	2719.618909316941	30
78	42959	2721.62035825707	19
78	42973	2722.623896674765	9
78	43067	2731.024625713629	83
78	43084	2732.328868887842	12
78	43096	2733.331107960216	9
78	43111	2734.439986980851	10
78	43144	2737.347172695482	28
78	43157	2738.249584193674	8
78	43197	2741.851527120885	35
78	43272	2749.4	54
78	43298	2751.7	22
78	43314	2752.903315072513	11
78	43361	2757.005006854216	40
78	43400	2760.312855587174	32
78	43416	2761.722295057706	13
78	43460	2765.524915991558	37
78	43510	2769.925749863334	43
78	43560	2774.134473000638	41
78	43580	2775.944275296382	17
78	43610	2778.346559498957	23
78	43632	2780.156163145829	17
78	43648	2781.558777291582	13
78	43681	2784.26406548419	26
78	43767	2794.2	62
78	43775	2794.9	6
78	43787	2795.90240689598	9
78	43840	2800.409983156677	44
78	43856	2801.814553685241	13
78	43877	2803.516959449228	16
78	43899	2805.325538896362	17
78	43939	2808.729978581725	33
78	43975	2811.932096067115	31
78	43997	2813.733456090849	17
78	44008	2814.434468942721	6
78	44020	2815.440343182288	9
78	44044	2817.444002050818	19
78	44106	2824.2	42
78	44160	2829.1	48
78	44197	2832.20183393792	30
78	44228	2834.910934851227	26
78	44259	2837.620375629397	26
78	44278	2839.127216768533	14
78	44308	2841.73272754231	25
78	44341	2844.438207065444	26
78	44378	2847.741066481663	32
78	44432	2853.4	34
78	44468	2856.5	30
78	44482	2857.700949210859	11
78	44514	2860.309339410594	25
78	44525	2861.216662913226	8
78	44552	2863.523442074545	22
78	44573	2865.230871933722	16
78	44660	2872.934891830815	76
78	44679	2874.440306757627	14
78	44696	2875.944776131255	14
78	44749	2880.447923211555	44
78	44770	2882.150053358578	16
78	44789	2883.856295930544	16
78	44825	2886.858123938886	29
78	44911	2892.3	23
78	44964	2894.7	23
78	45100	2900.906292217727	61
78	45132	2902.211962142849	12
78	45182	2904.517048340252	22
78	45244	2909.62089266351	50
78	45270	2911.827268928746	21
78	45344	2919.5	55
78	45355	2920.3	7
78	45386	2923.003013455162	26
78	45401	2924.112601111388	10
78	45418	2925.613632985911	14
78	45489	2930.7	27
78	45514	2932.9	21
78	45580	2938.709318821497	57
78	45599	2940.214086597803	14
78	45655	2945.217291782376	49
78	45713	2950.225113343848	49
78	45754	2953.925541189911	36
78	45799	2957.828125672687	38
78	45819	2959.431635583848	15
78	45864	2963.33780680765	38
78	45888	2965.347531725564	19
78	45913	2968.8	8
78	45940	2971.2	23
78	45954	2972.20379983948	9
78	45986	2975.01102734994	27
78	46024	2978.213201452962	31
78	46069	2982.119794553006	38
78	46115	2986.129249903862	39
78	46138	2990.5	5
78	46215	2997.5	69
78	46247	3000.105124715403	25
78	46267	3001.914428751142	17
78	46398	3006.4	24
78	46469	3008.6	21
78	46539	3010.806093855744	21
78	46637	3014.814456644478	39
78	46662	3015.921296898264	10
78	46738	3019.526525766523	35
78	46776	3022.331217652898	27
