file 25764 1369060386                                           
version 2
run Join-70-20130520-16:33:01-32715
attr configname Join
attr datetime 20130520-16:33:01
attr experiment "\"Join\""
attr inifile omnetpp.ini
attr iterationvars $0=4096
attr iterationvars2 "$0=4096, $repetition=0"
attr measurement $0=4096
attr network Network
attr processid 32715
attr repetition 0
attr replication #0
attr resultdir results
attr runnumber 70
attr seedset 70
vector 70  Network.dyn_peer[0]  lookupHopsSig:vector  ETV
70	444 25320 11399 48523 23.211111799307 3092.223009664206 935 1 133 26889 1054769
