version 2
run Join-99-20130520-16:49:26-32715
attr configname Join
attr datetime 20130520-16:49:26
attr experiment "\"Join\""
attr inifile omnetpp.ini
attr iterationvars $0=16384
attr iterationvars2 "$0=16384, $repetition=9"
attr measurement $0=16384
attr network Network
attr processid 32715
attr repetition 9
attr replication #9
attr resultdir results
attr runnumber 99
attr seedset 99

vector 99  Network.dyn_peer[0]  lookupHopsSig:vector  ETV
99	43516	21.518745567132	65
99	43534	22.919686572129	13
99	43607	31.1	51
99	43761	45	138
99	43788	47.303942617352	22
99	43824	50.308863148569	29
99	43851	52.611764092362	22
99	43859	53.220936950706	5
99	43885	55.424243592091	21
99	43930	59.331511877015	38
99	44012	68	60
99	44037	70.2	21
99	44119	77.607253565588	73
99	44187	83.610069560396	59
99	44229	87.217428937679	35
99	44288	92.319563634711	50
99	44420	104.12822306928	117
99	44608	123.6	156
99	44638	126.1	24
99	44680	129.9026566521	37
99	44726	133.912023767883	39
99	44762	136.920906209436	29
99	44892	148.530837823988	115
99	44917	150.637485702752	20
99	44990	159.4	54
99	45111	170.2	107
99	45196	177.90550503615	76
99	45275	184.80845662342	68
99	45350	191.511225023133	66
99	45412	196.915090555898	53
99	45504	205.119385958924	81
99	45563	212	40
99	45638	218.8	67
99	45712	225.404084793773	65
99	45785	231.906960848433	64
99	45886	240.807917970498	88
99	45946	246.007972101576	51
99	46005	251.314441978738	52
99	46112	260.814498778148	94
99	46142	263.423798621894	25
99	46165	265.3285114494	18
99	46226	270.637640700022	52
99	46455	283.2	92
99	46529	288.5	52
99	46549	290.102366555575	15
99	46603	294.902680462666	47
99	46675	301.309496575523	63
99	46730	306.010388170696	46
99	46861	320.3	103
99	46951	328.4	80
99	47008	333.504827648191	50
99	47072	339.105701978962	55
99	47095	341.009169818468	18
99	47176	348.115074710205	70
99	47324	361.515684847942	133
99	47392	367.5194773145	59
99	47469	374.229012975353	66
99	47552	381.734221358932	74
99	47629	389.5	55
99	47676	393.7	41
99	47717	397.207180355603	34
99	47801	404.610133180883	73
99	47809	405.217524572635	5
99	47840	407.925612227791	26
99	47869	410.226497176215	22
99	48022	426.6	126
99	48079	431.8	51
99	48136	436.70163129271	48
99	48191	441.603723838122	48
99	48247	446.4095976559	47
99	48264	447.912313193671	14
99	48453	464.815153951678	168
99	48464	465.724463127716	8
99	48569	475.028436888318	92
99	48593	477.037142911047	19
99	48698	486.340319306281	92
99	48786	494.147796304541	77
99	48867	501.448157445381	72
99	48911	506.6	26
99	49005	515.1	84
99	49012	515.607148786575	4
99	49137	526.715579287138	110
99	49162	528.820566449147	20
99	49180	530.223783987751	13
99	49298	540.832363842441	105
99	49475	550.6	66
99	49598	556.3	56
99	49894	570.202394304464	138
99	49995	574.810632757935	45
99	50120	582.012665790826	71
99	50180	587.414122771936	53
99	50227	592.7	27
99	50266	596.1	33
99	50307	599.808596025891	36
99	50381	606.210800330007	63
99	50398	607.719733899809	14
99	50411	608.629381835177	8
99	50430	610.13569513595	14
99	50554	621.341700144079	111
99	50666	631.349367596394	99
99	50704	634.557912876725	31
99	50719	635.863762540237	12
99	50734	636.963776280718	10
99	50753	638.465973105412	14
99	50768	639.773126957325	12
99	50787	641.281863672737	14
99	50834	645.387759228249	40
99	50954	651.8	38
99	51075	657.3	54
99	51183	664.809713765846	74
99	51234	669.316707432111	44
99	51296	674.72574117835	53
99	51350	679.528207323386	47
99	51373	681.428500221059	18
99	51434	686.737700552252	52
99	51464	689.34032017354	25
99	51527	694.84774629812	54
99	51558	697.549100994817	26
99	51743	706.9	69
99	51802	709.6	26
99	51894	713.905022796406	42
99	52141	726.713567171913	127
99	52191	731.113855961392	43
99	52218	733.417312831583	22
99	52279	738.720572022278	52
99	52536	752.3	103
99	52561	753.5	11
99	52727	761.206855268212	76
99	52845	766.613199329119	53
99	52903	769.221226705553	25
99	52984	773.721672414939	44
99	53065	780.825146376462	70
99	53122	785.930013492451	50
99	53205	793.238442828435	72
99	53227	795.046118120612	17
99	53347	807.4	94
99	53432	815	75
99	53539	824.503116173336	94
99	53573	827.507962104079	29
99	53627	832.112089315794	45
99	53666	835.616220792926	34
99	53727	840.92098406126	52
99	53754	843.221815380421	22
99	53779	845.325505356918	20
99	53809	847.928792645725	25
99	53839	850.338691332629	23
99	53856	851.847830237583	14
99	53931	858.357232663298	64
99	54014	864.3	23
99	54090	871.2	68
99	54126	874.202681653408	29
99	54188	879.805425068807	55
99	54221	882.50898077058	26
99	54252	885.210332613702	26
99	54283	887.913807577412	26
99	54319	890.914328222587	29
99	54423	902	80
99	54498	908.8	67
99	54586	916.600634072769	77
99	54644	921.809189189299	51
99	54814	937.0143230408	151
99	54881	942.921954836429	58
99	54913	945.731063343114	27
99	54982	951.833250301242	60
99	55025	955.543140814641	36
99	55068	959.244645264327	36
99	55131	964.746628795977	54
99	55225	975.2	72
99	55316	983.4	81
99	55381	989.105830138574	56
99	55470	997.013153831143	78
99	55562	1005.217639498411	81
99	55689	1016.523594830565	112
99	55793	1025.933340335004	93
99	55904	1035.834229124514	98
99	55932	1038.039206830549	21
99	55987	1042.943601847909	48
99	56080	1051.251054434693	82
99	56096	1052.457073614511	11
99	56152	1057.457266311696	49
99	56211	1062.565542681689	50
99	56298	1072.4	64
99	56340	1076.1	36
99	56378	1079.504242104068	33
99	56488	1089.307589134501	97
99	56621	1101.212183196723	118
99	56664	1104.91805715738	36
99	56686	1106.723182405665	17
99	56746	1114.1	41
99	56842	1122.8	86
99	56884	1126.402078370295	35
99	56933	1130.711425605683	42
99	56999	1136.519327627526	57
99	57204	1155.028012367802	184
99	57251	1159.135483514057	40
99	57303	1163.741119932861	45
99	57391	1171.541867020535	77
99	57590	1181.7	77
99	57712	1187.7	59
99	57792	1194.702319721342	69
99	57865	1201.206445369864	64
99	57948	1208.507483594002	72
99	58024	1215.311920938455	67
99	58098	1221.915135697029	65
99	58152	1227.7	37
99	58182	1230.2	24
99	58232	1234.602586364303	43
99	58257	1236.710538851708	20
99	58300	1240.4137997758	36
99	58330	1243.014049191897	25
99	58376	1247.023805152537	39
99	58442	1254.7	47
99	58504	1260.2	54
99	58631	1271.704516278922	114
99	58678	1275.805730477066	40
99	58782	1285.015531041472	91
99	58849	1290.917491256449	58
99	58946	1299.624462055904	86
99	59057	1310.8	88
99	59101	1314.7	38
99	59167	1320.507932011177	57
99	59196	1323.014931853072	24
99	59280	1330.418500286874	73
99	59335	1335.322864017449	48
99	59399	1340.927407633645	55
99	59454	1345.833284099294	48
99	59531	1353.7	57
99	59556	1355.9	21
99	59612	1360.709443858037	47
99	59681	1366.811519145869	60
99	59704	1368.718918414219	18
99	59736	1371.525314873115	27
99	59778	1375.133954068448	35
99	59874	1383.743852502119	85
99	59907	1386.449889235479	26
99	60001	1397	70
99	60058	1402	49
99	60108	1406.4083076256	43
99	60182	1413.017488894162	65
99	60245	1418.520272833134	54
99	60321	1425.328486925833	67
99	60373	1429.928728112239	45
99	60427	1435.7	37
99	60456	1438.1	23
99	60485	1440.60101192329	24
99	60585	1449.603530678506	89
99	60695	1459.40712534583	97
99	60797	1468.408813122229	89
99	60809	1469.410776055976	9
99	60900	1477.517199273115	80
99	60940	1480.921124054052	33
99	60972	1483.725996067952	27
99	61018	1487.730373027117	39
99	61066	1491.936337465606	41
99	61143	1498.639519683315	66
99	61187	1502.449248180283	37
99	61219	1505.252432280705	27
99	61431	1518	100
99	61505	1524.7	66
99	61550	1528.608840848947	38
99	61689	1541.110153384715	124
99	61771	1548.317239082908	71
99	61842	1554.625554285597	62
99	61921	1563.7	57
99	61962	1567.3	35
99	62022	1572.504907737623	51
99	62067	1576.409763876671	38
99	62113	1580.415250645606	39
99	62192	1587.523228997585	70
99	62237	1591.427032650664	38
99	62363	1602.627324381167	111
99	62455	1610.835440251467	81
99	62509	1615.64519764734	47
99	62593	1623.054809826098	73
99	62717	1635.8	98
99	62759	1639.5	36
99	62800	1643.007522657727	34
99	62850	1647.410167065548	43
99	62913	1652.915593025403	54
99	62963	1657.325386911738	43
99	63050	1665.032611498809	76
99	63114	1672.5	45
99	63126	1673.6	10
99	63140	1674.602504928766	9
99	63164	1676.605332857882	19
99	63214	1681.014330961182	43
99	63229	1682.114479665075	10
99	63248	1683.816533371062	16
99	63373	1696	100
99	63413	1699.7	36
99	63431	1701.102080994118	13
99	63473	1704.702364224172	35
99	63570	1713.402433092435	86
99	63630	1718.603240135339	51
99	63760	1730.208345756178	115
99	63870	1740.012720277	97
99	63903	1742.919756543655	28
99	63994	1751.024497388952	80
99	64182	1758.2	42
99	64445	1766.6	83
99	64492	1768.40508844634	17
99	64566	1771.812320103828	33
99	64756	1780.514045265986	86
99	64989	1791.520498077062	109
99	65044	1796.223382603249	46
99	65076	1799.032837570891	27
99	65165	1806.941979935133	78
99	65386	1828.5	185
99	65430	1832.4	38
99	65473	1836.108261347382	36
99	65581	1845.90864379227	97
99	65669	1853.715386659983	77
99	65673	1853.917849670644	1
99	65732	1859.024099566347	50
99	65859	1870.331770641845	112
99	65912	1875.032722428091	46
99	65971	1880.138467428944	50
99	66023	1884.742344668073	45
99	66077	1889.550158595555	47
99	66135	1895.9	39
99	66241	1905.4	94
99	66305	1911.002139061421	55
99	66367	1916.409294022595	53
99	66438	1922.709491848518	62
99	66480	1926.316415425879	35
99	66540	1931.716429593351	53
99	66772	1952.518166103234	207
99	66818	1956.521021883712	39
99	66980	1973.2	132
99	67085	1982.6	93
99	67179	1991.003495576975	83
99	67256	1997.910947829607	68
99	67306	2002.112191581917	41
99	67420	2012.321946716359	101
99	67486	2018.131630450265	57
99	67564	2025.139673716927	69
99	67612	2030.8	28
99	67709	2039.6	87
99	67767	2044.602167703704	49
99	67808	2048.108190381756	34
99	67871	2053.80870507282	56
99	67922	2058.113815126424	42
99	67971	2062.418563617004	42
99	68018	2066.526347040414	40
99	68130	2073.6	36
99	68185	2076.1	24
99	68362	2084.405640756653	82
99	68541	2092.813599805242	83
99	68627	2098.821305613426	59
99	68780	2112.529103779128	136
99	69106	2130.7	147
99	69139	2133.7	29
99	69173	2136.502328450754	27
99	69238	2142.210004321764	56
99	69329	2150.311567062892	80
99	69377	2154.512948867141	41
99	69402	2156.618956631804	20
99	69513	2168.8	88
99	69540	2171.2	23
99	69587	2175.305461674681	40
99	69648	2180.610168057397	52
99	69679	2183.3176419931	26
99	69727	2187.525588749435	41
99	69790	2193.028090981044	54
99	69838	2197.232596544126	41
99	69878	2200.635334366712	33
99	70008	2212.235642540166	115
99	70125	2219.8	38
99	70248	2225.5	56
99	70336	2232.107714592718	65
99	70356	2233.914778387531	17
99	70432	2240.523156861849	65
99	70499	2246.425150195867	58
99	70570	2252.725850416244	62
99	70601	2255.431556743943	26
99	70695	2263.841369334711	83
99	70737	2267.446615319662	35
99	70832	2275.949392636134	84
99	70979	2283.1	51
99	71038	2285.9	27
99	71184	2292.507874635611	65
99	71232	2295.209746689076	26
99	71255	2297.112562403184	18
99	71321	2302.915967044989	57
99	71351	2305.517459100012	25
99	71369	2306.920449436686	13
99	71398	2309.426566965472	24
99	71441	2314.5	25
99	71548	2324.1	95
99	71624	2330.901078694537	67
99	71693	2337.008542850648	60
99	71766	2343.510680512759	64
99	71838	2349.916585331038	63
99	71977	2362.222607283245	122
99	72095	2375.5	95
99	72154	2380.7	51
99	72211	2385.808672736186	50
99	72270	2390.915538567468	50
99	72296	2393.121779669884	21
99	72322	2395.327970527582	21
99	72377	2400.028944319371	46
99	72645	2427.1	231
99	72710	2432.9	57
99	72787	2439.803409977327	68
99	72834	2443.913282026501	40
99	72897	2449.419020279777	54
99	72990	2457.725243096042	82
99	73077	2465.430448500569	76
99	73165	2474.7	67
99	73214	2479.1	43
99	73244	2481.703790084409	25
99	73321	2488.408827248922	66
99	73344	2490.311859872954	18
99	73425	2497.615431441511	72
99	73474	2501.922891133837	42
99	73524	2506.129505314996	41
99	73588	2511.938713970409	57
99	73892	2540	260
99	73941	2544.4	43
99	73992	2548.905101507813	44
99	74000	2549.51437854546	5
99	74048	2553.722966175988	41
99	74238	2570.724335662681	169
99	74273	2573.830985672055	30
99	74310	2576.937941256261	30
99	74361	2581.445062526252	44
99	74455	2589.848829504215	83
99	74512	2594.754450763022	48
99	74592	2601.960387111776	71
99	74608	2603.162565222386	11
99	74656	2607.370790547161	41
99	74712	2612.178321035556	47
99	74806	2620.582726424169	83
99	74987	2639	150
99	74991	2639.3	2
99	75030	2642.602852916598	32
99	75139	2652.304879264339	96
99	75169	2654.908729883142	25
99	75273	2664.112629203655	91
99	75290	2665.616467350179	14
99	75342	2670.02099943046	43
99	75427	2677.724503622267	76
99	75563	2690.8	108
99	75622	2696	51
99	75676	2700.805189878905	47
99	75732	2705.812937835112	49
99	75795	2711.315499935361	54
99	75844	2715.617013153614	42
99	75907	2721.125472516986	54
99	76003	2731.5	75
99	76078	2738.1	65
99	76152	2744.700286222063	65
99	76222	2750.905799734203	61
99	76261	2754.206338939682	32
99	76332	2760.509927381574	62
99	76406	2767.11087456724	65
99	76465	2774	40
99	76526	2779.6	55
99	76588	2785.002796701206	53
99	76655	2790.907494565263	58
99	76711	2795.913822100966	49
99	76733	2797.71767493004	17
99	76917	2814.126724160544	163
99	76949	2816.932751240536	27
99	76983	2819.940897684741	29
99	77021	2823.147976667635	31
99	77072	2827.654666571333	44
99	77083	2828.356232224311	6
99	77132	2832.660292747713	42
99	77185	2839.5	35
99	77239	2844.2	46
99	77310	2850.502049586339	62
99	77375	2856.210844737087	56
99	77422	2860.319033581202	40
99	77450	2862.728995121363	23
99	77526	2869.53342740524	67
99	77551	2871.642955808699	20
99	77605	2876.252281716585	45
99	77671	2882.053436543133	57
99	77750	2889.160966908863	70
99	77819	2895.263961316304	60
99	77841	2897.066876780326	17
99	77885	2900.867064177042	37
99	77951	2906.67591145073	57
99	78129	2922.68140518207	159
99	78152	2924.588393333252	18
99	78221	2932.8	48
99	78270	2937.2	43
99	78323	2941.909414230242	46
99	78439	2952.111102572862	101
99	78501	2957.717508529928	55
99	78568	2963.622644961798	58
99	78613	2967.527283495224	38
99	78672	2972.633431782496	50
99	78764	2982.8	68
99	78819	2987.8	49
99	78878	2992.909033822459	50
99	78967	3000.814930503531	78
99	79052	3008.322858692528	74
99	79136	3015.931401285467	75
99	79232	3024.332068695347	83
99	79315	3031.839077708763	74
99	79399	3039.243420394214	73
99	79488	3047.148434936303	78
99	79551	3052.650419532122	54
99	79637	3062.2	62
99	79686	3066.6	43
99	79793	3076.107688473903	94
99	79936	3089.013451893501	128
99	79964	3091.42253984898	23
99	80030	3097.23026998689	57
99	80082	3101.839778804479	45
99	80119	3104.9415615424	30
99	80156	3108.048375321707	30
99	80207	3112.556046932059	44
99	80317	3124.6	86
99	80445	3136.1	114
99	80506	3141.601808420822	54
99	80524	3143.006623213069	13
99	80576	3147.612297410873	45
99	80614	3150.818662744542	31
99	80667	3155.523832402616	46
99	80761	3163.928589131294	83
99	80827	3169.734975171466	57
99	80900	3176.038511610994	62
99	81029	3190.1	101
99	81088	3195.5	53
99	81185	3204.003501874548	84
99	81228	3207.913368310653	38
99	81267	3211.215333850348	32
99	81288	3212.919721008612	16
99	81315	3215.229632641855	22
99	81385	3221.435233999388	61
99	81451	3227.244045260292	57
99	81533	3234.452545103448	71
99	81610	3241.358422599694	68
99	81657	3245.462880337564	40
99	81726	3251.568153895102	60
99	81803	3259.6	56
99	81849	3263.7	40
99	81897	3267.901864408177	41
99	82015	3278.301883996563	103
99	82031	3279.706217066509	13
99	82045	3280.713998447105	9
99	82074	3283.222224680278	24
99	82140	3289.022308457507	57
99	82206	3294.825241795817	57
99	82298	3303.031689627404	81
99	82392	3311.43413758165	83
99	82474	3318.64341020605	71
99	82567	3326.952337337931	82
99	82709	3341.5	115
99	82839	3353.2	116
99	82931	3361.4030936578	81
99	82947	3362.607804639291	11
99	82990	3366.313087122627	36
99	83080	3374.316033698302	79
99	83155	3381.024791887558	66
99	83207	3385.627728963884	45
99	83287	3392.632885904725	69
99	83562	3403	70
99	83799	3411.3	82
99	83857	3413.904817802445	25
99	84003	3420.609946795771	66
99	84181	3430.916995326209	102
99	84270	3438.821746519411	78
99	84322	3443.427705932967	45
99	84380	3448.432172870745	49
99	84435	3453.33668703078	48
99	84454	3454.841949895768	14
99	84568	3465.046823320298	101
99	84667	3475.5	75
99	84751	3483	74
99	84855	3492.20367576085	91
99	84948	3500.508585290235	82
99	85015	3506.417371955568	58
99	85117	3515.618913597388	91
99	85150	3518.322667793131	26
99	85244	3526.723938380091	83
99	85322	3533.729866847416	69
99	85379	3538.63207907657	48
99	85466	3546.333183108482	76
99	85513	3550.44085621203	40
99	85583	3556.64652272514	61
99	86012	3578.4	184
99	86077	3581.5	30
99	86177	3586.003284920135	44
99	86255	3589.707031956782	36
99	86321	3592.612981134691	28
99	86369	3594.817309331908	21
99	86421	3597.218547061754	23
99	86561	3603.725958224686	64
99	86616	3606.933370200697	31
99	86662	3610.938705279492	39
99	86705	3614.64813994114	36
99	86731	3616.85211578773	21
99	86935	3635.25752217322	183
99	86971	3639.8	18
99	87089	3650.3	104
99	87200	3660.200594089478	98
99	87226	3662.409979735852	21
99	87278	3667.016437981621	45
99	87338	3672.21729195931	51
99	87420	3679.620190868622	73
99	87504	3687.023627359908	73
99	87556	3691.633408791088	45
99	87591	3694.534441413782	28
99	87619	3696.93979822898	23
99	87639	3698.545391318848	15
99	87684	3702.447222834291	38
99	87735	3706.951084964073	44
99	87823	3714.758025707416	77
99	87877	3719.565958141963	47
99	87946	3726.7	47
99	88015	3732.9	61
99	88056	3736.408345716469	34
99	88087	3739.114883167041	26
99	88156	3745.22157896857	60
99	88226	3751.430105932932	61
99	88294	3757.439857278808	59
99	88367	3763.949546306267	64
99	88466	3772.650091968244	86
99	88564	3781.453094524785	87
99	88612	3787	30
99	88674	3792.5	54
99	88732	3797.707282503407	51
99	88824	3805.911410678456	81
99	88876	3811.2	32
99	88947	3817.6	63
99	88987	3821.006812649953	33
99	89020	3823.916190132225	28
99	89053	3826.618804290037	26
99	89067	3827.82470110718	11
99	89109	3831.429867727177	35
99	89318	3851.8	178
99	89375	3856.8	49
99	89436	3862.103926214352	52
99	89492	3867.109216711814	49
99	89546	3871.915059041038	47
99	89641	3880.224793484627	82
99	89703	3885.825853550407	55
99	89733	3888.22982191534	23
99	89780	3892.338906126927	40
99	89931	3901.4	54
99	90041	3908.2	67
99	90116	3914.906481756533	66
99	90156	3918.308078434863	33
99	90196	3921.911687754127	35
99	90271	3928.413402041552	64
99	90332	3933.919108833224	54
99	90383	3939.4	34
99	90425	3943.1	36
99	90482	3948.003184544078	48
99	90588	3957.610281630183	95
99	90635	3961.715769217139	40
99	90733	3970.319811186128	85
99	90791	3975.521767280708	51
99	90853	3980.930327509258	53
99	90914	3986.233376046922	52
99	90958	3990.042407015878	37
99	91019	3995.54470548038	54
99	91307	4009.9	119
99	91404	4014.3	43
99	91498	4018.705579783811	43
99	91618	4028.60975824016	98
99	91703	4036.112341622163	74
99	91765	4041.719710065927	55
99	91788	4043.62406639866	18
99	91810	4045.426929570661	17
99	91830	4047.035399152148	15
99	91894	4052.641670744414	55
99	91926	4055.446218733528	27
99	92101	4068.7	107
99	92128	4071.1	23
99	92172	4074.904199130893	37
99	92248	4081.71278462822	67
99	92318	4087.914941100973	61
99	92380	4093.323752182397	53
99	92474	4101.725252277772	83
99	92534	4106.931350362787	51
99	92722	4125.8	158
99	92775	4130.4	45
99	92864	4138.306744857286	78
99	92934	4144.510637874519	61
99	92956	4146.314931164073	17
99	92991	4149.415246750932	30
99	93128	4162.9	109
99	93204	4169.8	68
99	93261	4174.707509159087	48
99	93269	4175.309750462239	5
99	93361	4183.517079520648	81
99	93408	4187.618151435364	40
99	93467	4192.723462529076	50
99	93592	4206	100
99	93664	4212.5	64
99	93740	4219.309875005865	67
99	93805	4225.011918175809	56
99	93897	4233.220188540403	81
99	93982	4240.728066641901	74
99	94084	4249.930198041452	91
99	94199	4260.0322240634	100
99	94237	4263.434952937491	33
99	94291	4269.4	34
99	94329	4272.7	32
99	94418	4280.60967334496	78
99	94449	4283.315920550547	26
99	94537	4291.116233462296	77
99	94624	4298.82588411516	76
99	94711	4306.526011668606	76
99	94820	4318.6	86
99	94931	4328.6	99
99	95016	4336.103391185922	74
99	95085	4342.204337055801	60
99	95180	4350.705309332785	84
99	95275	4359.211366532979	84
99	95365	4367.219702720475	79
99	95458	4375.522374948252	82
99	95556	4384.122557889759	85
99	95682	4395.522639185206	113
99	95727	4400.5	25
99	95789	4406	54
99	95815	4408.201687134194	21
99	95861	4412.203897557071	39
99	95916	4417.110839276293	48
99	96007	4425.217056333457	80
99	96034	4427.521020081287	22
99	96104	4435.1	51
99	96186	4442.4	72
99	96374	4459.406473596028	169
99	96417	4463.113374952761	36
99	96456	4466.422983711791	32
99	96483	4468.72672168128	22
99	96512	4471.228990465316	24
99	96562	4475.635729022507	43
99	96600	4478.836308564954	31
99	96642	4482.439336042178	35
99	96692	4486.843541947293	43
99	96730	4490.048533395057	31
99	96780	4494.453948702175	43
99	96863	4504	60
99	96919	4509.1	50
99	97000	4516.205417959473	70
99	97056	4521.214279801232	49
99	97160	4530.415398031001	91
99	97324	4545.221608230714	147
99	97403	4552.126528559942	68
99	97476	4558.631595159827	64
99	97563	4566.339749627187	76
99	97642	4573.447662608848	70
99	97721	4580.356145280039	68
99	97879	4594.561458942837	141
99	97957	4601.562657220985	69
99	98072	4607.8	38
99	98212	4614.3	64
99	98317	4621.809464849983	74
99	98445	4633.216677145722	113
99	98532	4640.919437194444	76
99	98604	4647.32496777819	63
99	98663	4652.429931672236	50
99	98756	4660.73857845772	82
99	98853	4669.440366387497	86
99	98980	4680.746388525487	112
99	99030	4685.149146557586	43
99	99110	4692.154588631874	69
99	99209	4701.056891157767	88
99	99316	4707.4	34
99	99469	4714.6	71
99	99592	4723.503428960579	88
99	99639	4727.606387519954	40
99	99741	4736.61515788375	89
99	99807	4742.421146468087	57
99	99859	4747.025154333428	45
99	99946	4754.725508209936	76
99	100033	4762.425712709227	76
99	100094	4767.930325482336	54
99	100159	4773.632526987385	56
99	100206	4777.733181977776	40
99	100289	4785.034238470328	72
99	100317	4789.2	12
99	100421	4798.5	92
99	100469	4802.706501158145	41
99	100512	4806.412233616634	36
99	100561	4810.719511858875	42
99	100600	4814.028025059705	32
99	100803	4832.337549437219	182
99	100876	4838.847102302682	64
99	100972	4847.448951608635	85
99	101007	4850.356200195756	28
99	101086	4857.465281518255	70
99	101134	4861.666909728301	41
99	101213	4868.576798049981	68
99	101436	4890.7	187
99	101496	4896	52
99	101572	4902.800389433046	67
99	101613	4906.303770524995	34
99	101681	4912.308584271609	59
99	101804	4923.415703236395	110
99	101823	4924.915911042289	14
99	101917	4933.322954807115	83
99	102000	4940.631953510971	72
99	102080	4947.833829548212	71
99	102159	4954.735375549902	68
99	102178	4956.2418851443	14
99	102227	4960.548014302059	42
99	102305	4969.7	57
99	102424	4980.3	105
99	102503	4987.405241321013	70
99	102537	4990.213083792279	27
99	102572	4993.31502312088	30
99	102600	4995.718923553413	23
99	102625	4997.825633290012	20
99	102703	5004.632892724042	67
99	102818	5017.1	91
99	102860	5020.8	36
99	102879	5022.301873281423	14
99	102890	5023.207053755644	8
99	102907	5024.515529653182	12
99	102956	5028.81643556231	42
99	102998	5032.421133185963	35
99	103011	5033.530349613076	10
99	103218	5053.5	175
99	103296	5060.4	68
99	103363	5066.304339132916	58
99	103422	5071.613989345344	52
99	103496	5078.021788828895	63
99	103561	5083.928290679699	58
99	103633	5090.137839658949	61
99	103663	5092.739267301167	25
99	103733	5101	50
99	103821	5108.9	78
99	103889	5114.907749196179	59
99	103912	5116.808748599693	18
99	104118	5135.418541960128	185
99	104175	5140.319747227363	48
99	104197	5142.128821654762	17
99	104216	5143.837871518633	16
99	104247	5146.346976225834	24
99	104291	5150.150251604876	37
99	104319	5152.558398118662	23
99	104509	5163.3	73
99	104630	5173.1	97
99	104733	5182.206750239313	90
99	104792	5187.514050942859	52
99	104851	5192.620227033027	50
99	104937	5200.225508163726	75
99	105060	5211.335074670441	110
99	105226	5226.136476034166	147
99	105362	5234.7	47
99	105463	5243	82
99	105501	5246.208005197723	31
99	105548	5250.309570344225	40
99	105597	5254.614125383223	42
99	105675	5261.622149638954	69
99	105795	5272.231016299744	105
99	105837	5278.5	25
99	105892	5283.5	49
99	105939	5287.60082281039	40
99	105996	5292.508014965182	48
99	106025	5295.016644006142	24
99	106134	5304.725681541986	96
99	106220	5312.333263752174	75
99	106285	5318.042506409324	56
99	106363	5325.044682332227	69
99	106439	5331.850739674874	67
99	106541	5340.860162840551	89
99	106621	5349.8	58
99	106682	5355.2	53
99	106792	5365.001716001851	97
99	106845	5369.710539568313	46
99	106862	5371.01233297611	12
99	106932	5377.217986892497	61
99	107012	5380.7	7
99	107159	5385.3	45
99	107264	5388.401253316928	30
99	107382	5392.507087457256	40
99	107519	5400.913211107364	83
99	107612	5409.222427739282	82
99	107730	5419.827766944498	105
99	107777	5423.931953022193	40
99	107792	5425.038726383547	10
99	107846	5429.847321346149	47
99	107888	5433.447332030167	35
99	107924	5436.448055903618	29
99	107950	5438.65747103542	21
99	108002	5445.2	32
99	108085	5452.6	73
99	108223	5465.003337026324	123
99	108276	5469.712301685052	46
99	108354	5476.512966039251	67
99	108432	5483.522142648501	69
99	108448	5484.722664455051	11
99	108511	5490.226510226716	54
99	108569	5495.429076298967	51
99	108608	5498.733563591142	32
99	108657	5503.042350785357	42
99	108744	5510.750357545965	76
99	108934	5521.3	73
99	108994	5524	26
99	109092	5528.506094055941	44
99	109158	5531.415714396631	28
99	109388	5542.119693845805	106
99	109540	5549.224634195793	70
99	109656	5554.526682060047	52
99	109786	5560.633822107278	60
99	109893	5566.240416324122	55
99	109955	5571.847685344516	55
99	110001	5575.856200470809	39
99	110286	5590.1	121
99	110332	5594.2	40
99	110386	5599.005560729003	47
99	110456	5605.210370170322	61
99	110514	5610.211300124387	49
99	110587	5616.719118347673	64
99	110636	5621.025453638571	42
99	110720	5628.427316723725	73
99	110787	5634.330260869842	58
99	110862	5641.037437086089	66
99	110912	5645.442079778364	43
99	111055	5658.14995292595	126
99	111310	5672.3	103
99	111377	5675.5	31
99	111507	5681.603511162672	60
99	111695	5690.20893426309	85
99	111921	5700.712749822818	104
99	112042	5706.1	21
99	112130	5710.2	40
99	112149	5711.009073115559	7
99	112247	5715.609633653573	45
99	112377	5721.613449382522	59
99	112499	5727.218338206632	55
99	112609	5732.22823842566	49
99	112763	5739.431997796499	71
99	112857	5743.841098499891	43
99	112945	5751.150358730099	72
99	113014	5758.9	49
99	113045	5761.7	27
99	113070	5763.800392630791	20
99	113080	5764.401580803288	5
99	113136	5769.40606954603	49
99	113223	5777.106522720914	76
99	113342	5787.814159749943	106
99	113441	5796.517373740385	86
99	113498	5804	40
99	113569	5811	69
99	113620	5815.908121317287	48
99	113672	5820.917512066172	49
99	113764	5829.926763997565	89
99	113815	5834.830736332689	48
99	113924	5845.539416673234	106
