file 23800 1369060342                                           
version 2
run Join-43-20130520-16:32:21-32715
attr configname Join
attr datetime 20130520-16:32:21
attr experiment "\"Join\""
attr inifile omnetpp.ini
attr iterationvars $0=512
attr iterationvars2 "$0=512, $repetition=3"
attr measurement $0=512
attr network Network
attr processid 32715
attr repetition 3
attr replication #3
attr resultdir results
attr runnumber 43
attr seedset 43
vector 43  Network.dyn_peer[0]  lookupHopsSig:vector  ETV
43	441 23359 1686 16191 22.4 1256.040017296723 916 1 33 8554 103224
