file 27652 1369060517                                           
version 2
run Join-83-20130520-16:34:58-32715
attr configname Join
attr datetime 20130520-16:34:58
attr experiment "\"Join\""
attr inifile omnetpp.ini
attr iterationvars $0=8192
attr iterationvars2 "$0=8192, $repetition=3"
attr measurement $0=8192
attr network Network
attr processid 32715
attr repetition 3
attr replication #3
attr resultdir results
attr runnumber 83
attr seedset 83
vector 83  Network.dyn_peer[0]  lookupHopsSig:vector  ETV
83	444 27208 22290 73664 28.5 4324.944244556198 994 2 133 39105 2012835
