file 17031 1369674127                                           
version 2
run Join-9-20130520-16:32:11-32715
attr configname Join
attr datetime 20130520-16:32:11
attr experiment "\"Join\""
attr inifile omnetpp.ini
attr iterationvars $0=32
attr iterationvars2 "$0=32, $repetition=9"
attr measurement $0=32
attr network Network
attr processid 32715
attr repetition 9
attr replication #9
attr resultdir results
attr runnumber 9
attr seedset 9
vector 9  Network.dyn_peer[0]  lookupHopsSig:vector  ETV
9	434 16597 304 5823 22.1 551.330710473415 728 1 7 1773 5359
