file 17585 1369060332                                           
version 2
run Join-13-20130520-16:32:12-32715
attr configname Join
attr datetime 20130520-16:32:12
attr experiment "\"Join\""
attr inifile omnetpp.ini
attr iterationvars $0=64
attr iterationvars2 "$0=64, $repetition=3"
attr measurement $0=64
attr network Network
attr processid 32715
attr repetition 3
attr replication #3
attr resultdir results
attr runnumber 13
attr seedset 13
vector 13  Network.dyn_peer[0]  lookupHopsSig:vector  ETV
13	438 17147 373 6739 20.3 636.338793392113 723 1 10 2605 11985
