file 18634 1369060331                                           
version 2
run Join-10-20130520-16:32:11-32715
attr configname Join
attr datetime 20130520-16:32:11
attr experiment "\"Join\""
attr inifile omnetpp.ini
attr iterationvars $0=64
attr iterationvars2 "$0=64, $repetition=0"
attr measurement $0=64
attr network Network
attr processid 32715
attr repetition 0
attr replication #0
attr resultdir results
attr runnumber 10
attr seedset 10
vector 10  Network.dyn_peer[0]  lookupHopsSig:vector  ETV
10	438 18196 391 6940 20.5 643.234661381137 762 1 10 2600 11080
