version 2
run Join-48-20130520-16:32:24-32715
attr configname Join
attr datetime 20130520-16:32:24
attr experiment "\"Join\""
attr inifile omnetpp.ini
attr iterationvars $0=512
attr iterationvars2 "$0=512, $repetition=8"
attr measurement $0=512
attr network Network
attr processid 32715
attr repetition 8
attr replication #8
attr resultdir results
attr runnumber 48
attr seedset 48

vector 48  Network.dyn_peer[0]  lookupHopsSig:vector  ETV
48	1683	22.7	7
48	1699	24	12
48	1708	24.707987352909	6
48	1717	25.413033085287	6
48	1737	27.016713934897	15
48	1753	28.220490892468	11
48	1769	29.621904445063	13
48	1784	30.726787301588	10
48	1796	31.729148569989	9
48	1828	35.4	14
48	1833	35.8	3
48	1844	36.506019111454	6
48	1858	37.712305872541	11
48	1877	39.220969730164	14
48	1885	39.830810981416	5
48	1899	40.833894079234	9
48	1908	41.541765224711	6
48	1913	41.842778949363	2
48	1935	43.651076034566	17
48	1947	44.458089447505	7
48	1970	46.365797707507	18
48	1998	51	10
48	2013	52.2	11
48	2020	52.707849724553	4
48	2027	53.212449373283	4
48	2047	54.821651532018	15
48	2081	57.828855734734	29
48	2099	59.230484591867	13
48	2127	63	10
48	2136	63.8	7
48	2151	64.902139868843	10
48	2161	65.707540111736	7
48	2168	66.013164938221	2
48	2184	67.418101302567	13
48	2198	68.424722793891	9
48	2228	71.027483516684	25
48	2252	74.6	6
48	2266	75.9	12
48	2283	77.209379854444	12
48	2295	78.009860982617	7
48	2305	78.813845970518	7
48	2322	80.115683886191	12
48	2332	80.91912229847	7
48	2351	82.420819693918	14
48	2368	83.930814476928	14
48	2385	85.236423985583	12
48	2398	86.138758756154	8
48	2432	91.8	18
48	2446	92.9	10
48	2469	94.803281726203	18
48	2487	96.213246774418	13
48	2491	96.415964608502	1
48	2500	97.118352267597	6
48	2522	98.926951164753	17
48	2552	103.5	15
48	2562	104.2	6
48	2586	106.204609347146	19
48	2603	107.714514347521	14
48	2629	109.920235296596	21
48	2646	111.223920488931	12
48	2658	112.026610733653	7
48	2668	112.832791451409	7
48	2687	114.337982608105	14
48	2699	115.342874033129	9
48	2710	116.044456152635	6
48	2720	116.851761649789	7
48	2750	121.4	14
48	2755	121.8	3
48	2764	122.301265579224	4
48	2774	123.101642329026	7
48	2781	123.606258778252	4
48	2797	124.809254217542	11
48	2840	130.3	23
48	2845	130.7	3
48	2852	131.201730611971	4
48	2859	131.705892555652	4
48	2876	133.014961115041	12
48	2886	133.820792893772	7
48	2909	135.721048130837	18
48	2917	136.130789017311	3
48	2925	136.736917674505	5
48	2938	137.845186320574	10
48	2959	139.551378758126	16
48	2977	140.957308294754	13
48	3004	144.9	9
48	3011	145.5	5
48	3025	146.507874231287	9
48	3032	147.017295019547	4
48	3038	147.417945714839	3
48	3063	149.527183825435	20
48	3087	151.532235659666	19
48	3112	153.635960147231	20
48	3122	154.241130808546	5
48	3143	158.3	3
48	3148	158.7	3
48	3154	159.107007569384	3
48	3164	159.91133724179	7
48	3180	161.115846576414	11
48	3198	162.525464247633	13
48	3211	163.629302387612	10
48	3225	164.633187329642	9
48	3255	169.2	12
48	3273	170.7	14
48	3282	171.402826082473	6
48	3296	172.403270400631	9
48	3309	173.506041651115	10
48	3323	174.511477612048	9
48	3334	175.414456158071	8
48	3366	179.7	17
48	3387	181.5	17
48	3399	182.303025700096	7
48	3412	183.410730618413	10
48	3422	184.018951948014	5
48	3440	185.625537229107	15
48	3470	189.2	12
48	3496	191.5	22
48	3515	193.009426950959	14
48	3533	194.419162437834	13
48	3554	196.119346380456	16
48	3566	197.124677116557	9
48	3585	198.625960208781	14
48	3593	199.234371278672	5
48	3618	202.9	9
48	3638	204.6	16
48	3661	206.509275249205	18
48	3681	208.110792814569	15
48	3687	208.512198825512	3
48	3716	213.1	11
48	3729	214.1	9
48	3738	214.801715143457	6
48	3748	215.610429564564	7
48	3759	216.312774753806	6
48	3771	217.318044607078	9
48	3782	218.018181919245	6
48	3806	222.9	9
48	3824	224.4	14
48	3849	226.500496886353	20
48	3864	227.800672340536	12
48	3883	229.310359193241	14
48	3902	230.819761666882	14
48	3911	231.526143479424	6
48	3927	232.731938936533	11
48	3944	234.039563589016	12
48	3969	238.9	9
48	3989	240.6	16
48	4004	241.9072363349	12
48	4021	243.213111306621	12
48	4026	243.521714484734	2
48	4051	245.623132167521	20
48	4068	246.926560054148	12
48	4083	248.03120435923	10
48	4093	248.840825427271	7
48	4142	253.2	12
48	4148	253.7	4
48	4159	254.405669915818	6
48	4165	254.807738450192	3
48	4181	256.009906440232	11
48	4190	256.712894122415	6
48	4199	257.415685931351	6
48	4211	258.219105679125	7
48	4223	259.224213858682	9
48	4236	260.128406668302	8
48	4244	260.730179508378	5
48	4256	261.735453571524	9
48	4279	263.64000215752	18
48	4306	266.9	9
48	4317	267.9	9
48	4334	269.207922225822	12
48	4351	270.510717262252	12
48	4365	271.719937580506	11
48	4382	273.024528591161	12
48	4391	273.733468568314	6
48	4428	278	20
48	4442	279.3	12
48	4459	280.601533563032	12
48	4467	281.20592054668	5
48	4502	284.109515416446	28
48	4525	286.015616066626	18
48	4540	287.325129990074	12
48	4557	288.627845027173	12
48	4583	290.8312726674	21
48	4607	292.84051848788	19
48	4629	294.645913994891	17
48	4647	296.048476981265	13
48	4664	297.549344784538	14
48	4682	298.952365174267	13
48	4694	299.954908349773	9
48	4710	301.157575826815	11
48	4772	305.2	12
48	4793	306	7
48	4820	307.30909925868	12
48	4831	308.015466934283	6
48	4841	308.817178106399	7
48	4852	309.718359145208	8
48	4876	311.721684262175	19
48	4886	312.328138534142	5
48	4896	313.132573355791	7
48	4905	313.834638748088	6
48	4941	317.8	18
48	4954	318.8	9
48	4974	320.40746653344	15
48	4983	321.111073955853	6
48	4998	322.211785025965	10
48	5011	323.317603919294	10
48	5027	324.517609657146	11
48	5047	328.2	2
48	5055	328.9	6
48	5074	330.407606254946	14
48	5101	332.713791578856	22
48	5111	333.514502327616	7
48	5131	335.122439522151	15
48	5176	340.5	25
48	5196	342.2	16
48	5211	343.503421682419	12
48	5221	344.108537100694	5
48	5240	345.814163770546	16
48	5257	347.122616611102	12
48	5270	348.031416459907	8
48	5297	353.2	12
48	5309	354.1	8
48	5320	355.001111310441	8
48	5328	355.603612794293	5
48	5360	358.211876686519	25
48	5371	359.115462997093	8
48	5378	359.620823234154	4
48	5399	362.3	3
48	5414	363.7	13
48	5429	364.802496104869	10
48	5447	366.207331695384	13
48	5453	366.61082543218	3
48	5466	367.711875924209	10
48	5481	368.815310118176	10
48	5487	369.218641755134	3
48	5504	370.52589202027	12
48	5536	375.4	14
48	5540	375.7	2
48	5553	376.600088975033	8
48	5573	378.206872149311	15
48	5588	379.514112464732	12
48	5597	380.022131480053	4
48	5621	382.02410886727	19
48	5636	383.325061753852	12
48	5666	387.2	12
48	5693	389.6	23
48	5708	390.703134708795	10
48	5719	391.611357067005	8
48	5724	391.916112969022	2
48	5731	392.219775224747	2
48	5761	397.2	12
48	5779	398.7	14
48	5799	400.304121352431	15
48	5821	402.110887214561	17
48	5840	403.814453143375	16
48	5869	406.119744078763	22
48	5885	407.524221297247	13
48	5914	411.1	11
48	5928	412.2	10
48	5947	413.908456158568	16
48	5967	415.511942632091	15
48	5989	417.321292483708	17
48	6011	419.127512422573	17
48	6024	420.034287046183	8
48	6044	421.843201040123	17
48	6069	424.9	9
48	6088	426.5	15
48	6101	427.606018852244	10
48	6125	429.614983217603	19
48	6146	431.322987385968	16
48	6166	432.930227168573	15
48	6185	434.435590364344	14
48	6211	439.1	11
48	6215	439.4	2
48	6220	439.706492951496	2
48	6227	440.012877210138	2
48	6244	441.514417664342	14
48	6249	441.822443454729	2
48	6257	442.228952243609	3
48	6273	443.635355503979	13
48	6290	444.944690057601	12
48	6294	445.150113665944	1
48	6359	449.2	12
48	6386	450.3	10
48	6410	451.30478225744	9
48	6428	452.712558768688	13
48	6438	453.519944532656	7
48	6456	454.922979120717	13
48	6480	458.6	6
48	6489	459.4	7
48	6510	461.102360052124	16
48	6532	462.909067618758	17
48	6552	464.513534324783	15
48	6562	465.316697586834	7
48	6584	467.122512892774	17
48	6612	471.3	13
48	6623	472.1	7
48	6641	473.70417973564	15
48	6656	474.806664604623	10
48	6685	479.1	11
48	6690	479.5	3
48	6711	481.200444237743	16
48	6719	481.807805357989	5
48	6729	482.414793939668	5
48	6737	483.016018461699	5
48	6746	483.722647222934	6
48	6784	486.927530704209	31
48	6790	487.335019428588	3
48	6796	487.741668700077	3
48	6812	488.949606947064	11
48	6871	493.5	15
48	6882	494.3	7
48	6890	494.906592461704	5
48	6915	497.009313562749	20
48	6923	497.614309341108	5
48	6947	499.619489352453	19
48	6971	501.624628188259	19
48	6995	503.630556749809	19
48	7018	505.531719363811	18
48	7038	507.136739023159	15
48	7066	511	10
48	7085	512.6	15
48	7098	513.70288111444	10
48	7113	514.810045876776	10
48	7131	516.21886909263	13
48	7136	516.521769804596	2
48	7150	517.723973429615	11
48	7154	517.927005586689	1
48	7161	518.231229428443	2
48	7197	523.8	18
48	7212	525	11
48	7223	525.901869033817	8
48	7234	526.610506903386	6
48	7242	527.212331355115	5
48	7259	528.514723529041	12
48	7273	529.715128442636	11
48	7285	530.524501405994	7
48	7289	530.728538686607	1
48	7314	534.7	7
48	7331	536.1	13
48	7347	537.508175813897	13
48	7357	538.116727982581	5
48	7365	538.72036475776	5
48	7384	540.220570098857	14
48	7407	542.12765794111	18
48	7415	542.734734575846	5
48	7450	547.7	17
48	7463	548.7	9
48	7474	549.602811054978	8
48	7505	552.106479190245	24
48	7512	552.611225324414	4
48	7530	554.013587218801	13
48	7539	554.717589315598	6
48	7547	555.318912356622	5
48	7551	555.52179533483	1
48	7555	555.73003217675	1
48	7578	557.638189873364	18
48	7605	560.9	9
48	7614	561.7	7
48	7626	562.507216697279	7
48	7646	564.108158029613	15
48	7657	565.010423088455	8
48	7672	566.116243987376	10
48	7678	566.525031519426	3
48	7700	570.4	4
48	7712	571.5	10
48	7735	573.403623866236	18
48	7749	574.408565019352	9
48	7760	575.311302412223	8
48	7783	577.220961996704	18
48	7804	578.923862275619	16
48	7835	583.6	16
48	7848	584.6	9
48	7858	585.409028606584	7
48	7872	586.418043980576	9
48	7887	587.722108156858	12
48	7898	588.424480416458	6
48	7929	593.3	13
48	7947	594.8	14
48	7957	595.602195972716	7
48	7974	596.909052451729	12
48	7989	598.013622416088	10
48	8007	599.622990654367	15
48	8018	600.330478139545	6
48	8023	600.632491326983	2
48	8041	602.041241876589	13
48	8055	603.246542948902	11
48	8081	606.8	8
48	8090	607.6	7
48	8099	608.105203628349	4
48	8112	609.21341047625	10
48	8126	610.217573168221	9
48	8145	611.921234401496	16
48	8161	613.13019868268	11
48	8167	613.537392670084	3
48	8180	614.44098136815	8
48	8189	615.142694492624	6
48	8204	616.243568833491	10
48	8209	616.552819415679	2
48	8219	617.354820609096	7
48	8245	620.8	8
48	8255	621.7	8
48	8275	623.301176774713	15
48	8293	624.703069288045	13
48	8304	625.611930731028	8
48	8318	626.614815908105	9
48	8330	627.620755334219	9
48	8338	628.023287977056	3
48	8363	632.7	7
48	8384	634.5	17
48	8399	635.806618682481	12
48	8411	636.608433666422	7
48	8416	636.908957510329	2
48	8439	638.812661638158	18
48	8451	639.81839869017	9
48	8463	640.621184032994	7
48	8475	641.625937218094	9
48	8493	643.033022959563	13
48	8511	644.439769077848	13
48	8527	645.841527616607	13
48	8574	648.5	5
48	8596	650	14
48	8614	651.608334293696	15
48	8619	651.915210177556	2
48	8626	652.224756918984	2
48	8633	652.732913281073	4
48	8644	653.641681828811	8
48	8657	654.547587786906	8
48	8685	659	10
48	8707	660.9	18
48	8717	661.703220090095	7
48	8733	662.908630205415	11
48	8745	663.916817988861	9
48	8760	665.022998551945	10
48	8776	666.230252106177	11
48	8788	667.238932321447	9
48	8804	668.439705678506	11
48	8811	668.949159251383	4
48	8826	670.058075369316	10
48	8839	671.166675275742	10
48	8887	675.4	14
48	8914	677.8	23
48	8933	679.30893044129	14
48	8937	679.515734575593	1
48	8971	683.6	16
48	8986	684.8	11
48	8999	685.909352936469	10
48	9015	687.115562471604	11
48	9024	687.82152851644	6
48	9045	689.527024730029	16
48	9059	690.533144687404	9
48	9072	691.640613201362	10
48	9083	692.34372945129	6
48	9109	696.8	8
48	9126	698.2	13
48	9139	699.301773541704	10
48	9144	699.606843531163	2
48	9155	700.307747135542	6
48	9159	700.51450520613	1
48	9164	700.822999128801	2
48	9177	701.923763856083	10
48	9195	703.324867780037	13
48	9203	703.931200289552	5
48	9227	706.6	6
48	9232	707	3
48	9241	707.702647719648	6
48	9249	708.10355520174	3
48	9259	708.903824142809	7
48	9264	709.206719240851	2
48	9270	709.61535620073	3
48	9284	710.619968523587	9
48	9291	711.127139348894	4
48	9301	711.9296569596	7
48	9334	715.5	15
48	9351	716.9	13
48	9361	717.70674972811	7
48	9370	718.208584821016	4
48	9382	719.213497950906	9
48	9387	719.522535335888	2
48	9397	720.130347862779	5
48	9403	720.538368634958	3
48	9409	720.945159723194	3
48	9425	722.15351680877	11
48	9469	728.4	24
48	9478	729.2	7
48	9491	730.107447325354	8
48	9511	731.91186358241	17
48	9545	734.714180534615	27
48	9557	735.719287435112	9
48	9572	736.821720256896	10
48	9582	737.626724459922	7
48	9606	739.636661682545	19
48	9633	741.942655334153	22
48	9649	743.150056187258	11
48	9675	746.9	9
48	9694	748.5	15
48	9708	749.703535731537	11
48	9718	750.310361501897	5
48	9732	751.519496496185	11
48	9747	752.620211621462	10
48	9760	753.72349016467	10
48	9792	757.7	17
48	9814	759.6	18
48	9830	760.805649514826	11
48	9850	762.413234283348	15
48	9867	763.914178982655	14
48	9875	764.324116114919	3
48	9883	764.933060787048	5
48	9888	765.237067913871	2
48	9905	766.543503946735	12
48	9915	767.34900659784	7
48	9921	767.755723237537	3
48	9937	768.965026790243	11
48	9999	774.4	24
48	10021	776.3	18
48	10037	777.701892044455	13
48	10046	778.206843011727	4
48	10055	778.908824529341	6
48	10060	779.213201604993	2
48	10068	779.816483803845	5
48	10119	782.5	5
48	10156	784.1	15
48	10178	785.103762767915	9
48	10199	786.507161681141	13
48	10212	787.611772965561	10
48	10229	788.920006533032	12
48	10247	790.321161724102	13
48	10272	795	10
48	10278	795.5	4
48	10283	795.805451784543	2
48	10290	796.111016810032	2
48	10296	796.518700639652	3
48	10311	797.821276817109	12
48	10323	798.630723777105	7
48	10332	799.338542228428	6
48	10346	800.340668318947	9
48	10376	802.94542232082	25
48	10397	806.3	3
48	10403	806.8	4
48	10413	807.605406550085	7
48	10433	809.107760670513	14
48	10449	810.309382673685	11
48	10461	811.318309638415	9
48	10509	814.6	6
48	10523	815.9	12
48	10531	816.302001753021	3
48	10543	817.3082672582	9
48	10565	819.113441403907	17
48	10586	820.819480387687	16
48	10594	821.422120499459	5
48	10604	822.022296709694	5
48	10623	823.722422248158	16
48	10638	824.825531061853	10
48	10681	828.4	4
48	10693	829.5	10
48	10708	830.603669071518	10
48	10726	832.010026799108	13
48	10745	833.71673222905	16
48	10765	835.317986192335	15
48	10782	836.627862180715	12
48	10792	837.433373325983	7
48	10806	838.43741364176	9
48	10821	839.741774169579	12
48	10837	840.94284664154	11
48	10855	842.35023365802	13
48	10871	843.757585644722	13
48	10893	846.5	5
48	10928	849.7	31
48	10941	850.603125405372	8
48	10948	851.105599793905	4
48	10957	851.806984586451	6
48	10970	852.715287222432	8
48	10990	856.2	2
48	10998	856.9	6
48	11008	857.704648598528	7
48	11018	858.309258058413	5
48	11028	859.109449463546	7
48	11051	861.009794710554	18
48	11076	863.113905526828	20
48	11093	864.418966046825	12
48	11108	865.726417064323	12
48	11116	866.130492363789	3
48	11134	870	0
48	11149	871.4	13
48	11156	871.907433999446	4
48	11171	873.013411667225	10
48	11182	873.920120546234	8
48	11200	875.326109972121	13
48	11217	876.626344088963	12
48	11229	877.633196256446	9
48	11245	878.83371829243	11
48	11263	880.236787082386	13
48	11290	882.54334119844	22
48	11309	884.050225041734	14
48	11342	889.5	15
48	11353	890.3	7
48	11362	891.009058738409	6
48	11372	891.814735212379	7
48	11384	892.619050468387	7
48	11393	893.323666980237	6
48	11399	893.731956774711	3
48	11423	896.9	9
48	11432	897.7	7
48	11440	898.105237158678	3
48	11455	899.413947229302	12
48	11465	900.015944282573	5
48	11480	901.322892005624	12
48	11495	902.426516567195	10
48	11519	906.9	9
48	11533	908	10
48	11544	908.90708594562	8
48	11560	910.113099717013	11
48	11570	910.914859267428	7
48	11580	911.717571282085	7
48	11596	912.923065294901	11
48	11608	913.925046045568	9
48	11617	914.429205987152	4
48	11627	915.23566288737	7
48	11639	916.042353963305	7
48	11652	917.150616168636	10
48	11692	922	20
48	11702	922.9	8
48	11717	924.006348376108	10
48	11723	924.41368600004	3
48	11732	925.120811531833	6
48	11758	927.328262730995	21
48	11775	928.634572893776	12
48	11788	929.740476926515	10
48	11803	930.843761434078	10
48	11823	932.445446749094	15
48	11838	933.749981999028	12
48	11851	934.65095137443	8
48	11870	938.2	2
48	11886	939.7	14
48	11900	940.703183590187	9
48	11914	941.912350022531	11
48	11929	943.014817152741	10
48	11946	944.316945916873	12
48	11958	945.325241245036	9
48	11974	946.530329388908	11
48	11983	947.23046671573	6
48	12017	950.5	5
48	12045	953	24
48	12067	954.801282232115	17
48	12089	956.605065395864	17
48	12111	958.414236451528	17
48	12135	960.423555078539	19
48	12160	962.528253155702	20
48	12181	964.233928623019	16
48	12206	968.9	9
48	12216	969.8	8
48	12232	971.00877025892	11
48	12240	971.616256522873	5
48	12262	973.424570243022	17
48	12275	974.334358448298	8
48	12284	975.034866003964	6
48	12293	975.739887986585	6
48	12301	976.1414762434	3
48	12318	977.647946611531	14
48	12335	978.957012127353	12
48	12350	980.057677622776	10
48	12363	981.158982360589	10
48	12380	982.460880609522	12
48	12401	984.165276409147	16
48	12411	984.965906482086	7
48	12429	986.373815543247	13
48	12474	992.6	26
48	12483	993.4	7
48	12490	993.900493202339	4
48	12507	995.205611210066	12
48	12519	996.008643467995	7
48	12532	997.117057964518	10
48	12562	1001.2	12
48	12569	1001.8	5
48	12582	1002.708658140329	8
48	12589	1003.213082227752	4
48	12594	1003.522161295025	2
48	12611	1004.824639684194	12
48	12620	1005.5323864679	6
48	12624	1005.732877424949	1
48	12635	1006.437863711666	6
48	12667	1011.4	14
48	12679	1012.3	8
48	12688	1013.003121236287	6
48	12702	1014.007426883721	9
48	12719	1015.516446033658	14
48	12728	1016.025752024569	4
48	12744	1017.427545052661	13
48	12757	1018.328852817696	8
48	12769	1019.332827117802	9
48	12796	1022.9	9
48	12803	1023.5	5
48	12813	1024.109034235328	5
48	12820	1024.616619426176	4
48	12826	1025.018068609015	3
48	12831	1025.32034110517	2
48	12839	1025.926059952413	5
48	12849	1026.535346966555	5
48	12857	1027.143742550126	5
48	12864	1027.648578378654	4
48	12890	1029.850252385381	21
48	12914	1032.6	6
48	12935	1034.4	17
48	12946	1035.308089722294	8
48	12965	1036.816632300311	14
48	12985	1038.420590040693	15
48	13000	1039.721281941169	12
48	13015	1040.827919470268	10
48	13037	1042.634215418766	17
48	13058	1044.334937899568	16
48	13079	1046.04000081057	16
48	13099	1047.843118438404	17
48	13113	1048.84545541692	9
48	13136	1050.753442237288	18
48	13154	1052.16193413925	13
48	13182	1057	10
48	13197	1058.2	11
48	13206	1058.909913818426	6
48	13222	1060.112831787159	11
48	13228	1060.517087180883	3
48	13242	1061.72206050416	11
48	13262	1063.32648292734	15
48	13294	1067.4	14
48	13307	1068.4	9
48	13316	1069.109389135199	6
48	13330	1070.113038432858	9
48	13339	1070.822517494644	6
48	13352	1071.923932780056	10
48	13367	1073.027859856689	10
48	13384	1074.336527084927	12
48	13406	1076.136581576033	17
48	13439	1079.038445934548	28
48	13469	1082.1	1
48	13484	1083.5	13
48	13493	1084.004467895911	4
48	13509	1085.406784562929	13
48	13519	1086.015657832514	5
48	13536	1087.519780137686	14
48	13547	1088.226071213018	6
48	13571	1092.9	9
48	13578	1093.5	5
48	13594	1094.7036711286	11
48	13604	1095.506160623483	7
48	13613	1096.009155119276	4
48	13626	1097.111206422238	10
48	13661	1101.7	17
48	13679	1103.2	14
48	13687	1103.805819406074	5
48	13702	1104.907516391824	10
48	13721	1106.410924220256	14
48	13736	1107.714934249891	12
48	13750	1108.718812797582	9
48	13757	1109.227713083236	4
48	13771	1110.234225994795	9
48	13797	1115	10
48	13803	1115.5	4
48	13821	1116.901219330744	13
48	13836	1118.001397626483	10
48	13843	1118.502981330679	4
48	13852	1119.206972065936	6
48	13859	1119.70978071931	4
48	13874	1120.815832561237	10
48	13890	1122.020221773463	11
48	13922	1127.5	15
48	13932	1128.2	6
48	13944	1129.201807362234	9
48	13957	1130.108501825446	8
48	13969	1131.111446285053	9
48	13978	1131.813729862862	6
48	13989	1132.514960473552	6
48	14008	1134.018808729571	14
48	14017	1134.723748675006	6
48	14031	1135.925133264538	11
48	14043	1136.726370985282	7
48	14053	1137.52987310138	7
48	14063	1138.135988894101	5
48	14076	1139.242164022799	10
48	14100	1142.7	7
48	14112	1143.8	10
48	14136	1145.806750526067	19
48	14150	1146.814274551241	9
48	14171	1148.522854715163	16
48	14194	1150.428132422735	18
48	14206	1151.436938132912	9
48	14212	1151.839798068733	3
48	14223	1152.544789232111	6
48	14242	1156.1	1
48	14245	1156.3	1
48	14249	1156.506735070941	1
48	14265	1157.913875246967	13
48	14280	1159.015187369481	10
48	14302	1160.824392945762	17
48	14321	1162.326751789048	14
48	14328	1162.829809394374	4
48	14336	1163.439409609255	5
48	14354	1164.844935558905	13
48	14372	1166.250197267272	13
48	14398	1170.8	8
48	14410	1171.9	10
48	14422	1172.708192648531	7
48	14432	1173.513486333807	7
48	14446	1174.518319915079	9
48	14459	1175.626317746245	10
48	14473	1176.632818398812	9
48	14493	1178.241748806204	15
48	14505	1179.248926098959	9
48	14510	1179.550236784946	2
48	14522	1180.350973153565	7
48	14532	1181.153682905821	7
48	14542	1181.955604345082	7
48	14554	1182.759367894877	7
48	14562	1183.364530022577	5
48	14569	1183.867245605627	4
48	14601	1187.5	15
48	14611	1188.2	6
48	14623	1189.201153808895	9
48	14638	1190.303465702591	10
48	14651	1191.408877950384	10
48	14662	1192.112471481979	6
48	14709	1197	10
48	14724	1198.2	11
48	14734	1199.005074104692	7
48	14744	1199.810531702164	7
48	14757	1200.713201285194	8
48	14769	1201.716777111872	9
48	14780	1202.422177058097	6
48	14803	1204.327421442118	18
48	14814	1205.235170698611	8
48	14832	1206.639289336896	13
48	14843	1207.545976321995	8
48	14852	1208.055749502193	4
48	14871	1212.2	2
48	14879	1212.9	6
48	14899	1214.503705688579	15
48	14912	1215.610419177558	10
48	14922	1216.210922139725	5
48	14936	1217.413262686298	11
48	14954	1218.814857136608	13
48	14963	1219.520854189962	6
48	14979	1220.72735700038	11
48	14993	1221.935850671236	11
48	15015	1224.4	4
48	15028	1225.6	11
48	15042	1226.609206757976	9
48	15056	1227.811527627254	11
48	15067	1228.517334976663	6
48	15079	1229.526690118469	9
48	15091	1230.335701561549	7
48	15107	1231.740048424654	13
48	15141	1235.6	16
48	15152	1236.4	7
48	15160	1237.002474723604	5
48	15169	1237.709504722199	6
48	15206	1241.9	19
48	15221	1243.1	11
48	15239	1244.500797482803	13
48	15255	1245.903641152195	13
48	15266	1246.609465059635	6
48	15276	1247.41139598742	7
48	15282	1247.812990113802	3
48	15298	1249.013348484311	11
48	15309	1249.914288550067	8
48	15331	1251.715517232691	17
48	15372	1254.9	9
48	15380	1255.6	6
48	15403	1257.50477724313	18
48	15429	1259.711647112061	21
48	15437	1260.120492381561	3
48	15444	1260.622644455	4
48	15487	1266.3	23
48	15500	1267.5	11
48	15515	1268.600311739484	10
48	15534	1270.10491319897	14
48	15548	1271.308023633038	11
48	15569	1273.016748112559	16
48	15585	1274.225120654455	11
48	15595	1275.034255242205	7
48	15603	1275.639939869539	5
48	15620	1276.949472449248	12
48	15639	1278.457151711772	14
48	15650	1279.364581102025	8
48	15679	1283.3	13
48	15693	1284.6	12
48	15706	1285.707243625468	10
48	15718	1286.708407385903	9
48	15733	1288.013980677385	12
48	15743	1288.81694850229	7
48	15758	1290.119721752682	12
48	15770	1291.123891499228	9
48	15785	1292.424896412211	12
