version 2
run Join-25-20130520-16:32:14-32715
attr configname Join
attr datetime 20130520-16:32:14
attr experiment "\"Join\""
attr inifile omnetpp.ini
attr iterationvars $0=128
attr iterationvars2 "$0=128, $repetition=5"
attr measurement $0=128
attr network Network
attr processid 32715
attr repetition 5
attr replication #5
attr resultdir results
attr runnumber 25
attr seedset 25

vector 25  Network.dyn_peer[0]  lookupHopsSig:vector  ETV
25	580	20.051284695867	3
25	587	20.559774354285	4
25	594	21.062121661965	4
25	600	21.465316018064	3
25	606	21.866875349061	3
25	626	24.3	3
25	629	24.5	1
25	635	24.904249883296	3
25	642	25.405744255655	4
25	652	26.014667929484	5
25	659	26.52196045779	4
25	665	26.926757519644	3
25	673	27.527597105974	5
25	698	30.7	7
25	704	31.2	4
25	711	31.70162010953	4
25	721	32.305426624293	5
25	726	32.614914983733	2
25	755	37.1	11
25	764	37.9	7
25	773	38.405758876199	4
25	782	39.106467431056	6
25	786	39.310326224038	1
25	797	40.011390360257	6
25	805	40.618914177281	5
25	813	41.223991157429	5
25	821	41.825800770085	5
25	828	42.03687190205	1
25	849	46.3	3
25	854	46.7	3
25	860	47.104881375452	3
25	866	47.510008458557	3
25	878	48.313182103958	7
25	887	49.023130406397	6
25	894	49.528500603518	4
25	899	49.838241207703	2
25	909	50.44584422869	5
25	917	51.053672171683	5
25	941	54.6	6
25	945	54.9	2
25	955	55.700281473963	7
25	962	56.007557238609	2
25	968	56.412814163333	3
25	975	56.913725661938	4
25	983	57.52043166507	5
25	989	57.921821340534	3
25	1042	60.3	3
25	1050	61	6
25	1058	61.607882604731	5
25	1072	62.611552065575	9
25	1081	63.315802147399	6
25	1097	64.515877448954	11
25	1102	64.819296344463	2
25	1113	65.722189348219	8
25	1123	66.323902871937	5
25	1128	66.627926477461	2
25	1133	66.935657583916	2
25	1140	67.441946857903	4
25	1144	67.650941912888	1
25	1149	67.955446938848	2
25	1161	68.763159934053	7
25	1185	72.6	6
25	1190	73	3
25	1197	73.509625125231	4
25	1207	74.111684037313	5
25	1213	74.518547850843	3
25	1221	75.127827628108	5
25	1228	75.632444790096	4
25	1237	76.134893878497	4
25	1259	80.6	6
25	1264	81	3
25	1269	81.304191908102	2
25	1277	81.913620501415	5
25	1287	82.519134565157	5
25	1295	83.122430219867	5
25	1319	86.6	6
25	1323	86.9	2
25	1329	87.302467179195	3
25	1340	88.003701623882	6
25	1345	88.310183060116	2
25	1351	88.718935935434	3
25	1359	89.319268044132	5
25	1370	90.026486203382	6
25	1376	90.435287119562	3
25	1382	90.844887438646	3
25	1409	94.9	9
25	1415	95.4	4
25	1426	96.107389446326	6
25	1435	96.816784659569	6
25	1442	97.324272520303	4
25	1450	97.9289993533	5
25	1457	98.229607484657	2
25	1464	98.736278326052	4
25	1471	99.245931974758	4
25	1479	99.851924536644	5
25	1488	100.358400970684	4
25	1494	100.764606449984	3
25	1503	101.381187872765	5
25	1510	101.884742423258	4
25	1519	102.390257874209	4
25	1541	106.5	5
25	1548	107.1	5
25	1555	107.60546854712	4
25	1563	108.009614351635	3
25	1569	108.419575111936	3
25	1579	109.224222083971	7
25	1586	109.72935066983	4
25	1608	112.7	7
25	1613	113.1	3
25	1620	113.605687374705	4
25	1628	114.015106919304	3
25	1633	114.318279521703	2
25	1639	114.724106555355	3
25	1663	118.6	6
25	1669	119.1	4
25	1678	119.804555948507	6
25	1688	120.405917896332	5
25	1697	121.113036095198	6
25	1704	121.614621564099	4
25	1712	122.014929777856	3
25	1716	122.223228080295	1
25	1738	126.4	4
25	1745	127	5
25	1750	127.304581827106	2
25	1755	127.606639978924	2
25	1760	127.907333000741	2
25	1766	128.115331638882	1
25	1786	132.2	2
25	1790	132.5	2
25	1797	133.009856759984	4
25	1805	133.612597085602	5
25	1809	133.817011694492	1
25	1817	134.218288080914	3
25	1839	138.4	4
25	1845	138.9	4
25	1851	139.306643076543	3
25	1857	139.709291461826	3
25	1864	140.016476985342	2
25	1871	140.518049163688	4
25	1879	141.124071485255	5
25	1900	144.3	3
25	1906	144.8	4
25	1914	145.404485102598	5
25	1924	146.008670645821	5
25	1933	146.716335221455	6
25	1941	147.320968038065	5
25	1954	148.227023131589	8
25	1962	148.836206339767	5
25	1972	149.643801410176	7
25	1984	150.450097432496	7
25	1995	151.354625377292	8
25	2009	152.35494493504	9
25	2036	156.9	9
25	2041	157.3	3
25	2046	157.601812639695	2
25	2057	158.302464089956	6
25	2064	158.805521668788	4
25	2070	159.215439120066	3
25	2077	159.720483538876	4
25	2084	160.026106171782	2
25	2092	160.626316408733	5
25	2100	161.233008176941	5
25	2107	161.737542178265	4
25	2129	164.4	4
25	2141	165.5	10
25	2150	166.00151958337	4
25	2156	166.403124347573	3
25	2177	170.3	3
25	2184	170.9	5
25	2193	171.608327512971	6
25	2204	172.311361257882	6
25	2212	172.911409411606	5
25	2219	173.414455429465	4
25	2229	174.020732017532	5
25	2237	174.626350389956	5
25	2263	178.8	8
25	2272	179.6	7
25	2287	180.705677208201	10
25	2294	181.213042150702	4
25	2317	184.5	5
25	2324	185.1	5
25	2329	185.402972344357	2
25	2335	185.806664703017	3
25	2345	186.416273948598	5
25	2351	186.825628820956	3
25	2357	187.227669608483	3
25	2364	187.733531969396	4
25	2377	188.639603748795	8
25	2383	189.048869402765	3
25	2394	189.950187688875	8
25	2417	192.5	5
25	2422	192.9	3
25	2430	193.50110794634	5
25	2435	193.809467774142	2
25	2441	194.011759765254	1
25	2450	194.712463501748	6
25	2459	195.420076148482	6
25	2466	195.924201393893	4
25	2477	196.629776462418	6
25	2500	200.5	5
25	2506	201	4
25	2515	201.700243246187	6
25	2524	202.200791594916	4
25	2531	202.706530069833	4
25	2539	203.306914170287	5
25	2545	203.708940344513	3
25	2549	203.918015047611	1
25	2560	204.618048221854	6
25	2584	208.6	6
25	2591	209.2	5
25	2597	209.609572006445	3
25	2610	210.517602129885	8
25	2622	211.518417720833	9
25	2642	214.2	2
25	2650	214.9	6
25	2655	215.205963641563	2
25	2663	215.812836794778	5
25	2676	216.713409632327	8
25	2702	220.8	8
25	2706	221.1	2
25	2712	221.504687513238	3
25	2723	222.212662297551	6
25	2731	222.81671494701	5
25	2739	223.419545594559	5
25	2750	224.126131968344	6
25	2776	229.1	11
25	2784	229.8	6
25	2791	230.102324144758	2
25	2797	230.512250213175	3
25	2803	230.912770841812	3
25	2832	235.1	11
25	2840	235.8	6
25	2849	236.303658874202	4
25	2856	236.805076285767	4
25	2864	237.414319824079	5
25	2871	237.915535783496	4
25	2880	238.421698310671	4
25	2893	239.521759966134	10
25	2918	242.7	7
25	2928	243.6	8
25	2937	244.104584644753	4
25	2945	244.71424190113	5
25	2955	245.519733130593	7
25	2965	246.121342411147	5
25	2988	250.5	5
25	2994	251	4
25	3003	251.705570696135	6
25	3011	252.106103110077	3
25	3017	252.515059862666	3
25	3024	253.015881722313	4
25	3032	253.621343514173	5
25	3040	254.025525415263	3
25	3048	254.633717001909	5
25	3054	255.037621794687	3
25	3062	255.643003668507	5
25	3072	256.245849454187	5
25	3083	257.150957352191	8
25	3106	260.5	5
25	3119	261.7	11
25	3130	262.408098322143	6
25	3138	263.009734096989	5
25	3145	263.511497327187	4
25	3154	264.015927244396	4
25	3165	264.923244280211	8
25	3183	268	0
25	3188	268.4	3
25	3196	269.006739110192	5
25	3215	270.514382832953	14
25	3221	270.915879135373	3
25	3227	271.318465436155	3
25	3234	271.820005549516	4
25	3242	272.221571883023	3
25	3248	272.626979407404	3
25	3269	276.3	3
25	3280	277.3	9
25	3288	277.906822197157	5
25	3296	278.314930241575	3
25	3303	278.816159101907	4
25	3309	279.218787152164	3
25	3315	279.620295029799	3
25	3319	279.822906860692	1
25	3342	282.5	5
25	3348	283	4
25	3355	283.500994270215	4
25	3364	284.004422491701	4
25	3371	284.505359475294	4
25	3378	285.010376899368	4
25	3386	285.614424212109	5
25	3396	286.223133332223	5
25	3402	286.628288690609	3
25	3412	287.434544173214	7
25	3422	288.038222478938	5
25	3426	288.243697914134	1
25	3436	289.04628993974	7
25	3461	292.7	7
25	3468	293.3	5
25	3479	294.007460317169	6
25	3483	294.215580244769	1
25	3489	294.624891732185	3
25	3500	295.529323441583	8
25	3504	295.731565504571	1
25	3513	296.238329512075	4
25	3518	296.539140312162	2
25	3541	300.5	5
25	3545	300.8	2
25	3550	301.102917327955	2
25	3558	301.707714326018	5
25	3565	302.009168847512	2
25	3571	302.414282184656	3
25	3576	302.716328094576	2
25	3584	303.325834264401	5
25	3612	307	10
25	3625	308	9
25	3630	308.304471709474	2
25	3636	308.612354462444	2
25	3642	309.013027012193	3
25	3650	309.616135984261	5
25	3662	310.416450940854	7
25	3684	314.4	4
25	3690	314.9	4
25	3697	315.407114431657	4
25	3701	315.616803048214	1
25	3710	316.118742662619	4
25	3716	316.520043384681	3
25	3723	317.024640740471	4
25	3744	320.6	6
25	3752	321.3	6
25	3760	321.909029737554	5
25	3768	322.318137450946	3
25	3776	322.925790619616	5
25	3782	323.330643485613	3
25	3790	323.937421753477	5
25	3811	326.6	6
25	3820	327.4	7
25	3832	328.201873007167	7
25	3840	328.802840331792	5
25	3844	329.010489169842	1
25	3852	329.616645451158	5
25	3857	329.925340966182	2
25	3866	330.43435797116	4
25	3890	334.6	6
25	3895	335	3
25	3911	336.207416923714	11
25	3926	337.512192205753	12
25	3935	338.018714022032	4
25	3957	342.4	4
25	3966	343.2	7
25	3980	344.107524686602	8
25	3985	344.411063477971	2
25	3990	344.716582402734	2
25	3997	345.224569181283	4
25	4001	345.429012691741	1
25	4007	345.833372027279	3
25	4029	348.4	4
25	4035	348.9	4
25	4042	349.402074185239	4
25	4052	350.002688141164	5
25	4060	350.61138691374	5
25	4067	351.113858220511	4
25	4077	351.81900645166	6
25	4087	352.425497977862	5
25	4094	352.934858422703	4
25	4116	356.4	4
25	4121	356.8	3
25	4127	357.205458242315	3
25	4133	357.615166630683	3
25	4138	357.916588060474	2
25	4145	358.226352535383	2
25	4151	358.633201954135	3
25	4177	362.8	8
25	4183	363.3	4
25	4189	363.708698752517	3
25	4198	364.212127159181	4
25	4203	364.520093311161	2
25	4213	365.327813429293	7
25	4224	366.035866424088	6
25	4229	366.338706957763	2
25	4237	366.942205629576	5
25	4264	370.9	9
25	4270	371.4	4
25	4281	372.107023190285	6
25	4291	372.916754471379	7
25	4297	373.324911683798	3
25	4303	373.729759843917	3
25	4325	376.4	4
25	4333	377.1	6
25	4339	377.509578505977	3
25	4343	377.711908059684	1
25	4351	378.112352392946	3
25	4359	378.722240632425	5
25	4363	378.930163644079	1
25	4371	379.534183972831	5
25	4375	379.740698183604	1
25	4382	380.045983767492	2
25	4389	380.555117807154	4
25	4417	385	10
25	4426	385.8	7
25	4436	386.400994244406	5
25	4447	387.301938442775	8
25	4455	387.910572553813	5
25	4464	388.414849225534	4
25	4471	388.919080919299	4
25	4479	389.521984792127	5
25	4501	392.4	4
25	4513	393.5	10
25	4522	394.00512109067	4
25	4532	394.809949183014	7
25	4540	395.413637365062	5
25	4546	395.814665323182	3
25	4555	396.323453711544	4
25	4560	396.62488793924	2
25	4564	396.828006654204	1
25	4569	397.135381249421	2
25	4573	397.343729644535	1
25	4581	397.949178517256	5
25	4602	400.3	3
25	4605	400.5	1
25	4610	400.800649323728	2
25	4617	401.310472621518	4
25	4628	402.018056855684	6
25	4635	402.518965320855	4
25	4639	402.720908480105	1
25	4648	403.424112704452	6
25	4654	403.826363403946	3
25	4665	404.53309452146	6
25	4670	404.839139754957	2
25	4692	408.4	4
25	4706	409.7	12
25	4713	410.0074964637	2
25	4721	410.613208753845	5
25	4734	411.716311175572	10
25	4748	412.720927830958	9
25	4755	413.230203139831	4
25	4764	413.939097854206	6
25	4787	416.5	5
25	4794	417.1	5
25	4804	417.902601716483	7
25	4815	418.612319300642	6
25	4821	419.016898843687	3
25	4826	419.321229699681	2
25	4843	420.631086986445	12
25	4870	424.9	9
25	4878	425.6	6
25	4887	426.100045005683	4
25	4893	426.502219391441	3
25	4899	426.907134133434	3
25	4906	427.416940107351	4
25	4912	427.825310856274	3
25	4919	428.127495851623	2
25	4945	432.8	8
25	4956	433.8	9
25	4963	434.101613174935	2
25	4968	434.407520490539	2
25	4990	438.4	4
25	5003	439.6	11
25	5012	440.109969460587	4
25	5021	440.816822293084	6
25	5031	441.620375939751	7
25	5065	444.9	9
25	5069	445.2	2
25	5075	445.600354684295	3
25	5083	446.003802372591	3
25	5091	446.604090961524	5
25	5098	447.113056522911	4
25	5105	447.622485629774	4
25	5117	448.423512760568	7
25	5123	448.823659015283	3
25	5145	452.4	4
25	5149	452.7	2
25	5153	452.908302354596	1
25	5161	453.508744132213	5
25	5167	453.911156717354	3
25	5177	454.519546424431	5
25	5184	455.023051659279	4
25	5201	458.2	2
25	5208	458.8	5
25	5214	459.208858701116	3
25	5221	459.715558882017	4
25	5235	460.71971051606	9
25	5246	461.622848213595	8
25	5256	462.223705581643	5
25	5283	466.9	9
25	5288	467.3	3
25	5296	467.906334107464	5
25	5306	468.507190611413	5
25	5313	469.009269656535	4
25	5319	469.415625795096	3
25	5327	469.926871635992	4
25	5335	470.334990870225	3
25	5342	470.839340673765	4
25	5368	474.8	8
25	5373	475.2	3
25	5378	475.505965742433	2
25	5387	476.011769951851	4
25	5392	476.317508604322	2
25	5420	481	10
25	5433	482	9
25	5440	482.503813544472	4
25	5445	482.805960183623	2
25	5453	483.412702788158	5
25	5479	486.8	8
25	5489	487.7	8
25	5499	488.308359180567	5
25	5504	488.610764683358	2
25	5511	489.111089295995	4
25	5520	489.81969379125	6
25	5531	490.52347279273	6
25	5557	494.8	8
25	5560	495	1
25	5570	495.804141483542	7
25	5582	496.60675858272	7
25	5590	497.212328586552	5
25	5602	498.021346750035	7
25	5615	499.127363977543	10
25	5625	499.934608033708	7
25	5644	502.1	1
25	5660	503.6	14
25	5668	504.005912049359	3
25	5675	504.51221831001	4
25	5684	505.220087859662	6
25	5705	508.3	3
25	5712	508.9	5
25	5722	509.706888842915	7
25	5733	510.407854180649	6
25	5740	510.908584001784	4
25	5748	511.517483752065	5
25	5760	512.318705480704	7
25	5765	512.626687112883	2
25	5776	513.532368536502	8
25	5788	514.335566860832	7
25	5797	515.045566211241	6
25	5802	515.35119607898	2
25	5829	518.9	9
25	5844	520.1	11
25	5853	520.806958550841	6
25	5866	521.908829715307	10
25	5875	522.412595432842	4
25	5883	523.014552318224	5
25	5890	523.522509354784	4
25	5899	524.028727853915	4
25	5907	524.631143522476	5
25	5914	525.141038089603	4
25	5921	525.642263814603	4
25	5944	528.5	5
25	5950	529	4
25	5954	529.203190286494	1
25	5959	529.505049635119	2
25	5964	529.81478780271	2
25	5971	530.121777093321	2
25	5978	530.623190977528	4
25	5993	531.925235342545	12
25	6019	534.8	8
25	6025	535.200617274623	3
25	6032	535.706121063232	4
25	6040	536.114508483942	3
25	6049	536.816332354656	6
25	6055	537.218493501533	3
25	6059	537.422567641661	1
25	6064	537.722794230713	2
25	6072	538.132256388405	3
25	6079	538.636154787923	4
25	6083	538.839591288897	1
25	6108	542.7	7
25	6116	543.4	6
25	6123	543.905164005351	4
25	6135	544.709675125027	7
25	6145	545.517950826495	7
25	6161	546.719895870618	11
25	6184	550.5	5
25	6188	550.8	2
25	6197	551.413731877747	5
25	6204	551.923472454779	4
25	6214	552.527052267508	5
25	6223	553.235972246806	6
25	6231	553.840999358875	5
25	6238	554.147115276675	2
25	6246	554.747507449514	5
25	6269	558.5	5
25	6273	558.8	2
25	6278	559.101086286187	2
25	6294	560.306474253166	11
25	6303	561.010694605648	6
25	6310	561.510865657614	4
25	6334	564.6	6
25	6340	565.1	4
25	6350	565.906502947541	7
25	6361	566.61353591981	6
25	6367	567.017158643688	3
25	6373	567.423537956479	3
25	6377	567.631039771119	1
25	6382	567.937781830637	2
25	6404	570.4	4
25	6415	571.4	9
25	6422	571.908386094148	4
25	6431	572.418185528949	4
25	6439	573.02633751324	5
25	6446	573.433512672071	3
25	6456	574.042908771034	5
25	6464	574.645780145754	5
25	6486	578.6	6
25	6493	579.2	5
25	6497	579.404598773487	1
25	6502	579.71200086607	2
25	6511	580.214663234335	4
25	6517	580.622497968758	3
25	6524	581.130823935838	4
25	6530	581.534848733448	3
25	6539	582.037547111878	4
25	6544	582.341055365769	2
25	6552	582.947239037694	5
25	6576	586.6	6
25	6583	587.2	5
25	6589	587.600878135701	3
25	6601	588.409310816467	7
25	6607	588.813335251918	3
25	6612	589.120677742087	2
25	6619	589.627095552705	4
25	6636	592.2	2
25	6641	592.6	3
25	6655	593.80102560695	11
25	6672	595.110765669217	12
25	6680	595.716938185416	5
25	6692	596.525866468177	7
25	6703	597.433471337136	8
25	6709	597.841044655249	3
25	6732	600.5	5
25	6742	601.4	8
25	6748	601.805196155654	3
25	6755	602.113622844961	2
25	6767	603.116745824866	9
25	6773	603.522219977964	3
25	6785	604.330067848494	7
25	6812	608.9	9
25	6817	609.3	3
25	6828	610.003034810132	6
25	6836	610.610949770558	5
25	6844	611.214103261743	5
25	6852	611.816618698312	5
25	6875	614.5	5
25	6882	615.1	5
25	6888	615.501696737986	3
25	6893	615.807831728383	2
25	6900	616.109709706822	2
25	6905	616.411926927811	2
25	6914	617.112619653833	6
25	6940	620.8	8
25	6948	621.5	6
25	6960	622.307246450611	7
25	6972	623.316372831025	9
25	6983	624.022721073461	6
25	6992	624.730530595789	6
25	7001	625.431457232826	6
25	7013	626.23492922283	7
25	7025	627.235241554432	9
25	7038	628.136330250053	8
25	7058	632.2	2
25	7067	633	7
25	7077	633.803370862104	7
25	7085	634.209168579677	3
25	7091	634.617092917059	3
25	7102	635.519989778441	8
25	7112	636.122101154261	5
25	7128	637.524530930932	13
25	7148	640.2	2
25	7155	640.8	5
25	7166	641.701739430872	8
25	7176	642.306292005127	5
25	7184	642.913165234957	5
25	7189	643.214718463449	2
25	7216	646.9	9
25	7225	647.7	7
25	7239	648.707882450246	9
25	7244	649.009242727691	2
25	7252	649.616212711559	5
25	7261	650.125185463143	4
25	7281	654.2	2
25	7285	654.5	2
25	7291	654.90116942754	3
25	7297	655.309457245713	3
25	7302	655.616078474216	2
25	7314	656.419073024626	7
25	7323	657.126663420736	6
25	7330	657.628561501461	4
25	7339	658.133232695688	4
25	7346	658.633796811447	4
25	7353	659.137397464102	4
25	7361	659.737551932253	5
25	7382	662.4	4
25	7388	662.9	4
25	7394	663.308351874777	3
25	7399	663.610001312454	2
25	7403	663.814753373672	1
25	7414	664.522836655542	6
25	7454	668.9	9
25	7461	669.5	5
25	7470	670.008443452145	4
25	7480	670.81433375701	7
25	7489	671.518696578602	6
25	7498	672.019343714409	4
25	7506	672.624397826422	5
25	7513	673.127735028384	4
25	7523	673.93717906643	7
25	7541	676	0
25	7546	676.4	3
25	7557	677.304551179886	8
25	7564	677.812238279953	4
25	7573	678.312866887575	4
25	7595	682.4	4
25	7602	683	5
25	7613	683.90973831278	8
25	7624	684.617030933666	6
25	7633	685.322378334304	6
25	7648	686.42923390962	10
25	7657	687.138608920064	6
25	7663	687.539694059781	3
25	7684	690.3	3
25	7690	690.8	4
25	7699	691.508379354195	6
25	7712	692.416308086905	8
25	7719	692.923939644111	4
25	7727	693.52770485343	5
25	7736	694.02995938146	4
25	7754	698.3	3
25	7760	698.8	4
25	7765	699.107245025625	2
25	7773	699.710289548807	5
25	7782	700.219815880462	4
25	7788	700.624102375336	3
25	7795	701.130464041806	4
25	7815	704.5	5
25	7819	704.8	2
25	7823	705.003741846014	1
25	7828	705.310202904661	2
25	7844	706.518930980757	11
25	7848	706.722201164747	1
25	7853	707.029214185432	2
25	7860	707.536077180472	4
25	7865	707.844500032572	2
25	7874	708.352212956156	4
25	7901	712.9	9
25	7907	713.4	4
25	7914	713.900480005743	4
25	7924	714.50255435052	5
25	7929	714.809710765114	2
25	7935	715.214188557794	3
25	7940	715.522088799484	2
25	7951	716.231040204922	6
25	7960	716.940012877583	6
25	7967	717.445858136943	4
25	7990	720.5	5
25	7994	720.8	2
25	8007	721.907070548427	10
25	8017	722.51082976204	5
25	8025	723.114290985536	5
25	8031	723.52029186531	3
25	8059	727	10
25	8068	727.8	7
25	8080	728.604506446972	7
25	8090	729.411820490934	7
25	8100	730.02019431972	5
25	8104	730.228371020223	1
25	8109	730.534671966908	2
25	8114	730.843224882822	2
25	8135	734.3	3
25	8144	735.1	7
25	8157	736.002009838193	8
25	8163	736.406986117327	3
25	8169	736.81107574567	3
25	8189	740.2	2
25	8194	740.6	3
25	8209	741.904111150365	12
25	8222	742.807305150671	8
25	8230	743.41123275464	5
25	8235	743.721155473623	2
25	8255	746.3	3
25	8260	746.7	3
25	8270	747.501842098045	7
25	8277	748.002371303061	4
25	8285	748.604121044014	5
25	8297	749.607947968101	9
25	8303	750.014600154446	3
25	8313	750.821884759527	7
25	8321	751.431801925049	5
25	8329	752.034976878342	5
25	8336	752.538943526569	4
25	8344	753.147267712164	5
25	8350	753.556172754352	3
25	8360	754.362054185384	7
