version 2
run Join-58-20130520-16:32:35-32715
attr configname Join
attr datetime 20130520-16:32:35
attr experiment "\"Join\""
attr inifile omnetpp.ini
attr iterationvars $0=1024
attr iterationvars2 "$0=1024, $repetition=8"
attr measurement $0=1024
attr network Network
attr processid 32715
attr repetition 8
attr replication #8
attr resultdir results
attr runnumber 58
attr seedset 58

vector 58  Network.dyn_peer[0]  lookupHopsSig:vector  ETV
58	3093	21.2	12
58	3112	22.8	15
58	3124	23.809455485099	9
58	3144	25.410717939282	15
58	3154	26.013431858538	5
58	3162	26.621300095355	5
58	3168	27.021443578119	3
58	3174	27.429290184828	3
58	3184	28.033498481081	5
58	3190	28.441173229398	3
58	3232	34.3	23
58	3236	34.6	2
58	3249	35.705878135233	10
58	3264	36.806209215213	10
58	3280	38.009043182412	11
58	3298	39.609127265687	15
58	3313	40.711648397298	10
58	3331	42.120343343679	13
58	3342	43.028262079433	8
58	3356	44.030535648856	9
58	3369	45.137157273341	10
58	3387	46.545373017896	13
58	3414	51	10
58	3428	52.1	10
58	3451	54.006616404801	18
58	3470	55.713054679068	16
58	3500	58.122495625926	23
58	3506	58.526265199122	3
58	3547	64.1	21
58	3571	66.2	20
58	3596	68.306769166248	20
58	3610	69.515574812967	11
58	3634	71.524170156583	19
58	3662	73.931881754808	23
58	3685	75.839267460564	18
58	3700	76.941094356064	10
58	3727	79.242901415027	22
58	3752	81.349291384591	20
58	3773	83.049548928598	16
58	3789	84.257276790144	11
58	3805	85.66515276557	13
58	3820	86.769508355061	10
58	3856	91.8	18
58	3887	94.4	25
58	3919	97.201426291351	27
58	3926	97.709559900105	4
58	3947	99.415115265549	16
58	3963	100.615188637167	11
58	3982	102.121662881044	14
58	3999	103.6223232262	14
58	4030	107.3	13
58	4051	109.1	17
58	4070	110.605009091345	14
58	4091	112.312538902868	16
58	4112	114.015191249727	16
58	4124	115.020999307984	9
58	4144	116.62860343795	15
58	4168	118.628915378094	19
58	4191	120.530324638212	18
58	4204	121.634509088258	10
58	4225	123.337449029384	16
58	4241	124.537684738543	11
58	4292	128.6	6
58	4329	130.1	14
58	4367	131.90885925424	17
58	4383	132.714397684018	7
58	4393	133.522687893289	7
58	4403	134.125057132512	5
58	4426	136.032025198284	18
58	4434	136.639966806782	5
58	4449	137.948659612695	12
58	4455	138.157745723081	1
58	4466	139.062231204827	8
58	4491	141.164511477202	20
58	4515	143.168654845082	19
58	4534	144.677931260519	14
58	4583	150.9	29
58	4603	152.6	16
58	4622	154.103626015663	14
58	4630	154.710252832017	5
58	4644	155.917769149426	11
58	4658	156.927276285032	9
58	4670	157.929331077676	9
58	4692	159.734479269949	17
58	4710	161.135508196503	13
58	4725	162.239486806031	10
58	4765	168.1	21
58	4775	169	8
58	4784	169.705374360168	6
58	4798	170.70787785561	9
58	4831	173.613143963282	28
58	4847	174.814711732903	11
58	4856	175.522539156367	6
58	4913	181.7	37
58	4938	183.9	21
58	4966	186.106500696854	21
58	4992	188.310088674353	21
58	5019	190.610148116281	22
58	5042	192.51824805558	18
58	5050	193.118804752868	5
58	5072	196.7	7
58	5088	198	12
58	5104	199.405789337987	13
58	5119	200.508501711594	10
58	5134	201.812786050016	12
58	5148	202.817244297364	9
58	5166	204.223393189325	13
58	5207	210.4	24
58	5213	210.9	4
58	5229	212.107700948412	11
58	5243	213.316733251641	11
58	5257	214.321949911609	9
58	5283	216.522356789594	21
58	5310	218.827882739093	22
58	5329	220.336500862361	14
58	5338	221.04024166586	6
58	5353	222.148962244541	10
58	5426	227.6	16
58	5453	229.7	20
58	5469	230.907676575616	11
58	5489	232.509533124839	15
58	5508	234.019088960667	14
58	5526	235.626589728114	15
58	5547	237.333400184269	16
58	5574	239.636102462787	22
58	5593	241.145942033181	14
58	5610	242.446361327833	12
58	5627	243.953440748872	14
58	5666	248	20
58	5689	250	19
58	5714	252.106231016404	20
58	5740	254.307424130662	21
58	5747	254.811960221741	4
58	5771	256.814388855418	19
58	5787	258.019025665451	11
58	5804	259.528418466045	14
58	5823	261.030878676722	14
58	5847	263.034719818193	19
58	5869	264.844020850419	17
58	5890	266.544406336646	16
58	5906	267.950488608346	13
58	5926	269.558154347433	15
58	5937	270.262783665006	6
58	5966	275.1	11
58	6003	278.3	31
58	6018	279.606477938548	12
58	6030	280.412754657689	7
58	6038	281.01870830813	5
58	6056	282.427858514928	13
58	6073	283.929686507794	14
58	6152	287.8	18
58	6187	289.3	14
58	6243	291.709351938797	23
58	6269	292.818292497759	10
58	6309	294.519611143862	16
58	6325	295.122594653038	5
58	6357	296.525523662937	13
58	6376	297.926309283207	13
58	6394	299.332695901325	13
58	6410	300.541172436486	11
58	6431	302.250785843481	16
58	6461	307.3	13
58	6477	308.6	12
58	6486	309.304892065592	6
58	6510	311.307477736942	19
58	6531	313.011366791907	16
58	6560	315.512392582227	24
58	6572	316.316309798159	7
58	6588	317.717260240539	13
58	6596	318.120715709188	3
58	6647	322.6	6
58	6655	323.2	5
58	6664	323.901710615521	6
58	6692	326.101949511745	21
58	6706	327.302111063557	11
58	6724	328.704493598632	13
58	6735	329.613686768365	8
58	6755	331.223360423037	15
58	6770	332.323739386157	10
58	6813	338.3	23
58	6818	338.7	3
58	6824	339.103776489715	3
58	6840	340.308471941735	11
58	6854	341.515674648309	11
58	6871	342.821425094633	12
58	6899	345.226620217899	23
58	6904	345.531795708373	2
58	6995	350.4	24
58	7014	351.6	11
58	7036	353.407881816269	17
58	7051	354.513101924371	10
58	7085	357.522790457922	29
58	7120	360.431761385722	28
58	7134	361.641500836534	11
58	7154	363.251335797891	15
58	7171	364.557560201328	12
58	7197	368.8	8
58	7207	369.7	8
58	7221	370.703729876822	9
58	7240	372.206770360108	14
58	7264	374.213510544436	19
58	7292	376.615249097643	23
58	7341	382.9	29
58	7363	384.8	18
58	7383	386.408830188191	15
58	7407	388.415373505744	19
58	7424	389.924434896066	14
58	7461	393.0327425985	30
58	7494	395.938024671958	28
58	7503	396.443586576183	4
58	7520	397.944411419585	14
58	7555	400.851756053626	28
58	7589	403.861711724403	29
58	7624	406.765952125508	28
58	7650	410.9	9
58	7659	411.7	7
58	7677	413.108541346176	13
58	7725	417.316294838483	41
58	7741	418.525755024591	11
58	7751	419.326164634361	7
58	7776	421.426620319642	20
58	7808	425.4	14
58	7821	426.4	9
58	7836	427.706493071126	12
58	7865	430.007638014195	22
58	7874	430.713309763133	6
58	7888	431.92287502432	11
58	7910	433.72759294789	17
58	7921	434.43610033498	6
58	7932	435.337744299481	8
58	7939	435.837932972987	4
58	7994	441.5	35
58	8010	442.8	12
58	8021	443.708544098748	8
58	8036	444.809050586108	10
58	8054	446.218706896506	13
58	8065	447.128000508689	8
58	8083	448.535709146948	13
58	8092	449.236368241005	6
58	8115	451.145408677675	18
58	8148	455.7	17
58	8187	459.1	33
58	8228	462.603172909894	34
58	8236	463.21032879047	5
58	8257	464.913150825704	16
58	8266	465.623125594801	6
58	8282	466.831570156105	11
58	8303	468.538942872828	16
58	8322	470.040244511458	14
58	8337	471.349066333869	12
58	8349	472.149314825817	7
58	8365	473.550790974582	13
58	8371	473.952004911022	3
58	8400	477.2	12
58	8420	478.9	16
58	8441	480.600342763632	16
58	8472	483.30873412511	26
58	8499	485.61072295494	22
58	8520	487.315799817914	16
58	8538	488.721547450428	13
58	8558	490.323308921645	15
58	8590	495.4	14
58	8626	498.5	30
58	8645	500.003685692104	14
58	8661	501.405952074539	13
58	8697	504.412236820449	29
58	8722	506.521044583591	20
58	8737	507.821646280549	12
58	8751	508.822591936781	9
58	8760	509.526204355172	6
58	8796	512.535022699515	29
58	8828	517.4	14
58	8834	517.9	4
58	8858	519.905436558453	19
58	8891	522.61047730389	26
58	8902	523.511582451059	8
58	8912	524.114463500915	5
58	8922	524.919918027314	7
58	8940	526.320429050723	13
58	8952	527.326306646795	9
58	8969	528.626617021803	12
58	8997	533	10
58	9019	534.9	18
58	9027	535.507829906917	5
58	9052	537.614387371032	20
58	9076	539.618586229416	19
58	9101	541.72652011684	20
58	9127	543.927187868706	21
58	9144	545.232129381462	12
58	9163	546.734787905504	14
58	9181	548.137514733249	13
58	9188	548.638845166252	4
58	9202	549.844495171708	11
58	9220	551.251244445819	13
58	9236	552.459497253481	11
58	9250	553.667319941523	11
58	9289	558	20
58	9294	558.4	3
58	9316	560.20016599114	17
58	9328	561.207633369422	9
58	9359	563.915719036265	26
58	9369	564.524803675902	5
58	9399	567.128056709277	25
58	9427	569.528548899436	23
58	9433	569.934425549757	3
58	9467	572.734888199182	27
58	9495	577	10
58	9508	578	9
58	9520	579.008922433862	9
58	9529	579.710734254307	6
58	9548	581.210775476045	14
58	9561	582.117791586546	8
58	9575	583.323335980034	11
58	9597	585.123794092267	17
58	9615	586.533364869753	13
58	9629	587.742551519075	11
58	9638	588.246794057451	4
58	9652	589.454110925181	11
58	9656	589.655606465548	1
58	9721	593.3	13
58	9753	595	16
58	9763	595.805845362411	7
58	9786	597.707214118125	18
58	9809	599.614768765775	18
58	9821	600.416719778649	7
58	9858	603.720147185547	32
58	9896	606.920925509713	31
58	9911	608.024447238484	10
58	9921	608.827268201712	7
58	9933	609.832926689466	9
58	9955	611.638819074051	17
58	10012	614.7	7
58	10030	615.7	9
58	10049	617.205897851223	14
58	10064	618.30734832938	10
58	10070	618.716072713131	3
58	10077	619.22473871264	4
58	10096	620.732745103827	14
58	10120	622.742545955686	19
58	10137	624.050155817952	12
58	10156	625.750715004272	16
58	10241	630.1	21
58	10254	630.7	5
58	10292	632.204736688814	14
58	10348	634.613295150803	23
58	10359	635.023156516571	3
58	10452	641.8	38
58	10463	642.6	7
58	10488	644.704584856105	20
58	10499	645.60833726246	8
58	10519	647.214806480317	15
58	10536	648.517851352153	12
58	10550	649.727663436223	11
58	10591	653.232214521906	34
58	10634	656.2	2
58	10658	657.6	13
58	10676	659.00235596501	13
58	10684	659.603814986054	5
58	10696	660.41200457242	7
58	10709	661.512737509139	10
58	10722	662.415613578961	8
58	10750	667.3	13
58	10755	667.7	3
58	10772	669.003255250637	12
58	10789	670.308780509516	12
58	10804	671.612169971853	12
58	10824	673.221738432366	15
58	10840	674.429213666305	11
58	10852	675.437972675542	9
58	10879	677.742144203371	22
58	10895	678.944378092455	11
58	10916	680.653784532687	16
58	10938	682.459482709509	17
58	10952	683.669219128871	11
58	10979	685.971994086661	22
58	11002	687.880884185948	18
58	11017	688.987510178806	10
58	11093	694.1	21
58	11099	694.6	4
58	11111	695.60773309797	9
58	11124	696.509252614422	8
58	11129	696.812959972975	2
58	11139	697.618307964889	7
58	11157	699.025349064477	13
58	11166	699.72963445781	6
58	11187	701.439559737373	16
58	11207	703.039634504594	15
58	11228	704.744030819173	16
58	11253	708.7	7
58	11259	709.2	4
58	11276	710.509428280559	12
58	11282	710.916053721108	3
58	11290	711.520322858632	5
58	11324	714.323915026151	27
58	11359	717.428880006978	30
58	11483	721.3	13
58	11498	721.7	3
58	11522	722.304104854438	5
58	11597	724.408845040056	20
58	11647	726.316823896181	18
58	11670	727.820864803192	14
58	11686	729.026136559265	11
58	11731	734.5	25
58	11737	735	4
58	11770	737.902126944195	28
58	11784	738.905131106459	9
58	11813	741.414008850253	24
58	11838	743.523576230742	20
58	11859	745.22767054808	16
58	11922	749.2	12
58	11944	750.1	8
58	11954	750.907581731977	7
58	11983	753.414798578531	24
58	11997	754.424110412115	9
58	12007	755.228845668748	7
58	12021	756.236644446555	9
58	12035	757.445116725138	11
58	12047	758.251292529793	7
58	12053	758.659565193913	3
58	12065	759.664580951294	9
58	12089	761.673943703012	19
58	12105	762.878853912172	11
58	12114	763.58098658113	6
58	12130	764.787160257175	11
58	12176	770.6	26
58	12189	771.8	11
58	12198	772.30775999451	4
58	12215	773.812232235099	14
58	12244	776.116673205936	22
58	12276	778.919061680725	27
58	12303	782.9	9
58	12323	784.6	16
58	12358	787.704688409704	30
58	12384	789.90983065287	21
58	12392	790.318049963408	3
58	12414	792.127096751276	17
58	12446	794.933479886804	27
58	12484	798.141100402317	31
58	12511	800.445532396352	22
58	12535	802.453189131391	19
58	12559	804.460948367551	19
58	12582	806.370904013397	18
58	12639	811.1	11
58	12652	812.1	9
58	12676	814.103930632532	19
58	12693	815.609804378065	14
58	12710	816.912281774533	12
58	12728	818.320326293985	13
58	12735	818.825879734508	4
58	12751	820.034366498159	11
58	12762	820.940391726303	8
58	12779	822.244689583075	12
58	12805	827	10
58	12825	828.7	16
58	12842	830.009266910068	12
58	12874	832.816231820172	27
58	12897	834.723518290676	18
58	12908	835.624920829902	8
58	12925	836.928102674376	12
58	12943	838.334435077769	13
58	12954	839.241574969576	8
58	12995	844.1	21
58	13017	846	18
58	13034	847.509811519128	14
58	13045	848.21641568174	6
58	13067	850.021796283909	17
58	13080	851.129952594731	10
58	13097	852.436650498348	12
58	13121	854.438727387321	19
58	13142	856.141976623701	16
58	13184	862.2	22
58	13193	863	7
58	13211	864.401078614154	13
58	13221	865.209505868648	7
58	13234	866.114788219056	8
58	13248	867.31495428564	11
58	13264	868.517153374911	11
58	13285	870.217448379555	16
58	13298	871.323755510043	10
58	13317	872.825421196819	14
58	13327	873.62808527299	7
58	13343	874.832313281828	11
58	13354	875.734653540995	8
58	13377	877.6427857489	18
58	13432	883.5	35
58	13465	886.3	27
58	13479	887.506790359548	11
58	13485	887.907960135786	3
58	13496	888.616611506678	6
58	13519	890.524835796917	18
58	13576	897.7	37
58	13590	898.8	10
58	13613	900.707307494441	18
58	13630	902.009790211927	12
58	13650	903.816938874581	17
58	13686	906.820369183769	29
58	13708	908.626635232673	17
58	13738	911.234549957043	25
58	13777	914.538077890302	32
58	13813	919.8	18
58	13827	920.9	10
58	13851	922.905186553024	19
58	13862	923.812316990664	8
58	13880	925.215367416536	13
58	13889	925.917171101266	6
58	13900	926.620849058878	6
58	13939	932.2	22
58	13964	934.4	21
58	13973	935.103757368172	6
58	13989	936.303763047202	11
58	13997	936.9045078003	5
58	14012	938.013640135434	10
58	14044	940.814199051966	27
58	14051	941.317033476791	4
58	14093	946.2	22
58	14120	948.6	23
58	14132	949.60528139207	9
58	14143	950.309854460658	6
58	14153	951.11373459112	7
58	14171	952.514447736277	13
58	14196	954.621826859014	20
58	14228	957.429406293996	27
58	14256	959.831128743653	23
58	14263	960.138782818442	2
58	14274	961.044817579322	8
58	14299	963.145775157507	20
58	14384	968.1	21
58	14405	969	8
58	14455	971.201711317957	21
58	14483	972.304112413732	10
58	14535	974.512030571898	21
58	14559	975.714622775999	11
58	14585	977.922978777257	21
58	14612	980.029328343793	20
58	14643	985.5	15
58	14655	986.4	8
58	14664	987.10807449412	6
58	14673	987.813011148771	6
58	14686	988.722069914318	8
58	14715	991.2256586758	24
58	14744	993.7298854916	24
58	14757	994.636453642793	8
58	14782	996.741425326824	20
58	14808	1000.8	8
58	14820	1001.9	10
58	14844	1003.903580569219	19
58	14857	1004.812212630446	8
58	14873	1006.016504415193	11
58	14885	1007.018046365839	9
58	14889	1007.221940808233	1
58	14917	1009.629051623509	23
58	14948	1012.132511802703	24
58	14973	1014.238180640755	20
58	15002	1016.74386461037	24
58	15037	1021.7	17
58	15062	1023.9	21
58	15078	1025.100645056662	11
58	15107	1027.607131212273	24
58	15127	1029.209160560547	15
58	15143	1030.4158141667	11
58	15185	1034.021813346256	35
58	15200	1035.326661539109	12
58	15218	1036.728724484027	13
58	15229	1037.63115244416	8
58	15246	1038.93278748779	12
58	15256	1039.735839446011	7
58	15278	1041.542793495905	17
58	15324	1046.6	26
58	15341	1048	13
58	15358	1049.500369978428	14
58	15372	1050.504933080214	9
58	15399	1052.811015493587	22
58	15411	1053.820912974173	9
58	15432	1055.52138654155	16
58	15441	1056.029480740675	4
58	15467	1058.239192740842	21
58	15480	1059.341330963821	10
58	15495	1060.450112900003	10
58	15518	1064.7	7
58	15523	1065.1	3
58	15554	1067.802280116551	26
58	15575	1069.507094987064	16
58	15601	1071.714475813541	21
58	15616	1072.824356536961	10
58	15627	1073.731563777665	8
58	15650	1075.641311871178	18
58	15672	1077.448878471417	17
58	15707	1081.9	19
58	15730	1083.9	19
58	15744	1084.904549808287	9
58	15764	1086.418240232622	14
58	15784	1088.024981377318	15
58	15800	1089.433964757064	13
58	15817	1090.737251488954	12
58	15858	1096.1	21
58	15872	1097.4	12
58	15889	1098.702559580944	12
58	15908	1100.204033497959	14
58	15925	1101.711954968982	14
58	15944	1103.219228250498	14
58	15960	1104.420412854833	11
58	16002	1110.5	25
58	16014	1111.6	10
58	16023	1112.101555512747	4
58	16041	1113.705722528273	15
58	16065	1115.711493494478	19
58	16087	1117.514768913411	17
58	16104	1118.817366217623	12
58	16117	1119.921526252146	10
58	16138	1121.629350855779	16
58	16163	1123.731245305405	20
58	16250	1128	20
58	16299	1130.2	21
58	16329	1131.503242104283	12
58	16357	1132.606240302884	10
58	16379	1133.609670437416	9
58	16409	1134.813728225806	11
58	16449	1136.716561508129	18
58	16458	1137.418198158269	6
58	16477	1138.92277634078	14
58	16494	1140.232393205818	12
58	16510	1141.635590611312	13
58	16526	1142.843098111427	11
58	16537	1143.746712206131	8
58	16547	1144.354541388095	5
58	16583	1149.8	18
58	16588	1150	1
58	16603	1151.300121717709	12
58	16610	1151.800315317336	4
58	16618	1152.208543427159	3
58	16645	1154.513324936829	22
58	16675	1159.2	12
58	16686	1160	7
58	16693	1160.505268356797	4
58	16709	1161.91044600197	13
58	16728	1163.41780651867	14
58	16741	1164.323873998525	8
58	16757	1165.73272104962	13
58	16778	1167.433797613624	16
58	16792	1168.439802878084	9
58	16807	1169.740819709004	12
58	16831	1171.75027976485	19
58	16859	1175	10
58	16879	1176.7	16
58	16900	1178.402524833295	16
58	16913	1179.507593381567	10
58	16927	1180.517324680377	9
58	16953	1182.719386640338	21
58	16963	1183.527032967575	7
58	16975	1184.33120087606	7
58	16984	1185.03395378029	6
58	16998	1186.043530833621	9
58	17014	1187.446886419276	13
58	17042	1191	10
58	17061	1192.6	15
58	17081	1194.2041098186	15
58	17108	1196.50426097453	22
58	17129	1198.212972528446	16
58	17153	1200.216098526265	19
58	17181	1202.618443927013	23
58	17186	1202.928170444925	2
58	17196	1203.737499091866	7
58	17215	1205.244403179433	14
58	17239	1207.24693380394	19
58	17263	1209.248592548402	19
58	17285	1211.055583113256	17
58	17308	1214.7	7
58	17315	1215.3	5
58	17334	1216.804378490536	14
58	17350	1218.007700463707	11
58	17366	1219.415958024092	13
58	17382	1220.623134251738	11
58	17390	1221.223631340757	5
58	17408	1222.631972389463	13
58	17449	1226.139346971134	34
58	17466	1227.6417364732	14
58	17501	1231.7	17
58	17511	1232.4	6
58	17534	1234.304532479161	18
58	17555	1236.011561716854	16
58	17565	1236.821140369417	7
58	17578	1237.922775802023	10
58	17594	1239.126675457805	11
58	17620	1241.330427242754	21
58	17646	1243.537577901085	21
58	17677	1247.4	14
58	17690	1248.4	9
58	17727	1251.705404839557	32
58	17740	1252.607064451912	8
58	17763	1254.513672402465	18
58	17788	1256.618161517443	20
58	17798	1257.41827665271	7
58	17814	1258.627455227205	11
58	17838	1262.6	6
58	17861	1264.6	19
58	17883	1266.401767022996	17
58	17905	1268.205308929155	17
58	17919	1269.409694011795	11
58	17941	1271.21289179799	17
58	17948	1271.715151377162	4
58	17964	1272.918424797593	11
58	17992	1275.321129163984	23
58	18009	1276.625972830784	12
58	18044	1281.7	17
58	18064	1283.4	16
58	18089	1285.508609437805	20
58	18107	1286.911291489878	13
58	18119	1287.915582226814	9
58	18136	1289.2235259451	12
58	18159	1291.127186699039	18
58	18167	1291.732396391962	5
58	18191	1293.735470438035	19
58	18205	1294.740142502744	9
58	18215	1295.549756832552	7
58	18230	1296.65942829761	10
58	18244	1297.861425763585	11
58	18265	1300.3	3
58	18286	1302.1	17
58	18298	1303.109151790777	9
58	18323	1305.216468984444	20
58	18344	1306.923216760725	16
58	18351	1307.42322540076	4
58	18366	1308.531002369241	10
58	18394	1313.3	13
58	18408	1314.4	10
58	18419	1315.306518662928	8
58	18440	1317.006906801664	16
58	18457	1318.315792342072	12
58	18481	1320.322498149244	19
58	18499	1321.930228763621	15
58	18537	1326.1	21
58	18551	1327.4	12
58	18577	1329.602359673606	21
58	18600	1331.503175821389	18
58	18615	1332.612011824015	10
58	18640	1334.720135305977	20
58	18659	1336.226976343425	14
58	18686	1341.2	12
58	18701	1342.4	11
58	18714	1343.503866656911	10
58	18729	1344.608418379995	10
58	18738	1345.315989670828	6
58	18755	1346.619819304274	12
58	18770	1347.926426299355	12
58	18810	1352.3	23
58	18819	1353.1	7
58	18857	1356.301326067065	31
58	18871	1357.501329708079	11
58	18899	1359.903719690538	23
58	18921	1361.70833700333	17
58	18935	1362.71007985854	9
58	18952	1364.010330498392	12
58	18963	1364.919630440679	8
58	18995	1369.6	16
58	19021	1371.9	22
58	19051	1374.300048264118	23
58	19073	1376.102924328238	17
58	19089	1377.507983481286	13
58	19105	1378.717926761438	11
58	19122	1380.022904089367	12
58	19137	1381.331757418891	12
58	19182	1385	10
58	19213	1387.8	27
58	19227	1388.805845894827	9
58	19231	1389.010190718573	1
58	19242	1389.920132748569	8
58	19251	1390.420288299075	4
58	19266	1391.723792656352	12
58	19279	1392.624836712246	8
58	19284	1392.930606766144	2
58	19314	1397.4	14
58	19348	1400.3	28
58	19370	1402.100863795992	17
58	19394	1404.1008999486	19
58	19427	1407.003833523605	28
58	19460	1409.907373650577	28
58	19495	1412.814659735795	28
58	19526	1417.6	16
58	19551	1419.8	21
58	19564	1420.709535771072	8
58	19574	1421.51764390742	7
58	19591	1422.822543561759	12
58	19604	1423.926980994141	10
58	19622	1425.335332539372	13
58	19641	1426.840459913126	14
58	19658	1428.149055943369	12
58	19673	1429.457618123107	12
58	19686	1430.364383773354	8
58	19738	1437.2	32
58	19766	1439.7	24
58	19780	1440.708822285335	9
58	19807	1443.012410489371	22
58	19835	1445.413265404993	23
58	19857	1447.21489194013	17
58	19884	1449.520869967316	22
58	19913	1453.4	14
58	19946	1456.2	27
58	19959	1457.306479573657	10
58	19975	1458.509163205555	11
58	20012	1463.9	19
58	20027	1465.1	11
58	20050	1467.006163042278	18
58	20065	1468.109713974303	10
58	20079	1469.313546997195	11
58	20085	1469.721677078849	3
58	20093	1470.125792405111	3
58	20127	1473.132548726025	29
58	20146	1476.1	1
58	20169	1478.1	19
58	20187	1479.700803846509	15
58	20217	1482.108335809262	23
58	20228	1483.017042093776	8
58	20255	1485.325991966808	22
58	20282	1487.627752323772	22
58	20314	1491.7	17
58	20325	1492.5	7
58	20351	1494.705372996325	21
58	20379	1497.11167698291	23
58	20386	1497.615209368845	4
58	20397	1498.316048909279	6
58	20423	1500.525666647667	21
58	20438	1501.829561376196	12
58	20463	1503.929741294727	20
58	20490	1506.033530974752	20
58	20506	1507.438073457489	13
58	20519	1508.344011217868	8
58	20545	1510.544730081192	21
58	20558	1511.652984839965	10
58	20583	1513.759937102225	20
58	20601	1515.161617573358	13
58	20678	1518.8	8
58	20719	1520.6	17
58	20743	1522.606632506637	19
58	20751	1523.210437204327	5
58	20764	1524.111177343708	8
58	20784	1525.915123926878	17
58	20802	1527.315323627944	13
58	20842	1530.720938987765	33
58	20883	1536.1	21
58	20894	1537.1	9
58	20902	1537.704007641866	5
58	20919	1539.013801806107	12
58	20937	1540.414457752654	13
58	20949	1541.424146883923	9
58	20966	1542.725701178398	12
58	20974	1543.330049425961	5
58	20997	1545.233689973197	18
58	21014	1546.440671633682	11
58	21035	1548.146811607575	16
58	21055	1549.948189938538	17
58	21071	1551.152226379894	11
58	21152	1556	20
58	21171	1556.8	7
58	21199	1558.006476915178	11
58	21223	1559.012859996095	9
58	21247	1560.018459888222	9
58	21300	1562.82200632032	27
58	21324	1564.829536570045	19
58	21348	1566.837517337787	19
58	21384	1571.8	18
58	21411	1574	21
58	21428	1575.504806200361	14
58	21445	1576.811806970594	12
58	21470	1578.921154679743	20
58	21494	1580.923216346286	19
58	21518	1582.929870049606	19
58	21543	1585.032635478216	20
58	21580	1588.134418260033	30
58	21607	1592.9	9
58	21621	1594	10
58	21633	1595.002938273621	9
58	21643	1595.805490207581	7
58	21656	1596.706772564386	8
58	21680	1598.708864926127	19
58	21691	1599.610287710527	8
58	21704	1600.514126705544	8
58	21710	1600.91878861926	3
58	21727	1602.226277313299	12
58	21822	1608.5	25
58	21865	1610.4	18
58	21885	1611.40458524673	9
58	21899	1612.413544091025	9
58	21911	1613.416380764384	9
58	21926	1614.517025284367	10
58	21947	1616.222824959585	16
58	21958	1617.129432453338	8
58	21974	1618.339042790424	11
58	21990	1619.742448496994	13
58	22004	1620.745688797417	9
58	22038	1625.6	16
58	22070	1628.3	26
58	22081	1629.202654262883	8
58	22105	1631.206972720734	19
58	22113	1631.814551917136	5
58	22143	1634.223418087415	23
58	22167	1636.224604418757	19
58	22203	1639.425414157684	31
58	22241	1642.63075216096	31
58	22270	1645.137325634678	24
58	22286	1646.342771082605	11
58	22317	1651.3	13
58	22336	1652.9	15
58	22346	1653.708851432478	7
58	22359	1654.611985934776	8
58	22371	1655.62189004558	9
58	22389	1657.029478296959	13
58	22407	1658.431343332291	13
58	22435	1663.3	13
58	22451	1664.6	12
58	22486	1667.703121450629	30
58	22497	1668.406054196447	6
58	22518	1670.114551020796	16
58	22522	1670.319108328403	1
58	22551	1672.827381374149	24
58	22560	1673.532881865377	6
58	22586	1675.733196702037	21
58	22608	1677.537129871401	17
58	22613	1677.842380541146	2
58	22650	1681.9	19
58	22671	1683.7	17
58	22691	1685.303914308107	15
58	22695	1685.510838212146	1
58	22718	1687.411719102636	18
58	22732	1688.411776232614	9
58	22746	1689.614665829575	11
58	22767	1691.322739688091	16
58	22817	1696.4	24
58	22831	1697.7	12
58	22849	1699.100874575399	13
58	22865	1700.310125308396	11
58	22881	1701.716028710047	13
58	22901	1703.32575859121	15
58	22919	1704.730396031324	13
58	22932	1705.838200403439	10
58	22943	1706.542670350739	6
58	22952	1707.24477555912	6
58	22971	1708.754244510203	14
58	22982	1709.664107035247	8
58	23016	1713.6	16
58	23033	1715	13
58	23050	1716.305023430867	12
58	23066	1717.714891800246	13
58	23079	1718.623500189489	8
58	23085	1719.032880276624	3
58	23111	1721.237251228108	21
58	23129	1722.63953070705	13
58	23138	1723.344931545163	6
58	23157	1724.84696242729	14
58	23166	1725.552182344822	6
58	23195	1729.2	12
58	23208	1730.4	11
58	23220	1731.408296031323	9
58	23229	1732.117077402448	6
58	23245	1733.524757575337	13
58	23254	1734.227857093471	6
58	23287	1737.333802333744	30
