file 25206 1369060433                                           
version 2
run Join-78-20130520-16:33:47-32715
attr configname Join
attr datetime 20130520-16:33:47
attr experiment "\"Join\""
attr inifile omnetpp.ini
attr iterationvars $0=4096
attr iterationvars2 "$0=4096, $repetition=8"
attr measurement $0=4096
attr network Network
attr processid 32715
attr repetition 8
attr replication #8
attr resultdir results
attr runnumber 78
attr seedset 78
vector 78  Network.dyn_peer[0]  lookupHopsSig:vector  ETV
78	444 24762 11430 46776 21.914523672667 3022.331217652898 916 0 112 26090 1000478
