file 25647 1369060459                                           
version 2
run Join-80-20130520-16:33:59-32715
attr configname Join
attr datetime 20130520-16:33:59
attr experiment "\"Join\""
attr inifile omnetpp.ini
attr iterationvars $0=8192
attr iterationvars2 "$0=8192, $repetition=0"
attr measurement $0=8192
attr network Network
attr processid 32715
attr repetition 0
attr replication #0
attr resultdir results
attr runnumber 80
attr seedset 80
vector 80  Network.dyn_peer[0]  lookupHopsSig:vector  ETV
80	444 25203 22268 74491 24.216948247199 4085.32755253052 926 2 168 36857 1959829
