version 2
run Join-59-20130520-16:32:36-32715
attr configname Join
attr datetime 20130520-16:32:36
attr experiment "\"Join\""
attr inifile omnetpp.ini
attr iterationvars $0=1024
attr iterationvars2 "$0=1024, $repetition=9"
attr measurement $0=1024
attr network Network
attr processid 32715
attr repetition 9
attr replication #9
attr resultdir results
attr runnumber 59
attr seedset 59

vector 59  Network.dyn_peer[0]  lookupHopsSig:vector  ETV
59	3086	21.235044277721	26
59	3109	23.138799867195	18
59	3116	23.643754914331	4
59	3141	25.748824493556	20
59	3151	26.349528563589	5
59	3172	28.050913752841	16
59	3215	34.3	23
59	3238	36.3	19
59	3274	39.506643022138	31
59	3302	41.907289224986	23
59	3327	44.7	7
59	3338	45.601058205121	8
59	3343	45.903736242104	2
59	3357	46.913252418678	9
59	3382	49.021759395053	20
59	3396	50.022750670011	9
59	3403	50.524219624146	4
59	3450	54.630774302279	40
59	3475	58.7	7
59	3498	60.7	19
59	3544	64.700253378637	39
59	3553	65.408107358869	6
59	3563	66.014029203951	5
59	3576	67.121045157196	10
59	3583	67.624605533514	4
59	3591	68.034541665418	3
59	3609	69.635549216854	15
59	3655	74.8	28
59	3667	75.9	10
59	3700	78.607693127102	26
59	3719	80.110179405011	14
59	3736	81.615190234488	14
59	3741	81.915965172672	2
59	3774	84.623571237221	26
59	3794	86.232915895346	15
59	3801	86.737046080671	4
59	3815	87.946837353642	11
59	3842	90.053749876579	20
59	3890	94.8	8
59	3911	96.6	17
59	3938	98.90710317586	22
59	3965	101.20865021455	22
59	3993	103.610945963823	23
59	4007	104.620843316878	9
59	4030	106.525080902446	18
59	4057	110.9	9
59	4090	113.9	29
59	4111	115.602681942023	16
59	4127	116.809750553771	11
59	4145	118.210689946013	13
59	4169	120.214664181718	19
59	4185	121.615084605354	13
59	4212	123.917062609337	22
59	4229	125.217741662405	12
59	4241	126.018193425402	7
59	4251	126.823140709782	7
59	4264	127.92582008443	10
59	4309	132.6	26
59	4335	134.9	22
59	4346	135.808308615093	8
59	4361	136.913708751278	10
59	4413	141.521590285528	45
59	4464	145.9	19
59	4477	146.9	9
59	4500	148.800052552695	18
59	4504	149.005157810418	1
59	4525	150.70610070857	16
59	4533	151.313707116991	5
59	4554	153.020512213806	16
59	4600	157.025802017118	39
59	4649	162.9	29
59	4675	165.2	22
59	4690	166.301814927142	10
59	4698	166.907552080859	5
59	4717	168.41172124606	14
59	4722	168.720535121798	2
59	4733	169.626083574186	8
59	4749	170.834840568993	11
59	4765	172.038122094142	11
59	4778	173.140631326293	10
59	4794	174.344956433074	11
59	4815	176.045844443151	16
59	4849	181.6	16
59	4861	182.5	8
59	4875	183.706445963222	11
59	4891	184.9158229718	11
59	4907	186.121219010624	11
59	4921	187.325727316731	11
59	4929	187.93373262584	5
59	4954	191	10
59	4968	192.1	10
59	4987	193.805052250972	16
59	5006	195.312802773317	14
59	5040	198.119163543054	27
59	5050	198.924470057183	7
59	5061	199.829817465593	8
59	5074	200.735414293341	8
59	5105	203.44158912549	26
59	5117	204.243556290566	7
59	5147	209.2	12
59	5165	210.7	14
59	5179	211.901705589389	11
59	5191	212.704236993728	7
59	5200	213.41197588126	6
59	5213	214.319483905465	8
59	5237	216.328925641535	19
59	5244	216.830521763863	4
59	5274	219.438803667376	25
59	5289	220.547005296068	10
59	5316	225	10
59	5325	225.8	7
59	5340	226.902302066765	10
59	5352	227.909983579341	9
59	5362	228.510260551904	5
59	5378	229.916093907083	13
59	5391	230.820712668885	8
59	5421	235.5	15
59	5432	236.3	7
59	5442	237.100266294162	7
59	5448	237.501720185854	3
59	5468	239.108997820768	15
59	5495	242.9	9
59	5509	244	10
59	5522	245.106441813542	10
59	5536	246.111762979701	9
59	5551	247.42151832079	12
59	5570	248.923238132029	14
59	5581	249.826314941024	8
59	5593	250.628355394362	7
59	5625	253.43712310858	27
59	5635	254.045444038425	5
59	5643	254.654261282671	5
59	5668	256.758771960966	20
59	5696	261	10
59	5709	262	9
59	5722	263.103447727959	10
59	5736	264.103615052783	9
59	5747	265.013100076044	8
59	5777	267.622330022655	25
59	5790	268.532169849798	8
59	5822	273.7	17
59	5850	276	22
59	5859	276.700403721032	6
59	5883	278.707489018153	19
59	5891	279.314654544923	5
59	5933	284.2	22
59	5939	284.7	4
59	5973	287.7062758773	29
59	5993	289.309001112053	15
59	6016	291.213121593358	18
59	6064	296.8	28
59	6087	298.8	19
59	6112	300.906889551307	20
59	6117	301.209797882639	2
59	6150	305.5	15
59	6163	306.5	9
59	6187	308.503063522542	19
59	6198	309.408064657314	8
59	6210	310.209395763773	7
59	6226	311.611691126196	13
59	6236	312.212528698883	5
59	6243	312.714978112183	4
59	6262	314.224624593728	14
59	6269	314.732261945479	4
59	6279	315.540439622413	7
59	6310	318.042392925132	24
59	6363	322.7	7
59	6384	323.7	9
59	6398	324.203388878805	4
59	6404	324.611249615898	3
59	6413	325.312243550222	6
59	6419	325.719973271959	3
59	6428	326.223948552922	4
59	6471	332.6	26
59	6484	333.8	11
59	6506	335.607375087847	17
59	6519	336.511075769608	8
59	6532	337.611247083741	10
59	6559	339.919524137902	22
59	6642	343.8	18
59	6654	344.7	8
59	6679	346.808873695458	20
59	6691	347.813086925928	9
59	6712	349.516533428336	16
59	6733	351.224004449901	16
59	6761	353.631237362728	23
59	6796	356.535978307065	28
59	6822	358.743220230128	21
59	6848	362.8	8
59	6855	363.4	5
59	6874	364.904518154824	14
59	6886	365.908202574161	9
59	6902	367.115466097261	11
59	6942	370.522769525217	33
59	6974	375.4	14
59	6989	376.6	11
59	7017	379.005361023799	23
59	7032	380.108281192341	10
59	7045	381.217840062609	10
59	7052	381.721185423565	4
59	7071	383.222335757129	14
59	7098	385.523317455807	22
59	7112	386.523681558681	9
59	7126	387.730751759277	11
59	7141	388.840578866652	10
59	7190	393.147387877511	42
59	7214	395.152193201239	19
59	7260	400.7	27
59	7273	401.9	11
59	7289	403.101893765763	11
59	7299	403.909595510421	7
59	7313	404.919248822298	9
59	7341	407.324888272973	23
59	7359	408.730123740754	13
59	7387	413	10
59	7396	413.8	7
59	7410	414.80143113597	9
59	7448	418.006472123606	31
59	7458	418.806996806299	7
59	7469	419.710566220455	8
59	7490	421.411845034939	16
59	7506	422.614113434663	11
59	7519	423.721662451972	10
59	7540	425.430192905464	16
59	7556	426.638017390279	11
59	7575	428.139085238687	14
59	7603	433	10
59	7611	433.7	6
59	7628	435.001199315036	12
59	7644	436.210582898742	11
59	7678	439.218481362043	29
59	7690	440.024057146059	7
59	7699	440.727926782252	6
59	7729	445.2	12
59	7735	445.7	4
59	7766	448.204119445313	24
59	7776	449.005046034144	7
59	7792	450.207265924812	11
59	7807	451.5138951285	12
59	7831	453.520054964353	19
59	7850	455.021001658811	14
59	7866	456.222109415315	11
59	7891	458.326618762794	20
59	7919	463	10
59	7937	464.5	14
59	7960	466.4016577594	18
59	7966	466.804835033171	3
59	7974	467.406345058769	5
59	7986	468.210623762	7
59	8010	470.216845755574	19
59	8018	470.825671388389	5
59	8024	471.231003505595	3
59	8039	472.338715009205	10
59	8045	472.743535436254	3
59	8068	474.649600701406	18
59	8083	475.950876015738	12
59	8126	480.4	24
59	8136	481.3	8
59	8150	482.3051519169	9
59	8161	483.210602520827	8
59	8169	483.816382045542	5
59	8201	486.420200899309	25
59	8215	487.626508825142	11
59	8235	489.232011464717	15
59	8255	490.836650664589	15
59	8271	492.040970664279	11
59	8281	492.842999582421	7
59	8288	493.347460827156	4
59	8309	495.049821359209	16
59	8329	496.652992094996	15
59	8356	501	10
59	8366	501.9	8
59	8382	503.104655880669	11
59	8412	505.707119511418	25
59	8430	507.110272492159	13
59	8454	509.116826064426	19
59	8501	512.3	3
59	8576	515.8	34
59	8606	517.006857228588	11
59	8630	517.91316907785	8
59	8662	519.218471692557	12
59	8694	520.526302600604	12
59	8777	526.2	22
59	8786	527	7
59	8808	528.808005146544	17
59	8824	530.013380099347	11
59	8835	530.914937488556	8
59	8842	531.41705581011	4
59	8857	532.522553770469	10
59	8880	536.8	8
59	8903	538.8	19
59	8916	539.902175502723	10
59	8957	543.405903738771	34
59	8963	543.80759785231	3
59	8980	545.115351500914	12
59	9005	547.223939868165	20
59	9023	548.62503964785	13
59	9049	550.831425785771	21
59	9060	551.735989812106	8
59	9073	552.641415777053	8
59	9144	557.5	15
59	9175	558.9	13
59	9196	560.205520142533	12
59	9208	561.21490650285	9
59	9220	562.020420573628	7
59	9237	563.524380626063	14
59	9255	564.929342233214	13
59	9281	569.1	11
59	9288	569.7	5
59	9296	570.100118669348	3
59	9315	571.805932224229	16
59	9327	572.615197266954	7
59	9332	572.921023114841	2
59	9350	574.323616159174	13
59	9361	575.232821014064	8
59	9368	575.738381204844	4
59	9429	581.046403966321	52
59	9436	581.548553541377	4
59	9440	581.751636635751	1
59	9448	582.160715915853	3
59	9455	582.667852084395	4
59	9466	583.573742655779	8
59	9495	587.1	11
59	9512	588.5	13
59	9532	590.108224075506	15
59	9540	590.714682231458	5
59	9672	598.2	42
59	9686	599.5	12
59	9711	601.604662640599	20
59	9726	602.712300253607	10
59	9748	604.517651346047	17
59	9768	606.12052155281	15
59	9792	608.123638502117	19
59	9816	610.131580267611	19
59	9832	611.538334081386	13
59	9867	615.9	19
59	9876	616.5	5
59	9887	617.406515505663	8
59	9899	618.207808554987	7
59	9909	619.015313380439	7
59	9927	620.417654814463	13
59	9936	621.124501335705	6
59	9974	626.1	21
59	9993	627.9	17
59	10011	629.302063335275	13
59	10034	631.206693644141	18
59	10062	633.609790672298	23
59	10080	635.014023870268	13
59	10099	636.518243911178	14
59	10109	637.325788294521	7
59	10166	642	20
59	10184	643.7	16
59	10205	645.40756985516	16
59	10224	646.907583897076	14
59	10247	648.810562772673	18
59	10272	650.915614090316	20
59	10297	653.02138793316	20
59	10318	654.723879984128	16
59	10336	656.129402623662	13
59	10352	657.533004430249	13
59	10383	661.4	14
59	10392	662	5
59	10403	662.908682251095	8
59	10427	664.912132637106	19
59	10435	665.513700271715	5
59	10444	666.021464430771	4
59	10452	666.628730896333	5
59	10470	668.03185576174	13
59	10495	670.132167742255	20
59	10564	675.4	14
59	10623	678	25
59	10653	679.408556388891	13
59	10672	680.914445924407	14
59	10682	681.721460193933	7
59	10694	682.529398127912	7
59	10707	683.635696439977	10
59	10725	685.040787609849	13
59	10749	688.6	6
59	10757	689.3	6
59	10776	690.805316341994	14
59	10794	692.214639248237	13
59	10817	694.121983149106	18
59	10844	696.428210247937	22
59	10853	697.130836439906	6
59	10890	702	20
59	10907	703.6	15
59	10925	705.008236139104	13
59	10952	707.314279687694	22
59	10982	709.915852183777	25
59	11000	711.321188297537	13
59	11026	713.52150478312	21
59	11063	716.623618532227	30
59	11090	718.929491868539	22
59	11112	720.734944689051	17
59	11141	723.236981562192	24
59	11180	726.541130715878	32
59	11241	731.9	19
59	11257	733.2	12
59	11275	734.601320312286	13
59	11293	736.010329263352	13
59	11303	736.816789756307	7
59	11331	739.22288071249	23
59	11349	740.624961403946	13
59	11377	743.033548376658	23
59	11406	745.537284009126	24
59	11417	746.244969582576	6
59	11433	747.648912831579	13
59	11460	751.1	11
59	11472	752	8
59	11488	753.40152760799	13
59	11498	754.002702075384	5
59	11508	754.803026153514	7
59	11525	756.110847881069	12
59	11548	758.018637073075	18
59	11593	764.5	25
59	11597	764.8	2
59	11602	765.106054622433	2
59	11617	766.206362805589	10
59	11640	768.110652867743	18
59	11650	768.913496552874	7
59	11656	769.320844650965	3
59	11661	769.628800723024	2
59	11678	770.938416013831	12
59	11703	773.041358047434	20
59	11708	773.346580906849	2
59	11726	776.2	2
59	11747	778	17
59	11760	779.106843381333	10
59	11769	779.809380241695	6
59	11783	780.810011414796	9
59	11795	781.816925704811	9
59	11809	782.817100049069	9
59	11849	788.3	23
59	11906	793.5	51
59	11941	796.406878082447	28
59	11957	797.807778360219	13
59	11966	798.312452235488	4
59	11972	798.722195431695	3
59	11983	799.625059116303	8
59	12060	803.8	18
59	12079	804.6	7
59	12095	805.303436695886	6
59	12141	807.305646881972	19
59	12171	808.509871114686	11
59	12237	811.413762441848	28
59	12277	813.916592891437	24
59	12295	815.323508228465	13
59	12335	820	20
59	12342	820.6	5
59	12361	822.105850763693	14
59	12392	824.811952053235	26
59	12413	826.515242088209	16
59	12422	827.216835130241	6
59	12452	829.818131103024	25
59	12486	833.6	16
59	12504	835.1	14
59	12518	836.100988085756	9
59	12536	837.7096404788	15
59	12559	839.618625428572	18
59	12583	842.6	6
59	12593	843.5	8
59	12611	844.907938162703	13
59	12632	846.611365303045	16
59	12653	848.319697973825	16
59	12660	848.829537891344	4
59	12671	849.733142329374	8
59	12692	851.437354535428	16
59	12696	851.644410586261	1
59	12710	852.646209257183	9
59	12718	853.248413593425	5
59	12737	854.754034457749	14
59	12744	855.254767042533	4
59	12752	855.856953279678	5
59	12770	857.266404807199	13
59	12800	861.3	13
59	12819	862.9	15
59	12850	865.604781260008	26
59	12874	867.613231726435	19
59	12898	869.621576770012	19
59	12917	871.126220634245	14
59	12945	873.528526904639	23
59	12977	876.137110262222	25
59	12997	877.946573906524	17
59	13031	880.751897403243	27
59	13050	882.253148516718	14
59	13061	883.154718186472	8
59	13091	885.76150627259	25
59	13113	887.567056413742	17
59	13176	892.4	24
59	13186	893.3	8
59	13202	894.504597963017	11
59	13230	896.906031548372	23
59	13242	897.908067043251	9
59	13261	899.413261935663	14
59	13287	901.62300766087	21
59	13314	903.928546599271	22
59	13329	905.028616516853	10
59	13346	906.333598922814	12
59	13372	910.8	8
59	13381	911.6	7
59	13396	912.70239419949	10
59	13405	913.406536578026	6
59	13412	913.915239353547	4
59	13427	915.024174429556	10
59	13465	918.228455953503	31
59	13492	922.9	9
59	13520	925.4	24
59	13543	927.300396042487	18
59	13554	928.000574520116	6
59	13564	928.805610361078	7
59	13573	929.515154038557	6
59	13595	931.323458391505	17
59	13607	932.124427684212	7
59	13618	933.026839683711	8
59	13636	934.436082880276	13
59	13646	935.237132626068	7
59	13659	936.137453512658	8
59	13690	941.3	13
59	13697	941.9	5
59	13713	943.10907143892	11
59	13727	944.113295161823	9
59	13739	945.117531816387	9
59	13759	946.720710366547	15
59	13776	948.030623348054	12
59	13794	952.3	3
59	13805	953.3	9
59	13818	954.20611746089	8
59	13833	955.509486515777	12
59	13846	956.414168205132	8
59	13856	957.215181671705	7
59	13876	958.822244796664	15
59	13907	961.527397991523	26
59	13953	964.4	4
59	13961	964.8	3
59	13969	965.407715419654	5
59	13986	966.710165928683	12
59	13994	967.313272985773	5
59	14011	968.616982972893	12
59	14026	969.923904865941	12
59	14048	971.725983287271	17
59	14055	972.032021329785	2
59	14062	972.541180197736	4
59	14078	973.942240577544	13
59	14113	976.851316484521	28
59	14118	977.157500735817	2
59	14188	984.8	48
59	14218	987.5	26
59	14244	989.701464432156	21
59	14252	990.105398375959	3
59	14269	991.612272539796	14
59	14294	994.7	7
59	14316	996.6	18
59	14323	997.105760710039	4
59	14337	998.110495889263	9
59	14360	1000.012790619131	18
59	14387	1004.9	9
59	14407	1006.6	16
59	14430	1008.508724141935	18
59	14434	1008.714868336656	1
59	14467	1011.622412311514	28
59	14488	1013.331485932413	16
59	14502	1014.333619058699	9
59	14524	1018.7	7
59	14528	1019	2
59	14545	1020.300536520786	12
59	14558	1021.403988971663	10
59	14580	1023.208575806137	17
59	14596	1024.418561039831	11
59	14607	1025.318921280902	8
59	14614	1025.828161744671	4
59	14627	1026.735497167485	8
59	14649	1028.541290736405	17
59	14700	1035.2	32
59	14707	1035.8	5
59	14749	1039.401578064614	35
59	14768	1040.910541742599	14
59	14802	1043.917828832917	29
59	14829	1046.024153661142	20
59	14841	1047.031231719896	9
59	14866	1050.7	7
59	14872	1051.2	4
59	14879	1051.705284916535	4
59	14893	1052.713279091708	9
59	14906	1053.817289441692	10
59	14916	1054.420269739761	5
59	14922	1054.82028988308	3
59	14941	1056.328565268988	14
59	14946	1056.630542322763	2
59	14969	1060.5	5
59	15005	1063.8	32
59	15019	1064.806264949536	9
59	15051	1067.60725267792	27
59	15081	1071.2	12
59	15095	1072.3	10
59	15103	1072.903893886457	5
59	15120	1074.204623827628	12
59	15132	1075.213781562038	9
59	15141	1075.921764862318	6
59	15156	1077.027544506801	10
59	15165	1077.732873190006	6
59	15176	1078.441841133439	6
59	15184	1079.044896532976	5
59	15205	1080.748635611588	16
59	15230	1082.848774403613	20
59	15242	1083.856279910521	9
59	15263	1086.3	3
59	15287	1088.4	20
59	15295	1089.002134182867	5
59	15304	1089.704611679526	6
59	15318	1090.705280282312	9
59	15335	1092.007195573016	12
59	15348	1093.107736161963	10
59	15368	1094.716345821699	15
59	15391	1096.623158366368	18
59	15401	1097.423855534365	7
59	15428	1099.72650461539	22
59	15436	1100.127736924945	3
59	15448	1101.128711701331	9
59	15484	1105.8	18
59	15507	1107.8	19
59	15526	1109.305197275357	14
59	15547	1111.010384820284	16
59	15563	1112.212358193885	11
59	15580	1113.717595213896	14
59	15614	1116.526754015225	27
59	15633	1118.029299163107	14
59	15660	1123.1	11
59	15675	1124.3	11
59	15683	1124.903043716493	5
59	15702	1126.403647492703	14
59	15714	1127.413419054383	9
59	15725	1128.117951460494	6
59	15739	1129.318970497708	11
59	15747	1129.927559422828	5
59	15755	1130.334407470538	3
59	15789	1135.6	16
59	15804	1136.8	11
59	15820	1138.009777483886	11
59	15838	1139.610313019262	15
59	15853	1140.714035583237	10
59	15866	1141.821067638018	10
59	15877	1142.524750281349	6
59	15901	1144.533435587224	19
59	15923	1146.336521882682	17
59	15935	1147.345027190227	9
59	15957	1150.6	6
59	15974	1152	13
59	15987	1153.101840973312	10
59	16010	1155.009451823234	18
59	16032	1156.814635624635	17
59	16057	1158.916011351599	20
59	16067	1159.724397043244	7
59	16107	1163.130695383039	33
59	16182	1167.7	17
59	16247	1170.6	28
59	16263	1171.504949266065	8
59	16284	1173.209689732004	16
59	16311	1175.514935278912	22
59	16331	1177.120493030313	15
59	16368	1181.9	19
59	16404	1185	30
59	16424	1186.605718609828	15
59	16436	1187.615174621094	9
59	16447	1188.323234372548	6
59	16489	1194.2	22
59	16511	1196.1	18
59	16530	1197.807810282113	16
59	16550	1199.41731646625	15
59	16574	1201.425892993383	19
59	16598	1203.428377891871	19
59	16617	1204.93503537038	14
59	16642	1209	10
59	16670	1211.5	24
59	16683	1212.407980747015	8
59	16698	1213.712409093328	12
59	16709	1214.419115150493	6
59	16737	1216.8223416745	23
59	16747	1217.627633912464	7
59	16764	1220.2	2
59	16797	1223.2	29
59	16813	1224.404364694992	11
59	16836	1226.305641466194	18
59	16847	1227.206887545665	8
59	16870	1229.10998585894	18
59	16883	1230.010855086329	8
59	16891	1230.615633254125	5
59	16897	1231.017114893504	3
59	16921	1233.023887030895	19
59	16948	1236.9	9
59	16963	1238.1	11
59	16981	1239.708981968667	15
59	17001	1241.311361200548	15
59	17019	1242.716165332858	13
59	17028	1243.422638791602	6
59	17041	1244.331092549984	8
59	17052	1245.240583499521	8
59	17067	1246.344723364561	10
59	17084	1247.850099173362	14
59	17109	1250.7	7
59	17133	1252.8	20
59	17150	1254.103229548719	12
59	17165	1255.407255147348	12
59	17192	1257.713171484683	22
59	17205	1258.615259026559	8
59	17234	1261.123596275299	24
59	17254	1262.729514880153	15
59	17294	1266.137520491402	33
59	17317	1268.04639167177	18
59	17331	1269.253627602522	11
59	17353	1272.6	6
59	17383	1275.3	26
59	17396	1276.207431670618	8
59	17409	1277.315570424927	10
59	17424	1278.417277610648	10
59	17464	1284	20
59	17476	1285.1	10
59	17490	1286.108509091252	9
59	17499	1286.809475856787	6
59	17523	1288.813125805617	19
59	17541	1290.220808897209	13
59	17554	1291.330555467602	10
59	17574	1292.937166361523	15
59	17591	1294.239151052882	12
59	17609	1295.847260195294	15
59	17639	1298.254948153323	23
59	17652	1299.360970782055	10
59	17663	1300.067365393251	6
59	17693	1302.66931160061	25
59	17727	1307.6	16
59	17738	1308.4	7
59	17750	1309.402377977219	9
59	17769	1310.903269794275	14
59	17787	1312.303980734605	13
59	17805	1313.909234383314	15
59	17825	1315.518311152598	15
59	17850	1317.618789929687	20
59	17870	1319.222686529757	15
59	17889	1320.726292551836	14
59	17939	1327.1	31
59	17965	1329.4	22
59	17980	1330.507591539947	10
59	17993	1331.610238101801	10
59	18009	1332.819947775003	11
59	18028	1334.32372612692	14
59	18042	1335.532911609714	11
59	18081	1340.2	22
59	18096	1341.6	13
59	18110	1342.603810236544	9
59	18137	1344.911470279483	22
59	18169	1347.713326489162	27
59	18180	1348.413800454936	6
59	18203	1350.322071498425	18
59	18215	1351.32254362865	9
59	18241	1353.527754175626	21
59	18259	1354.935823565544	13
59	18278	1356.440824378034	14
59	18294	1357.843598168621	13
59	18319	1360.8	8
59	18329	1361.7	8
59	18342	1362.601728022552	8
59	18355	1363.710868799117	10
59	18367	1364.519218946193	7
59	18375	1365.120591260325	5
59	18399	1367.123377600917	19
59	18407	1367.728084082053	5
59	18417	1368.328708911595	5
59	18430	1369.434183934643	10
59	18437	1369.943669744164	4
59	18466	1372.253236866087	22
59	18495	1374.76198015238	24
59	18506	1375.668555375675	8
59	18511	1375.977278272916	2
59	18525	1376.978094162155	9
59	18551	1380.8	8
59	18559	1381.5	6
59	18573	1382.504868999796	9
59	18585	1383.506716136538	9
59	18598	1384.413303060109	8
59	18606	1385.016233998463	5
59	18631	1387.120630398751	20
59	18646	1388.227300999311	10
59	18663	1389.734645403371	14
59	18693	1393.2	12
59	18710	1394.6	13
59	18725	1395.90584297802	12
59	18747	1397.712993302007	17
59	18762	1398.813295482619	10
59	18780	1400.220012531071	13
59	18789	1400.929735145366	6
59	18829	1406.3	23
59	18845	1407.8	14
59	18866	1409.500097807792	16
59	18887	1411.209071338995	16
59	18902	1412.316165682811	10
59	18914	1413.322271401432	9
59	18950	1416.331577242926	29
59	18979	1421.1	11
59	19000	1422.9	17
59	19011	1423.800100830178	8
59	19027	1425.006747158786	11
59	19049	1426.811366353045	17
59	19068	1428.311700698654	14
59	19085	1429.821020863374	14
59	19114	1433.4	14
59	19152	1436.7	32
59	19172	1438.304604281941	15
59	19211	1441.805468590477	34
59	19226	1442.908547235965	10
59	19241	1444.009308797992	10
59	19255	1445.214943146053	11
59	19277	1447.015753546908	17
59	19338	1454.1	41
59	19364	1456.4	22
59	19369	1456.709831346939	2
59	19390	1458.409967694298	16
59	19401	1459.313701599148	8
59	19415	1460.319026087935	9
59	19424	1461.021334387122	6
59	19455	1463.726469131379	26
59	19472	1465.031211395178	12
59	19489	1466.33834646326	12
59	19503	1467.539615001752	11
59	19520	1468.841763453179	12
59	19537	1470.1468636921	12
59	19577	1476	20
59	19594	1477.6	15
59	19614	1479.208976221806	15
59	19618	1479.416624812408	1
59	19649	1483.3	13
59	19666	1484.7	13
59	19685	1486.209603277298	14
59	19724	1489.716218712283	34
59	19743	1491.224611398859	14
59	19764	1492.929296048914	16
59	19773	1493.630320857054	6
59	19786	1494.53621721173	8
59	19820	1499.6	16
59	19835	1500.8	11
59	19851	1502.005883296902	11
59	19862	1502.910187218318	8
59	19878	1504.11480401801	11
59	19884	1504.523322907118	3
59	19893	1505.230101412483	6
59	19915	1508.7	7
59	19933	1510.2	14
59	19969	1513.40344150111	31
59	19986	1514.712688840596	12
59	20006	1516.316579802782	15
59	20037	1519.018913202575	26
59	20066	1521.520368376861	24
59	20093	1523.82142252187	22
59	20115	1525.629755067746	17
59	20144	1529.2	12
59	20162	1530.9	16
59	20180	1532.502413246689	15
59	20201	1534.404103928819	18
59	20225	1536.607337011255	21
59	20239	1537.807779331673	11
59	20253	1539.014035077502	11
59	20272	1540.714089674928	16
59	20281	1541.414722657307	6
59	20293	1542.421610971133	9
