version 2
run Join-71-20130520-16:33:06-32715
attr configname Join
attr datetime 20130520-16:33:06
attr experiment "\"Join\""
attr inifile omnetpp.ini
attr iterationvars $0=4096
attr iterationvars2 "$0=4096, $repetition=1"
attr measurement $0=4096
attr network Network
attr processid 32715
attr repetition 1
attr replication #1
attr resultdir results
attr runnumber 71
attr seedset 71

vector 71  Network.dyn_peer[0]  lookupHopsSig:vector  ETV
71	11396	20.422830224279	46
71	11445	24.731194074491	42
71	11488	30.3	23
71	11527	33.9	35
71	11569	37.501888752661	35
71	11575	37.911570183874	3
71	11631	42.71497416366	47
71	11661	47.2	12
71	11694	50	27
71	11725	52.700982757988	26
71	11757	55.506556973089	27
71	11791	58.307323600679	27
71	11825	61.307904930306	29
71	11858	64.008423970816	26
71	11881	68.8	8
71	11898	70.2	13
71	11938	73.808454529	35
71	11975	76.909078975775	30
71	11981	77.312010101001	3
71	11989	77.91333322959	5
71	12047	82.914116183467	49
71	12053	83.321488376214	3
71	12105	87.929578795911	45
71	12125	89.529756092399	15
71	12207	95.3	33
71	12235	97.8	24
71	12267	100.408847189149	25
71	12277	101.213972215525	7
71	12308	103.92374149421	26
71	12346	107.124745802471	31
71	12386	110.532891109454	33
71	12405	112.038816406723	14
71	12423	113.643577236885	15
71	12476	118.149776117087	44
71	12513	121.44983292127	32
71	12545	125.4	14
71	12584	128.8	33
71	12603	130.305641113095	14
71	12654	134.81449559155	44
71	12670	136.019775066786	11
71	12689	137.726606609039	16
71	12720	140.229542506933	24
71	12753	143.13166331737	28
71	12776	145.041283639808	18
71	12809	149.5	15
71	12869	154.8	52
71	12885	156.007742274918	11
71	12905	157.808008040753	17
71	12925	159.413125300255	15
71	12949	161.413261674369	19
71	12990	164.919303457828	34
71	13033	170.6	26
71	13058	172.8	21
71	13065	173.303731603701	4
71	13090	175.409953269645	20
71	13106	176.612509379369	11
71	13118	177.618789982123	9
71	13170	182.021303862745	43
71	13198	184.422470164587	23
71	13219	186.129342854655	16
71	13248	188.633936135225	24
71	13257	189.339116730523	6
71	13286	191.844051811113	24
71	13315	194.153263069728	22
71	13362	200.8	28
71	13413	205.4	45
71	13472	210.502136717613	50
71	13510	213.90760958865	33
71	13638	218.2	22
71	13715	220.6	23
71	13825	225.600898431588	49
71	13849	226.608249086639	9
71	13873	227.611919392716	9
71	13923	229.919302631079	22
71	13983	233.321896394517	33
71	14033	237.728444290457	43
71	14064	240.230567019342	24
71	14079	241.531139668743	12
71	14095	242.733200476181	11
71	14184	252.6	66
71	14191	253.2	5
71	14215	255.206981347806	19
71	14228	256.111167637658	8
71	14236	256.713164122913	5
71	14258	258.515786030674	17
71	14281	260.424062576691	18
71	14296	261.724649341773	12
71	14318	263.525683961504	17
71	14342	265.532273296316	19
71	14368	267.740289566207	21
71	14390	269.54253465353	17
71	14406	270.751228499416	11
71	14481	275.8	18
71	14520	277.6	17
71	14562	279.40867361901	17
71	14610	281.512715767239	20
71	14637	282.618726012305	10
71	14722	286.428239953381	37
71	14786	290.136370828063	36
71	14815	292.64169240893	24
71	14838	294.549491742857	18
71	14882	300.4	24
71	14914	303.3	28
71	14959	307.208740815836	38
71	14986	309.512192480109	22
71	15023	312.613917766934	30
71	15053	315.219813903014	25
71	15076	317.123425720392	18
71	15153	325.8	58
71	15170	327.2	13
71	15196	329.407846041445	21
71	15228	332.013045234037	25
71	15257	334.521493158726	24
71	15309	339.125398484225	45
71	15326	340.429280685634	12
71	15343	341.930440716576	14
71	15394	346.238247815172	42
71	15426	349.039247415435	27
71	15451	351.143177825705	20
71	15470	352.645407165287	14
71	15512	356.2547178976	35
71	15552	362	20
71	15598	366.1	40
71	15616	367.706273153079	15
71	15634	369.114588130888	13
71	15661	371.420192451997	22
71	15686	373.521037113387	20
71	15720	376.326199530742	27
71	15745	381	10
71	15811	386.9	58
71	15839	389.304783330408	23
71	15860	391.007657218167	16
71	15899	394.317065859373	32
71	15911	395.317225339127	9
71	15953	398.922967230755	35
71	15977	400.923206335164	19
71	16186	412.1	81
71	16245	414.7	25
71	16315	417.808981077976	30
71	16382	422.012408286656	41
71	16411	424.513887389632	24
71	16441	427.121665928341	25
71	16479	430.323185900513	31
71	16534	437.8	38
71	16550	439.1	12
71	16558	439.708856939345	5
71	16579	441.417419515941	16
71	16615	444.422817564343	29
71	16658	448.13252328826	36
71	16682	450.13809975725	19
71	16736	454.940404061087	47
71	16762	457.150347114536	21
71	16775	458.056697801232	8
71	16789	459.259827447611	11
71	16802	460.168202926968	8
71	16827	462.268325080713	20
71	16853	464.468345892571	21
71	16895	470.3	23
71	16907	471.4	10
71	16957	475.801560492389	43
71	17008	480.106961906253	42
71	17044	483.313023929671	31
71	17057	484.213511528522	8
71	17102	488.11418387569	38
71	17142	494.3	23
71	17153	495.3	9
71	17164	496.008126821548	6
71	17176	497.013291048405	9
71	17185	497.718762270202	6
71	17201	498.927113571678	11
71	17223	500.73023411441	17
71	17315	508.940037628161	81
71	17403	518.4	64
71	17425	520.3	18
71	17490	526.009379551478	56
71	17514	528.019233924799	19
71	17547	530.920855216715	28
71	17620	537.428493172522	64
71	17655	540.331584680255	28
71	17682	542.640239604818	22
71	17714	545.446542344313	27
71	17759	550.5	25
71	17813	555.4	48
71	17852	558.700186805864	32
71	17878	560.909173700519	21
71	17909	563.618706080811	26
71	18075	569.4	34
71	18100	570	5
71	18166	572.00612095633	19
71	18219	573.708921021127	16
71	18293	575.912995410907	21
71	18366	578.021723505536	20
71	18382	578.430115064592	3
71	18406	579.437684125732	9
71	18433	580.643413962404	11
71	18456	582.551726017721	18
71	18482	584.757621196218	21
71	18495	585.866754171252	10
71	18530	588.773967859309	28
71	18613	594.1	21
71	18628	594.8	6
71	18646	595.514261575482	6
71	18672	596.520162329898	9
71	18720	598.621449914784	20
71	18766	600.728615123827	20
71	18774	601.030416715668	2
71	18800	602.031888439104	9
71	18914	612.1	61
71	18937	614.1	19
71	18948	615.0056378069	8
71	18968	616.610026287135	15
71	19000	619.418739695517	27
71	19037	622.520113743753	30
71	19080	628.3	23
71	19102	630.2	18
71	19132	632.805878209751	25
71	19176	636.607417176917	37
71	19191	637.908842797315	12
71	19290	647.5	75
71	19315	649.7	21
71	19347	652.309364345911	25
71	19373	654.514734297587	21
71	19396	656.420072079914	18
71	19442	660.428177612189	39
71	19468	662.635162902088	21
71	19481	663.739558585016	10
71	19528	667.842867323029	40
71	19571	672.3	23
71	19583	673.4	10
71	19601	674.806897848376	13
71	19623	676.609315999752	17
71	19631	677.219109572678	5
71	19651	678.825595302885	15
71	19718	684.727922554652	58
71	19737	686.231591685989	14
71	19804	692.140330754783	58
71	19901	698.8	28
71	19958	701.4	25
71	19966	701.701892127015	2
71	20058	705.909918949885	41
71	20134	709.41281255202	34
71	20216	712.919368250873	34
71	20248	714.229067872611	12
71	20266	715.829106739761	15
71	20286	717.430011027745	15
71	20303	718.731493697181	12
71	20330	721.03874054485	22
71	20358	723.440687710999	23
71	20383	726.8	8
71	20400	728.2	13
71	20419	729.909151024632	16
71	20439	731.510266416189	15
71	20474	734.418141264165	28
71	20482	735.027324489701	5
71	20498	736.228324892473	11
71	20549	743.4	34
71	20576	745.8	23
71	20605	748.100010447918	22
71	20705	757.104921127223	89
71	20728	759.007628590094	18
71	20780	763.613936022922	45
71	20806	765.82067899678	21
71	20837	768.329557472549	24
71	20866	770.83301205788	24
71	20937	777.134894513636	62
71	21099	786.1	61
71	21113	787.4	12
71	21147	790.205201156211	27
71	21197	794.606110088934	43
71	21221	796.615368809287	19
71	21255	799.620335196486	29
71	21292	802.729489196046	30
71	21305	803.831039006694	10
71	21338	806.533710983123	26
71	21373	809.641628884449	30
71	21386	810.551430091624	8
71	21405	812.051523006867	14
71	21430	814.155975604724	20
71	21450	815.964001466369	17
71	21500	820.168616249263	41
71	21604	827.1	31
71	21635	829.9	27
71	21670	832.802367148005	28
71	21694	834.811902242194	19
71	21766	841.215997846599	63
71	21794	843.617062170062	23
71	21815	845.319561529298	16
71	21838	847.227980212544	18
71	21859	848.937884702689	16
71	21885	851.14156407518	21
71	21906	852.847665559257	16
71	21926	854.451353640054	15
71	22000	859.7	17
71	22081	863.4	36
71	22145	866.207407454922	27
71	22155	866.611462267345	3
71	22190	868.119304299369	14
71	22242	870.427642704167	22
71	22284	872.227828394481	17
71	22361	881.1	51
71	22388	883.5	23
71	22401	884.407104640977	8
71	22425	886.41493253959	19
71	22441	887.817844957386	13
71	22466	889.924383654138	20
71	22497	892.429717552955	24
71	22544	898.7	27
71	22567	900.7	19
71	22594	903.005926269846	22
71	22617	904.915037423816	18
71	22638	906.615461286398	16
71	22671	909.517895321721	28
71	22712	913.026660800732	34
71	22726	914.035431775846	9
71	22739	915.144637435096	10
71	22763	917.147812273028	19
71	22786	919.057273946067	18
71	22805	920.559176314333	14
71	22833	925.2	12
71	22866	928	27
71	22880	929.200377188506	11
71	22895	930.306640042701	10
71	22909	931.508495797185	11
71	22918	932.010081623022	4
71	22951	934.918303560665	28
71	22966	936.021689244754	10
71	22979	937.129667344543	10
71	22994	938.231347930569	10
71	23010	939.640952022914	13
71	23024	940.649330260651	9
71	23048	944.8	8
71	23058	945.7	8
71	23079	947.405261237078	16
71	23120	950.912826476268	34
71	23158	954.116282506753	31
71	23174	955.524647666802	13
71	23197	957.425662809374	18
71	23246	961.72590327496	42
71	23267	963.426160306831	16
71	23283	964.632667414399	11
71	23306	966.538857838171	18
71	23326	968.14829652029	15
71	23425	979.6	76
71	23449	981.7	20
71	23485	984.705213090048	29
71	23510	986.814408406991	20
71	23536	989.022701213581	21
71	23562	991.225113264727	21
71	23584	993.02919571004	17
71	23612	995.436190411922	23
71	23651	998.737788359994	32
71	23680	1001.239743986382	24
71	23715	1004.147903216512	28
71	23738	1006.052033589405	18
71	23769	1008.754788998206	26
71	23796	1012.9	9
71	23841	1016.9	39
71	23867	1019.102082773549	21
71	23920	1023.811582875318	46
71	23953	1026.520200743594	26
71	23989	1031.8	18
71	24022	1034.6	27
71	24045	1036.502794548671	18
71	24081	1039.709837325694	31
71	24123	1043.314599355411	35
71	24190	1049.22184274649	58
71	24233	1052.929099141594	36
71	24254	1054.637591068588	16
71	24290	1057.846415314513	31
71	24373	1066.1	61
71	24397	1068.2	20
71	24425	1070.60926977267	23
71	24444	1072.114091417274	14
71	24470	1074.320699880508	21
71	24495	1076.427377631455	20
71	24673	1090.2	102
71	24700	1092.6	23
71	24720	1094.209696184808	15
71	24735	1095.518816606715	12
71	24763	1097.925113247763	23
71	24795	1100.532852468278	25
71	24820	1102.63827205859	20
71	24880	1110.1	41
71	24894	1111.4	12
71	24927	1114.10622767538	26
71	24994	1120.012940989648	58
71	25023	1122.522026502216	24
71	25053	1127.2	12
71	25087	1130.1	28
71	25110	1132.001310902161	18
71	25135	1134.108093394646	20
71	25163	1136.512179280223	23
71	25199	1139.722106682445	31
71	25247	1143.924409011172	41
71	25276	1147.4	14
71	25317	1151	35
71	25340	1152.907040005386	18
71	25365	1155.009131700316	20
71	25390	1157.110266403484	20
71	25420	1159.720177144722	25
71	25456	1162.726292261417	29
71	25507	1169.4	34
71	25544	1172.6	31
71	25555	1173.50483889796	8
71	25601	1177.506483289216	39
71	25611	1178.113962096337	5
71	25671	1183.516079871824	53
71	25689	1184.916356936525	13
71	25705	1186.118427519343	11
71	25739	1189.125517985719	29
71	25768	1193.1	11
71	25790	1195	18
71	25831	1198.508415510652	34
71	25866	1201.615719802123	30
71	25889	1203.523939399606	18
71	25916	1205.824189624759	22
71	25955	1209.127270505377	32
71	25979	1211.127603666873	19
71	26005	1213.335851029727	21
71	26054	1217.640803904844	42
71	26107	1223.3	33
71	26153	1227.4	40
71	26180	1229.705526752173	22
71	26196	1230.910042553452	11
71	26217	1232.61847386625	16
71	26254	1235.918657323767	32
71	26286	1239.4	14
71	26302	1240.7	12
71	26307	1241.005178063239	2
71	26329	1242.810332871225	17
71	26342	1243.910713678434	10
71	26391	1248.018223566094	40
71	26405	1249.222441224043	11
71	26456	1253.722595516046	44
71	26547	1262.7	67
71	26568	1264.5	17
71	26621	1269.203939810045	46
71	26641	1270.808625884115	15
71	26684	1274.516459731753	36
71	26708	1276.520592842171	19
71	26773	1282.222164527586	56
71	26786	1283.326195532307	10
71	26797	1284.033526827294	6
71	26816	1285.74221003713	16
71	26829	1286.64564127304	8
71	26868	1292	20
71	26885	1293.6	15
71	26905	1295.202596141323	15
71	26985	1302.207619452378	69
71	27042	1307.310793767265	50
71	27066	1309.314249649877	19
71	27093	1311.621371484473	22
71	27123	1314.029310159377	23
71	27152	1316.538172419831	24
71	27168	1317.93962816437	13
71	27184	1319.144278696959	11
71	27209	1321.251480548798	20
71	27276	1327.155483311367	58
71	27335	1333.9	39
71	27368	1336.7	27
71	27397	1339.204247211792	24
71	27465	1345.21335679984	59
71	27543	1352.017781940922	67
71	27555	1353.021056686481	9
71	27570	1354.121541383158	10
71	27638	1360.124073629904	59
71	27732	1368.53004072879	83
71	27827	1374.6	26
71	27990	1382.1	74
71	28064	1385.505278775063	33
71	28126	1388.209783440588	26
71	28160	1389.819584584775	15
71	28218	1392.319710115132	24
71	28274	1394.819952932054	24
71	28330	1397.329085458326	24
71	28372	1399.136191350465	17
71	28420	1401.344181005695	21
71	28466	1404.244362641441	28
71	28580	1411.6	36
71	28607	1412.8	11
71	28695	1416.801932482342	39
71	28745	1419.105397868172	22
71	28794	1421.308820058621	21
71	28821	1423.613257687074	22
71	28840	1425.11433187071	14
71	28951	1435.014581278075	98
71	29002	1439.520287931106	44
71	29066	1442.2	2
71	29217	1447.8	55
71	29279	1450.407274411327	25
71	29331	1454.215717367573	37
71	29358	1456.516465060879	22
71	29417	1461.82194339779	52
71	29433	1463.027865467027	11
71	29465	1465.837067951534	27
71	29501	1468.846431899386	29
71	29532	1471.554270555557	26
71	29559	1473.856111975231	22
71	29603	1477.66533330569	37
71	29672	1481.5	15
71	29699	1482.7	11
71	29747	1484.709945547513	19
71	29836	1488.718647558183	39
71	29922	1492.626604610256	38
71	29966	1495.733968973984	30
71	29998	1498.339498109072	25
71	30037	1501.842588777769	34
71	30058	1503.546022974726	16
71	30118	1508.749018929594	51
71	30217	1513.3	13
71	30311	1516.2	28
71	30411	1519.301903361901	30
71	30548	1523.510972700088	41
71	30649	1527.512740196878	39
71	30724	1532.616519924438	50
71	30770	1536.621563101272	39
71	30794	1540.9	9
71	30841	1545.1	41
71	30877	1548.103642439316	29
71	30922	1552.004625414926	38
71	30948	1554.208222070589	21
71	30992	1560.4	24
71	31013	1562.2	17
71	31048	1565.306611776179	30
71	31093	1569.213421996298	38
71	31111	1570.617890086936	13
71	31120	1571.318055898368	6
71	31145	1573.421884635395	20
71	31156	1574.124343333467	6
71	31181	1576.2252479516	20
71	31211	1578.831121201324	25
71	31256	1584.6	26
71	31280	1586.7	20
71	31308	1589.109161578216	23
71	31327	1590.618051501742	14
71	31383	1595.620997507638	49
71	31405	1597.422861973716	17
71	31466	1602.731042402494	52
71	31478	1603.733195485586	9
71	31526	1607.934996350702	41
71	31585	1613.9	39
71	31624	1617.3	33
71	31650	1619.508742530071	21
71	31670	1621.115106634327	15
71	31719	1625.422087544642	42
71	31742	1627.331209353186	18
71	31761	1628.834143881803	14
71	31777	1630.041365721726	11
71	31826	1634.345623139051	42
71	31879	1639.045969116514	46
71	32026	1649.5	75
71	32056	1652	24
71	32071	1653.305121462126	12
71	32095	1655.306265493209	19
71	32119	1657.310123458047	19
71	32144	1659.41261130503	20
71	32180	1662.420362704543	29
71	32233	1667.129181070721	46
71	32286	1671.833203137251	46
71	32326	1675.237137893656	33
71	32364	1678.440604867899	31
71	32411	1682.546697513569	40
71	32445	1685.55360580955	29
71	32474	1689.1	11
71	32504	1691.8	26
71	32527	1693.706153195619	18
71	32549	1695.511300418993	17
71	32572	1697.412362099805	18
71	32606	1700.213600290851	27
71	32625	1701.922049340282	16
71	32698	1709.4	54
71	32741	1713.2	37
71	32778	1716.305232044621	30
71	32835	1721.406288955986	50
71	32903	1727.410627368904	59
71	32963	1732.620235773104	51
71	32970	1733.125850775495	4
71	32993	1735.033039903481	18
71	33013	1736.639580622116	15
71	33041	1739.047856487288	23
71	33117	1747.5	55
71	33147	1750	24
71	33173	1752.20437978781	21
71	33229	1757.205612688385	49
71	33257	1759.607476574647	23
71	33281	1761.614119340038	19
71	33324	1765.314212936301	36
71	33370	1769.317534331933	39
71	33420	1775	30
71	33436	1776.3	12
71	33485	1780.606272834779	42
71	33511	1782.81060756457	21
71	33539	1785.212728173012	23
71	33554	1786.322335279862	10
71	33571	1787.827122217869	14
71	33594	1789.730574390779	18
71	33620	1791.932631771473	21
71	33643	1793.841072719995	18
71	33675	1796.443037853587	25
71	33698	1798.350368842295	18
71	33782	1804.1	21
71	33835	1806.5	23
71	33877	1808.308814745259	17
71	33903	1809.411375984412	10
71	33925	1810.319857223923	8
71	33965	1812.126787114741	17
71	33990	1814.235055324017	20
71	34064	1823.5	55
71	34084	1825.2	16
71	34102	1826.609379554421	13
71	34117	1827.909586135868	12
71	34135	1829.317551653661	13
71	34153	1830.723363838823	13
71	34174	1832.432313775293	16
71	34207	1837.8	18
71	34241	1840.7	28
71	34264	1842.602431115177	18
71	34297	1845.5123434407	28
71	34346	1849.819517559617	42
71	34375	1852.119813153932	22
71	34423	1856.327044502186	41
71	34441	1857.931175713274	15
71	34502	1863.23510359531	52
71	34579	1867.9	19
71	34614	1869.5	15
71	34656	1871.307483671917	17
71	34702	1873.315161936785	19
71	34739	1875.523403140687	21
71	34762	1877.428965464542	18
71	34779	1878.73691318254	12
71	34799	1880.339541334149	15
71	34849	1887.2	32
71	34873	1889.3	20
71	34880	1889.803280560639	4
71	34927	1893.908337426508	40
71	34959	1896.518129133199	25
71	34971	1897.526155050777	9
71	34996	1899.62893157217	20
71	35021	1901.730912699157	20
71	35054	1904.44052284724	26
71	35081	1906.749309971303	22
71	35155	1915.3	53
71	35191	1918.4	30
71	35221	1921.002668472933	25
71	35253	1923.811669153035	27
71	35281	1926.011774403997	21
71	35309	1928.421543828089	23
71	35361	1933.024534268773	45
71	35389	1935.429352513905	23
71	35404	1936.535535826782	10
71	35453	1942.9	29
71	35473	1944.6	16
71	35486	1945.705799804867	10
71	35512	1947.911684192404	21
71	35590	1954.719275818086	67
71	35596	1955.126433565479	3
71	35625	1957.628749008918	24
71	35645	1959.234562884889	15
71	35663	1960.637521254749	13
71	35683	1962.244742375463	15
71	35705	1964.051220284455	17
71	35735	1966.656999448059	25
71	35860	1975.1	51
71	35882	1977	18
71	35921	1980.304433163765	32
71	35960	1983.807236375219	34
71	36056	1992.216912581691	83
71	36083	1994.526180226165	22
71	36091	1995.129590622354	5
71	36132	1998.629686178732	34
71	36173	2002.135530463156	34
71	36196	2004.03973030588	18
71	36204	2004.645644870394	5
71	36213	2005.355405062281	6
71	36271	2011.8	38
71	36307	2014.9	30
71	36357	2019.305209798149	43
71	36390	2022.010636643489	26
71	36433	2025.916064602575	38
71	36478	2029.819540154212	38
71	36499	2031.522821737087	16
71	36532	2034.224840288911	26
71	36561	2036.729453423394	24
71	36662	2047.9	79
71	36697	2050.9	29
71	36738	2054.402867353677	34
71	36777	2057.903245517767	34
71	36839	2063.309576787331	53
71	36879	2066.71548327376	33
71	36912	2069.621448588444	28
71	36928	2070.822763758923	11
71	36974	2074.826481787596	39
71	37047	2081.328058725498	64
71	37087	2084.733467407874	33
71	37149	2092.1	41
71	37181	2095	28
71	37255	2101.609560278218	65
71	37293	2104.810256515307	31
71	37335	2108.417938845198	35
71	37372	2111.719951551783	32
71	37388	2112.920224685434	11
71	37426	2116.124736401406	31
71	37461	2119.231856798685	30
71	37500	2122.533187524917	32
71	37559	2127.842539507721	52
71	37592	2130.551841574143	26
71	37629	2133.857713809923	32
71	37660	2136.364828391365	24
71	37723	2144.2	42
71	37746	2146.2	19
71	37774	2148.604290122678	23
71	37826	2153.20496011515	45
71	37855	2155.713038067113	24
71	37895	2159.117881293434	33
71	37935	2162.527723372177	33
71	37955	2164.128318608772	15
71	38054	2170.9	29
71	38095	2172.7	17
71	38163	2175.804649942433	30
71	38195	2177.108010586846	12
71	38231	2179.714442688176	25
71	38245	2180.718315095878	9
71	38290	2186.5	25
71	38317	2188.9	23
71	38345	2191.307690847341	23
71	38362	2192.610269454654	12
71	38366	2192.818307731362	1
71	38382	2194.01998524383	11
71	38396	2195.222891027876	11
71	38409	2196.128778260708	8
71	38428	2197.832065094659	16
71	38466	2202	20
71	38489	2204	19
71	38565	2210.80255633007	67
71	38587	2212.60621764417	17
71	38596	2213.310282195799	6
71	38620	2215.310968987964	19
71	38649	2217.815272842632	24
71	38662	2218.72312102006	8
71	38672	2219.532515131772	7
71	38697	2221.635350745147	20
71	38720	2223.543562083692	18
71	38734	2224.549515949704	9
71	38750	2225.953184127243	13
71	38900	2233.3	53
71	38973	2236.5	31
71	38989	2237.201628996767	6
71	39067	2240.610415596447	33
71	39080	2241.719443614044	10
71	39094	2242.725992346984	9
71	39145	2247.231431009355	44
71	39229	2256	60
71	39249	2257.9	18
71	39273	2259.907226050829	19
71	39300	2262.010646053922	20
71	39318	2263.612809819014	15
71	39335	2264.914597598363	12
71	39359	2266.915554040544	19
71	39410	2273.4	34
71	39472	2278.9	54
71	39503	2281.603542961673	26
71	39542	2284.905692223144	32
71	39570	2287.306003517607	23
71	39596	2289.515339670466	21
71	39624	2291.919714483814	23
71	39644	2293.529280487855	15
71	39666	2295.337877136698	17
71	39696	2297.942619704362	25
71	39768	2305	50
71	39782	2306.1	10
71	39797	2307.403853214506	12
71	39818	2309.105026650367	16
71	39888	2315.308769815346	61
71	39923	2318.218594135868	28
71	39941	2319.825931972712	15
71	39961	2321.428743746131	15
71	40002	2324.933564702525	34
71	40026	2326.934960288515	19
71	40072	2330.940279800936	39
71	40130	2337.8	38
71	40147	2339.2	13
71	40162	2340.306431714356	10
71	40187	2342.406707602219	20
71	40226	2345.910263956413	34
71	40279	2350.419862860178	44
71	40306	2352.729478412931	22
71	40319	2353.834497380498	10
71	40362	2357.537420123118	36
71	40383	2359.23970448688	16
71	40408	2361.341627049335	20
71	40486	2369.8	58
71	40507	2371.6	17
71	40560	2376.107911857047	44
71	40606	2380.109248670779	39
71	40634	2382.519071196375	23
71	40659	2384.623419523168	20
71	40695	2387.829540163114	31
71	40714	2389.329845280412	14
71	40754	2392.734684524044	33
71	40815	2397.1	11
71	40896	2400.7	35
71	40982	2404.600408289206	38
71	41086	2409.409414881585	47
71	41152	2412.316844141274	28
71	41200	2415.321483171619	29
71	41218	2416.72275711459	13
71	41240	2418.531433982822	17
71	41285	2422.439782314103	38
71	41308	2424.346326715688	18
71	41374	2430.155231425108	57
71	41417	2436.3	23
71	41488	2442.7	63
71	41513	2444.806779955807	20
71	41523	2445.608329370715	7
71	41564	2449.11359926399	34
71	41593	2451.614347594654	24
71	41625	2454.219386741764	25
71	41654	2456.722362948919	24
71	41683	2459.225955253145	24
71	41711	2461.635741798588	23
71	41774	2467.140171887373	54
71	41836	2474.1	41
71	41860	2476.2	20
71	41889	2478.702630420047	24
71	41960	2485.003426303341	62
71	41984	2487.01342585397	19
71	42031	2491.118310125349	40
71	42048	2492.427070557889	12
71	42083	2495.53077693093	30
71	42093	2496.140054181906	5
71	42101	2496.74015288604	5
71	42128	2499.048581475357	22
71	42143	2500.155453664704	10
71	42159	2501.563822401076	13
71	42172	2502.468272928587	8
71	42273	2508.9	29
71	42348	2512.2	32
71	42396	2514.707099267775	24
71	42427	2517.409554136334	26
71	42466	2520.715408466587	32
71	42491	2522.817239642278	20
71	42524	2525.717828989918	28
71	42556	2529.4	14
71	42574	2530.9	14
71	42604	2533.50024057422	25
71	42641	2536.609027174924	30
71	42683	2540.212924820653	35
71	42733	2544.618821458246	43
71	42805	2551.021200014394	63
71	42823	2554.3	3
71	42880	2559.5	51
71	42927	2563.604110215913	40
71	42958	2566.109848035677	24
71	43007	2570.412556273504	42
71	43032	2572.514877232229	20
71	43097	2578.218003157432	56
71	43143	2584.9	29
71	43165	2586.8	18
71	43189	2588.800506628728	19
71	43243	2593.603141886435	47
71	43256	2594.512662260391	8
71	43281	2596.614672500692	20
71	43301	2598.217097278955	15
71	43308	2598.720831353378	4
71	43332	2600.727075702755	19
71	43358	2602.93515022241	21
71	43443	2608.1	21
71	43474	2609.5	13
71	43486	2609.905865547121	3
71	43534	2612.00804328439	20
71	43579	2614.010903036461	19
71	43599	2615.811302756342	17
71	43660	2621.115523139893	52
71	43726	2628.4	44
71	43756	2631.1	26
71	43785	2633.606459133538	24
71	43809	2635.610654768635	19
71	43834	2637.714083023616	20
71	43856	2639.514691734055	17
71	43905	2643.81994122418	42
71	43924	2645.323590845937	14
71	43936	2646.13237447124	7
71	43960	2648.139962297315	19
71	43993	2651.040670007486	28
71	44020	2653.349395109885	22
71	44040	2654.955118190501	15
71	44150	2661.4	34
71	44247	2665.8	43
71	44301	2668.203902726452	23
71	44348	2672.309553957063	40
71	44377	2674.810517586137	24
71	44427	2679.211024116324	43
71	44458	2681.916752404717	26
71	44541	2690.2	62
71	44574	2693.2	29
71	44593	2694.705330174847	14
71	44616	2696.61263297324	18
71	44642	2698.818738034837	21
71	44661	2700.326940614717	14
71	44691	2702.932136068887	25
71	44709	2704.332412376825	13
71	44866	2715.1	71
71	44888	2717	18
71	44898	2717.804762879072	7
71	44957	2722.909006234628	50
71	45042	2730.417908600258	74
71	45062	2732.025942205671	15
71	45114	2736.632263880272	45
71	45161	2743	30
71	45226	2749.4	63
71	45245	2751.104733263105	16
71	45263	2752.714126549481	15
71	45281	2754.317024807088	15
71	45302	2756.221592749618	18
71	45357	2761.522996143561	52
71	45395	2765.124790366904	35
