file 25015 1369674127                                           
version 2
run Join-97-20130520-16:46:37-32715
attr configname Join
attr datetime 20130520-16:46:37
attr experiment "\"Join\""
attr inifile omnetpp.ini
attr iterationvars $0=16384
attr iterationvars2 "$0=16384, $repetition=7"
attr measurement $0=16384
attr network Network
attr processid 32715
attr repetition 7
attr replication #7
attr resultdir results
attr runnumber 97
attr seedset 97
vector 97  Network.dyn_peer[0]  lookupHopsSig:vector  ETV
97	447 24568 43501 118109 24.708818564054 5642.307522729401 892 2 248 52435 4176799
