version 2
run Join-70-20130520-16:33:01-32715
attr configname Join
attr datetime 20130520-16:33:01
attr experiment "\"Join\""
attr inifile omnetpp.ini
attr iterationvars $0=4096
attr iterationvars2 "$0=4096, $repetition=0"
attr measurement $0=4096
attr network Network
attr processid 32715
attr repetition 0
attr replication #0
attr resultdir results
attr runnumber 70
attr seedset 70

vector 70  Network.dyn_peer[0]  lookupHopsSig:vector  ETV
70	11399	23.211111799307	43
70	11450	27.717753549973	44
70	11499	33.2	32
70	11539	36.7	34
70	11608	42.801197967315	60
70	11634	45.010467520181	21
70	11650	46.218642589384	11
70	11666	47.62108928722	13
70	11680	48.629118420643	9
70	11692	49.631904493694	9
70	11705	50.532115729665	8
70	11811	62.2	82
70	11833	64.1	18
70	11863	66.703074083751	25
70	11950	74.406076223977	76
70	11994	78.21442976865	37
70	12039	82.116178897894	38
70	12143	91.525476241523	93
70	12169	93.726903589876	21
70	12452	107.6	116
70	12504	111.2	35
70	12511	111.708761979683	4
70	12563	116.113329875149	43
70	12597	119.11896875928	29
70	12635	122.325539234882	31
70	12735	131.328602555751	89
70	12763	135	10
70	12800	138.2	31
70	12827	140.509448853291	22
70	12890	146.01888181966	54
70	12922	148.822779804055	27
70	12954	151.631332342376	27
70	12976	153.433833056511	17
70	12998	155.237426932276	17
70	13016	156.644689774488	13
70	13140	163.9	39
70	13215	167.2	32
70	13299	171.609547428453	43
70	13339	175.016218722336	33
70	13358	176.52175474197	14
70	13396	179.926445963299	33
70	13413	181.235295727534	12
70	13464	185.736840317912	44
70	13499	189.9	19
70	13516	191.3	13
70	13574	196.303649994514	49
70	13591	197.810903340796	14
70	13602	198.51266648708	6
70	13645	202.215934799647	36
70	13711	208.021933164522	57
70	13758	212.12936341386	40
70	13766	212.736987576127	5
70	13784	214.144813857517	13
70	13821	217.451432463327	32
70	13868	221.553744025414	40
70	13938	228.8	48
70	13953	230	11
70	13963	230.802306507499	7
70	13979	232.0118211672	11
70	13995	233.415730675259	13
70	14049	238.01819210174	45
70	14065	239.427899895533	13
70	14096	243.6	16
70	14128	246.3	26
70	14162	249.308554664109	29
70	14220	254.317821505269	49
70	14266	258.323442398336	39
70	14310	262.127262706049	37
70	14322	263.132105524048	9
70	14387	268.83906515462	56
70	14398	269.739221607478	8
70	14460	276	40
70	14499	279.6	35
70	14558	284.702900717714	50
70	14571	285.809375607549	10
70	14629	290.815030830964	49
70	14689	296.015473091206	51
70	14707	297.618573505053	15
70	14767	302.824207438881	51
70	14829	308.229223595837	53
70	14843	309.43479884203	11
70	14893	315	30
70	14917	317.1	20
70	14938	318.802042028261	16
70	14963	320.910751869484	20
70	15005	324.516350328811	35
70	15029	326.520608429147	19
70	15072	330.228128563612	36
70	15150	339.9	59
70	15207	344.9	49
70	15232	347.004930799352	20
70	15242	347.811325073621	7
70	15296	352.416455183126	45
70	15319	354.323186792038	18
70	15340	356.026164703392	16
70	15366	358.228275363426	21
70	15388	360.037120346242	17
70	15424	363.244850998473	31
70	15480	369.6	36
70	15518	372.9	32
70	15548	375.509564224826	25
70	15581	378.217882669842	26
70	15605	380.218896083777	19
70	15630	382.324512415163	20
70	15659	384.827204030482	24
70	15685	387.035336194143	21
70	15754	394.9	49
70	15797	398.7	37
70	15853	403.700330457643	49
70	15864	404.402924385769	6
70	15889	406.50676457863	20
70	15943	411.315814104305	47
70	15987	415.117605923669	37
70	16010	417.026690765322	18
70	16053	420.732056290985	36
70	16114	426.035197326604	52
70	16172	431.242733759319	51
70	16210	434.446992766603	31
70	16244	439.7	17
70	16257	440.7	9
70	16265	441.303654537354	5
70	16307	444.909685217849	35
70	16333	447.117147057537	21
70	16348	448.217646837961	10
70	16396	452.421162049979	41
70	16438	456.025658088826	35
70	16470	458.829778820088	27
70	16491	460.539078191132	16
70	16502	461.44075835243	8
70	16517	462.544709000982	10
70	16542	464.651511433141	20
70	16554	465.651954207599	9
70	16569	466.753765333007	10
70	16657	473.5	35
70	16688	476.1	25
70	16699	477.002699488888	8
70	16727	479.405847884195	23
70	16742	480.514384132108	10
70	16761	482.016704340541	14
70	16781	483.818600299438	17
70	16789	484.2233581473	3
70	16822	487.130149821976	28
70	16835	488.039727273464	8
70	16847	489.041321107283	9
70	16853	489.445264018453	3
70	16919	495.252594890073	57
70	16978	501.9	39
70	17007	504.3	23
70	17019	505.30299603065	9
70	17056	508.403094582361	30
70	17082	510.605158726152	21
70	17116	513.609122749499	29
70	17140	515.616805860425	19
70	17162	517.418364561674	17
70	17220	522.426364847578	49
70	17268	526.633621845529	41
70	17314	532.8	28
70	17346	535.7	28
70	17365	537.202615882593	14
70	17410	541.107526510876	38
70	17429	542.616497035845	14
70	17457	545.018630104671	23
70	17497	548.423727166844	33
70	17519	550.231812460928	17
70	17555	553.440450947943	31
70	17587	556.049966284327	25
70	17623	559.258603962309	31
70	17695	563.7	17
70	17743	566.4	26
70	17786	570.103103537715	36
70	17814	572.511477190199	23
70	17863	576.812094647308	42
70	17889	579.01879338821	21
70	17938	583.322382753347	42
70	17986	587.529846856212	41
70	18031	591.431144988299	38
70	18067	594.431976785452	29
70	18209	604.5	65
70	18249	608	34
70	18302	612.709060750706	46
70	18355	617.416068822613	46
70	18384	619.917601876377	24
70	18403	621.418195583961	14
70	18458	626.12267638709	46
70	18490	628.932538254725	27
70	18524	631.935708206634	29
70	18596	639.2	52
70	18623	641.6	23
70	18644	643.307840829172	16
70	18692	647.511433553397	41
70	18720	649.918072970876	23
70	18750	652.325282029885	23
70	18778	654.727402358414	23
70	18802	656.730448256875	19
70	18858	661.739312808208	49
70	18945	668.1	41
70	18981	671.4	32
70	18988	671.909328838721	4
70	19005	673.216784756464	12
70	19009	673.419398786889	1
70	19041	676.024820622135	25
70	19056	677.328034148552	12
70	19159	688	80
70	19168	688.8	7
70	19218	693.203770187678	43
70	19254	696.210650835197	29
70	19289	699.318692457302	30
70	19340	703.821695310001	44
70	19390	708.022129907352	41
70	19445	712.931062663125	48
70	19540	721.431313935131	84
70	19807	733.2	92
70	19845	735.4	21
70	19891	739.404173596568	39
70	19905	740.407810995757	9
70	19937	743.210340652802	27
70	19965	747	10
70	19982	748.4	13
70	20031	752.709220813664	42
70	20081	757.11758614337	43
70	20133	761.722333400565	45
70	20155	763.527223705373	17
70	20186	766.03614076664	24
70	20206	767.842426480958	17
70	20225	769.3488060676	14
70	20246	771.057036294289	16
70	20269	772.963830213252	18
70	20374	784.1	81
70	20435	789.7	55
70	20479	793.503435913526	37
70	20515	796.509528231333	29
70	20552	799.812323788151	32
70	20593	803.312416807667	34
70	20638	807.221071429571	38
70	20657	808.730297584323	14
70	20723	814.531049323413	57
70	20739	815.939902954753	13
70	20756	817.24042666481	12
70	20771	818.348743417708	10
70	20786	819.652662085565	12
70	20812	821.862394845006	21
70	20831	823.365091163453	14
70	20916	832.2	62
70	20950	835.3	30
70	21053	844.404185653286	90
70	21088	847.512418618466	30
70	21127	850.821782189475	32
70	21168	854.328458754052	34
70	21208	857.92997778397	35
70	21283	861.7	17
70	21358	865.1	33
70	21436	868.601248337069	34
70	21488	872.508019766715	38
70	21533	876.416196074935	38
70	21561	878.821598227538	23
70	21614	883.528316770039	46
70	21661	887.629168818321	40
70	21719	892.631075415285	49
70	21762	896.335485630207	36
70	21805	900.037554949679	36
70	21811	900.438646519927	3
70	21842	903.146954775727	26
70	21885	906.847871983162	36
70	21907	910.5	5
70	21965	915.8	52
70	22004	919.105543387671	32
70	22010	919.514877207061	3
70	22023	920.423208142312	8
70	22061	923.832242609022	33
70	22083	925.636392064529	17
70	22136	930.142736020897	44
70	22156	931.946624490659	17
70	22173	933.248901451987	12
70	22222	938.9	29
70	22236	940	10
70	22252	941.404358559455	13
70	22266	942.40642355573	9
70	22316	946.8150196588	43
70	22361	950.720341710539	38
70	22373	951.721851678406	9
70	22386	952.626410388265	8
70	22395	953.335590564541	6
70	22446	957.843261898164	44
70	22488	961.447964682315	35
70	22508	963.057732772418	15
70	22531	964.961922881897	18
70	22554	966.869612149878	18
70	22564	967.679603099939	7
70	22623	972.779820019562	50
70	22651	977.1	11
70	22670	978.7	15
70	22715	982.605195797949	38
70	22736	984.309372591922	16
70	22751	985.612521631599	12
70	22793	989.21784997995	35
70	22823	991.824057054482	25
70	22866	996.6	26
70	22878	997.7	10
70	22894	998.902353734245	11
70	22918	1000.912329120818	19
70	22952	1003.921239431545	29
70	22965	1004.828316381366	8
70	23004	1008.131118319956	32
70	23020	1009.538817851994	13
70	23051	1012.046329060642	24
70	23101	1016.449282339469	43
70	23131	1021.4	14
70	23170	1024.8	33
70	23195	1026.90473054242	20
70	23199	1027.111133031457	1
70	23244	1031.016764974171	38
70	23271	1033.319183867378	22
70	23294	1035.227769799174	18
70	23318	1038.9	9
70	23348	1041.6	26
70	23378	1044.004488516882	23
70	23416	1047.412433240717	33
70	23440	1049.420980363661	19
70	23468	1051.828306156925	23
70	23500	1054.432850676006	25
70	23517	1055.938623445308	14
70	23541	1057.940877839496	19
70	23596	1063.5	35
70	23680	1071	74
70	23728	1075.207859005723	41
70	23762	1078.017454851646	27
70	23798	1081.219570489294	31
70	23858	1085.1	11
70	23916	1087.8	26
70	23988	1091.006080056622	31
70	24019	1093.70796120092	26
70	24064	1097.611203119421	38
70	24095	1100.11718019958	24
70	24123	1102.520991382776	23
70	24146	1104.422784628581	18
70	24217	1110.723373477274	62
70	24263	1114.724556581821	39
70	24284	1116.429160722767	16
70	24308	1118.429164168793	19
70	24323	1119.733127226999	12
70	24363	1123.138219209089	33
70	24385	1124.940905102653	17
70	24440	1131.5	35
70	24487	1135.7	41
70	24524	1138.806108103299	30
70	24551	1141.108632669781	22
70	24588	1144.212592612022	30
70	24666	1151.219014495191	69
70	24728	1158	40
70	24742	1159.3	12
70	24754	1160.107331226442	7
70	24810	1165.116869276072	49
70	24839	1167.620522337236	24
70	24877	1170.82697456857	31
70	24904	1173.131131482557	22
70	24930	1176.8	8
70	24978	1181.1	42
70	25023	1185.002038559815	38
70	25045	1186.807365467235	17
70	25075	1189.412060569425	25
70	25098	1191.316423801628	18
70	25128	1193.925341967034	25
70	25165	1197.026682683803	30
70	25217	1201.629891956654	45
70	25269	1206.037627036003	43
70	25319	1210.440810912092	43
70	25355	1213.646233626705	31
70	25444	1218.4	24
70	25473	1219.8	13
70	25510	1221.404848689984	15
70	25542	1222.712306165466	12
70	25578	1224.220859503675	14
70	25624	1226.322361635022	20
70	25694	1229.527325847822	31
70	25800	1234.330599236476	47
70	25890	1238.340175686892	39
70	26014	1244.041272252112	56
70	26087	1252.3	43
70	26129	1256	36
70	26170	1259.704685822387	36
70	26221	1264.010522063671	42
70	26270	1268.313460848341	42
70	26302	1271.120810814842	27
70	26352	1275.528312107366	43
70	26383	1278.03551222033	24
70	26407	1280.040201174718	19
70	26580	1290.2	62
70	26593	1290.8	5
70	26616	1291.809933476967	9
70	26640	1292.819875973011	9
70	26678	1294.923727045224	20
70	26745	1300.830422975562	58
70	26763	1302.239347672501	13
70	26831	1310.9	49
70	26850	1312.5	15
70	26869	1314.007651572651	14
70	26905	1317.212196407746	31
70	26936	1319.921734063249	26
70	26965	1322.231269450987	22
70	26982	1323.736594502325	14
70	27011	1326.038353266259	22
70	27047	1331.8	18
70	27102	1336.6	47
70	27115	1337.703600137359	10
70	27141	1339.905971339079	21
70	27193	1344.312967744413	43
70	27229	1347.51836376191	31
70	27317	1355.326598651233	77
70	27363	1359.330647056052	39
70	27407	1363.132313669296	37
70	27438	1365.832349565064	26
70	27451	1366.739337364593	8
70	27487	1369.941383398717	31
70	27497	1370.547240888596	5
70	27570	1375.8	18
70	27644	1379.2	33
70	27729	1383.304699051273	40
70	27762	1386.007594476665	26
70	27821	1391.316115955595	52
70	27855	1394.116265053158	27
70	27882	1396.424701331057	22
70	27918	1399.634145952299	31
70	27967	1403.939768578108	42
70	28005	1407.144782432064	31
70	28028	1409.052334782951	18
70	28065	1412.157288154786	30
70	28144	1421.7	57
70	28166	1423.6	18
70	28206	1427.004951523069	33
70	28251	1430.906203461013	38
70	28274	1432.811381091965	18
70	28298	1434.815502195288	19
70	28338	1438.224580901679	33
70	28394	1445.9	39
70	28480	1453.6	76
70	28485	1453.904235515198	2
70	28523	1457.106903180351	31
70	28556	1461.5	15
70	28612	1466.4	48
70	28660	1470.607460974405	41
70	28706	1474.608406837688	39
70	28849	1482.8	48
70	28902	1486.4	35
70	28945	1490.102519632792	36
70	28969	1492.103662387921	19
70	29016	1496.212076123409	40
70	29064	1500.420762925367	41
70	29070	1500.830370093044	3
70	29120	1505.232076649314	43
70	29149	1507.739569122986	24
70	29207	1513.8	38
70	29227	1515.5	16
70	29255	1517.908959119147	23
70	29286	1520.41166115824	24
70	29297	1521.317240216372	8
70	29314	1522.622209376393	12
70	29376	1530	40
70	29399	1532	19
70	29439	1535.606265053066	35
70	29485	1539.615066368073	39
70	29531	1543.619770996529	39
70	29548	1544.926129670839	12
70	29673	1554.1	61
70	29696	1556.1	19
70	29720	1558.103372364505	19
70	29738	1559.707696687832	15
70	29783	1563.613396522441	38
70	29797	1564.61386566575	9
70	29806	1565.318133653554	6
70	29856	1569.726942611025	43
70	29915	1574.833943512789	50
70	29965	1581	30
70	29987	1582.9	18
70	30010	1584.803071030355	18
70	30030	1586.411742971925	15
70	30061	1589.112401821924	26
70	30157	1597.721271560905	85
70	30211	1602.327755384634	45
70	30241	1604.935978042436	25
70	30257	1606.137955521612	11
70	30268	1607.039237219725	8
70	30282	1608.039502594816	9
70	30291	1608.747431848454	6
70	30326	1613.8	18
70	30370	1617.7	38
70	30395	1619.809671925627	20
70	30478	1627.112192756223	72
70	30491	1628.021365364749	8
70	30499	1628.621426349492	5
70	30517	1630.022045448797	13
70	30522	1630.325036350858	2
70	30530	1630.925679172604	5
70	30567	1634.030492358133	30
70	30657	1644.7	67
70	30673	1646	12
70	30687	1647.206631156038	11
70	30702	1648.309323127949	10
70	30713	1649.217390969404	8
70	30728	1650.323928503616	10
70	30741	1651.425818599877	10
70	30782	1656.4	24
70	30808	1658.7	22
70	30820	1659.708671566839	9
70	30857	1662.810424195781	30
70	30888	1665.517836499006	26
70	30913	1667.621052243014	20
70	31011	1676.224397033015	85
70	31055	1680.03419958915	37
70	31081	1682.234611158174	21
70	31110	1684.739075154404	24
70	31152	1688.342965076403	35
70	31180	1690.751561233788	23
70	31228	1694.960319478616	41
70	31265	1698.0675827873	30
70	31313	1702.271252173866	41
70	31362	1706.573833637981	42
70	31413	1711.074730692213	44
70	31481	1718.7	47
70	31515	1721.8	30
70	31555	1725.208053065591	33
70	31569	1726.216651675795	9
70	31606	1729.525838391611	32
70	31621	1730.633134052951	10
70	31673	1735.239880797455	45
70	31761	1744.7	67
70	31809	1749	42
70	31825	1750.205415258491	11
70	31866	1753.911214862935	36
70	31911	1757.817557968961	38
70	31946	1761.7	17
70	31979	1764.5	27
70	32012	1767.404126493523	28
70	32047	1770.311584189061	28
70	32078	1773.018504406772	26
70	32129	1777.524546832802	44
70	32182	1782.026051841109	44
70	32235	1786.732897457085	46
70	32269	1789.735522925991	29
70	32288	1791.240130939946	14
70	32316	1793.649935653518	23
70	32350	1796.455019415704	27
70	32372	1798.262238161115	17
70	32424	1802.866727701698	45
70	32477	1807.575856530275	46
70	32619	1814.9	49
70	32656	1816.5	15
70	32696	1818.30979442541	17
70	32754	1820.816450648493	24
70	32819	1823.825088815925	29
70	32876	1828.427342598576	45
70	32891	1829.734560450304	12
70	32922	1832.236655014481	24
70	32969	1836.339996185505	40
70	33092	1844	40
70	33135	1846	19
70	33219	1849.906633142654	38
70	33301	1853.915485372971	39
70	33346	1857.821691748692	38
70	33378	1860.428342805324	25
70	33437	1865.734409921808	52
70	33457	1868.5	5
70	33461	1868.8	2
70	33479	1870.207753949074	13
70	33559	1877.414475738787	71
70	33609	1881.817336808882	43
70	33664	1886.521260655907	46
70	33727	1894.1	41
70	33735	1894.8	6
70	33789	1899.602280856815	47
70	33821	1902.203308059421	25
70	33847	1904.412487946917	21
70	33869	1906.221611611194	17
70	33927	1911.431169714076	51
70	33938	1912.137253370557	6
70	34008	1920.8	48
70	34027	1922.4	15
70	34058	1925.10326100948	26
70	34099	1928.603440529578	34
70	34112	1929.713242478631	10
70	34153	1933.214686306246	34
70	34180	1935.514750755821	22
70	34225	1939.421668191364	38
70	34258	1942.125841095687	26
70	34315	1947.226585904375	50
70	34364	1951.534654645553	42
70	34419	1956.236974494081	46
70	34483	1964.2	42
70	34544	1969.8	55
70	34609	1975.509689722892	56
70	34652	1979.216662229976	36
70	34697	1983.118443109436	38
70	34762	1988.82040889181	56
70	34814	1993.420599859401	45
70	34853	1998.2	22
70	34878	2000.4	21
70	34905	2002.709282974393	22
70	34936	2005.414580879636	26
70	34982	2009.423780968499	39
70	35014	2013.4	14
70	35046	2016.1	26
70	35113	2022.002360154332	58
70	35150	2025.303958821575	32
70	35190	2028.71160862746	33
70	35202	2029.716730398366	9
70	35283	2037.9	59
70	35339	2042.8	48
70	35400	2048.103341201797	52
70	35437	2051.409472289892	32
70	35458	2053.114325248239	16
70	35496	2056.316889668932	31
70	35533	2059.619842374386	32
70	35571	2062.821588540401	31
70	35601	2065.428455446995	25
70	35641	2068.828995508308	33
70	35659	2070.233814274981	13
70	35768	2082.3	83
70	35811	2086.1	37
70	35827	2087.509972111419	13
70	35855	2089.912445389071	23
70	35876	2091.616862190099	16
70	35900	2093.621434105246	19
70	35922	2095.427826554246	17
70	35945	2097.332163729874	18
70	36033	2102.5	25
70	36073	2104.3	17
70	36081	2104.603142402088	2
70	36257	2112.507463808178	78
70	36302	2114.809483226642	22
70	36323	2116.511918801059	16
70	36337	2117.715367992843	11
70	36357	2119.318598400944	15
70	36376	2120.821974935634	14
70	36438	2126.227924971147	53
70	36451	2127.330047217378	10
70	36557	2133.3	33
70	36638	2136.9	35
70	36700	2139.807997850913	28
70	36776	2143.115551910321	32
70	36806	2144.323655546887	11
70	36830	2145.424718572124	10
70	36880	2147.630258722218	21
70	36913	2150.335414636892	26
70	36935	2152.140860269491	17
70	36942	2152.647610298134	4
70	36993	2157.154463508361	44
70	37000	2157.654779843931	4
70	37084	2162.2	22
70	37160	2165.8	35
70	37191	2167.104907887377	12
70	37199	2167.408443819421	2
70	37251	2169.716792657255	22
70	37305	2172.02530631559	22
70	37435	2178.027071402676	59
70	37475	2179.92960392802	18
70	37537	2183.2	12
70	37578	2185	17
70	37620	2186.906500260373	18
70	37690	2190.013366744948	30
70	37856	2197.721736431197	76
70	37904	2199.829164385919	20
70	37970	2205.5	35
70	37997	2207.9	23
70	38043	2211.900020642974	39
70	38086	2215.600704387309	36
70	38105	2217.102972483762	14
70	38126	2218.803673734698	16
70	38181	2223.707576133136	48
70	38211	2226.116846240456	23
70	38241	2228.722243882003	25
70	38295	2233.524152166484	47
70	38310	2234.630310145583	10
70	38330	2236.230840667862	15
70	38424	2244.638272252777	83
70	38559	2252.5	45
70	38642	2256.3	37
70	38656	2256.805844969761	4
70	38724	2259.611383037294	27
70	38746	2260.413940402806	7
70	38812	2265.720068065092	52
70	38821	2266.224561640139	4
70	38828	2266.727263182844	4
70	38846	2268.133489149732	13
70	38880	2271.139567663448	29
70	38888	2271.747999033412	5
70	38899	2272.455097496389	6
70	38992	2283	70
70	39053	2288.4	53
70	39111	2293.60749562476	51
70	39142	2296.114949725274	24
70	39198	2301.116251380065	49
70	39226	2303.524526285625	23
70	39279	2308.028392267919	44
70	39338	2313.330129659348	52
70	39386	2317.536862190102	41
70	39404	2318.937234845598	13
70	39434	2321.545901669509	25
70	39496	2326.953114657731	53
70	39542	2330.962413236979	39
70	39566	2332.97224282322	19
70	39599	2335.877859044657	28
70	39638	2339.18486852477	32
70	39668	2343.2	12
70	39711	2347	37
70	39771	2352.205161947007	51
70	39819	2356.408181855068	41
70	39853	2359.408538961302	29
70	39877	2361.411623759263	19
70	39904	2363.714665535919	22
70	39969	2370.6	46
70	40027	2375.9	52
70	40070	2379.607424787124	36
70	40110	2383.014586807977	33
70	40136	2385.223874551561	21
70	40178	2388.824484245027	35
70	40224	2392.830476566906	39
70	40296	2401.3	53
70	40308	2402.2	8
70	40361	2406.903067572605	46
70	40407	2410.903112482735	39
70	40454	2415.006075128937	40
70	40471	2416.309103784792	12
70	40517	2420.309503186974	39
70	40569	2427.5	35
70	40632	2433.1	55
70	40647	2434.201858600787	10
70	40660	2435.311834830398	10
70	40687	2437.61260258806	22
70	40713	2439.82027687225	21
70	40726	2440.721835799147	8
70	40732	2441.129105964277	3
70	40756	2443.133601215397	19
70	40794	2446.334454343341	31
70	40812	2447.944015808858	15
70	40865	2452.450068975843	44
70	40881	2453.859653016929	13
70	40930	2459	30
70	40967	2462.2	31
70	40983	2463.600857157586	13
70	41001	2465.007632481439	13
70	41051	2469.415146922533	43
70	41089	2472.61823670283	31
70	41113	2474.621588932248	19
70	41178	2480.326084606817	56
70	41221	2484.031242843907	36
70	41259	2487.438207809295	33
70	41308	2491.7440834746	42
70	41471	2507.3	133
70	41488	2508.7	13
70	41513	2510.805131796749	20
70	41524	2511.714844707508	8
70	41587	2517.221438053437	54
70	41650	2522.725936560964	54
70	41674	2524.728952708617	19
70	41699	2526.835767601214	20
70	41748	2531.144132789902	42
70	41770	2532.953513020747	17
70	41795	2535.058801922076	20
70	41891	2545.4	74
70	41913	2547.3	18
70	41921	2547.907250433317	5
70	41961	2551.314728889832	33
70	41975	2552.319366318847	9
70	41991	2553.720196507296	13
70	42014	2555.626121617795	18
70	42046	2559.7	17
70	42061	2560.9	11
70	42088	2563.202828204599	22
70	42113	2565.312652585911	20
70	42127	2566.314330154132	9
70	42158	2569.023884900045	26
70	42169	2569.924305001746	8
70	42229	2575.127106204113	51
70	42264	2578.031221562182	28
70	42297	2580.936998804181	28
70	42340	2584.642872711282	36
70	42385	2588.552741781274	38
70	42400	2589.853034285033	12
70	42434	2592.65503756725	27
70	42532	2598.9	29
70	42631	2603.5	45
70	42777	2610.108930524233	65
70	42865	2614.117301719746	39
70	42953	2618.924889342592	47
70	43013	2624.130665704938	51
70	43118	2632.3	43
70	43147	2634.9	25
70	43164	2636.209096667284	12
70	43179	2637.518805787944	12
70	43204	2639.622252241153	20
70	43221	2640.929241178169	12
70	43252	2643.636655467225	26
70	43279	2647.2	12
70	43329	2651.7	44
70	43354	2653.808696531741	20
70	43404	2658.016874829867	41
70	43435	2660.71826133278	26
70	43563	2672.118389188547	113
70	43617	2679.4	34
70	43650	2682.2	27
70	43656	2682.608031223684	3
70	43683	2684.910666041909	22
70	43732	2689.215933381253	42
70	43771	2692.522284685006	32
70	43812	2696.03100511146	34
70	43862	2700.434137329473	43
70	43911	2704.73542363736	42
70	43952	2708.244004419871	34
70	43965	2709.348732022807	10
70	44008	2714.3	23
70	44051	2718.1	37
70	44074	2720.000370590977	18
70	44120	2724.006337401605	39
70	44191	2730.310089029878	62
70	44208	2731.812945389711	14
70	44230	2733.613983346231	17
70	44254	2735.620924314281	19
70	44277	2737.521802659974	18
70	44319	2741.128392245484	35
70	44373	2745.935828447922	47
70	44438	2752.5	45
70	44443	2752.9	3
70	44450	2753.406749883284	4
70	44490	2756.807645647995	33
70	44539	2761.114678083631	42
70	44588	2765.419378223976	42
70	44598	2766.02666801214	5
70	44606	2766.630905539367	5
70	44646	2772	20
70	44662	2773.5	14
70	44722	2778.709532280361	51
70	44740	2780.116556132663	13
70	44772	2782.92639635264	27
70	44803	2785.626901594198	26
70	44842	2788.936212534152	32
70	44859	2790.244895553658	12
70	45016	2799.5	55
70	45049	2801.4	18
70	45096	2805.500912430707	40
70	45128	2808.102394663758	25
70	45166	2811.509560227453	33
70	45191	2813.611486650664	20
70	45237	2817.619685306575	39
70	45270	2820.329206266114	26
70	45318	2824.533297549667	41
70	45364	2828.540972647454	39
70	45418	2833.342885996481	47
70	45505	2841.048898266545	76
70	45535	2845.2	12
70	45547	2846.1	8
70	45589	2849.900042958313	37
70	45632	2853.609931807911	36
70	45675	2857.312746109226	36
70	45718	2861.018071002018	36
70	45768	2865.426645889899	43
70	45790	2867.236332326731	17
70	45819	2869.737615942896	24
70	45843	2871.737978373404	19
70	45866	2873.645629055266	18
70	45943	2880.346645097347	66
70	46001	2887.8	38
70	46031	2890.3	24
70	46060	2892.807633552581	24
70	46088	2895.208919203702	23
70	46118	2897.817914732453	25
70	46168	2902.026636003773	41
70	46183	2903.335113164263	12
70	46224	2906.836597350944	34
70	46247	2908.745309499691	18
70	46265	2910.147568674199	13
70	46307	2913.948336162196	37
70	46353	2917.951720928795	39
70	46395	2921.551984504329	35
70	46406	2922.256295609169	6
70	46415	2922.965919429426	6
70	46444	2925.4723387836	24
70	46461	2926.781964091401	12
70	46525	2931.3	13
70	46574	2933.5	21
70	46620	2935.501573911099	19
70	46672	2937.805191822859	22
70	46692	2938.606089224504	7
70	46786	2943.9	19
70	46815	2945.2	12
70	46857	2948.006916887948	27
70	46905	2952.213327866114	41
70	46920	2953.522280955436	12
70	46958	2956.726812265031	31
70	46976	2958.130492490937	13
70	46998	2962.7	7
70	47028	2965.4	26
70	47079	2969.904607360055	44
70	47118	2973.20684270579	32
70	47125	2973.712810614575	4
70	47154	2976.017478876181	22
70	47170	2977.42201544196	13
70	47203	2980.12634665395	26
70	47259	2985.135924458018	49
70	47296	2988.237498877249	30
70	47324	2990.638419152272	23
70	47344	2994.3	3
70	47373	2996.9	25
70	47390	2998.200608543988	12
70	47403	2999.308127746946	10
70	47437	3002.108402530344	27
70	47479	3005.915703444602	37
70	47516	3009.022431735189	30
70	47538	3010.832245854157	17
70	47735	3021.5	75
70	47774	3023.3	17
70	47793	3024.50192674438	11
70	47812	3026.006825396954	14
70	47836	3028.016663668856	19
70	47842	3028.418306009917	3
70	47885	3032.118549223382	36
70	47915	3034.725701270138	25
70	47929	3035.929068558285	11
70	47956	3038.03448472584	20
70	47975	3039.740913427838	16
70	47985	3040.347719270137	5
70	48033	3047	30
70	48058	3049.2	21
70	48072	3050.20026946851	9
70	48090	3051.802518205264	15
70	48144	3056.412095354074	45
70	48195	3060.91862269815	44
70	48215	3062.521944046844	15
70	48271	3067.530424825753	49
70	48350	3076.2	62
70	48388	3079.9	36
70	48404	3081.303352557963	13
70	48419	3082.608901515528	12
70	48452	3085.714438757758	30
70	48466	3086.915352982935	11
70	48516	3091.717791657222	47
70	48523	3092.223009664206	4
