file 19520 1369674127                                           
version 2
run Join-19-20130520-16:32:13-32715
attr configname Join
attr datetime 20130520-16:32:13
attr experiment "\"Join\""
attr inifile omnetpp.ini
attr iterationvars $0=64
attr iterationvars2 "$0=64, $repetition=9"
attr measurement $0=64
attr network Network
attr processid 32715
attr repetition 9
attr replication #9
attr resultdir results
attr runnumber 19
attr seedset 19
vector 19  Network.dyn_peer[0]  lookupHopsSig:vector  ETV
19	438 19082 404 7145 22.6 658.114630647086 792 1 9 2765 11997
