file 899631 1369516764                                          
version 2
run Stability-norelink-80-20130525-23:19:20-22103
attr configname Stability-norelink
attr datetime 20130525-23:19:20
attr experiment Stability
attr inifile omnetpp.ini
attr iterationvars $0=1e-2
attr iterationvars2 "$0=1e-2, $repetition=0"
attr measurement $0=1e-2
attr network Network
attr processid 22103
attr repetition 0
attr replication #0
attr resultdir results
attr runnumber 80
attr seedset 80

vector 7707  Network.dyn_peer[9]  lookupHopsSig:vector  ETV
vector 7708  Network.dyn_peer[9]  lookupStabilitySig:vector  ETV
vector 7709  Network.dyn_peer[9]  lookupTimeSig:vector  ETV
vector 7728  Network.dyn_peer[16]  lookupHopsSig:vector  ETV
vector 7729  Network.dyn_peer[16]  lookupStabilitySig:vector  ETV
vector 7730  Network.dyn_peer[16]  lookupTimeSig:vector  ETV
vector 7746  Network.dyn_peer[22]  lookupHopsSig:vector  ETV
vector 7747  Network.dyn_peer[22]  lookupStabilitySig:vector  ETV
vector 7748  Network.dyn_peer[22]  lookupTimeSig:vector  ETV
vector 7680  Network.dyn_peer[0]  lookupHopsSig:vector  ETV
vector 7681  Network.dyn_peer[0]  lookupStabilitySig:vector  ETV
vector 7682  Network.dyn_peer[0]  lookupTimeSig:vector  ETV
vector 7683  Network.dyn_peer[1]  lookupHopsSig:vector  ETV
vector 7684  Network.dyn_peer[1]  lookupStabilitySig:vector  ETV
vector 7685  Network.dyn_peer[1]  lookupTimeSig:vector  ETV
vector 7686  Network.dyn_peer[2]  lookupHopsSig:vector  ETV
vector 7687  Network.dyn_peer[2]  lookupStabilitySig:vector  ETV
vector 7688  Network.dyn_peer[2]  lookupTimeSig:vector  ETV
vector 7704  Network.dyn_peer[8]  lookupHopsSig:vector  ETV
vector 7705  Network.dyn_peer[8]  lookupStabilitySig:vector  ETV
vector 7706  Network.dyn_peer[8]  lookupTimeSig:vector  ETV
vector 7722  Network.dyn_peer[14]  lookupHopsSig:vector  ETV
vector 7723  Network.dyn_peer[14]  lookupStabilitySig:vector  ETV
vector 7724  Network.dyn_peer[14]  lookupTimeSig:vector  ETV
vector 7731  Network.dyn_peer[17]  lookupHopsSig:vector  ETV
vector 7732  Network.dyn_peer[17]  lookupStabilitySig:vector  ETV
vector 7733  Network.dyn_peer[17]  lookupTimeSig:vector  ETV
vector 7743  Network.dyn_peer[21]  lookupHopsSig:vector  ETV
vector 7744  Network.dyn_peer[21]  lookupStabilitySig:vector  ETV
vector 7745  Network.dyn_peer[21]  lookupTimeSig:vector  ETV
vector 7764  Network.dyn_peer[28]  lookupHopsSig:vector  ETV
vector 7765  Network.dyn_peer[28]  lookupStabilitySig:vector  ETV
vector 7766  Network.dyn_peer[28]  lookupTimeSig:vector  ETV
vector 7689  Network.dyn_peer[3]  lookupHopsSig:vector  ETV
vector 7690  Network.dyn_peer[3]  lookupStabilitySig:vector  ETV
vector 7691  Network.dyn_peer[3]  lookupTimeSig:vector  ETV
vector 7692  Network.dyn_peer[4]  lookupHopsSig:vector  ETV
vector 7693  Network.dyn_peer[4]  lookupStabilitySig:vector  ETV
vector 7694  Network.dyn_peer[4]  lookupTimeSig:vector  ETV
vector 7716  Network.dyn_peer[12]  lookupHopsSig:vector  ETV
vector 7717  Network.dyn_peer[12]  lookupStabilitySig:vector  ETV
vector 7718  Network.dyn_peer[12]  lookupTimeSig:vector  ETV
vector 7719  Network.dyn_peer[13]  lookupHopsSig:vector  ETV
vector 7720  Network.dyn_peer[13]  lookupStabilitySig:vector  ETV
vector 7721  Network.dyn_peer[13]  lookupTimeSig:vector  ETV
vector 7734  Network.dyn_peer[18]  lookupHopsSig:vector  ETV
vector 7735  Network.dyn_peer[18]  lookupStabilitySig:vector  ETV
vector 7736  Network.dyn_peer[18]  lookupTimeSig:vector  ETV
vector 7740  Network.dyn_peer[20]  lookupHopsSig:vector  ETV
vector 7741  Network.dyn_peer[20]  lookupStabilitySig:vector  ETV
vector 7742  Network.dyn_peer[20]  lookupTimeSig:vector  ETV
vector 7755  Network.dyn_peer[25]  lookupHopsSig:vector  ETV
vector 7756  Network.dyn_peer[25]  lookupStabilitySig:vector  ETV
vector 7757  Network.dyn_peer[25]  lookupTimeSig:vector  ETV
vector 7761  Network.dyn_peer[27]  lookupHopsSig:vector  ETV
vector 7762  Network.dyn_peer[27]  lookupStabilitySig:vector  ETV
vector 7763  Network.dyn_peer[27]  lookupTimeSig:vector  ETV
vector 7773  Network.dyn_peer[31]  lookupHopsSig:vector  ETV
vector 7774  Network.dyn_peer[31]  lookupStabilitySig:vector  ETV
vector 7775  Network.dyn_peer[31]  lookupTimeSig:vector  ETV
vector 7698  Network.dyn_peer[6]  lookupHopsSig:vector  ETV
vector 7699  Network.dyn_peer[6]  lookupStabilitySig:vector  ETV
vector 7700  Network.dyn_peer[6]  lookupTimeSig:vector  ETV
vector 7701  Network.dyn_peer[7]  lookupHopsSig:vector  ETV
vector 7702  Network.dyn_peer[7]  lookupStabilitySig:vector  ETV
vector 7703  Network.dyn_peer[7]  lookupTimeSig:vector  ETV
vector 7710  Network.dyn_peer[10]  lookupHopsSig:vector  ETV
vector 7711  Network.dyn_peer[10]  lookupStabilitySig:vector  ETV
vector 7712  Network.dyn_peer[10]  lookupTimeSig:vector  ETV
vector 7713  Network.dyn_peer[11]  lookupHopsSig:vector  ETV
vector 7714  Network.dyn_peer[11]  lookupStabilitySig:vector  ETV
vector 7715  Network.dyn_peer[11]  lookupTimeSig:vector  ETV
vector 7758  Network.dyn_peer[26]  lookupHopsSig:vector  ETV
vector 7759  Network.dyn_peer[26]  lookupStabilitySig:vector  ETV
vector 7760  Network.dyn_peer[26]  lookupTimeSig:vector  ETV
vector 7767  Network.dyn_peer[29]  lookupHopsSig:vector  ETV
vector 7768  Network.dyn_peer[29]  lookupStabilitySig:vector  ETV
vector 7769  Network.dyn_peer[29]  lookupTimeSig:vector  ETV
vector 7695  Network.dyn_peer[5]  lookupHopsSig:vector  ETV
vector 7696  Network.dyn_peer[5]  lookupStabilitySig:vector  ETV
vector 7697  Network.dyn_peer[5]  lookupTimeSig:vector  ETV
vector 7725  Network.dyn_peer[15]  lookupHopsSig:vector  ETV
vector 7726  Network.dyn_peer[15]  lookupStabilitySig:vector  ETV
vector 7727  Network.dyn_peer[15]  lookupTimeSig:vector  ETV
vector 7737  Network.dyn_peer[19]  lookupHopsSig:vector  ETV
vector 7738  Network.dyn_peer[19]  lookupStabilitySig:vector  ETV
vector 7739  Network.dyn_peer[19]  lookupTimeSig:vector  ETV
vector 7749  Network.dyn_peer[23]  lookupHopsSig:vector  ETV
vector 7750  Network.dyn_peer[23]  lookupStabilitySig:vector  ETV
vector 7751  Network.dyn_peer[23]  lookupTimeSig:vector  ETV
vector 7752  Network.dyn_peer[24]  lookupHopsSig:vector  ETV
vector 7753  Network.dyn_peer[24]  lookupStabilitySig:vector  ETV
vector 7754  Network.dyn_peer[24]  lookupTimeSig:vector  ETV
vector 7770  Network.dyn_peer[30]  lookupHopsSig:vector  ETV
vector 7771  Network.dyn_peer[30]  lookupStabilitySig:vector  ETV
vector 7772  Network.dyn_peer[30]  lookupTimeSig:vector  ETV
7680	6399 8951 139 137265 20.10001 136.502924101933 304 0 17 1284 8170
7681	15350 9966 139 137265 20.10001 136.502924101933 304 -1.125 1 143.65277773142 110.76176693852
7682	25316 9524 139 137265 20.10001 136.502924101933 304 0 1.5 142.9 88.69
7683	34840 8608 144 137519 20.10002 136.78582639254 293 0 25 1241 8463
7684	43448 9598 144 137519 20.10002 136.78582639254 293 -2.125 1 137.94444443285 115.08063270023
7685	53046 9153 144 137519 20.10002 136.78582639254 293 0 2.2 137.9 89.87
7686	62199 8326 149 136626 20.10003 135.946293524685 284 0 23 1273 8521
7687	70525 9276 149 136626 20.10003 135.946293524685 284 -1.875 1 125.11111110449 98.992283943259
7688	79801 8845 149 136626 20.10003 135.946293524685 284 0 2.1 140.4 92.96
7689	88646 9215 206 136573 20.20004 135.902835366796 314 0 18 1266 7616
7690	97861 10311 206 136573 20.20004 135.902835366796 314 -1.25 1 155.88888886571 116.66628083403
7691	108172 9824 206 136573 20.20004 135.902835366796 314 0 1.5 142.7 83.83
7692	117996 8652 211 137664 20.20005 137.103363523544 294 0 19 1186 7582
7693	126648 9635 211 137664 20.20005 137.103363523544 294 -1.375 1 145.84722220898 116.08121140283
7694	136283 9189 211 137664 20.20005 137.103363523544 294 0 1.8 133.1 82.63
7695	145472 8760 344 136243 20.40006 135.632125332239 298 0 20 1211 7557
7696	154232 9758 344 136243 20.40006 135.632125332239 298 -1.5 1 146.625 113.328125
7697	163990 9324 344 136243 20.40006 135.632125332239 298 0 1.6 134.6 81.38
7698	173314 8550 279 136843 20.30007 136.145066998466 291 0 26 1267 8865
7699	181864 9496 279 136843 20.30007 136.145066998466 291 -2.25 1 132.625 112.765625
7700	191360 9084 279 136843 20.30007 136.145066998466 291 0 2.4 138.9 93.89
7701	200444 9443 284 136964 20.30008 136.245411792723 322 0 20 1403 9079
7702	209887 10471 284 136964 20.30008 136.245411792723 322 -1.5 1 146.69444441795 113.16628084065
7703	220358 10051 284 136964 20.30008 136.245411792723 322 0 1.9 157.6 101.04
7704	230409 9469 159 137087 20.10009 136.345771612923 321 0 26 1417 10847
7705	239878 10524 159 137087 20.10009 136.345771612923 321 -2.25 1 143.91666665673 136.2881944312
7706	250402 10055 159 137087 20.10009 136.345771612923 321 0 2.6 156.7 113.65
7707	260457 8756 57 136541 20.0001 135.870250841844 298 0 34 1366 10256
7708	269213 9740 57 136541 20.0001 135.870250841844 298 -3.25 1 127.37499996275 116.88522372717
7709	278953 9295 57 136541 20.0001 135.870250841844 298 0 3 148.5 105.49
7710	288248 9310 292 137589 20.30011 136.881836862125 317 0 15 1272 7884
7711	297558 10400 292 137589 20.30011 136.881836862125 317 -0.875 1 158.18055552989 122.36168979384
7712	307958 9898 292 137589 20.30011 136.881836862125 317 0 1.3 141.2 85.1
7713	317856 8456 297 137031 20.30012 136.297304073497 287 0 15 1233 7941
7714	326312 9407 297 137031 20.30012 136.297304073497 287 -0.875 1 132.875 102.828125
7715	335719 8989 297 137031 20.30012 136.297304073497 287 0 1.4 138.5 87.99
7716	344708 8925 223 136680 20.20013 135.970690496012 304 0 14 1253 7687
7717	353633 9948 223 136680 20.20013 135.970690496012 304 -0.75 1 147.48611107469 110.97010027185
7718	363581 9491 223 136680 20.20013 135.970690496012 304 0 1.4 142.2 86.72
7719	373072 9580 228 136307 20.20014 135.665334952012 326 0 21 1370 9344
7720	382652 10604 228 136307 20.20014 135.665334952012 326 -1.625 1 154.875 129.484375
7721	393256 10179 228 136307 20.20014 135.665334952012 326 0 2 152.8 100.98
7722	403435 8384 169 136465 20.10015 135.811748213849 285 0 19 1322 9948
7723	411819 9324 169 136465 20.10015 135.811748213849 285 -1.375 1 119.95833328366 109.8524305688
7724	421143 8912 169 136465 20.10015 135.811748213849 285 0 1.7 145.1 102.53
7725	430055 8649 358 137716 20.40016 137.329520936395 293 0 21 1274 9450
7726	438704 9621 358 137716 20.40016 137.329520936395 293 -1.625 1 133.75 122.15625
7727	448325 9192 358 137716 20.40016 137.329520936395 293 0 2.2 140.1 96.01
7728	457517 9452 82 137651 20.00017 137.088996370294 321 0 17 1316 8338
7729	466969 10533 82 137651 20.00017 137.088996370294 321 -1.125 1 156.63888886571 122.38850306949
7730	477502 10060 82 137651 20.00017 137.088996370294 321 0 1.6 147.3 91.65
7731	487562 8980 175 137211 20.10018 136.460329598732 306 0 26 1296 8844
7732	496542 9990 175 137211 20.10018 136.460329598732 306 -2.25 1 144.08333331347 120.2951388624
7733	506532 9547 175 137211 20.10018 136.460329598732 306 0 2.3 144 94.7
7734	516079 8944 236 136208 20.20019 135.563813559466 303 0 20 1275 9219
7735	525023 9934 236 136208 20.20019 135.563813559466 303 -1.5 1 143.66666665673 128.3506944312
7736	534957 9479 236 136208 20.20019 135.563813559466 303 0 2 142.5 99.25
7737	544436 8658 364 137763 20.4002 137.692001759152 295 0 24 1223 8395
7738	553094 9655 364 137763 20.4002 137.692001759152 295 -2 1 142.125 120.421875
7739	562749 9220 364 137763 20.4002 137.692001759152 295 0 2.3 137.8 90.8
7740	571969 7905 242 137399 20.20021 136.648418393714 268 0 19 1399 11215
7741	579874 8803 242 137399 20.20021 136.648418393714 268 -1.375 1 93.180555552244 93.543016971629
7742	588677 8378 242 137399 20.20021 136.648418393714 268 0 1.7 150.2 115.38
7743	597055 8346 183 136903 20.10022 136.175731088001 284 0 18 1233 8187
7744	605401 9274 183 136903 20.10022 136.175731088001 284 -1.25 1 129.90277777612 103.71431326903
7745	614675 8880 183 136903 20.10022 136.175731088001 284 0 1.7 137.7 90.33
7746	623555 8253 104 136807 20.00023 136.116518066441 280 0 33 1239 9555
7747	631808 9174 104 136807 20.00023 136.116518066441 280 -3.125 1 125.16666665673 119.6006944312
7748	640982 8770 104 136807 20.00023 136.116518066441 280 0 3 136.9 98.19
7749	649752 9354 372 137729 20.40024 137.357794495497 318 0 20 1280 7960
7750	659106 10438 372 137729 20.40024 137.357794495497 318 -1.5 1 158.20833328366 122.52604162693
7751	669544 9934 372 137729 20.40024 137.357794495497 318 0 1.7 144.9 89.71
7752	679478 8713 417 137534 20.50025 136.802824101933 296 0 21 1282 8732
7753	688191 9703 417 137534 20.50025 136.802824101933 296 -1.625 1 135.80555555224 111.99614197163
7754	697894 9274 417 137534 20.50025 136.802824101933 296 0 1.9 140.7 91.37
7755	707168 8166 251 136586 20.20026 135.912206318986 277 0 17 1241 8381
7756	715334 9076 251 136586 20.20026 135.912206318986 277 -1.125 1 121.88888888806 97.727623455318
7757	724410 8684 251 136586 20.20026 135.912206318986 277 0 1.5 136.9 89.93
7758	733094 8793 316 137677 20.30027 137.128041149556 298 0 19 1272 8508
7759	741887 9789 316 137677 20.30027 137.128041149556 298 -1.375 1 139.04166665673 112.9913194312
7760	751676 9352 316 137677 20.30027 137.128041149556 298 0 1.5 140.7 89.51
7761	761028 9296 257 137143 20.20028 136.379865228728 316 0 17 1253 7877
7762	770324 10338 257 137143 20.20028 136.379865228728 316 -1.125 1 159.375 125.828125
7763	780662 9875 257 137143 20.20028 136.379865228728 316 0 1.6 141.4 86.8
7764	790537 8306 194 136152 20.10029 135.546455679562 283 0 25 1224 8316
7765	798843 9227 194 136152 20.10029 135.546455679562 283 -2.125 1 130 106.9375
7766	808070 8838 194 136152 20.10029 135.546455679562 283 0 2.5 135.7 90.51
7767	816908 9376 323 136313 20.3003 135.668800244401 319 0 26 1277 8267
7768	826284 10468 323 136313 20.3003 135.668800244401 319 -2.25 1 159.56944441795 129.11400460755
7769	836752 9980 323 136313 20.3003 135.668800244401 319 0 2.2 143.7 89.21
7770	846732 8255 514 136367 20.70031 135.720595782415 281 0 18 1218 8046
7771	854987 9186 514 136367 20.70031 135.720595782415 281 -1.25 1 128.88888886571 102.30632714136
7772	864173 8778 514 136367 20.70031 135.720595782415 281 0 1.6 135.7 87.55
7773	872951 8409 265 137310 20.20032 136.552972037601 285 0 18 1329 9551
7774	881360 9341 265 137310 20.20032 136.552972037601 285 -1.25 1 118.95833331347 102.03298609787
7775	890701 8930 265 137310 20.20032 136.552972037601 285 0 1.7 144.6 99.42
