file 939674 1369516967                                          
version 2
run Stability-norelink-130-20130525-23:22:43-22103
attr configname Stability-norelink
attr datetime 20130525-23:22:43
attr experiment Stability
attr inifile omnetpp.ini
attr iterationvars $0=1e-7
attr iterationvars2 "$0=1e-7, $repetition=0"
attr measurement $0=1e-7
attr network Network
attr processid 22103
attr repetition 0
attr replication #0
attr resultdir results
attr runnumber 130
attr seedset 130

vector 12489  Network.dyn_peer[3]  lookupHopsSig:vector  ETV
vector 12490  Network.dyn_peer[3]  lookupStabilitySig:vector  ETV
vector 12491  Network.dyn_peer[3]  lookupTimeSig:vector  ETV
vector 12495  Network.dyn_peer[5]  lookupHopsSig:vector  ETV
vector 12496  Network.dyn_peer[5]  lookupStabilitySig:vector  ETV
vector 12497  Network.dyn_peer[5]  lookupTimeSig:vector  ETV
vector 12555  Network.dyn_peer[25]  lookupHopsSig:vector  ETV
vector 12556  Network.dyn_peer[25]  lookupStabilitySig:vector  ETV
vector 12557  Network.dyn_peer[25]  lookupTimeSig:vector  ETV
vector 12480  Network.dyn_peer[0]  lookupHopsSig:vector  ETV
vector 12481  Network.dyn_peer[0]  lookupStabilitySig:vector  ETV
vector 12482  Network.dyn_peer[0]  lookupTimeSig:vector  ETV
vector 12492  Network.dyn_peer[4]  lookupHopsSig:vector  ETV
vector 12493  Network.dyn_peer[4]  lookupStabilitySig:vector  ETV
vector 12494  Network.dyn_peer[4]  lookupTimeSig:vector  ETV
vector 12519  Network.dyn_peer[13]  lookupHopsSig:vector  ETV
vector 12520  Network.dyn_peer[13]  lookupStabilitySig:vector  ETV
vector 12521  Network.dyn_peer[13]  lookupTimeSig:vector  ETV
vector 12528  Network.dyn_peer[16]  lookupHopsSig:vector  ETV
vector 12529  Network.dyn_peer[16]  lookupStabilitySig:vector  ETV
vector 12530  Network.dyn_peer[16]  lookupTimeSig:vector  ETV
vector 12534  Network.dyn_peer[18]  lookupHopsSig:vector  ETV
vector 12535  Network.dyn_peer[18]  lookupStabilitySig:vector  ETV
vector 12536  Network.dyn_peer[18]  lookupTimeSig:vector  ETV
vector 12537  Network.dyn_peer[19]  lookupHopsSig:vector  ETV
vector 12538  Network.dyn_peer[19]  lookupStabilitySig:vector  ETV
vector 12539  Network.dyn_peer[19]  lookupTimeSig:vector  ETV
vector 12561  Network.dyn_peer[27]  lookupHopsSig:vector  ETV
vector 12562  Network.dyn_peer[27]  lookupStabilitySig:vector  ETV
vector 12563  Network.dyn_peer[27]  lookupTimeSig:vector  ETV
vector 12486  Network.dyn_peer[2]  lookupHopsSig:vector  ETV
vector 12487  Network.dyn_peer[2]  lookupStabilitySig:vector  ETV
vector 12488  Network.dyn_peer[2]  lookupTimeSig:vector  ETV
vector 12504  Network.dyn_peer[8]  lookupHopsSig:vector  ETV
vector 12505  Network.dyn_peer[8]  lookupStabilitySig:vector  ETV
vector 12506  Network.dyn_peer[8]  lookupTimeSig:vector  ETV
vector 12507  Network.dyn_peer[9]  lookupHopsSig:vector  ETV
vector 12508  Network.dyn_peer[9]  lookupStabilitySig:vector  ETV
vector 12509  Network.dyn_peer[9]  lookupTimeSig:vector  ETV
vector 12516  Network.dyn_peer[12]  lookupHopsSig:vector  ETV
vector 12517  Network.dyn_peer[12]  lookupStabilitySig:vector  ETV
vector 12518  Network.dyn_peer[12]  lookupTimeSig:vector  ETV
vector 12525  Network.dyn_peer[15]  lookupHopsSig:vector  ETV
vector 12526  Network.dyn_peer[15]  lookupStabilitySig:vector  ETV
vector 12527  Network.dyn_peer[15]  lookupTimeSig:vector  ETV
vector 12531  Network.dyn_peer[17]  lookupHopsSig:vector  ETV
vector 12532  Network.dyn_peer[17]  lookupStabilitySig:vector  ETV
vector 12533  Network.dyn_peer[17]  lookupTimeSig:vector  ETV
vector 12540  Network.dyn_peer[20]  lookupHopsSig:vector  ETV
vector 12541  Network.dyn_peer[20]  lookupStabilitySig:vector  ETV
vector 12542  Network.dyn_peer[20]  lookupTimeSig:vector  ETV
vector 12546  Network.dyn_peer[22]  lookupHopsSig:vector  ETV
vector 12547  Network.dyn_peer[22]  lookupStabilitySig:vector  ETV
vector 12548  Network.dyn_peer[22]  lookupTimeSig:vector  ETV
vector 12549  Network.dyn_peer[23]  lookupHopsSig:vector  ETV
vector 12550  Network.dyn_peer[23]  lookupStabilitySig:vector  ETV
vector 12551  Network.dyn_peer[23]  lookupTimeSig:vector  ETV
vector 12552  Network.dyn_peer[24]  lookupHopsSig:vector  ETV
vector 12553  Network.dyn_peer[24]  lookupStabilitySig:vector  ETV
vector 12554  Network.dyn_peer[24]  lookupTimeSig:vector  ETV
vector 12558  Network.dyn_peer[26]  lookupHopsSig:vector  ETV
vector 12559  Network.dyn_peer[26]  lookupStabilitySig:vector  ETV
vector 12560  Network.dyn_peer[26]  lookupTimeSig:vector  ETV
vector 12567  Network.dyn_peer[29]  lookupHopsSig:vector  ETV
vector 12568  Network.dyn_peer[29]  lookupStabilitySig:vector  ETV
vector 12569  Network.dyn_peer[29]  lookupTimeSig:vector  ETV
vector 12498  Network.dyn_peer[6]  lookupHopsSig:vector  ETV
vector 12499  Network.dyn_peer[6]  lookupStabilitySig:vector  ETV
vector 12500  Network.dyn_peer[6]  lookupTimeSig:vector  ETV
vector 12513  Network.dyn_peer[11]  lookupHopsSig:vector  ETV
vector 12514  Network.dyn_peer[11]  lookupStabilitySig:vector  ETV
vector 12515  Network.dyn_peer[11]  lookupTimeSig:vector  ETV
vector 12522  Network.dyn_peer[14]  lookupHopsSig:vector  ETV
vector 12523  Network.dyn_peer[14]  lookupStabilitySig:vector  ETV
vector 12524  Network.dyn_peer[14]  lookupTimeSig:vector  ETV
vector 12564  Network.dyn_peer[28]  lookupHopsSig:vector  ETV
vector 12565  Network.dyn_peer[28]  lookupStabilitySig:vector  ETV
vector 12566  Network.dyn_peer[28]  lookupTimeSig:vector  ETV
vector 12573  Network.dyn_peer[31]  lookupHopsSig:vector  ETV
vector 12574  Network.dyn_peer[31]  lookupStabilitySig:vector  ETV
vector 12575  Network.dyn_peer[31]  lookupTimeSig:vector  ETV
vector 12501  Network.dyn_peer[7]  lookupHopsSig:vector  ETV
vector 12502  Network.dyn_peer[7]  lookupStabilitySig:vector  ETV
vector 12503  Network.dyn_peer[7]  lookupTimeSig:vector  ETV
vector 12543  Network.dyn_peer[21]  lookupHopsSig:vector  ETV
vector 12544  Network.dyn_peer[21]  lookupStabilitySig:vector  ETV
vector 12545  Network.dyn_peer[21]  lookupTimeSig:vector  ETV
vector 12570  Network.dyn_peer[30]  lookupHopsSig:vector  ETV
vector 12571  Network.dyn_peer[30]  lookupStabilitySig:vector  ETV
vector 12572  Network.dyn_peer[30]  lookupTimeSig:vector  ETV
vector 12483  Network.dyn_peer[1]  lookupHopsSig:vector  ETV
vector 12484  Network.dyn_peer[1]  lookupStabilitySig:vector  ETV
vector 12485  Network.dyn_peer[1]  lookupTimeSig:vector  ETV
vector 12510  Network.dyn_peer[10]  lookupHopsSig:vector  ETV
vector 12511  Network.dyn_peer[10]  lookupStabilitySig:vector  ETV
vector 12512  Network.dyn_peer[10]  lookupTimeSig:vector  ETV
12480	6498 8339 134 135930 20.1000000001 134.57515955723 274 0 23 1305 9777
12481	14837 9231 134 135930 20.1000000001 134.57515955723 274 -1.875 1 110.94444441795 100.57253084065
12482	24068 8840 134 135930 20.1000000001 134.57515955723 274 0 2.1 143.4 105.28
12483	32908 9769 441 135941 20.6000000002 134.578109220197 321 1 15 1307 8089
12484	42677 10844 441 135941 20.6000000002 134.578109220197 321 -0.875 0.875 157.76388883591 120.59047069079
12485	53521 10372 441 135941 20.6000000002 134.578109220197 321 0.1 1.4 146.9 89.13
12486	63893 9261 196 136368 20.2000000003 135.055257750531 304 0 19 1262 8436
12487	73154 10228 196 136368 20.2000000003 135.055257750531 304 -1.375 1 146.25 120.3125
12488	83382 9819 196 136368 20.2000000003 135.055257750531 304 0 1.8 139.1 89.01
12489	93201 9922 37 136824 20.0000000004 135.650158625334 326 0 15 1254 7490
12490	103123 10976 37 136824 20.0000000004 135.650158625334 326 -0.875 1 169.31944441795 129.58815584065
12491	114099 10543 37 136824 20.0000000004 135.650158625334 326 0 1.4 142.8 84.26
12492	124642 9357 142 135926 20.1000000005 134.573419809508 308 0 22 1281 8569
12493	133999 10391 142 135926 20.1000000005 134.573419809508 308 -1.75 1 147.93055555224 121.69926697163
12494	144390 9927 142 135926 20.1000000005 134.573419809508 308 0 1.8 144.2 92.38
12495	154317 9437 47 136650 20.0000000006 135.408706379655 310 0 16 1345 8649
12496	163754 10473 47 136650 20.0000000006 135.408706379655 310 -1 1 141.94444441795 108.94753084065
12497	174227 10017 47 136650 20.0000000006 135.408706379655 310 0 1.4 150.8 97.24
12498	184244 8892 284 136892 20.3000000007 135.750839205013 292 0 19 1184 7670
12499	193136 9840 284 136892 20.3000000007 135.750839205013 292 -1.375 1 144 115.84375
12500	202976 9445 284 136892 20.3000000007 135.750839205013 292 0 1.8 132.4 83.4
12501	212421 9044 344 136782 20.4000000008 135.596020211868 296 0 22 1249 8093
12502	221465 10034 344 136782 20.4000000008 135.596020211868 296 -1.75 1 139.97222220898 110.31558640283
12503	231499 9601 344 136782 20.4000000008 135.596020211868 296 0 1.8 139.4 86.64
12504	241100 9027 207 136267 20.2000000009 134.944478841798 296 0 29 1282 9188
12505	250127 10023 207 136267 20.2000000009 134.944478841798 296 -2.625 1 135.93055550754 119.21045520755
12506	260150 9577 207 136267 20.2000000009 134.944478841798 296 0 2.7 140.7 95.97
12507	269727 8682 212 136841 20.200000001 135.65987725559 285 0 20 1207 7959
12508	278409 9620 212 136841 20.200000001 135.65987725559 285 -1.5 1 134.19444443285 107.70563270023
12509	288029 9216 212 136841 20.200000001 135.65987725559 285 0 1.8 134.8 85.66
12510	297245 8935 590 136509 20.8000000011 135.244578841798 294 0 21 1299 8777
12511	306180 9963 590 136509 20.8000000011 135.244578841798 294 -1.625 1 132.05555556715 106.12692887511
12512	316143 9480 590 136509 20.8000000011 135.244578841798 294 0 1.7 144.4 93.54
12513	325623 9180 293 136054 20.3000000012 134.65656201778 302 0 21 1261 8167
12514	334803 10160 293 136054 20.3000000012 134.65656201778 302 -1.625 1 144.375 114.359375
12515	344963 9752 293 136054 20.3000000012 134.65656201778 302 0 1.9 141.4 88.86
12516	354715 8288 219 135804 20.2000000013 134.43535710655 273 0 22 1179 8449
12517	363003 9183 219 135804 20.2000000013 134.43535710655 273 -1.75 1 125.65277777612 110.30806326903
12518	372186 8796 219 135804 20.2000000013 134.43535710655 273 0 2 130.6 88.78
12519	380982 8449 155 136032 20.1000000014 134.647536010999 278 0 20 1203 8175
12520	389431 9365 155 136032 20.1000000014 134.647536010999 278 -1.5 1 127.69444443285 105.08063270023
12521	398796 8973 155 136032 20.1000000014 134.647536010999 278 0 1.9 134.1 88.49
12522	407769 9722 300 136965 20.3000000015 136.067585862773 319 0 17 1231 7635
12523	417491 10814 300 136965 20.3000000015 136.067585862773 319 -1.125 1 165.24999997765 130.72145058675
12524	428305 10309 300 136965 20.3000000015 136.067585862773 319 0 1.5 139.8 84.44
12525	438614 9505 226 135742 20.2000000016 134.338460957517 313 0 17 1239 7533
12526	448119 10511 226 135742 20.2000000016 134.338460957517 313 -1.125 1 158.13888888806 120.97762345532
12527	458630 10097 226 135742 20.2000000016 134.338460957517 313 0 1.6 139.6 83.58
12528	468727 9677 162 136538 20.1000000017 135.276836737684 318 0 23 1244 7840
12529	478404 10733 162 136538 20.1000000017 135.276836737684 318 -1.875 1 162.52777777612 129.54243826903
12530	489137 10272 162 136538 20.1000000017 135.276836737684 318 0 2.1 139.6 84.48
12531	499409 9579 232 136665 20.2000000018 135.421123395622 315 1 23 1399 9205
12532	508988 10628 232 136665 20.2000000018 135.421123395622 315 -1.875 0.875 140.125 109.078125
12533	519616 10172 232 136665 20.2000000018 135.421123395622 315 0.1 2.2 154.1 100.41
12534	529788 8819 168 136627 20.1000000019 135.38020027643 289 0 19 1275 8833
12535	538607 9800 168 136627 20.1000000019 135.38020027643 289 -1.375 1 129.81944443285 108.3790509182
12536	548407 9355 168 136627 20.1000000019 135.38020027643 289 0 1.8 141 94.34
12537	557762 9122 173 136992 20.100000002 136.311466505998 299 0 23 1213 7907
12538	566884 10140 173 136992 20.100000002 136.311466505998 299 -1.875 1 147.47222220898 119.40933640283
12539	577024 9682 173 136992 20.100000002 136.311466505998 299 0 2.1 134.8 84.4
12540	586706 8997 239 136424 20.2000000021 135.144675410859 296 0 25 1252 8422
12541	595703 9966 239 136424 20.2000000021 135.144675410859 296 -2.125 1 139.59722220898 114.70621140283
12542	605669 9549 239 136424 20.2000000021 135.144675410859 296 0 2.3 139.1 90.25
12543	615218 10093 362 135899 20.4000000022 134.547380030169 332 0 16 1260 7428
12544	625311 11179 362 135899 20.4000000022 134.547380030169 332 -1 1 174.58333331347 133.11111109787
12545	636490 10725 362 135899 20.4000000022 134.547380030169 332 0 1.5 144.2 85.26
12546	647215 9048 245 136334 20.2000000023 135.030680843651 297 0 38 1272 9948
12547	656263 9985 245 136334 20.2000000023 135.030680843651 297 -3.75 1 138 134.4375
12548	666248 9610 245 136334 20.2000000023 135.030680843651 297 0 3.4 141.1 101.81
12549	675858 9344 250 136578 20.2000000024 135.334343557947 307 0 18 1229 7251
12550	685202 10369 250 136578 20.2000000024 135.334343557947 307 -1.25 1 153.44444444031 113.15624999338
12551	695571 9930 250 136578 20.2000000024 135.334343557947 307 0 1.6 140.3 84.65
12552	705501 9173 255 135987 20.2000000025 134.620939080272 301 0 18 1243 8083
12553	714674 10175 255 135987 20.2000000025 134.620939080272 301 -1.25 1 145.66666665673 116.6006944312
12554	724849 9728 255 135987 20.2000000025 134.620939080272 301 0 1.6 139.3 89.55
12555	734577 9053 111 136610 20.0000000026 135.359585546113 298 0 21 1315 9151
12556	743630 9988 111 136610 20.0000000026 135.359585546113 298 -1.625 1 133.625 112.234375
12557	753618 9604 111 136610 20.0000000026 135.359585546113 298 0 1.8 144 95.58
12558	763222 10558 261 136684 20.2000000027 135.441415332427 346 0 19 1354 8498
12559	773780 11704 261 136684 20.2000000027 135.441415332427 346 -1.375 1 176.79166665673 140.3350694312
12560	785484 11203 261 136684 20.2000000027 135.441415332427 346 0 1.7 153.1 94.09
12561	796687 8928 185 135681 20.1000000028 134.271904735639 293 0 26 1273 8969
12562	805615 9879 185 135681 20.1000000028 134.271904735639 293 -2.25 1 133.95833330601 114.97202929597
12563	815494 9461 185 135681 20.1000000028 134.271904735639 293 0 2.4 140.2 94.48
12564	824955 8932 318 136467 20.3000000029 135.206679952857 292 0 21 1229 8837
12565	833887 9940 318 136467 20.3000000029 135.206679952857 292 -1.625 1 138.52777776122 122.94675924822
12566	843827 9460 318 136467 20.3000000029 135.206679952857 292 0 2.1 136.6 94.14
12567	853287 8994 268 136936 20.200000003 135.911366505998 295 0 16 1374 9696
12568	862281 9937 268 136936 20.200000003 135.911366505998 295 -1 1 123.25 103
12569	872218 9539 268 136936 20.200000003 135.911366505998 295 0 1.4 150.1 102.85
12570	881757 9162 375 136874 20.4000000031 135.711366505998 300 0 25 1178 7840
12571	890919 10160 375 136874 20.4000000031 135.711366505998 300 -2.125 1 152.91666662693 128.09722219573
12572	901079 9723 375 136874 20.4000000031 135.711366505998 300 0 2.5 133.1 84.91
12573	910802 9109 325 136006 20.3000000032 134.638360957417 299 0 19 1287 8319
12574	919911 10089 325 136006 20.3000000032 134.638360957417 299 -1.375 1 138.29166665673 107.43653548132
12575	930000 9674 325 136006 20.3000000032 134.638360957417 299 0 1.6 141.1 88.67
