version 2
run Stability-norelink-79-20130525-23:19:16-22103
attr configname Stability-norelink
attr datetime 20130525-23:19:16
attr experiment Stability
attr inifile omnetpp.ini
attr iterationvars $0=1e-1
attr iterationvars2 "$0=1e-1, $repetition=9"
attr measurement $0=1e-1
attr network Network
attr processid 22103
attr repetition 9
attr replication #9
attr resultdir results
attr runnumber 79
attr seedset 79

vector 7596  Network.dyn_peer[4]  lookupHopsSig:vector  ETV
vector 7597  Network.dyn_peer[4]  lookupStabilitySig:vector  ETV
vector 7598  Network.dyn_peer[4]  lookupTimeSig:vector  ETV
vector 7635  Network.dyn_peer[17]  lookupHopsSig:vector  ETV
vector 7636  Network.dyn_peer[17]  lookupStabilitySig:vector  ETV
vector 7637  Network.dyn_peer[17]  lookupTimeSig:vector  ETV
vector 7584  Network.dyn_peer[0]  lookupHopsSig:vector  ETV
vector 7585  Network.dyn_peer[0]  lookupStabilitySig:vector  ETV
vector 7586  Network.dyn_peer[0]  lookupTimeSig:vector  ETV
vector 7587  Network.dyn_peer[1]  lookupHopsSig:vector  ETV
vector 7588  Network.dyn_peer[1]  lookupStabilitySig:vector  ETV
vector 7589  Network.dyn_peer[1]  lookupTimeSig:vector  ETV
vector 7593  Network.dyn_peer[3]  lookupHopsSig:vector  ETV
vector 7594  Network.dyn_peer[3]  lookupStabilitySig:vector  ETV
vector 7595  Network.dyn_peer[3]  lookupTimeSig:vector  ETV
vector 7599  Network.dyn_peer[5]  lookupHopsSig:vector  ETV
vector 7600  Network.dyn_peer[5]  lookupStabilitySig:vector  ETV
vector 7601  Network.dyn_peer[5]  lookupTimeSig:vector  ETV
vector 7611  Network.dyn_peer[9]  lookupHopsSig:vector  ETV
vector 7612  Network.dyn_peer[9]  lookupStabilitySig:vector  ETV
vector 7613  Network.dyn_peer[9]  lookupTimeSig:vector  ETV
vector 7617  Network.dyn_peer[11]  lookupHopsSig:vector  ETV
vector 7618  Network.dyn_peer[11]  lookupStabilitySig:vector  ETV
vector 7619  Network.dyn_peer[11]  lookupTimeSig:vector  ETV
vector 7620  Network.dyn_peer[12]  lookupHopsSig:vector  ETV
vector 7621  Network.dyn_peer[12]  lookupStabilitySig:vector  ETV
vector 7622  Network.dyn_peer[12]  lookupTimeSig:vector  ETV
vector 7629  Network.dyn_peer[15]  lookupHopsSig:vector  ETV
vector 7630  Network.dyn_peer[15]  lookupStabilitySig:vector  ETV
vector 7631  Network.dyn_peer[15]  lookupTimeSig:vector  ETV
vector 7632  Network.dyn_peer[16]  lookupHopsSig:vector  ETV
vector 7633  Network.dyn_peer[16]  lookupStabilitySig:vector  ETV
vector 7634  Network.dyn_peer[16]  lookupTimeSig:vector  ETV
vector 7665  Network.dyn_peer[27]  lookupHopsSig:vector  ETV
vector 7666  Network.dyn_peer[27]  lookupStabilitySig:vector  ETV
vector 7667  Network.dyn_peer[27]  lookupTimeSig:vector  ETV
vector 7674  Network.dyn_peer[30]  lookupHopsSig:vector  ETV
vector 7675  Network.dyn_peer[30]  lookupStabilitySig:vector  ETV
vector 7676  Network.dyn_peer[30]  lookupTimeSig:vector  ETV
vector 7602  Network.dyn_peer[6]  lookupHopsSig:vector  ETV
vector 7603  Network.dyn_peer[6]  lookupStabilitySig:vector  ETV
vector 7604  Network.dyn_peer[6]  lookupTimeSig:vector  ETV
vector 7614  Network.dyn_peer[10]  lookupHopsSig:vector  ETV
vector 7615  Network.dyn_peer[10]  lookupStabilitySig:vector  ETV
vector 7616  Network.dyn_peer[10]  lookupTimeSig:vector  ETV
vector 7623  Network.dyn_peer[13]  lookupHopsSig:vector  ETV
vector 7624  Network.dyn_peer[13]  lookupStabilitySig:vector  ETV
vector 7625  Network.dyn_peer[13]  lookupTimeSig:vector  ETV
vector 7638  Network.dyn_peer[18]  lookupHopsSig:vector  ETV
vector 7639  Network.dyn_peer[18]  lookupStabilitySig:vector  ETV
vector 7640  Network.dyn_peer[18]  lookupTimeSig:vector  ETV
vector 7641  Network.dyn_peer[19]  lookupHopsSig:vector  ETV
vector 7642  Network.dyn_peer[19]  lookupStabilitySig:vector  ETV
vector 7643  Network.dyn_peer[19]  lookupTimeSig:vector  ETV
vector 7644  Network.dyn_peer[20]  lookupHopsSig:vector  ETV
vector 7645  Network.dyn_peer[20]  lookupStabilitySig:vector  ETV
vector 7646  Network.dyn_peer[20]  lookupTimeSig:vector  ETV
vector 7650  Network.dyn_peer[22]  lookupHopsSig:vector  ETV
vector 7651  Network.dyn_peer[22]  lookupStabilitySig:vector  ETV
vector 7652  Network.dyn_peer[22]  lookupTimeSig:vector  ETV
vector 7656  Network.dyn_peer[24]  lookupHopsSig:vector  ETV
vector 7657  Network.dyn_peer[24]  lookupStabilitySig:vector  ETV
vector 7658  Network.dyn_peer[24]  lookupTimeSig:vector  ETV
vector 7659  Network.dyn_peer[25]  lookupHopsSig:vector  ETV
vector 7660  Network.dyn_peer[25]  lookupStabilitySig:vector  ETV
vector 7661  Network.dyn_peer[25]  lookupTimeSig:vector  ETV
vector 7668  Network.dyn_peer[28]  lookupHopsSig:vector  ETV
vector 7669  Network.dyn_peer[28]  lookupStabilitySig:vector  ETV
vector 7670  Network.dyn_peer[28]  lookupTimeSig:vector  ETV
vector 7677  Network.dyn_peer[31]  lookupHopsSig:vector  ETV
vector 7678  Network.dyn_peer[31]  lookupStabilitySig:vector  ETV
vector 7679  Network.dyn_peer[31]  lookupTimeSig:vector  ETV
vector 7605  Network.dyn_peer[7]  lookupHopsSig:vector  ETV
vector 7606  Network.dyn_peer[7]  lookupStabilitySig:vector  ETV
vector 7607  Network.dyn_peer[7]  lookupTimeSig:vector  ETV
vector 7626  Network.dyn_peer[14]  lookupHopsSig:vector  ETV
vector 7627  Network.dyn_peer[14]  lookupStabilitySig:vector  ETV
vector 7628  Network.dyn_peer[14]  lookupTimeSig:vector  ETV
vector 7653  Network.dyn_peer[23]  lookupHopsSig:vector  ETV
vector 7654  Network.dyn_peer[23]  lookupStabilitySig:vector  ETV
vector 7655  Network.dyn_peer[23]  lookupTimeSig:vector  ETV
vector 7647  Network.dyn_peer[21]  lookupHopsSig:vector  ETV
vector 7648  Network.dyn_peer[21]  lookupStabilitySig:vector  ETV
vector 7649  Network.dyn_peer[21]  lookupTimeSig:vector  ETV
vector 7662  Network.dyn_peer[26]  lookupHopsSig:vector  ETV
vector 7663  Network.dyn_peer[26]  lookupStabilitySig:vector  ETV
vector 7664  Network.dyn_peer[26]  lookupTimeSig:vector  ETV
vector 7590  Network.dyn_peer[2]  lookupHopsSig:vector  ETV
vector 7591  Network.dyn_peer[2]  lookupStabilitySig:vector  ETV
vector 7592  Network.dyn_peer[2]  lookupTimeSig:vector  ETV
vector 7608  Network.dyn_peer[8]  lookupHopsSig:vector  ETV
vector 7609  Network.dyn_peer[8]  lookupStabilitySig:vector  ETV
vector 7610  Network.dyn_peer[8]  lookupTimeSig:vector  ETV
vector 7671  Network.dyn_peer[29]  lookupHopsSig:vector  ETV
vector 7672  Network.dyn_peer[29]  lookupStabilitySig:vector  ETV
vector 7673  Network.dyn_peer[29]  lookupTimeSig:vector  ETV
7584	136	20.1001	1
7584	354	20.4001	2
7584	1164	21.405851756539	10
7584	1396	21.608741211108	1
7584	1682	21.815433561272	2
7584	2254	22.315433561272	4
7584	2794	22.715559272089	3
7584	3383	23.223975166308	5
7584	3679	23.523975166308	2
7584	4630	24.328651230935	7
7584	4646	24.328851230935	0
7584	4929	24.528851230935	1
7584	5228	24.835519543945	2
7584	5427	25.036281132922	1
7584	5899	25.442122043521	4
7584	6311	25.842122043521	4
7584	6824	26.247474784083	3
7584	7280	26.574347908778	5
7584	7446	26.751089904448	4
7584	7938	27.1559821188	5
7584	10189	29.1559821188	20
7584	11801	30.65633455115	15
7584	12135	30.963479906682	2
7584	12381	31.167162600288	1
7584	12596	31.372782679186	2
7584	13151	31.872782679186	4
7584	13620	32.276877799746	3
7584	13901	32.484935145014	1
7584	13914	32.498535115823	1
7584	14335	32.889943592901	3
7584	14708	33.29147429013	5
7584	15356	33.89147429013	5
7584	15718	34.194400108261	2
7584	16582	34.947148346052	4
7584	16607	34.950881941559	8
7584	16632	34.996889728223	7
7584	17049	35.400051125291	3
7584	17107	35.45345526512	4
7584	17109	35.453960713568	4
7584	17256	35.554160713568	1
7584	18198	36.370492593706	2
7584	18442	36.570492593706	1
7584	19053	37.071956543849	4
7584	19515	37.378990714728	2
7584	20198	37.983500226057	5
7584	20387	38.162579520394	3
7584	20595	38.291967282358	2
7584	20742	38.466659567056	2
7584	21116	38.794453718091	5
7584	21276	38.973399501703	4
7584	21511	39.176900983701	2
7584	21731	39.376900983701	1
7584	22124	39.681129986384	2
7584	22677	40.084175143782	4
7584	23432	40.684175143782	6
7584	24044	41.186419914921	4
7584	24298	41.387556752368	1
7584	24532	41.601948722824	1
7584	24805	41.811663520612	1
7584	25052	42.10821361625	2
7584	25319	42.313444619293	2
7584	25943	42.813444619293	5
7584	26236	43.019655703245	1
7584	26513	43.22967802549	2
7584	26915	43.52967802549	2
7584	27296	43.84225297165	3
7584	27840	44.246116271439	4
7584	28453	44.746116271439	4
7584	28794	45.0486792468	3
7584	28895	45.153813723493	1
7584	29388	45.553813723493	3
7584	29611	45.757066052243	1
7584	29897	45.958417292231	2
7584	30715	46.558417292231	5
7584	31617	47.157572247201	3
7584	31927	47.444002067793	3
7584	31986	47.462378942311	3
7584	31997	47.464349346813	9
7584	32872	48.164549346813	8
7584	34056	49.164549346813	10
7584	35020	49.973731825165	8
7584	35850	50.674646299746	6
7584	36168	50.909604131638	2
7584	36258	50.977567831658	3
7584	36431	51.113980558622	1
7584	36784	51.415333902849	3
7584	37017	51.623030521072	1
7584	37422	52.028823256246	3
7584	37830	52.429023256246	4
7584	38046	52.629023256246	1
7584	40110	54.599930699243	8
7584	40875	55.205845758522	5
7584	41126	55.406045758522	2
7584	41582	55.806045758522	3
7584	42811	56.811674346865	11
7584	43205	57.119819139495	2
7584	43732	57.514870949115	4
7584	43755	57.520979006666	3
7584	45148	58.830428683523	14
7584	45867	59.430428683523	5
7584	46252	59.740202801011	2
7584	46758	60.15117364997	6
7584	47034	60.345006264049	5
7584	47393	60.599861830882	5
7584	47598	60.75238671244	4
7584	47613	60.754182564754	0
7584	48117	61.154182564754	3
7584	48351	61.35491750601	1
7584	48737	61.65841823148	2
7584	49003	61.868098820293	1
7584	49010	61.870583185295	3
7584	49765	62.476113783823	6
7584	50566	63.134277013897	4
7584	50718	63.277285873408	2
7584	50948	63.435251835564	2
7584	51161	63.579388000895	2
7584	51168	63.584293552013	2
7584	51535	63.886928444413	3
7584	52580	64.786928444413	8
7584	52752	64.987854980112	1
7584	52924	65.179412030865	5
7584	53580	65.779612030865	6
7584	54142	66.279612030865	4
7584	54790	66.885849900385	5
7584	55211	67.294609084762	3
7584	55555	67.596190946052	2
7584	56336	68.300828471156	6
7584	57743	69.404392616273	14
7584	58134	69.804392616273	3
7584	58357	70.011143129062	1
7584	58673	70.312451570858	2
7584	58691	70.314621516433	0
7584	58945	70.521394232182	0
7584	60852	72.02593251189	12
7584	61469	72.62593251189	5
7584	61950	73.028827701287	3
7584	61990	73.046869130413	3
7584	62087	73.136372955773	1
7584	62604	73.648683184295	6
7584	62700	73.741899885734	5
7584	62837	73.853809330145	7
7584	63608	74.461408003603	7
7584	63812	74.661408003603	1
7584	64185	75.0620283839	3
7584	64334	75.183187238884	1
7584	64757	75.56535124037	4
7584	65876	76.46555124037	10
7584	66434	76.86555124037	4
7584	67206	77.38926466311	4
7584	67824	77.88946466311	5
7584	68388	78.38946466311	4
7584	68792	78.69500480583	2
7584	69285	79.102771345212	3
7584	69308	79.105545160682	0
7584	69654	79.405545160682	2
7584	70113	79.81530792498	3
7584	71312	80.918641953378	10
7584	71601	81.116122358028	13
7584	71893	81.31227042934	2
7584	72027	81.422250281354	2
7584	72247	81.628986379653	1
7584	72336	81.724212511614	1
7584	72672	82.021895198345	12
7584	73038	82.327315929622	3
7584	73614	82.827315929622	4
7584	74143	83.234243125819	3
7584	75519	84.234721773241	10
7584	75683	84.344234929069	13
7584	75794	84.437027605615	1
7584	76072	84.650122467612	2
7584	76430	84.955308161582	3
7584	77508	85.855308161582	9
7584	77931	86.259241545953	4
7584	78200	86.478241694696	4
7584	78309	86.570333758848	2
7584	78324	86.575790262999	0
7584	78749	86.889733381669	1
7584	79222	87.230127082184	1
7584	80238	88.030074100341	3
7584	80652	88.336774005408	3
7584	81133	88.736774005408	3
7584	81344	88.942964736372	2
7584	81385	89.007349827404	1
7584	81542	89.148386267523	1
7584	81571	89.202448069013	7
7584	81784	89.410599123737	2
7584	82818	90.410599123737	9
7584	83622	91.060862841486	5
7584	83943	91.366806103047	3
7584	83981	91.412188703493	10
7584	84373	91.720061008227	3
7584	84972	92.220061008227	4
7584	85527	92.682720149014	2
7584	85867	92.983369006944	2
7584	86163	93.284945294345	2
7584	86374	93.485145294345	2
7584	86791	93.885145294345	3
7584	86972	94.090749148514	1
7584	87848	94.844174313451	4
7584	88623	95.54761869238	8
7584	90022	96.74761869238	12
7584	90371	97.051541071983	2
7584	90900	97.459666763666	3
7584	91451	97.866303227418	5
7584	91968	98.266303227418	3
7584	92675	98.866770538182	5
7584	93528	99.568197043574	6
7584	93836	99.777186086663	1
7584	94496	100.277386086663	5
7584	94893	100.577386086663	2
7584	95022	100.681989424273	1
7584	95831	101.381989424273	7
7584	96099	101.603554188085	3
7584	96377	101.891472707036	5
7584	96933	102.391672707036	5
7584	97913	103.291672707036	9
7584	98152	103.493103512901	1
7584	98789	104.093303512901	6
7584	99352	104.511135190749	2
7584	99558	104.693303512901	6
7584	100748	105.695134756879	10
7584	101505	106.395134756879	8
7584	101904	106.72700808069	7
7584	102155	106.944785648513	1
7584	102378	107.147991751486	2
7584	102550	107.347991751486	1
7584	102673	107.45793897858	1
7584	102867	107.66270101629	1
7584	103202	107.968337884964	3
7584	104142	108.868337884964	8
7584	104383	109.074955751169	1
7584	104682	109.281632363918	2
7584	105327	109.781632363918	4
7584	106187	110.48753743574	7
7584	106619	110.993586565437	4
7584	107219	111.594078536063	5
7584	107601	111.90154246379	2
7584	107615	111.930063798191	1
7584	108400	112.530906701731	6
7584	109206	113.230906701731	7
7584	109401	113.440866769717	1
7584	109546	113.549594012295	1
7584	109744	113.749594012295	1
7584	110636	114.656412650173	8
7584	111271	115.180033026621	4
7584	111747	115.627664933536	6
7584	111923	115.783715846461	5
7584	113299	116.992406718036	15
7584	113933	117.492406718036	4
7584	116071	119.254874654547	13
7584	116334	119.461624811484	2
7584	117110	120.061624811484	5
7584	117455	120.36226406058	2
7584	117707	120.56246406058	2
7584	118375	121.26246406058	6
7584	118692	121.565627881478	2
7584	119168	121.979273709327	1
7584	119225	122.066488251395	4
7584	119519	122.27399047652	1
7584	120400	122.974860127605	6
7584	120432	122.986479251203	10
7584	121556	123.89514036261	9
7584	122351	124.49514036261	5
7584	122506	124.600332892462	2
7584	122758	124.796000910565	4
7584	122890	124.905463503316	2
7584	122928	124.910690062151	0
7584	123371	125.310690062151	3
7584	123388	125.310890062151	0
7584	123655	125.510890062151	1
7584	123836	125.690527799994	1
7584	124475	126.199037585461	9
7584	124707	126.399037585461	1
7584	125131	126.706274455785	2
7584	125612	127.060603885972	2
7584	126240	127.57040889868	5
7584	126989	128.17040889868	7
7584	128323	129.370733233431	12
7584	128660	129.674106627033	2
7584	128987	129.974515059029	3
7584	129529	130.374515059029	3
7584	129837	130.593131004587	3
7584	130147	130.882696208865	4
7584	130289	131.001224238314	3
7584	130606	131.298171922347	3
7584	131077	131.705054374247	3
7584	131259	131.844295230281	7
7584	131327	131.886477159346	4
7584	132303	132.586677159346	9
7584	134523	134.286677159346	19
7584	135006	134.695258773472	3
7584	135116	134.748770554474	2
7584	135266	134.898131474982	1
7585	136	20.1001	0.875
7585	354	20.4001	0.75
7585	1164	21.405851756539	-0.25
7585	1396	21.608741211108	0.875
7585	1682	21.815433561272	0.75
7585	2254	22.315433561272	0.5
7585	2794	22.715559272089	0.625
7585	3383	23.223975166308	0.375
7585	3679	23.523975166308	0.75
7585	4630	24.328651230935	0.125
7585	4646	24.328851230935	1
7585	4929	24.528851230935	0.875
7585	5228	24.835519543945	0.75
7585	5427	25.036281132922	0.875
7585	5899	25.442122043521	0.5
7585	6311	25.842122043521	0.5
7585	6824	26.247474784083	0.625
7585	7280	26.574347908778	0.375
7585	7446	26.751089904448	0.5
7585	7938	27.1559821188	0.375
7585	10189	29.1559821188	-1.5
7585	11801	30.65633455115	-0.875
7585	12135	30.963479906682	0.75
7585	12381	31.167162600288	0.875
7585	12596	31.372782679186	0.75
7585	13151	31.872782679186	0.5
7585	13620	32.276877799746	0.625
7585	13901	32.484935145014	0.875
7585	13914	32.498535115823	0.875
7585	14335	32.889943592901	0.625
7585	14708	33.29147429013	0.375
7585	15356	33.89147429013	0.375
7585	15718	34.194400108261	0.75
7585	16582	34.947148346052	0.5
7585	16607	34.950881941559	0
7585	16632	34.996889728223	0.125
7585	17049	35.400051125291	0.625
7585	17107	35.45345526512	0.5
7585	17109	35.453960713568	0.5
7585	17256	35.554160713568	0.875
7585	18198	36.370492593706	0.75
7585	18442	36.570492593706	0.875
7585	19053	37.071956543849	0.5
7585	19515	37.378990714728	0.75
7585	20198	37.983500226057	0.375
7585	20387	38.162579520394	0.625
7585	20595	38.291967282358	0.75
7585	20742	38.466659567056	0.75
7585	21116	38.794453718091	0.375
7585	21276	38.973399501703	0.5
7585	21511	39.176900983701	0.75
7585	21731	39.376900983701	0.875
7585	22124	39.681129986384	0.75
7585	22677	40.084175143782	0.5
7585	23432	40.684175143782	0.25
7585	24044	41.186419914921	0.5
7585	24298	41.387556752368	0.875
7585	24532	41.601948722824	0.875
7585	24805	41.811663520612	0.875
7585	25052	42.10821361625	0.75
7585	25319	42.313444619293	0.75
7585	25943	42.813444619293	0.375
7585	26236	43.019655703245	0.875
7585	26513	43.22967802549	0.75
7585	26915	43.52967802549	0.75
7585	27296	43.84225297165	0.625
7585	27840	44.246116271439	0.5
7585	28453	44.746116271439	0.5
7585	28794	45.0486792468	0.625
7585	28895	45.153813723493	0.875
7585	29388	45.553813723493	0.625
7585	29611	45.757066052243	0.875
7585	29897	45.958417292231	0.75
7585	30715	46.558417292231	0.375
7585	31617	47.157572247201	0.625
7585	31927	47.444002067793	0.625
7585	31986	47.462378942311	0.625
7585	31997	47.464349346813	-0.125
7585	32872	48.164549346813	0
7585	34056	49.164549346813	-0.25
7585	35020	49.973731825165	0
7585	35850	50.674646299746	0.25
7585	36168	50.909604131638	0.75
7585	36258	50.977567831658	0.625
7585	36431	51.113980558622	0.875
7585	36784	51.415333902849	0.625
7585	37017	51.623030521072	0.875
7585	37422	52.028823256246	0.625
7585	37830	52.429023256246	0.5
7585	38046	52.629023256246	0.875
7585	40110	54.599930699243	0
7585	40875	55.205845758522	0.375
7585	41126	55.406045758522	0.75
7585	41582	55.806045758522	0.625
7585	42811	56.811674346865	-0.375
7585	43205	57.119819139495	0.75
7585	43732	57.514870949115	0.5
7585	43755	57.520979006666	0.625
7585	45148	58.830428683523	-0.75
7585	45867	59.430428683523	0.375
7585	46252	59.740202801011	0.75
7585	46758	60.15117364997	0.25
7585	47034	60.345006264049	0.375
7585	47393	60.599861830882	0.44444441795349
7585	47598	60.75238671244	0.5
7585	47613	60.754182564754	1
7585	48117	61.154182564754	0.625
7585	48351	61.35491750601	0.875
7585	48737	61.65841823148	0.75
7585	49003	61.868098820293	0.875
7585	49010	61.870583185295	0.625
7585	49765	62.476113783823	0.25
7585	50566	63.134277013897	0.5
7585	50718	63.277285873408	0.75
7585	50948	63.435251835564	0.75
7585	51161	63.579388000895	0.75
7585	51168	63.584293552013	0.75
7585	51535	63.886928444413	0.66666665673256
7585	52580	64.786928444413	0
7585	52752	64.987854980112	0.875
7585	52924	65.179412030865	0.375
7585	53580	65.779612030865	0.25
7585	54142	66.279612030865	0.5
7585	54790	66.885849900385	0.375
7585	55211	67.294609084762	0.625
7585	55555	67.596190946052	0.75
7585	56336	68.300828471156	0.25
7585	57743	69.404392616273	-0.75
7585	58134	69.804392616273	0.625
7585	58357	70.011143129062	0.875
7585	58673	70.312451570858	0.75
7585	58691	70.314621516433	1
7585	58945	70.521394232182	1
7585	60852	72.02593251189	-0.5
7585	61469	72.62593251189	0.375
7585	61950	73.028827701287	0.625
7585	61990	73.046869130413	0.625
7585	62087	73.136372955773	0.875
7585	62604	73.648683184295	0.25
7585	62700	73.741899885734	0.375
7585	62837	73.853809330145	0.125
7585	63608	74.461408003603	0.125
7585	63812	74.661408003603	0.875
7585	64185	75.0620283839	0.625
7585	64334	75.183187238884	0.875
7585	64757	75.56535124037	0.5
7585	65876	76.46555124037	-0.25
7585	66434	76.86555124037	0.5
7585	67206	77.38926466311	0.5
7585	67824	77.88946466311	0.375
7585	68388	78.38946466311	0.5
7585	68792	78.69500480583	0.75
7585	69285	79.102771345212	0.625
7585	69308	79.105545160682	1
7585	69654	79.405545160682	0.75
7585	70113	79.81530792498	0.625
7585	71312	80.918641953378	-0.25
7585	71601	81.116122358028	-0.625
7585	71893	81.31227042934	0.75
7585	72027	81.422250281354	0.75
7585	72247	81.628986379653	0.875
7585	72336	81.724212511614	0.875
7585	72672	82.021895198345	-0.5
7585	73038	82.327315929622	0.625
7585	73614	82.827315929622	0.5
7585	74143	83.234243125819	0.625
7585	75519	84.234721773241	-0.25
7585	75683	84.344234929069	-0.625
7585	75794	84.437027605615	0.875
7585	76072	84.650122467612	0.75
7585	76430	84.955308161582	0.625
7585	77508	85.855308161582	-0.125
7585	77931	86.259241545953	0.5
7585	78200	86.478241694696	0.5
7585	78309	86.570333758848	0.75
7585	78324	86.575790262999	1
7585	78749	86.889733381669	0.875
7585	79222	87.230127082184	0.875
7585	80238	88.030074100341	0.625
7585	80652	88.336774005408	0.625
7585	81133	88.736774005408	0.625
7585	81344	88.942964736372	0.75
7585	81385	89.007349827404	0.875
7585	81542	89.148386267523	0.875
7585	81571	89.202448069013	0.125
7585	81784	89.410599123737	0.75
7585	82818	90.410599123737	-0.125
7585	83622	91.060862841486	0.375
7585	83943	91.366806103047	0.625
7585	83981	91.412188703493	-0.25
7585	84373	91.720061008227	0.625
7585	84972	92.220061008227	0.5
7585	85527	92.682720149014	0.75
7585	85867	92.983369006944	0.75
7585	86163	93.284945294345	0.75
7585	86374	93.485145294345	0.75
7585	86791	93.885145294345	0.625
7585	86972	94.090749148514	0.875
7585	87848	94.844174313451	0.5
7585	88623	95.54761869238	0
7585	90022	96.74761869238	-0.5
7585	90371	97.051541071983	0.75
7585	90900	97.459666763666	0.625
7585	91451	97.866303227418	0.375
7585	91968	98.266303227418	0.625
7585	92675	98.866770538182	0.375
7585	93528	99.568197043574	0.25
7585	93836	99.777186086663	0.875
7585	94496	100.277386086663	0.375
7585	94893	100.577386086663	0.75
7585	95022	100.681989424273	0.875
7585	95831	101.381989424273	0.125
7585	96099	101.603554188085	0.625
7585	96377	101.891472707036	0.375
7585	96933	102.391672707036	0.375
7585	97913	103.291672707036	-0.125
7585	98152	103.493103512901	0.875
7585	98789	104.093303512901	0.25
7585	99352	104.511135190749	0.75
7585	99558	104.693303512901	0.25
7585	100748	105.695134756879	-0.25
7585	101505	106.395134756879	0
7585	101904	106.72700808069	0.125
7585	102155	106.944785648513	0.875
7585	102378	107.147991751486	0.75
7585	102550	107.347991751486	0.875
7585	102673	107.45793897858	0.875
7585	102867	107.66270101629	0.875
7585	103202	107.968337884964	0.625
7585	104142	108.868337884964	0
7585	104383	109.074955751169	0.875
7585	104682	109.281632363918	0.75
7585	105327	109.781632363918	0.5
7585	106187	110.48753743574	0.125
7585	106619	110.993586565437	0.5
7585	107219	111.594078536063	0.375
7585	107601	111.90154246379	0.75
7585	107615	111.930063798191	0.875
7585	108400	112.530906701731	0.25
7585	109206	113.230906701731	0.125
7585	109401	113.440866769717	0.875
7585	109546	113.549594012295	0.875
7585	109744	113.749594012295	0.875
7585	110636	114.656412650173	0
7585	111271	115.180033026621	0.5
7585	111747	115.627664933536	0.25
7585	111923	115.783715846461	0.375
7585	113299	116.992406718036	-0.875
7585	113933	117.492406718036	0.5
7585	116071	119.254874654547	-0.625
7585	116334	119.461624811484	0.75
7585	117110	120.061624811484	0.375
7585	117455	120.36226406058	0.75
7585	117707	120.56246406058	0.75
7585	118375	121.26246406058	0.25
7585	118692	121.565627881478	0.75
7585	119168	121.979273709327	0.875
7585	119225	122.066488251395	0.5
7585	119519	122.27399047652	0.875
7585	120400	122.974860127605	0.25
7585	120432	122.986479251203	-0.25
7585	121556	123.89514036261	-0.125
7585	122351	124.49514036261	0.375
7585	122506	124.600332892462	0.75
7585	122758	124.796000910565	0.5
7585	122890	124.905463503316	0.75
7585	122928	124.910690062151	1
7585	123371	125.310690062151	0.625
7585	123388	125.310890062151	1
7585	123655	125.510890062151	0.875
7585	123836	125.690527799994	0.875
7585	124475	126.199037585461	-0.125
7585	124707	126.399037585461	0.875
7585	125131	126.706274455785	0.75
7585	125612	127.060603885972	0.75
7585	126240	127.57040889868	0.375
7585	126989	128.17040889868	0.125
7585	128323	129.370733233431	-0.5
7585	128660	129.674106627033	0.75
7585	128987	129.974515059029	0.625
7585	129529	130.374515059029	0.625
7585	129837	130.593131004587	0.625
7585	130147	130.882696208865	0.5
7585	130289	131.001224238314	0.625
7585	130606	131.298171922347	0.625
7585	131077	131.705054374247	0.625
7585	131259	131.844295230281	0.22222220897675
7585	131327	131.886477159346	0.5
7585	132303	132.586677159346	-0.125
7585	134523	134.286677159346	-1.375
7585	135006	134.695258773472	0.625
7585	135116	134.748770554474	0.75
7585	135266	134.898131474982	0.875
7586	136	20.1001	0.1
7586	354	20.4001	0.3
7586	1164	21.405851756539	1
7586	1396	21.608741211108	0.2
7586	1682	21.815433561272	0.2
7586	2254	22.315433561272	0.5
7586	2794	22.715559272089	0.4
7586	3383	23.223975166308	0.5
7586	3679	23.523975166308	0.3
7586	4630	24.328651230935	0.8
7586	4646	24.328851230935	0
7586	4929	24.528851230935	0.2
7586	5228	24.835519543945	0.3
7586	5427	25.036281132922	0.2
7586	5899	25.442122043521	0.4
7586	6311	25.842122043521	0.4
7586	6824	26.247474784083	0.4
7586	7280	26.574347908778	0.6
7586	7446	26.751089904448	0.5
7586	7938	27.1559821188	0.4
7586	10189	29.1559821188	2
7586	11801	30.65633455115	1.5
7586	12135	30.963479906682	0.3
7586	12381	31.167162600288	0.2
7586	12596	31.372782679186	0.2
7586	13151	31.872782679186	0.5
7586	13620	32.276877799746	0.4
7586	13901	32.484935145014	0.2
7586	13914	32.498535115823	0.2
7586	14335	32.889943592901	0.4
7586	14708	33.29147429013	0.4
7586	15356	33.89147429013	0.6
7586	15718	34.194400108261	0.3
7586	16582	34.947148346052	0.5
7586	16607	34.950881941559	0.8
7586	16632	34.996889728223	0.8
7586	17049	35.400051125291	0.4
7586	17107	35.45345526512	0.5
7586	17109	35.453960713568	0.5
7586	17256	35.554160713568	0.1
7586	18198	36.370492593706	0.2
7586	18442	36.570492593706	0.2
7586	19053	37.071956543849	0.5
7586	19515	37.378990714728	0.3
7586	20198	37.983500226057	0.6
7586	20387	38.162579520394	0.4
7586	20595	38.291967282358	0.3
7586	20742	38.466659567056	0.3
7586	21116	38.794453718091	0.5
7586	21276	38.973399501703	0.5
7586	21511	39.176900983701	0.2
7586	21731	39.376900983701	0.2
7586	22124	39.681129986384	0.3
7586	22677	40.084175143782	0.4
7586	23432	40.684175143782	0.6
7586	24044	41.186419914921	0.5
7586	24298	41.387556752368	0.2
7586	24532	41.601948722824	0.2
7586	24805	41.811663520612	0.2
7586	25052	42.10821361625	0.3
7586	25319	42.313444619293	0.2
7586	25943	42.813444619293	0.5
7586	26236	43.019655703245	0.2
7586	26513	43.22967802549	0.2
7586	26915	43.52967802549	0.3
7586	27296	43.84225297165	0.3
7586	27840	44.246116271439	0.4
7586	28453	44.746116271439	0.5
7586	28794	45.0486792468	0.3
7586	28895	45.153813723493	0.1
7586	29388	45.553813723493	0.4
7586	29611	45.757066052243	0.2
7586	29897	45.958417292231	0.2
7586	30715	46.558417292231	0.6
7586	31617	47.157572247201	0.4
7586	31927	47.444002067793	0.4
7586	31986	47.462378942311	0.3
7586	31997	47.464349346813	0.9
7586	32872	48.164549346813	0.7
7586	34056	49.164549346813	1
7586	35020	49.973731825165	0.8
7586	35850	50.674646299746	0.7
7586	36168	50.909604131638	0.3
7586	36258	50.977567831658	0.3
7586	36431	51.113980558622	0.2
7586	36784	51.415333902849	0.3
7586	37017	51.623030521072	0.2
7586	37422	52.028823256246	0.4
7586	37830	52.429023256246	0.4
7586	38046	52.629023256246	0.2
7586	40110	54.599930699243	0.8
7586	40875	55.205845758522	0.6
7586	41126	55.406045758522	0.2
7586	41582	55.806045758522	0.4
7586	42811	56.811674346865	1
7586	43205	57.119819139495	0.3
7586	43732	57.514870949115	0.4
7586	43755	57.520979006666	0.4
7586	45148	58.830428683523	1.3
7586	45867	59.430428683523	0.6
7586	46252	59.740202801011	0.3
7586	46758	60.15117364997	0.6
7586	47034	60.345006264049	0.6
7586	47393	60.599861830882	0.5
7586	47598	60.75238671244	0.4
7586	47613	60.754182564754	0
7586	48117	61.154182564754	0.4
7586	48351	61.35491750601	0.2
7586	48737	61.65841823148	0.3
7586	49003	61.868098820293	0.2
7586	49010	61.870583185295	0.4
7586	49765	62.476113783823	0.6
7586	50566	63.134277013897	0.5
7586	50718	63.277285873408	0.3
7586	50948	63.435251835564	0.3
7586	51161	63.579388000895	0.3
7586	51168	63.584293552013	0.3
7586	51535	63.886928444413	0.3
7586	52580	64.786928444413	0.9
7586	52752	64.987854980112	0.2
7586	52924	65.179412030865	0.6
7586	53580	65.779612030865	0.6
7586	54142	66.279612030865	0.5
7586	54790	66.885849900385	0.6
7586	55211	67.294609084762	0.4
7586	55555	67.596190946052	0.3
7586	56336	68.300828471156	0.7
7586	57743	69.404392616273	1.1
7586	58134	69.804392616273	0.4
7586	58357	70.011143129062	0.2
7586	58673	70.312451570858	0.3
7586	58691	70.314621516433	0
7586	58945	70.521394232182	0
7586	60852	72.02593251189	1.1
7586	61469	72.62593251189	0.6
7586	61950	73.028827701287	0.4
7586	61990	73.046869130413	0.4
7586	62087	73.136372955773	0.1
7586	62604	73.648683184295	0.6
7586	62700	73.741899885734	0.6
7586	62837	73.853809330145	0.8
7586	63608	74.461408003603	0.6
7586	63812	74.661408003603	0.2
7586	64185	75.0620283839	0.4
7586	64334	75.183187238884	0.2
7586	64757	75.56535124037	0.5
7586	65876	76.46555124037	0.9
7586	66434	76.86555124037	0.4
7586	67206	77.38926466311	0.5
7586	67824	77.88946466311	0.5
7586	68388	78.38946466311	0.5
7586	68792	78.69500480583	0.3
7586	69285	79.102771345212	0.4
7586	69308	79.105545160682	0
7586	69654	79.405545160682	0.3
7586	70113	79.81530792498	0.4
7586	71312	80.918641953378	1
7586	71601	81.116122358028	1.3
7586	71893	81.31227042934	0.3
7586	72027	81.422250281354	0.3
7586	72247	81.628986379653	0.2
7586	72336	81.724212511614	0.2
7586	72672	82.021895198345	1.1
7586	73038	82.327315929622	0.3
7586	73614	82.827315929622	0.5
7586	74143	83.234243125819	0.4
7586	75519	84.234721773241	1
7586	75683	84.344234929069	1.1
7586	75794	84.437027605615	0.2
7586	76072	84.650122467612	0.3
7586	76430	84.955308161582	0.3
7586	77508	85.855308161582	0.9
7586	77931	86.259241545953	0.4
7586	78200	86.478241694696	0.5
7586	78309	86.570333758848	0.3
7586	78324	86.575790262999	0
7586	78749	86.889733381669	0.1
7586	79222	87.230127082184	0.1