file 936899 1369674155                                          
version 2
run Stability-norelink-113-20130525-23:21:34-22103
attr configname Stability-norelink
attr datetime 20130525-23:21:34
attr experiment Stability
attr inifile omnetpp.ini
attr iterationvars $0=1e-5
attr iterationvars2 "$0=1e-5, $repetition=3"
attr measurement $0=1e-5
attr network Network
attr processid 22103
attr repetition 3
attr replication #3
attr resultdir results
attr runnumber 113
attr seedset 113
vector 10857  Network.dyn_peer[3]  lookupHopsSig:vector  ETV
10857	97593 9171 38 136100 20.00000004 134.955735355367 302 0 18 1258 7796
vector 10858  Network.dyn_peer[3]  lookupStabilitySig:vector  ETV
10858	106764 10167 38 136100 20.00000004 134.955735355367 302 -1.25 1 144.80555555224 109.37114197163
vector 10859  Network.dyn_peer[3]  lookupTimeSig:vector  ETV
10859	116931 9731 38 136100 20.00000004 134.955735355367 302 0 1.7 142.3 89.11
vector 10860  Network.dyn_peer[4]  lookupHopsSig:vector  ETV
10860	126662 9571 45 135927 20.00000005 134.831711298764 315 0 20 1297 8159
vector 10861  Network.dyn_peer[4]  lookupStabilitySig:vector  ETV
10861	136233 10610 45 135927 20.00000005 134.831711298764 315 -1.5 1 152.875 118.234375
vector 10862  Network.dyn_peer[4]  lookupTimeSig:vector  ETV
10862	146843 10164 45 135927 20.00000005 134.831711298764 315 0 1.8 146.5 90.69
vector 10863  Network.dyn_peer[5]  lookupHopsSig:vector  ETV
10863	157007 9361 52 136927 20.00000006 135.736435638971 307 0 29 1327 9691
vector 10864  Network.dyn_peer[5]  lookupStabilitySig:vector  ETV
10864	166368 10388 52 136927 20.00000006 135.736435638971 307 -2.625 1 141.125 126.671875
vector 10865  Network.dyn_peer[5]  lookupTimeSig:vector  ETV
10865	176756 9922 52 136927 20.00000006 135.736435638971 307 0 2.4 146.4 100.8
vector 10890  Network.dyn_peer[14]  lookupHopsSig:vector  ETV
10890	411332 9523 83 137026 20.00000015 135.876205111454 313 0 17 1259 7427
vector 10891  Network.dyn_peer[14]  lookupStabilitySig:vector  ETV
10891	420855 10581 83 137026 20.00000015 135.876205111454 313 -1.125 1 155.70833332837 114.39795524066
vector 10892  Network.dyn_peer[14]  lookupTimeSig:vector  ETV
10892	431436 10123 83 137026 20.00000015 135.876205111454 313 0 1.6 141.2 81.74
vector 10938  Network.dyn_peer[30]  lookupHopsSig:vector  ETV
10938	879960 9236 135 136514 20.00000031 135.280208687808 304 0 15 1198 7160
vector 10939  Network.dyn_peer[30]  lookupStabilitySig:vector  ETV
10939	889196 10250 135 136514 20.00000031 135.280208687808 304 -0.875 1 154.29166665673 116.4288194312
vector 10940  Network.dyn_peer[30]  lookupTimeSig:vector  ETV
10940	899446 9806 135 136514 20.00000031 135.280208687808 304 0 1.5 134.7 80.77
vector 10866  Network.dyn_peer[6]  lookupHopsSig:vector  ETV
10866	186678 8580 149 137137 20.10000007 136.071220358772 282 0 29 1274 9048
vector 10867  Network.dyn_peer[6]  lookupStabilitySig:vector  ETV
10867	195258 9520 149 137137 20.10000007 136.071220358772 282 -2.625 1 122.90277772397 105.01331013662
vector 10868  Network.dyn_peer[6]  lookupTimeSig:vector  ETV
10868	204778 9096 149 137137 20.10000007 136.071220358772 282 0 2.8 141.5 98.79
vector 10875  Network.dyn_peer[9]  lookupHopsSig:vector  ETV
10875	271740 8602 156 137361 20.1000001 136.502237747251 283 0 27 1280 9892
vector 10876  Network.dyn_peer[9]  lookupStabilitySig:vector  ETV
10876	280342 9546 156 137361 20.1000001 136.502237747251 283 -2.375 1 123.02777777612 117.60493826903
vector 10877  Network.dyn_peer[9]  lookupTimeSig:vector  ETV
10877	289888 9117 156 137361 20.1000001 136.502237747251 283 0 2.5 142 104.14
vector 10899  Network.dyn_peer[17]  lookupHopsSig:vector  ETV
10899	499333 9074 168 136801 20.10000018 135.5767598418 298 0 17 1200 7490
vector 10900  Network.dyn_peer[17]  lookupStabilitySig:vector  ETV
10900	508407 10088 168 136801 20.10000018 135.5767598418 298 -1.125 1 148.05555555224 115.11612653806
vector 10901  Network.dyn_peer[17]  lookupTimeSig:vector  ETV
10901	518495 9629 168 136801 20.10000018 135.5767598418 298 0 1.7 135 84.32
vector 10917  Network.dyn_peer[23]  lookupHopsSig:vector  ETV
10917	675552 9155 178 137119 20.10000024 136.054236634867 301 0 15 1322 8686
vector 10918  Network.dyn_peer[23]  lookupStabilitySig:vector  ETV
10918	684707 10162 178 137119 20.10000024 136.054236634867 301 -0.875 1 135.84722220153 106.29185955318
vector 10919  Network.dyn_peer[23]  lookupTimeSig:vector  ETV
10919	694869 9708 178 137119 20.10000024 136.054236634867 301 0 1.4 146.9 95.05
vector 10935  Network.dyn_peer[29]  lookupHopsSig:vector  ETV
10935	851036 9111 188 137387 20.1000003 136.591825351 300 0 18 1272 8498
vector 10936  Network.dyn_peer[29]  lookupStabilitySig:vector  ETV
10936	860147 10136 188 137387 20.1000003 136.591825351 300 -1.25 1 141.32777769864 114.91584875551
vector 10937  Network.dyn_peer[29]  lookupTimeSig:vector  ETV
10937	870283 9677 188 137387 20.1000003 136.591825351 300 0 1.8 141.7 90.99
vector 10854  Network.dyn_peer[2]  lookupHopsSig:vector  ETV
10854	66634 9749 199 135897 20.20000003 134.7766598418 320 0 21 1267 8021
vector 10855  Network.dyn_peer[2]  lookupStabilitySig:vector  ETV
10855	76383 10862 199 135897 20.20000003 134.7766598418 320 -1.625 1 161.88888885081 128.76157404869
vector 10856  Network.dyn_peer[2]  lookupTimeSig:vector  ETV
10856	87245 10348 199 135897 20.20000003 134.7766598418 320 0 1.7 140.9 85.93
vector 10869  Network.dyn_peer[7]  lookupHopsSig:vector  ETV
10869	213874 8766 206 136879 20.20000008 135.680290424796 287 0 17 1217 7881
vector 10870  Network.dyn_peer[7]  lookupStabilitySig:vector  ETV
10870	222640 9722 206 136879 20.20000008 135.680290424796 287 -1.125 1 134.90277777612 105.93306326903
vector 10871  Network.dyn_peer[7]  lookupTimeSig:vector  ETV
10871	232362 9300 206 136879 20.20000008 135.680290424796 287 0 1.6 137.4 88.3
vector 10872  Network.dyn_peer[8]  lookupHopsSig:vector  ETV
10872	241662 9474 211 136890 20.20000009 135.680701892875 312 0 20 1277 8425
vector 10873  Network.dyn_peer[8]  lookupStabilitySig:vector  ETV
10873	251136 10536 211 136890 20.20000009 135.680701892875 312 -1.5 1 152.63888886571 124.04938272341
vector 10874  Network.dyn_peer[8]  lookupTimeSig:vector  ETV
10874	261672 10068 211 136890 20.20000009 135.680701892875 312 0 1.8 142.6 89.76
vector 10878  Network.dyn_peer[10]  lookupHopsSig:vector  ETV
10878	299005 8668 217 136967 20.20000011 135.7768598418 285 0 24 1200 8200
vector 10879  Network.dyn_peer[10]  lookupStabilitySig:vector  ETV
10879	307673 9621 217 136967 20.20000011 135.7768598418 285 -2 1 135.04166665673 113.1788194312
vector 10880  Network.dyn_peer[10]  lookupTimeSig:vector  ETV
10880	317294 9202 217 136967 20.20000011 135.7768598418 285 0 2 133.3 87.09
vector 10902  Network.dyn_peer[18]  lookupHopsSig:vector  ETV
10902	528124 10054 230 136261 20.20000019 135.062748250858 331 0 17 1372 8958
vector 10903  Network.dyn_peer[18]  lookupStabilitySig:vector  ETV
10903	538178 11177 230 136261 20.20000019 135.062748250858 331 -1.125 1 159.68055553734 128.08391201938
vector 10904  Network.dyn_peer[18]  lookupTimeSig:vector  ETV
10904	549355 10665 230 136261 20.20000019 135.062748250858 331 0 1.6 154.4 97.72
vector 10920  Network.dyn_peer[24]  lookupHopsSig:vector  ETV
10920	704577 9383 240 137246 20.20000025 136.261915864581 307 0 19 1239 8029
vector 10921  Network.dyn_peer[24]  lookupStabilitySig:vector  ETV
10921	713960 10396 240 137246 20.20000025 136.261915864581 307 -1.375 1 152.125 122.703125
vector 10922  Network.dyn_peer[24]  lookupTimeSig:vector  ETV
10922	724356 9953 240 137246 20.20000025 136.261915864581 307 0 1.8 140 88.32
vector 10923  Network.dyn_peer[25]  lookupHopsSig:vector  ETV
10923	734309 8296 245 136102 20.20000026 134.956303080822 273 0 18 1201 8623
vector 10924  Network.dyn_peer[25]  lookupStabilitySig:vector  ETV
10924	742605 9233 245 136102 20.20000026 134.956303080822 273 -1.25 1 123.06944444776 107.44695214136
vector 10925  Network.dyn_peer[25]  lookupTimeSig:vector  ETV
10925	751838 8808 245 136102 20.20000026 134.956303080822 273 0 1.8 132.7 90.41
vector 10929  Network.dyn_peer[27]  lookupHopsSig:vector  ETV
10929	790752 9856 251 136832 20.20000028 135.5978325855 324 0 26 1300 9184
vector 10930  Network.dyn_peer[27]  lookupStabilitySig:vector  ETV
10930	800608 10958 251 136832 20.20000028 135.5978325855 324 -2.25 1 161.70833325386 142.50675153144
vector 10931  Network.dyn_peer[27]  lookupTimeSig:vector  ETV
10931	811566 10455 251 136832 20.20000028 135.5978325855 324 0 2.2 146.2 95.86
vector 10941  Network.dyn_peer[31]  lookupHopsSig:vector  ETV
10941	909252 8736 259 137182 20.20000032 136.098206733087 286 0 23 1281 8641
vector 10942  Network.dyn_peer[31]  lookupStabilitySig:vector  ETV
10942	917988 9657 259 137182 20.20000032 136.098206733087 286 -1.875 1 125.875 100.765625
vector 10943  Network.dyn_peer[31]  lookupTimeSig:vector  ETV
10943	927645 9254 259 137182 20.20000032 136.098206733087 286 0 2 140.5 92.03
vector 10851  Network.dyn_peer[1]  lookupHopsSig:vector  ETV
10851	36429 9528 273 137312 20.30000002 136.371320358772 313 0 25 1242 8250
vector 10852  Network.dyn_peer[1]  lookupStabilitySig:vector  ETV
10852	45957 10557 273 137312 20.30000002 136.371320358772 313 -2.125 1 157.77777777612 131.44868826903
vector 10853  Network.dyn_peer[1]  lookupTimeSig:vector  ETV
10853	56514 10120 273 137312 20.30000002 136.371320358772 313 0 2.5 141.4 91.82
vector 10881  Network.dyn_peer[11]  lookupHopsSig:vector  ETV
10881	326496 9503 285 136519 20.30000012 135.281295595869 312 0 22 1329 8821
vector 10882  Network.dyn_peer[11]  lookupStabilitySig:vector  ETV
10882	335999 10539 285 136519 20.30000012 135.281295595869 312 -1.75 1 145.91666665673 117.6319444312
vector 10883  Network.dyn_peer[11]  lookupTimeSig:vector  ETV
10883	346538 10092 285 136519 20.30000012 135.281295595869 312 0 2.1 147.6 94.98
vector 10884  Network.dyn_peer[12]  lookupHopsSig:vector  ETV
10884	356630 8859 290 136172 20.30000013 134.980701882875 291 0 25 1360 10488
vector 10885  Network.dyn_peer[12]  lookupStabilitySig:vector  ETV
10885	365489 9794 290 136172 20.30000013 134.980701882875 291 -2.125 1 121 114.875
vector 10886  Network.dyn_peer[12]  lookupTimeSig:vector  ETV
10886	375283 9388 290 136172 20.30000013 134.980701882875 291 0 2.3 149.2 110.86
vector 10887  Network.dyn_peer[13]  lookupHopsSig:vector  ETV
10887	384671 8412 295 136634 20.30000014 135.380601892875 276 0 24 1180 8052
vector 10888  Network.dyn_peer[13]  lookupStabilitySig:vector  ETV
10888	393083 9336 295 136634 20.30000014 135.380601892875 276 -2 1 128.77777773142 106.96141970305
vector 10889  Network.dyn_peer[13]  lookupTimeSig:vector  ETV
10889	402419 8913 295 136634 20.30000014 135.380601892875 276 0 2.3 130.8 86.46
vector 10896  Network.dyn_peer[16]  lookupHopsSig:vector  ETV
10896	469549 9404 301 136781 20.30000017 135.573223417874 309 0 18 1284 8220
vector 10897  Network.dyn_peer[16]  lookupStabilitySig:vector  ETV
10897	478953 10395 301 136781 20.30000017 135.573223417874 309 -1.25 1 148.5 116.4375
vector 10898  Network.dyn_peer[16]  lookupTimeSig:vector  ETV
10898	489348 9985 301 136781 20.30000017 135.573223417874 309 0 1.7 143.7 90.67
vector 10911  Network.dyn_peer[21]  lookupHopsSig:vector  ETV
10911	620081 8830 310 136669 20.30000022 135.431819461585 291 0 18 1277 8183
vector 10912  Network.dyn_peer[21]  lookupStabilitySig:vector  ETV
10912	628911 9737 310 136669 20.30000022 135.431819461585 291 -1.25 1 131.375 99.609375
vector 10913  Network.dyn_peer[21]  lookupTimeSig:vector  ETV
10913	638648 9376 310 136669 20.30000022 135.431819461585 291 0 1.7 141.1 88.47
vector 10932  Network.dyn_peer[28]  lookupHopsSig:vector  ETV
10932	822021 9155 321 136568 20.30000029 135.331819461585 301 0 21 1278 8350
vector 10933  Network.dyn_peer[28]  lookupStabilitySig:vector  ETV
10933	831176 10136 321 136568 20.30000029 135.331819461585 301 -1.625 1 141.34722220153 112.04185955318
vector 10934  Network.dyn_peer[28]  lookupTimeSig:vector  ETV
10934	841312 9724 321 136568 20.30000029 135.331819461585 301 0 2 142.9 92.17
vector 10893  Network.dyn_peer[15]  lookupHopsSig:vector  ETV
10893	441559 8837 371 136035 20.40000016 134.886583741312 290 0 36 1270 9538
vector 10894  Network.dyn_peer[15]  lookupStabilitySig:vector  ETV
10894	450396 9774 371 136035 20.40000016 134.886583741312 290 -3.5 1 131.25 121.53125
vector 10895  Network.dyn_peer[15]  lookupTimeSig:vector  ETV
10895	460170 9379 371 136035 20.40000016 134.886583741312 290 0 3.2 140.4 98.76
vector 10926  Network.dyn_peer[26]  lookupHopsSig:vector  ETV
10926	760646 9495 388 137300 20.40000027 136.360249041643 312 0 22 1286 8548
vector 10927  Network.dyn_peer[26]  lookupStabilitySig:vector  ETV
10927	770141 10524 388 137300 20.40000027 136.360249041643 312 -1.75 1 151.52777779102 124.08063271016
vector 10928  Network.dyn_peer[26]  lookupTimeSig:vector  ETV
10928	780665 10087 388 137300 20.40000027 136.360249041643 312 0.1 2 144.1 91.85
vector 10905  Network.dyn_peer[19]  lookupHopsSig:vector  ETV
10905	560020 9462 435 137156 20.5000002 136.079117495811 311 0 20 1187 7437
vector 10906  Network.dyn_peer[19]  lookupStabilitySig:vector  ETV
10906	569482 10497 435 137156 20.5000002 136.079117495811 311 -1.5 1 162.80555551499 130.33873459292
vector 10907  Network.dyn_peer[19]  lookupTimeSig:vector  ETV
10907	579979 10050 435 137156 20.5000002 136.079117495811 311 0 2 135.2 83.24
vector 10908  Network.dyn_peer[20]  lookupHopsSig:vector  ETV
10908	590029 9492 440 137323 20.50000021 136.380390424796 312 0 21 1329 9079
vector 10909  Network.dyn_peer[20]  lookupStabilitySig:vector  ETV
10909	599521 10502 440 137323 20.50000021 136.380390424796 312 -1.625 1 145.875 121.609375
vector 10910  Network.dyn_peer[20]  lookupTimeSig:vector  ETV
10910	610023 10058 440 137323 20.50000021 136.380390424796 312 0 1.9 149.7 99.33
vector 10848  Network.dyn_peer[0]  lookupHopsSig:vector  ETV
10848	6498 9450 527 136117 20.70000001 134.960909770047 311 0 27 1293 9189
vector 10849  Network.dyn_peer[0]  lookupStabilitySig:vector  ETV
10849	15948 10450 527 136117 20.70000001 134.960909770047 311 -2.375 1 149.375 131.328125
vector 10850  Network.dyn_peer[0]  lookupTimeSig:vector  ETV
10850	26398 10031 527 136117 20.70000001 134.960909770047 311 0 2.5 146.2 99.58
vector 10914  Network.dyn_peer[22]  lookupHopsSig:vector  ETV
10914	648024 8684 546 136534 20.70000023 135.285529409779 286 0 19 1242 8236
vector 10915  Network.dyn_peer[22]  lookupStabilitySig:vector  ETV
10915	656708 9627 546 136534 20.70000023 135.285529409779 286 -1.375 1 130.77777777612 104.22993826903
vector 10916  Network.dyn_peer[22]  lookupTimeSig:vector  ETV
10916	666335 9217 546 136534 20.70000023 135.285529409779 286 0 1.9 138.6 91.64
