version 2
run Stability-norelink-119-20130525-23:21:59-22103
attr configname Stability-norelink
attr datetime 20130525-23:21:59
attr experiment Stability
attr inifile omnetpp.ini
attr iterationvars $0=1e-5
attr iterationvars2 "$0=1e-5, $repetition=9"
attr measurement $0=1e-5
attr network Network
attr processid 22103
attr repetition 9
attr replication #9
attr resultdir results
attr runnumber 119
attr seedset 119

vector 11433  Network.dyn_peer[3]  lookupHopsSig:vector  ETV
vector 11434  Network.dyn_peer[3]  lookupStabilitySig:vector  ETV
vector 11435  Network.dyn_peer[3]  lookupTimeSig:vector  ETV
vector 11442  Network.dyn_peer[6]  lookupHopsSig:vector  ETV
vector 11443  Network.dyn_peer[6]  lookupStabilitySig:vector  ETV
vector 11444  Network.dyn_peer[6]  lookupTimeSig:vector  ETV
vector 11517  Network.dyn_peer[31]  lookupHopsSig:vector  ETV
vector 11518  Network.dyn_peer[31]  lookupStabilitySig:vector  ETV
vector 11519  Network.dyn_peer[31]  lookupTimeSig:vector  ETV
vector 11424  Network.dyn_peer[0]  lookupHopsSig:vector  ETV
vector 11425  Network.dyn_peer[0]  lookupStabilitySig:vector  ETV
vector 11426  Network.dyn_peer[0]  lookupTimeSig:vector  ETV
vector 11427  Network.dyn_peer[1]  lookupHopsSig:vector  ETV
vector 11428  Network.dyn_peer[1]  lookupStabilitySig:vector  ETV
vector 11429  Network.dyn_peer[1]  lookupTimeSig:vector  ETV
vector 11445  Network.dyn_peer[7]  lookupHopsSig:vector  ETV
vector 11446  Network.dyn_peer[7]  lookupStabilitySig:vector  ETV
vector 11447  Network.dyn_peer[7]  lookupTimeSig:vector  ETV
vector 11448  Network.dyn_peer[8]  lookupHopsSig:vector  ETV
vector 11449  Network.dyn_peer[8]  lookupStabilitySig:vector  ETV
vector 11450  Network.dyn_peer[8]  lookupTimeSig:vector  ETV
vector 11451  Network.dyn_peer[9]  lookupHopsSig:vector  ETV
vector 11452  Network.dyn_peer[9]  lookupStabilitySig:vector  ETV
vector 11453  Network.dyn_peer[9]  lookupTimeSig:vector  ETV
vector 11460  Network.dyn_peer[12]  lookupHopsSig:vector  ETV
vector 11461  Network.dyn_peer[12]  lookupStabilitySig:vector  ETV
vector 11462  Network.dyn_peer[12]  lookupTimeSig:vector  ETV
vector 11463  Network.dyn_peer[13]  lookupHopsSig:vector  ETV
vector 11464  Network.dyn_peer[13]  lookupStabilitySig:vector  ETV
vector 11465  Network.dyn_peer[13]  lookupTimeSig:vector  ETV
vector 11466  Network.dyn_peer[14]  lookupHopsSig:vector  ETV
vector 11467  Network.dyn_peer[14]  lookupStabilitySig:vector  ETV
vector 11468  Network.dyn_peer[14]  lookupTimeSig:vector  ETV
vector 11472  Network.dyn_peer[16]  lookupHopsSig:vector  ETV
vector 11473  Network.dyn_peer[16]  lookupStabilitySig:vector  ETV
vector 11474  Network.dyn_peer[16]  lookupTimeSig:vector  ETV
vector 11484  Network.dyn_peer[20]  lookupHopsSig:vector  ETV
vector 11485  Network.dyn_peer[20]  lookupStabilitySig:vector  ETV
vector 11486  Network.dyn_peer[20]  lookupTimeSig:vector  ETV
vector 11490  Network.dyn_peer[22]  lookupHopsSig:vector  ETV
vector 11491  Network.dyn_peer[22]  lookupStabilitySig:vector  ETV
vector 11492  Network.dyn_peer[22]  lookupTimeSig:vector  ETV
vector 11493  Network.dyn_peer[23]  lookupHopsSig:vector  ETV
vector 11494  Network.dyn_peer[23]  lookupStabilitySig:vector  ETV
vector 11495  Network.dyn_peer[23]  lookupTimeSig:vector  ETV
vector 11496  Network.dyn_peer[24]  lookupHopsSig:vector  ETV
vector 11497  Network.dyn_peer[24]  lookupStabilitySig:vector  ETV
vector 11498  Network.dyn_peer[24]  lookupTimeSig:vector  ETV
vector 11436  Network.dyn_peer[4]  lookupHopsSig:vector  ETV
vector 11437  Network.dyn_peer[4]  lookupStabilitySig:vector  ETV
vector 11438  Network.dyn_peer[4]  lookupTimeSig:vector  ETV
vector 11454  Network.dyn_peer[10]  lookupHopsSig:vector  ETV
vector 11455  Network.dyn_peer[10]  lookupStabilitySig:vector  ETV
vector 11456  Network.dyn_peer[10]  lookupTimeSig:vector  ETV
vector 11457  Network.dyn_peer[11]  lookupHopsSig:vector  ETV
vector 11458  Network.dyn_peer[11]  lookupStabilitySig:vector  ETV
vector 11459  Network.dyn_peer[11]  lookupTimeSig:vector  ETV
vector 11475  Network.dyn_peer[17]  lookupHopsSig:vector  ETV
vector 11476  Network.dyn_peer[17]  lookupStabilitySig:vector  ETV
vector 11477  Network.dyn_peer[17]  lookupTimeSig:vector  ETV
vector 11478  Network.dyn_peer[18]  lookupHopsSig:vector  ETV
vector 11479  Network.dyn_peer[18]  lookupStabilitySig:vector  ETV
vector 11480  Network.dyn_peer[18]  lookupTimeSig:vector  ETV
vector 11505  Network.dyn_peer[27]  lookupHopsSig:vector  ETV
vector 11506  Network.dyn_peer[27]  lookupStabilitySig:vector  ETV
vector 11507  Network.dyn_peer[27]  lookupTimeSig:vector  ETV
vector 11481  Network.dyn_peer[19]  lookupHopsSig:vector  ETV
vector 11482  Network.dyn_peer[19]  lookupStabilitySig:vector  ETV
vector 11483  Network.dyn_peer[19]  lookupTimeSig:vector  ETV
vector 11502  Network.dyn_peer[26]  lookupHopsSig:vector  ETV
vector 11503  Network.dyn_peer[26]  lookupStabilitySig:vector  ETV
vector 11504  Network.dyn_peer[26]  lookupTimeSig:vector  ETV
vector 11511  Network.dyn_peer[29]  lookupHopsSig:vector  ETV
vector 11512  Network.dyn_peer[29]  lookupStabilitySig:vector  ETV
vector 11513  Network.dyn_peer[29]  lookupTimeSig:vector  ETV
vector 11430  Network.dyn_peer[2]  lookupHopsSig:vector  ETV
vector 11431  Network.dyn_peer[2]  lookupStabilitySig:vector  ETV
vector 11432  Network.dyn_peer[2]  lookupTimeSig:vector  ETV
vector 11499  Network.dyn_peer[25]  lookupHopsSig:vector  ETV
vector 11500  Network.dyn_peer[25]  lookupStabilitySig:vector  ETV
vector 11501  Network.dyn_peer[25]  lookupTimeSig:vector  ETV
vector 11508  Network.dyn_peer[28]  lookupHopsSig:vector  ETV
vector 11509  Network.dyn_peer[28]  lookupStabilitySig:vector  ETV
vector 11510  Network.dyn_peer[28]  lookupTimeSig:vector  ETV
vector 11514  Network.dyn_peer[30]  lookupHopsSig:vector  ETV
vector 11515  Network.dyn_peer[30]  lookupStabilitySig:vector  ETV
vector 11516  Network.dyn_peer[30]  lookupTimeSig:vector  ETV
vector 11439  Network.dyn_peer[5]  lookupHopsSig:vector  ETV
vector 11440  Network.dyn_peer[5]  lookupStabilitySig:vector  ETV
vector 11441  Network.dyn_peer[5]  lookupTimeSig:vector  ETV
vector 11487  Network.dyn_peer[21]  lookupHopsSig:vector  ETV
vector 11488  Network.dyn_peer[21]  lookupStabilitySig:vector  ETV
vector 11489  Network.dyn_peer[21]  lookupTimeSig:vector  ETV
vector 11469  Network.dyn_peer[15]  lookupHopsSig:vector  ETV
vector 11470  Network.dyn_peer[15]  lookupStabilitySig:vector  ETV
vector 11471  Network.dyn_peer[15]  lookupTimeSig:vector  ETV
11424	135	20.10000001	1
11424	327	20.40000001	2
11424	471	20.605354697147	1
11424	1269	21.506385485108	10
11424	1290	21.507762276073	10
11424	1589	21.717288226598	1
11424	1873	21.921474396917	2
11424	2405	22.321474396917	3
11424	2713	22.530008885085	2
11424	2726	22.605191245517	1
11424	2777	22.616987679318	2
11424	3455	23.224089471808	6
11424	3770	23.524089471808	3
11424	4021	23.730829418374	1
11424	4757	24.335521154324	6
11424	5396	25.029321916727	1
11424	5536	25.140675923691	7
11424	5971	25.548631287351	4
11424	6293	25.848631287351	2
11424	6732	26.249232859559	3
11424	7247	26.658576713657	3
11424	7377	26.760247510472	1
11424	8868	27.960247510472	13
11424	9436	28.369432872417	6
11424	10206	29.069432872417	7
11424	10639	29.387807190681	7
11424	10878	29.571078698606	5
11424	11357	29.90261730737	6
11424	11745	30.206282072597	2
11424	11761	30.212074582231	6
11424	12698	31.013567751241	8
11424	12930	31.213567751241	1
11424	13225	31.414510129145	1
11424	13500	31.620788651804	2
11424	14805	32.627526596541	10
11424	16092	33.700500260161	4
11424	16632	34.200500260161	4
11424	16843	34.400600270161	2
11424	19125	36.346873200046	12
11424	19411	36.646873200046	2
11424	19786	36.947226153504	3
11424	20076	37.149340774439	1
11424	20111	37.171855447199	5
11424	20664	37.576772699223	4
11424	21176	37.976772699223	3
11424	21416	38.179404650809	1
11424	21800	38.490789881367	2
11424	21975	38.600001437917	1
11424	22389	39.000001437917	3
11424	24954	41.102347575157	24
11424	25218	41.302347575157	1
11424	25993	42.010872867718	6
11424	26489	42.425224826668	6
11424	26682	42.628386541908	2
11424	27436	43.228386541908	6
11424	27495	43.289441240062	2
11424	27726	43.493973725445	1
11424	29810	45.196373808923	18
11424	31123	46.296373808923	11
11424	31407	46.505798337557	1
11424	31937	47.015733925292	4
11424	31962	47.051518862879	4
11424	32440	47.552508401573	4
11424	32683	47.757771880882	2
11424	33277	48.357771880882	5
11424	34335	49.267335210511	10
11424	34786	49.667335210511	3
11424	35237	50.069435963226	3
11424	35581	50.413724564331	3
11424	36192	50.87822161485	7
11424	36375	51.024835966617	7
11424	37009	51.435825217226	3
11424	37211	51.588035521847	6
11424	37247	51.62285103069	13
11424	37262	51.631879745396	12
11424	37328	51.663968442383	5
11424	37619	51.869391368017	2
11424	38100	52.269391368017	3
11424	38635	52.772663555594	4
11424	39588	53.572763565594	9
11424	39977	53.872763565594	2
11424	40438	54.28269750154	4
11424	41612	55.28269750154	9
11424	41929	55.589519344235	2
11424	42146	55.795845935977	1
11424	42648	56.304711662059	4
11424	43255	56.811895146223	6
11424	43267	56.819795075761	3
11424	43634	57.125590066631	2
11424	44330	57.726205026573	5
11424	44424	57.828094665245	7
11424	44577	57.928763188051	1
11424	44843	58.135950408631	2
11424	45676	58.744097544524	6
11424	46059	59.046191623833	2
11424	46419	59.348647618154	3
11424	47432	60.149058814488	1
11424	48057	60.648647618154	13
11424	48726	61.148747628154	5
11424	48961	61.348747628154	1
11424	49393	61.650375466404	2
11424	49866	62.055429119734	3
11424	50194	62.378119915016	5
11424	51002	63.081925800917	7
11424	51587	63.681925800917	5
11424	52317	64.298317781634	6
11424	52426	64.383905801145	2
11424	52616	64.504123344214	2
11424	53268	65.006513375215	4
11424	53344	65.089475418827	6
11424	53478	65.191360632483	1
11424	53489	65.19159545009	8
11424	53511	65.214405388863	1
11424	53627	65.320532113933	1
11424	54278	65.920532113933	5
11424	55061	66.541490438547	3
11424	55437	66.845185935309	2
11424	56177	67.451809313306	6
11424	56513	67.751809313306	2
11424	56893	68.057088658245	3
11424	57413	68.45603865368	1
11424	58140	69.05603865368	6
11424	58790	69.560918714098	4
11424	59462	70.169882900002	6
11424	59678	70.381630813019	1
11424	59986	70.691131620416	2
11424	60360	70.997671954966	2
11424	60631	71.197771241011	1
11424	61014	71.55401531538	2
11424	61036	71.563374344529	0
11424	61236	71.763374344529	1
11424	61639	72.160332049499	1
11424	61887	72.36469964299	2
11424	62430	72.798681450972	0
11424	63673	73.798681450972	11
11424	64439	74.501406238876	7
11424	65820	75.601506248876	11
11424	66194	75.909304842339	2
11424	66399	76.115338029181	1
11424	66602	76.322005410179	1
11424	66627	76.32376894915	0
11424	67146	76.82376894915	4
11424	67488	77.149905697425	2
11424	69271	78.75607816518	16
11424	69915	79.364035637419	6
11424	70418	79.864035637419	4
11424	70700	80.067964430174	2
11424	70843	80.168064440174	1
11424	71391	80.668064440174	4
11424	72264	81.372663502028	5
11424	72539	81.57583191797	4
11424	72661	81.676490264466	11
11424	73386	82.18484328242	6
11424	73856	82.48484328242	2
11424	74233	82.790376401885	2
11424	74463	82.994030002754	1
11424	74552	83.084405177203	4
11424	74789	83.290080053175	1
11424	75107	83.590180063175	3
11424	76294	84.496957886627	7
11424	76999	85.096957886627	5
11424	77547	85.600794137237	4
11424	77744	85.801942561528	5
11424	78442	86.309711821636	5
11424	78697	86.522536719557	1
11424	78828	86.6283490484	8
11424	79109	86.82313395403	3
11424	79180	86.90103193758	14
11424	79655	87.207378947508	3
11424	80052	87.516809019706	3
11424	81234	88.528274339656	10
11424	81865	89.028570945574	4
11424	82220	89.335691955281	4
11424	82225	89.335791955281	4
11424	82344	89.445741453227	12
11424	82513	89.550170805822	1
11424	82805	89.850170805822	2
11424	83293	90.251799132535	3
11424	83429	90.352749407717	3
11424	85261	91.663035438744	14
11424	85851	92.163035438744	4
11424	86230	92.469569719373	2
11424	86686	92.872950113676	3
11424	87239	93.380873609463	5
11424	87911	93.980873609463	6
11424	88365	94.383383986554	3
11424	88942	94.891731632668	5
11424	89063	94.993316916683	0
11424	89598	95.402862730034	3
11424	90121	95.803446286444	3
11424	90555	96.127452033317	2
11424	91135	96.627552043317	5
11424	91578	97.027552043317	3
11424	91858	97.238619624928	1
11424	93107	98.161587785729	6
11424	94313	99.261587785729	12
11424	94897	99.75248409025	5
11424	95195	100.066171027479	8
11424	95858	100.571762854409	6
11424	96072	100.771762854409	1
11424	96210	100.926659110385	1
11424	96339	101.026759120385	1
11424	97307	101.826759120385	7
11424	97588	102.034973293408	1
11424	98087	102.44156567709	3
11424	98936	103.145612858635	7
11424	99413	103.455461130813	4
11424	99856	103.756209851033	3
11424	100284	104.061083036591	2
11424	100291	104.070734191069	9
11424	100790	104.472088170396	8
11424	100908	104.571309186825	4
11424	100916	104.576531978633	0
11424	101054	104.700254718074	2
11424	101937	105.404915042521	7
11424	102762	106.104915042521	7
11424	103233	106.511732203505	3
11424	103603	106.820497130875	2
11424	103949	107.140753278472	3
11424	104160	107.348875673367	1
11424	104353	107.458261949373	2
11424	104921	107.858261949373	3
11424	106199	108.762590299543	10
11424	107003	109.362590299543	6
11424	107371	109.621410179073	1
11424	107742	109.921510189073	3
11424	108528	110.521510189073	5
11424	109938	111.563342273344	5
11424	110110	111.725891588092	14
11424	110326	111.927601069939	1
11424	110777	112.365439052636	7
11424	111136	112.63436675719	7
11424	111330	112.774971452486	3
11424	111373	112.79508686545	3
11424	111738	113.095851550043	3
11424	112930	114.020198788954	2
11424	114213	114.97837274186	5
11424	114580	115.220198788954	13
11424	115447	115.827811237989	7
11424	115976	116.327811237989	4
11424	116154	116.436413224116	0
11424	117273	117.442602482847	9
11424	117707	117.850549878304	5
11424	118250	118.350549878304	4
11424	118759	118.759780448335	3
11424	118794	118.795111700184	3
11424	119266	119.199626962888	4
11424	119815	119.707550150853	4
11424	120025	119.908127053103	1
11424	120970	120.616506939267	7
11424	122857	122.016506939267	15
11424	123993	123.023893812403	10
11424	124360	123.414938780425	11
11424	124632	123.627711265847	5
11424	124764	123.725772037164	2
11424	125377	124.22701113441	5
11424	126579	125.231803375375	9
11424	127337	125.838240917748	5
11424	127396	125.900247382729	4
11424	127782	126.207541013714	2
11424	128235	126.614907231977	3
11424	128581	126.919781031067	3
11424	128952	127.219781031067	2
11424	129741	127.924022259729	6
11424	130033	128.134007512669	1
11424	130860	128.841869487876	7
11424	131526	129.441869487876	5
11424	132245	130.047052966043	5
11424	132858	130.547442785041	4
11424	133267	130.855348548975	2
11424	133901	131.263460194093	4
11424	134101	131.463460194093	1
11424	134654	131.872251038157	3
11424	134766	131.972351048157	1
11424	135014	132.172351048157	1
11424	135209	132.372451058157	2
11424	136726	133.655163842391	8
11424	137048	133.855163842391	1
11424	137292	134.057465616906	1
11424	137867	134.458032606691	3
11424	137874	134.459638847372	3
11425	135	20.10000001	0.875
11425	327	20.40000001	0.75
11425	471	20.605354697147	0.875
11425	1269	21.506385485108	-0.25
11425	1290	21.507762276073	-0.25
11425	1589	21.717288226598	0.875
11425	1873	21.921474396917	0.75
11425	2405	22.321474396917	0.625
11425	2713	22.530008885085	0.75
11425	2726	22.605191245517	0.875
11425	2777	22.616987679318	0.75
11425	3455	23.224089471808	0.25
11425	3770	23.524089471808	0.625
11425	4021	23.730829418374	0.875
11425	4757	24.335521154324	0.25
11425	5396	25.029321916727	0.875
11425	5536	25.140675923691	0.125
11425	5971	25.548631287351	0.5
11425	6293	25.848631287351	0.75
11425	6732	26.249232859559	0.625
11425	7247	26.658576713657	0.625
11425	7377	26.760247510472	0.875
11425	8868	27.960247510472	-0.625
11425	9436	28.369432872417	0.25
11425	10206	29.069432872417	0.125
11425	10639	29.387807190681	0.125
11425	10878	29.571078698606	0.375
11425	11357	29.90261730737	0.25
11425	11745	30.206282072597	0.75
11425	11761	30.212074582231	0.25
11425	12698	31.013567751241	0
11425	12930	31.213567751241	0.875
11425	13225	31.414510129145	0.875
11425	13500	31.620788651804	0.75
11425	14805	32.627526596541	-0.25
11425	16092	33.700500260161	0.5
11425	16632	34.200500260161	0.55555555224419
11425	16843	34.400600270161	0.75
11425	19125	36.346873200046	-0.5
11425	19411	36.646873200046	0.75
11425	19786	36.947226153504	0.625
11425	20076	37.149340774439	0.875
11425	20111	37.171855447199	0.375
11425	20664	37.576772699223	0.5
11425	21176	37.976772699223	0.625
11425	21416	38.179404650809	0.875
11425	21800	38.490789881367	0.77777777612209
11425	21975	38.600001437917	0.875
11425	22389	39.000001437917	0.625
11425	24954	41.102347575157	-2
11425	25218	41.302347575157	0.875
11425	25993	42.010872867718	0.25
11425	26489	42.425224826668	0.25
11425	26682	42.628386541908	0.75
11425	27436	43.228386541908	0.25
11425	27495	43.289441240062	0.75
11425	27726	43.493973725445	0.875
11425	29810	45.196373808923	-1.25
11425	31123	46.296373808923	-0.375
11425	31407	46.505798337557	0.875
11425	31937	47.015733925292	0.5
11425	31962	47.051518862879	0.5
11425	32440	47.552508401573	0.5
11425	32683	47.757771880882	0.75
11425	33277	48.357771880882	0.375
11425	34335	49.267335210511	-0.25
11425	34786	49.667335210511	0.625
11425	35237	50.069435963226	0.625
11425	35581	50.413724564331	0.625
11425	36192	50.87822161485	0.125
11425	36375	51.024835966617	0.125
11425	37009	51.435825217226	0.625
11425	37211	51.588035521847	0.25
11425	37247	51.62285103069	-0.625
11425	37262	51.631879745396	-0.5
11425	37328	51.663968442383	0.375
11425	37619	51.869391368017	0.75
11425	38100	52.269391368017	0.625
11425	38635	52.772663555594	0.5
11425	39588	53.572763565594	-0.125
11425	39977	53.872763565594	0.75
11425	40438	54.28269750154	0.5
11425	41612	55.28269750154	-0.125
11425	41929	55.589519344235	0.75
11425	42146	55.795845935977	0.875
11425	42648	56.304711662059	0.5
11425	43255	56.811895146223	0.25
11425	43267	56.819795075761	0.625
11425	43634	57.125590066631	0.75
11425	44330	57.726205026573	0.375
11425	44424	57.828094665245	0.125
11425	44577	57.928763188051	0.875
11425	44843	58.135950408631	0.75
11425	45676	58.744097544524	0.25
11425	46059	59.046191623833	0.75
11425	46419	59.348647618154	0.625
11425	47432	60.149058814488	0.875
11425	48057	60.648647618154	-0.625
11425	48726	61.148747628154	0.375
11425	48961	61.348747628154	0.875
11425	49393	61.650375466404	0.75
11425	49866	62.055429119734	0.625
11425	50194	62.378119915016	0.375
11425	51002	63.081925800917	0.125
11425	51587	63.681925800917	0.375
11425	52317	64.298317781634	0.25
11425	52426	64.383905801145	0.75
11425	52616	64.504123344214	0.75
11425	53268	65.006513375215	0.5
11425	53344	65.089475418827	0.25
11425	53478	65.191360632483	0.875
11425	53489	65.19159545009	0
11425	53511	65.214405388863	0.875
11425	53627	65.320532113933	0.875
11425	54278	65.920532113933	0.375
11425	55061	66.541490438547	0.625
11425	55437	66.845185935309	0.75
11425	56177	67.451809313306	0.25
11425	56513	67.751809313306	0.75
11425	56893	68.057088658245	0.625
11425	57413	68.45603865368	0.875
11425	58140	69.05603865368	0.25
11425	58790	69.560918714098	0.5
11425	59462	70.169882900002	0.25
11425	59678	70.381630813019	0.875
11425	59986	70.691131620416	0.75
11425	60360	70.997671954966	0.75
11425	60631	71.197771241011	0.875
11425	61014	71.55401531538	0.75
11425	61036	71.563374344529	1
11425	61236	71.763374344529	0.875
11425	61639	72.160332049499	0.875
11425	61887	72.36469964299	0.75
11425	62430	72.798681450972	1
11425	63673	73.798681450972	-0.375
11425	64439	74.501406238876	0.125
11425	65820	75.601506248876	-0.375
11425	66194	75.909304842339	0.75
11425	66399	76.115338029181	0.875
11425	66602	76.322005410179	0.875
11425	66627	76.32376894915	1
11425	67146	76.82376894915	0.5
11425	67488	77.149905697425	0.75
11425	69271	78.75607816518	-1
11425	69915	79.364035637419	0.25
11425	70418	79.864035637419	0.5
11425	70700	80.067964430174	0.75
11425	70843	80.168064440174	0.875
11425	71391	80.668064440174	0.5
11425	72264	81.372663502028	0.44444441795349
11425	72539	81.57583191797	0.5
11425	72661	81.676490264466	-0.375
11425	73386	82.18484328242	0.25
11425	73856	82.48484328242	0.75
11425	74233	82.790376401885	0.75
11425	74463	82.994030002754	0.875
11425	74552	83.084405177203	0.5
11425	74789	83.290080053175	0.875
11425	75107	83.590180063175	0.625
11425	76294	84.496957886627	0.125
11425	76999	85.096957886627	0.375
11425	77547	85.600794137237	0.5
11425	77744	85.801942561528	0.375
11425	78442	86.309711821636	0.375
11425	78697	86.522536719557	0.875
11425	78828	86.6283490484	0
11425	79109	86.82313395403	0.625
11425	79180	86.90103193758	-0.75
11425	79655	87.207378947508	0.625
11425	80052	87.516809019706	0.625
11425	81234	88.528274339656	-0.25
11425	81865	89.028570945574	0.5
11425	82220	89.335691955281	0.5
11425	82225	89.335791955281	0.5
11425	82344	89.445741453227	-0.5
11425	82513	89.550170805822	0.875
11425	82805	89.850170805822	0.75
11425	83293	90.251799132535	0.625
11425	83429	90.352749407717	0.625
11425	85261	91.663035438744	-0.75
11425	85851	92.163035438744	0.5
11425	86230	92.469569719373	0.75
11425	86686	92.872950113676	0.625
11425	87239	93.380873609463	0.375
11425	87911	93.980873609463	0.25
11425	88365	94.383383986554	0.625
11425	88942	94.891731632668	0.375
11425	89063	94.993316916683	1
11425	89598	95.402862730034	0.625
11425	90121	95.803446286444	0.625
11425	90555	96.127452033317	0.75
11425	91135	96.627552043317	0.375
11425	91578	97.027552043317	0.625
11425	91858	97.238619624928	0.875
11425	93107	98.161587785729	0.25
11425	94313	99.261587785729	-0.5
11425	94897	99.75248409025	0.375
11425	95195	100.066171027479	0
11425	95858	100.571762854409	0.25
11425	96072	100.771762854409	0.875
11425	96210	100.926659110385	0.875
11425	96339	101.026759120385	0.875
11425	97307	101.826759120385	0.125
11425	97588	102.034973293408	0.875
11425	98087	102.44156567709	0.625
11425	98936	103.145612858635	0.125
11425	99413	103.455461130813	0.5
11425	99856	103.756209851033	0.625
11425	100284	104.061083036591	0.75
11425	100291	104.070734191069	-0.125
11425	100790	104.472088170396	0
11425	100908	104.571309186825	0.5
11425	100916	104.576531978633	1
11425	101054	104.700254718074	0.75
11425	101937	105.404915042521	0.125
11425	102762	106.104915042521	0.125
11425	103233	106.511732203505	0.625
11425	103603	106.820497130875	0.75
11425	103949	107.140753278472	0.625
11425	104160	107.348875673367	0.875
11425	104353	107.458261949373	0.75
11425	104921	107.858261949373	0.625
11425	106199	108.762590299543	-0.25
11425	107003	109.362590299543	0.25
11425	107371	109.621410179073	0.875
11425	107742	109.921510189073	0.625
11425	108528	110.521510189073	0.375
11425	109938	111.563342273344	0.375
11425	110110	111.725891588092	-0.75
11425	110326	111.927601069939	0.875
11425	110777	112.365439052636	0.125
11425	111136	112.63436675719	0.125
11425	111330	112.774971452486	0.625
11425	111373	112.79508686545	0.66666665673256
11425	111738	113.095851550043	0.625
11425	112930	114.020198788954	0.75
11425	114213	114.97837274186	0.375
11425	114580	115.220198788954	-0.625
11425	115447	115.827811237989	0.125
11425	115976	116.327811237989	0.5
11425	116154	116.436413224116	1
11425	117273	117.442602482847	-0.125
11425	117707	117.850549878304	0.375
11425	118250	118.350549878304	0.5
11425	118759	118.759780448335	0.625
11425	118794	118.795111700184	0.625
11425	119266	119.199626962888	0.5
11425	119815	119.707550150853	0.5
11425	120025	119.908127053103	0.875
11425	120970	120.616506939267	0.125
11425	122857	122.016506939267	-0.875
11425	123993	123.023893812403	-0.25
11425	124360	123.414938780425	-0.375
11425	124632	123.627711265847	0.375
11425	124764	123.725772037164	0.75
11425	125377	124.22701113441	0.375
11425	126579	125.231803375375	-0.125
11425	127337	125.838240917748	0.375
11425	127396	125.900247382729	0.5
11425	127782	126.207541013714	0.75
11425	128235	126.614907231977	0.625
11425	128581	126.919781031067	0.625
11425	128952	127.219781031067	0.75
11425	129741	127.924022259729	0.25
11425	130033	128.134007512669	0.875
11425	130860	128.841869487876	0.125
11425	131526	129.441869487876	0.375
11425	132245	130.047052966043	0.375
11425	132858	130.547442785041	0.5
11425	133267	130.855348548975	0.75
11425	133901	131.263460194093	0.5
11425	134101	131.463460194093	0.875
11425	134654	131.872251038157	0.625
11425	134766	131.972351048157	0.875
11425	135014	132.172351048157	0.875
11425	135209	132.372451058157	0.75
11425	136726	133.655163842391	0
11425	137048	133.855163842391	0.875
11425	137292	134.057465616906	0.875
11425	137867	134.458032606691	0.625
11425	137874	134.459638847372	0.625
11426	135	20.10000001	0.1
11426	327	20.40000001	0.3
11426	471	20.605354697147	0.2
11426	1269	21.506385485108	0.9
11426	1290	21.507762276073	0.9
11426	1589	21.717288226598	0.2
11426	1873	21.921474396917	0.2
11426	2405	22.321474396917	0.4
11426	2713	22.530008885085	0.2
11426	2726	22.605191245517	0.2
11426	2777	22.616987679318	0.3
11426	3455	23.224089471808	0.6
11426	3770	23.524089471808	0.3
11426	4021	23.730829418374	0.2
11426	4757	24.335521154324	0.6
11426	5396	25.029321916727	0.2
11426	5536	25.140675923691	0.8
11426	5971	25.548631287351	0.4
11426	6293	25.848631287351	0.3
11426	6732	26.249232859559	0.4
11426	7247	26.658576713657	0.4
11426	7377	26.760247510472	0.1
11426	8868	27.960247510472	1.2
11426	9436	28.369432872417	0.4
11426	10206	29.069432872417	0.7
11426	10639	29.387807190681	0.6
11426	10878	29.571078698606	0.5
11426	11357	29.90261730737	0.7
11426	11745	30.206282072597	0.3
11426	11761	30.212074582231	0.6
11426	12698	31.013567751241	0.8
11426	12930	31.213567751241	0.2
11426	13225	31.414510129145	0.2
11426	13500	31.620788651804	0.2
11426	14805	32.627526596541	1
11426	16092	33.700500260161	0.4
11426	16632	34.200500260161	0.5
11426	16843	34.400600270161	0.2
11426	19125	36.346873200046	1.2
11426	19411	36.646873200046	0.3
11426	19786	36.947226153504	0.3
11426	20076	37.149340774439	0.2
11426	20111	37.171855447199	0.5
11426	20664	37.576772699223	0.4
11426	21176	37.976772699223	0.4
11426	21416	38.179404650809	0.2
11426	21800	38.490789881367	0.3
11426	21975	38.600001437917	0.1
11426	22389	39.000001437917	0.4
11426	24954	41.102347575157	2.1
11426	25218	41.302347575157	0.2
11426	25993	42.010872867718	0.7
11426	26489	42.425224826668	0.7
11426	26682	42.628386541908	0.2
11426	27436	43.228386541908	0.6
11426	27495	43.289441240062	0.3
11426	27726	43.493973725445	0.2
11426	29810	45.196373808923	1.7
11426	31123	46.296373808923	1.1
11426	31407	46.505798337557	0.2
11426	31937	47.015733925292	0.5
11426	31962	47.051518862879	0.5
11426	32440	47.552508401573	0.5
11426	32683	47.757771880882	0.2
11426	33277	48.357771880882	0.6
11426	34335	49.267335210511	0.9
11426	34786	49.667335210511	0.4
11426	35237	50.069435963226	0.4
11426	35581	50.413724564331	0.4
11426	36192	50.87822161485	0.8
11426	36375	51.024835966617	0.8
11426	37009	51.435825217226	0.4
11426	37211	51.588035521847	0.7
11426	37247	51.62285103069	1.2
11426	37262	51.631879745396	1.2
11426	37328	51.663968442383	0.5
11426	37619	51.869391368017	0.2
11426	38100	52.269391368017	0.4
11426	38635	52.772663555594	0.5
11426	39588	53.572763565594	0.8
11426	39977	53.872763565594	0.3
11426	40438	54.28269750154	0.4
11426	41612	55.28269750154	1
11426	41929	55.589519344235	0.3
11426	42146	55.795845935977	0.2
11426	42648	56.304711662059	0.5
11426	43255	56.811895146223	0.5
11426	43267	56.819795075761	0.4
11426	43634	57.125590066631	0.3
11426	44330	57.726205026573	0.5
11426	44424	57.828094665245	0.7
11426	44577	57.928763188051	0.2
11426	44843	58.135950408631	0.3
11426	45676	58.744097544524	0.6
11426	46059	59.046191623833	0.3
11426	46419	59.348647618154	0.3
11426	47432	60.149058814488	0.2
11426	48057	60.648647618154	1.3
11426	48726	61.148747628154	0.5
11426	48961	61.348747628154	0.2
11426	49393	61.650375466404	0.3
11426	49866	62.055429119734	0.4
11426	50194	62.378119915016	0.6
11426	51002	63.081925800917	0.7
11426	51587	63.681925800917	0.6
11426	52317	64.298317781634	0.6
11426	52426	64.383905801145	0.2
11426	52616	64.504123344214	0.2
11426	53268	65.006513375215	0.5
11426	53344	65.089475418827	0.7
11426	53478	65.191360632483	0.2
11426	53489	65.19159545009	0.8
11426	53511	65.214405388863	0.2
11426	53627	65.320532113933	0.1
11426	54278	65.920532113933	0.6
11426	55061	66.541490438547	0.4
11426	55437	66.845185935309	0.3
11426	56177	67.451809313306	0.6
11426	56513	67.751809313306	0.3
11426	56893	68.057088658245	0.3
11426	57413	68.45603865368	0.1
11426	58140	69.05603865368	0.6
11426	58790	69.560918714098	0.5
11426	59462	70.169882900002	0.6
11426	59678	70.381630813019	0.2
11426	59986	70.691131620416	0.3
11426	60360	70.997671954966	0.3
11426	60631	71.197771241011	0.2
11426	61014	71.55401531538	0.3
11426	61036	71.563374344529	0
11426	61236	71.763374344529	0.2
11426	61639	72.160332049499	0.2
11426	61887	72.36469964299	0.2
11426	62430	72.798681450972	0
11426	63673	73.798681450972	1
11426	64439	74.501406238876	0.7
11426	65820	75.601506248876	1.1
11426	66194	75.909304842339	0.3
11426	66399	76.115338029181	0.2
11426	66602	76.322005410179	0.2
11426	66627	76.32376894915	0
11426	67146	76.82376894915	0.5
11426	67488	77.149905697425	0.3
11426	69271	78.75607816518	1.6
11426	69915	79.364035637419	0.6
11426	70418	79.864035637419	0.5
11426	70700	80.067964430174	0.2
11426	70843	80.168064440174	0.1
11426	71391	80.668064440174	0.5
11426	72264	81.372663502028	0.6
11426	72539	81.57583191797	0.5
11426	72661	81.676490264466	1
11426	73386	82.18484328242	0.5
11426	73856	82.48484328242	0.3
11426	74233	82.790376401885	0.3
11426	74463	82.994030002754	0.2
11426	74552	83.084405177203	0.4
11426	74789	83.290080053175	0.2
11426	75107	83.590180063175	0.3
11426	76294	84.496957886627	0.7
11426	76999	85.096957886627	0.6
11426	77547	85.600794137237	0.5
11426	77744	85.801942561528	0.6
11426	78442	86.309711821636	0.5
11426	78697	86.522536719557	0.2
11426	78828	86.6283490484	0.8
11426	79109	86.82313395403	0.3
11426	79180	86.90103193758	1.3
11426	79655	87.207378947508	0.3
11426	80052	87.516809019706	0.3
11426	81234	88.528274339656	1