version 2
run Stability-norelink-100-20130525-23:20:41-22103
attr configname Stability-norelink
attr datetime 20130525-23:20:41
attr experiment Stability
attr inifile omnetpp.ini
attr iterationvars $0=1e-4
attr iterationvars2 "$0=1e-4, $repetition=0"
attr measurement $0=1e-4
attr network Network
attr processid 22103
attr repetition 0
attr replication #0
attr resultdir results
attr runnumber 100
attr seedset 100

vector 9636  Network.dyn_peer[12]  lookupHopsSig:vector  ETV
vector 9637  Network.dyn_peer[12]  lookupStabilitySig:vector  ETV
vector 9638  Network.dyn_peer[12]  lookupTimeSig:vector  ETV
vector 9648  Network.dyn_peer[16]  lookupHopsSig:vector  ETV
vector 9649  Network.dyn_peer[16]  lookupStabilitySig:vector  ETV
vector 9650  Network.dyn_peer[16]  lookupTimeSig:vector  ETV
vector 9600  Network.dyn_peer[0]  lookupHopsSig:vector  ETV
vector 9601  Network.dyn_peer[0]  lookupStabilitySig:vector  ETV
vector 9602  Network.dyn_peer[0]  lookupTimeSig:vector  ETV
vector 9606  Network.dyn_peer[2]  lookupHopsSig:vector  ETV
vector 9607  Network.dyn_peer[2]  lookupStabilitySig:vector  ETV
vector 9608  Network.dyn_peer[2]  lookupTimeSig:vector  ETV
vector 9615  Network.dyn_peer[5]  lookupHopsSig:vector  ETV
vector 9616  Network.dyn_peer[5]  lookupStabilitySig:vector  ETV
vector 9617  Network.dyn_peer[5]  lookupTimeSig:vector  ETV
vector 9618  Network.dyn_peer[6]  lookupHopsSig:vector  ETV
vector 9619  Network.dyn_peer[6]  lookupStabilitySig:vector  ETV
vector 9620  Network.dyn_peer[6]  lookupTimeSig:vector  ETV
vector 9621  Network.dyn_peer[7]  lookupHopsSig:vector  ETV
vector 9622  Network.dyn_peer[7]  lookupStabilitySig:vector  ETV
vector 9623  Network.dyn_peer[7]  lookupTimeSig:vector  ETV
vector 9624  Network.dyn_peer[8]  lookupHopsSig:vector  ETV
vector 9625  Network.dyn_peer[8]  lookupStabilitySig:vector  ETV
vector 9626  Network.dyn_peer[8]  lookupTimeSig:vector  ETV
vector 9630  Network.dyn_peer[10]  lookupHopsSig:vector  ETV
vector 9631  Network.dyn_peer[10]  lookupStabilitySig:vector  ETV
vector 9632  Network.dyn_peer[10]  lookupTimeSig:vector  ETV
vector 9654  Network.dyn_peer[18]  lookupHopsSig:vector  ETV
vector 9655  Network.dyn_peer[18]  lookupStabilitySig:vector  ETV
vector 9656  Network.dyn_peer[18]  lookupTimeSig:vector  ETV
vector 9669  Network.dyn_peer[23]  lookupHopsSig:vector  ETV
vector 9670  Network.dyn_peer[23]  lookupStabilitySig:vector  ETV
vector 9671  Network.dyn_peer[23]  lookupTimeSig:vector  ETV
vector 9678  Network.dyn_peer[26]  lookupHopsSig:vector  ETV
vector 9679  Network.dyn_peer[26]  lookupStabilitySig:vector  ETV
vector 9680  Network.dyn_peer[26]  lookupTimeSig:vector  ETV
vector 9609  Network.dyn_peer[3]  lookupHopsSig:vector  ETV
vector 9610  Network.dyn_peer[3]  lookupStabilitySig:vector  ETV
vector 9611  Network.dyn_peer[3]  lookupTimeSig:vector  ETV
vector 9633  Network.dyn_peer[11]  lookupHopsSig:vector  ETV
vector 9634  Network.dyn_peer[11]  lookupStabilitySig:vector  ETV
vector 9635  Network.dyn_peer[11]  lookupTimeSig:vector  ETV
vector 9645  Network.dyn_peer[15]  lookupHopsSig:vector  ETV
vector 9646  Network.dyn_peer[15]  lookupStabilitySig:vector  ETV
vector 9647  Network.dyn_peer[15]  lookupTimeSig:vector  ETV
vector 9651  Network.dyn_peer[17]  lookupHopsSig:vector  ETV
vector 9652  Network.dyn_peer[17]  lookupStabilitySig:vector  ETV
vector 9653  Network.dyn_peer[17]  lookupTimeSig:vector  ETV
vector 9657  Network.dyn_peer[19]  lookupHopsSig:vector  ETV
vector 9658  Network.dyn_peer[19]  lookupStabilitySig:vector  ETV
vector 9659  Network.dyn_peer[19]  lookupTimeSig:vector  ETV
vector 9660  Network.dyn_peer[20]  lookupHopsSig:vector  ETV
vector 9661  Network.dyn_peer[20]  lookupStabilitySig:vector  ETV
vector 9662  Network.dyn_peer[20]  lookupTimeSig:vector  ETV
vector 9663  Network.dyn_peer[21]  lookupHopsSig:vector  ETV
vector 9664  Network.dyn_peer[21]  lookupStabilitySig:vector  ETV
vector 9665  Network.dyn_peer[21]  lookupTimeSig:vector  ETV
vector 9681  Network.dyn_peer[27]  lookupHopsSig:vector  ETV
vector 9682  Network.dyn_peer[27]  lookupStabilitySig:vector  ETV
vector 9683  Network.dyn_peer[27]  lookupTimeSig:vector  ETV
vector 9684  Network.dyn_peer[28]  lookupHopsSig:vector  ETV
vector 9685  Network.dyn_peer[28]  lookupStabilitySig:vector  ETV
vector 9686  Network.dyn_peer[28]  lookupTimeSig:vector  ETV
vector 9687  Network.dyn_peer[29]  lookupHopsSig:vector  ETV
vector 9688  Network.dyn_peer[29]  lookupStabilitySig:vector  ETV
vector 9689  Network.dyn_peer[29]  lookupTimeSig:vector  ETV
vector 9693  Network.dyn_peer[31]  lookupHopsSig:vector  ETV
vector 9694  Network.dyn_peer[31]  lookupStabilitySig:vector  ETV
vector 9695  Network.dyn_peer[31]  lookupTimeSig:vector  ETV
vector 9603  Network.dyn_peer[1]  lookupHopsSig:vector  ETV
vector 9604  Network.dyn_peer[1]  lookupStabilitySig:vector  ETV
vector 9605  Network.dyn_peer[1]  lookupTimeSig:vector  ETV
vector 9639  Network.dyn_peer[13]  lookupHopsSig:vector  ETV
vector 9640  Network.dyn_peer[13]  lookupStabilitySig:vector  ETV
vector 9641  Network.dyn_peer[13]  lookupTimeSig:vector  ETV
vector 9675  Network.dyn_peer[25]  lookupHopsSig:vector  ETV
vector 9676  Network.dyn_peer[25]  lookupStabilitySig:vector  ETV
vector 9677  Network.dyn_peer[25]  lookupTimeSig:vector  ETV
vector 9690  Network.dyn_peer[30]  lookupHopsSig:vector  ETV
vector 9691  Network.dyn_peer[30]  lookupStabilitySig:vector  ETV
vector 9692  Network.dyn_peer[30]  lookupTimeSig:vector  ETV
vector 9666  Network.dyn_peer[22]  lookupHopsSig:vector  ETV
vector 9667  Network.dyn_peer[22]  lookupStabilitySig:vector  ETV
vector 9668  Network.dyn_peer[22]  lookupTimeSig:vector  ETV
vector 9672  Network.dyn_peer[24]  lookupHopsSig:vector  ETV
vector 9673  Network.dyn_peer[24]  lookupStabilitySig:vector  ETV
vector 9674  Network.dyn_peer[24]  lookupTimeSig:vector  ETV
vector 9612  Network.dyn_peer[4]  lookupHopsSig:vector  ETV
vector 9613  Network.dyn_peer[4]  lookupStabilitySig:vector  ETV
vector 9614  Network.dyn_peer[4]  lookupTimeSig:vector  ETV
vector 9627  Network.dyn_peer[9]  lookupHopsSig:vector  ETV
vector 9628  Network.dyn_peer[9]  lookupStabilitySig:vector  ETV
vector 9629  Network.dyn_peer[9]  lookupTimeSig:vector  ETV
vector 9642  Network.dyn_peer[14]  lookupHopsSig:vector  ETV
vector 9643  Network.dyn_peer[14]  lookupStabilitySig:vector  ETV
vector 9644  Network.dyn_peer[14]  lookupTimeSig:vector  ETV
9600	132	20.1000001	1
9600	340	20.4000001	2
9600	814	21.106568031531	6
9600	923	21.209441113015	2
9600	1328	21.614223488497	4
9600	1337	21.615327062222	4
9600	2112	22.221427034529	6
9600	2929	22.921427034529	8
9600	3580	23.427371435161	4
9600	3905	23.734367328516	2
9600	4222	24.03218681007	2
9600	4462	24.23228691007	2
9600	4841	24.53228691007	3
9600	5232	24.840369614134	2
9600	5606	25.141474157496	2
9600	6172	25.644712409808	5
9600	7040	26.344712409808	7
9600	7534	26.862942184497	4
9600	7968	27.267960320437	3
9600	8308	27.648793480354	14
9600	8809	28.056087933624	3
9600	8875	28.071761236959	7
9600	9108	28.256245763303	1
9600	9181	28.28561668575	1
9600	9268	28.375980724469	1
9600	9426	28.486675716195	4
9600	9439	28.491895149356	1
9600	10776	29.691995249356	13
9600	11127	29.991995249356	2
9600	11674	30.49303378348	4
9600	11807	30.600170976258	4
9600	11919	30.69806259406	1
9600	12338	31.003633660871	2
9600	12506	31.105054281999	2
9600	14371	32.61027661312	16
9600	14728	32.91027661312	2
9600	15199	33.319387253095	3
9600	15854	33.945969221485	5
9600	16442	34.451601861058	5
9600	17252	35.151601861058	6
9600	17491	35.35704876917	1
9600	17661	35.463089530337	1
9600	18028	35.763089530337	2
9600	18127	35.868838381844	1
9600	18959	36.671992238109	8
9600	19636	37.271992238109	5
9600	20357	37.779686487192	4
9600	21300	38.548862391942	2
9600	21467	38.683248536599	9
9600	22224	39.284724520715	5
9600	22241	39.293834814977	0
9600	23083	39.893834814977	5
9600	23803	40.494792052764	6
9600	24622	41.094892152764	7
9600	25430	41.694892152764	5
9600	26047	42.200997286017	4
9600	26615	42.605364393851	4
9600	27342	43.205364393851	6
9600	27717	43.51432573461	2
9600	28069	43.825625854099	2
9600	28141	43.900570344417	4
9600	28918	44.50771896622	6
9600	29952	45.408968787818	9
9600	30949	46.209932731176	7
9600	31360	46.524685547782	2
9600	31391	46.539602909273	5
9600	32355	47.248410307418	7
9600	33458	48.248410307418	10
9600	33862	48.599184528117	1
9600	34175	48.858263380795	6
9600	34770	49.358363480795	5
9600	35244	49.758363480795	3
9600	36090	50.547623037668	5
9600	36127	50.566630151419	7
9600	36435	50.870723986716	2
9600	36903	51.272281488455	4
9600	37142	51.472281488455	1
9600	37625	51.87371646356	3
9600	37796	52.031900109716	1
9600	37880	52.12491398711	4
9600	38275	52.433887575288	3
9600	38457	52.633887575288	1
9600	38688	52.836438222819	1
9600	38890	53.046357773645	1
9600	39162	53.253001947851	2
9600	40773	54.586316495612	7
9600	41295	55.053001947851	19
9600	41371	55.091512889144	4
9600	41543	55.228814223507	4
9600	41804	55.441230460217	3
9600	41995	55.632482928282	3
9600	42462	56.038992366983	4
9600	43224	56.538992366983	5
9600	43952	57.042067845892	5
9600	44348	57.342067845892	2
9600	45502	58.349673310646	9
9600	45889	58.650814361178	3
9600	46067	58.753734703907	1
9600	46707	59.253734703907	4
9600	47187	59.656812029914	4
9600	47439	59.865188282204	1
9600	47630	60.035085873741	1
9600	47684	60.073832744143	1
9600	47738	60.11888101798	6
9600	48108	60.419876543138	3
9600	48808	61.019876543138	7
9600	49042	61.221548091314	1
9600	49604	61.821548091314	6
9600	49877	62.124756665573	2
9600	50484	62.627863406842	4
9600	50968	63.031011166987	3
9600	51226	63.240633242537	6
9600	51495	63.54494144336	2
9600	51594	63.645560049689	1
9600	52016	64.045560049689	3
9600	53023	64.748695830877	6
9600	53767	65.275037943262	10
9600	53828	65.351041201755	6
9600	53968	65.481700247877	1
9600	55084	66.385238963398	11
9600	55851	67.085238963398	6
9600	56195	67.392371728552	2
9600	56663	67.779101864852	2
9600	56687	67.795914380285	3
9600	56715	67.802942875657	0
9600	58363	69.102942875657	13
9600	58792	69.465039098536	2
9600	58972	69.590307859657	3
9600	58981	69.604999591958	5
9600	60565	70.814861190605	13
9600	61685	71.814861190605	11
9600	62046	72.123882079861	2
9600	62590	72.645604764542	4
9600	62798	72.850172691773	1
9600	63217	73.152134765098	3
9600	64044	73.752134765098	6
9600	64494	74.053375137802	2
9600	65419	74.75353335903	9
9600	65744	75.063297433007	2
9600	66507	75.772451319934	8
9600	66744	75.972451319934	2
9600	67338	76.472551419934	5
9600	68112	77.072551419934	5
9600	68836	77.574625204772	4
9600	69120	77.774725304772	2
9600	69769	78.274725304772	4
9600	69994	78.476496330886	1
9600	70229	78.679995917233	1
9600	70391	78.882551512264	1
9600	70638	79.08488350921	1
9600	70930	79.385905780099	2
9600	71169	79.60992978272	1
9600	71422	79.811486027572	2
9600	72967	81.099029577693	3
9600	73576	81.599029577693	4
9600	74718	82.597464265986	7
9600	74726	82.602688079152	5
9600	75012	82.808534867536	1
9600	75111	82.900915493825	12
9600	75686	83.30613679726	5
9600	76518	84.00613679726	6
9600	78004	85.233146308008	10
9600	79005	86.033146308008	8
9600	79390	86.335674366517	2
9600	80458	87.139230316097	9
9600	81255	87.739230316097	5
9600	82015	88.344113582579	5
9600	82350	88.644530835618	2
9600	82362	88.647360185258	9
9600	82695	88.951288586911	3
9600	83485	89.651288586911	6
9600	84480	90.560488871212	10
9600	84740	90.761966016768	2
9600	85581	91.561966016768	8
9600	87145	92.963028447335	17
9600	87915	93.569266317151	5
9600	88096	93.770979832785	1
9600	88102	93.776196128686	5
9600	89413	94.977986834718	8
9600	89418	94.980493048643	11
9600	89420	94.980933944659	11
9600	89634	95.178074307786	1
9600	90658	95.983913317912	10
9600	91194	96.383913317912	3
9600	91586	96.69197904871	2
9600	92748	97.59207914871	9
9600	93234	97.99207914871	3
9600	93667	98.396203887693	3
9600	93703	98.419937537635	3
9600	93857	98.528191354457	0
9600	94054	98.723549557135	3
9600	94286	98.932641029238	7
9600	94855	99.33302552483	4
9600	96419	100.754661722637	3
9600	96662	100.961015126541	1
9600	96927	101.230768010083	11
9600	96937	101.23302552483	20
9600	97943	102.03312562483	8
9600	98474	102.443671495291	1
9600	98621	102.63312562483	5
9600	98799	102.748322254245	2
9600	100327	104.048422354245	13
9600	100602	104.252466217507	2
9600	101391	104.862714394336	6
9600	101798	105.171479433162	3
9600	102483	105.771479433162	5
9600	103816	106.880523108734	10
9600	104158	107.180623514308	8
9600	104163	107.182010965998	2
9600	104597	107.488408016465	2
9600	104599	107.489293788893	2
9600	105325	107.989485790475	5
9600	105536	108.189485790475	1
9600	105809	108.395254132949	1
9600	105972	108.597802156772	1
9600	106059	108.700724298493	1
9600	106293	108.906941318499	2
9600	106921	109.506941318499	6
9600	108526	110.806801835268	11
9600	108950	111.114944087129	2
9600	109416	111.607407510137	21
9600	109625	111.815783598047	6
9600	109929	112.126105826758	5
9600	110273	112.430123561932	3
9600	110730	112.830123561932	3
9600	111482	113.43443034188	5
9600	111843	113.741291548189	2
9600	112372	114.241714041361	5
9600	112962	114.665967445148	3
9600	113229	114.875010640622	2
9600	113431	115.075010640622	1
9600	114004	115.581425121731	5
9600	114988	116.556653690523	7
9600	115250	116.763759401429	2
9600	116272	117.565628357124	8
9600	116403	117.673289144515	9
9600	116778	117.974782472971	3
9600	117147	118.275776176969	3
9600	117632	118.675776176969	3
9600	117994	118.994785016047	2
9600	118110	119.094949706831	2
9600	118229	119.202540825703	1
9600	119802	120.506798590895	14
9600	120577	121.206798590895	6
9600	121347	121.730531005889	9
9600	121754	122.046827854329	3
9600	122396	122.547468186957	5
9600	122779	122.847468186957	3
9600	123367	123.352876719325	4
9600	123738	123.673850914784	2
9600	123870	123.777411851741	7
9600	124345	124.183241633387	4
9600	125019	124.792915778328	7
9600	125965	125.600730098299	7
9600	126634	126.100830198299	5
9600	127434	126.800830198299	6
9600	127637	127.009221036679	1
9600	128044	127.418104133613	3
9600	128235	127.624521056777	14
9600	128306	127.655750366444	3
9600	128647	128.025230451109	5
9600	128771	128.133940859441	5
9600	129375	128.619848275143	4
9600	129401	128.639585566794	5
9600	129636	128.826413085606	7
9600	129789	128.926513185606	1
9600	130336	129.426513185606	4
9600	130637	129.732058938241	2
9600	131392	130.340246446248	6
9600	131419	130.348508243845	6
9600	131439	130.354041877978	5
9600	131838	130.657294018663	3
9600	132234	130.957294018663	2
9600	132467	131.157379123045	1
9600	132743	131.265323709698	2
9600	133346	131.765323709698	4
9600	133705	132.072500812685	2
9600	134203	132.577820540577	4
9600	134393	132.799229746269	5
9600	134656	133.10575452315	2
9600	134735	133.188281245125	5
9600	135158	133.60681154076	4
9600	135284	133.695644440874	4
9600	135423	133.825197997313	1
9600	135599	133.989817489556	8
9601	132	20.1000001	0.875
9601	340	20.4000001	0.75
9601	814	21.106568031531	0.25
9601	923	21.209441113015	0.75
9601	1328	21.614223488497	0.5
9601	1337	21.615327062222	0.5
9601	2112	22.221427034529	0.25
9601	2929	22.921427034529	0
9601	3580	23.427371435161	0.5
9601	3905	23.734367328516	0.75
9601	4222	24.03218681007	0.75
9601	4462	24.23228691007	0.75
9601	4841	24.53228691007	0.625
9601	5232	24.840369614134	0.75
9601	5606	25.141474157496	0.75
9601	6172	25.644712409808	0.375
9601	7040	26.344712409808	0.125
9601	7534	26.862942184497	0.5
9601	7968	27.267960320437	0.625
9601	8308	27.648793480354	-0.75
9601	8809	28.056087933624	0.625
9601	8875	28.071761236959	0.125
9601	9108	28.256245763303	0.875
9601	9181	28.28561668575	0.875
9601	9268	28.375980724469	0.875
9601	9426	28.486675716195	0.5
9601	9439	28.491895149356	0.875
9601	10776	29.691995249356	-0.625
9601	11127	29.991995249356	0.75
9601	11674	30.49303378348	0.5
9601	11807	30.600170976258	0.5
9601	11919	30.69806259406	0.875
9601	12338	31.003633660871	0.75
9601	12506	31.105054281999	0.75
9601	14371	32.61027661312	-1
9601	14728	32.91027661312	0.75
9601	15199	33.319387253095	0.625
9601	15854	33.945969221485	0.375
9601	16442	34.451601861058	0.375
9601	17252	35.151601861058	0.25
9601	17491	35.35704876917	0.875
9601	17661	35.463089530337	0.875
9601	18028	35.763089530337	0.75
9601	18127	35.868838381844	0.875
9601	18959	36.671992238109	0
9601	19636	37.271992238109	0.375
9601	20357	37.779686487192	0.5
9601	21300	38.548862391942	0.75
9601	21467	38.683248536599	-0.125
9601	22224	39.284724520715	0.375
9601	22241	39.293834814977	1
9601	23083	39.893834814977	0.375
9601	23803	40.494792052764	0.25
9601	24622	41.094892152764	0.125
9601	25430	41.694892152764	0.375
9601	26047	42.200997286017	0.5
9601	26615	42.605364393851	0.5
9601	27342	43.205364393851	0.25
9601	27717	43.51432573461	0.75
9601	28069	43.825625854099	0.75
9601	28141	43.900570344417	0.5
9601	28918	44.50771896622	0.25
9601	29952	45.408968787818	-0.125
9601	30949	46.209932731176	0.125
9601	31360	46.524685547782	0.75
9601	31391	46.539602909273	0.375
9601	32355	47.248410307418	0.125
9601	33458	48.248410307418	-0.25
9601	33862	48.599184528117	0.875
9601	34175	48.858263380795	0.25
9601	34770	49.358363480795	0.375
9601	35244	49.758363480795	0.625
9601	36090	50.547623037668	0.375
9601	36127	50.566630151419	0.125
9601	36435	50.870723986716	0.75
9601	36903	51.272281488455	0.5
9601	37142	51.472281488455	0.875
9601	37625	51.87371646356	0.625
9601	37796	52.031900109716	0.875
9601	37880	52.12491398711	0.5
9601	38275	52.433887575288	0.625
9601	38457	52.633887575288	0.875
9601	38688	52.836438222819	0.875
9601	38890	53.046357773645	0.875
9601	39162	53.253001947851	0.75
9601	40773	54.586316495612	0.125
9601	41295	55.053001947851	-1.375
9601	41371	55.091512889144	0.5
9601	41543	55.228814223507	0.5
9601	41804	55.441230460217	0.625
9601	41995	55.632482928282	0.625
9601	42462	56.038992366983	0.5
9601	43224	56.538992366983	0.375
9601	43952	57.042067845892	0.375
9601	44348	57.342067845892	0.75
9601	45502	58.349673310646	-0.125
9601	45889	58.650814361178	0.625
9601	46067	58.753734703907	0.875
9601	46707	59.253734703907	0.5
9601	47187	59.656812029914	0.5
9601	47439	59.865188282204	0.875
9601	47630	60.035085873741	0.875
9601	47684	60.073832744143	0.875
9601	47738	60.11888101798	0.25
9601	48108	60.419876543138	0.625
9601	48808	61.019876543138	0.125
9601	49042	61.221548091314	0.875
9601	49604	61.821548091314	0.25
9601	49877	62.124756665573	0.75
9601	50484	62.627863406842	0.5
9601	50968	63.031011166987	0.625
9601	51226	63.240633242537	0.25
9601	51495	63.54494144336	0.75
9601	51594	63.645560049689	0.875
9601	52016	64.045560049689	0.625
9601	53023	64.748695830877	0.25
9601	53767	65.275037943262	-0.25
9601	53828	65.351041201755	0.25
9601	53968	65.481700247877	0.875
9601	55084	66.385238963398	-0.375
9601	55851	67.085238963398	0.25
9601	56195	67.392371728552	0.75
9601	56663	67.779101864852	0.75
9601	56687	67.795914380285	0.625
9601	56715	67.802942875657	1
9601	58363	69.102942875657	-0.625
9601	58792	69.465039098536	0.75
9601	58972	69.590307859657	0.625
9601	58981	69.604999591958	0.375
9601	60565	70.814861190605	-0.625
9601	61685	71.814861190605	-0.375
9601	62046	72.123882079861	0.75
9601	62590	72.645604764542	0.5
9601	62798	72.850172691773	0.875
9601	63217	73.152134765098	0.625
9601	64044	73.752134765098	0.25
9601	64494	74.053375137802	0.75
9601	65419	74.75353335903	-0.125
9601	65744	75.063297433007	0.75
9601	66507	75.772451319934	0
9601	66744	75.972451319934	0.75
9601	67338	76.472551419934	0.44444441795349
9601	68112	77.072551419934	0.375
9601	68836	77.574625204772	0.5
9601	69120	77.774725304772	0.75
9601	69769	78.274725304772	0.5
9601	69994	78.476496330886	0.875
9601	70229	78.679995917233	0.875
9601	70391	78.882551512264	0.875
9601	70638	79.08488350921	0.875
9601	70930	79.385905780099	0.75
9601	71169	79.60992978272	0.875
9601	71422	79.811486027572	0.75
9601	72967	81.099029577693	0.625
9601	73576	81.599029577693	0.5
9601	74718	82.597464265986	0.125
9601	74726	82.602688079152	0.375
9601	75012	82.808534867536	0.875
9601	75111	82.900915493825	-0.5
9601	75686	83.30613679726	0.375
9601	76518	84.00613679726	0.25
9601	78004	85.233146308008	-0.25
9601	79005	86.033146308008	0
9601	79390	86.335674366517	0.75
9601	80458	87.139230316097	-0.125
9601	81255	87.739230316097	0.375
9601	82015	88.344113582579	0.375
9601	82350	88.644530835618	0.75
9601	82362	88.647360185258	-0.125
9601	82695	88.951288586911	0.66666665673256
9601	83485	89.651288586911	0.25
9601	84480	90.560488871212	-0.25
9601	84740	90.761966016768	0.75
9601	85581	91.561966016768	0
9601	87145	92.963028447335	-1.125
9601	87915	93.569266317151	0.375
9601	88096	93.770979832785	0.875
9601	88102	93.776196128686	0.375
9601	89413	94.977986834718	0
9601	89418	94.980493048643	-0.375
9601	89420	94.980933944659	-0.375
9601	89634	95.178074307786	0.875
9601	90658	95.983913317912	-0.25
9601	91194	96.383913317912	0.625
9601	91586	96.69197904871	0.75
9601	92748	97.59207914871	-0.125
9601	93234	97.99207914871	0.625
9601	93667	98.396203887693	0.625
9601	93703	98.419937537635	0.625
9601	93857	98.528191354457	1
9601	94054	98.723549557135	0.625
9601	94286	98.932641029238	0.125
9601	94855	99.33302552483	0.5
9601	96419	100.754661722637	0.625
9601	96662	100.961015126541	0.875
9601	96927	101.230768010083	-0.375
9601	96937	101.23302552483	-1.5
9601	97943	102.03312562483	0
9601	98474	102.443671495291	0.875
9601	98621	102.63312562483	0.375
9601	98799	102.748322254245	0.75
9601	100327	104.048422354245	-0.625
9601	100602	104.252466217507	0.75
9601	101391	104.862714394336	0.25
9601	101798	105.171479433162	0.625
9601	102483	105.771479433162	0.375
9601	103816	106.880523108734	-0.25
9601	104158	107.180623514308	0
9601	104163	107.182010965998	0.75
9601	104597	107.488408016465	0.75
9601	104599	107.489293788893	0.75
9601	105325	107.989485790475	0.375
9601	105536	108.189485790475	0.875
9601	105809	108.395254132949	0.875
9601	105972	108.597802156772	0.875
9601	106059	108.700724298493	0.875
9601	106293	108.906941318499	0.75
9601	106921	109.506941318499	0.25
9601	108526	110.806801835268	-0.375
9601	108950	111.114944087129	0.75
9601	109416	111.607407510137	-1.625
9601	109625	111.815783598047	0.33333331346512
9601	109929	112.126105826758	0.375
9601	110273	112.430123561932	0.625
9601	110730	112.830123561932	0.625
9601	111482	113.43443034188	0.375
9601	111843	113.741291548189	0.75
9601	112372	114.241714041361	0.375
9601	112962	114.665967445148	0.625
9601	113229	114.875010640622	0.75
9601	113431	115.075010640622	0.875
9601	114004	115.581425121731	0.375
9601	114988	116.556653690523	0.125
9601	115250	116.763759401429	0.75
9601	116272	117.565628357124	0
9601	116403	117.673289144515	-0.125
9601	116778	117.974782472971	0.625
9601	117147	118.275776176969	0.625
9601	117632	118.675776176969	0.625
9601	117994	118.994785016047	0.75
9601	118110	119.094949706831	0.75
9601	118229	119.202540825703	0.875
9601	119802	120.506798590895	-0.75
9601	120577	121.206798590895	0.25
9601	121347	121.730531005889	-0.125
9601	121754	122.046827854329	0.625
9601	122396	122.547468186957	0.375
9601	122779	122.847468186957	0.625
9601	123367	123.352876719325	0.5
9601	123738	123.673850914784	0.75
9601	123870	123.777411851741	0.125
9601	124345	124.183241633387	0.5
9601	125019	124.792915778328	0.125
9601	125965	125.600730098299	0.125
9601	126634	126.100830198299	0.375
9601	127434	126.800830198299	0.25
9601	127637	127.009221036679	0.875
9601	128044	127.418104133613	0.625
9601	128235	127.624521056777	-0.75
9601	128306	127.655750366444	0.625
9601	128647	128.025230451109	0.375
9601	128771	128.133940859441	0.375
9601	129375	128.619848275143	0.5
9601	129401	128.639585566794	0.375
9601	129636	128.826413085606	0.125
9601	129789	128.926513185606	0.875
9601	130336	129.426513185606	0.5
9601	130637	129.732058938241	0.75
9601	131392	130.340246446248	0.25
9601	131419	130.348508243845	0.25
9601	131439	130.354041877978	0.375
9601	131838	130.657294018663	0.625
9601	132234	130.957294018663	0.75
9601	132467	131.157379123045	0.875
9601	132743	131.265323709698	0.75
9601	133346	131.765323709698	0.5
9601	133705	132.072500812685	0.75
9601	134203	132.577820540577	0.5
9601	134393	132.799229746269	0.375
9601	134656	133.10575452315	0.75
9601	134735	133.188281245125	0.375
9601	135158	133.60681154076	0.5
9601	135284	133.695644440874	0.5
9601	135423	133.825197997313	0.875
9601	135599	133.989817489556	0
9602	132	20.1000001	0.1
9602	340	20.4000001	0.3
9602	814	21.106568031531	0.7
9602	923	21.209441113015	0.3
9602	1328	21.614223488497	0.5
9602	1337	21.615327062222	0.5
9602	2112	22.221427034529	0.6
9602	2929	22.921427034529	0.7
9602	3580	23.427371435161	0.5
9602	3905	23.734367328516	0.3
9602	4222	24.03218681007	0.2
9602	4462	24.23228691007	0.2
9602	4841	24.53228691007	0.3
9602	5232	24.840369614134	0.3
9602	5606	25.141474157496	0.3
9602	6172	25.644712409808	0.5
9602	7040	26.344712409808	0.7
9602	7534	26.862942184497	0.5
9602	7968	27.267960320437	0.4
9602	8308	27.648793480354	1.3
9602	8809	28.056087933624	0.4
9602	8875	28.071761236959	0.8
9602	9108	28.256245763303	0.2
9602	9181	28.28561668575	0.2
9602	9268	28.375980724469	0.2
9602	9426	28.486675716195	0.5
9602	9439	28.491895149356	0.2
9602	10776	29.691995249356	1.2
9602	11127	29.991995249356	0.3
9602	11674	30.49303378348	0.5
9602	11807	30.600170976258	0.5
9602	11919	30.69806259406	0.2
9602	12338	31.003633660871	0.3
9602	12506	31.105054281999	0.3
9602	14371	32.61027661312	1.5
9602	14728	32.91027661312	0.3
9602	15199	33.319387253095	0.4
9602	15854	33.945969221485	0.6
9602	16442	34.451601861058	0.5
9602	17252	35.151601861058	0.7
9602	17491	35.35704876917	0.2
9602	17661	35.463089530337	0.1
9602	18028	35.763089530337	0.3
9602	18127	35.868838381844	0.2
9602	18959	36.671992238109	0.8
9602	19636	37.271992238109	0.6
9602	20357	37.779686487192	0.5
9602	21300	38.548862391942	0.3
9602	21467	38.683248536599	0.9
9602	22224	39.284724520715	0.6
9602	22241	39.293834814977	0
9602	23083	39.893834814977	0.6
9602	23803	40.494792052764	0.6
9602	24622	41.094892152764	0.6
9602	25430	41.694892152764	0.6
9602	26047	42.200997286017	0.5
9602	26615	42.605364393851	0.4
9602	27342	43.205364393851	0.6
9602	27717	43.51432573461	0.3
9602	28069	43.825625854099	0.3
9602	28141	43.900570344417	0.5
9602	28918	44.50771896622	0.6
9602	29952	45.408968787818	0.9
9602	30949	46.209932731176	0.8
9602	31360	46.524685547782	0.3
9602	31391	46.539602909273	0.6
9602	32355	47.248410307418	0.7
9602	33458	48.248410307418	1
9602	33862	48.599184528117	0.1
9602	34175	48.858263380795	0.6
9602	34770	49.358363480795	0.5
9602	35244	49.758363480795	0.4
9602	36090	50.547623037668	0.6
9602	36127	50.566630151419	0.8
9602	36435	50.870723986716	0.3
9602	36903	51.272281488455	0.4
9602	37142	51.472281488455	0.2
9602	37625	51.87371646356	0.4
9602	37796	52.031900109716	0.2
9602	37880	52.12491398711	0.4
9602	38275	52.433887575288	0.3
9602	38457	52.633887575288	0.2
9602	38688	52.836438222819	0.2
9602	38890	53.046357773645	0.2
9602	39162	53.253001947851	0.2
9602	40773	54.586316495612	0.8
9602	41295	55.053001947851	1.8
9602	41371	55.091512889144	0.5
9602	41543	55.228814223507	0.5
9602	41804	55.441230460217	0.3
9602	41995	55.632482928282	0.4
9602	42462	56.038992366983	0.4
9602	43224	56.538992366983	0.5
9602	43952	57.042067845892	0.5
9602	44348	57.342067845892	0.3
9602	45502	58.349673310646	1
9602	45889	58.650814361178	0.3
9602	46067	58.753734703907	0.1
9602	46707	59.253734703907	0.5
9602	47187	59.656812029914	0.4
9602	47439	59.865188282204	0.2
9602	47630	60.035085873741	0.2
9602	47684	60.073832744143	0.2
9602	47738	60.11888101798	0.7
9602	48108	60.419876543138	0.3
9602	48808	61.019876543138	0.6
9602	49042	61.221548091314	0.1
9602	49604	61.821548091314	0.6
9602	49877	62.124756665573	0.3
9602	50484	62.627863406842	0.5
9602	50968	63.031011166987	0.4
9602	51226	63.240633242537	0.7
9602	51495	63.54494144336	0.3
9602	51594	63.645560049689	0.1
9602	52016	64.045560049689	0.4
9602	53023	64.748695830877	0.7
9602	53767	65.275037943262	1.1
9602	53828	65.351041201755	0.6
9602	53968	65.481700247877	0.2
9602	55084	66.385238963398	0.9
9602	55851	67.085238963398	0.7
9602	56195	67.392371728552	0.3
9602	56663	67.779101864852	0.3
9602	56687	67.795914380285	0.4
9602	56715	67.802942875657	0
9602	58363	69.102942875657	1.3
9602	58792	69.465039098536	0.3
9602	58972	69.590307859657	0.3
9602	58981	69.604999591958	0.5
9602	60565	70.814861190605	1.2
9602	61685	71.814861190605	1
9602	62046	72.123882079861	0.3
9602	62590	72.645604764542	0.5
9602	62798	72.850172691773	0.2
9602	63217	73.152134765098	0.3
9602	64044	73.752134765098	0.6
9602	64494	74.053375137802	0.3
9602	65419	74.75353335903	0.7
9602	65744	75.063297433007	0.3
9602	66507	75.772451319934	0.7
9602	66744	75.972451319934	0.2
9602	67338	76.472551419934	0.5
9602	68112	77.072551419934	0.6
9602	68836	77.574625204772	0.5
9602	69120	77.774725304772	0.2
9602	69769	78.274725304772	0.5
9602	69994	78.476496330886	0.2
9602	70229	78.679995917233	0.2
9602	70391	78.882551512264	0.2
9602	70638	79.08488350921	0.2
9602	70930	79.385905780099	0.3
9602	71169	79.60992978272	0.2
9602	71422	79.811486027572	0.2
9602	72967	81.099029577693	0.3
9602	73576	81.599029577693	0.5
9602	74718	82.597464265986	0.7
9602	74726	82.602688079152	0.4
9602	75012	82.808534867536	0.2
9602	75111	82.900915493825	1.3
9602	75686	83.30613679726	0.4
9602	76518	84.00613679726	0.7
9602	78004	85.233146308008	0.9
9602	79005	86.033146308008	0.8
9602	79390	86.335674366517	0.3
9602	80458	87.139230316097	0.8
9602	81255	87.739230316097	0.6
9602	82015	88.344113582579	0.6
9602	82350	88.644530835618	0.3
9602	82362	88.647360185258	0.9
9602	82695	88.951288586911	0.3
9602	83485	89.651288586911	0.7
9602	84480	90.560488871212	0.9
9602	84740	90.761966016768	0.2
9602	85581	91.561966016768	0.8
9602	87145	92.963028447335	1.4
9602	87915	93.569266317151	0.6
9602	88096	93.770979832785	0.2
9602	88102	93.776196128686	0.6
9602	89413	94.977986834718	0.9
9602	89418	94.980493048643	1.2
9602	89420	94.980933944659	1.2
9602	89634	95.178074307786	0.2
9602	90658	95.983913317912	0.8
9602	91194	96.383913317912	0.4
9602	91586	96.69197904871	0.3
9602	92748	97.59207914871	0.9
9602	93234	97.99207914871	0.4
9602	93667	98.396203887693	0.4
9602	93703	98.419937537635	0.4
9602	93857	98.528191354457	0.1