version 2
run Stability-norelink-137-20130525-23:23:11-22103
attr configname Stability-norelink
attr datetime 20130525-23:23:11
attr experiment Stability
attr inifile omnetpp.ini
attr iterationvars $0=1e-7
attr iterationvars2 "$0=1e-7, $repetition=7"
attr measurement $0=1e-7
attr network Network
attr processid 22103
attr repetition 7
attr replication #7
attr resultdir results
attr runnumber 137
attr seedset 137

vector 13173  Network.dyn_peer[7]  lookupHopsSig:vector  ETV
vector 13174  Network.dyn_peer[7]  lookupStabilitySig:vector  ETV
vector 13175  Network.dyn_peer[7]  lookupTimeSig:vector  ETV
vector 13200  Network.dyn_peer[16]  lookupHopsSig:vector  ETV
vector 13201  Network.dyn_peer[16]  lookupStabilitySig:vector  ETV
vector 13202  Network.dyn_peer[16]  lookupTimeSig:vector  ETV
vector 13203  Network.dyn_peer[17]  lookupHopsSig:vector  ETV
vector 13204  Network.dyn_peer[17]  lookupStabilitySig:vector  ETV
vector 13205  Network.dyn_peer[17]  lookupTimeSig:vector  ETV
vector 13206  Network.dyn_peer[18]  lookupHopsSig:vector  ETV
vector 13207  Network.dyn_peer[18]  lookupStabilitySig:vector  ETV
vector 13208  Network.dyn_peer[18]  lookupTimeSig:vector  ETV
vector 13236  Network.dyn_peer[28]  lookupHopsSig:vector  ETV
vector 13237  Network.dyn_peer[28]  lookupStabilitySig:vector  ETV
vector 13238  Network.dyn_peer[28]  lookupTimeSig:vector  ETV
vector 13152  Network.dyn_peer[0]  lookupHopsSig:vector  ETV
vector 13153  Network.dyn_peer[0]  lookupStabilitySig:vector  ETV
vector 13154  Network.dyn_peer[0]  lookupTimeSig:vector  ETV
vector 13155  Network.dyn_peer[1]  lookupHopsSig:vector  ETV
vector 13156  Network.dyn_peer[1]  lookupStabilitySig:vector  ETV
vector 13157  Network.dyn_peer[1]  lookupTimeSig:vector  ETV
vector 13170  Network.dyn_peer[6]  lookupHopsSig:vector  ETV
vector 13171  Network.dyn_peer[6]  lookupStabilitySig:vector  ETV
vector 13172  Network.dyn_peer[6]  lookupTimeSig:vector  ETV
vector 13185  Network.dyn_peer[11]  lookupHopsSig:vector  ETV
vector 13186  Network.dyn_peer[11]  lookupStabilitySig:vector  ETV
vector 13187  Network.dyn_peer[11]  lookupTimeSig:vector  ETV
vector 13209  Network.dyn_peer[19]  lookupHopsSig:vector  ETV
vector 13210  Network.dyn_peer[19]  lookupStabilitySig:vector  ETV
vector 13211  Network.dyn_peer[19]  lookupTimeSig:vector  ETV
vector 13158  Network.dyn_peer[2]  lookupHopsSig:vector  ETV
vector 13159  Network.dyn_peer[2]  lookupStabilitySig:vector  ETV
vector 13160  Network.dyn_peer[2]  lookupTimeSig:vector  ETV
vector 13161  Network.dyn_peer[3]  lookupHopsSig:vector  ETV
vector 13162  Network.dyn_peer[3]  lookupStabilitySig:vector  ETV
vector 13163  Network.dyn_peer[3]  lookupTimeSig:vector  ETV
vector 13167  Network.dyn_peer[5]  lookupHopsSig:vector  ETV
vector 13168  Network.dyn_peer[5]  lookupStabilitySig:vector  ETV
vector 13169  Network.dyn_peer[5]  lookupTimeSig:vector  ETV
vector 13182  Network.dyn_peer[10]  lookupHopsSig:vector  ETV
vector 13183  Network.dyn_peer[10]  lookupStabilitySig:vector  ETV
vector 13184  Network.dyn_peer[10]  lookupTimeSig:vector  ETV
vector 13188  Network.dyn_peer[12]  lookupHopsSig:vector  ETV
vector 13189  Network.dyn_peer[12]  lookupStabilitySig:vector  ETV
vector 13190  Network.dyn_peer[12]  lookupTimeSig:vector  ETV
vector 13191  Network.dyn_peer[13]  lookupHopsSig:vector  ETV
vector 13192  Network.dyn_peer[13]  lookupStabilitySig:vector  ETV
vector 13193  Network.dyn_peer[13]  lookupTimeSig:vector  ETV
vector 13197  Network.dyn_peer[15]  lookupHopsSig:vector  ETV
vector 13198  Network.dyn_peer[15]  lookupStabilitySig:vector  ETV
vector 13199  Network.dyn_peer[15]  lookupTimeSig:vector  ETV
vector 13212  Network.dyn_peer[20]  lookupHopsSig:vector  ETV
vector 13213  Network.dyn_peer[20]  lookupStabilitySig:vector  ETV
vector 13214  Network.dyn_peer[20]  lookupTimeSig:vector  ETV
vector 13215  Network.dyn_peer[21]  lookupHopsSig:vector  ETV
vector 13216  Network.dyn_peer[21]  lookupStabilitySig:vector  ETV
vector 13217  Network.dyn_peer[21]  lookupTimeSig:vector  ETV
vector 13218  Network.dyn_peer[22]  lookupHopsSig:vector  ETV
vector 13219  Network.dyn_peer[22]  lookupStabilitySig:vector  ETV
vector 13220  Network.dyn_peer[22]  lookupTimeSig:vector  ETV
vector 13224  Network.dyn_peer[24]  lookupHopsSig:vector  ETV
vector 13225  Network.dyn_peer[24]  lookupStabilitySig:vector  ETV
vector 13226  Network.dyn_peer[24]  lookupTimeSig:vector  ETV
vector 13227  Network.dyn_peer[25]  lookupHopsSig:vector  ETV
vector 13228  Network.dyn_peer[25]  lookupStabilitySig:vector  ETV
vector 13229  Network.dyn_peer[25]  lookupTimeSig:vector  ETV
vector 13233  Network.dyn_peer[27]  lookupHopsSig:vector  ETV
vector 13234  Network.dyn_peer[27]  lookupStabilitySig:vector  ETV
vector 13235  Network.dyn_peer[27]  lookupTimeSig:vector  ETV
vector 13242  Network.dyn_peer[30]  lookupHopsSig:vector  ETV
vector 13243  Network.dyn_peer[30]  lookupStabilitySig:vector  ETV
vector 13244  Network.dyn_peer[30]  lookupTimeSig:vector  ETV
vector 13179  Network.dyn_peer[9]  lookupHopsSig:vector  ETV
vector 13180  Network.dyn_peer[9]  lookupStabilitySig:vector  ETV
vector 13181  Network.dyn_peer[9]  lookupTimeSig:vector  ETV
vector 13194  Network.dyn_peer[14]  lookupHopsSig:vector  ETV
vector 13195  Network.dyn_peer[14]  lookupStabilitySig:vector  ETV
vector 13196  Network.dyn_peer[14]  lookupTimeSig:vector  ETV
vector 13221  Network.dyn_peer[23]  lookupHopsSig:vector  ETV
vector 13222  Network.dyn_peer[23]  lookupStabilitySig:vector  ETV
vector 13223  Network.dyn_peer[23]  lookupTimeSig:vector  ETV
vector 13230  Network.dyn_peer[26]  lookupHopsSig:vector  ETV
vector 13231  Network.dyn_peer[26]  lookupStabilitySig:vector  ETV
vector 13232  Network.dyn_peer[26]  lookupTimeSig:vector  ETV
vector 13239  Network.dyn_peer[29]  lookupHopsSig:vector  ETV
vector 13240  Network.dyn_peer[29]  lookupStabilitySig:vector  ETV
vector 13241  Network.dyn_peer[29]  lookupTimeSig:vector  ETV
vector 13245  Network.dyn_peer[31]  lookupHopsSig:vector  ETV
vector 13246  Network.dyn_peer[31]  lookupStabilitySig:vector  ETV
vector 13247  Network.dyn_peer[31]  lookupTimeSig:vector  ETV
vector 13176  Network.dyn_peer[8]  lookupHopsSig:vector  ETV
vector 13177  Network.dyn_peer[8]  lookupStabilitySig:vector  ETV
vector 13178  Network.dyn_peer[8]  lookupTimeSig:vector  ETV
vector 13164  Network.dyn_peer[4]  lookupHopsSig:vector  ETV
vector 13165  Network.dyn_peer[4]  lookupStabilitySig:vector  ETV
vector 13166  Network.dyn_peer[4]  lookupTimeSig:vector  ETV
13152	143	20.1000000001	1
13152	757	21.0000000001	9
13152	1083	21.30761357845	2
13152	1429	21.614987328368	2
13152	2540	22.622673514439	11
13152	3048	23.122673514439	4
13152	3404	23.42368721703	3
13152	3414	23.42635488627	3
13152	4118	24.02590075774	7
13152	4849	24.637210142119	5
13152	4912	24.721880012492	3
13152	5117	24.831367540384	0
13152	5327	25.031547440236	17
13152	5763	25.434857566551	4
13152	6826	26.334857566551	8
13152	8191	27.335496635251	9
13152	8453	27.535596635351	2
13152	8973	28.035596635351	4
13152	9335	28.340857530701	2
13152	9365	28.360639145505	2
13152	9705	28.642178276906	2
13152	9960	28.799262589991	2
13152	10198	29.008736525623	1
13152	10426	29.176284992634	8
13152	11418	29.976384992734	8
13152	11702	30.176384992734	2
13152	12734	30.977330421728	7
13152	13052	31.187455437464	2
13152	13539	31.604496571485	5
13152	13956	32.00057815208	8
13152	13959	32.001201978841	8
13152	13995	32.024230799146	4
13152	15161	32.931740991216	10
13152	17428	34.931740991216	20
13152	18074	35.44321878111	4
13152	18323	35.648625386843	2
13152	18556	35.848625386843	1
13152	18969	36.258798570674	3
13152	19311	36.566447978901	2
13152	19325	36.566547979001	0
13152	19482	36.766547979001	1
13152	20303	37.463419639863	4
13152	20582	37.663419639863	1
13152	21470	38.36549646882	7
13152	21600	38.473481892383	0
13152	22716	39.376939997266	9
13152	22939	39.589992398689	1
13152	23359	39.899277560319	3
13152	23722	40.199277560319	2
13152	23984	40.407539202304	1
13152	24302	40.716509320434	2
13152	24758	41.016609320534	3
13152	25070	41.316609320534	2
13152	26553	42.523435132874	11
13152	26902	42.824307967969	2
13152	27381	43.307366781845	11
13152	27528	43.410694607629	1
13152	27717	43.610694607629	1
13152	28226	44.019550427272	4
13152	29299	44.919550427272	9
13152	29323	44.92250907719	0
13152	29934	45.42250907719	5
13152	30398	45.829494954042	3
13152	30448	45.887501172054	3
13152	30923	46.290256505001	3
13152	31513	46.791423841782	5
13152	32691	47.771112510352	4
13152	33073	48.071212510452	3
13152	33749	48.471212510452	4
13152	34358	48.875368227785	3
13152	34907	49.361410484053	4
13152	35678	49.984125578606	10
13152	36107	50.384225578706	4
13152	37015	51.284225578706	8
13152	37422	51.685774001881	4
13152	37706	51.891383757306	1
13152	38049	52.199914591965	2
13152	38265	52.310118442842	2
13152	38538	52.515742886909	1
13152	38630	52.604484013971	4
13152	38641	52.606780059007	4
13152	38774	52.706880059107	1
13152	38998	52.906880059107	1
13152	39461	53.313829178372	3
13152	39898	53.714299281492	3
13152	41249	54.714399281592	10
13152	42275	55.72409214167	9
13152	42525	55.934940093744	1
13152	43280	56.538231086052	5
13152	43354	56.626523035265	3
13152	44101	57.230622952571	6
13152	45756	58.730622952571	15
13152	46026	58.937746579348	1
13152	46418	59.243364085805	2
13152	46420	59.245954424683	2
13152	47066	59.746054424783	6
13152	47829	60.446054424783	6
13152	48472	61.048205574699	5
13152	49596	61.894892129382	8
13152	49640	61.954743715468	10
13152	49901	62.098676253816	2
13152	50271	62.393352755028	2
13152	51154	63.000203245395	8
13152	51432	63.200203245395	1
13152	52098	63.801906832581	5
13152	52224	63.886229965888	1
13152	52536	64.118933934201	2
13152	53384	64.820984078058	8
13152	54174	65.520984078058	6
13152	55012	66.2445588554	8
13152	55517	66.70398656624	4
13152	55729	66.904294991193	1
13152	56234	67.25418831405	10
13152	56498	67.454885857167	2
13152	57615	68.354885857167	9
13152	58090	68.655812990012	2
13152	58847	69.255912990112	6
13152	59317	69.655912990112	3
13152	59967	70.163939998734	5
13152	60655	70.767151098753	6
13152	60850	70.967151098753	1
13152	61630	71.576908268605	5
13152	61934	71.783874096784	1
13152	62204	72.044031904605	2
13152	62388	72.148046175187	1
13152	63438	72.952479074384	8
13152	63887	73.345752021506	6
13152	64036	73.454974015483	1
13152	64426	73.761931375234	2
13152	66050	74.978844853199	12
13152	67031	75.682955793111	6
13152	67619	76.190068458384	6
13152	68445	76.988765150501	2
13152	68457	76.994370013778	7
13152	68957	77.441866394764	4
13152	69078	77.586422647059	4
13152	69179	77.644716738467	1
13152	69596	77.995042800526	3
13152	69838	78.195410892795	1
13152	69943	78.254243245383	5
13152	70647	78.763329344151	5
13152	70888	78.963329344151	1
13152	71163	79.171438889136	1
13152	71749	79.679060579236	4
13152	72080	79.987374827822	3
13152	73114	80.887374827822	9
13152	74192	81.89668446563	10
13152	74556	82.164621973712	1
13152	74594	82.213447703821	2
13152	75201	82.669134645455	4
13152	75234	82.72666127404	4
13152	75480	82.945389352509	1
13152	76559	83.755402643073	8
13152	77053	84.255402643073	4
13152	77375	84.557448655325	3
13152	77435	84.584233716568	2
13152	77697	84.784133716568	6
13152	77953	84.986514366688	1
13152	78069	85.07195555949	5
13152	78248	85.193041079936	6
13152	78467	85.395579393661	1
13152	78483	85.397369000081	0
13152	78723	85.597369000081	1
13152	79734	86.304516639348	8
13152	80367	86.804516639348	4
13152	81265	87.405775046028	6
13152	81820	87.871355011152	2
13152	82847	88.871355011152	9
13152	83276	89.279062344616	3
13152	83517	89.490321885297	1
13152	84216	90.097930425045	5
13152	84525	90.398030425145	4
13152	84959	90.798030425145	3
13152	85190	91.000970593544	1
13152	86251	91.810556219806	8
13152	86625	92.11193532632	4
13152	87154	92.613300734649	4
13152	88361	93.613649753008	10
13152	88809	93.920113074268	2
13152	88813	93.921805405471	2
13152	88905	93.947723464567	1
13152	89343	94.250360556069	4
13152	89516	94.426351636825	5
13152	89541	94.431403621159	5
13152	89706	94.531503621259	1
13152	90169	94.931503621259	4
13152	90499	95.141438634351	2
13152	91072	95.741438634351	5
13152	91426	96.045403966323	2
13152	92006	96.551320364592	5
13152	92590	97.151320364592	5
13152	92896	97.455567108225	2
13152	93145	97.661746985725	1
13152	93550	97.96393398078	3
13152	94329	98.66393398078	6
13152	94852	99.067695541708	3
13152	95597	99.672495855842	5
13152	95746	99.776706417006	4
13152	96196	100.078240477809	3
13152	97017	100.778240477809	7
13152	97624	101.282949049536	4
13152	97651	101.290771024411	0
13152	98551	101.990771024411	6
13152	98575	101.99530397559	0
13152	100062	103.203589930075	13
13152	101163	104.207959533929	9
13152	101589	104.605834807103	9
13152	102183	105.10936101642	5
13152	103266	106.00936101642	9
13152	104236	106.718412047132	7
13152	104299	106.798882222439	4
13152	104565	107.018700732573	2
13152	105210	107.626034504697	5
13152	105345	107.731238620326	9
13152	105436	107.80635949683	2
13152	105683	108.006690245809	2
13152	106327	108.606690245809	5
13152	106365	108.615078265518	0
13152	107665	109.564553403516	4
13152	108465	110.248786646283	2
13152	108985	110.648786646283	4
13152	109564	111.048886646383	4
13152	110485	111.748886646383	6
13152	111198	112.23075059659	1
13152	111543	112.45406020365	7
13152	111707	112.55926672958	3
13152	112148	112.860589337669	3
13152	112461	113.06469579249	1
13152	112710	113.270400900708	1
13152	113328	113.771987043879	6
13152	114258	114.673621244848	10
13152	115142	115.473621244848	8
13152	115869	116.071913715253	2
13152	115896	116.080585881162	5
13152	116381	116.483812028278	3
13152	116391	116.485101496358	3
13152	116417	116.49470645904	3
13152	117608	117.404182705319	9
13152	118257	118.004182705319	5
13152	118697	118.413896439404	3
13152	119620	119.119182207628	8
13152	119644	119.175667330714	8
13152	119673	119.190836710868	6
13152	119848	119.297610361316	2
13152	121280	120.397610361316	10
13152	122139	121.006494672426	7
13152	122651	121.406494672426	3
13152	123273	121.90860769919	4
13152	123312	121.925815877942	4
13152	123840	122.31289729016	3
13152	124181	122.618558235001	2
13152	124445	122.824731862889	1
13152	124525	122.883705036952	1
13152	124700	122.986590501349	2
13152	125348	123.486590501349	4
13152	125867	123.899514012906	1
13152	126769	124.699614013006	8
13152	127432	125.399614013006	6
13152	130059	127.601498671859	24
13152	130456	127.902884499996	2
13152	130504	127.949883434453	13
13152	130840	128.20802012518	2
13152	131085	128.408305514817	2
13152	131895	129.027549451085	3
13152	132262	129.330084975085	2
13152	132368	129.408305514817	10
13152	132688	129.632145197878	2
13152	133491	130.332245197978	7
13152	134389	131.132245197978	7
13152	134990	131.538637505322	3
13152	135480	131.939163748346	3
13152	136096	132.442505337056	6
13152	136327	132.651246321618	1
13152	136331	132.656188559713	6
13152	136828	133.103492243171	10
13152	136894	133.1499659685	4
13152	137040	133.326237471284	3
13152	137069	133.330002356687	0
13152	137811	133.930142005056	5
13152	138068	134.134389623393	7
13152	138627	134.534489623493	4
13152	139213	135.034489623493	4
13152	139535	135.336362410726	2
13152	139758	135.542291126915	1
13153	143	20.1000000001	0.875
13153	757	21.0000000001	-0.125
13153	1083	21.30761357845	0.75
13153	1429	21.614987328368	0.75
13153	2540	22.622673514439	-0.375
13153	3048	23.122673514439	0.5
13153	3404	23.42368721703	0.625
13153	3414	23.42635488627	0.625
13153	4118	24.02590075774	0.125
13153	4849	24.637210142119	0.375
13153	4912	24.721880012492	0.625
13153	5117	24.831367540384	1
13153	5327	25.031547440236	-1.125
13153	5763	25.434857566551	0.5
13153	6826	26.334857566551	0
13153	8191	27.335496635251	-0.125
13153	8453	27.535596635351	0.75
13153	8973	28.035596635351	0.5
13153	9335	28.340857530701	0.75
13153	9365	28.360639145505	0.75
13153	9705	28.642178276906	0.75
13153	9960	28.799262589991	0.75
13153	10198	29.008736525623	0.875
13153	10426	29.176284992634	0
13153	11418	29.976384992734	0
13153	11702	30.176384992734	0.75
13153	12734	30.977330421728	0.125
13153	13052	31.187455437464	0.75
13153	13539	31.604496571485	0.375
13153	13956	32.00057815208	0
13153	13959	32.001201978841	0
13153	13995	32.024230799146	0.5
13153	15161	32.931740991216	-0.25
13153	17428	34.931740991216	-1.5
13153	18074	35.44321878111	0.5
13153	18323	35.648625386843	0.75
13153	18556	35.848625386843	0.875
13153	18969	36.258798570674	0.625
13153	19311	36.566447978901	0.75
13153	19325	36.566547979001	1
13153	19482	36.766547979001	0.875
13153	20303	37.463419639863	0.5
13153	20582	37.663419639863	0.875
13153	21470	38.36549646882	0.125
13153	21600	38.473481892383	1
13153	22716	39.376939997266	-0.125
13153	22939	39.589992398689	0.875
13153	23359	39.899277560319	0.625
13153	23722	40.199277560319	0.75
13153	23984	40.407539202304	0.875
13153	24302	40.716509320434	0.75
13153	24758	41.016609320534	0.625
13153	25070	41.316609320534	0.75
13153	26553	42.523435132874	-0.375
13153	26902	42.824307967969	0.75
13153	27381	43.307366781845	-0.375
13153	27528	43.410694607629	0.875
13153	27717	43.610694607629	0.875
13153	28226	44.019550427272	0.5
13153	29299	44.919550427272	-0.125
13153	29323	44.92250907719	1
13153	29934	45.42250907719	0.375
13153	30398	45.829494954042	0.625
13153	30448	45.887501172054	0.625
13153	30923	46.290256505001	0.625
13153	31513	46.791423841782	0.375
13153	32691	47.771112510352	0.5
13153	33073	48.071212510452	0.625
13153	33749	48.471212510452	0.5
13153	34358	48.875368227785	0.625
13153	34907	49.361410484053	0.5
13153	35678	49.984125578606	-0.25
13153	36107	50.384225578706	0.5
13153	37015	51.284225578706	0
13153	37422	51.685774001881	0.5
13153	37706	51.891383757306	0.875
13153	38049	52.199914591965	0.75
13153	38265	52.310118442842	0.75
13153	38538	52.515742886909	0.875
13153	38630	52.604484013971	0.5
13153	38641	52.606780059007	0.5
13153	38774	52.706880059107	0.875
13153	38998	52.906880059107	0.875
13153	39461	53.313829178372	0.625
13153	39898	53.714299281492	0.625
13153	41249	54.714399281592	-0.25
13153	42275	55.72409214167	-0.125
13153	42525	55.934940093744	0.875
13153	43280	56.538231086052	0.375
13153	43354	56.626523035265	0.625
13153	44101	57.230622952571	0.25
13153	45756	58.730622952571	-0.875
13153	46026	58.937746579348	0.875
13153	46418	59.243364085805	0.75
13153	46420	59.245954424683	0.75
13153	47066	59.746054424783	0.25
13153	47829	60.446054424783	0.25
13153	48472	61.048205574699	0.375
13153	49596	61.894892129382	0
13153	49640	61.954743715468	-0.25
13153	49901	62.098676253816	0.75
13153	50271	62.393352755028	0.75
13153	51154	63.000203245395	0
13153	51432	63.200203245395	0.875
13153	52098	63.801906832581	0.375
13153	52224	63.886229965888	0.875
13153	52536	64.118933934201	0.75
13153	53384	64.820984078058	0
13153	54174	65.520984078058	0.25
13153	55012	66.2445588554	0
13153	55517	66.70398656624	0.5
13153	55729	66.904294991193	0.875
13153	56234	67.25418831405	-0.25
13153	56498	67.454885857167	0.75
13153	57615	68.354885857167	-0.125
13153	58090	68.655812990012	0.75
13153	58847	69.255912990112	0.25
13153	59317	69.655912990112	0.625
13153	59967	70.163939998734	0.375
13153	60655	70.767151098753	0.25
13153	60850	70.967151098753	0.875
13153	61630	71.576908268605	0.375
13153	61934	71.783874096784	0.875
13153	62204	72.044031904605	0.75
13153	62388	72.148046175187	0.875
13153	63438	72.952479074384	0
13153	63887	73.345752021506	0.25
13153	64036	73.454974015483	0.875
13153	64426	73.761931375234	0.75
13153	66050	74.978844853199	-0.5
13153	67031	75.682955793111	0.25
13153	67619	76.190068458384	0.25
13153	68445	76.988765150501	0.75
13153	68457	76.994370013778	0.125
13153	68957	77.441866394764	0.5
13153	69078	77.586422647059	0.5
13153	69179	77.644716738467	0.875
13153	69596	77.995042800526	0.625
13153	69838	78.195410892795	0.875
13153	69943	78.254243245383	0.375
13153	70647	78.763329344151	0.375
13153	70888	78.963329344151	0.875
13153	71163	79.171438889136	0.875
13153	71749	79.679060579236	0.5
13153	72080	79.987374827822	0.625
13153	73114	80.887374827822	-0.125
13153	74192	81.89668446563	-0.25
13153	74556	82.164621973712	0.875
13153	74594	82.213447703821	0.75
13153	75201	82.669134645455	0.5
13153	75234	82.72666127404	0.5
13153	75480	82.945389352509	0.875
13153	76559	83.755402643073	0
13153	77053	84.255402643073	0.5
13153	77375	84.557448655325	0.625
13153	77435	84.584233716568	0.75
13153	77697	84.784133716568	0.25
13153	77953	84.986514366688	0.875
13153	78069	85.07195555949	0.375
13153	78248	85.193041079936	0.25
13153	78467	85.395579393661	0.875
13153	78483	85.397369000081	1
13153	78723	85.597369000081	0.875
13153	79734	86.304516639348	0
13153	80367	86.804516639348	0.5
13153	81265	87.405775046028	0.25
13153	81820	87.871355011152	0.75
13153	82847	88.871355011152	-0.125
13153	83276	89.279062344616	0.625
13153	83517	89.490321885297	0.875
13153	84216	90.097930425045	0.375
13153	84525	90.398030425145	0.5
13153	84959	90.798030425145	0.625
13153	85190	91.000970593544	0.875
13153	86251	91.810556219806	0
13153	86625	92.11193532632	0.5
13153	87154	92.613300734649	0.5
13153	88361	93.613649753008	-0.25
13153	88809	93.920113074268	0.75
13153	88813	93.921805405471	0.75
13153	88905	93.947723464567	0.875
13153	89343	94.250360556069	0.5
13153	89516	94.426351636825	0.375
13153	89541	94.431403621159	0.375
13153	89706	94.531503621259	0.875
13153	90169	94.931503621259	0.5
13153	90499	95.141438634351	0.75
13153	91072	95.741438634351	0.375
13153	91426	96.045403966323	0.75
13153	92006	96.551320364592	0.375
13153	92590	97.151320364592	0.375
13153	92896	97.455567108225	0.75
13153	93145	97.661746985725	0.875
13153	93550	97.96393398078	0.625
13153	94329	98.66393398078	0.25
13153	94852	99.067695541708	0.625
13153	95597	99.672495855842	0.375
13153	95746	99.776706417006	0.5
13153	96196	100.078240477809	0.625
13153	97017	100.778240477809	0.125
13153	97624	101.282949049536	0.5
13153	97651	101.290771024411	1
13153	98551	101.990771024411	0.25
13153	98575	101.99530397559	1
13153	100062	103.203589930075	-0.625
13153	101163	104.207959533929	-0.125
13153	101589	104.605834807103	-0.125
13153	102183	105.10936101642	0.375
13153	103266	106.00936101642	-0.125
13153	104236	106.718412047132	0.125
13153	104299	106.798882222439	0.5
13153	104565	107.018700732573	0.75
13153	105210	107.626034504697	0.375
13153	105345	107.731238620326	-0.125
13153	105436	107.80635949683	0.75
13153	105683	108.006690245809	0.75
13153	106327	108.606690245809	0.375
13153	106365	108.615078265518	1
13153	107665	109.564553403516	0.5
13153	108465	110.248786646283	0.75
13153	108985	110.648786646283	0.5
13153	109564	111.048886646383	0.5
13153	110485	111.748886646383	0.25
13153	111198	112.23075059659	0.875
13153	111543	112.45406020365	0.125
13153	111707	112.55926672958	0.625
13153	112148	112.860589337669	0.625
13153	112461	113.06469579249	0.875
13153	112710	113.270400900708	0.875
13153	113328	113.771987043879	0.25
13153	114258	114.673621244848	-0.25
13153	115142	115.473621244848	0
13153	115869	116.071913715253	0.75
13153	115896	116.080585881162	0.375
13153	116381	116.483812028278	0.625
13153	116391	116.485101496358	0.625
13153	116417	116.49470645904	0.625
13153	117608	117.404182705319	-0.125
13153	118257	118.004182705319	0.375
13153	118697	118.413896439404	0.625
13153	119620	119.119182207628	0
13153	119644	119.175667330714	0
13153	119673	119.190836710868	0.25
13153	119848	119.297610361316	0.75
13153	121280	120.397610361316	-0.25
13153	122139	121.006494672426	0.125
13153	122651	121.406494672426	0.625
13153	123273	121.90860769919	0.5
13153	123312	121.925815877942	0.5
13153	123840	122.31289729016	0.625
13153	124181	122.618558235001	0.75
13153	124445	122.824731862889	0.875
13153	124525	122.883705036952	0.875
13153	124700	122.986590501349	0.75
13153	125348	123.486590501349	0.5
13153	125867	123.899514012906	0.875
13153	126769	124.699614013006	0
13153	127432	125.399614013006	0.25
13153	130059	127.601498671859	-2
13153	130456	127.902884499996	0.75
13153	130504	127.949883434453	-0.625
13153	130840	128.20802012518	0.75
13153	131085	128.408305514817	0.75
13153	131895	129.027549451085	0.625
13153	132262	129.330084975085	0.75
13153	132368	129.408305514817	-0.25
13153	132688	129.632145197878	0.75
13153	133491	130.332245197978	0.125
13153	134389	131.132245197978	0.125
13153	134990	131.538637505322	0.625
13153	135480	131.939163748346	0.625
13153	136096	132.442505337056	0.25
13153	136327	132.651246321618	0.875
13153	136331	132.656188559713	0.25
13153	136828	133.103492243171	-0.25
13153	136894	133.1499659685	0.5
13153	137040	133.326237471284	0.625
13153	137069	133.330002356687	1
13153	137811	133.930142005056	0.375
13153	138068	134.134389623393	0.125
13153	138627	134.534489623493	0.5
13153	139213	135.034489623493	0.5
13153	139535	135.336362410726	0.75
13153	139758	135.542291126915	0.875
13154	143	20.1000000001	0.1
13154	757	21.0000000001	0.9
13154	1083	21.30761357845	0.3
13154	1429	21.614987328368	0.3
13154	2540	22.622673514439	1
13154	3048	23.122673514439	0.5
13154	3404	23.42368721703	0.3
13154	3414	23.42635488627	0.3
13154	4118	24.02590075774	0.6
13154	4849	24.637210142119	0.6
13154	4912	24.721880012492	0.4
13154	5117	24.831367540384	0.1
13154	5327	25.031547440236	1.6
13154	5763	25.434857566551	0.4
13154	6826	26.334857566551	0.9
13154	8191	27.335496635251	1
13154	8453	27.535596635351	0.2
13154	8973	28.035596635351	0.5
13154	9335	28.340857530701	0.3
13154	9365	28.360639145505	0.3
13154	9705	28.642178276906	0.3
13154	9960	28.799262589991	0.3
13154	10198	29.008736525623	0.2
13154	10426	29.176284992634	0.8
13154	11418	29.976384992734	0.8
13154	11702	30.176384992734	0.2
13154	12734	30.977330421728	0.8
13154	13052	31.187455437464	0.2
13154	13539	31.604496571485	0.6
13154	13956	32.00057815208	0.8
13154	13959	32.001201978841	0.8
13154	13995	32.024230799146	0.4
13154	15161	32.931740991216	0.9
13154	17428	34.931740991216	2
13154	18074	35.44321878111	0.5
13154	18323	35.648625386843	0.2
13154	18556	35.848625386843	0.2
13154	18969	36.258798570674	0.4
13154	19311	36.566447978901	0.3
13154	19325	36.566547979001	0
13154	19482	36.766547979001	0.2
13154	20303	37.463419639863	0.4
13154	20582	37.663419639863	0.2
13154	21470	38.36549646882	0.7
13154	21600	38.473481892383	0.1
13154	22716	39.376939997266	0.9
13154	22939	39.589992398689	0.2
13154	23359	39.899277560319	0.3
13154	23722	40.199277560319	0.3
13154	23984	40.407539202304	0.2
13154	24302	40.716509320434	0.3
13154	24758	41.016609320534	0.3
13154	25070	41.316609320534	0.3
13154	26553	42.523435132874	1.2
13154	26902	42.824307967969	0.3
13154	27381	43.307366781845	1.1
13154	27528	43.410694607629	0.1
13154	27717	43.610694607629	0.2
13154	28226	44.019550427272	0.4
13154	29299	44.919550427272	0.9
13154	29323	44.92250907719	0
13154	29934	45.42250907719	0.5
13154	30398	45.829494954042	0.4
13154	30448	45.887501172054	0.4
13154	30923	46.290256505001	0.4
13154	31513	46.791423841782	0.5
13154	32691	47.771112510352	0.5
13154	33073	48.071212510452	0.3
13154	33749	48.471212510452	0.4
13154	34358	48.875368227785	0.4
13154	34907	49.361410484053	0.5
13154	35678	49.984125578606	1.1
13154	36107	50.384225578706	0.4
13154	37015	51.284225578706	0.9
13154	37422	51.685774001881	0.4
13154	37706	51.891383757306	0.2
13154	38049	52.199914591965	0.3
13154	38265	52.310118442842	0.3
13154	38538	52.515742886909	0.2
13154	38630	52.604484013971	0.4
13154	38641	52.606780059007	0.4
13154	38774	52.706880059107	0.1
13154	38998	52.906880059107	0.2
13154	39461	53.313829178372	0.4
13154	39898	53.714299281492	0.4
13154	41249	54.714399281592	1
13154	42275	55.72409214167	1
13154	42525	55.934940093744	0.2
13154	43280	56.538231086052	0.6
13154	43354	56.626523035265	0.4
13154	44101	57.230622952571	0.6
13154	45756	58.730622952571	1.5
13154	46026	58.937746579348	0.2
13154	46418	59.243364085805	0.3
13154	46420	59.245954424683	0.3
13154	47066	59.746054424783	0.5
13154	47829	60.446054424783	0.7
13154	48472	61.048205574699	0.6
13154	49596	61.894892129382	0.9
13154	49640	61.954743715468	0.9
13154	49901	62.098676253816	0.2
13154	50271	62.393352755028	0.3
13154	51154	63.000203245395	0.6
13154	51432	63.200203245395	0.2
13154	52098	63.801906832581	0.6
13154	52224	63.886229965888	0.2
13154	52536	64.118933934201	0.3
13154	53384	64.820984078058	0.7
13154	54174	65.520984078058	0.7
13154	55012	66.2445588554	0.7
13154	55517	66.70398656624	0.4
13154	55729	66.904294991193	0.2
13154	56234	67.25418831405	1
13154	56498	67.454885857167	0.2
13154	57615	68.354885857167	0.9
13154	58090	68.655812990012	0.3
13154	58847	69.255912990112	0.6
13154	59317	69.655912990112	0.4
13154	59967	70.163939998734	0.5
13154	60655	70.767151098753	0.6
13154	60850	70.967151098753	0.2
13154	61630	71.576908268605	0.6
13154	61934	71.783874096784	0.2
13154	62204	72.044031904605	0.3
13154	62388	72.148046175187	0.1
13154	63438	72.952479074384	0.8
13154	63887	73.345752021506	0.7
13154	64036	73.454974015483	0.1
13154	64426	73.761931375234	0.3
13154	66050	74.978844853199	1.2
13154	67031	75.682955793111	0.7
13154	67619	76.190068458384	0.5
13154	68445	76.988765150501	0.3
13154	68457	76.994370013778	0.8
13154	68957	77.441866394764	0.4
13154	69078	77.586422647059	0.5
13154	69179	77.644716738467	0.2
13154	69596	77.995042800526	0.4
13154	69838	78.195410892795	0.2
13154	69943	78.254243245383	0.6
13154	70647	78.763329344151	0.5
13154	70888	78.963329344151	0.2
13154	71163	79.171438889136	0.2
13154	71749	79.679060579236	0.5
13154	72080	79.987374827822	0.3
13154	73114	80.887374827822	0.9
13154	74192	81.89668446563	1
13154	74556	82.164621973712	0.2
13154	74594	82.213447703821	0.3
13154	75201	82.669134645455	0.5
13154	75234	82.72666127404	0.5
13154	75480	82.945389352509	0.2
13154	76559	83.755402643073	0.8
13154	77053	84.255402643073	0.5
13154	77375	84.557448655325	0.3
13154	77435	84.584233716568	0.3
13154	77697	84.784133716568	0.5
13154	77953	84.986514366688	0.2
13154	78069	85.07195555949	0.5
13154	78248	85.193041079936	0.6
13154	78467	85.395579393661	0.2
13154	78483	85.397369000081	0
13154	78723	85.597369000081	0.2
13154	79734	86.304516639348	0.7
13154	80367	86.804516639348	0.5
13154	81265	87.405775046028	0.6
13154	81820	87.871355011152	0.2
13154	82847	88.871355011152	1