version 2
run Stability-norelink-10-20130525-23:15:12-22103
attr configname Stability-norelink
attr datetime 20130525-23:15:12
attr experiment Stability
attr inifile omnetpp.ini
attr iterationvars $0=1e5
attr iterationvars2 "$0=1e5, $repetition=0"
attr measurement $0=1e5
attr network Network
attr processid 22103
attr repetition 0
attr replication #0
attr resultdir results
attr runnumber 10
attr seedset 10

vector 960  Network.dyn_peer[0]  lookupHopsSig:vector  ETV
vector 961  Network.dyn_peer[0]  lookupStabilitySig:vector  ETV
vector 962  Network.dyn_peer[0]  lookupTimeSig:vector  ETV
vector 963  Network.dyn_peer[1]  lookupHopsSig:vector  ETV
vector 964  Network.dyn_peer[1]  lookupStabilitySig:vector  ETV
vector 965  Network.dyn_peer[1]  lookupTimeSig:vector  ETV
vector 966  Network.dyn_peer[2]  lookupHopsSig:vector  ETV
vector 967  Network.dyn_peer[2]  lookupStabilitySig:vector  ETV
vector 968  Network.dyn_peer[2]  lookupTimeSig:vector  ETV
vector 969  Network.dyn_peer[3]  lookupHopsSig:vector  ETV
vector 970  Network.dyn_peer[3]  lookupStabilitySig:vector  ETV
vector 971  Network.dyn_peer[3]  lookupTimeSig:vector  ETV
vector 972  Network.dyn_peer[4]  lookupHopsSig:vector  ETV
vector 973  Network.dyn_peer[4]  lookupStabilitySig:vector  ETV
vector 974  Network.dyn_peer[4]  lookupTimeSig:vector  ETV
vector 975  Network.dyn_peer[5]  lookupHopsSig:vector  ETV
vector 976  Network.dyn_peer[5]  lookupStabilitySig:vector  ETV
vector 977  Network.dyn_peer[5]  lookupTimeSig:vector  ETV
vector 978  Network.dyn_peer[6]  lookupHopsSig:vector  ETV
vector 979  Network.dyn_peer[6]  lookupStabilitySig:vector  ETV
vector 980  Network.dyn_peer[6]  lookupTimeSig:vector  ETV
vector 981  Network.dyn_peer[7]  lookupHopsSig:vector  ETV
vector 982  Network.dyn_peer[7]  lookupStabilitySig:vector  ETV
vector 983  Network.dyn_peer[7]  lookupTimeSig:vector  ETV
vector 984  Network.dyn_peer[8]  lookupHopsSig:vector  ETV
vector 985  Network.dyn_peer[8]  lookupStabilitySig:vector  ETV
vector 986  Network.dyn_peer[8]  lookupTimeSig:vector  ETV
vector 987  Network.dyn_peer[9]  lookupHopsSig:vector  ETV
vector 988  Network.dyn_peer[9]  lookupStabilitySig:vector  ETV
vector 989  Network.dyn_peer[9]  lookupTimeSig:vector  ETV
vector 990  Network.dyn_peer[10]  lookupHopsSig:vector  ETV
vector 991  Network.dyn_peer[10]  lookupStabilitySig:vector  ETV
vector 992  Network.dyn_peer[10]  lookupTimeSig:vector  ETV
vector 993  Network.dyn_peer[11]  lookupHopsSig:vector  ETV
vector 994  Network.dyn_peer[11]  lookupStabilitySig:vector  ETV
vector 995  Network.dyn_peer[11]  lookupTimeSig:vector  ETV
vector 996  Network.dyn_peer[12]  lookupHopsSig:vector  ETV
vector 997  Network.dyn_peer[12]  lookupStabilitySig:vector  ETV
vector 998  Network.dyn_peer[12]  lookupTimeSig:vector  ETV
vector 999  Network.dyn_peer[13]  lookupHopsSig:vector  ETV
vector 1000  Network.dyn_peer[13]  lookupStabilitySig:vector  ETV
vector 1001  Network.dyn_peer[13]  lookupTimeSig:vector  ETV
vector 1002  Network.dyn_peer[14]  lookupHopsSig:vector  ETV
vector 1003  Network.dyn_peer[14]  lookupStabilitySig:vector  ETV
vector 1004  Network.dyn_peer[14]  lookupTimeSig:vector  ETV
vector 1005  Network.dyn_peer[15]  lookupHopsSig:vector  ETV
vector 1006  Network.dyn_peer[15]  lookupStabilitySig:vector  ETV
vector 1007  Network.dyn_peer[15]  lookupTimeSig:vector  ETV
vector 1008  Network.dyn_peer[16]  lookupHopsSig:vector  ETV
vector 1009  Network.dyn_peer[16]  lookupStabilitySig:vector  ETV
vector 1010  Network.dyn_peer[16]  lookupTimeSig:vector  ETV
vector 1011  Network.dyn_peer[17]  lookupHopsSig:vector  ETV
vector 1012  Network.dyn_peer[17]  lookupStabilitySig:vector  ETV
vector 1013  Network.dyn_peer[17]  lookupTimeSig:vector  ETV
vector 1014  Network.dyn_peer[18]  lookupHopsSig:vector  ETV
vector 1015  Network.dyn_peer[18]  lookupStabilitySig:vector  ETV
vector 1016  Network.dyn_peer[18]  lookupTimeSig:vector  ETV
vector 1017  Network.dyn_peer[19]  lookupHopsSig:vector  ETV
vector 1018  Network.dyn_peer[19]  lookupStabilitySig:vector  ETV
vector 1019  Network.dyn_peer[19]  lookupTimeSig:vector  ETV
vector 1020  Network.dyn_peer[20]  lookupHopsSig:vector  ETV
vector 1021  Network.dyn_peer[20]  lookupStabilitySig:vector  ETV
vector 1022  Network.dyn_peer[20]  lookupTimeSig:vector  ETV
vector 1023  Network.dyn_peer[21]  lookupHopsSig:vector  ETV
vector 1024  Network.dyn_peer[21]  lookupStabilitySig:vector  ETV
vector 1025  Network.dyn_peer[21]  lookupTimeSig:vector  ETV
vector 1026  Network.dyn_peer[22]  lookupHopsSig:vector  ETV
vector 1027  Network.dyn_peer[22]  lookupStabilitySig:vector  ETV
vector 1028  Network.dyn_peer[22]  lookupTimeSig:vector  ETV
vector 1029  Network.dyn_peer[23]  lookupHopsSig:vector  ETV
vector 1030  Network.dyn_peer[23]  lookupStabilitySig:vector  ETV
vector 1031  Network.dyn_peer[23]  lookupTimeSig:vector  ETV
vector 1032  Network.dyn_peer[24]  lookupHopsSig:vector  ETV
vector 1033  Network.dyn_peer[24]  lookupStabilitySig:vector  ETV
vector 1034  Network.dyn_peer[24]  lookupTimeSig:vector  ETV
vector 1035  Network.dyn_peer[25]  lookupHopsSig:vector  ETV
vector 1036  Network.dyn_peer[25]  lookupStabilitySig:vector  ETV
vector 1037  Network.dyn_peer[25]  lookupTimeSig:vector  ETV
vector 1038  Network.dyn_peer[26]  lookupHopsSig:vector  ETV
vector 1039  Network.dyn_peer[26]  lookupStabilitySig:vector  ETV
vector 1040  Network.dyn_peer[26]  lookupTimeSig:vector  ETV
vector 1041  Network.dyn_peer[27]  lookupHopsSig:vector  ETV
vector 1042  Network.dyn_peer[27]  lookupStabilitySig:vector  ETV
vector 1043  Network.dyn_peer[27]  lookupTimeSig:vector  ETV
vector 1044  Network.dyn_peer[28]  lookupHopsSig:vector  ETV
vector 1045  Network.dyn_peer[28]  lookupStabilitySig:vector  ETV
vector 1046  Network.dyn_peer[28]  lookupTimeSig:vector  ETV
vector 1047  Network.dyn_peer[29]  lookupHopsSig:vector  ETV
vector 1048  Network.dyn_peer[29]  lookupStabilitySig:vector  ETV
vector 1049  Network.dyn_peer[29]  lookupTimeSig:vector  ETV
vector 1050  Network.dyn_peer[30]  lookupHopsSig:vector  ETV
vector 1051  Network.dyn_peer[30]  lookupStabilitySig:vector  ETV
vector 1052  Network.dyn_peer[30]  lookupTimeSig:vector  ETV
vector 1053  Network.dyn_peer[31]  lookupHopsSig:vector  ETV
vector 1054  Network.dyn_peer[31]  lookupStabilitySig:vector  ETV
vector 1055  Network.dyn_peer[31]  lookupTimeSig:vector  ETV
960	30	120.2	2
960	33	120.4	1
960	38	120.607967149234	1
960	51	120.948862160593	2
960	1050	3320.2	2
960	1053	3320.4	1
960	1058	3320.609908547284	1
960	1062	3320.815576046566	1
960	2079	6520	0
960	2082	6520.2	1
960	2087	6520.408234017735	1
960	2091	6520.610082693241	1
960	3100	9720.1	1
960	3103	9720.3	1
960	3107	9720.502179084361	1
960	3112	9720.804370869399	2
960	4119	12920	0
960	4123	12920.3	2
960	4127	12920.500017596536	1
960	4134	12920.81944255836	2
960	5139	16120	0
960	5142	16120.2	1
960	5147	16120.50390380663	2
960	5154	16120.715894835377	1
960	6169	19320.2	2
960	6173	19320.5	2
960	6178	19320.803946451831	2
960	6185	19321.027474229009	1
960	7233	22520.1	1
960	7238	22520.403399759114	2
960	7245	22520.710405457513	2
960	7250	22520.914151369283	1
960	8287	25720.2	2
960	8291	25720.407447478109	1
960	8295	25720.615317852409	1
960	8300	25720.917468710388	2
960	9306	28920.2	2
960	9310	28920.5	2
960	9314	28920.703300078767	1
960	9318	28920.904963376037	1
960	10325	32120.1	1
960	10328	32120.3	1
960	10333	32120.60439495169	2
960	10341	32120.826200801212	1
960	11346	35320.2	2
960	11350	35320.5	2
960	11354	35320.707073279356	1
960	11358	35320.91557902899	1
960	12340	38520.2	2
960	12344	38520.5	2
960	12348	38520.705800636785	1
960	12352	38520.907848657098	1
960	13406	41720.1	1
960	13409	41720.3	1
960	13414	41720.511133820998	1
960	13418	41720.713553177601	1
960	14435	44920.2	2
960	14438	44920.4	1
960	14443	44920.612330767267	1
960	14448	44920.824703502728	1
960	15454	48120.2	2
960	15457	48120.4	1
960	15463	48120.625640388632	1
960	15470	48120.847007971161	1
960	16458	51320	0
960	16461	51320.2	1
960	16466	51320.405765835034	1
960	16473	51320.630643037176	1
960	17467	54520.2	2
960	17470	54520.4	1
960	17475	54520.606220195074	1
960	17479	54520.809343527128	1
960	18529	57720	0
960	18532	57720.2	1
960	18537	57720.415582313495	1
960	18543	57720.731629814872	2
960	19563	60920.1	1
960	19568	60920.311293290932	1
960	19575	60920.526982177989	1
960	19580	60920.734696761535	1
960	20595	64120.2	2
960	20599	64120.5	2
960	20604	64120.808219330019	2
960	20609	64121.019152608023	1
960	21636	67320	0
960	21639	67320.2	1
960	21650	67320.542162459826	2
960	21655	67320.747649433251	1
960	22710	70520.2	2
960	22714	70520.409640046744	1
960	22719	70520.617819074018	1
960	22724	70520.82684459277	1
960	23752	73720	0
960	23755	73720.2	1
960	23761	73720.506420196864	2
960	23765	73720.713058540023	1
960	24810	76920.2	2
960	24814	76920.5	2
960	24818	76920.701522505558	1
960	24825	76920.920448610492	1
960	25834	80120.2	2
960	25839	80120.501406037283	2
960	25844	80120.703332952792	1
960	25852	80120.926168922062	1
960	26870	83320.1	1
960	26873	83320.3	1
960	26878	83320.507248632804	1
960	26882	83320.716624811998	1
960	27905	86520.1	1
960	27910	86520.409800349094	2
960	27916	86520.717070366976	2
960	27920	86520.925706361379	1
960	28947	89720.1	1
960	28950	89720.3	1
960	28957	89720.528717816035	1
960	28972	89720.875611589142	2
960	30003	92920.2	2
960	30011	92920.41358910127	1
960	30017	92920.624447346679	1
960	30022	92920.925487699641	2
960	31050	96120.2	2
960	31054	96120.5	2
960	31070	96120.769077508686	1
960	31080	96121.106478651965	2
960	32088	99320.1	1
960	32091	99320.3	1
960	32100	99320.622696261648	2
960	32109	99320.858380342613	1
960	33111	102520.2	2
960	33114	102520.4	1
960	33118	102520.600467360892	1
960	33123	102520.906955769342	2
960	34159	105720.1	1
960	34163	105720.4	2
960	34168	105720.611213187199	1
960	34175	105720.824869815951	1
960	35209	108920.1	1
960	35212	108920.3	1
960	35216	108920.504272455747	1
960	35221	108920.81028192313	2
960	36243	112120.1	1
960	36246	112120.3	1
960	36252	112120.613796057356	2
960	36257	112120.822433584235	1
960	37285	115320.1	1
960	37291	115320.321117786128	1
960	37300	115320.637071146752	2
960	37304	115320.84219305368	1
960	38338	118520.1	1
960	38342	118520.302174016484	1
960	38346	118520.507295986781	1
960	38351	118520.719056117147	1
960	39366	121720.1	1
960	39370	121720.4	2
960	39374	121720.60488364788	1
960	39383	121720.832270909199	1
960	40389	124920.1	1
960	40393	124920.4	2
960	40400	124920.721108694143	2
960	40404	124920.927032136224	1
960	41450	128120.1	1
960	41454	128120.4	2
960	41458	128120.606426177087	1
960	41462	128120.813293001348	1
960	42462	131320.2	2
960	42466	131320.5	2
960	42471	131320.800713534201	2
960	42476	131321.01350482135	1
960	43509	134520.2	2
960	43512	134520.4	1
960	43516	134520.603586676777	1
960	43521	134520.814415914147	1
960	44536	137720.2	2
960	44539	137720.4	1
960	44543	137720.609184400448	1
960	44547	137720.81260951152	1
960	45591	140920.1	1
960	45599	140920.406750707902	2
960	45604	140920.715525970054	2
960	45608	140920.916502115675	1
960	46602	144120.2	2
960	46609	144120.523732709236	2
960	46613	144120.723886663141	1
960	46623	144120.962182927271	1
960	47639	147320	0
960	47643	147320.3	2
960	47647	147320.509331478839	1
960	47651	147320.713293796688	1
960	48634	150520.2	2
960	48639	150520.509131820474	2
960	48643	150520.714386454478	1
960	48651	150520.932039207811	1
960	49652	153720.1	1
960	49655	153720.3	1
960	49660	153720.509414033739	1
960	49664	153720.715360364667	1
960	50685	156920.1	1
960	50689	156920.4	2
960	50694	156920.607972914966	1
960	50699	156920.910041700872	2
960	51715	160120.1	1
960	51720	160120.305216344841	1
960	51725	160120.517670391561	1
960	51730	160120.720488712764	1
960	52765	163320.2	2
960	52769	163320.405951569706	1
960	52774	163320.714214206381	2
960	52780	163321.024360797349	2
960	53814	166520.2	2
960	53817	166520.4	1
960	53822	166520.703389757615	2
960	53826	166520.90594391347	1
960	54868	169720.1	1
960	54872	169720.4	2
960	54878	169720.716256037628	2
960	54887	169720.939113713962	1
960	55925	172920.1	1
960	55930	172920.307834078564	1
960	55935	172920.617783492292	2
960	55941	172920.829713044787	1
960	56982	176120.2	2
960	56986	176120.5	2
960	56993	176120.819374261999	2
960	56997	176121.024886582707	1
960	58045	179320.2	2
960	58048	179320.4	1
960	58056	179320.609454533236	1
960	58061	179320.822385959745	1
960	59089	182520.2	2
960	59093	182520.5	2
960	59097	182520.708990705562	1
960	59102	182520.916979921549	1
960	60103	185720.2	2
960	60108	185720.418914767743	1
960	60113	185720.72008741279	2
960	60117	185720.921200718927	1
960	61137	188920.2	2
960	61140	188920.4	1
960	61144	188920.60133214273	1
960	61155	188920.928427386994	2
960	62170	192120.2	2
960	62174	192120.5	2
960	62181	192120.900721937992	3
960	62186	192121.11417611633	1
960	63195	195320.1	1
960	63199	195320.302765785912	1
960	63208	195320.519987560836	1
960	63212	195320.728693229331	1
960	64245	198520.2	2
960	64248	198520.4	1
960	64253	198520.610294964068	1
960	64263	198520.931708664748	2
960	65302	201720.1	1
960	65305	201720.3	1
960	65310	201720.50548658717	1
960	65322	201720.844949818309	2
961	30	120.2	0.75
961	33	120.4	0.875
961	38	120.607967149234	0.875
961	51	120.948862160593	0.75
961	1050	3320.2	0.75
961	1053	3320.4	0.875
961	1058	3320.609908547284	0.875
961	1062	3320.815576046566	0.875
961	2079	6520	1
961	2082	6520.2	0.875
961	2087	6520.408234017735	0.875
961	2091	6520.610082693241	0.875
961	3100	9720.1	0.875
961	3103	9720.3	0.875
961	3107	9720.502179084361	0.875
961	3112	9720.804370869399	0.75
961	4119	12920	1
961	4123	12920.3	0.75
961	4127	12920.500017596536	0.875
961	4134	12920.81944255836	0.75
961	5139	16120	1
961	5142	16120.2	0.875
961	5147	16120.50390380663	0.75
961	5154	16120.715894835377	0.875
961	6169	19320.2	0.75
961	6173	19320.5	0.75
961	6178	19320.803946451831	0.75
961	6185	19321.027474229009	0.875
961	7233	22520.1	0.875
961	7238	22520.403399759114	0.75
961	7245	22520.710405457513	0.75
961	7250	22520.914151369283	0.875
961	8287	25720.2	0.75
961	8291	25720.407447478109	0.875
961	8295	25720.615317852409	0.875
961	8300	25720.917468710388	0.75
961	9306	28920.2	0.75
961	9310	28920.5	0.75
961	9314	28920.703300078767	0.875
961	9318	28920.904963376037	0.875
961	10325	32120.1	0.875
961	10328	32120.3	0.875
961	10333	32120.60439495169	0.75
961	10341	32120.826200801212	0.875
961	11346	35320.2	0.75
961	11350	35320.5	0.75
961	11354	35320.707073279356	0.875
961	11358	35320.91557902899	0.875
961	12340	38520.2	0.75
961	12344	38520.5	0.75
961	12348	38520.705800636785	0.875
961	12352	38520.907848657098	0.875
961	13406	41720.1	0.875
961	13409	41720.3	0.875
961	13414	41720.511133820998	0.875
961	13418	41720.713553177601	0.875
961	14435	44920.2	0.75
961	14438	44920.4	0.875
961	14443	44920.612330767267	0.875
961	14448	44920.824703502728	0.875
961	15454	48120.2	0.75
961	15457	48120.4	0.875
961	15463	48120.625640388632	0.875
961	15470	48120.847007971161	0.875
961	16458	51320	1
961	16461	51320.2	0.875
961	16466	51320.405765835034	0.875
961	16473	51320.630643037176	0.875
961	17467	54520.2	0.75
961	17470	54520.4	0.875
961	17475	54520.606220195074	0.875
961	17479	54520.809343527128	0.875
961	18529	57720	1
961	18532	57720.2	0.875
961	18537	57720.415582313495	0.875
961	18543	57720.731629814872	0.75
961	19563	60920.1	0.875
961	19568	60920.311293290932	0.875
961	19575	60920.526982177989	0.875
961	19580	60920.734696761535	0.875
961	20595	64120.2	0.75
961	20599	64120.5	0.75
961	20604	64120.808219330019	0.75
961	20609	64121.019152608023	0.875
961	21636	67320	1
961	21639	67320.2	0.875
961	21650	67320.542162459826	0.75
961	21655	67320.747649433251	0.875
961	22710	70520.2	0.75
961	22714	70520.409640046744	0.875
961	22719	70520.617819074018	0.875
961	22724	70520.82684459277	0.875
961	23752	73720	1
961	23755	73720.2	0.875
961	23761	73720.506420196864	0.75
961	23765	73720.713058540023	0.875
961	24810	76920.2	0.75
961	24814	76920.5	0.75
961	24818	76920.701522505558	0.875
961	24825	76920.920448610492	0.875
961	25834	80120.2	0.75
961	25839	80120.501406037283	0.75
961	25844	80120.703332952792	0.875
961	25852	80120.926168922062	0.875
961	26870	83320.1	0.875
961	26873	83320.3	0.875
961	26878	83320.507248632804	0.875
961	26882	83320.716624811998	0.875
961	27905	86520.1	0.875
961	27910	86520.409800349094	0.75
961	27916	86520.717070366976	0.75
961	27920	86520.925706361379	0.875
961	28947	89720.1	0.875
961	28950	89720.3	0.875
961	28957	89720.528717816035	0.875
961	28972	89720.875611589142	0.75
961	30003	92920.2	0.75
961	30011	92920.41358910127	0.875
961	30017	92920.624447346679	0.875
961	30022	92920.925487699641	0.75
961	31050	96120.2	0.75
961	31054	96120.5	0.75
961	31070	96120.769077508686	0.875
961	31080	96121.106478651965	0.75
961	32088	99320.1	0.875
961	32091	99320.3	0.875
961	32100	99320.622696261648	0.75
961	32109	99320.858380342613	0.875
961	33111	102520.2	0.75
961	33114	102520.4	0.875
961	33118	102520.600467360892	0.875
961	33123	102520.906955769342	0.75
961	34159	105720.1	0.875
961	34163	105720.4	0.75
961	34168	105720.611213187199	0.875
961	34175	105720.824869815951	0.875
961	35209	108920.1	0.875
961	35212	108920.3	0.875
961	35216	108920.504272455747	0.875
961	35221	108920.81028192313	0.75
961	36243	112120.1	0.875
961	36246	112120.3	0.875
961	36252	112120.613796057356	0.75
961	36257	112120.822433584235	0.875
961	37285	115320.1	0.875
961	37291	115320.321117786128	0.875
961	37300	115320.637071146752	0.75
961	37304	115320.84219305368	0.875
961	38338	118520.1	0.875
961	38342	118520.302174016484	0.875
961	38346	118520.507295986781	0.875
961	38351	118520.719056117147	0.875
961	39366	121720.1	0.875
961	39370	121720.4	0.75
961	39374	121720.60488364788	0.875
961	39383	121720.832270909199	0.875
961	40389	124920.1	0.875
961	40393	124920.4	0.75
961	40400	124920.721108694143	0.75
961	40404	124920.927032136224	0.875
961	41450	128120.1	0.875
961	41454	128120.4	0.75
961	41458	128120.606426177087	0.875
961	41462	128120.813293001348	0.875
961	42462	131320.2	0.75
961	42466	131320.5	0.75
961	42471	131320.800713534201	0.75
961	42476	131321.01350482135	0.875
961	43509	134520.2	0.75
961	43512	134520.4	0.875
961	43516	134520.603586676777	0.875
961	43521	134520.814415914147	0.875
961	44536	137720.2	0.75
961	44539	137720.4	0.875
961	44543	137720.609184400448	0.875
961	44547	137720.81260951152	0.875
961	45591	140920.1	0.875
961	45599	140920.406750707902	0.75
961	45604	140920.715525970054	0.75
961	45608	140920.916502115675	0.875
961	46602	144120.2	0.75
961	46609	144120.523732709236	0.75
961	46613	144120.723886663141	0.875
961	46623	144120.962182927271	0.875
961	47639	147320	1
961	47643	147320.3	0.75
961	47647	147320.509331478839	0.875
961	47651	147320.713293796688	0.875
961	48634	150520.2	0.75
961	48639	150520.509131820474	0.75
961	48643	150520.714386454478	0.875
961	48651	150520.932039207811	0.875
961	49652	153720.1	0.875
961	49655	153720.3	0.875
961	49660	153720.509414033739	0.875
961	49664	153720.715360364667	0.875
961	50685	156920.1	0.875
961	50689	156920.4	0.75
961	50694	156920.607972914966	0.875
961	50699	156920.910041700872	0.75
961	51715	160120.1	0.875
961	51720	160120.305216344841	0.875
961	51725	160120.517670391561	0.875
961	51730	160120.720488712764	0.875
961	52765	163320.2	0.75
961	52769	163320.405951569706	0.875
961	52774	163320.714214206381	0.75
961	52780	163321.024360797349	0.75
961	53814	166520.2	0.75
961	53817	166520.4	0.875
961	53822	166520.703389757615	0.75
961	53826	166520.90594391347	0.875
961	54868	169720.1	0.875
961	54872	169720.4	0.75
961	54878	169720.716256037628	0.75
961	54887	169720.939113713962	0.875
961	55925	172920.1	0.875
961	55930	172920.307834078564	0.875
961	55935	172920.617783492292	0.75
961	55941	172920.829713044787	0.875
961	56982	176120.2	0.75
961	56986	176120.5	0.75
961	56993	176120.819374261999	0.75
961	56997	176121.024886582707	0.875
961	58045	179320.2	0.75
961	58048	179320.4	0.875
961	58056	179320.609454533236	0.875
961	58061	179320.822385959745	0.875
961	59089	182520.2	0.75
961	59093	182520.5	0.75
961	59097	182520.708990705562	0.875
961	59102	182520.916979921549	0.875
961	60103	185720.2	0.75
961	60108	185720.418914767743	0.875
961	60113	185720.72008741279	0.75
961	60117	185720.921200718927	0.875
961	61137	188920.2	0.75
961	61140	188920.4	0.875
961	61144	188920.60133214273	0.875
961	61155	188920.928427386994	0.75
961	62170	192120.2	0.75
961	62174	192120.5	0.75
961	62181	192120.900721937992	0.625
961	62186	192121.11417611633	0.875
961	63195	195320.1	0.875
961	63199	195320.302765785912	0.875
961	63208	195320.519987560836	0.875
961	63212	195320.728693229331	0.875
961	64245	198520.2	0.75
961	64248	198520.4	0.875
961	64253	198520.610294964068	0.875
961	64263	198520.931708664748	0.75
961	65302	201720.1	0.875
961	65305	201720.3	0.875
961	65310	201720.50548658717	0.875
961	65322	201720.844949818309	0.75
962	30	120.2	0.2
962	33	120.4	0.2
962	38	120.607967149234	0.2
962	51	120.948862160593	0.3
962	1050	3320.2	0.2
962	1053	3320.4	0.2
962	1058	3320.609908547284	0.2
962	1062	3320.815576046566	0.2
962	2079	6520	0
962	2082	6520.2	0.2
962	2087	6520.408234017735	0.2
962	2091	6520.610082693241	0.2
962	3100	9720.1	0.1
962	3103	9720.3	0.2
962	3107	9720.502179084361	0.2
962	3112	9720.804370869399	0.3
962	4119	12920	0
962	4123	12920.3	0.3
962	4127	12920.500017596536	0.2
962	4134	12920.81944255836	0.3
962	5139	16120	0
962	5142	16120.2	0.2
962	5147	16120.50390380663	0.3
962	5154	16120.715894835377	0.2
962	6169	19320.2	0.2
962	6173	19320.5	0.3
962	6178	19320.803946451831	0.3
962	6185	19321.027474229009	0.2
962	7233	22520.1	0.1
962	7238	22520.403399759114	0.3
962	7245	22520.710405457513	0.3
962	7250	22520.914151369283	0.2
962	8287	25720.2	0.2
962	8291	25720.407447478109	0.2
962	8295	25720.615317852409	0.2
962	8300	25720.917468710388	0.3
962	9306	28920.2	0.2
962	9310	28920.5	0.3
962	9314	28920.703300078767	0.2
962	9318	28920.904963376037	0.2
962	10325	32120.1	0.1
962	10328	32120.3	0.2
962	10333	32120.60439495169	0.3
962	10341	32120.826200801212	0.2
962	11346	35320.2	0.2
962	11350	35320.5	0.3
962	11354	35320.707073279356	0.2
962	11358	35320.91557902899	0.2
962	12340	38520.2	0.2
962	12344	38520.5	0.3
962	12348	38520.705800636785	0.2
962	12352	38520.907848657098	0.2
962	13406	41720.1	0.1
962	13409	41720.3	0.2
962	13414	41720.511133820998	0.2
962	13418	41720.713553177601	0.2
962	14435	44920.2	0.2
962	14438	44920.4	0.2
962	14443	44920.612330767267	0.2
962	14448	44920.824703502728	0.2
962	15454	48120.2	0.2
962	15457	48120.4	0.2
962	15463	48120.625640388632	0.2
962	15470	48120.847007971161	0.2
962	16458	51320	0
962	16461	51320.2	0.2
962	16466	51320.405765835034	0.2
962	16473	51320.630643037176	0.2
962	17467	54520.2	0.2
962	17470	54520.4	0.2
962	17475	54520.606220195074	0.2
962	17479	54520.809343527128	0.2
962	18529	57720	0
962	18532	57720.2	0.2
962	18537	57720.415582313495	0.2
962	18543	57720.731629814872	0.3
962	19563	60920.1	0.1
962	19568	60920.311293290932	0.2
962	19575	60920.526982177989	0.2
962	19580	60920.734696761535	0.2
962	20595	64120.2	0.2
962	20599	64120.5	0.3
962	20604	64120.808219330019	0.3
962	20609	64121.019152608023	0.2
962	21636	67320	0
962	21639	67320.2	0.2
962	21650	67320.542162459826	0.3
962	21655	67320.747649433251	0.2
962	22710	70520.2	0.2
962	22714	70520.409640046744	0.2
962	22719	70520.617819074018	0.2
962	22724	70520.82684459277	0.2
962	23752	73720	0
962	23755	73720.2	0.2
962	23761	73720.506420196864	0.3
962	23765	73720.713058540023	0.2
962	24810	76920.2	0.2
962	24814	76920.5	0.3
962	24818	76920.701522505558	0.2
962	24825	76920.920448610492	0.2
962	25834	80120.2	0.2
962	25839	80120.501406037283	0.3
962	25844	80120.703332952792	0.2
962	25852	80120.926168922062	0.2
962	26870	83320.1	0.1
962	26873	83320.3	0.2
962	26878	83320.507248632804	0.2
962	26882	83320.716624811998	0.2
962	27905	86520.1	0.1
962	27910	86520.409800349094	0.3
962	27916	86520.717070366976	0.3
962	27920	86520.925706361379	0.2
962	28947	89720.1	0.1
962	28950	89720.3	0.2
962	28957	89720.528717816035	0.2
962	28972	89720.875611589142	0.3
962	30003	92920.2	0.2
962	30011	92920.41358910127	0.2
962	30017	92920.624447346679	0.2
962	30022	92920.925487699641	0.3
962	31050	96120.2	0.2
962	31054	96120.5	0.3
962	31070	96120.769077508686	0.2
962	31080	96121.106478651965	0.3
962	32088	99320.1	0.1
962	32091	99320.3	0.2
962	32100	99320.622696261648	0.3
962	32109	99320.858380342613	0.2
962	33111	102520.2	0.2
962	33114	102520.4	0.2
962	33118	102520.600467360892	0.2
962	33123	102520.906955769342	0.3
962	34159	105720.1	0.1
962	34163	105720.4	0.3
962	34168	105720.611213187199	0.2
962	34175	105720.824869815951	0.2
962	35209	108920.1	0.1
962	35212	108920.3	0.2
962	35216	108920.504272455747	0.2
962	35221	108920.81028192313	0.3
962	36243	112120.1	0.1
962	36246	112120.3	0.2
962	36252	112120.613796057356	0.3
962	36257	112120.822433584235	0.2
962	37285	115320.1	0.1
962	37291	115320.321117786128	0.2
962	37300	115320.637071146752	0.3
962	37304	115320.84219305368	0.2
962	38338	118520.1	0.1
962	38342	118520.302174016484	0.2
962	38346	118520.507295986781	0.2
962	38351	118520.719056117147	0.2
962	39366	121720.1	0.1
962	39370	121720.4	0.3
962	39374	121720.60488364788	0.2
962	39383	121720.832270909199	0.2
962	40389	124920.1	0.1
962	40393	124920.4	0.3
962	40400	124920.721108694143	0.3
962	40404	124920.927032136224	0.2
962	41450	128120.1	0.1
962	41454	128120.4	0.3
962	41458	128120.606426177087	0.2
962	41462	128120.813293001348	0.2
962	42462	131320.2	0.2
962	42466	131320.5	0.3
962	42471	131320.800713534201	0.3
962	42476	131321.01350482135	0.2
962	43509	134520.2	0.2
962	43512	134520.4	0.2
962	43516	134520.603586676777	0.2
962	43521	134520.814415914147	0.2
962	44536	137720.2	0.2
962	44539	137720.4	0.2
962	44543	137720.609184400448	0.2
962	44547	137720.81260951152	0.2
962	45591	140920.1	0.1
962	45599	140920.406750707902	0.3
962	45604	140920.715525970054	0.3
962	45608	140920.916502115675	0.2
962	46602	144120.2	0.2
962	46609	144120.523732709236	0.3
962	46613	144120.723886663141	0.2
962	46623	144120.962182927271	0.2
962	47639	147320	0
962	47643	147320.3	0.3
962	47647	147320.509331478839	0.2
962	47651	147320.713293796688	0.2
962	48634	150520.2	0.2
962	48639	150520.509131820474	0.3
962	48643	150520.714386454478	0.2
962	48651	150520.932039207811	0.2
962	49652	153720.1	0.1
962	49655	153720.3	0.2
962	49660	153720.509414033739	0.2
962	49664	153720.715360364667	0.2
962	50685	156920.1	0.1
962	50689	156920.4	0.3
962	50694	156920.607972914966	0.2
962	50699	156920.910041700872	0.3
962	51715	160120.1	0.1
962	51720	160120.305216344841	0.2
962	51725	160120.517670391561	0.2
962	51730	160120.720488712764	0.2
962	52765	163320.2	0.2
962	52769	163320.405951569706	0.2
962	52774	163320.714214206381	0.3
962	52780	163321.024360797349	0.3
962	53814	166520.2	0.2
962	53817	166520.4	0.2
962	53822	166520.703389757615	0.3
962	53826	166520.90594391347	0.2
962	54868	169720.1	0.1
962	54872	169720.4	0.3
962	54878	169720.716256037628	0.3
962	54887	169720.939113713962	0.2
962	55925	172920.1	0.1
962	55930	172920.307834078564	0.2
962	55935	172920.617783492292	0.3
962	55941	172920.829713044787	0.2
962	56982	176120.2	0.2
962	56986	176120.5	0.3
962	56993	176120.819374261999	0.3
962	56997	176121.024886582707	0.2
962	58045	179320.2	0.2
962	58048	179320.4	0.2
962	58056	179320.609454533236	0.2
962	58061	179320.822385959745	0.2
962	59089	182520.2	0.2
962	59093	182520.5	0.3
962	59097	182520.708990705562	0.2
962	59102	182520.916979921549	0.2
962	60103	185720.2	0.2
962	60108	185720.418914767743	0.2
962	60113	185720.72008741279	0.3
962	60117	185720.921200718927	0.2
962	61137	188920.2	0.2
962	61140	188920.4	0.2
962	61144	188920.60133214273	0.2
962	61155	188920.928427386994	0.3
962	62170	192120.2	0.2
962	62174	192120.5	0.3
962	62181	192120.900721937992	0.4
962	62186	192121.11417611633	0.2
962	63195	195320.1	0.1
962	63199	195320.302765785912	0.2
962	63208	195320.519987560836	0.2
962	63212	195320.728693229331	0.2
962	64245	198520.2	0.2
962	64248	198520.4	0.2
962	64253	198520.610294964068	0.2
962	64263	198520.931708664748	0.3
962	65302	201720.1	0.1
962	65305	201720.3	0.2
962	65310	201720.50548658717	0.2
962	65322	201720.844949818309	0.3
963	68	220.1	1
963	71	220.3	1
963	77	220.608788844572	2
963	81	220.809693438074	1
963	1078	3420	0
963	1084	3420.301522332725	2
963	1092	3420.533718122744	1
963	1096	3420.741635692722	1
963	2109	6620.2	2
963	2112	6620.4	1
963	2118	6620.621760398579	1
963	2124	6620.833799710462	1
963	3131	9820.3	3
963	3134	9820.5	1
963	3139	9820.800097699763	2
963	3144	9821.003671989104	1
963	4150	13020	0
963	4153	13020.2	1
963	4157	13020.40274067589	1
963	4164	13020.716855927883	2
963	5172	16220.2	2
963	5175	16220.4	1
963	5181	16220.613785511252	1
963	5185	16220.819789847835	1
963	6203	19420.2	2
963	6208	19420.415570088772	1
963	6213	19420.72351426566	2
963	6221	19420.951349954568	1
963	7267	22620.1	1
963	7271	22620.4	2
963	7282	22620.738548860461	2
963	7286	22620.941152810027	1
963	8317	25820.1	1
963	8320	25820.3	1
963	8326	25820.515151907314	1
963	8330	25820.723341925471	1
963	9335	29020.1	1
963	9338	29020.3	1
963	9343	29020.606079573093	2
963	9349	29020.917039106766	2
963	10358	32220.1	1
963	10361	32220.3	1
963	10365	32220.509874348051	1
963	10373	32220.740205845217	1
963	11376	35420.2	2
963	11380	35420.402055168515	1
963	11386	35420.608332947884	1
963	11394	35420.837117185534	1
963	12369	38620.1	1
963	12372	38620.3	1
963	12377	38620.516578774849	1
963	12382	38620.822711373379	2
963	13435	41820.1	1
963	13438	41820.3	1
963	13442	41820.50620265789	1
963	13447	41820.720584484253	1
963	14465	45020.1	1
963	14470	45020.402438691838	2
963	14474	45020.607628837863	1
963	14480	45020.812800452714	1
963	15488	48220.2	2
963	15491	48220.4	1
963	15496	48220.705579750698	2
963	15501	48221.006062773498	2
963	16489	51420	0
963	16493	51420.3	2
963	16499	51420.511166267524	1
963	16506	51420.733069123474	1
963	17496	54620.1	1
963	17501	54620.404253480215	2
963	17505	54620.607278827584	1
963	17511	54620.823472116461	1
963	18559	57820	0
963	18564	57820.307159705839	2
963	18569	57820.509283384381	1
963	18582	57820.8512990657	2
963	19598	61020.2	2
963	19603	61020.50469869062	2
963	19608	61020.7114846542	1