version 2
run Stability-norelink-142-20130525-23:23:31-22103
attr configname Stability-norelink
attr datetime 20130525-23:23:31
attr experiment Stability
attr inifile omnetpp.ini
attr iterationvars $0=1e-8
attr iterationvars2 "$0=1e-8, $repetition=2"
attr measurement $0=1e-8
attr network Network
attr processid 22103
attr repetition 2
attr replication #2
attr resultdir results
attr runnumber 142
attr seedset 142

vector 13641  Network.dyn_peer[3]  lookupHopsSig:vector  ETV
vector 13642  Network.dyn_peer[3]  lookupStabilitySig:vector  ETV
vector 13643  Network.dyn_peer[3]  lookupTimeSig:vector  ETV
vector 13680  Network.dyn_peer[16]  lookupHopsSig:vector  ETV
vector 13681  Network.dyn_peer[16]  lookupStabilitySig:vector  ETV
vector 13682  Network.dyn_peer[16]  lookupTimeSig:vector  ETV
vector 13710  Network.dyn_peer[26]  lookupHopsSig:vector  ETV
vector 13711  Network.dyn_peer[26]  lookupStabilitySig:vector  ETV
vector 13712  Network.dyn_peer[26]  lookupTimeSig:vector  ETV
vector 13632  Network.dyn_peer[0]  lookupHopsSig:vector  ETV
vector 13633  Network.dyn_peer[0]  lookupStabilitySig:vector  ETV
vector 13634  Network.dyn_peer[0]  lookupTimeSig:vector  ETV
vector 13650  Network.dyn_peer[6]  lookupHopsSig:vector  ETV
vector 13651  Network.dyn_peer[6]  lookupStabilitySig:vector  ETV
vector 13652  Network.dyn_peer[6]  lookupTimeSig:vector  ETV
vector 13653  Network.dyn_peer[7]  lookupHopsSig:vector  ETV
vector 13654  Network.dyn_peer[7]  lookupStabilitySig:vector  ETV
vector 13655  Network.dyn_peer[7]  lookupTimeSig:vector  ETV
vector 13659  Network.dyn_peer[9]  lookupHopsSig:vector  ETV
vector 13660  Network.dyn_peer[9]  lookupStabilitySig:vector  ETV
vector 13661  Network.dyn_peer[9]  lookupTimeSig:vector  ETV
vector 13662  Network.dyn_peer[10]  lookupHopsSig:vector  ETV
vector 13663  Network.dyn_peer[10]  lookupStabilitySig:vector  ETV
vector 13664  Network.dyn_peer[10]  lookupTimeSig:vector  ETV
vector 13668  Network.dyn_peer[12]  lookupHopsSig:vector  ETV
vector 13669  Network.dyn_peer[12]  lookupStabilitySig:vector  ETV
vector 13670  Network.dyn_peer[12]  lookupTimeSig:vector  ETV
vector 13671  Network.dyn_peer[13]  lookupHopsSig:vector  ETV
vector 13672  Network.dyn_peer[13]  lookupStabilitySig:vector  ETV
vector 13673  Network.dyn_peer[13]  lookupTimeSig:vector  ETV
vector 13698  Network.dyn_peer[22]  lookupHopsSig:vector  ETV
vector 13699  Network.dyn_peer[22]  lookupStabilitySig:vector  ETV
vector 13700  Network.dyn_peer[22]  lookupTimeSig:vector  ETV
vector 13701  Network.dyn_peer[23]  lookupHopsSig:vector  ETV
vector 13702  Network.dyn_peer[23]  lookupStabilitySig:vector  ETV
vector 13703  Network.dyn_peer[23]  lookupTimeSig:vector  ETV
vector 13713  Network.dyn_peer[27]  lookupHopsSig:vector  ETV
vector 13714  Network.dyn_peer[27]  lookupStabilitySig:vector  ETV
vector 13715  Network.dyn_peer[27]  lookupTimeSig:vector  ETV
vector 13638  Network.dyn_peer[2]  lookupHopsSig:vector  ETV
vector 13639  Network.dyn_peer[2]  lookupStabilitySig:vector  ETV
vector 13640  Network.dyn_peer[2]  lookupTimeSig:vector  ETV
vector 13674  Network.dyn_peer[14]  lookupHopsSig:vector  ETV
vector 13675  Network.dyn_peer[14]  lookupStabilitySig:vector  ETV
vector 13676  Network.dyn_peer[14]  lookupTimeSig:vector  ETV
vector 13677  Network.dyn_peer[15]  lookupHopsSig:vector  ETV
vector 13678  Network.dyn_peer[15]  lookupStabilitySig:vector  ETV
vector 13679  Network.dyn_peer[15]  lookupTimeSig:vector  ETV
vector 13683  Network.dyn_peer[17]  lookupHopsSig:vector  ETV
vector 13684  Network.dyn_peer[17]  lookupStabilitySig:vector  ETV
vector 13685  Network.dyn_peer[17]  lookupTimeSig:vector  ETV
vector 13689  Network.dyn_peer[19]  lookupHopsSig:vector  ETV
vector 13690  Network.dyn_peer[19]  lookupStabilitySig:vector  ETV
vector 13691  Network.dyn_peer[19]  lookupTimeSig:vector  ETV
vector 13695  Network.dyn_peer[21]  lookupHopsSig:vector  ETV
vector 13696  Network.dyn_peer[21]  lookupStabilitySig:vector  ETV
vector 13697  Network.dyn_peer[21]  lookupTimeSig:vector  ETV
vector 13704  Network.dyn_peer[24]  lookupHopsSig:vector  ETV
vector 13705  Network.dyn_peer[24]  lookupStabilitySig:vector  ETV
vector 13706  Network.dyn_peer[24]  lookupTimeSig:vector  ETV
vector 13725  Network.dyn_peer[31]  lookupHopsSig:vector  ETV
vector 13726  Network.dyn_peer[31]  lookupStabilitySig:vector  ETV
vector 13727  Network.dyn_peer[31]  lookupTimeSig:vector  ETV
vector 13635  Network.dyn_peer[1]  lookupHopsSig:vector  ETV
vector 13636  Network.dyn_peer[1]  lookupStabilitySig:vector  ETV
vector 13637  Network.dyn_peer[1]  lookupTimeSig:vector  ETV
vector 13644  Network.dyn_peer[4]  lookupHopsSig:vector  ETV
vector 13645  Network.dyn_peer[4]  lookupStabilitySig:vector  ETV
vector 13646  Network.dyn_peer[4]  lookupTimeSig:vector  ETV
vector 13647  Network.dyn_peer[5]  lookupHopsSig:vector  ETV
vector 13648  Network.dyn_peer[5]  lookupStabilitySig:vector  ETV
vector 13649  Network.dyn_peer[5]  lookupTimeSig:vector  ETV
vector 13665  Network.dyn_peer[11]  lookupHopsSig:vector  ETV
vector 13666  Network.dyn_peer[11]  lookupStabilitySig:vector  ETV
vector 13667  Network.dyn_peer[11]  lookupTimeSig:vector  ETV
vector 13686  Network.dyn_peer[18]  lookupHopsSig:vector  ETV
vector 13687  Network.dyn_peer[18]  lookupStabilitySig:vector  ETV
vector 13688  Network.dyn_peer[18]  lookupTimeSig:vector  ETV
vector 13719  Network.dyn_peer[29]  lookupHopsSig:vector  ETV
vector 13720  Network.dyn_peer[29]  lookupStabilitySig:vector  ETV
vector 13721  Network.dyn_peer[29]  lookupTimeSig:vector  ETV
vector 13656  Network.dyn_peer[8]  lookupHopsSig:vector  ETV
vector 13657  Network.dyn_peer[8]  lookupStabilitySig:vector  ETV
vector 13658  Network.dyn_peer[8]  lookupTimeSig:vector  ETV
vector 13707  Network.dyn_peer[25]  lookupHopsSig:vector  ETV
vector 13708  Network.dyn_peer[25]  lookupStabilitySig:vector  ETV
vector 13709  Network.dyn_peer[25]  lookupTimeSig:vector  ETV
vector 13716  Network.dyn_peer[28]  lookupHopsSig:vector  ETV
vector 13717  Network.dyn_peer[28]  lookupStabilitySig:vector  ETV
vector 13718  Network.dyn_peer[28]  lookupTimeSig:vector  ETV
vector 13722  Network.dyn_peer[30]  lookupHopsSig:vector  ETV
vector 13723  Network.dyn_peer[30]  lookupStabilitySig:vector  ETV
vector 13724  Network.dyn_peer[30]  lookupTimeSig:vector  ETV
vector 13692  Network.dyn_peer[20]  lookupHopsSig:vector  ETV
vector 13693  Network.dyn_peer[20]  lookupStabilitySig:vector  ETV
vector 13694  Network.dyn_peer[20]  lookupTimeSig:vector  ETV
13632	136	20.10000000001	1
13632	505	20.70000000001	5
13632	761	21.002395143735	2
13632	1124	21.311067775115	2
13632	1279	21.504639093175	2
13632	2115	22.110511149657	6
13632	2872	22.710511149657	6
13632	3147	22.921568213693	2
13632	3410	23.136189479814	1
13632	3753	23.437297796103	6
13632	4517	24.041304475438	7
13632	5576	25.041304475438	10
13632	6614	25.940310968309	4
13632	6847	26.051480353379	7
13632	6887	26.05921784257	0
13632	8324	27.254951208213	9
13632	9281	28.154951208213	8
13632	9501	28.457368416113	2
13632	9793	28.761890334275	4
13632	10107	29.061890334275	2
13632	10377	29.270211670265	1
13632	10816	29.671405416526	4
13632	11074	29.871405416526	1
13632	11751	30.474609904658	5
13632	12131	30.782102241484	4
13632	12985	31.582102241484	7
13632	13466	31.990686848224	3
13632	13849	32.354769473266	7
13632	14074	32.593947452213	5
13632	14101	32.604851399033	5
13632	14285	32.763636949338	3
13632	14316	32.812578215905	1
13632	14560	33.014069466086	1
13632	14668	33.115046093587	1
13632	14754	33.166482224497	3
13632	14908	33.316187959467	2
13632	14922	33.323081325925	1
13632	14943	33.347753562018	1
13632	14994	33.400857479324	8
13632	15405	33.709277994678	4
13632	15686	33.909277994678	2
13632	15956	34.112758718572	2
13632	16583	34.612758718572	4
13632	17055	35.012858718582	4
13632	17990	35.7354134002	3
13632	18507	36.212858718582	12
13632	18753	36.415939399562	2
13632	19211	36.815939399562	3
13632	19815	37.241809036258	2
13632	19994	37.350287757585	1
13632	20402	37.665017549543	2
13632	21037	38.176875760613	5
13632	21560	38.581334104687	5
13632	22523	39.381334104687	7
13632	23015	39.787967981323	3
13632	23074	39.798053513979	0
13632	23617	40.298053513979	5
13632	24379	40.898619389345	7
13632	25825	42.198619389345	12
13632	26417	42.708151207305	4
13632	27003	43.117682701309	3
13632	27244	43.327008085035	1
13632	27634	43.690795601576	6
13632	27718	43.736305878191	3
13632	28062	44.000463607928	3
13632	28072	44.004589031719	4
13632	28505	44.305580269797	3
13632	28784	44.505580269797	1
13632	29166	44.810996251041	2
13632	29603	45.224499952494	3
13632	30002	45.529516635608	3
13632	30329	45.850075198905	2
13632	30471	45.95444405393	0
13632	30545	46.029177260645	0
13632	30712	46.156353124694	1
13632	31190	46.581246170859	3
13632	31205	46.610755627873	2
13632	31463	46.810982219442	1
13632	33104	47.917614814996	13
13632	33514	48.217614814996	2
13632	33631	48.319027954555	2
13632	34357	49.024695177426	8
13632	34716	49.424695177426	3
13632	35180	49.829717904956	3
13632	35543	50.137344229966	2
13632	35554	50.140261998272	1
13632	35918	50.44473522302	9
13632	37817	52.154170188445	18
13632	38390	52.654170188445	4
13632	38718	52.96046348043	2
13632	38989	53.248402058613	3
13632	39015	53.262607654128	2
13632	39386	53.5645697559	4
13632	40584	54.6645697559	10
13632	42127	55.965697131776	14
13632	42451	56.273573819987	2
13632	42650	56.47435470329	1
13632	42781	56.579628219939	1
13632	43406	57.104878109793	1
13632	43961	57.593888330993	3
13632	44793	58.193888330993	7
13632	45697	58.793988331003	7
13632	46312	59.293988331003	4
13632	46830	59.703778181426	3
13632	47105	59.899755930263	4
13632	47246	60.006828206694	2
13632	47625	60.314219077577	3
13632	48278	60.744092447826	0
13632	48641	61.044092447826	2
13632	49036	61.349177932791	2
13632	49500	61.832174582545	6
13632	50643	62.739469702873	9
13632	51219	63.239469702873	5
13632	51239	63.251734768105	4
13632	52004	63.855194173114	5
13632	52097	63.942060643931	6
13632	52611	64.442160643941	5
13632	53291	65.042160643941	6
13632	53508	65.248027075247	1
13632	54075	65.754638072508	4
13632	54464	66.058527461872	3
13632	54485	66.075409631003	3
13632	55378	66.778811980186	7
13632	55951	67.178811980186	3
13632	56438	67.678986127162	4
13632	56867	68.179715539977	5
13632	57258	68.479815539987	3
13632	57990	69.179815539987	6
13632	58118	69.282173808987	3
13632	58999	69.993907807863	4
13632	60105	70.898273292117	9
13632	60426	71.198273292117	3
13632	60927	71.605817443894	4
13632	61023	71.741824947927	4
13632	61439	72.147463930007	4
13632	61862	72.55153391292	3
13632	62125	72.754131211726	2
13632	63333	73.854131211726	10
13632	63773	74.257135497686	5
13632	64490	74.868928162457	5
13632	65029	75.284600740734	4
13632	65405	75.593809722866	2
13632	65574	75.75479552653	5
13632	66137	76.260495225308	6
13632	66582	76.760495225308	4
13632	66754	76.861266331894	0
13632	66788	76.910884233629	0
13632	67502	77.614747806158	6
13632	67780	77.824152291612	2
13632	68257	78.224152291612	3
13632	68539	78.52460606214	2
13632	69443	79.187077537694	8
13632	69706	79.434462494355	9
13632	69918	79.591510104374	3
13632	69938	79.595334348835	0
13632	70625	80.163284613036	1
13632	70641	80.163384613046	0
13632	71193	80.663478764489	4
13632	71204	80.67178307787	2
13632	71551	80.972972537449	4
13632	71923	81.372972537449	3
13632	72409	81.779825843109	3
13632	72772	82.088242384637	2
13632	73167	82.496450573771	3
13632	73372	82.704586340926	1
13632	73932	83.206964162249	4
13632	74732	83.811065353075	5
13632	74998	84.013843485304	1
13632	75408	84.316281491752	3
13632	76525	85.416281491752	10
13632	77345	86.061900739996	5
13632	77600	86.261900739996	1
13632	78010	86.572504808154	2
13632	78306	86.772935238327	1
13632	78408	86.86425735523	1
13632	78707	87.066419205344	1
13632	79128	87.36934810203	4
13632	80425	88.56934810203	12
13632	80744	88.774252368553	1
13632	81303	89.179731337105	3
13632	81364	89.241868303987	3
13632	82272	90.043159303256	8
13632	82925	90.643159303256	5
13632	83293	90.951213900163	2
13632	83583	91.159855142973	1
13632	83810	91.368204673765	1
13632	84412	91.969083079539	6
13632	85164	92.569083079539	6
13632	85473	92.775794094494	1
13632	86659	93.569290480023	10
13632	86830	93.700416000718	2
13632	87019	93.873471265123	2
13632	87264	94.077674007562	2
13632	87841	94.578263531212	4
13632	87996	94.683373309987	1
13632	88584	95.219713038797	4
13632	89778	96.163661042405	1
13632	90319	96.570225850986	5
13632	91124	97.270225850986	6
13632	92204	98.176614666888	8
13632	92336	98.280010783835	1
13632	92723	98.583953810201	3
13632	92994	98.89732338838	2
13632	93470	99.402940216268	4
13632	94697	100.603067616597	13
13632	94941	100.804698807693	2
13632	96091	101.909535157604	10
13632	96589	102.315756956297	4
13632	97713	103.215756956297	8
13632	99146	104.417227820113	12
13632	99407	104.618519907029	1
13632	99426	104.625846074553	3
13632	99899	105.028340795723	4
13632	100637	105.80416935254	2
13632	100799	105.920386348218	2
13632	100828	105.929549256	0
13632	101054	106.129549256	1
13632	102985	107.540343632355	11
13632	103283	107.740343632355	1
13632	103782	108.143512240905	3
13632	104054	108.352915273041	1
13632	104424	108.653912685118	3
13632	104931	109.053912685118	3
13632	105099	109.154012685128	1
13632	105877	109.728259972834	2
13632	106837	110.528259972834	7
13632	107666	111.13418834808	7
13632	108209	111.53418834808	3
13632	109428	112.336335208075	8
13632	109837	112.64497328949	2
13632	110090	112.85533220798	1
13632	110820	113.456668000412	6
13632	110837	113.462731035577	3
13632	111347	113.917898107546	8
13632	111484	114.019533505985	1
13632	111722	114.219533505985	1
13632	111988	114.423896503774	1
13632	112387	114.725988599629	2
13632	112405	114.742765746724	2
13632	113038	115.245281711865	5
13632	113676	115.845281711865	5
13632	113930	116.045381711875	2
13632	114585	116.580511796417	3
13632	115090	116.989696553956	4
13632	115806	117.689696553956	6
13632	116154	117.995739125696	2
13632	117819	119.446814078329	9
13632	117848	119.499119646996	16
13632	118017	119.606830514266	0
13632	118313	119.816534294962	1
13632	118361	119.855254435442	4
13632	118544	120.008199899345	5
13632	118882	120.323715633112	5
13632	118901	120.332013504878	2
13632	119524	120.83526606676	5
13632	119952	121.23526606676	3
13632	120283	121.538347779988	3
13632	120613	121.84578954655	2
13632	121105	122.269602093848	3
13632	121253	122.425318472866	11
13632	121478	122.57855586369	2
13632	122457	123.38460254098	8
13632	122684	123.58460254098	1
13632	123485	124.293993338639	6
13632	123738	124.500394670894	1
13632	124443	125.169891038624	3
13632	125376	125.95577967121	5
13632	125419	125.975544450144	8
13632	125782	126.282128613261	2
13632	126177	126.582502941962	2
13632	126227	126.602743444978	22
13632	126512	126.863593149694	10
13632	126569	126.884617003856	3
13632	126758	127.06906119634	5
13632	126943	127.172383218509	1
13632	128151	128.172383218509	10
13632	128289	128.212856332925	3
13632	128664	128.523073285519	2
13632	128811	128.624735082655	1
13632	129518	129.195968599335	3
13632	130977	130.495968599335	16
13632	131340	130.808823906783	3
13632	131862	131.306007768892	6
13632	131914	131.315439241536	4
13632	131995	131.404581313837	8
13632	132147	131.509915873921	1
13632	132884	132.118887898269	5
13632	133405	132.543722092387	3
13632	133408	132.548961244328	4
13632	133654	132.755156006725	2
13632	134014	133.055156006725	2
13632	134647	133.555856946008	5
13632	135000	133.86555042189	2
13632	135495	134.274943232081	4
13632	135555	134.341078017961	8
13632	135977	134.647866569124	4
13632	136216	134.847866569124	1
13632	137129	135.657838686064	6
13632	137533	136.058357804398	3
13632	137800	136.367386271433	2
13632	137883	136.466072917169	2
13632	137979	136.574565850054	1
13632	138121	136.776186021784	2
13633	136	20.10000000001	0.875
13633	505	20.70000000001	0.375
13633	761	21.002395143735	0.75
13633	1124	21.311067775115	0.75
13633	1279	21.504639093175	0.75
13633	2115	22.110511149657	0.25
13633	2872	22.710511149657	0.25
13633	3147	22.921568213693	0.75
13633	3410	23.136189479814	0.875
13633	3753	23.437297796103	0.25
13633	4517	24.041304475438	0.125
13633	5576	25.041304475438	-0.25
13633	6614	25.940310968309	0.5
13633	6847	26.051480353379	0.125
13633	6887	26.05921784257	1
13633	8324	27.254951208213	-0.125
13633	9281	28.154951208213	0
13633	9501	28.457368416113	0.75
13633	9793	28.761890334275	0.5
13633	10107	29.061890334275	0.75
13633	10377	29.270211670265	0.875
13633	10816	29.671405416526	0.5
13633	11074	29.871405416526	0.875
13633	11751	30.474609904658	0.375
13633	12131	30.782102241484	0.5
13633	12985	31.582102241484	0.125
13633	13466	31.990686848224	0.625
13633	13849	32.354769473266	0.125
13633	14074	32.593947452213	0.375
13633	14101	32.604851399033	0.375
13633	14285	32.763636949338	0.625
13633	14316	32.812578215905	0.875
13633	14560	33.014069466086	0.875
13633	14668	33.115046093587	0.875
13633	14754	33.166482224497	0.625
13633	14908	33.316187959467	0.75
13633	14922	33.323081325925	0.875
13633	14943	33.347753562018	0.875
13633	14994	33.400857479324	0
13633	15405	33.709277994678	0.5
13633	15686	33.909277994678	0.75
13633	15956	34.112758718572	0.75
13633	16583	34.612758718572	0.5
13633	17055	35.012858718582	0.5
13633	17990	35.7354134002	0.625
13633	18507	36.212858718582	-0.5
13633	18753	36.415939399562	0.75
13633	19211	36.815939399562	0.625
13633	19815	37.241809036258	0.75
13633	19994	37.350287757585	0.875
13633	20402	37.665017549543	0.75
13633	21037	38.176875760613	0.375
13633	21560	38.581334104687	0.375
13633	22523	39.381334104687	0.125
13633	23015	39.787967981323	0.625
13633	23074	39.798053513979	1
13633	23617	40.298053513979	0.375
13633	24379	40.898619389345	0.125
13633	25825	42.198619389345	-0.5
13633	26417	42.708151207305	0.5
13633	27003	43.117682701309	0.625
13633	27244	43.327008085035	0.875
13633	27634	43.690795601576	0.25
13633	27718	43.736305878191	0.625
13633	28062	44.000463607928	0.625
13633	28072	44.004589031719	0.5
13633	28505	44.305580269797	0.625
13633	28784	44.505580269797	0.875
13633	29166	44.810996251041	0.75
13633	29603	45.224499952494	0.625
13633	30002	45.529516635608	0.625
13633	30329	45.850075198905	0.75
13633	30471	45.95444405393	1
13633	30545	46.029177260645	1
13633	30712	46.156353124694	0.875
13633	31190	46.581246170859	0.625
13633	31205	46.610755627873	0.75
13633	31463	46.810982219442	0.875
13633	33104	47.917614814996	-0.625
13633	33514	48.217614814996	0.75
13633	33631	48.319027954555	0.75
13633	34357	49.024695177426	0
13633	34716	49.424695177426	0.625
13633	35180	49.829717904956	0.625
13633	35543	50.137344229966	0.75
13633	35554	50.140261998272	0.875
13633	35918	50.44473522302	-0.125
13633	37817	52.154170188445	-1.25
13633	38390	52.654170188445	0.5
13633	38718	52.96046348043	0.75
13633	38989	53.248402058613	0.625
13633	39015	53.262607654128	0.75
13633	39386	53.5645697559	0.5
13633	40584	54.6645697559	-0.25
13633	42127	55.965697131776	-0.75
13633	42451	56.273573819987	0.75
13633	42650	56.47435470329	0.875
13633	42781	56.579628219939	0.875
13633	43406	57.104878109793	0.875
13633	43961	57.593888330993	0.625
13633	44793	58.193888330993	0.125
13633	45697	58.793988331003	0.125
13633	46312	59.293988331003	0.5
13633	46830	59.703778181426	0.625
13633	47105	59.899755930263	0.5
13633	47246	60.006828206694	0.75
13633	47625	60.314219077577	0.625
13633	48278	60.744092447826	1
13633	48641	61.044092447826	0.75
13633	49036	61.349177932791	0.75
13633	49500	61.832174582545	0.25
13633	50643	62.739469702873	-0.125
13633	51219	63.239469702873	0.375
13633	51239	63.251734768105	0.5
13633	52004	63.855194173114	0.375
13633	52097	63.942060643931	0.25
13633	52611	64.442160643941	0.375
13633	53291	65.042160643941	0.25
13633	53508	65.248027075247	0.875
13633	54075	65.754638072508	0.5
13633	54464	66.058527461872	0.625
13633	54485	66.075409631003	0.625
13633	55378	66.778811980186	0.125
13633	55951	67.178811980186	0.625
13633	56438	67.678986127162	0.5
13633	56867	68.179715539977	0.375
13633	57258	68.479815539987	0.625
13633	57990	69.179815539987	0.25
13633	58118	69.282173808987	0.625
13633	58999	69.993907807863	0.5
13633	60105	70.898273292117	-0.125
13633	60426	71.198273292117	0.625
13633	60927	71.605817443894	0.5
13633	61023	71.741824947927	0.5
13633	61439	72.147463930007	0.5
13633	61862	72.55153391292	0.625
13633	62125	72.754131211726	0.75
13633	63333	73.854131211726	-0.25
13633	63773	74.257135497686	0.375
13633	64490	74.868928162457	0.375
13633	65029	75.284600740734	0.5
13633	65405	75.593809722866	0.75
13633	65574	75.75479552653	0.375
13633	66137	76.260495225308	0.25
13633	66582	76.760495225308	0.55555555224419
13633	66754	76.861266331894	1
13633	66788	76.910884233629	1
13633	67502	77.614747806158	0.25
13633	67780	77.824152291612	0.75
13633	68257	78.224152291612	0.625
13633	68539	78.52460606214	0.75
13633	69443	79.187077537694	0
13633	69706	79.434462494355	-0.125
13633	69918	79.591510104374	0.625
13633	69938	79.595334348835	1
13633	70625	80.163284613036	0.875
13633	70641	80.163384613046	1
13633	71193	80.663478764489	0.5
13633	71204	80.67178307787	0.75
13633	71551	80.972972537449	0.5
13633	71923	81.372972537449	0.625
13633	72409	81.779825843109	0.625
13633	72772	82.088242384637	0.75
13633	73167	82.496450573771	0.625
13633	73372	82.704586340926	0.875
13633	73932	83.206964162249	0.5
13633	74732	83.811065353075	0.375
13633	74998	84.013843485304	0.875
13633	75408	84.316281491752	0.625
13633	76525	85.416281491752	-0.25
13633	77345	86.061900739996	0.375
13633	77600	86.261900739996	0.875
13633	78010	86.572504808154	0.75
13633	78306	86.772935238327	0.875
13633	78408	86.86425735523	0.875
13633	78707	87.066419205344	0.875
13633	79128	87.36934810203	0.5
13633	80425	88.56934810203	-0.5
13633	80744	88.774252368553	0.875
13633	81303	89.179731337105	0.625
13633	81364	89.241868303987	0.625
13633	82272	90.043159303256	0
13633	82925	90.643159303256	0.375
13633	83293	90.951213900163	0.75
13633	83583	91.159855142973	0.875
13633	83810	91.368204673765	0.875
13633	84412	91.969083079539	0.25
13633	85164	92.569083079539	0.25
13633	85473	92.775794094494	0.875
13633	86659	93.569290480023	-0.25
13633	86830	93.700416000718	0.75
13633	87019	93.873471265123	0.75
13633	87264	94.077674007562	0.75
13633	87841	94.578263531212	0.5
13633	87996	94.683373309987	0.875
13633	88584	95.219713038797	0.5
13633	89778	96.163661042405	0.875
13633	90319	96.570225850986	0.375
13633	91124	97.270225850986	0.25
13633	92204	98.176614666888	0
13633	92336	98.280010783835	0.875
13633	92723	98.583953810201	0.625
13633	92994	98.89732338838	0.75
13633	93470	99.402940216268	0.5
13633	94697	100.603067616597	-0.625
13633	94941	100.804698807693	0.75
13633	96091	101.909535157604	-0.25
13633	96589	102.315756956297	0.5
13633	97713	103.215756956297	0
13633	99146	104.417227820113	-0.5
13633	99407	104.618519907029	0.875
13633	99426	104.625846074553	0.625
13633	99899	105.028340795723	0.5
13633	100637	105.80416935254	0.75
13633	100799	105.920386348218	0.75
13633	100828	105.929549256	1
13633	101054	106.129549256	0.875
13633	102985	107.540343632355	-0.375
13633	103283	107.740343632355	0.875
13633	103782	108.143512240905	0.625
13633	104054	108.352915273041	0.875
13633	104424	108.653912685118	0.625
13633	104931	109.053912685118	0.625
13633	105099	109.154012685128	0.875
13633	105877	109.728259972834	0.75
13633	106837	110.528259972834	0.125
13633	107666	111.13418834808	0.125
13633	108209	111.53418834808	0.625
13633	109428	112.336335208075	0
13633	109837	112.64497328949	0.75
13633	110090	112.85533220798	0.875
13633	110820	113.456668000412	0.25
13633	110837	113.462731035577	0.625
13633	111347	113.917898107546	0
13633	111484	114.019533505985	0.875
13633	111722	114.219533505985	0.875
13633	111988	114.423896503774	0.875
13633	112387	114.725988599629	0.75
13633	112405	114.742765746724	0.75
13633	113038	115.245281711865	0.375
13633	113676	115.845281711865	0.375
13633	113930	116.045381711875	0.75
13633	114585	116.580511796417	0.625
13633	115090	116.989696553956	0.5
13633	115806	117.689696553956	0.25
13633	116154	117.995739125696	0.75
13633	117819	119.446814078329	-0.125
13633	117848	119.499119646996	-1
13633	118017	119.606830514266	1
13633	118313	119.816534294962	0.875
13633	118361	119.855254435442	0.5
13633	118544	120.008199899345	0.375
13633	118882	120.323715633112	0.375
13633	118901	120.332013504878	0.75
13633	119524	120.83526606676	0.375
13633	119952	121.23526606676	0.625
13633	120283	121.538347779988	0.625
13633	120613	121.84578954655	0.75
13633	121105	122.269602093848	0.625
13633	121253	122.425318472866	-0.375
13633	121478	122.57855586369	0.75
13633	122457	123.38460254098	0
13633	122684	123.58460254098	0.875
13633	123485	124.293993338639	0.25
13633	123738	124.500394670894	0.875
13633	124443	125.169891038624	0.625
13633	125376	125.95577967121	0.375
13633	125419	125.975544450144	0
13633	125782	126.282128613261	0.75
13633	126177	126.582502941962	0.75
13633	126227	126.602743444978	-1.75
13633	126512	126.863593149694	-0.25
13633	126569	126.884617003856	0.625
13633	126758	127.06906119634	0.375
13633	126943	127.172383218509	0.875
13633	128151	128.172383218509	-0.25
13633	128289	128.212856332925	0.625
13633	128664	128.523073285519	0.75
13633	128811	128.624735082655	0.875
13633	129518	129.195968599335	0.625
13633	130977	130.495968599335	-1
13633	131340	130.808823906783	0.625
13633	131862	131.306007768892	0.25
13633	131914	131.315439241536	0.5
13633	131995	131.404581313837	0
13633	132147	131.509915873921	0.875
13633	132884	132.118887898269	0.375
13633	133405	132.543722092387	0.625
13633	133408	132.548961244328	0.5
13633	133654	132.755156006725	0.75
13633	134014	133.055156006725	0.75
13633	134647	133.555856946008	0.375
13633	135000	133.86555042189	0.75
13633	135495	134.274943232081	0.5
13633	135555	134.341078017961	0
13633	135977	134.647866569124	0.5
13633	136216	134.847866569124	0.875
13633	137129	135.657838686064	0.25
13633	137533	136.058357804398	0.625
13633	137800	136.367386271433	0.75
13633	137883	136.466072917169	0.75
13633	137979	136.574565850054	0.875
13633	138121	136.776186021784	0.75
13634	136	20.10000000001	0.1
13634	505	20.70000000001	0.6
13634	761	21.002395143735	0.3
13634	1124	21.311067775115	0.3
13634	1279	21.504639093175	0.3
13634	2115	22.110511149657	0.6
13634	2872	22.710511149657	0.6
13634	3147	22.921568213693	0.2
13634	3410	23.136189479814	0.2
13634	3753	23.437297796103	0.7
13634	4517	24.041304475438	0.6
13634	5576	25.041304475438	1
13634	6614	25.940310968309	0.5
13634	6847	26.051480353379	0.7
13634	6887	26.05921784257	0
13634	8324	27.254951208213	0.8
13634	9281	28.154951208213	0.9
13634	9501	28.457368416113	0.3
13634	9793	28.761890334275	0.3
13634	10107	29.061890334275	0.3
13634	10377	29.270211670265	0.2
13634	10816	29.671405416526	0.4
13634	11074	29.871405416526	0.2
13634	11751	30.474609904658	0.6
13634	12131	30.782102241484	0.3
13634	12985	31.582102241484	0.8
13634	13466	31.990686848224	0.4
13634	13849	32.354769473266	0.7
13634	14074	32.593947452213	0.6
13634	14101	32.604851399033	0.6
13634	14285	32.763636949338	0.4
13634	14316	32.812578215905	0.2
13634	14560	33.014069466086	0.2
13634	14668	33.115046093587	0.2
13634	14754	33.166482224497	0.4
13634	14908	33.316187959467	0.3
13634	14922	33.323081325925	0.2
13634	14943	33.347753562018	0.2
13634	14994	33.400857479324	0.8
13634	15405	33.709277994678	0.3
13634	15686	33.909277994678	0.2
13634	15956	34.112758718572	0.2
13634	16583	34.612758718572	0.5
13634	17055	35.012858718582	0.4
13634	17990	35.7354134002	0.4
13634	18507	36.212858718582	1.2
13634	18753	36.415939399562	0.2
13634	19211	36.815939399562	0.4
13634	19815	37.241809036258	0.3
13634	19994	37.350287757585	0.1
13634	20402	37.665017549543	0.3
13634	21037	38.176875760613	0.5
13634	21560	38.581334104687	0.4
13634	22523	39.381334104687	0.8
13634	23015	39.787967981323	0.4
13634	23074	39.798053513979	0
13634	23617	40.298053513979	0.5
13634	24379	40.898619389345	0.6
13634	25825	42.198619389345	1.3
13634	26417	42.708151207305	0.5
13634	27003	43.117682701309	0.4
13634	27244	43.327008085035	0.2
13634	27634	43.690795601576	0.7
13634	27718	43.736305878191	0.4
13634	28062	44.000463607928	0.3
13634	28072	44.004589031719	0.5
13634	28505	44.305580269797	0.3
13634	28784	44.505580269797	0.2
13634	29166	44.810996251041	0.3
13634	29603	45.224499952494	0.4
13634	30002	45.529516635608	0.3
13634	30329	45.850075198905	0.3
13634	30471	45.95444405393	0.1
13634	30545	46.029177260645	0.1
13634	30712	46.156353124694	0.2
13634	31190	46.581246170859	0.4
13634	31205	46.610755627873	0.3
13634	31463	46.810982219442	0.2
13634	33104	47.917614814996	1.1
13634	33514	48.217614814996	0.3
13634	33631	48.319027954555	0.3
13634	34357	49.024695177426	0.7
13634	34716	49.424695177426	0.4
13634	35180	49.829717904956	0.4
13634	35543	50.137344229966	0.3
13634	35554	50.140261998272	0.2
13634	35918	50.44473522302	0.9
13634	37817	52.154170188445	1.7
13634	38390	52.654170188445	0.5
13634	38718	52.96046348043	0.3
13634	38989	53.248402058613	0.4
13634	39015	53.262607654128	0.3
13634	39386	53.5645697559	0.3
13634	40584	54.6645697559	1.1
13634	42127	55.965697131776	1.3
13634	42451	56.273573819987	0.3
13634	42650	56.47435470329	0.2
13634	42781	56.579628219939	0.1
13634	43406	57.104878109793	0.1
13634	43961	57.593888330993	0.3
13634	44793	58.193888330993	0.6
13634	45697	58.793988331003	0.6
13634	46312	59.293988331003	0.5
13634	46830	59.703778181426	0.4
13634	47105	59.899755930263	0.5
13634	47246	60.006828206694	0.3
13634	47625	60.314219077577	0.3
13634	48278	60.744092447826	0
13634	48641	61.044092447826	0.3
13634	49036	61.349177932791	0.3
13634	49500	61.832174582545	0.6
13634	50643	62.739469702873	0.9
13634	51219	63.239469702873	0.5
13634	51239	63.251734768105	0.4
13634	52004	63.855194173114	0.6
13634	52097	63.942060643931	0.7
13634	52611	64.442160643941	0.5
13634	53291	65.042160643941	0.6
13634	53508	65.248027075247	0.2
13634	54075	65.754638072508	0.5
13634	54464	66.058527461872	0.3
13634	54485	66.075409631003	0.4
13634	55378	66.778811980186	0.7
13634	55951	67.178811980186	0.4
13634	56438	67.678986127162	0.5
13634	56867	68.179715539977	0.5
13634	57258	68.479815539987	0.3
13634	57990	69.179815539987	0.7