file 912943 1369674155                                          
version 2
run Stability-norelink-101-20130525-23:20:45-22103
attr configname Stability-norelink
attr datetime 20130525-23:20:45
attr experiment Stability
attr inifile omnetpp.ini
attr iterationvars $0=1e-4
attr iterationvars2 "$0=1e-4, $repetition=1"
attr measurement $0=1e-4
attr network Network
attr processid 22103
attr repetition 1
attr replication #1
attr resultdir results
attr runnumber 101
attr seedset 101
vector 9714  Network.dyn_peer[6]  lookupHopsSig:vector  ETV
9714	173767 9001 48 137432 20.0000007 136.570946644277 306 0 14 1214 7108
vector 9715  Network.dyn_peer[6]  lookupStabilitySig:vector  ETV
9715	182768 10052 48 137432 20.0000007 136.570946644277 306 -0.75 1 154.54166667163 113.51948297208
vector 9716  Network.dyn_peer[6]  lookupTimeSig:vector  ETV
9716	192820 9575 48 137432 20.0000007 136.570946644277 306 0 1.4 137.1 80.15
vector 9750  Network.dyn_peer[18]  lookupHopsSig:vector  ETV
9750	515376 8975 88 138045 20.0000019 137.477299871187 306 0 19 1290 9008
vector 9751  Network.dyn_peer[18]  lookupStabilitySig:vector  ETV
9751	524351 10005 88 138045 20.0000019 137.477299871187 306 -1.375 1 144.84722220153 124.32310955318
vector 9752  Network.dyn_peer[18]  lookupTimeSig:vector  ETV
9752	534356 9557 88 138045 20.0000019 137.477299871187 306 0 1.7 144.1 96.39
vector 9762  Network.dyn_peer[22]  lookupHopsSig:vector  ETV
9762	628862 8368 104 136377 20.0000023 135.570517471931 285 0 24 1296 9454
vector 9763  Network.dyn_peer[22]  lookupStabilitySig:vector  ETV
9763	637230 9295 104 136377 20.0000023 135.570517471931 285 -2 1 123 108.71875
vector 9764  Network.dyn_peer[22]  lookupTimeSig:vector  ETV
9764	646525 8898 104 136377 20.0000023 135.570517471931 285 0 2.3 141.3 97.67
vector 9780  Network.dyn_peer[28]  lookupHopsSig:vector  ETV
9780	797082 8315 126 136713 20.0000029 135.878369490865 283 0 18 1116 7056
vector 9781  Network.dyn_peer[28]  lookupStabilitySig:vector  ETV
9781	805397 9210 126 136713 20.0000029 135.878369490865 283 -1.25 1 143.52777777612 114.29899691064
vector 9782  Network.dyn_peer[28]  lookupTimeSig:vector  ETV
9782	814607 8833 126 136713 20.0000029 135.878369490865 283 0 1.8 126.2 78.84
vector 9786  Network.dyn_peer[30]  lookupHopsSig:vector  ETV
9786	853593 9643 136 137131 20.0000031 136.200828063028 327 0 20 1282 7948
vector 9787  Network.dyn_peer[30]  lookupStabilitySig:vector  ETV
9787	863236 10710 136 137131 20.0000031 136.200828063028 327 -1.5 1 166.83333331347 130.73611109787
vector 9788  Network.dyn_peer[30]  lookupTimeSig:vector  ETV
9788	873946 10261 136 137131 20.0000031 136.200828063028 327 0 1.8 145.6 89.34
vector 9696  Network.dyn_peer[0]  lookupHopsSig:vector  ETV
9696	6402 8547 144 137266 20.1000001 136.37119315152 291 0 24 1211 7791
vector 9697  Network.dyn_peer[0]  lookupStabilitySig:vector  ETV
9697	14949 9523 144 137266 20.1000001 136.37119315152 291 -2 1 139.63888888806 110.00887345532
vector 9698  Network.dyn_peer[0]  lookupTimeSig:vector  ETV
9698	24472 9092 144 137266 20.1000001 136.37119315152 291 0 2.3 136.2 86.4
vector 9702  Network.dyn_peer[2]  lookupHopsSig:vector  ETV
9702	61559 8834 150 137752 20.1000003 136.893056809528 300 0 28 1302 9660
vector 9703  Network.dyn_peer[2]  lookupStabilitySig:vector  ETV
9703	70393 9864 150 137752 20.1000003 136.893056809528 300 -2.5 1 137.25 125.4375
vector 9704  Network.dyn_peer[2]  lookupTimeSig:vector  ETV
9704	80257 9396 150 137752 20.1000003 136.893056809528 300 0 2.5 143.4 99.34
vector 9729  Network.dyn_peer[11]  lookupHopsSig:vector  ETV
9729	316071 8143 163 136900 20.1000012 136.006064196595 276 0 23 1249 8785
vector 9730  Network.dyn_peer[11]  lookupStabilitySig:vector  ETV
9730	324214 9055 163 136900 20.1000012 136.006064196595 276 -1.875 1 119.9999999851 101.09182097919
vector 9731  Network.dyn_peer[11]  lookupTimeSig:vector  ETV
9731	333269 8654 163 136900 20.1000012 136.006064196595 276 0 2.1 137.4 92.26
vector 9732  Network.dyn_peer[12]  lookupHopsSig:vector  ETV
9732	341923 9574 168 137187 20.1000013 136.281360017661 326 0 15 1273 7539
vector 9733  Network.dyn_peer[12]  lookupStabilitySig:vector  ETV
9733	351497 10644 168 137187 20.1000013 136.281360017661 326 -0.875 1 166.98611107469 125.65760027185
vector 9734  Network.dyn_peer[12]  lookupTimeSig:vector  ETV
9734	362141 10187 168 137187 20.1000013 136.281360017661 326 0 1.4 145.1 86.01
vector 9699  Network.dyn_peer[1]  lookupHopsSig:vector  ETV
9699	33564 8829 194 137620 20.2000002 136.703708358359 299 0 21 1233 8143
vector 9700  Network.dyn_peer[1]  lookupStabilitySig:vector  ETV
9700	42393 9790 194 137620 20.2000002 136.703708358359 299 -1.625 1 144.875 117.984375
vector 9701  Network.dyn_peer[1]  lookupTimeSig:vector  ETV
9701	52183 9376 194 137620 20.2000002 136.703708358359 299 0 2 137.9 87.57
vector 9705  Network.dyn_peer[3]  lookupHopsSig:vector  ETV
9705	89653 8687 200 137499 20.2000004 136.592253519459 295 0 22 1260 8758
vector 9706  Network.dyn_peer[3]  lookupStabilitySig:vector  ETV
9706	98340 9642 200 137499 20.2000004 136.592253519459 295 -1.75 1 137.5 116.84375
vector 9707  Network.dyn_peer[3]  lookupTimeSig:vector  ETV
9707	107982 9245 200 137499 20.2000004 136.592253519459 295 0 2.1 140.8 93.5
vector 9708  Network.dyn_peer[4]  lookupHopsSig:vector  ETV
9708	117227 8577 205 137963 20.2000005 137.190866984037 291 0 22 1272 9386
vector 9709  Network.dyn_peer[4]  lookupStabilitySig:vector  ETV
9709	125804 9528 205 137963 20.2000005 137.190866984037 291 -1.75 1 132.02777777612 119.69868826903
vector 9710  Network.dyn_peer[4]  lookupTimeSig:vector  ETV
9710	135332 9107 205 137963 20.2000005 137.190866984037 291 0 2 140.5 97.19
vector 9711  Network.dyn_peer[5]  lookupHopsSig:vector  ETV
9711	144439 9232 210 137053 20.2000006 136.179563130854 314 0 21 1317 8261
vector 9712  Network.dyn_peer[5]  lookupStabilitySig:vector  ETV
9712	153671 10271 210 137053 20.2000006 136.179563130854 314 -1.625 1 149.4999999702 113.93055552906
vector 9713  Network.dyn_peer[5]  lookupTimeSig:vector  ETV
9713	163942 9825 210 137053 20.2000006 136.179563130854 314 0 2 148.1 92.79
vector 9717  Network.dyn_peer[7]  lookupHopsSig:vector  ETV
9717	202395 8385 216 137055 20.2000008 136.179707130312 285 0 19 1270 8254
vector 9718  Network.dyn_peer[7]  lookupStabilitySig:vector  ETV
9718	210780 9320 216 137055 20.2000008 136.179707130312 285 -1.375 1 126.30555555224 96.527391971629
vector 9719  Network.dyn_peer[7]  lookupTimeSig:vector  ETV
9719	220100 8916 216 137055 20.2000008 136.179707130312 285 0.1 1.8 142.2 92.52
vector 9735  Network.dyn_peer[13]  lookupHopsSig:vector  ETV
9735	372328 8823 225 137523 20.2000014 136.597767789026 300 0 22 1218 7942
vector 9736  Network.dyn_peer[13]  lookupStabilitySig:vector  ETV
9736	381151 9772 225 137523 20.2000014 136.597767789026 300 -1.75 1 147.75 119.59375
vector 9737  Network.dyn_peer[13]  lookupTimeSig:vector  ETV
9737	390923 9378 225 137523 20.2000014 136.597767789026 300 0 1.9 137.9 87.35
vector 9744  Network.dyn_peer[16]  lookupHopsSig:vector  ETV
9744	456859 9953 232 138004 20.2000017 137.303116144244 338 0 16 1390 8584
vector 9745  Network.dyn_peer[16]  lookupStabilitySig:vector  ETV
9745	466812 11142 232 138004 20.2000017 137.303116144244 338 -1 1 164.52777773142 124.86574070542
vector 9746  Network.dyn_peer[16]  lookupTimeSig:vector  ETV
9746	477954 10589 232 138004 20.2000017 137.303116144244 338 0 1.5 155.4 94.78
vector 9753  Network.dyn_peer[19]  lookupHopsSig:vector  ETV
9753	543913 9282 239 137780 20.200002 136.896740085987 316 0 18 1258 7950
vector 9754  Network.dyn_peer[19]  lookupStabilitySig:vector  ETV
9754	553195 10306 239 137780 20.200002 136.896740085987 316 -1.25 1 158.75 125.71875
vector 9755  Network.dyn_peer[19]  lookupTimeSig:vector  ETV
9755	563501 9872 239 137780 20.200002 136.896740085987 316 0 1.7 142.9 88.33
vector 9759  Network.dyn_peer[21]  lookupHopsSig:vector  ETV
9759	599187 9339 245 137435 20.2000022 136.57119325152 318 0 19 1188 7556
vector 9760  Network.dyn_peer[21]  lookupStabilitySig:vector  ETV
9760	608526 10384 245 137435 20.2000022 136.57119325152 318 -1.375 1 169.5 139.0625
vector 9761  Network.dyn_peer[21]  lookupTimeSig:vector  ETV
9761	618910 9952 245 137435 20.2000022 136.57119325152 318 0 1.8 137.4 84.88
vector 9765  Network.dyn_peer[23]  lookupHopsSig:vector  ETV
9765	655423 9161 251 136749 20.2000024 135.890052577315 312 0 14 1203 7061
vector 9766  Network.dyn_peer[23]  lookupStabilitySig:vector  ETV
9766	664584 10216 251 136749 20.2000024 135.890052577315 312 -0.75 1 161.66666666418 121.64506172435
vector 9767  Network.dyn_peer[23]  lookupTimeSig:vector  ETV
9767	674800 9755 251 136749 20.2000024 135.890052577315 312 0 1.3 136.6 78.12
vector 9783  Network.dyn_peer[29]  lookupHopsSig:vector  ETV
9783	823440 9489 261 138028 20.200003 137.384226744841 322 0 21 1311 8173
vector 9784  Network.dyn_peer[29]  lookupStabilitySig:vector  ETV
9784	832929 10562 261 138028 20.200003 137.384226744841 322 -1.625 1 158.125 121.953125
vector 9785  Network.dyn_peer[29]  lookupTimeSig:vector  ETV
9785	843491 10102 261 138028 20.200003 137.384226744841 322 0 1.9 147.2 91.28
vector 9720  Network.dyn_peer[8]  lookupHopsSig:vector  ETV
9720	229016 9029 284 137819 20.3000009 136.907064809659 306 0 21 1442 10422
vector 9721  Network.dyn_peer[8]  lookupStabilitySig:vector  ETV
9721	238045 10044 284 137819 20.3000009 136.907064809659 306 -1.625 1 125.84722220898 108.48244596926
vector 9722  Network.dyn_peer[8]  lookupTimeSig:vector  ETV
9722	248089 9595 284 137819 20.3000009 136.907064809659 306 0 1.9 157.1 110.17
vector 9723  Network.dyn_peer[9]  lookupHopsSig:vector  ETV
9723	257684 9505 289 137751 20.300001 136.893056809528 322 0 18 1427 9881
vector 9724  Network.dyn_peer[9]  lookupStabilitySig:vector  ETV
9724	267189 10581 289 137751 20.300001 136.893056809528 322 -1.25 1 143.74999999255 119.78240739858
vector 9725  Network.dyn_peer[9]  lookupTimeSig:vector  ETV
9725	277770 10099 289 137751 20.300001 136.893056809528 322 0 1.7 156.6 103.84
vector 9738  Network.dyn_peer[14]  lookupHopsSig:vector  ETV
9738	400301 9110 296 137844 20.3000015 136.975295446879 310 0 18 1307 8553
vector 9739  Network.dyn_peer[14]  lookupStabilitySig:vector  ETV
9739	409411 10148 296 137844 20.3000015 136.975295446879 310 -1.25 1 146.70833330601 116.97202929597
vector 9740  Network.dyn_peer[14]  lookupTimeSig:vector  ETV
9740	419559 9693 296 137844 20.3000015 136.975295446879 310 0 1.6 147.1 94.35
vector 9741  Network.dyn_peer[15]  lookupHopsSig:vector  ETV
9741	429252 8695 301 137379 20.3000016 136.491089935266 295 0 18 1237 7863
vector 9742  Network.dyn_peer[15]  lookupStabilitySig:vector  ETV
9742	437947 9664 301 137379 20.3000016 136.491089935266 295 -1.25 1 140.40277777612 108.65181326903
vector 9743  Network.dyn_peer[15]  lookupTimeSig:vector  ETV
9743	447611 9248 301 137379 20.3000016 136.491089935266 295 0 1.5 138.9 87.61
vector 9747  Network.dyn_peer[17]  lookupHopsSig:vector  ETV
9747	488543 8446 307 137940 20.3000018 137.103808358359 287 0 26 1275 9071
vector 9748  Network.dyn_peer[17]  lookupStabilitySig:vector  ETV
9748	496989 9398 307 137940 20.3000018 137.103808358359 287 -2.25 1 127.625 109.984375
vector 9749  Network.dyn_peer[17]  lookupTimeSig:vector  ETV
9749	506387 8989 307 137940 20.3000018 137.103808358359 287 0 2.4 141.1 96.81
vector 9756  Network.dyn_peer[20]  lookupHopsSig:vector  ETV
9756	573373 8141 314 136807 20.3000021 135.969633294965 277 0 26 1233 8861
vector 9757  Network.dyn_peer[20]  lookupStabilitySig:vector  ETV
9757	581514 9030 314 136807 20.3000021 135.969633294965 277 -2.25 1 122.93055555224 107.26176697163
vector 9758  Network.dyn_peer[20]  lookupTimeSig:vector  ETV
9758	590544 8643 314 136807 20.3000021 135.969633294965 277 0 2.4 135.9 95.03
vector 9771  Network.dyn_peer[25]  lookupHopsSig:vector  ETV
9771	712099 8676 323 137213 20.3000026 136.292956809528 295 0 26 1233 8893
vector 9772  Network.dyn_peer[25]  lookupStabilitySig:vector  ETV
9772	720775 9655 323 137213 20.3000026 136.292956809528 295 -2.25 1 140.875 125.703125
vector 9773  Network.dyn_peer[25]  lookupTimeSig:vector  ETV
9773	730430 9219 323 137213 20.3000026 136.292956809528 295 0 2.2 137.3 93.05
vector 9726  Network.dyn_peer[10]  lookupHopsSig:vector  ETV
9726	287869 8889 353 137468 20.4000011 136.584026744841 302 0 19 1346 9348
vector 9727  Network.dyn_peer[10]  lookupStabilitySig:vector  ETV
9727	296758 9860 353 137468 20.4000011 136.584026744841 302 -1.375 1 133.75 111.5625
vector 9728  Network.dyn_peer[10]  lookupTimeSig:vector  ETV
9728	306618 9453 353 137468 20.4000011 136.584026744841 302 0 1.8 149.6 100.48
vector 9768  Network.dyn_peer[24]  lookupHopsSig:vector  ETV
9768	684555 8686 371 136815 20.4000025 135.974540633095 294 0 21 1153 7433
vector 9769  Network.dyn_peer[24]  lookupStabilitySig:vector  ETV
9769	693241 9626 371 136815 20.4000025 135.974540633095 294 -1.625 1 149.94444441795 121.94753084065
vector 9770  Network.dyn_peer[24]  lookupTimeSig:vector  ETV
9770	702867 9232 371 136815 20.4000025 135.974540633095 294 0 1.9 129.9 80.69
vector 9789  Network.dyn_peer[31]  lookupHopsSig:vector  ETV
9789	884207 9054 380 137883 20.4000032 136.999115684584 307 0 18 1259 7961
vector 9790  Network.dyn_peer[31]  lookupStabilitySig:vector  ETV
9790	893261 10050 380 137883 20.4000032 136.999115684584 307 -1.25 1 149.72222220898 116.67438271016
vector 9791  Network.dyn_peer[31]  lookupTimeSig:vector  ETV
9791	903311 9632 380 137883 20.4000032 136.999115684584 307 0 1.7 142.4 89.5
vector 9774  Network.dyn_peer[26]  lookupHopsSig:vector  ETV
9774	739649 9162 431 137686 20.5000027 136.80274020979 310 0 20 1213 7961
vector 9775  Network.dyn_peer[26]  lookupStabilitySig:vector  ETV
9775	748811 10204 431 137686 20.5000027 136.80274020979 310 -1.5 1 158.52777773142 131.30516970305
vector 9776  Network.dyn_peer[26]  lookupTimeSig:vector  ETV
9776	759015 9739 431 137686 20.5000027 136.80274020979 310 0 1.8 138 88.36
vector 9777  Network.dyn_peer[27]  lookupHopsSig:vector  ETV
9777	768754 8915 481 136946 20.6000028 136.083121367994 304 0 18 1253 7681
vector 9778  Network.dyn_peer[27]  lookupStabilitySig:vector  ETV
9778	777669 9918 481 136946 20.6000028 136.083121367994 304 -1.25 1 147.66111110151 110.93104937405
vector 9779  Network.dyn_peer[27]  lookupTimeSig:vector  ETV
9779	787587 9495 481 136946 20.6000028 136.083121367994 304 0 1.6 141.2 86
