file 723421 1369516524                                          
version 2
run Stability-norelink-13-20130525-23:15:21-22103
attr configname Stability-norelink
attr datetime 20130525-23:15:21
attr experiment Stability
attr inifile omnetpp.ini
attr iterationvars $0=1e5
attr iterationvars2 "$0=1e5, $repetition=3"
attr measurement $0=1e5
attr network Network
attr processid 22103
attr repetition 3
attr replication #3
attr resultdir results
attr runnumber 13
attr seedset 13

vector 1248  Network.dyn_peer[0]  lookupHopsSig:vector  ETV
vector 1249  Network.dyn_peer[0]  lookupStabilitySig:vector  ETV
vector 1250  Network.dyn_peer[0]  lookupTimeSig:vector  ETV
vector 1251  Network.dyn_peer[1]  lookupHopsSig:vector  ETV
vector 1252  Network.dyn_peer[1]  lookupStabilitySig:vector  ETV
vector 1253  Network.dyn_peer[1]  lookupTimeSig:vector  ETV
vector 1254  Network.dyn_peer[2]  lookupHopsSig:vector  ETV
vector 1255  Network.dyn_peer[2]  lookupStabilitySig:vector  ETV
vector 1256  Network.dyn_peer[2]  lookupTimeSig:vector  ETV
vector 1257  Network.dyn_peer[3]  lookupHopsSig:vector  ETV
vector 1258  Network.dyn_peer[3]  lookupStabilitySig:vector  ETV
vector 1259  Network.dyn_peer[3]  lookupTimeSig:vector  ETV
vector 1260  Network.dyn_peer[4]  lookupHopsSig:vector  ETV
vector 1261  Network.dyn_peer[4]  lookupStabilitySig:vector  ETV
vector 1262  Network.dyn_peer[4]  lookupTimeSig:vector  ETV
vector 1263  Network.dyn_peer[5]  lookupHopsSig:vector  ETV
vector 1264  Network.dyn_peer[5]  lookupStabilitySig:vector  ETV
vector 1265  Network.dyn_peer[5]  lookupTimeSig:vector  ETV
vector 1266  Network.dyn_peer[6]  lookupHopsSig:vector  ETV
vector 1267  Network.dyn_peer[6]  lookupStabilitySig:vector  ETV
vector 1268  Network.dyn_peer[6]  lookupTimeSig:vector  ETV
vector 1269  Network.dyn_peer[7]  lookupHopsSig:vector  ETV
vector 1270  Network.dyn_peer[7]  lookupStabilitySig:vector  ETV
vector 1271  Network.dyn_peer[7]  lookupTimeSig:vector  ETV
vector 1272  Network.dyn_peer[8]  lookupHopsSig:vector  ETV
vector 1273  Network.dyn_peer[8]  lookupStabilitySig:vector  ETV
vector 1274  Network.dyn_peer[8]  lookupTimeSig:vector  ETV
vector 1275  Network.dyn_peer[9]  lookupHopsSig:vector  ETV
vector 1276  Network.dyn_peer[9]  lookupStabilitySig:vector  ETV
vector 1277  Network.dyn_peer[9]  lookupTimeSig:vector  ETV
vector 1278  Network.dyn_peer[10]  lookupHopsSig:vector  ETV
vector 1279  Network.dyn_peer[10]  lookupStabilitySig:vector  ETV
vector 1280  Network.dyn_peer[10]  lookupTimeSig:vector  ETV
vector 1281  Network.dyn_peer[11]  lookupHopsSig:vector  ETV
vector 1282  Network.dyn_peer[11]  lookupStabilitySig:vector  ETV
vector 1283  Network.dyn_peer[11]  lookupTimeSig:vector  ETV
vector 1284  Network.dyn_peer[12]  lookupHopsSig:vector  ETV
vector 1285  Network.dyn_peer[12]  lookupStabilitySig:vector  ETV
vector 1286  Network.dyn_peer[12]  lookupTimeSig:vector  ETV
vector 1287  Network.dyn_peer[13]  lookupHopsSig:vector  ETV
vector 1288  Network.dyn_peer[13]  lookupStabilitySig:vector  ETV
vector 1289  Network.dyn_peer[13]  lookupTimeSig:vector  ETV
vector 1290  Network.dyn_peer[14]  lookupHopsSig:vector  ETV
vector 1291  Network.dyn_peer[14]  lookupStabilitySig:vector  ETV
vector 1292  Network.dyn_peer[14]  lookupTimeSig:vector  ETV
vector 1293  Network.dyn_peer[15]  lookupHopsSig:vector  ETV
vector 1294  Network.dyn_peer[15]  lookupStabilitySig:vector  ETV
vector 1295  Network.dyn_peer[15]  lookupTimeSig:vector  ETV
vector 1296  Network.dyn_peer[16]  lookupHopsSig:vector  ETV
vector 1297  Network.dyn_peer[16]  lookupStabilitySig:vector  ETV
vector 1298  Network.dyn_peer[16]  lookupTimeSig:vector  ETV
vector 1299  Network.dyn_peer[17]  lookupHopsSig:vector  ETV
vector 1300  Network.dyn_peer[17]  lookupStabilitySig:vector  ETV
vector 1301  Network.dyn_peer[17]  lookupTimeSig:vector  ETV
vector 1302  Network.dyn_peer[18]  lookupHopsSig:vector  ETV
vector 1303  Network.dyn_peer[18]  lookupStabilitySig:vector  ETV
vector 1304  Network.dyn_peer[18]  lookupTimeSig:vector  ETV
vector 1305  Network.dyn_peer[19]  lookupHopsSig:vector  ETV
vector 1306  Network.dyn_peer[19]  lookupStabilitySig:vector  ETV
vector 1307  Network.dyn_peer[19]  lookupTimeSig:vector  ETV
vector 1308  Network.dyn_peer[20]  lookupHopsSig:vector  ETV
vector 1309  Network.dyn_peer[20]  lookupStabilitySig:vector  ETV
vector 1310  Network.dyn_peer[20]  lookupTimeSig:vector  ETV
vector 1311  Network.dyn_peer[21]  lookupHopsSig:vector  ETV
vector 1312  Network.dyn_peer[21]  lookupStabilitySig:vector  ETV
vector 1313  Network.dyn_peer[21]  lookupTimeSig:vector  ETV
vector 1314  Network.dyn_peer[22]  lookupHopsSig:vector  ETV
vector 1315  Network.dyn_peer[22]  lookupStabilitySig:vector  ETV
vector 1316  Network.dyn_peer[22]  lookupTimeSig:vector  ETV
vector 1317  Network.dyn_peer[23]  lookupHopsSig:vector  ETV
vector 1318  Network.dyn_peer[23]  lookupStabilitySig:vector  ETV
vector 1319  Network.dyn_peer[23]  lookupTimeSig:vector  ETV
vector 1320  Network.dyn_peer[24]  lookupHopsSig:vector  ETV
vector 1321  Network.dyn_peer[24]  lookupStabilitySig:vector  ETV
vector 1322  Network.dyn_peer[24]  lookupTimeSig:vector  ETV
vector 1323  Network.dyn_peer[25]  lookupHopsSig:vector  ETV
vector 1324  Network.dyn_peer[25]  lookupStabilitySig:vector  ETV
vector 1325  Network.dyn_peer[25]  lookupTimeSig:vector  ETV
vector 1326  Network.dyn_peer[26]  lookupHopsSig:vector  ETV
vector 1327  Network.dyn_peer[26]  lookupStabilitySig:vector  ETV
vector 1328  Network.dyn_peer[26]  lookupTimeSig:vector  ETV
vector 1329  Network.dyn_peer[27]  lookupHopsSig:vector  ETV
vector 1330  Network.dyn_peer[27]  lookupStabilitySig:vector  ETV
vector 1331  Network.dyn_peer[27]  lookupTimeSig:vector  ETV
vector 1332  Network.dyn_peer[28]  lookupHopsSig:vector  ETV
vector 1333  Network.dyn_peer[28]  lookupStabilitySig:vector  ETV
vector 1334  Network.dyn_peer[28]  lookupTimeSig:vector  ETV
vector 1335  Network.dyn_peer[29]  lookupHopsSig:vector  ETV
vector 1336  Network.dyn_peer[29]  lookupStabilitySig:vector  ETV
vector 1337  Network.dyn_peer[29]  lookupTimeSig:vector  ETV
vector 1338  Network.dyn_peer[30]  lookupHopsSig:vector  ETV
vector 1339  Network.dyn_peer[30]  lookupStabilitySig:vector  ETV
vector 1340  Network.dyn_peer[30]  lookupTimeSig:vector  ETV
vector 1341  Network.dyn_peer[31]  lookupHopsSig:vector  ETV
vector 1342  Network.dyn_peer[31]  lookupStabilitySig:vector  ETV
vector 1343  Network.dyn_peer[31]  lookupTimeSig:vector  ETV
1248	6396 6991 33 65533 120.2 201720.946496138201 256 0 2 340 528
1249	13387 7881 33 65533 120.2 201720.946496138201 256 0.75 1 213.5 179.25
1250	21268 7483 33 65533 120.2 201720.946496138201 256 0 0.3 53.2 12.36
1251	28751 6920 64 65568 220.1 201820.943915469972 256 0 2 331 495
1252	35671 7834 64 65568 220.1 201820.943915469972 256 0.75 1 214.625 180.984375
1253	43505 7418 64 65568 220.1 201820.943915469972 256 0 0.3 52.3 11.97
1254	50923 6969 95 65600 320.2 201920.92831776852 256 0 3 359 589
1255	57892 7865 95 65600 320.2 201920.92831776852 256 0.625 1 211.125 175.453125
1256	65757 7467 95 65600 320.2 201920.92831776852 256 0 0.4 55.1 13.19
1257	73224 6990 126 65633 420.2 202020.828081873164 256 0 3 334 518
1258	80214 7880 126 65633 420.2 202020.828081873164 256 0.625 1 214.25 180.59375
1259	88094 7478 126 65633 420.2 202020.828081873164 256 0 0.4 52.6 12.36
1260	95572 6974 158 65669 520.1 202120.85644216078 256 0 3 338 518
1261	102546 7883 158 65669 520.1 202120.85644216078 256 0.625 1 213.75 179.59375
1262	110429 7472 158 65669 520.1 202120.85644216078 256 0 0.4 53 12.22
1263	117901 7006 193 65710 620.1 202220.864871140046 256 0 3 325 485
1264	124907 7920 193 65710 620.1 202220.864871140046 256 0.625 1 215.375 182.328125
1265	132827 7500 193 65710 620.1 202220.864871140046 256 0 0.4 51.7 11.79
1266	140327 7007 223 65744 720.2 202320.831021822474 256 0 3 339 517
1267	147334 7925 223 65744 720.2 202320.831021822474 256 0.625 1 213.625 179.328125
1268	155259 7509 223 65744 720.2 202320.831021822474 256 0 0.4 53.1 12.21
1269	162768 7039 255 65775 820.2 202421.009413957111 256 0 3 328 492
1270	169807 7948 255 65775 820.2 202421.009413957111 256 0.625 1 215 181.6875
1271	177755 7533 255 65775 820.2 202421.009413957111 256 0 0.4 52 11.94
1272	185288 6995 285 65812 920 202520.840515616356 256 0 3 342 538
1273	192283 7901 285 65812 920 202520.840515616356 256 0.625 1 213.25 178.90625
1274	200184 7491 285 65812 920 202520.840515616356 256 0 0.4 53.4 12.58
1275	207675 7016 316 65845 1020.1 202621.020274932192 256 0 3 335 509
1276	214691 7928 316 65845 1020.1 202621.020274932192 256 0.625 1 214.125 180.203125
1277	222619 7514 316 65845 1020.1 202621.020274932192 256 0 0.4 52.7 12.03
1278	230133 7046 346 65875 1120.1 202720.912784522557 256 0 3 336 516
1279	237179 7961 346 65875 1120.1 202720.912784522557 256 0.625 1 214 180.0625
1280	245140 7544 346 65875 1120.1 202720.912784522557 256 0 0.4 52.8 12.26
1281	252684 7006 376 65905 1220.1 202820.819561952858 256 0 3 336 516
1282	259690 7907 376 65905 1220.1 202820.819561952858 256 0.625 1 214 180.0625
1283	267597 7500 376 65905 1220.1 202820.819561952858 256 0 0.4 52.8 12.24
1284	275097 6944 406 65934 1320.1 202920.809057790731 256 0 3 337 525
1285	282041 7850 406 65934 1320.1 202920.809057790731 256 0.625 1 213.875 179.953125
1286	289891 7438 406 65934 1320.1 202920.809057790731 256 0 0.4 52.9 12.39
1287	297329 7018 436 65972 1420.1 203020.75624734409 256 0 3 356 584
1288	304347 7928 436 65972 1420.1 203020.75624734409 256 0.625 1 211.5 176.125
1289	312275 7518 436 65972 1420.1 203020.75624734409 256 0 0.4 54.8 13.02
1290	319793 6919 464 66012 1520 203120.969319719109 256 0 3 340 526
1291	326712 7835 464 66012 1520 203120.969319719109 256 0.625 1 213.5 179.21875
1292	334547 7419 464 66012 1520 203120.969319719109 256 0 0.4 53.2 12.34
1293	341966 7030 498 66042 1620.1 203220.721777919445 256 0 3 341 527
1294	348996 7943 498 66042 1620.1 203220.721777919445 256 0.625 1 213.375 178.984375
1295	356939 7530 498 66042 1620.1 203220.721777919445 256 0 0.4 53.3 12.35
1296	364469 6961 530 66080 1720.2 203320.939688932654 256 0 3 339 549
1297	371430 7841 530 66080 1720.2 203320.939688932654 256 0.625 1 213.625 179.828125
1298	379271 7443 530 66080 1720.2 203320.939688932654 256 0 0.4 53.1 12.71
1299	386714 6988 565 66115 1820.1 203420.84659069741 256 0 3 354 572
1300	393702 7887 565 66115 1820.1 203420.84659069741 256 0.625 1 211.75 176.4375
1301	401589 7486 565 66115 1820.1 203420.84659069741 256 0 0.4 54.6 12.86
1302	409075 7029 595 66154 1920.1 203520.955877630046 256 0 3 324 478
1303	416104 7947 595 66154 1920.1 203520.955877630046 256 0.625 1 215.5 182.46875
1304	424051 7525 595 66154 1920.1 203520.955877630046 256 0 0.4 51.6 11.52
1305	431576 6996 626 66185 2020.2 203620.82294038702 256 0 3 337 521
1306	438572 7912 626 66185 2020.2 203620.82294038702 256 0.625 1 213.875 179.890625
1307	446484 7494 626 66185 2020.2 203620.82294038702 256 0 0.4 52.9 12.15
1308	453978 7067 657 66218 2120.2 203720.925180071592 256 0 3 345 549
1309	461045 7979 657 66218 2120.2 203720.925180071592 256 0.625 1 212.875 178.328125
1310	469024 7565 657 66218 2120.2 203720.925180071592 256 0 0.4 53.7 12.55
1311	476589 7020 687 66248 2220.2 203820.812107969039 256 0 3 337 513
1312	483609 7935 687 66248 2220.2 203820.812107969039 256 0.625 1 213.875 179.765625
1313	491544 7520 687 66248 2220.2 203820.812107969039 256 0 0.4 52.9 12.05
1314	499064 6998 716 66277 2320.1 203920.807684312653 256 0 2 344 538
1315	506062 7889 716 66277 2320.1 203920.807684312653 256 0.75 1 213 178.40625
1316	513951 7492 716 66277 2320.1 203920.807684312653 256 0 0.3 53.6 12.42
1317	521443 7039 747 66308 2420.2 204020.909363630574 256 0 3 339 533
1318	528482 7952 747 66308 2420.2 204020.909363630574 256 0.625 1 213.625 179.578125
1319	536434 7535 747 66308 2420.2 204020.909363630574 256 0 0.4 53.1 12.33
1320	543969 7020 776 66346 2520.1 204120.865182463132 256 0 2 339 515
1321	550989 7936 776 66346 2520.1 204120.865182463132 256 0.75 1 213.625 179.296875
1322	558925 7522 776 66346 2520.1 204120.865182463132 256 0 0.3 53.1 12.17
1323	566447 7004 807 66385 2620.1 204220.856112313843 256 0 3 336 512
1324	573451 7915 807 66385 2620.1 204220.856112313843 256 0.625 1 214 180
1325	581366 7502 807 66385 2620.1 204220.856112313843 256 0 0.4 52.8 12.18
1326	588868 7008 840 66417 2720.1 204320.824050832162 256 0 3 341 537
1327	595876 7924 840 66417 2720.1 204320.824050832162 256 0.625 1 213.375 179.140625
1328	603800 7506 840 66417 2720.1 204320.824050832162 256 0 0.4 53.3 12.29
1329	611306 7062 874 66453 2820.2 204420.840517204877 256 0 3 330 498
1330	618368 7976 874 66453 2820.2 204420.840517204877 256 0.625 1 214.75 181.28125
1331	626344 7558 874 66453 2820.2 204420.840517204877 256 0 0.4 52.2 12
1332	633902 6917 904 66490 2920.1 204520.926532929954 256 0 3 350 568
1333	640819 7828 904 66490 2920.1 204520.926532929954 256 0.625 1 212.25 177.375
1334	648647 7415 904 66490 2920.1 204520.926532929954 256 0 0.4 54.2 12.86
1335	656062 7007 939 66524 3020.2 204620.92996979255 256 0 3 344 538
1336	663069 7919 939 66524 3020.2 204620.92996979255 256 0.625 1 213 178.40625
1337	670988 7507 939 66524 3020.2 204620.92996979255 256 0 0.4 53.6 12.38
1338	678495 7059 971 66556 3120.2 204720.921462415375 256 0 3 339 519
1339	685554 7979 971 66556 3120.2 204720.921462415375 256 0.625 1 213.625 179.359375
1340	693533 7561 971 66556 3120.2 204720.921462415375 256 0 0.4 53.1 12.13
1341	701094 6976 1014 66589 3220.2 204821.024896567101 256 0 3 339 523
1342	708070 7879 1014 66589 3220.2 204821.024896567101 256 0.625 1 213.625 179.421875
1343	715949 7472 1014 66589 3220.2 204821.024896567101 256 0 0.4 53.1 12.29
