version 2
run Stability-norelink-136-20130525-23:23:07-22103
attr configname Stability-norelink
attr datetime 20130525-23:23:07
attr experiment Stability
attr inifile omnetpp.ini
attr iterationvars $0=1e-7
attr iterationvars2 "$0=1e-7, $repetition=6"
attr measurement $0=1e-7
attr network Network
attr processid 22103
attr repetition 6
attr replication #6
attr resultdir results
attr runnumber 136
attr seedset 136

vector 13083  Network.dyn_peer[9]  lookupHopsSig:vector  ETV
vector 13084  Network.dyn_peer[9]  lookupStabilitySig:vector  ETV
vector 13085  Network.dyn_peer[9]  lookupTimeSig:vector  ETV
vector 13095  Network.dyn_peer[13]  lookupHopsSig:vector  ETV
vector 13096  Network.dyn_peer[13]  lookupStabilitySig:vector  ETV
vector 13097  Network.dyn_peer[13]  lookupTimeSig:vector  ETV
vector 13101  Network.dyn_peer[15]  lookupHopsSig:vector  ETV
vector 13102  Network.dyn_peer[15]  lookupStabilitySig:vector  ETV
vector 13103  Network.dyn_peer[15]  lookupTimeSig:vector  ETV
vector 13056  Network.dyn_peer[0]  lookupHopsSig:vector  ETV
vector 13057  Network.dyn_peer[0]  lookupStabilitySig:vector  ETV
vector 13058  Network.dyn_peer[0]  lookupTimeSig:vector  ETV
vector 13071  Network.dyn_peer[5]  lookupHopsSig:vector  ETV
vector 13072  Network.dyn_peer[5]  lookupStabilitySig:vector  ETV
vector 13073  Network.dyn_peer[5]  lookupTimeSig:vector  ETV
vector 13074  Network.dyn_peer[6]  lookupHopsSig:vector  ETV
vector 13075  Network.dyn_peer[6]  lookupStabilitySig:vector  ETV
vector 13076  Network.dyn_peer[6]  lookupTimeSig:vector  ETV
vector 13089  Network.dyn_peer[11]  lookupHopsSig:vector  ETV
vector 13090  Network.dyn_peer[11]  lookupStabilitySig:vector  ETV
vector 13091  Network.dyn_peer[11]  lookupTimeSig:vector  ETV
vector 13092  Network.dyn_peer[12]  lookupHopsSig:vector  ETV
vector 13093  Network.dyn_peer[12]  lookupStabilitySig:vector  ETV
vector 13094  Network.dyn_peer[12]  lookupTimeSig:vector  ETV
vector 13098  Network.dyn_peer[14]  lookupHopsSig:vector  ETV
vector 13099  Network.dyn_peer[14]  lookupStabilitySig:vector  ETV
vector 13100  Network.dyn_peer[14]  lookupTimeSig:vector  ETV
vector 13104  Network.dyn_peer[16]  lookupHopsSig:vector  ETV
vector 13105  Network.dyn_peer[16]  lookupStabilitySig:vector  ETV
vector 13106  Network.dyn_peer[16]  lookupTimeSig:vector  ETV
vector 13110  Network.dyn_peer[18]  lookupHopsSig:vector  ETV
vector 13111  Network.dyn_peer[18]  lookupStabilitySig:vector  ETV
vector 13112  Network.dyn_peer[18]  lookupTimeSig:vector  ETV
vector 13113  Network.dyn_peer[19]  lookupHopsSig:vector  ETV
vector 13114  Network.dyn_peer[19]  lookupStabilitySig:vector  ETV
vector 13115  Network.dyn_peer[19]  lookupTimeSig:vector  ETV
vector 13125  Network.dyn_peer[23]  lookupHopsSig:vector  ETV
vector 13126  Network.dyn_peer[23]  lookupStabilitySig:vector  ETV
vector 13127  Network.dyn_peer[23]  lookupTimeSig:vector  ETV
vector 13146  Network.dyn_peer[30]  lookupHopsSig:vector  ETV
vector 13147  Network.dyn_peer[30]  lookupStabilitySig:vector  ETV
vector 13148  Network.dyn_peer[30]  lookupTimeSig:vector  ETV
vector 13062  Network.dyn_peer[2]  lookupHopsSig:vector  ETV
vector 13063  Network.dyn_peer[2]  lookupStabilitySig:vector  ETV
vector 13064  Network.dyn_peer[2]  lookupTimeSig:vector  ETV
vector 13065  Network.dyn_peer[3]  lookupHopsSig:vector  ETV
vector 13066  Network.dyn_peer[3]  lookupStabilitySig:vector  ETV
vector 13067  Network.dyn_peer[3]  lookupTimeSig:vector  ETV
vector 13068  Network.dyn_peer[4]  lookupHopsSig:vector  ETV
vector 13069  Network.dyn_peer[4]  lookupStabilitySig:vector  ETV
vector 13070  Network.dyn_peer[4]  lookupTimeSig:vector  ETV
vector 13077  Network.dyn_peer[7]  lookupHopsSig:vector  ETV
vector 13078  Network.dyn_peer[7]  lookupStabilitySig:vector  ETV
vector 13079  Network.dyn_peer[7]  lookupTimeSig:vector  ETV
vector 13107  Network.dyn_peer[17]  lookupHopsSig:vector  ETV
vector 13108  Network.dyn_peer[17]  lookupStabilitySig:vector  ETV
vector 13109  Network.dyn_peer[17]  lookupTimeSig:vector  ETV
vector 13122  Network.dyn_peer[22]  lookupHopsSig:vector  ETV
vector 13123  Network.dyn_peer[22]  lookupStabilitySig:vector  ETV
vector 13124  Network.dyn_peer[22]  lookupTimeSig:vector  ETV
vector 13131  Network.dyn_peer[25]  lookupHopsSig:vector  ETV
vector 13132  Network.dyn_peer[25]  lookupStabilitySig:vector  ETV
vector 13133  Network.dyn_peer[25]  lookupTimeSig:vector  ETV
vector 13134  Network.dyn_peer[26]  lookupHopsSig:vector  ETV
vector 13135  Network.dyn_peer[26]  lookupStabilitySig:vector  ETV
vector 13136  Network.dyn_peer[26]  lookupTimeSig:vector  ETV
vector 13137  Network.dyn_peer[27]  lookupHopsSig:vector  ETV
vector 13138  Network.dyn_peer[27]  lookupStabilitySig:vector  ETV
vector 13139  Network.dyn_peer[27]  lookupTimeSig:vector  ETV
vector 13080  Network.dyn_peer[8]  lookupHopsSig:vector  ETV
vector 13081  Network.dyn_peer[8]  lookupStabilitySig:vector  ETV
vector 13082  Network.dyn_peer[8]  lookupTimeSig:vector  ETV
vector 13119  Network.dyn_peer[21]  lookupHopsSig:vector  ETV
vector 13120  Network.dyn_peer[21]  lookupStabilitySig:vector  ETV
vector 13121  Network.dyn_peer[21]  lookupTimeSig:vector  ETV
vector 13128  Network.dyn_peer[24]  lookupHopsSig:vector  ETV
vector 13129  Network.dyn_peer[24]  lookupStabilitySig:vector  ETV
vector 13130  Network.dyn_peer[24]  lookupTimeSig:vector  ETV
vector 13140  Network.dyn_peer[28]  lookupHopsSig:vector  ETV
vector 13141  Network.dyn_peer[28]  lookupStabilitySig:vector  ETV
vector 13142  Network.dyn_peer[28]  lookupTimeSig:vector  ETV
vector 13143  Network.dyn_peer[29]  lookupHopsSig:vector  ETV
vector 13144  Network.dyn_peer[29]  lookupStabilitySig:vector  ETV
vector 13145  Network.dyn_peer[29]  lookupTimeSig:vector  ETV
vector 13149  Network.dyn_peer[31]  lookupHopsSig:vector  ETV
vector 13150  Network.dyn_peer[31]  lookupStabilitySig:vector  ETV
vector 13151  Network.dyn_peer[31]  lookupTimeSig:vector  ETV
vector 13086  Network.dyn_peer[10]  lookupHopsSig:vector  ETV
vector 13087  Network.dyn_peer[10]  lookupStabilitySig:vector  ETV
vector 13088  Network.dyn_peer[10]  lookupTimeSig:vector  ETV
vector 13059  Network.dyn_peer[1]  lookupHopsSig:vector  ETV
vector 13060  Network.dyn_peer[1]  lookupStabilitySig:vector  ETV
vector 13061  Network.dyn_peer[1]  lookupTimeSig:vector  ETV
vector 13116  Network.dyn_peer[20]  lookupHopsSig:vector  ETV
vector 13117  Network.dyn_peer[20]  lookupStabilitySig:vector  ETV
vector 13118  Network.dyn_peer[20]  lookupTimeSig:vector  ETV
13056	137	20.1000000001	1
13056	395	20.5000000001	3
13056	549	20.706770400535	1
13056	910	21.209836332569	4
13056	1149	21.418455040689	1
13056	1156	21.420464561672	5
13056	1362	21.637747132221	2
13056	2060	22.247337245355	6
13056	3128	23.147337245355	8
13056	3763	23.722556773771	4
13056	4301	24.131411679782	3
13056	4668	24.439675080991	2
13056	6950	26.344622203032	21
13056	7256	26.550081371974	1
13056	7921	27.054120737502	4
13056	8364	27.363963754399	2
13056	8625	27.565122827733	9
13056	8654	27.574800068131	0
13056	9464	28.159418090259	1
13056	10326	28.865226940208	7
13056	10892	29.265226940208	4
13056	11176	29.47268871424	1
13056	11180	29.473997388233	1
13056	11871	30.076756715546	2
13056	12083	30.279070655873	9
13056	12085	30.279486807812	1
13056	12607	30.672584830391	1
13056	12620	30.683675296536	4
13056	12630	30.686439980241	4
13056	12763	30.807380574806	1
13056	12929	30.975465410406	2
13056	13450	31.376130269945	4
13056	14196	31.976130269945	6
13056	14337	32.077200562997	1
13056	14785	32.477200562997	3
13056	15481	32.977611282087	2
13056	16212	33.580721469636	6
13056	16327	33.68632090552	13
13056	16798	34.088265100196	4
13056	17493	34.596226568193	5
13056	18386	35.400166846195	7
13056	18443	35.41962463815	1
13056	18664	35.602466218092	1
13056	19762	36.409664741316	8
13056	20864	37.2824627639	4
13056	20875	37.309664741316	8
13056	21441	37.710691242838	3
13056	21939	38.082804393362	7
13056	22181	38.320774945765	5
13056	22818	38.853781582539	3
13056	23298	39.253781582539	3
13056	23887	39.661612013399	5
13056	25361	40.961612013399	14
13056	25697	41.262335324513	2
13056	26000	41.478873520295	1
13056	26232	41.701876357388	1
13056	26462	41.904704059342	2
13056	26842	42.304704059342	4
13056	27408	42.904804059442	6
13056	28202	43.504804059442	6
13056	28472	43.712017722544	1
13056	29113	44.220875691189	4
13056	29299	44.39670701472	2
13056	29543	44.582372940323	9
13056	29989	44.88428331187	4
13056	30778	45.48428331187	6
13056	31119	45.789189798319	2
13056	31699	46.297542874346	4
13056	32717	47.2089250374	9
13056	33452	47.915669979478	6
13056	34637	49.022904833521	12
13056	34972	49.322904833521	2
13056	35633	49.831276960902	4
13056	36118	50.231681636383	5
13056	37223	51.141594920251	9
13056	37466	51.341594920251	1
13056	37913	51.748930351589	3
13056	38961	52.555098550304	10
13056	39944	53.436580637999	6
13056	40748	54.136580637999	6
13056	40990	54.292876523025	2
13056	41142	54.397008044365	1
13056	41393	54.643421759998	5
13056	41758	54.944353739613	3
13056	41986	55.144353739613	1
13056	42316	55.452052113824	2
13056	43202	56.152811813152	7
13056	43965	56.75721813447	5
13056	44282	56.950871765866	8
13056	44306	56.962165809417	1
13056	45374	57.670257908642	7
13056	45921	58.170257908642	4
13056	46569	58.798748046085	1
13056	46779	58.972631000825	7
13056	47030	59.174185983745	1
13056	47099	59.20755417115	4
13056	47652	59.713763754748	5
13056	48055	60.013763754748	2
13056	48556	60.428959260781	3
13056	48925	60.75814793767	2
13056	48941	60.765286612827	0
13056	50290	61.949294216843	10
13056	50632	62.256190270374	3
13056	51564	63.056290270474	9
13056	53394	64.649809230157	9
13056	53719	64.951980279985	2
13056	54853	65.992358271064	1
13056	56405	67.300324758438	13
13056	57118	67.900324758438	5
13056	57740	68.502541678773	5
13056	58058	68.802058322214	5
13056	58469	69.207541387811	6
13056	58473	69.209048691923	3
13056	58860	69.613956537918	3
13056	58863	69.616167996667	3
13056	59121	69.819886073018	2
13056	59443	70.119886073018	2
13056	59711	70.324192788018	1
13056	60603	71.038304885738	6
13056	61013	71.338404885838	3
13056	62178	72.438404885838	11
13056	62189	72.44918339718	9
13056	62383	72.649645136449	2
13056	62672	72.858147493401	2
13056	63014	73.158147493401	2
13056	63800	73.863965814982	7
13056	64118	74.16519344588	2
13056	64593	74.571708441527	3
13056	65322	75.232775941645	12
13056	65413	75.284719387752	6
13056	65730	75.543172103359	2
13056	65803	75.601724742536	2
13056	65963	75.702380852341	2
13056	66615	76.202380852341	4
13056	66972	76.404444566846	1
13056	67238	76.588810946821	1
13056	67676	76.888910946921	3
13056	71109	79.628781013818	9
13056	71504	79.928781013818	2
13056	72358	80.538613175785	5
13056	73060	81.14049771677	5
13056	73287	81.343442868598	1
13056	73294	81.348658283639	1
13056	73579	81.647706090524	2
13056	73944	82.050552535345	7
13056	74520	82.658189848311	6
13056	74748	82.858189848311	1
13056	75552	83.474816124449	5
13056	76300	84.080962340727	5
13056	76447	84.187756290903	0
13056	76676	84.39758311691	1
13056	76890	84.597759786734	1
13056	77398	85.006711586773	4
13056	77617	85.206711586773	1
13056	78081	85.606863140052	4
13056	79177	86.615611614333	9
13056	79660	86.962456257936	6
13056	80048	87.26704766709	2
13056	80612	87.689064115023	4
13056	80939	87.998119272182	2
13056	81226	88.200995987879	1
13056	81394	88.316522420499	17
13056	81722	88.578423524783	5
13056	83274	89.987835400232	16
13056	83740	90.387835400232	3
13056	84401	90.930003765732	4
13056	84449	90.9943051276	6
13056	84609	91.118616565356	2
13056	84774	91.231444523384	2
13056	84829	91.302939075424	2
13056	84854	91.32024190007	2
13056	85505	91.926207977074	6
13056	86158	92.526207977074	6
13056	86625	92.931854733579	3
13056	87058	93.23769693438	3
13056	88329	94.13769693438	9
13056	88717	94.446916675567	2
13056	88731	94.450756005222	10
13056	88788	94.514740317212	1
13056	88805	94.520470808515	0
13056	89595	95.220470808515	6
13056	89946	95.523862479467	2
13056	90094	95.644507621224	2
13056	90671	96.044607621324	4
13056	91208	96.452211278972	3
13056	91612	96.75361542954	2
13056	92115	97.256859506504	5
13056	92315	97.456859506504	1
13056	92984	98.063072110649	5
13056	93249	98.263465222615	1
13056	93290	98.276936094635	1
13056	93335	98.293396393528	2
13056	94451	99.095222335978	8
13056	95192	99.695222335978	5
13056	96798	101.000899961684	13
13056	96918	101.081771492387	9
13056	96958	101.110389777164	1
13056	97132	101.315134063761	1
13056	97195	101.390192556247	2
13056	97516	101.699012444553	3
13056	97925	102.007285032705	2
13056	98023	102.112314666427	2
13056	98185	102.309128667078	2
13056	98684	102.71267593395	5
13056	98908	102.91267593395	1
13056	99294	103.232113945113	2
13056	99503	103.434720255948	1
13056	100578	104.237969308177	9
13056	101086	104.637969308177	3
13056	101342	104.838069308277	2
13056	101910	105.244974226947	3
13056	102174	105.446383338838	1
13056	102874	105.950771894298	4
13056	103117	106.152148079412	1
13056	103228	106.241654896693	7
13056	103463	106.459897992092	2
13056	103705	106.659997992192	3
13056	104659	107.459997992192	7
13056	105151	107.866761989146	3
13056	106309	108.866861989246	11
13056	106794	109.266861989246	3
13056	107621	109.968007453558	7
13056	108380	110.642466166724	3
13056	108933	111.042466166724	4
13056	109347	111.3477921566	2
13056	109541	111.478764599055	4
13056	109690	111.582450044686	1
13056	110180	111.982450044686	3
13056	110764	112.488384171898	4
13056	112539	113.903669001666	5
13056	113161	114.403669001666	4
13056	113680	114.809766332976	4
13056	113935	115.081761736105	3
13056	113990	115.127656748465	2
13056	114525	115.6323579989	5
13056	114961	116.0323579989	3
13056	115923	116.837460965289	7
13056	116083	116.945039085871	1
13056	116349	117.145039085871	1
13056	116793	117.452898179657	2
13056	116998	117.614011932705	1
13056	117442	118.016304767982	3
13056	117849	118.425000219983	3
13056	117941	118.525175456509	10
13056	117982	118.558838186565	12
13056	118289	118.833040918314	3
13056	118403	118.970761163421	3
13056	118926	119.376406583455	3
13056	119150	119.526353899645	10
13056	120104	120.327679302197	9
13056	120365	120.536159429555	1
13056	121266	121.425252482981	4
13056	121538	121.639934769089	11
13056	121971	121.943943476637	2
13056	122203	122.151237902959	1
13056	122566	122.460933618662	3
13056	123159	122.960933618662	4
13056	123371	123.169641033781	1
13056	124627	124.279584665554	11
13056	125389	124.979584665554	6
13056	126241	125.58785841504	5
13056	127414	126.497847188835	8
13056	127440	126.505031332441	5
13056	128297	127.20447683881	8
13056	128325	127.212414865686	8
13056	128601	127.417808849435	1
13056	129055	127.819753711899	3
13056	129154	127.900533398142	4
13056	130394	129.005329720455	12
13056	130634	129.205329720455	1
13056	131202	129.706300786244	4
13056	131272	129.721006590301	4
13056	131696	130.109131779188	4
13056	133832	131.809231779288	21
13056	134410	132.309231779288	4
13056	135943	133.615944207651	13
13056	136197	133.841030088386	15
13057	137	20.1000000001	0.875
13057	395	20.5000000001	0.625
13057	549	20.706770400535	0.875
13057	910	21.209836332569	0.5
13057	1149	21.418455040689	0.875
13057	1156	21.420464561672	0.375
13057	1362	21.637747132221	0.75
13057	2060	22.247337245355	0.25
13057	3128	23.147337245355	0
13057	3763	23.722556773771	0.5
13057	4301	24.131411679782	0.625
13057	4668	24.439675080991	0.75
13057	6950	26.344622203032	-1.625
13057	7256	26.550081371974	0.875
13057	7921	27.054120737502	0.5
13057	8364	27.363963754399	0.75
13057	8625	27.565122827733	-0.125
13057	8654	27.574800068131	1
13057	9464	28.159418090259	0.875
13057	10326	28.865226940208	0.125
13057	10892	29.265226940208	0.5
13057	11176	29.47268871424	0.875
13057	11180	29.473997388233	0.875
13057	11871	30.076756715546	0.75
13057	12083	30.279070655873	-0.125
13057	12085	30.279486807812	0.875
13057	12607	30.672584830391	0.875
13057	12620	30.683675296536	0.5
13057	12630	30.686439980241	0.5
13057	12763	30.807380574806	0.875
13057	12929	30.975465410406	0.75
13057	13450	31.376130269945	0.5
13057	14196	31.976130269945	0.25
13057	14337	32.077200562997	0.875
13057	14785	32.477200562997	0.625
13057	15481	32.977611282087	0.75
13057	16212	33.580721469636	0.25
13057	16327	33.68632090552	-0.625
13057	16798	34.088265100196	0.5
13057	17493	34.596226568193	0.375
13057	18386	35.400166846195	0.125
13057	18443	35.41962463815	0.875
13057	18664	35.602466218092	0.875
13057	19762	36.409664741316	0
13057	20864	37.2824627639	0.5
13057	20875	37.309664741316	0
13057	21441	37.710691242838	0.625
13057	21939	38.082804393362	0.125
13057	22181	38.320774945765	0.375
13057	22818	38.853781582539	0.625
13057	23298	39.253781582539	0.625
13057	23887	39.661612013399	0.375
13057	25361	40.961612013399	-0.75
13057	25697	41.262335324513	0.75
13057	26000	41.478873520295	0.875
13057	26232	41.701876357388	0.875
13057	26462	41.904704059342	0.75
13057	26842	42.304704059342	0.5
13057	27408	42.904804059442	0.25
13057	28202	43.504804059442	0.25
13057	28472	43.712017722544	0.875
13057	29113	44.220875691189	0.5
13057	29299	44.39670701472	0.75
13057	29543	44.582372940323	-0.125
13057	29989	44.88428331187	0.5
13057	30778	45.48428331187	0.25
13057	31119	45.789189798319	0.75
13057	31699	46.297542874346	0.5
13057	32717	47.2089250374	-0.125
13057	33452	47.915669979478	0.25
13057	34637	49.022904833521	-0.5
13057	34972	49.322904833521	0.75
13057	35633	49.831276960902	0.5
13057	36118	50.231681636383	0.375
13057	37223	51.141594920251	-0.125
13057	37466	51.341594920251	0.875
13057	37913	51.748930351589	0.625
13057	38961	52.555098550304	-0.25
13057	39944	53.436580637999	0.25
13057	40748	54.136580637999	0.25
13057	40990	54.292876523025	0.75
13057	41142	54.397008044365	0.875
13057	41393	54.643421759998	0.375
13057	41758	54.944353739613	0.625
13057	41986	55.144353739613	0.875
13057	42316	55.452052113824	0.75
13057	43202	56.152811813152	0.125
13057	43965	56.75721813447	0.375
13057	44282	56.950871765866	0
13057	44306	56.962165809417	0.875
13057	45374	57.670257908642	0.125
13057	45921	58.170257908642	0.5
13057	46569	58.798748046085	0.875
13057	46779	58.972631000825	0.125
13057	47030	59.174185983745	0.875
13057	47099	59.20755417115	0.5
13057	47652	59.713763754748	0.375
13057	48055	60.013763754748	0.75
13057	48556	60.428959260781	0.625
13057	48925	60.75814793767	0.75
13057	48941	60.765286612827	1
13057	50290	61.949294216843	-0.25
13057	50632	62.256190270374	0.625
13057	51564	63.056290270474	-0.125
13057	53394	64.649809230157	-0.125
13057	53719	64.951980279985	0.75
13057	54853	65.992358271064	0.875
13057	56405	67.300324758438	-0.625
13057	57118	67.900324758438	0.375
13057	57740	68.502541678773	0.375
13057	58058	68.802058322214	0.375
13057	58469	69.207541387811	0.25
13057	58473	69.209048691923	0.625
13057	58860	69.613956537918	0.625
13057	58863	69.616167996667	0.625
13057	59121	69.819886073018	0.75
13057	59443	70.119886073018	0.75
13057	59711	70.324192788018	0.875
13057	60603	71.038304885738	0.25
13057	61013	71.338404885838	0.625
13057	62178	72.438404885838	-0.375
13057	62189	72.44918339718	-0.125
13057	62383	72.649645136449	0.75
13057	62672	72.858147493401	0.75
13057	63014	73.158147493401	0.75
13057	63800	73.863965814982	0.125
13057	64118	74.16519344588	0.75
13057	64593	74.571708441527	0.625
13057	65322	75.232775941645	-0.5
13057	65413	75.284719387752	0.25
13057	65730	75.543172103359	0.75
13057	65803	75.601724742536	0.75
13057	65963	75.702380852341	0.75
13057	66615	76.202380852341	0.5
13057	66972	76.404444566846	0.875
13057	67238	76.588810946821	0.875
13057	67676	76.888910946921	0.625
13057	71109	79.628781013818	-0.125
13057	71504	79.928781013818	0.75
13057	72358	80.538613175785	0.375
13057	73060	81.14049771677	0.375
13057	73287	81.343442868598	0.875
13057	73294	81.348658283639	0.875
13057	73579	81.647706090524	0.75
13057	73944	82.050552535345	0.125
13057	74520	82.658189848311	0.25
13057	74748	82.858189848311	0.875
13057	75552	83.474816124449	0.375
13057	76300	84.080962340727	0.375
13057	76447	84.187756290903	1
13057	76676	84.39758311691	0.875
13057	76890	84.597759786734	0.875
13057	77398	85.006711586773	0.5
13057	77617	85.206711586773	0.875
13057	78081	85.606863140052	0.5
13057	79177	86.615611614333	-0.125
13057	79660	86.962456257936	0.25
13057	80048	87.26704766709	0.75
13057	80612	87.689064115023	0.5
13057	80939	87.998119272182	0.75
13057	81226	88.200995987879	0.875
13057	81394	88.316522420499	-1.125
13057	81722	88.578423524783	0.375
13057	83274	89.987835400232	-1
13057	83740	90.387835400232	0.625
13057	84401	90.930003765732	0.5
13057	84449	90.9943051276	0.25
13057	84609	91.118616565356	0.75
13057	84774	91.231444523384	0.75
13057	84829	91.302939075424	0.75
13057	84854	91.32024190007	0.75
13057	85505	91.926207977074	0.25
13057	86158	92.526207977074	0.25
13057	86625	92.931854733579	0.625
13057	87058	93.23769693438	0.625
13057	88329	94.13769693438	-0.125
13057	88717	94.446916675567	0.75
13057	88731	94.450756005222	-0.25
13057	88788	94.514740317212	0.875
13057	88805	94.520470808515	1
13057	89595	95.220470808515	0.25
13057	89946	95.523862479467	0.75
13057	90094	95.644507621224	0.75
13057	90671	96.044607621324	0.5
13057	91208	96.452211278972	0.625
13057	91612	96.75361542954	0.75
13057	92115	97.256859506504	0.375
13057	92315	97.456859506504	0.875
13057	92984	98.063072110649	0.375
13057	93249	98.263465222615	0.875
13057	93290	98.276936094635	0.875
13057	93335	98.293396393528	0.75
13057	94451	99.095222335978	0
13057	95192	99.695222335978	0.375
13057	96798	101.000899961684	-0.625
13057	96918	101.081771492387	-0.125
13057	96958	101.110389777164	0.875
13057	97132	101.315134063761	0.875
13057	97195	101.390192556247	0.75
13057	97516	101.699012444553	0.625
13057	97925	102.007285032705	0.75
13057	98023	102.112314666427	0.75
13057	98185	102.309128667078	0.75
13057	98684	102.71267593395	0.375
13057	98908	102.91267593395	0.875
13057	99294	103.232113945113	0.75
13057	99503	103.434720255948	0.875
13057	100578	104.237969308177	-0.125
13057	101086	104.637969308177	0.625
13057	101342	104.838069308277	0.77777777612209
13057	101910	105.244974226947	0.625
13057	102174	105.446383338838	0.875
13057	102874	105.950771894298	0.5
13057	103117	106.152148079412	0.875
13057	103228	106.241654896693	0.125
13057	103463	106.459897992092	0.75
13057	103705	106.659997992192	0.625
13057	104659	107.459997992192	0.125
13057	105151	107.866761989146	0.625
13057	106309	108.866861989246	-0.375
13057	106794	109.266861989246	0.625
13057	107621	109.968007453558	0.125
13057	108380	110.642466166724	0.625
13057	108933	111.042466166724	0.5
13057	109347	111.3477921566	0.75
13057	109541	111.478764599055	0.5
13057	109690	111.582450044686	0.875
13057	110180	111.982450044686	0.625
13057	110764	112.488384171898	0.5
13057	112539	113.903669001666	0.375
13057	113161	114.403669001666	0.5
13057	113680	114.809766332976	0.5
13057	113935	115.081761736105	0.625
13057	113990	115.127656748465	0.75
13057	114525	115.6323579989	0.375
13057	114961	116.0323579989	0.625
13057	115923	116.837460965289	0.125
13057	116083	116.945039085871	0.875
13057	116349	117.145039085871	0.875
13057	116793	117.452898179657	0.75
13057	116998	117.614011932705	0.875
13057	117442	118.016304767982	0.625
13057	117849	118.425000219983	0.625
13057	117941	118.525175456509	-0.25
13057	117982	118.558838186565	-0.5
13057	118289	118.833040918314	0.625
13057	118403	118.970761163421	0.625
13057	118926	119.376406583455	0.625
13057	119150	119.526353899645	-0.25
13057	120104	120.327679302197	-0.125
13057	120365	120.536159429555	0.875
13057	121266	121.425252482981	0.5
13057	121538	121.639934769089	-0.375
13057	121971	121.943943476637	0.75
13057	122203	122.151237902959	0.875
13057	122566	122.460933618662	0.66666665673256
13057	123159	122.960933618662	0.5
13057	123371	123.169641033781	0.875
13057	124627	124.279584665554	-0.375
13057	125389	124.979584665554	0.25
13057	126241	125.58785841504	0.375
13057	127414	126.497847188835	0
13057	127440	126.505031332441	0.375
13057	128297	127.20447683881	0
13057	128325	127.212414865686	0
13057	128601	127.417808849435	0.875
13057	129055	127.819753711899	0.625
13057	129154	127.900533398142	0.5
13057	130394	129.005329720455	-0.5
13057	130634	129.205329720455	0.875
13057	131202	129.706300786244	0.5
13057	131272	129.721006590301	0.5
13057	131696	130.109131779188	0.5
13057	133832	131.809231779288	-1.625
13057	134410	132.309231779288	0.5
13057	135943	133.615944207651	-0.625
13057	136197	133.841030088386	-0.875
13058	137	20.1000000001	0.1
13058	395	20.5000000001	0.4
13058	549	20.706770400535	0.2
13058	910	21.209836332569	0.5
13058	1149	21.418455040689	0.2
13058	1156	21.420464561672	0.6
13058	1362	21.637747132221	0.3
13058	2060	22.247337245355	0.6
13058	3128	23.147337245355	0.9
13058	3763	23.722556773771	0.5
13058	4301	24.131411679782	0.4
13058	4668	24.439675080991	0.3
13058	6950	26.344622203032	1.9
13058	7256	26.550081371974	0.2
13058	7921	27.054120737502	0.5
13058	8364	27.363963754399	0.3
13058	8625	27.565122827733	0.9
13058	8654	27.574800068131	0
13058	9464	28.159418090259	0.2
13058	10326	28.865226940208	0.7
13058	10892	29.265226940208	0.4
13058	11176	29.47268871424	0.2
13058	11180	29.473997388233	0.2
13058	11871	30.076756715546	0.3
13058	12083	30.279070655873	0.8
13058	12085	30.279486807812	0.2
13058	12607	30.672584830391	0.2
13058	12620	30.683675296536	0.4
13058	12630	30.686439980241	0.4
13058	12763	30.807380574806	0.2
13058	12929	30.975465410406	0.3
13058	13450	31.376130269945	0.4
13058	14196	31.976130269945	0.6
13058	14337	32.077200562997	0.1
13058	14785	32.477200562997	0.4
13058	15481	32.977611282087	0.3
13058	16212	33.580721469636	0.6
13058	16327	33.68632090552	1.2
13058	16798	34.088265100196	0.5
13058	17493	34.596226568193	0.5
13058	18386	35.400166846195	0.8
13058	18443	35.41962463815	0.1
13058	18664	35.602466218092	0.2
13058	19762	36.409664741316	0.8
13058	20864	37.2824627639	0.5
13058	20875	37.309664741316	0.9
13058	21441	37.710691242838	0.4
13058	21939	38.082804393362	0.8
13058	22181	38.320774945765	0.6
13058	22818	38.853781582539	0.3
13058	23298	39.253781582539	0.4
13058	23887	39.661612013399	0.4
13058	25361	40.961612013399	1.3
13058	25697	41.262335324513	0.3
13058	26000	41.478873520295	0.2
13058	26232	41.701876357388	0.2
13058	26462	41.904704059342	0.2
13058	26842	42.304704059342	0.4
13058	27408	42.904804059442	0.6
13058	28202	43.504804059442	0.6
13058	28472	43.712017722544	0.2
13058	29113	44.220875691189	0.5
13058	29299	44.39670701472	0.3
13058	29543	44.582372940323	0.9
13058	29989	44.88428331187	0.3
13058	30778	45.48428331187	0.6
13058	31119	45.789189798319	0.3
13058	31699	46.297542874346	0.5
13058	32717	47.2089250374	0.9
13058	33452	47.915669979478	0.7
13058	34637	49.022904833521	1.1
13058	34972	49.322904833521	0.3
13058	35633	49.831276960902	0.5
13058	36118	50.231681636383	0.4
13058	37223	51.141594920251	0.9
13058	37466	51.341594920251	0.2
13058	37913	51.748930351589	0.4
13058	38961	52.555098550304	0.8
13058	39944	53.436580637999	0.6
13058	40748	54.136580637999	0.7
13058	40990	54.292876523025	0.3
13058	41142	54.397008044365	0.1
13058	41393	54.643421759998	0.5
13058	41758	54.944353739613	0.3
13058	41986	55.144353739613	0.2
13058	42316	55.452052113824	0.3
13058	43202	56.152811813152	0.7
13058	43965	56.75721813447	0.6
13058	44282	56.950871765866	0.6
13058	44306	56.962165809417	0.2
13058	45374	57.670257908642	0.7
13058	45921	58.170257908642	0.5
13058	46569	58.798748046085	0.2
13058	46779	58.972631000825	0.8
13058	47030	59.174185983745	0.2
13058	47099	59.20755417115	0.4
13058	47652	59.713763754748	0.5
13058	48055	60.013763754748	0.3
13058	48556	60.428959260781	0.4
13058	48925	60.75814793767	0.3
13058	48941	60.765286612827	0
13058	50290	61.949294216843	1
13058	50632	62.256190270374	0.3
13058	51564	63.056290270474	0.8
13058	53394	64.649809230157	0.9
13058	53719	64.951980279985	0.3
13058	54853	65.992358271064	0.2
13058	56405	67.300324758438	1.3
13058	57118	67.900324758438	0.6
13058	57740	68.502541678773	0.6
13058	58058	68.802058322214	0.6
13058	58469	69.207541387811	0.7
13058	58473	69.209048691923	0.4
13058	58860	69.613956537918	0.4
13058	58863	69.616167996667	0.4
13058	59121	69.819886073018	0.2
13058	59443	70.119886073018	0.3
13058	59711	70.324192788018	0.2
13058	60603	71.038304885738	0.7
13058	61013	71.338404885838	0.3
13058	62178	72.438404885838	1.1
13058	62189	72.44918339718	1
13058	62383	72.649645136449	0.2
13058	62672	72.858147493401	0.2
13058	63014	73.158147493401	0.3
13058	63800	73.863965814982	0.7
13058	64118	74.16519344588	0.3
13058	64593	74.571708441527	0.4
13058	65322	75.232775941645	1
13058	65413	75.284719387752	0.7
13058	65730	75.543172103359	0.3
13058	65803	75.601724742536	0.3
13058	65963	75.702380852341	0.1
13058	66615	76.202380852341	0.5
13058	66972	76.404444566846	0.2
13058	67238	76.588810946821	0.2
13058	67676	76.888910946921	0.3
13058	71109	79.628781013818	0.9
13058	71504	79.928781013818	0.3
13058	72358	80.538613175785	0.6
13058	73060	81.14049771677	0.6
13058	73287	81.343442868598	0.2
13058	73294	81.348658283639	0.2
13058	73579	81.647706090524	0.3
13058	73944	82.050552535345	0.7
13058	74520	82.658189848311	0.6
13058	74748	82.858189848311	0.2
13058	75552	83.474816124449	0.6
13058	76300	84.080962340727	0.6
13058	76447	84.187756290903	0.1
13058	76676	84.39758311691	0.2
13058	76890	84.597759786734	0.2
13058	77398	85.006711586773	0.4
13058	77617	85.206711586773	0.2
13058	78081	85.606863140052	0.4
13058	79177	86.615611614333	1
13058	79660	86.962456257936	0.6
13058	80048	87.26704766709	0.3
13058	80612	87.689064115023	0.4
13058	80939	87.998119272182	0.3
13058	81226	88.200995987879	0.2
13058	81394	88.316522420499	1.7
13058	81722	88.578423524783	0.5
13058	83274	89.987835400232	1.4
13058	83740	90.387835400232	0.4
13058	84401	90.930003765732	0.5
13058	84449	90.9943051276	0.6
13058	84609	91.118616565356	0.3
13058	84774	91.231444523384	0.3
13058	84829	91.302939075424	0.3
13058	84854	91.32024190007	0.3
13058	85505	91.926207977074	0.6
13058	86158	92.526207977074	0.6
13058	86625	92.931854733579	0.4
13058	87058	93.23769693438	0.3
13058	88329	94.13769693438	0.9
13058	88717	94.446916675567	0.3
13058	88731	94.450756005222	1.1
13058	88788	94.514740317212	0.2
13058	88805	94.520470808515	0