file 890721 1369516679                                          
version 2
run Stability-norelink-59-20130525-23:17:55-22103
attr configname Stability-norelink
attr datetime 20130525-23:17:55
attr experiment Stability
attr inifile omnetpp.ini
attr iterationvars $0=1e1
attr iterationvars2 "$0=1e1, $repetition=9"
attr measurement $0=1e1
attr network Network
attr processid 22103
attr repetition 9
attr replication #9
attr resultdir results
attr runnumber 59
attr seedset 59

vector 5673  Network.dyn_peer[3]  lookupHopsSig:vector  ETV
vector 5674  Network.dyn_peer[3]  lookupStabilitySig:vector  ETV
vector 5675  Network.dyn_peer[3]  lookupTimeSig:vector  ETV
vector 5664  Network.dyn_peer[0]  lookupHopsSig:vector  ETV
vector 5665  Network.dyn_peer[0]  lookupStabilitySig:vector  ETV
vector 5666  Network.dyn_peer[0]  lookupTimeSig:vector  ETV
vector 5697  Network.dyn_peer[11]  lookupHopsSig:vector  ETV
vector 5698  Network.dyn_peer[11]  lookupStabilitySig:vector  ETV
vector 5699  Network.dyn_peer[11]  lookupTimeSig:vector  ETV
vector 5670  Network.dyn_peer[2]  lookupHopsSig:vector  ETV
vector 5671  Network.dyn_peer[2]  lookupStabilitySig:vector  ETV
vector 5672  Network.dyn_peer[2]  lookupTimeSig:vector  ETV
vector 5676  Network.dyn_peer[4]  lookupHopsSig:vector  ETV
vector 5677  Network.dyn_peer[4]  lookupStabilitySig:vector  ETV
vector 5678  Network.dyn_peer[4]  lookupTimeSig:vector  ETV
vector 5685  Network.dyn_peer[7]  lookupHopsSig:vector  ETV
vector 5686  Network.dyn_peer[7]  lookupStabilitySig:vector  ETV
vector 5687  Network.dyn_peer[7]  lookupTimeSig:vector  ETV
vector 5718  Network.dyn_peer[18]  lookupHopsSig:vector  ETV
vector 5719  Network.dyn_peer[18]  lookupStabilitySig:vector  ETV
vector 5720  Network.dyn_peer[18]  lookupTimeSig:vector  ETV
vector 5691  Network.dyn_peer[9]  lookupHopsSig:vector  ETV
vector 5692  Network.dyn_peer[9]  lookupStabilitySig:vector  ETV
vector 5693  Network.dyn_peer[9]  lookupTimeSig:vector  ETV
vector 5706  Network.dyn_peer[14]  lookupHopsSig:vector  ETV
vector 5707  Network.dyn_peer[14]  lookupStabilitySig:vector  ETV
vector 5708  Network.dyn_peer[14]  lookupTimeSig:vector  ETV
vector 5679  Network.dyn_peer[5]  lookupHopsSig:vector  ETV
vector 5680  Network.dyn_peer[5]  lookupStabilitySig:vector  ETV
vector 5681  Network.dyn_peer[5]  lookupTimeSig:vector  ETV
vector 5682  Network.dyn_peer[6]  lookupHopsSig:vector  ETV
vector 5683  Network.dyn_peer[6]  lookupStabilitySig:vector  ETV
vector 5684  Network.dyn_peer[6]  lookupTimeSig:vector  ETV
vector 5667  Network.dyn_peer[1]  lookupHopsSig:vector  ETV
vector 5668  Network.dyn_peer[1]  lookupStabilitySig:vector  ETV
vector 5669  Network.dyn_peer[1]  lookupTimeSig:vector  ETV
vector 5727  Network.dyn_peer[21]  lookupHopsSig:vector  ETV
vector 5728  Network.dyn_peer[21]  lookupStabilitySig:vector  ETV
vector 5729  Network.dyn_peer[21]  lookupTimeSig:vector  ETV
vector 5709  Network.dyn_peer[15]  lookupHopsSig:vector  ETV
vector 5710  Network.dyn_peer[15]  lookupStabilitySig:vector  ETV
vector 5711  Network.dyn_peer[15]  lookupTimeSig:vector  ETV
vector 5712  Network.dyn_peer[16]  lookupHopsSig:vector  ETV
vector 5713  Network.dyn_peer[16]  lookupStabilitySig:vector  ETV
vector 5714  Network.dyn_peer[16]  lookupTimeSig:vector  ETV
vector 5742  Network.dyn_peer[26]  lookupHopsSig:vector  ETV
vector 5743  Network.dyn_peer[26]  lookupStabilitySig:vector  ETV
vector 5744  Network.dyn_peer[26]  lookupTimeSig:vector  ETV
vector 5715  Network.dyn_peer[17]  lookupHopsSig:vector  ETV
vector 5716  Network.dyn_peer[17]  lookupStabilitySig:vector  ETV
vector 5717  Network.dyn_peer[17]  lookupTimeSig:vector  ETV
vector 5688  Network.dyn_peer[8]  lookupHopsSig:vector  ETV
vector 5689  Network.dyn_peer[8]  lookupStabilitySig:vector  ETV
vector 5690  Network.dyn_peer[8]  lookupTimeSig:vector  ETV
vector 5694  Network.dyn_peer[10]  lookupHopsSig:vector  ETV
vector 5695  Network.dyn_peer[10]  lookupStabilitySig:vector  ETV
vector 5696  Network.dyn_peer[10]  lookupTimeSig:vector  ETV
vector 5724  Network.dyn_peer[20]  lookupHopsSig:vector  ETV
vector 5725  Network.dyn_peer[20]  lookupStabilitySig:vector  ETV
vector 5726  Network.dyn_peer[20]  lookupTimeSig:vector  ETV
vector 5757  Network.dyn_peer[31]  lookupHopsSig:vector  ETV
vector 5758  Network.dyn_peer[31]  lookupStabilitySig:vector  ETV
vector 5759  Network.dyn_peer[31]  lookupTimeSig:vector  ETV
vector 5730  Network.dyn_peer[22]  lookupHopsSig:vector  ETV
vector 5731  Network.dyn_peer[22]  lookupStabilitySig:vector  ETV
vector 5732  Network.dyn_peer[22]  lookupTimeSig:vector  ETV
vector 5703  Network.dyn_peer[13]  lookupHopsSig:vector  ETV
vector 5704  Network.dyn_peer[13]  lookupStabilitySig:vector  ETV
vector 5705  Network.dyn_peer[13]  lookupTimeSig:vector  ETV
vector 5736  Network.dyn_peer[24]  lookupHopsSig:vector  ETV
vector 5737  Network.dyn_peer[24]  lookupStabilitySig:vector  ETV
vector 5738  Network.dyn_peer[24]  lookupTimeSig:vector  ETV
vector 5739  Network.dyn_peer[25]  lookupHopsSig:vector  ETV
vector 5740  Network.dyn_peer[25]  lookupStabilitySig:vector  ETV
vector 5741  Network.dyn_peer[25]  lookupTimeSig:vector  ETV
vector 5721  Network.dyn_peer[19]  lookupHopsSig:vector  ETV
vector 5722  Network.dyn_peer[19]  lookupStabilitySig:vector  ETV
vector 5723  Network.dyn_peer[19]  lookupTimeSig:vector  ETV
vector 5751  Network.dyn_peer[29]  lookupHopsSig:vector  ETV
vector 5752  Network.dyn_peer[29]  lookupStabilitySig:vector  ETV
vector 5753  Network.dyn_peer[29]  lookupTimeSig:vector  ETV
vector 5700  Network.dyn_peer[12]  lookupHopsSig:vector  ETV
vector 5701  Network.dyn_peer[12]  lookupStabilitySig:vector  ETV
vector 5702  Network.dyn_peer[12]  lookupTimeSig:vector  ETV
vector 5733  Network.dyn_peer[23]  lookupHopsSig:vector  ETV
vector 5734  Network.dyn_peer[23]  lookupStabilitySig:vector  ETV
vector 5735  Network.dyn_peer[23]  lookupTimeSig:vector  ETV
vector 5748  Network.dyn_peer[28]  lookupHopsSig:vector  ETV
vector 5749  Network.dyn_peer[28]  lookupStabilitySig:vector  ETV
vector 5750  Network.dyn_peer[28]  lookupTimeSig:vector  ETV
vector 5754  Network.dyn_peer[30]  lookupHopsSig:vector  ETV
vector 5755  Network.dyn_peer[30]  lookupStabilitySig:vector  ETV
vector 5756  Network.dyn_peer[30]  lookupTimeSig:vector  ETV
vector 5745  Network.dyn_peer[27]  lookupHopsSig:vector  ETV
vector 5746  Network.dyn_peer[27]  lookupStabilitySig:vector  ETV
vector 5747  Network.dyn_peer[27]  lookupTimeSig:vector  ETV
5664	6396 8266 63 134656 20.11 133.194670601152 280 0 21 1275 9387
5665	14662 9222 63 134656 20.11 133.194670601152 280 -1.625 1 120.77777774632 108.07986108131
5666	23884 8784 63 134656 20.11 133.194670601152 280 0 2 138.8 97
5667	32668 7792 202 133469 20.32 131.902268287662 266 0 19 1244 8476
5668	40460 8673 202 133469 20.32 131.902268287662 266 -1.375 1 110.58333331347 87.486111097866
5669	49133 8280 202 133469 20.32 131.902268287662 266 0 1.6 135 88.4
5670	57413 8729 80 134427 20.13 132.869005475004 298 0 19 1219 8203
5671	66142 9740 80 134427 20.13 132.869005475004 298 -1.375 1 145.66666666418 121.48881172435
5672	75882 9296 80 134427 20.13 132.869005475004 298 0 1.7 135.4 87.24
5673	85178 8146 39 134522 20.04 132.985062291015 277 0 21 1178 7858
5674	93324 9062 39 134522 20.04 132.985062291015 277 -1.625 1 129.90277777612 105.30806326903
5675	102386 8661 39 134522 20.04 132.985062291015 277 0 1.8 130.8 85.56
5676	111047 9400 92 133610 20.15 132.018961241988 320 0 16 1233 7077
5677	120447 10439 92 133610 20.15 132.018961241988 320 -1 1 166.02777777612 122.35493826903
5678	130886 10013 92 133610 20.15 132.018961241988 320 0 1.4 140.4 80.58
5679	140899 7661 162 134348 20.26 132.765968952718 261 0 20 1172 8102
5680	148560 8538 162 134348 20.26 132.765968952718 261 -1.5 1 114.65277776122 94.686149681792
5681	157098 8154 162 134348 20.26 132.765968952718 261 0 1.6 129.7 85.43
5682	165252 8078 171 133399 20.27 131.85879096899 275 0 19 1162 7930
5683	173330 8968 171 133399 20.27 131.85879096899 275 -1.375 1 129.77777777612 108.44868826903
5684	182298 8585 171 133399 20.27 131.85879096899 275 0 1.7 129 83.24
5685	190883 9024 108 133740 20.18 132.163456540111 308 0 16 1238 7204
5686	199907 10035 108 133740 20.18 132.163456540111 308 -1 1 153.36111108959 111.1535493669
5687	209942 9609 108 133740 20.18 132.163456540111 308 0 1.5 139.8 82.46
5688	219551 8968 260 133278 20.39 131.738639689613 306 0 20 1241 7931
5689	228519 9937 260 133278 20.39 131.738639689613 306 -1.5 1 150.875 119.671875
5690	238456 9522 260 133278 20.39 131.738639689613 306 0 1.8 138.8 85.76
5691	247978 8173 124 134703 20.2 133.270138561029 279 0 19 1223 8181
5692	256151 9095 124 134703 20.2 133.270138561029 279 -1.375 1 126.25 101.1875
5693	265246 8695 124 134703 20.2 133.270138561029 279 0 1.7 136.4 89.32
5694	273941 9671 271 134777 20.41 133.430486750921 330 0 18 1270 7524
5695	283612 10779 271 134777 20.41 133.430486750921 330 -1.25 1 171.31944444031 130.14564042695
5696	294391 10292 271 134777 20.41 133.430486750921 330 0 1.6 143.5 84.25
5697	304683 8878 74 134832 20.12 133.533514552546 303 0 26 1265 8433
5698	313561 9898 74 134832 20.12 133.533514552546 303 -2.25 1 145.0694443956 118.7471064274
5699	323459 9430 74 134832 20.12 133.533514552546 303 0 2.1 140.6 90.14
5700	332889 9030 358 133431 20.53 131.883376851229 308 0 14 1251 7331
5701	341919 10046 358 133431 20.53 131.883376851229 308 -0.75 1 151.65277777612 109.83931326903
5702	351965 9618 358 133431 20.53 131.883376851229 308 0 1.4 140.3 82.31
5703	361583 9144 302 133802 20.44 132.209720409291 312 0 22 1191 7301
5704	370727 10159 302 133802 20.44 132.209720409291 312 -1.75 1 163.125 128.328125
5705	380886 9733 302 133802 20.44 132.209720409291 312 0 2 134.6 79.98
5706	390619 9088 153 134819 20.25 133.51694796475 310 0 27 1205 7353
5707	399707 10135 153 134819 20.25 133.51694796475 310 -2.375 1 159.43055555224 123.69926697163
5708	409842 9675 153 134819 20.25 133.51694796475 310 0 2.3 136.7 81.09
5709	419517 9154 230 134062 20.36 132.466184566918 311 0 15 1265 8201
5710	428671 10166 230 134062 20.36 132.466184566918 311 -0.875 1 153.02777773142 122.99614193852
5711	438837 9730 230 134062 20.36 132.466184566918 311 0 1.4 142.1 90.37
5712	448567 8816 239 133822 20.37 132.219720409291 300 0 23 1214 7572
5713	457383 9787 239 133822 20.37 132.219720409291 300 -1.875 1 148.25 114.8125
5714	467170 9382 239 133822 20.37 132.219720409291 300 0 2.3 136.3 85.09
5715	476552 7949 252 134286 20.38 132.684962291015 271 0 20 1183 8141
5716	484501 8831 252 134286 20.38 132.684962291015 271 -1.5 1 123.25 102.4375
5717	493332 8455 252 134286 20.38 132.684962291015 271 0 1.7 129.9 84.41
5718	501787 8646 118 133382 20.19 131.838697042809 295 0 26 1253 8277
5719	510433 9593 118 133382 20.19 131.838697042809 295 -2.25 1 138.375 111.078125
5720	520026 9201 118 133382 20.19 131.838697042809 295 0 2.3 139.3 89.19
5721	529227 8937 338 134449 20.5 132.887632229521 304 0 20 1236 8064
5722	538164 9946 338 134449 20.5 132.887632229521 304 -1.5 1 149.55555555224 121.05864197163
5723	548110 9506 338 134449 20.5 132.887632229521 304 0 1.8 138.5 88.93
5724	557616 9132 275 134418 20.41 132.867970085494 311 0 22 1259 8353
5725	566748 10180 275 134418 20.41 132.867970085494 311 -1.75 1 153.625 126.765625
5726	576928 9691 275 134418 20.41 132.867970085494 311 0 2 141.6 92.34
5727	586619 8422 207 134599 20.32 133.11684796475 286 0 15 1166 7246
5728	595041 9342 207 134599 20.32 133.11684796475 286 -0.875 1 140.25 107.71875
5729	604383 8949 207 134599 20.32 133.11684796475 286 0 1.4 129 77.38
5730	613332 9229 291 133770 20.43 132.175832065935 314 0 29 1263 8381
5731	622561 10267 291 133770 20.43 132.175832065935 314 -2.625 1 156.16666665673 129.2569444312
5732	632828 9826 291 133770 20.43 132.175832065935 314 0 2.3 141.8 89.68
5733	642654 7932 366 133518 20.54 131.929720409291 270 0 19 1147 7151
5734	650586 8846 366 133518 20.54 131.929720409291 270 -1.375 1 126.66666666418 95.051311724348
5735	659432 8439 366 133518 20.54 131.929720409291 270 0 1.6 126.8 77.18
5736	667871 8279 309 134624 20.45 133.151969599959 282 0 13 1141 6699
5737	676150 9212 309 134624 20.45 133.151969599959 282 -0.625 1 139.375 101.421875
5738	685362 8807 309 134624 20.45 133.151969599959 282 0 1.3 126.6 73.76
5739	694169 9141 316 134791 20.46 133.456832604935 312 0 18 1230 7362
5740	703310 10183 316 134791 20.46 133.456832604935 312 -1.25 1 158.25 119.53125
5741	713493 9738 316 134791 20.46 133.456832604935 312 0 1.7 138.1 81.27
5742	723231 9219 243 134084 20.37 132.474962291015 314 0 14 1161 6279
5743	732450 10208 243 134084 20.37 132.474962291015 314 -0.75 1 168.875 121.859375
5744	742658 9824 243 134084 20.37 132.474962291015 314 0 1.3 132.6 73.22
5745	752482 9398 496 134089 20.78 132.482285413555 320 0 20 1312 8640
5746	761880 10416 496 134089 20.78 132.482285413555 320 -1.5 1 156.04166665673 127.0538194312
5747	772296 10002 496 134089 20.78 132.482285413555 320 0 1.7 146 93.86
5748	782298 8533 390 134145 20.59 132.516071743771 291 0 17 1152 7224
5749	790831 9525 390 134145 20.59 132.516071743771 291 -1.125 1 147.01388888806 115.89949845532
5750	800356 9096 390 134145 20.59 132.516071743771 291 0 1.6 129.5 78.59
5751	809452 8279 342 133977 20.5 132.371905673011 282 0 17 1175 7713
5752	817731 9229 342 133977 20.5 132.371905673011 282 -1.125 1 135.15277777612 108.80806326903
5753	826960 8806 342 133977 20.5 132.371905673011 282 0 1.6 130.6 83.34
5754	835766 8414 407 133882 20.61 132.302490453695 287 0 18 1178 7328
5755	844180 9373 407 133882 20.61 132.302490453695 287 -1.25 1 139.88888883591 106.94984569079
5756	853553 8957 407 133882 20.61 132.302490453695 287 0 1.6 132 80.66
5757	862510 8889 284 134732 20.42 133.31694796475 302 0 16 1241 7635
5758	871399 9867 284 134732 20.42 133.31694796475 302 -1 1 146.875 111.046875
5759	881266 9455 284 134732 20.42 133.31694796475 302 0 1.5 137.8 83.18
