version 2
run Stability-norelink-76-20130525-23:19:04-22103
attr configname Stability-norelink
attr datetime 20130525-23:19:04
attr experiment Stability
attr inifile omnetpp.ini
attr iterationvars $0=1e-1
attr iterationvars2 "$0=1e-1, $repetition=6"
attr measurement $0=1e-1
attr network Network
attr processid 22103
attr repetition 6
attr replication #6
attr resultdir results
attr runnumber 76
attr seedset 76

vector 7305  Network.dyn_peer[3]  lookupHopsSig:vector  ETV
vector 7306  Network.dyn_peer[3]  lookupStabilitySig:vector  ETV
vector 7307  Network.dyn_peer[3]  lookupTimeSig:vector  ETV
vector 7320  Network.dyn_peer[8]  lookupHopsSig:vector  ETV
vector 7321  Network.dyn_peer[8]  lookupStabilitySig:vector  ETV
vector 7322  Network.dyn_peer[8]  lookupTimeSig:vector  ETV
vector 7302  Network.dyn_peer[2]  lookupHopsSig:vector  ETV
vector 7303  Network.dyn_peer[2]  lookupStabilitySig:vector  ETV
vector 7304  Network.dyn_peer[2]  lookupTimeSig:vector  ETV
vector 7311  Network.dyn_peer[5]  lookupHopsSig:vector  ETV
vector 7312  Network.dyn_peer[5]  lookupStabilitySig:vector  ETV
vector 7313  Network.dyn_peer[5]  lookupTimeSig:vector  ETV
vector 7323  Network.dyn_peer[9]  lookupHopsSig:vector  ETV
vector 7324  Network.dyn_peer[9]  lookupStabilitySig:vector  ETV
vector 7325  Network.dyn_peer[9]  lookupTimeSig:vector  ETV
vector 7335  Network.dyn_peer[13]  lookupHopsSig:vector  ETV
vector 7336  Network.dyn_peer[13]  lookupStabilitySig:vector  ETV
vector 7337  Network.dyn_peer[13]  lookupTimeSig:vector  ETV
vector 7338  Network.dyn_peer[14]  lookupHopsSig:vector  ETV
vector 7339  Network.dyn_peer[14]  lookupStabilitySig:vector  ETV
vector 7340  Network.dyn_peer[14]  lookupTimeSig:vector  ETV
vector 7344  Network.dyn_peer[16]  lookupHopsSig:vector  ETV
vector 7345  Network.dyn_peer[16]  lookupStabilitySig:vector  ETV
vector 7346  Network.dyn_peer[16]  lookupTimeSig:vector  ETV
vector 7347  Network.dyn_peer[17]  lookupHopsSig:vector  ETV
vector 7348  Network.dyn_peer[17]  lookupStabilitySig:vector  ETV
vector 7349  Network.dyn_peer[17]  lookupTimeSig:vector  ETV
vector 7350  Network.dyn_peer[18]  lookupHopsSig:vector  ETV
vector 7351  Network.dyn_peer[18]  lookupStabilitySig:vector  ETV
vector 7352  Network.dyn_peer[18]  lookupTimeSig:vector  ETV
vector 7353  Network.dyn_peer[19]  lookupHopsSig:vector  ETV
vector 7354  Network.dyn_peer[19]  lookupStabilitySig:vector  ETV
vector 7355  Network.dyn_peer[19]  lookupTimeSig:vector  ETV
vector 7296  Network.dyn_peer[0]  lookupHopsSig:vector  ETV
vector 7297  Network.dyn_peer[0]  lookupStabilitySig:vector  ETV
vector 7298  Network.dyn_peer[0]  lookupTimeSig:vector  ETV
vector 7308  Network.dyn_peer[4]  lookupHopsSig:vector  ETV
vector 7309  Network.dyn_peer[4]  lookupStabilitySig:vector  ETV
vector 7310  Network.dyn_peer[4]  lookupTimeSig:vector  ETV
vector 7314  Network.dyn_peer[6]  lookupHopsSig:vector  ETV
vector 7315  Network.dyn_peer[6]  lookupStabilitySig:vector  ETV
vector 7316  Network.dyn_peer[6]  lookupTimeSig:vector  ETV
vector 7329  Network.dyn_peer[11]  lookupHopsSig:vector  ETV
vector 7330  Network.dyn_peer[11]  lookupStabilitySig:vector  ETV
vector 7331  Network.dyn_peer[11]  lookupTimeSig:vector  ETV
vector 7341  Network.dyn_peer[15]  lookupHopsSig:vector  ETV
vector 7342  Network.dyn_peer[15]  lookupStabilitySig:vector  ETV
vector 7343  Network.dyn_peer[15]  lookupTimeSig:vector  ETV
vector 7365  Network.dyn_peer[23]  lookupHopsSig:vector  ETV
vector 7366  Network.dyn_peer[23]  lookupStabilitySig:vector  ETV
vector 7367  Network.dyn_peer[23]  lookupTimeSig:vector  ETV
vector 7371  Network.dyn_peer[25]  lookupHopsSig:vector  ETV
vector 7372  Network.dyn_peer[25]  lookupStabilitySig:vector  ETV
vector 7373  Network.dyn_peer[25]  lookupTimeSig:vector  ETV
vector 7374  Network.dyn_peer[26]  lookupHopsSig:vector  ETV
vector 7375  Network.dyn_peer[26]  lookupStabilitySig:vector  ETV
vector 7376  Network.dyn_peer[26]  lookupTimeSig:vector  ETV
vector 7389  Network.dyn_peer[31]  lookupHopsSig:vector  ETV
vector 7390  Network.dyn_peer[31]  lookupStabilitySig:vector  ETV
vector 7391  Network.dyn_peer[31]  lookupTimeSig:vector  ETV
vector 7299  Network.dyn_peer[1]  lookupHopsSig:vector  ETV
vector 7300  Network.dyn_peer[1]  lookupStabilitySig:vector  ETV
vector 7301  Network.dyn_peer[1]  lookupTimeSig:vector  ETV
vector 7326  Network.dyn_peer[10]  lookupHopsSig:vector  ETV
vector 7327  Network.dyn_peer[10]  lookupStabilitySig:vector  ETV
vector 7328  Network.dyn_peer[10]  lookupTimeSig:vector  ETV
vector 7356  Network.dyn_peer[20]  lookupHopsSig:vector  ETV
vector 7357  Network.dyn_peer[20]  lookupStabilitySig:vector  ETV
vector 7358  Network.dyn_peer[20]  lookupTimeSig:vector  ETV
vector 7377  Network.dyn_peer[27]  lookupHopsSig:vector  ETV
vector 7378  Network.dyn_peer[27]  lookupStabilitySig:vector  ETV
vector 7379  Network.dyn_peer[27]  lookupTimeSig:vector  ETV
vector 7386  Network.dyn_peer[30]  lookupHopsSig:vector  ETV
vector 7387  Network.dyn_peer[30]  lookupStabilitySig:vector  ETV
vector 7388  Network.dyn_peer[30]  lookupTimeSig:vector  ETV
vector 7317  Network.dyn_peer[7]  lookupHopsSig:vector  ETV
vector 7318  Network.dyn_peer[7]  lookupStabilitySig:vector  ETV
vector 7319  Network.dyn_peer[7]  lookupTimeSig:vector  ETV
vector 7362  Network.dyn_peer[22]  lookupHopsSig:vector  ETV
vector 7363  Network.dyn_peer[22]  lookupStabilitySig:vector  ETV
vector 7364  Network.dyn_peer[22]  lookupTimeSig:vector  ETV
vector 7368  Network.dyn_peer[24]  lookupHopsSig:vector  ETV
vector 7369  Network.dyn_peer[24]  lookupStabilitySig:vector  ETV
vector 7370  Network.dyn_peer[24]  lookupTimeSig:vector  ETV
vector 7380  Network.dyn_peer[28]  lookupHopsSig:vector  ETV
vector 7381  Network.dyn_peer[28]  lookupStabilitySig:vector  ETV
vector 7382  Network.dyn_peer[28]  lookupTimeSig:vector  ETV
vector 7383  Network.dyn_peer[29]  lookupHopsSig:vector  ETV
vector 7384  Network.dyn_peer[29]  lookupStabilitySig:vector  ETV
vector 7385  Network.dyn_peer[29]  lookupTimeSig:vector  ETV
vector 7332  Network.dyn_peer[12]  lookupHopsSig:vector  ETV
vector 7333  Network.dyn_peer[12]  lookupStabilitySig:vector  ETV
vector 7334  Network.dyn_peer[12]  lookupTimeSig:vector  ETV
vector 7359  Network.dyn_peer[21]  lookupHopsSig:vector  ETV
vector 7360  Network.dyn_peer[21]  lookupStabilitySig:vector  ETV
vector 7361  Network.dyn_peer[21]  lookupTimeSig:vector  ETV
7296	202	20.2001	2
7296	579	20.8001	5
7296	1211	21.401104764696	5
7296	1459	21.608832518143	1
7296	2547	22.510098007145	9
7296	3004	22.810098007145	2
7296	3688	23.310649206524	5
7296	4005	23.614277500706	6
7296	4350	23.917161442206	2
7296	4865	24.425684630567	5
7296	5811	25.225684630567	8
7296	5834	25.23095092045	0
7296	6076	25.43095092045	1
7296	6560	25.840186590694	3
7296	6991	26.140386590694	3
7296	8337	27.138886737732	7
7296	9100	27.740117956524	3
7296	9661	28.246610390428	4
7296	9988	28.546645788002	2
7296	10550	28.946845788002	4
7296	11265	29.446845788002	4
7296	11595	29.650528197643	5
7296	11977	29.949616959515	5
7296	12093	30.050951733957	3
7296	12771	30.572293968329	4
7296	12938	30.754005725053	8
7296	12940	30.755544768495	7
7296	13466	31.157396503735	4
7296	13691	31.357396503735	1
7296	14019	31.6611211163	2
7296	14850	32.373152543844	7
7296	15081	32.577015115602	1
7296	15240	32.685431264484	1
7296	15544	32.985431264484	2
7296	15974	33.391758740328	3
7296	16343	33.700345563178	2
7296	17188	34.37470645703	3
7296	18011	34.940643940092	2
7296	18941	35.740643940092	7
7296	19225	35.946165782489	2
7296	20560	37.146165782489	11
7296	21198	37.654493319453	4
7296	22319	38.458610891993	8
7296	22532	38.658610891993	1
7296	24040	39.865706566632	11
7296	24405	40.168302059869	2
7296	24498	40.223973196027	2
7296	24523	40.230845840067	0
7296	24966	40.530845840067	2
7296	25162	40.733252979096	1
7296	26053	41.434850662348	1
7296	26535	41.844485186049	3
7296	29037	43.744685186049	23
7296	29509	44.144685186049	3
7296	29787	44.353938240726	1
7296	30070	44.568336913956	1
7296	30531	44.87237356581	3
7296	32318	46.47237356581	16
7296	32638	46.679278996777	2
7296	33170	47.079278996777	3
7296	33816	47.59746286074	5
7296	34109	47.804392476368	2
7296	34731	48.307141484561	5
7296	35654	49.107141484561	8
7296	36704	50.012939608652	8
7296	37243	50.487093494922	8
7296	37373	50.51777759119	5
7296	37552	50.710548559992	2
7296	37955	51.027382359097	4
7296	38123	51.197271573096	6
7296	38314	51.313698549667	5
7296	38324	51.330021905677	3
7296	39258	52.131621628572	8
7296	40236	53.031621628572	9
7296	41032	53.639603670186	7
7296	41406	53.928257949311	2
7296	41560	54.042793610028	3
7296	41664	54.12311935795	2
7296	41985	54.328343971504	2
7296	43357	55.431482174619	11
7296	44306	56.133104883645	7
7296	44688	56.4375837669	2
7296	44695	56.441255449692	2
7296	44988	56.649610177417	2
7296	45195	56.849610177417	1
7296	45477	57.055764769221	1
7296	46083	57.537508980916	2
7296	46534	57.937508980916	3
7296	46922	58.244072233794	2
7296	46979	58.298109033302	2
7296	46997	58.301462376067	0
7296	47263	58.501462376067	1
7296	48167	59.101926758135	6
7296	48836	59.601926758135	4
7296	50027	60.607722560169	5
7296	51451	61.895122291931	2
7296	51817	62.201736834441	2
7296	52114	62.410857701576	6
7296	52236	62.502458745675	3
7296	52269	62.508987137494	2
7296	52900	62.909187137494	4
7296	53332	63.209187137494	2
7296	53923	63.714678878705	4
7296	54111	63.883642927158	2
7296	54327	64.086446771422	2
7296	55106	64.786446771422	6
7296	55325	64.996066811746	1
7296	55489	65.115627978263	1
7296	55825	65.402973545588	3
7296	55840	65.404944934589	0
7296	56233	65.640284858677	1
7296	56877	66.137236635032	0
7296	57385	66.54564353897	2
7296	57967	67.04564353897	4
7296	58678	67.653217866769	6
7296	59913	68.653217866769	10
7296	60547	69.248293491805	3
7296	61382	69.948293491805	6
7296	61514	70.056978150045	3
7296	62110	70.552200865475	6
7296	62376	70.762037955075	7
7296	62713	71.05326068032	5
7296	62900	71.178157711088	3
7296	62915	71.183204580386	4
7296	63622	71.785016500964	6
7296	64823	72.885016500964	11
7296	65339	73.286100674148	3
7296	65429	73.375187310303	3
7296	66257	73.987019450994	6
7296	68097	75.689383768584	19
7296	68491	75.989383768584	2
7296	68773	76.201996074425	1
7296	69439	76.709544023401	4
7296	69828	77.011078777823	3
7296	69847	77.017615527573	7
7296	70047	77.187165366565	3
7296	70576	77.589201089979	4
7296	70810	77.789201089979	1
7296	71231	78.193766835878	3
7296	71460	78.393966835878	2
7296	71821	78.693966835878	2
7296	72204	78.997151294186	2
7296	72449	79.202884221422	3
7296	72751	79.408637350955	2
7296	72931	79.51224898265	2
7296	73429	79.918897141867	5
7296	74035	80.518897141867	5
7296	74374	80.827347155801	2
7296	75063	81.349008307025	6
7296	75345	81.629840494786	7
7296	75521	81.741563266748	6
7296	75654	81.862838275903	6
7296	76343	82.472409578233	6
7296	76567	82.674254579198	1
7296	76950	83.080167631661	4
7296	77154	83.283857403099	1
7296	77984	83.89055195958	6
7296	78763	84.59055195958	6
7296	79563	85.299214587905	6
7296	79771	85.503719921574	1
7296	79918	85.609444385004	1
7296	80356	86.009444385004	3
7296	80534	86.217079185762	1
7296	81715	87.24951370173	3
7296	81975	87.42528838671	13
7296	82238	87.628242344758	1
7296	82642	87.928442344758	3
7296	83045	88.228442344758	2
7296	83236	88.429208649829	1
7296	83678	88.835409159868	3
7296	84014	89.135644825722	2
7296	84044	89.170323101428	4
7296	84241	89.379518484358	1
7296	84483	89.583635864188	2
7296	84728	89.783635864188	2
7296	85423	90.393138142465	5
7296	85825	90.693138142465	3
7296	86272	91.094171429157	3
7296	87000	91.694780979066	5
7296	87004	91.696143618607	5
7296	87442	92.101096296392	3
7296	87444	92.101700826963	3
7296	88130	92.702911517345	5
7296	88179	92.709130296847	5
7296	88751	93.112621757939	6
7296	89452	93.712621757939	5
7296	89707	93.914768863498	1
7296	89936	94.124432660078	1
7296	89951	94.124632660078	0
7296	90619	94.732260261224	5
7296	91419	95.437857969246	7
7296	92590	96.363726972866	7
7296	93032	96.763726972866	3
7296	93864	97.468443325185	6
7296	94244	97.772013250701	2
7296	94251	97.776437739517	2
7296	94495	97.978157933431	1
7296	94647	98.080929677476	1
7296	95385	98.680929677476	5
7296	95635	98.914949520462	7
7296	95905	99.119691775223	2
7296	96326	99.519691775223	3
7296	96496	99.665322912737	3
7296	96682	99.804878452585	2
7296	96841	99.927879593	4
7296	98844	101.628565925562	18
7296	99424	102.128565925562	4
7296	99914	102.638527990976	4
7296	100370	103.046984385806	3
7296	101125	103.648337759468	5
7296	101498	103.936909118194	1
7296	101551	103.962480092199	7
7296	101770	104.15013395276	1
7296	102107	104.459674600049	3
7296	103063	105.159674600049	6
7296	103531	105.566832274029	3
7296	104526	106.367032274029	8
7296	105029	106.767032274029	3
7296	105439	107.080204425954	2
7296	107210	108.486088575591	15
7296	107776	108.886088575591	4
7296	108144	109.186841055036	2
7296	108607	109.573389429481	0
7296	109111	109.9835916802	3
7296	109378	110.1837916802	2
7296	109848	110.542057534481	1
7296	110672	111.242057534481	6
7296	110785	111.349955623319	1
7296	111910	112.056543048847	7
7296	112428	112.581315980504	3
7296	112510	112.656543048847	6
7296	112641	112.783175407139	1
7296	113168	113.284828199083	5
7296	113526	113.584828199083	2
7296	115001	114.885483082628	13
7296	115193	115.094968373784	1
7296	115696	115.499311883646	3
7296	115834	115.609799271901	3
7296	115960	115.702051944246	1
7296	117014	116.404159995892	8
7296	117268	116.604159995892	1
7296	117700	117.010216376303	3
7296	117889	117.215587772281	1
7296	118249	117.51720016747	3
7296	119090	118.21720016747	6
7296	119694	118.61419322652	3
7296	120232	119.02695609128	8
7296	120480	119.221919815733	6
7296	120804	119.487027665429	3
7296	120828	119.491345907981	0
7296	121079	119.691345907981	1
7296	121793	120.281392947166	3
7296	122923	121.281392947166	10
7296	123437	121.679136960174	2
7296	123561	121.782494177863	5
7296	123853	122.087363285548	3
7296	124399	122.593289752921	5
7296	124504	122.68352987885	8
7296	124512	122.687630782397	8
7296	125246	123.387830782397	7
7296	125810	123.887830782397	4
7296	126015	124.092886275764	1
7296	126346	124.395327845496	2
7296	126655	124.694817032374	4
7296	127003	124.965265420992	1
7296	127666	125.465465420992	6
7296	128057	125.765465420992	2
7296	129000	126.55729041233	5
7296	129289	126.865841228179	11
7296	129654	127.173894352332	3
7296	129983	127.473894352332	3
7296	130654	127.97433331397	5
7296	131498	128.582333709051	6
7296	132449	129.46988676501	4
7296	132732	129.682333709051	11
7296	132961	129.874905226084	3
7296	132964	129.881076627313	3
7296	133159	129.988248554766	2
7296	133376	130.194820286736	1
7296	133445	130.284128004044	3
7296	133451	130.284585029969	3
7296	134258	130.984785029969	8
7296	135147	131.784785029969	10
7296	135592	132.189749885189	3
7296	135756	132.314674819241	3
7296	136118	132.620542986491	2
7296	136411	132.896085472979	6
7297	202	20.2001	0.75
7297	579	20.8001	0.375
7297	1211	21.401104764696	0.375
7297	1459	21.608832518143	0.875
7297	2547	22.510098007145	-0.125
7297	3004	22.810098007145	0.75
7297	3688	23.310649206524	0.375
7297	4005	23.614277500706	0.25
7297	4350	23.917161442206	0.75
7297	4865	24.425684630567	0.375
7297	5811	25.225684630567	0
7297	5834	25.23095092045	1
7297	6076	25.43095092045	0.875
7297	6560	25.840186590694	0.625
7297	6991	26.140386590694	0.625
7297	8337	27.138886737732	0.125
7297	9100	27.740117956524	0.625
7297	9661	28.246610390428	0.55555555224419
7297	9988	28.546645788002	0.75
7297	10550	28.946845788002	0.5
7297	11265	29.446845788002	0.5
7297	11595	29.650528197643	0.375
7297	11977	29.949616959515	0.375
7297	12093	30.050951733957	0.625
7297	12771	30.572293968329	0.5
7297	12938	30.754005725053	0
7297	12940	30.755544768495	0.125
7297	13466	31.157396503735	0.5
7297	13691	31.357396503735	0.875
7297	14019	31.6611211163	0.75
7297	14850	32.373152543844	0.125
7297	15081	32.577015115602	0.875
7297	15240	32.685431264484	0.875
7297	15544	32.985431264484	0.75
7297	15974	33.391758740328	0.625
7297	16343	33.700345563178	0.75
7297	17188	34.37470645703	0.625
7297	18011	34.940643940092	0.75
7297	18941	35.740643940092	0.125
7297	19225	35.946165782489	0.75
7297	20560	37.146165782489	-0.375
7297	21198	37.654493319453	0.5
7297	22319	38.458610891993	0
7297	22532	38.658610891993	0.875
7297	24040	39.865706566632	-0.375
7297	24405	40.168302059869	0.75
7297	24498	40.223973196027	0.75
7297	24523	40.230845840067	1
7297	24966	40.530845840067	0.75
7297	25162	40.733252979096	0.875
7297	26053	41.434850662348	0.875
7297	26535	41.844485186049	0.625
7297	29037	43.744685186049	-1.875
7297	29509	44.144685186049	0.625
7297	29787	44.353938240726	0.875
7297	30070	44.568336913956	0.875
7297	30531	44.87237356581	0.625
7297	32318	46.47237356581	-1
7297	32638	46.679278996777	0.75
7297	33170	47.079278996777	0.625
7297	33816	47.59746286074	0.375
7297	34109	47.804392476368	0.75
7297	34731	48.307141484561	0.375
7297	35654	49.107141484561	0
7297	36704	50.012939608652	0
7297	37243	50.487093494922	0
7297	37373	50.51777759119	0.375
7297	37552	50.710548559992	0.75
7297	37955	51.027382359097	0.5
7297	38123	51.197271573096	0.25
7297	38314	51.313698549667	0.375
7297	38324	51.330021905677	0.625
7297	39258	52.131621628572	0
7297	40236	53.031621628572	-0.125
7297	41032	53.639603670186	0.125
7297	41406	53.928257949311	0.75
7297	41560	54.042793610028	0.625
7297	41664	54.12311935795	0.75
7297	41985	54.328343971504	0.75
7297	43357	55.431482174619	-0.375
7297	44306	56.133104883645	0.125
7297	44688	56.4375837669	0.75
7297	44695	56.441255449692	0.75
7297	44988	56.649610177417	0.75
7297	45195	56.849610177417	0.875
7297	45477	57.055764769221	0.875
7297	46083	57.537508980916	0.75
7297	46534	57.937508980916	0.625
7297	46922	58.244072233794	0.75
7297	46979	58.298109033302	0.75
7297	46997	58.301462376067	1
7297	47263	58.501462376067	0.875
7297	48167	59.101926758135	0.25
7297	48836	59.601926758135	0.5
7297	50027	60.607722560169	0.375
7297	51451	61.895122291931	0.75
7297	51817	62.201736834441	0.75
7297	52114	62.410857701576	0.25
7297	52236	62.502458745675	0.625
7297	52269	62.508987137494	0.75
7297	52900	62.909187137494	0.5
7297	53332	63.209187137494	0.75
7297	53923	63.714678878705	0.5
7297	54111	63.883642927158	0.75
7297	54327	64.086446771422	0.75
7297	55106	64.786446771422	0.25
7297	55325	64.996066811746	0.875
7297	55489	65.115627978263	0.875
7297	55825	65.402973545588	0.625
7297	55840	65.404944934589	1
7297	56233	65.640284858677	0.875
7297	56877	66.137236635032	1
7297	57385	66.54564353897	0.75
7297	57967	67.04564353897	0.5
7297	58678	67.653217866769	0.25
7297	59913	68.653217866769	-0.25
7297	60547	69.248293491805	0.66666665673256
7297	61382	69.948293491805	0.25
7297	61514	70.056978150045	0.625
7297	62110	70.552200865475	0.25
7297	62376	70.762037955075	0.125
7297	62713	71.05326068032	0.375
7297	62900	71.178157711088	0.625
7297	62915	71.183204580386	0.5
7297	63622	71.785016500964	0.25
7297	64823	72.885016500964	-0.375
7297	65339	73.286100674148	0.625
7297	65429	73.375187310303	0.625
7297	66257	73.987019450994	0.25
7297	68097	75.689383768584	-1.375
7297	68491	75.989383768584	0.75
7297	68773	76.201996074425	0.875
7297	69439	76.709544023401	0.5
7297	69828	77.011078777823	0.625
7297	69847	77.017615527573	0.125
7297	70047	77.187165366565	0.625
7297	70576	77.589201089979	0.5
7297	70810	77.789201089979	0.875
7297	71231	78.193766835878	0.625
7297	71460	78.393966835878	0.75
7297	71821	78.693966835878	0.75
7297	72204	78.997151294186	0.75
7297	72449	79.202884221422	0.625
7297	72751	79.408637350955	0.75
7297	72931	79.51224898265	0.75
7297	73429	79.918897141867	0.375
7297	74035	80.518897141867	0.375
7297	74374	80.827347155801	0.75
7297	75063	81.349008307025	0.25
7297	75345	81.629840494786	0.125
7297	75521	81.741563266748	0.25
7297	75654	81.862838275903	0.25
7297	76343	82.472409578233	0.25
7297	76567	82.674254579198	0.875
7297	76950	83.080167631661	0.5
7297	77154	83.283857403099	0.875
7297	77984	83.89055195958	0.25
7297	78763	84.59055195958	0.25
7297	79563	85.299214587905	0.25
7297	79771	85.503719921574	0.875
7297	79918	85.609444385004	0.875
7297	80356	86.009444385004	0.625
7297	80534	86.217079185762	0.875
7297	81715	87.24951370173	0.625
7297	81975	87.42528838671	-0.625
7297	82238	87.628242344758	0.875
7297	82642	87.928442344758	0.625
7297	83045	88.228442344758	0.75
7297	83236	88.429208649829	0.875
7297	83678	88.835409159868	0.625
7297	84014	89.135644825722	0.75
7297	84044	89.170323101428	0.5
7297	84241	89.379518484358	0.875
7297	84483	89.583635864188	0.75
7297	84728	89.783635864188	0.75
7297	85423	90.393138142465	0.375
7297	85825	90.693138142465	0.625
7297	86272	91.094171429157	0.625
7297	87000	91.694780979066	0.375
7297	87004	91.696143618607	0.375
7297	87442	92.101096296392	0.625
7297	87444	92.101700826963	0.625
7297	88130	92.702911517345	0.375
7297	88179	92.709130296847	0.375
7297	88751	93.112621757939	0.25
7297	89452	93.712621757939	0.375
7297	89707	93.914768863498	0.875
7297	89936	94.124432660078	0.875
7297	89951	94.124632660078	1
7297	90619	94.732260261224	0.375
7297	91419	95.437857969246	0.125
7297	92590	96.363726972866	0.125
7297	93032	96.763726972866	0.625
7297	93864	97.468443325185	0.25
7297	94244	97.772013250701	0.75
7297	94251	97.776437739517	0.75
7297	94495	97.978157933431	0.875
7297	94647	98.080929677476	0.875
7297	95385	98.680929677476	0.375
7297	95635	98.914949520462	0.125
7297	95905	99.119691775223	0.75
7297	96326	99.519691775223	0.66666665673256
7297	96496	99.665322912737	0.625
7297	96682	99.804878452585	0.75
7297	96841	99.927879593	0.5
7297	98844	101.628565925562	-1.25
7297	99424	102.128565925562	0.5
7297	99914	102.638527990976	0.5
7297	100370	103.046984385806	0.625
7297	101125	103.648337759468	0.375
7297	101498	103.936909118194	0.875
7297	101551	103.962480092199	0.125
7297	101770	104.15013395276	0.875
7297	102107	104.459674600049	0.625
7297	103063	105.159674600049	0.25
7297	103531	105.566832274029	0.625
7297	104526	106.367032274029	0
7297	105029	106.767032274029	0.625
7297	105439	107.080204425954	0.75
7297	107210	108.486088575591	-0.875
7297	107776	108.886088575591	0.5
7297	108144	109.186841055036	0.75
7297	108607	109.573389429481	1
7297	109111	109.9835916802	0.625
7297	109378	110.1837916802	0.75
7297	109848	110.542057534481	0.875
7297	110672	111.242057534481	0.25
7297	110785	111.349955623319	0.875
7297	111910	112.056543048847	0.125
7297	112428	112.581315980504	0.625
7297	112510	112.656543048847	0.25
7297	112641	112.783175407139	0.875
7297	113168	113.284828199083	0.375
7297	113526	113.584828199083	0.75
7297	115001	114.885483082628	-0.625
7297	115193	115.094968373784	0.875
7297	115696	115.499311883646	0.625
7297	115834	115.609799271901	0.625
7297	115960	115.702051944246	0.875
7297	117014	116.404159995892	0
7297	117268	116.604159995892	0.875
7297	117700	117.010216376303	0.625
7297	117889	117.215587772281	0.875
7297	118249	117.51720016747	0.625
7297	119090	118.21720016747	0.25
7297	119694	118.61419322652	0.625
7297	120232	119.02695609128	0
7297	120480	119.221919815733	0.25
7297	120804	119.487027665429	0.625
7297	120828	119.491345907981	1
7297	121079	119.691345907981	0.875
7297	121793	120.281392947166	0.625
7297	122923	121.281392947166	-0.25
7297	123437	121.679136960174	0.75
7297	123561	121.782494177863	0.375
7297	123853	122.087363285548	0.625
7297	124399	122.593289752921	0.375
7297	124504	122.68352987885	0
7297	124512	122.687630782397	0
7297	125246	123.387830782397	0.125
7297	125810	123.887830782397	0.5
7297	126015	124.092886275764	0.875
7297	126346	124.395327845496	0.75
7297	126655	124.694817032374	0.5
7297	127003	124.965265420992	0.875
7297	127666	125.465465420992	0.25
7297	128057	125.765465420992	0.75
7297	129000	126.55729041233	0.375
7297	129289	126.865841228179	-0.375
7297	129654	127.173894352332	0.625
7297	129983	127.473894352332	0.625
7297	130654	127.97433331397	0.375
7297	131498	128.582333709051	0.25
7297	132449	129.46988676501	0.5
7297	132732	129.682333709051	-0.375
7297	132961	129.874905226084	0.625
7297	132964	129.881076627313	0.625
7297	133159	129.988248554766	0.75
7297	133376	130.194820286736	0.875
7297	133445	130.284128004044	0.625
7297	133451	130.284585029969	0.625
7297	134258	130.984785029969	0
7297	135147	131.784785029969	-0.25
7297	135592	132.189749885189	0.625
7297	135756	132.314674819241	0.625
7297	136118	132.620542986491	0.75
7297	136411	132.896085472979	0.25
7298	202	20.2001	0.2
7298	579	20.8001	0.6
7298	1211	21.401104764696	0.6
7298	1459	21.608832518143	0.2
7298	2547	22.510098007145	0.9
7298	3004	22.810098007145	0.3
7298	3688	23.310649206524	0.5
7298	4005	23.614277500706	0.7
7298	4350	23.917161442206	0.3
7298	4865	24.425684630567	0.5
7298	5811	25.225684630567	0.8
7298	5834	25.23095092045	0
7298	6076	25.43095092045	0.2
7298	6560	25.840186590694	0.4
7298	6991	26.140386590694	0.3
7298	8337	27.138886737732	0.6
7298	9100	27.740117956524	0.3
7298	9661	28.246610390428	0.5
7298	9988	28.546645788002	0.3
7298	10550	28.946845788002	0.4
7298	11265	29.446845788002	0.5
7298	11595	29.650528197643	0.5
7298	11977	29.949616959515	0.5
7298	12093	30.050951733957	0.4
7298	12771	30.572293968329	0.5
7298	12938	30.754005725053	0.7
7298	12940	30.755544768495	0.8
7298	13466	31.157396503735	0.4
7298	13691	31.357396503735	0.2
7298	14019	31.6611211163	0.3
7298	14850	32.373152543844	0.7
7298	15081	32.577015115602	0.2
7298	15240	32.685431264484	0.1
7298	15544	32.985431264484	0.3
7298	15974	33.391758740328	0.4
7298	16343	33.700345563178	0.3
7298	17188	34.37470645703	0.4
7298	18011	34.940643940092	0.2
7298	18941	35.740643940092	0.8
7298	19225	35.946165782489	0.2
7298	20560	37.146165782489	1.2
7298	21198	37.654493319453	0.5
7298	22319	38.458610891993	0.8
7298	22532	38.658610891993	0.2
7298	24040	39.865706566632	1.2
7298	24405	40.168302059869	0.3
7298	24498	40.223973196027	0.2
7298	24523	40.230845840067	0
7298	24966	40.530845840067	0.3
7298	25162	40.733252979096	0.2
7298	26053	41.434850662348	0.1
7298	26535	41.844485186049	0.4
7298	29037	43.744685186049	1.9
7298	29509	44.144685186049	0.4
7298	29787	44.353938240726	0.2
7298	30070	44.568336913956	0.2
7298	30531	44.87237356581	0.3
7298	32318	46.47237356581	1.6
7298	32638	46.679278996777	0.2
7298	33170	47.079278996777	0.4
7298	33816	47.59746286074	0.5
7298	34109	47.804392476368	0.2
7298	34731	48.307141484561	0.5
7298	35654	49.107141484561	0.8
7298	36704	50.012939608652	0.9
7298	37243	50.487093494922	0.9
7298	37373	50.51777759119	0.5
7298	37552	50.710548559992	0.3
7298	37955	51.027382359097	0.5
7298	38123	51.197271573096	0.7
7298	38314	51.313698549667	0.6
7298	38324	51.330021905677	0.3
7298	39258	52.131621628572	0.8
7298	40236	53.031621628572	0.9
7298	41032	53.639603670186	0.6
7298	41406	53.928257949311	0.3
7298	41560	54.042793610028	0.4
7298	41664	54.12311935795	0.3
7298	41985	54.328343971504	0.2
7298	43357	55.431482174619	1.1
7298	44306	56.133104883645	0.7
7298	44688	56.4375837669	0.3
7298	44695	56.441255449692	0.3
7298	44988	56.649610177417	0.2
7298	45195	56.849610177417	0.2
7298	45477	57.055764769221	0.2
7298	46083	57.537508980916	0.2
7298	46534	57.937508980916	0.4
7298	46922	58.244072233794	0.3
7298	46979	58.298109033302	0.3
7298	46997	58.301462376067	0
7298	47263	58.501462376067	0.2
7298	48167	59.101926758135	0.6
7298	48836	59.601926758135	0.5
7298	50027	60.607722560169	0.4
7298	51451	61.895122291931	0.3
7298	51817	62.201736834441	0.3
7298	52114	62.410857701576	0.7
7298	52236	62.502458745675	0.4
7298	52269	62.508987137494	0.3
7298	52900	62.909187137494	0.4
7298	53332	63.209187137494	0.3
7298	53923	63.714678878705	0.5
7298	54111	63.883642927158	0.3
7298	54327	64.086446771422	0.2
7298	55106	64.786446771422	0.7
7298	55325	64.996066811746	0.2
7298	55489	65.115627978263	0.2
7298	55825	65.402973545588	0.4
7298	55840	65.404944934589	0
7298	56233	65.640284858677	0.1
7298	56877	66.137236635032	0
7298	57385	66.54564353897	0.2
7298	57967	67.04564353897	0.5
7298	58678	67.653217866769	0.6
7298	59913	68.653217866769	1
7298	60547	69.248293491805	0.3
7298	61382	69.948293491805	0.7
7298	61514	70.056978150045	0.4
7298	62110	70.552200865475	0.6
7298	62376	70.762037955075	0.7
7298	62713	71.05326068032	0.5
7298	62900	71.178157711088	0.3
7298	62915	71.183204580386	0.5
7298	63622	71.785016500964	0.6
7298	64823	72.885016500964	1.1
7298	65339	73.286100674148	0.4
7298	65429	73.375187310303	0.4
7298	66257	73.987019450994	0.7
7298	68097	75.689383768584	1.7
7298	68491	75.989383768584	0.3
7298	68773	76.201996074425	0.2
7298	69439	76.709544023401	0.5
7298	69828	77.011078777823	0.3
7298	69847	77.017615527573	0.6
7298	70047	77.187165366565	0.4
7298	70576	77.589201089979	0.4
7298	70810	77.789201089979	0.2
7298	71231	78.193766835878	0.4
7298	71460	78.393966835878	0.2
7298	71821	78.693966835878	0.3
7298	72204	78.997151294186	0.3
7298	72449	79.202884221422	0.4
7298	72751	79.408637350955	0.2
7298	72931	79.51224898265	0.3
7298	73429	79.918897141867	0.4
7298	74035	80.518897141867	0.6
7298	74374	80.827347155801	0.3
7298	75063	81.349008307025	0.6
7298	75345	81.629840494786	0.8
7298	75521	81.741563266748	0.7
7298	75654	81.862838275903	0.5
7298	76343	82.472409578233	0.6
7298	76567	82.674254579198	0.2
7298	76950	83.080167631661	0.4
7298	77154	83.283857403099	0.2
7298	77984	83.89055195958	0.6
7298	78763	84.59055195958	0.7
7298	79563	85.299214587905	0.7
7298	79771	85.503719921574	0.2
7298	79918	85.609444385004	0.1
7298	80356	86.009444385004	0.4
7298	80534	86.217079185762	0.2
7298	81715	87.24951370173	0.4
7298	81975	87.42528838671	1.2
7298	82238	87.628242344758	0.2
7298	82642	87.928442344758	0.3
7298	83045	88.228442344758	0.3
7298	83236	88.429208649829	0.2
7298	83678	88.835409159868	0.4
7298	84014	89.135644825722	0.3
7298	84044	89.170323101428	0.5
7298	84241	89.379518484358	0.2
7298	84483	89.583635864188	0.2
7298	84728	89.783635864188	0.2
7298	85423	90.393138142465	0.5
7298	85825	90.693138142465	0.3
7298	86272	91.094171429157	0.4
7298	87000	91.694780979066	0.6
7298	87004	91.696143618607	0.6
7298	87442	92.101096296392	0.4
7298	87444	92.101700826963	0.4
7298	88130	92.702911517345	0.6
7298	88179	92.709130296847	0.6
7298	88751	93.112621757939	0.4
7298	89452	93.712621757939	0.6
7298	89707	93.914768863498	0.2
7298	89936	94.124432660078	0.2