version 2
run Stability-norelink-57-20130525-23:17:47-22103
attr configname Stability-norelink
attr datetime 20130525-23:17:47
attr experiment Stability
attr inifile omnetpp.ini
attr iterationvars $0=1e1
attr iterationvars2 "$0=1e1, $repetition=7"
attr measurement $0=1e1
attr network Network
attr processid 22103
attr repetition 7
attr replication #7
attr resultdir results
attr runnumber 57
attr seedset 57

vector 5472  Network.dyn_peer[0]  lookupHopsSig:vector  ETV
vector 5473  Network.dyn_peer[0]  lookupStabilitySig:vector  ETV
vector 5474  Network.dyn_peer[0]  lookupTimeSig:vector  ETV
vector 5481  Network.dyn_peer[3]  lookupHopsSig:vector  ETV
vector 5482  Network.dyn_peer[3]  lookupStabilitySig:vector  ETV
vector 5483  Network.dyn_peer[3]  lookupTimeSig:vector  ETV
vector 5475  Network.dyn_peer[1]  lookupHopsSig:vector  ETV
vector 5476  Network.dyn_peer[1]  lookupStabilitySig:vector  ETV
vector 5477  Network.dyn_peer[1]  lookupTimeSig:vector  ETV
vector 5484  Network.dyn_peer[4]  lookupHopsSig:vector  ETV
vector 5485  Network.dyn_peer[4]  lookupStabilitySig:vector  ETV
vector 5486  Network.dyn_peer[4]  lookupTimeSig:vector  ETV
vector 5487  Network.dyn_peer[5]  lookupHopsSig:vector  ETV
vector 5488  Network.dyn_peer[5]  lookupStabilitySig:vector  ETV
vector 5489  Network.dyn_peer[5]  lookupTimeSig:vector  ETV
vector 5490  Network.dyn_peer[6]  lookupHopsSig:vector  ETV
vector 5491  Network.dyn_peer[6]  lookupStabilitySig:vector  ETV
vector 5492  Network.dyn_peer[6]  lookupTimeSig:vector  ETV
vector 5499  Network.dyn_peer[9]  lookupHopsSig:vector  ETV
vector 5500  Network.dyn_peer[9]  lookupStabilitySig:vector  ETV
vector 5501  Network.dyn_peer[9]  lookupTimeSig:vector  ETV
vector 5505  Network.dyn_peer[11]  lookupHopsSig:vector  ETV
vector 5506  Network.dyn_peer[11]  lookupStabilitySig:vector  ETV
vector 5507  Network.dyn_peer[11]  lookupTimeSig:vector  ETV
vector 5478  Network.dyn_peer[2]  lookupHopsSig:vector  ETV
vector 5479  Network.dyn_peer[2]  lookupStabilitySig:vector  ETV
vector 5480  Network.dyn_peer[2]  lookupTimeSig:vector  ETV
vector 5511  Network.dyn_peer[13]  lookupHopsSig:vector  ETV
vector 5512  Network.dyn_peer[13]  lookupStabilitySig:vector  ETV
vector 5513  Network.dyn_peer[13]  lookupTimeSig:vector  ETV
vector 5517  Network.dyn_peer[15]  lookupHopsSig:vector  ETV
vector 5518  Network.dyn_peer[15]  lookupStabilitySig:vector  ETV
vector 5519  Network.dyn_peer[15]  lookupTimeSig:vector  ETV
vector 5493  Network.dyn_peer[7]  lookupHopsSig:vector  ETV
vector 5494  Network.dyn_peer[7]  lookupStabilitySig:vector  ETV
vector 5495  Network.dyn_peer[7]  lookupTimeSig:vector  ETV
vector 5523  Network.dyn_peer[17]  lookupHopsSig:vector  ETV
vector 5524  Network.dyn_peer[17]  lookupStabilitySig:vector  ETV
vector 5525  Network.dyn_peer[17]  lookupTimeSig:vector  ETV
vector 5496  Network.dyn_peer[8]  lookupHopsSig:vector  ETV
vector 5497  Network.dyn_peer[8]  lookupStabilitySig:vector  ETV
vector 5498  Network.dyn_peer[8]  lookupTimeSig:vector  ETV
vector 5529  Network.dyn_peer[19]  lookupHopsSig:vector  ETV
vector 5530  Network.dyn_peer[19]  lookupStabilitySig:vector  ETV
vector 5531  Network.dyn_peer[19]  lookupTimeSig:vector  ETV
vector 5559  Network.dyn_peer[29]  lookupHopsSig:vector  ETV
vector 5560  Network.dyn_peer[29]  lookupStabilitySig:vector  ETV
vector 5561  Network.dyn_peer[29]  lookupTimeSig:vector  ETV
vector 5502  Network.dyn_peer[10]  lookupHopsSig:vector  ETV
vector 5503  Network.dyn_peer[10]  lookupStabilitySig:vector  ETV
vector 5504  Network.dyn_peer[10]  lookupTimeSig:vector  ETV
vector 5532  Network.dyn_peer[20]  lookupHopsSig:vector  ETV
vector 5533  Network.dyn_peer[20]  lookupStabilitySig:vector  ETV
vector 5534  Network.dyn_peer[20]  lookupTimeSig:vector  ETV
vector 5508  Network.dyn_peer[12]  lookupHopsSig:vector  ETV
vector 5509  Network.dyn_peer[12]  lookupStabilitySig:vector  ETV
vector 5510  Network.dyn_peer[12]  lookupTimeSig:vector  ETV
vector 5520  Network.dyn_peer[16]  lookupHopsSig:vector  ETV
vector 5521  Network.dyn_peer[16]  lookupStabilitySig:vector  ETV
vector 5522  Network.dyn_peer[16]  lookupTimeSig:vector  ETV
vector 5556  Network.dyn_peer[28]  lookupHopsSig:vector  ETV
vector 5557  Network.dyn_peer[28]  lookupStabilitySig:vector  ETV
vector 5558  Network.dyn_peer[28]  lookupTimeSig:vector  ETV
vector 5538  Network.dyn_peer[22]  lookupHopsSig:vector  ETV
vector 5539  Network.dyn_peer[22]  lookupStabilitySig:vector  ETV
vector 5540  Network.dyn_peer[22]  lookupTimeSig:vector  ETV
vector 5541  Network.dyn_peer[23]  lookupHopsSig:vector  ETV
vector 5542  Network.dyn_peer[23]  lookupStabilitySig:vector  ETV
vector 5543  Network.dyn_peer[23]  lookupTimeSig:vector  ETV
vector 5514  Network.dyn_peer[14]  lookupHopsSig:vector  ETV
vector 5515  Network.dyn_peer[14]  lookupStabilitySig:vector  ETV
vector 5516  Network.dyn_peer[14]  lookupTimeSig:vector  ETV
vector 5544  Network.dyn_peer[24]  lookupHopsSig:vector  ETV
vector 5545  Network.dyn_peer[24]  lookupStabilitySig:vector  ETV
vector 5546  Network.dyn_peer[24]  lookupTimeSig:vector  ETV
vector 5547  Network.dyn_peer[25]  lookupHopsSig:vector  ETV
vector 5548  Network.dyn_peer[25]  lookupStabilitySig:vector  ETV
vector 5549  Network.dyn_peer[25]  lookupTimeSig:vector  ETV
vector 5553  Network.dyn_peer[27]  lookupHopsSig:vector  ETV
vector 5554  Network.dyn_peer[27]  lookupStabilitySig:vector  ETV
vector 5555  Network.dyn_peer[27]  lookupTimeSig:vector  ETV
vector 5535  Network.dyn_peer[21]  lookupHopsSig:vector  ETV
vector 5536  Network.dyn_peer[21]  lookupStabilitySig:vector  ETV
vector 5537  Network.dyn_peer[21]  lookupTimeSig:vector  ETV
vector 5550  Network.dyn_peer[26]  lookupHopsSig:vector  ETV
vector 5551  Network.dyn_peer[26]  lookupStabilitySig:vector  ETV
vector 5552  Network.dyn_peer[26]  lookupTimeSig:vector  ETV
vector 5562  Network.dyn_peer[30]  lookupHopsSig:vector  ETV
vector 5563  Network.dyn_peer[30]  lookupStabilitySig:vector  ETV
vector 5564  Network.dyn_peer[30]  lookupTimeSig:vector  ETV
vector 5565  Network.dyn_peer[31]  lookupHopsSig:vector  ETV
vector 5566  Network.dyn_peer[31]  lookupStabilitySig:vector  ETV
vector 5567  Network.dyn_peer[31]  lookupTimeSig:vector  ETV
vector 5526  Network.dyn_peer[18]  lookupHopsSig:vector  ETV
vector 5527  Network.dyn_peer[18]  lookupStabilitySig:vector  ETV
vector 5528  Network.dyn_peer[18]  lookupTimeSig:vector  ETV
5472	29	20.01	0
5472	124	20.21	1
5472	410	20.6156562001	3
5472	661	21.022339211636	3
5472	686	21.033715461919	0
5472	1211	21.633715461919	5
5472	1799	22.139110977622	4
5472	2142	22.439177751557	2
5472	3530	23.462002748966	11
5472	4186	23.964399665738	4
5472	4524	24.234053884653	3
5472	4573	24.275624354296	2
5472	5421	24.987900317521	7
5472	6038	25.487900317521	4
5472	6952	26.391617839571	8
5472	7547	26.973608209246	9
5472	7586	27.00067049238	6
5472	7893	27.27491220436	2
5472	7900	27.277661526332	4
5472	7926	27.30231057857	2
5472	8072	27.434152287545	2
5472	8532	27.703805870254	2
5472	8681	27.807896220453	4
5472	9984	28.822467953066	11
5472	10224	29.022467953066	1
5472	10891	29.626789474989	5
5472	11438	30.136889474989	5
5472	12146	30.734304308043	1
5472	12362	30.934304308043	1
5472	13568	31.834540288368	9
5472	13789	32.038295000223	5
5472	13919	32.139781275732	2
5472	15036	33.049896000326	10
5472	15369	33.349896000326	2
5472	15859	33.753854317269	3
5472	16761	34.463954317269	7
5472	17065	34.763954317269	2
5472	17463	35.072580200449	2
5472	17771	35.379508168853	2
5472	19079	36.50986726362	12
5472	19637	37.00986726362	4
5472	20033	37.319687371668	2
5472	20277	37.508306578407	2
5472	20398	37.621279569016	2
5472	20640	37.823403830106	1
5472	21041	38.210771587046	6
5472	21375	38.526724056043	3
5472	22921	39.797838891697	8
5472	23699	40.497838891697	6
5472	24236	40.908824032972	4
5472	24444	41.114013389598	1
5472	24796	41.421549112342	2
5472	25226	41.830938024205	3
5472	25549	42.049576296644	2
5472	25911	42.349576296644	2
5472	25950	42.370928339611	1
5472	26343	42.682741970617	3
5472	26543	42.882741970617	1
5472	26997	43.391323855937	4
5472	27293	43.699946616909	2
5472	27636	44.003651602005	2
5472	28214	44.605058460181	5
5472	28450	44.819111684596	3
5472	29762	45.897122869584	6
5472	31173	47.197122869584	13
5472	32088	48.10805910674	8
5472	32173	48.162458165123	5
5472	32555	48.463978459504	2
5472	33382	48.976691727525	5
5472	34077	49.476691727525	4
5472	34519	49.885065825086	4
5472	34632	49.991621272245	4
5472	34962	50.306282854876	3
5472	35202	50.506282854876	1
5472	35684	50.909738398177	3
5472	35955	51.113890857565	1
5472	36198	51.315121114483	1
5472	36357	51.484289891842	3
5472	36497	51.597784296306	2
5472	36719	51.822912518981	4
5472	36968	52.041424379267	3
5472	37550	52.541424379267	5
5472	37798	52.757501661813	1
5472	37880	52.871973899677	4
5472	38756	53.590685369818	8
5472	39667	54.390685369818	7
5472	39960	54.598572754779	2
5472	40311	54.9071298149	2
5472	40516	55.116683304228	1
5472	40774	55.330923178649	2
5472	42086	56.430923178649	12
5472	42655	56.869989878233	6
5472	42799	57.040863979974	6
5472	43269	57.371059555758	4
5472	43687	57.680015870376	2
5472	44270	58.098193339003	7
5472	44487	58.298193339003	1
5472	44653	58.401797807196	1
5472	45064	58.726333312242	3
5472	45607	59.126333312242	3
5472	45816	59.308678132914	3
5472	45930	59.433816399689	3
5472	46284	59.745363362993	4
5472	47628	60.850607030474	2
5472	47851	61.045363362993	12
5472	48296	61.361054575917	4
5472	48781	61.775496388972	4
5472	49497	62.375496388972	5
5472	49900	62.677232347522	3
5472	50958	63.394085452787	7
5472	51222	63.594085452787	1
5472	52613	64.794636188694	12
5472	53170	65.197686861855	3
5472	53592	65.517202805787	4
5472	54604	66.317202805787	8
5472	55091	66.722887372324	3
5472	55976	67.524648770367	7
5472	56004	67.559838144946	7
5472	56703	68.178275351735	7
5472	57491	68.758404624546	4
5472	58827	69.865531102833	12
5472	60190	71.073741346518	12
5472	60794	71.586477429749	4
5472	61216	72.051976522464	10
5472	62061	72.862076522464	8
5472	62446	73.162076522464	2
5472	62915	73.549012378423	3
5472	62930	73.557648290871	3
5472	63571	73.969622391741	5
5472	64122	74.469622391741	5
5472	64446	74.681213609486	1
5472	64840	74.986561578941	2
5472	65339	75.396661578941	5
5472	65712	75.795324555157	1
5472	65991	76.005424555157	2
5472	66848	76.762116851931	4
5472	67832	77.472216851931	7
5472	69270	78.472216851931	9
5472	69903	78.975009924623	4
5472	70215	79.283372812986	2
5472	70667	79.697023059045	5
5472	70885	79.892540991781	6
5472	70896	79.900467260816	1
5472	70932	79.93124715293	8
5472	71626	80.446457068222	6
5472	71851	80.646457068222	1
5472	72580	81.25567220571	5
5472	73131	81.627403455592	4
5472	73428	81.845240438002	2
5472	74741	82.945240438002	11
5472	75146	83.246764310879	2
5472	75722	83.74689062741	4
5472	75785	83.823823810306	4
5472	76531	84.440455233049	6
5472	77279	84.940455233049	4
5472	77667	85.249363313796	2
5472	77940	85.452987673949	1
5472	77976	85.49782025293	1
5472	78430	85.913889495288	4
5472	78746	86.213889495288	2
5472	78999	86.429255661661	2
5472	79578	86.929255661661	4
5472	79793	87.136621538828	1
5472	80274	87.543674423316	3
5472	80622	87.849056543806	2
5472	81089	88.259156543806	4
5472	81474	88.559156543806	2
5472	81814	88.863582567507	2
5472	82644	89.580609699813	8
5472	83302	90.128466688347	1
5472	83594	90.345374528851	2
5472	83854	90.545374528851	1
5472	84014	90.706575141705	1
5472	84503	91.116675141705	4
5472	84760	91.316675141705	2
5472	85390	91.820965440105	4
5472	85814	92.1151162594	2
5472	85860	92.128350133445	3
5472	86781	92.941773128237	9
5472	87106	93.241773128237	2
5472	87294	93.443298665326	1
5472	87364	93.483900521745	2
5472	87410	93.505933943523	0
5472	88560	94.505933943523	10
5472	88900	94.844870514031	8
5472	89309	95.208959913607	7
5472	89447	95.319059913607	1
5472	89771	95.619059913607	2
5472	90516	96.220499151092	5
5472	90663	96.32073138605	0
5472	91166	96.727499881895	4
5472	91749	97.218922565376	4
5472	91978	97.42960548643	7
5472	92096	97.545342913455	11
5472	92338	97.762057620407	2
5472	93926	99.070394101974	9
5472	94059	99.170394101974	1
5472	94212	99.277929986778	1
5472	95064	99.992423193035	8
5472	96252	101.095257622836	11
5472	96710	101.501282376617	3
5472	96853	101.60279607407	0
5472	97425	102.008233191383	3
5472	97960	102.517732953438	4
5472	98498	103.020168145717	4
5472	98515	103.036238670891	11
5472	98784	103.220782122468	1
5472	98952	103.341690841207	2
5472	98977	103.35723547779	2
5472	99564	103.769249188867	4
5472	100040	104.069249188867	3
5472	100645	104.537728233462	3
5472	100674	104.570269692113	4
5472	100936	104.838259739716	2
5472	101013	104.870934739804	0
5472	101487	105.270934739804	4
5472	102025	105.678463182302	4
5472	102055	105.710827998461	3
5472	102604	106.081256648198	4
5472	102634	106.118433346273	4
5472	103052	106.424192864936	2
5472	103574	106.838780093364	6
5472	104282	107.438780093364	5
5472	104555	107.648764625076	1
5472	105004	108.049071923464	3
5472	106699	109.356040131994	13
5472	106737	109.422618220018	7
5472	107349	109.924377030751	4
5472	107358	109.931945684885	4
5472	107568	110.062473069054	6
5472	107985	110.37838007771	3
5472	108253	110.588302928642	2
5472	108502	110.790350746453	1
5472	108810	111.056169497428	4
5472	109217	111.366269497428	3
5472	109462	111.566269497428	1
5472	110794	112.673615542265	3
5472	111893	113.573615542265	9
5472	113486	114.954401475917	10
5472	114314	115.654401475917	7
5472	114756	116.055270010739	3
5472	114978	116.262317651816	1
5472	115199	116.467630865628	1
5472	115226	116.478625931067	0
5472	115512	116.678625931067	1
5472	115820	116.926625881477	2
5472	116460	117.549888591821	7
5472	116634	117.749888591821	1
5472	117376	118.393515452432	4
5472	117491	118.494889536121	1
5472	117557	118.568090626155	6
5472	118488	119.2830935365	7
5472	118745	119.4830935365	1
5472	119010	119.687226278767	1
5472	119182	119.802576753498	2
5472	119699	120.202576753498	3
5472	119831	120.318046360188	1
5472	120692	121.079826789147	5
5472	121127	121.418046360188	11
5472	121356	121.618951842519	1
5472	121435	121.683320310935	5
5472	122675	122.597349019022	11
5472	123507	123.339510384376	3
5472	123667	123.497349019022	9
5472	123898	123.707449019022	2
5472	124577	124.207449019022	4
5472	125083	124.617549019022	4
5472	126438	125.717549019022	12
5472	127065	126.126064523283	3
5472	127286	126.329507498991	1
5472	127451	126.485732151648	1
5472	128091	127.005185795592	5
5472	128546	127.405185795592	3
5472	128720	127.520637925283	1
5472	128938	127.720637925283	1
5472	129173	127.928650399662	1
5472	129774	128.443911166412	5
5472	130139	128.751905798248	2
5472	130673	129.225274449452	2
5472	130966	129.532065860659	2
5472	131311	129.834308673697	2
5472	131535	130.040177994807	1
5472	131714	130.158277401165	0
5472	131716	130.158287864292	15
5472	131858	130.27737206262	7
5472	131875	130.284832767965	2
5472	132348	130.597052200885	3
5472	132760	130.90004390295	2
5472	133544	131.61014390295	7
5472	133841	131.91014390295	2
5472	134301	132.415660479533	5
5472	134549	132.632751962668	8
5472	134623	132.719911076178	3
5472	134636	132.725820864421	3
5472	134737	132.837874670109	1
5473	29	20.01	1
5473	124	20.21	0.875
5473	410	20.6156562001	0.625
5473	661	21.022339211636	0.625
5473	686	21.033715461919	1
5473	1211	21.633715461919	0.375
5473	1799	22.139110977622	0.5
5473	2142	22.439177751557	0.75
5473	3530	23.462002748966	-0.375
5473	4186	23.964399665738	0.5
5473	4524	24.234053884653	0.625
5473	4573	24.275624354296	0.75
5473	5421	24.987900317521	0.125
5473	6038	25.487900317521	0.5
5473	6952	26.391617839571	0
5473	7547	26.973608209246	-0.125
5473	7586	27.00067049238	0.25
5473	7893	27.27491220436	0.75
5473	7900	27.277661526332	0.5
5473	7926	27.30231057857	0.75
5473	8072	27.434152287545	0.75
5473	8532	27.703805870254	0.75
5473	8681	27.807896220453	0.5
5473	9984	28.822467953066	-0.375
5473	10224	29.022467953066	0.875
5473	10891	29.626789474989	0.375
5473	11438	30.136889474989	0.375
5473	12146	30.734304308043	0.875
5473	12362	30.934304308043	0.875
5473	13568	31.834540288368	-0.125
5473	13789	32.038295000223	0.375
5473	13919	32.139781275732	0.75
5473	15036	33.049896000326	-0.25
5473	15369	33.349896000326	0.75
5473	15859	33.753854317269	0.625
5473	16761	34.463954317269	0.125
5473	17065	34.763954317269	0.75
5473	17463	35.072580200449	0.75
5473	17771	35.379508168853	0.75
5473	19079	36.50986726362	-0.5
5473	19637	37.00986726362	0.5
5473	20033	37.319687371668	0.75
5473	20277	37.508306578407	0.75
5473	20398	37.621279569016	0.75
5473	20640	37.823403830106	0.875
5473	21041	38.210771587046	0.25
5473	21375	38.526724056043	0.625
5473	22921	39.797838891697	0
5473	23699	40.497838891697	0.25
5473	24236	40.908824032972	0.5
5473	24444	41.114013389598	0.875
5473	24796	41.421549112342	0.75
5473	25226	41.830938024205	0.625
5473	25549	42.049576296644	0.75
5473	25911	42.349576296644	0.75
5473	25950	42.370928339611	0.875
5473	26343	42.682741970617	0.625
5473	26543	42.882741970617	0.875
5473	26997	43.391323855937	0.5
5473	27293	43.699946616909	0.75
5473	27636	44.003651602005	0.75
5473	28214	44.605058460181	0.375
5473	28450	44.819111684596	0.625
5473	29762	45.897122869584	0.25
5473	31173	47.197122869584	-0.625
5473	32088	48.10805910674	0
5473	32173	48.162458165123	0.375
5473	32555	48.463978459504	0.75
5473	33382	48.976691727525	0.375
5473	34077	49.476691727525	0.5
5473	34519	49.885065825086	0.5
5473	34632	49.991621272245	0.5
5473	34962	50.306282854876	0.625
5473	35202	50.506282854876	0.875
5473	35684	50.909738398177	0.625
5473	35955	51.113890857565	0.875
5473	36198	51.315121114483	0.875
5473	36357	51.484289891842	0.625
5473	36497	51.597784296306	0.75
5473	36719	51.822912518981	0.5
5473	36968	52.041424379267	0.625
5473	37550	52.541424379267	0.375
5473	37798	52.757501661813	0.875
5473	37880	52.871973899677	0.5
5473	38756	53.590685369818	0
5473	39667	54.390685369818	0.125
5473	39960	54.598572754779	0.75
5473	40311	54.9071298149	0.75
5473	40516	55.116683304228	0.875
5473	40774	55.330923178649	0.75
5473	42086	56.430923178649	-0.5
5473	42655	56.869989878233	0.25
5473	42799	57.040863979974	0.25
5473	43269	57.371059555758	0.5
5473	43687	57.680015870376	0.75
5473	44270	58.098193339003	0.125
5473	44487	58.298193339003	0.875
5473	44653	58.401797807196	0.875
5473	45064	58.726333312242	0.625
5473	45607	59.126333312242	0.625
5473	45816	59.308678132914	0.625
5473	45930	59.433816399689	0.625
5473	46284	59.745363362993	0.5
5473	47628	60.850607030474	0.75
5473	47851	61.045363362993	-0.5
5473	48296	61.361054575917	0.5
5473	48781	61.775496388972	0.5
5473	49497	62.375496388972	0.375
5473	49900	62.677232347522	0.625
5473	50958	63.394085452787	0.125
5473	51222	63.594085452787	0.875
5473	52613	64.794636188694	-0.5
5473	53170	65.197686861855	0.625
5473	53592	65.517202805787	0.5
5473	54604	66.317202805787	0
5473	55091	66.722887372324	0.625
5473	55976	67.524648770367	0.125
5473	56004	67.559838144946	0.125
5473	56703	68.178275351735	0.125
5473	57491	68.758404624546	0.5
5473	58827	69.865531102833	-0.5
5473	60190	71.073741346518	-0.5
5473	60794	71.586477429749	0.5
5473	61216	72.051976522464	-0.25
5473	62061	72.862076522464	0
5473	62446	73.162076522464	0.75
5473	62915	73.549012378423	0.625
5473	62930	73.557648290871	0.625
5473	63571	73.969622391741	0.375
5473	64122	74.469622391741	0.375
5473	64446	74.681213609486	0.875
5473	64840	74.986561578941	0.75
5473	65339	75.396661578941	0.375
5473	65712	75.795324555157	0.875
5473	65991	76.005424555157	0.75
5473	66848	76.762116851931	0.5
5473	67832	77.472216851931	0.125
5473	69270	78.472216851931	-0.125
5473	69903	78.975009924623	0.5
5473	70215	79.283372812986	0.75
5473	70667	79.697023059045	0.375
5473	70885	79.892540991781	0.25
5473	70896	79.900467260816	0.875
5473	70932	79.93124715293	0
5473	71626	80.446457068222	0.25
5473	71851	80.646457068222	0.875
5473	72580	81.25567220571	0.375
5473	73131	81.627403455592	0.5
5473	73428	81.845240438002	0.75
5473	74741	82.945240438002	-0.375
5473	75146	83.246764310879	0.75
5473	75722	83.74689062741	0.5
5473	75785	83.823823810306	0.5
5473	76531	84.440455233049	0.25
5473	77279	84.940455233049	0.5
5473	77667	85.249363313796	0.75
5473	77940	85.452987673949	0.875
5473	77976	85.49782025293	0.875
5473	78430	85.913889495288	0.5
5473	78746	86.213889495288	0.75
5473	78999	86.429255661661	0.75
5473	79578	86.929255661661	0.5
5473	79793	87.136621538828	0.875
5473	80274	87.543674423316	0.625
5473	80622	87.849056543806	0.75
5473	81089	88.259156543806	0.5
5473	81474	88.559156543806	0.75
5473	81814	88.863582567507	0.75
5473	82644	89.580609699813	0
5473	83302	90.128466688347	0.875
5473	83594	90.345374528851	0.75
5473	83854	90.545374528851	0.875
5473	84014	90.706575141705	0.875
5473	84503	91.116675141705	0.5
5473	84760	91.316675141705	0.75
5473	85390	91.820965440105	0.5
5473	85814	92.1151162594	0.75
5473	85860	92.128350133445	0.625
5473	86781	92.941773128237	-0.125
5473	87106	93.241773128237	0.75
5473	87294	93.443298665326	0.875
5473	87364	93.483900521745	0.75
5473	87410	93.505933943523	1
5473	88560	94.505933943523	-0.25
5473	88900	94.844870514031	0
5473	89309	95.208959913607	0.125
5473	89447	95.319059913607	0.875
5473	89771	95.619059913607	0.75
5473	90516	96.220499151092	0.375
5473	90663	96.32073138605	1
5473	91166	96.727499881895	0.5
5473	91749	97.218922565376	0.5
5473	91978	97.42960548643	0.125
5473	92096	97.545342913455	-0.375
5473	92338	97.762057620407	0.75
5473	93926	99.070394101974	-0.125
5473	94059	99.170394101974	0.875
5473	94212	99.277929986778	0.875
5473	95064	99.992423193035	0
5473	96252	101.095257622836	-0.375
5473	96710	101.501282376617	0.625
5473	96853	101.60279607407	1
5473	97425	102.008233191383	0.625
5473	97960	102.517732953438	0.5
5473	98498	103.020168145717	0.5
5473	98515	103.036238670891	-0.375
5473	98784	103.220782122468	0.875
5473	98952	103.341690841207	0.75
5473	98977	103.35723547779	0.75
5473	99564	103.769249188867	0.5
5473	100040	104.069249188867	0.625
5473	100645	104.537728233462	0.625
5473	100674	104.570269692113	0.5
5473	100936	104.838259739716	0.75
5473	101013	104.870934739804	1
5473	101487	105.270934739804	0.5
5473	102025	105.678463182302	0.5
5473	102055	105.710827998461	0.625
5473	102604	106.081256648198	0.5
5473	102634	106.118433346273	0.5
5473	103052	106.424192864936	0.75
5473	103574	106.838780093364	0.25
5473	104282	107.438780093364	0.375
5473	104555	107.648764625076	0.875
5473	105004	108.049071923464	0.625
5473	106699	109.356040131994	-0.625
5473	106737	109.422618220018	0.125
5473	107349	109.924377030751	0.5
5473	107358	109.931945684885	0.5
5473	107568	110.062473069054	0.25
5473	107985	110.37838007771	0.625
5473	108253	110.588302928642	0.75
5473	108502	110.790350746453	0.875
5473	108810	111.056169497428	0.5
5473	109217	111.366269497428	0.625
5473	109462	111.566269497428	0.875
5473	110794	112.673615542265	0.625
5473	111893	113.573615542265	-0.125
5473	113486	114.954401475917	-0.25
5473	114314	115.654401475917	0.125
5473	114756	116.055270010739	0.625
5473	114978	116.262317651816	0.875
5473	115199	116.467630865628	0.875
5473	115226	116.478625931067	1
5473	115512	116.678625931067	0.875
5473	115820	116.926625881477	0.75
5473	116460	117.549888591821	0.125
5473	116634	117.749888591821	0.875
5473	117376	118.393515452432	0.5
5473	117491	118.494889536121	0.875
5473	117557	118.568090626155	0.25
5473	118488	119.2830935365	0.125
5473	118745	119.4830935365	0.875
5473	119010	119.687226278767	0.875
5473	119182	119.802576753498	0.75
5473	119699	120.202576753498	0.625
5473	119831	120.318046360188	0.875
5473	120692	121.079826789147	0.375
5473	121127	121.418046360188	-0.375
5473	121356	121.618951842519	0.875
5473	121435	121.683320310935	0.375
5473	122675	122.597349019022	-0.375
5473	123507	123.339510384376	0.625
5473	123667	123.497349019022	-0.125
5473	123898	123.707449019022	0.75
5473	124577	124.207449019022	0.5
5473	125083	124.617549019022	0.5
5473	126438	125.717549019022	-0.5
5473	127065	126.126064523283	0.625
5473	127286	126.329507498991	0.875
5473	127451	126.485732151648	0.875
5473	128091	127.005185795592	0.375
5473	128546	127.405185795592	0.625
5473	128720	127.520637925283	0.875
5473	128938	127.720637925283	0.875
5473	129173	127.928650399662	0.875
5473	129774	128.443911166412	0.375
5473	130139	128.751905798248	0.75
5473	130673	129.225274449452	0.75
5473	130966	129.532065860659	0.75
5473	131311	129.834308673697	0.75
5473	131535	130.040177994807	0.875
5473	131714	130.158277401165	1
5473	131716	130.158287864292	-0.875
5473	131858	130.27737206262	0.125
5473	131875	130.284832767965	0.75
5473	132348	130.597052200885	0.625
5473	132760	130.90004390295	0.75
5473	133544	131.61014390295	0.125
5473	133841	131.91014390295	0.75
5473	134301	132.415660479533	0.375
5473	134549	132.632751962668	0
5473	134623	132.719911076178	0.625
5473	134636	132.725820864421	0.625
5473	134737	132.837874670109	0.875
5474	29	20.01	0
5474	124	20.21	0.2
5474	410	20.6156562001	0.4
5474	661	21.022339211636	0.4
5474	686	21.033715461919	0
5474	1211	21.633715461919	0.6
5474	1799	22.139110977622	0.5
5474	2142	22.439177751557	0.3
5474	3530	23.462002748966	1
5474	4186	23.964399665738	0.5
5474	4524	24.234053884653	0.4
5474	4573	24.275624354296	0.3
5474	5421	24.987900317521	0.7
5474	6038	25.487900317521	0.5
5474	6952	26.391617839571	0.9
5474	7547	26.973608209246	1
5474	7586	27.00067049238	0.6
5474	7893	27.27491220436	0.3
5474	7900	27.277661526332	0.5
5474	7926	27.30231057857	0.3
5474	8072	27.434152287545	0.3
5474	8532	27.703805870254	0.3
5474	8681	27.807896220453	0.5
5474	9984	28.822467953066	1
5474	10224	29.022467953066	0.2
5474	10891	29.626789474989	0.6
5474	11438	30.136889474989	0.5
5474	12146	30.734304308043	0.1
5474	12362	30.934304308043	0.2
5474	13568	31.834540288368	0.9
5474	13789	32.038295000223	0.6
5474	13919	32.139781275732	0.3
5474	15036	33.049896000326	0.9
5474	15369	33.349896000326	0.3
5474	15859	33.753854317269	0.4
5474	16761	34.463954317269	0.7
5474	17065	34.763954317269	0.3
5474	17463	35.072580200449	0.3
5474	17771	35.379508168853	0.3
5474	19079	36.50986726362	1.1
5474	19637	37.00986726362	0.5
5474	20033	37.319687371668	0.3
5474	20277	37.508306578407	0.3
5474	20398	37.621279569016	0.3
5474	20640	37.823403830106	0.2
5474	21041	38.210771587046	0.7
5474	21375	38.526724056043	0.3
5474	22921	39.797838891697	0.8
5474	23699	40.497838891697	0.7
5474	24236	40.908824032972	0.4
5474	24444	41.114013389598	0.2
5474	24796	41.421549112342	0.3
5474	25226	41.830938024205	0.4
5474	25549	42.049576296644	0.2
5474	25911	42.349576296644	0.3
5474	25950	42.370928339611	0.2
5474	26343	42.682741970617	0.3
5474	26543	42.882741970617	0.2
5474	26997	43.391323855937	0.5
5474	27293	43.699946616909	0.3
5474	27636	44.003651602005	0.3
5474	28214	44.605058460181	0.6
5474	28450	44.819111684596	0.2
5474	29762	45.897122869584	0.6
5474	31173	47.197122869584	1.3
5474	32088	48.10805910674	0.9
5474	32173	48.162458165123	0.6
5474	32555	48.463978459504	0.3
5474	33382	48.976691727525	0.5
5474	34077	49.476691727525	0.5
5474	34519	49.885065825086	0.4
5474	34632	49.991621272245	0.5
5474	34962	50.306282854876	0.3
5474	35202	50.506282854876	0.2
5474	35684	50.909738398177	0.4
5474	35955	51.113890857565	0.2
5474	36198	51.315121114483	0.2
5474	36357	51.484289891842	0.4
5474	36497	51.597784296306	0.3
5474	36719	51.822912518981	0.5
5474	36968	52.041424379267	0.2
5474	37550	52.541424379267	0.5
5474	37798	52.757501661813	0.2
5474	37880	52.871973899677	0.5
5474	38756	53.590685369818	0.7
5474	39667	54.390685369818	0.8
5474	39960	54.598572754779	0.2
5474	40311	54.9071298149	0.3
5474	40516	55.116683304228	0.2
5474	40774	55.330923178649	0.2
5474	42086	56.430923178649	1.1
5474	42655	56.869989878233	0.7
5474	42799	57.040863979974	0.6
5474	43269	57.371059555758	0.5
5474	43687	57.680015870376	0.3
5474	44270	58.098193339003	0.4
5474	44487	58.298193339003	0.2
5474	44653	58.401797807196	0.1
5474	45064	58.726333312242	0.3
5474	45607	59.126333312242	0.4
5474	45816	59.308678132914	0.4
5474	45930	59.433816399689	0.3
5474	46284	59.745363362993	0.3
5474	47628	60.850607030474	0.3
5474	47851	61.045363362993	1.3
5474	48296	61.361054575917	0.5
5474	48781	61.775496388972	0.4
5474	49497	62.375496388972	0.6
5474	49900	62.677232347522	0.3
5474	50958	63.394085452787	0.7
5474	51222	63.594085452787	0.2
5474	52613	64.794636188694	1.2
5474	53170	65.197686861855	0.4
5474	53592	65.517202805787	0.3
5474	54604	66.317202805787	0.8
5474	55091	66.722887372324	0.4
5474	55976	67.524648770367	0.8
5474	56004	67.559838144946	0.8
5474	56703	68.178275351735	0.6
5474	57491	68.758404624546	0.3
5474	58827	69.865531102833	1.1
5474	60190	71.073741346518	1.2
5474	60794	71.586477429749	0.5
5474	61216	72.051976522464	1
5474	62061	72.862076522464	0.8
5474	62446	73.162076522464	0.3
5474	62915	73.549012378423	0.4
5474	62930	73.557648290871	0.4
5474	63571	73.969622391741	0.4
5474	64122	74.469622391741	0.5
5474	64446	74.681213609486	0.2
5474	64840	74.986561578941	0.3
5474	65339	75.396661578941	0.4
5474	65712	75.795324555157	0.2
5474	65991	76.005424555157	0.2
5474	66848	76.762116851931	0.5
5474	67832	77.472216851931	0.7
5474	69270	78.472216851931	1
5474	69903	78.975009924623	0.5
5474	70215	79.283372812986	0.3
5474	70667	79.697023059045	0.4
5474	70885	79.892540991781	0.6
5474	70896	79.900467260816	0.2
5474	70932	79.93124715293	0.7
5474	71626	80.446457068222	0.5
5474	71851	80.646457068222	0.2
5474	72580	81.25567220571	0.6
5474	73131	81.627403455592	0.5
5474	73428	81.845240438002	0.2
5474	74741	82.945240438002	1.1
5474	75146	83.246764310879	0.3
5474	75722	83.74689062741	0.5
5474	75785	83.823823810306	0.5
5474	76531	84.440455233049	0.6
5474	77279	84.940455233049	0.5
5474	77667	85.249363313796	0.3
5474	77940	85.452987673949	0.2
5474	77976	85.49782025293	0.2
5474	78430	85.913889495288	0.4
5474	78746	86.213889495288	0.3
5474	78999	86.429255661661	0.2
5474	79578	86.929255661661	0.5
5474	79793	87.136621538828	0.2
5474	80274	87.543674423316	0.4
5474	80622	87.849056543806	0.3
5474	81089	88.259156543806	0.4
5474	81474	88.559156543806	0.3
5474	81814	88.863582567507	0.3
5474	82644	89.580609699813	0.7
5474	83302	90.128466688347	0.2
5474	83594	90.345374528851	0.2
5474	83854	90.545374528851	0.2
5474	84014	90.706575141705	0.2
5474	84503	91.116675141705	0.4