file 925187 1369516975                                          
version 2
run Stability-norelink-132-20130525-23:22:51-22103
attr configname Stability-norelink
attr datetime 20130525-23:22:51
attr experiment Stability
attr inifile omnetpp.ini
attr iterationvars $0=1e-7
attr iterationvars2 "$0=1e-7, $repetition=2"
attr measurement $0=1e-7
attr network Network
attr processid 22103
attr repetition 2
attr replication #2
attr resultdir results
attr runnumber 132
attr seedset 132

vector 12702  Network.dyn_peer[10]  lookupHopsSig:vector  ETV
vector 12703  Network.dyn_peer[10]  lookupStabilitySig:vector  ETV
vector 12704  Network.dyn_peer[10]  lookupTimeSig:vector  ETV
vector 12720  Network.dyn_peer[16]  lookupHopsSig:vector  ETV
vector 12721  Network.dyn_peer[16]  lookupStabilitySig:vector  ETV
vector 12722  Network.dyn_peer[16]  lookupTimeSig:vector  ETV
vector 12723  Network.dyn_peer[17]  lookupHopsSig:vector  ETV
vector 12724  Network.dyn_peer[17]  lookupStabilitySig:vector  ETV
vector 12725  Network.dyn_peer[17]  lookupTimeSig:vector  ETV
vector 12753  Network.dyn_peer[27]  lookupHopsSig:vector  ETV
vector 12754  Network.dyn_peer[27]  lookupStabilitySig:vector  ETV
vector 12755  Network.dyn_peer[27]  lookupTimeSig:vector  ETV
vector 12756  Network.dyn_peer[28]  lookupHopsSig:vector  ETV
vector 12757  Network.dyn_peer[28]  lookupStabilitySig:vector  ETV
vector 12758  Network.dyn_peer[28]  lookupTimeSig:vector  ETV
vector 12672  Network.dyn_peer[0]  lookupHopsSig:vector  ETV
vector 12673  Network.dyn_peer[0]  lookupStabilitySig:vector  ETV
vector 12674  Network.dyn_peer[0]  lookupTimeSig:vector  ETV
vector 12675  Network.dyn_peer[1]  lookupHopsSig:vector  ETV
vector 12676  Network.dyn_peer[1]  lookupStabilitySig:vector  ETV
vector 12677  Network.dyn_peer[1]  lookupTimeSig:vector  ETV
vector 12678  Network.dyn_peer[2]  lookupHopsSig:vector  ETV
vector 12679  Network.dyn_peer[2]  lookupStabilitySig:vector  ETV
vector 12680  Network.dyn_peer[2]  lookupTimeSig:vector  ETV
vector 12690  Network.dyn_peer[6]  lookupHopsSig:vector  ETV
vector 12691  Network.dyn_peer[6]  lookupStabilitySig:vector  ETV
vector 12692  Network.dyn_peer[6]  lookupTimeSig:vector  ETV
vector 12699  Network.dyn_peer[9]  lookupHopsSig:vector  ETV
vector 12700  Network.dyn_peer[9]  lookupStabilitySig:vector  ETV
vector 12701  Network.dyn_peer[9]  lookupTimeSig:vector  ETV
vector 12708  Network.dyn_peer[12]  lookupHopsSig:vector  ETV
vector 12709  Network.dyn_peer[12]  lookupStabilitySig:vector  ETV
vector 12710  Network.dyn_peer[12]  lookupTimeSig:vector  ETV
vector 12741  Network.dyn_peer[23]  lookupHopsSig:vector  ETV
vector 12742  Network.dyn_peer[23]  lookupStabilitySig:vector  ETV
vector 12743  Network.dyn_peer[23]  lookupTimeSig:vector  ETV
vector 12744  Network.dyn_peer[24]  lookupHopsSig:vector  ETV
vector 12745  Network.dyn_peer[24]  lookupStabilitySig:vector  ETV
vector 12746  Network.dyn_peer[24]  lookupTimeSig:vector  ETV
vector 12750  Network.dyn_peer[26]  lookupHopsSig:vector  ETV
vector 12751  Network.dyn_peer[26]  lookupStabilitySig:vector  ETV
vector 12752  Network.dyn_peer[26]  lookupTimeSig:vector  ETV
vector 12681  Network.dyn_peer[3]  lookupHopsSig:vector  ETV
vector 12682  Network.dyn_peer[3]  lookupStabilitySig:vector  ETV
vector 12683  Network.dyn_peer[3]  lookupTimeSig:vector  ETV
vector 12684  Network.dyn_peer[4]  lookupHopsSig:vector  ETV
vector 12685  Network.dyn_peer[4]  lookupStabilitySig:vector  ETV
vector 12686  Network.dyn_peer[4]  lookupTimeSig:vector  ETV
vector 12687  Network.dyn_peer[5]  lookupHopsSig:vector  ETV
vector 12688  Network.dyn_peer[5]  lookupStabilitySig:vector  ETV
vector 12689  Network.dyn_peer[5]  lookupTimeSig:vector  ETV
vector 12711  Network.dyn_peer[13]  lookupHopsSig:vector  ETV
vector 12712  Network.dyn_peer[13]  lookupStabilitySig:vector  ETV
vector 12713  Network.dyn_peer[13]  lookupTimeSig:vector  ETV
vector 12714  Network.dyn_peer[14]  lookupHopsSig:vector  ETV
vector 12715  Network.dyn_peer[14]  lookupStabilitySig:vector  ETV
vector 12716  Network.dyn_peer[14]  lookupTimeSig:vector  ETV
vector 12738  Network.dyn_peer[22]  lookupHopsSig:vector  ETV
vector 12739  Network.dyn_peer[22]  lookupStabilitySig:vector  ETV
vector 12740  Network.dyn_peer[22]  lookupTimeSig:vector  ETV
vector 12765  Network.dyn_peer[31]  lookupHopsSig:vector  ETV
vector 12766  Network.dyn_peer[31]  lookupStabilitySig:vector  ETV
vector 12767  Network.dyn_peer[31]  lookupTimeSig:vector  ETV
vector 12693  Network.dyn_peer[7]  lookupHopsSig:vector  ETV
vector 12694  Network.dyn_peer[7]  lookupStabilitySig:vector  ETV
vector 12695  Network.dyn_peer[7]  lookupTimeSig:vector  ETV
vector 12696  Network.dyn_peer[8]  lookupHopsSig:vector  ETV
vector 12697  Network.dyn_peer[8]  lookupStabilitySig:vector  ETV
vector 12698  Network.dyn_peer[8]  lookupTimeSig:vector  ETV
vector 12705  Network.dyn_peer[11]  lookupHopsSig:vector  ETV
vector 12706  Network.dyn_peer[11]  lookupStabilitySig:vector  ETV
vector 12707  Network.dyn_peer[11]  lookupTimeSig:vector  ETV
vector 12729  Network.dyn_peer[19]  lookupHopsSig:vector  ETV
vector 12730  Network.dyn_peer[19]  lookupStabilitySig:vector  ETV
vector 12731  Network.dyn_peer[19]  lookupTimeSig:vector  ETV
vector 12732  Network.dyn_peer[20]  lookupHopsSig:vector  ETV
vector 12733  Network.dyn_peer[20]  lookupStabilitySig:vector  ETV
vector 12734  Network.dyn_peer[20]  lookupTimeSig:vector  ETV
vector 12735  Network.dyn_peer[21]  lookupHopsSig:vector  ETV
vector 12736  Network.dyn_peer[21]  lookupStabilitySig:vector  ETV
vector 12737  Network.dyn_peer[21]  lookupTimeSig:vector  ETV
vector 12747  Network.dyn_peer[25]  lookupHopsSig:vector  ETV
vector 12748  Network.dyn_peer[25]  lookupStabilitySig:vector  ETV
vector 12749  Network.dyn_peer[25]  lookupTimeSig:vector  ETV
vector 12759  Network.dyn_peer[29]  lookupHopsSig:vector  ETV
vector 12760  Network.dyn_peer[29]  lookupStabilitySig:vector  ETV
vector 12761  Network.dyn_peer[29]  lookupTimeSig:vector  ETV
vector 12717  Network.dyn_peer[15]  lookupHopsSig:vector  ETV
vector 12718  Network.dyn_peer[15]  lookupStabilitySig:vector  ETV
vector 12719  Network.dyn_peer[15]  lookupTimeSig:vector  ETV
vector 12726  Network.dyn_peer[18]  lookupHopsSig:vector  ETV
vector 12727  Network.dyn_peer[18]  lookupStabilitySig:vector  ETV
vector 12728  Network.dyn_peer[18]  lookupTimeSig:vector  ETV
vector 12762  Network.dyn_peer[30]  lookupHopsSig:vector  ETV
vector 12763  Network.dyn_peer[30]  lookupStabilitySig:vector  ETV
vector 12764  Network.dyn_peer[30]  lookupTimeSig:vector  ETV
12672	6498 8816 149 136918 20.1000000001 133.203543733365 290 0 20 1237 8431
12673	15314 9774 149 136918 20.1000000001 133.203543733365 290 -1.5 1 135.375 112.484375
12674	25088 9357 149 136918 20.1000000001 133.203543733365 290 0 1.8 136.8 88.76
12675	34445 9541 154 136804 20.1000000002 132.702171178843 314 0 15 1290 7852
12676	43986 10566 154 136804 20.1000000002 132.702171178843 314 -0.875 1 152.84722220898 114.29996140283
12677	54552 10128 154 136804 20.1000000002 132.702171178843 314 0 1.3 142.5 85.01
12678	64680 9198 159 136143 20.1000000003 131.796532676566 303 0 17 1217 6919
12679	73878 10201 159 136143 20.1000000003 131.796532676566 303 -1.125 1 150.875 106.859375
12680	84079 9789 159 136143 20.1000000003 131.796532676566 303 0 1.4 138.3 79.11
12681	93868 9301 221 136343 20.2000000004 131.987737205958 306 0 17 1262 8140
12682	103169 10303 221 136343 20.2000000004 131.987737205958 306 -1.125 1 148.25 117.6875
12683	113472 9871 221 136343 20.2000000004 131.987737205958 306 0 1.6 141.4 89.14
12684	123343 9586 226 136337 20.2000000005 131.98236974996 315 0 25 1220 8024
12685	132929 10621 226 136337 20.2000000005 131.98236974996 315 -2.125 1 162.58333331347 135.4826388624
12686	143550 10164 226 136337 20.2000000005 131.98236974996 315 0 2.1 136.2 84.28
12687	153714 8841 231 135450 20.2000000006 131.291919169027 290 0 22 1245 8403
12688	162555 9787 231 135450 20.2000000006 131.291919169027 290 -1.75 1 134.43055555224 110.10551697163
12689	172342 9387 231 135450 20.2000000006 131.291919169027 290 0 1.9 137 88.2
12690	181729 9026 167 135938 20.1000000007 131.67492227642 297 0 13 1177 6885
12691	190755 9980 167 135938 20.1000000007 131.67492227642 297 -0.625 1 150.01388883591 110.27797069079
12692	200735 9571 167 135938 20.1000000007 131.67492227642 297 0 1.3 132.7 78.21
12693	210306 8630 288 136065 20.3000000008 131.766279648589 284 0 24 1236 8862
12694	218936 9591 288 136065 20.3000000008 131.766279648589 284 -2 1 129.59722220898 113.58121140283
12695	228527 9149 288 136065 20.3000000008 131.766279648589 284 0 2.2 137.9 94.65
12696	237676 9487 293 135559 20.3000000009 131.381073071103 313 0 20 1212 7564
12697	247163 10505 293 135559 20.3000000009 131.381073071103 313 -1.5 1 161.52777777612 128.22993826903
12698	257668 10071 293 135559 20.3000000009 131.381073071103 313 0 1.9 137.7 84.33
12699	267739 8432 174 136493 20.100000001 132.177922439498 277 0 28 1231 8859
12700	276171 9336 174 136493 20.100000001 132.177922439498 277 -2.5 1 123.18055555224 107.73051697163
12701	285507 8922 174 136493 20.100000001 132.177922439498 277 0 2.5 134.5 92.99
12702	294429 8343 59 136774 20.0000000011 132.639321050067 274 0 19 1306 9554
12703	302772 9215 59 136774 20.0000000011 132.639321050067 274 -1.375 1 110.75 96.78125
12704	311987 8855 59 136774 20.0000000011 132.639321050067 274 0 1.9 140.6 97.34
12705	320842 8932 300 135686 20.3000000012 131.480218821832 294 0 14 1217 7839
12706	329774 9915 300 135686 20.3000000012 131.480218821832 294 -0.75 1 141.875 112.234375
12707	339689 9473 300 135686 20.3000000012 131.480218821832 294 0 1.3 135.7 84.59
12708	349162 9113 181 136625 20.1000000013 132.305533557232 300 0 20 1132 6834
12709	358275 10104 181 136625 20.1000000013 132.305533557232 300 -1.5 1 158.5 123.78125
12710	368379 9678 181 136625 20.1000000013 132.305533557232 300 0 1.6 127.2 74.78
12711	378057 9610 243 135373 20.2000000014 131.264667296448 316 0 18 1263 7703
12712	387667 10671 243 135373 20.2000000014 131.264667296448 316 -1.25 1 158.20833332837 120.71045524066
12713	398338 10214 243 135373 20.2000000014 131.264667296448 316 0 1.7 140.6 83.42
12714	408552 9356 248 136299 20.2000000015 131.95866907627 308 0 29 1279 8737
12715	417908 10383 248 136299 20.2000000015 131.95866907627 308 -2.625 1 148.20833331347 124.8732638624
12716	428291 9926 248 136299 20.2000000015 131.95866907627 308 0 2.8 141.3 92.05
12717	438217 10176 416 136882 20.5000000016 132.958637979943 335 0 18 1273 7655
12718	448393 11276 416 136882 20.5000000016 132.958637979943 335 -1.25 1 175.93055554479 136.43769288652
12719	459669 10806 416 136882 20.5000000016 132.958637979943 335 0 1.7 145.2 86.54
12720	470475 9192 81 135839 20.0000000017 131.587457449544 303 0 17 1158 7024
12721	479667 10212 81 135839 20.0000000017 131.587457449544 303 -1.125 1 158.36111107469 123.36072527185
12722	489879 9767 81 135839 20.0000000017 131.587457449544 303 0 1.6 131.7 77.41
12723	499646 9160 88 136463 20.0000000018 132.147976126382 301 0 15 1275 8175
12724	508806 10163 88 136463 20.0000000018 132.147976126382 301 -0.875 1 141.66666665673 110.0381944312
12725	518969 9707 88 136463 20.0000000018 132.147976126382 301 0 1.4 143.1 90.65
12726	528676 8620 421 135621 20.5000000019 131.454601563638 283 0 17 1185 7195
12727	537296 9557 421 135621 20.5000000019 131.454601563638 283 -1.125 1 134.90277777612 99.214313269029
12728	546853 9155 421 135621 20.5000000019 131.454601563638 283 0 1.6 133.5 81.99
12729	556008 8598 312 136815 20.300000002 132.704274119032 283 0 23 1256 8370
12730	564606 9534 312 136815 20.300000002 132.704274119032 283 -1.875 1 126 99.78125
12731	574140 9137 312 136815 20.300000002 132.704274119032 283 0 2.1 137.3 88.09
12732	583277 8493 317 136862 20.3000000021 132.839421050067 279 0 28 1222 8540
12733	591770 9427 317 136862 20.3000000021 132.839421050067 279 -2.5 1 126.3749999702 107.03993052906
12734	601197 9012 317 136862 20.3000000021 132.839421050067 279 0 2.5 134.4 89.06
12735	610209 8617 363 136546 20.4000000022 132.206605024774 283 0 19 1241 7909
12736	618826 9558 363 136546 20.4000000022 132.206605024774 283 -1.375 1 127.95833332837 96.429205240659
12737	628384 9141 363 136546 20.4000000022 132.206605024774 283 0 1.7 136.3 86.19
12738	637525 9246 259 136684 20.2000000023 132.422313261896 304 0 16 1169 7055
12739	646771 10225 259 136684 20.2000000023 132.422313261896 304 -1 1 157.93055555224 122.04301697163
12740	656996 9821 259 136684 20.2000000023 132.422313261896 304 0 1.5 132.3 79.37
12741	666817 9011 195 135452 20.1000000024 131.291919169127 296 0 27 1293 9053
12742	675828 9990 195 135452 20.1000000024 131.291919169127 296 -2.375 1 134.375 114.203125
12743	685818 9560 195 135452 20.1000000024 131.291919169127 296 0 2.5 141.4 95.6
12744	695378 8758 200 135948 20.1000000025 131.679125402355 288 0 23 1209 8325
12745	704136 9658 200 135948 20.1000000025 131.679125402355 288 -1.875 1 137.05555556715 115.77932097919
12746	713794 9301 200 135948 20.1000000025 131.679125402355 288 0 2 133.7 88.97
12747	723095 8528 370 136151 20.4000000026 131.799719986279 280 0 23 1242 8676
12748	731623 9447 370 136151 20.4000000026 131.799719986279 280 -1.875 1 124.83333331347 105.11111109787
12749	741070 9043 370 136151 20.4000000026 131.799719986279 280 0 2 138.6 94.82
12750	750113 8739 206 135048 20.1000000027 131.060130022358 288 0 16 1169 7169
12751	758852 9719 206 135048 20.1000000027 131.060130022358 288 -1 1 141.95833332837 107.86670524066
12752	768571 9282 206 135048 20.1000000027 131.060130022358 288 0 1.5 131.6 79.4
12753	777853 8910 122 136787 20.0000000028 132.660306639072 293 0 17 1272 8940
12754	786763 9887 122 136787 20.0000000028 132.660306639072 293 -1.125 1 134.06944443285 114.78375770023
12755	796650 9439 122 136787 20.0000000028 132.660306639072 293 0 1.6 141.6 96.58
12756	806089 9094 129 135967 20.0000000029 131.683834293326 299 0 16 1252 7922
12757	815183 10057 129 135967 20.0000000029 131.683834293326 299 -1 1 142.6249999851 109.85744597919
12758	825240 9651 129 135967 20.0000000029 131.683834293326 299 0 1.5 140.2 87.02
12759	834891 8722 380 136576 20.400000003 132.255005896776 287 0 22 1176 7900
12760	843613 9687 380 136576 20.400000003 132.255005896776 287 -1.75 1 140.19444438815 116.59683636971
12761	853300 9244 380 136576 20.400000003 132.255005896776 287 0 2 131 84.32
12762	862544 9765 435 136707 20.5000000031 132.463786332104 321 0 17 1282 8160
12763	872309 10826 435 136707 20.5000000031 132.463786332104 321 -1.125 1 160.93055554479 128.12172067092
12764	883135 10371 435 136707 20.5000000031 132.463786332104 321 0 1.4 142.4 85.72
12765	893506 9992 271 135747 20.2000000032 131.547776126382 328 0 18 1258 7662
12766	903498 11082 271 135747 20.2000000032 131.547776126382 328 -1.25 1 170.94444438815 133.41743821936
12767	914580 10607 271 135747 20.2000000032 131.547776126382 328 0 1.5 143.2 85.88
