file 917714 1369517019                                          
version 2
run Stability-norelink-143-20130525-23:23:35-22103
attr configname Stability-norelink
attr datetime 20130525-23:23:35
attr experiment Stability
attr inifile omnetpp.ini
attr iterationvars $0=1e-8
attr iterationvars2 "$0=1e-8, $repetition=3"
attr measurement $0=1e-8
attr network Network
attr processid 22103
attr repetition 3
attr replication #3
attr resultdir results
attr runnumber 143
attr seedset 143

vector 13770  Network.dyn_peer[14]  lookupHopsSig:vector  ETV
vector 13771  Network.dyn_peer[14]  lookupStabilitySig:vector  ETV
vector 13772  Network.dyn_peer[14]  lookupTimeSig:vector  ETV
vector 13779  Network.dyn_peer[17]  lookupHopsSig:vector  ETV
vector 13780  Network.dyn_peer[17]  lookupStabilitySig:vector  ETV
vector 13781  Network.dyn_peer[17]  lookupTimeSig:vector  ETV
vector 13803  Network.dyn_peer[25]  lookupHopsSig:vector  ETV
vector 13804  Network.dyn_peer[25]  lookupStabilitySig:vector  ETV
vector 13805  Network.dyn_peer[25]  lookupTimeSig:vector  ETV
vector 13728  Network.dyn_peer[0]  lookupHopsSig:vector  ETV
vector 13729  Network.dyn_peer[0]  lookupStabilitySig:vector  ETV
vector 13730  Network.dyn_peer[0]  lookupTimeSig:vector  ETV
vector 13731  Network.dyn_peer[1]  lookupHopsSig:vector  ETV
vector 13732  Network.dyn_peer[1]  lookupStabilitySig:vector  ETV
vector 13733  Network.dyn_peer[1]  lookupTimeSig:vector  ETV
vector 13734  Network.dyn_peer[2]  lookupHopsSig:vector  ETV
vector 13735  Network.dyn_peer[2]  lookupStabilitySig:vector  ETV
vector 13736  Network.dyn_peer[2]  lookupTimeSig:vector  ETV
vector 13746  Network.dyn_peer[6]  lookupHopsSig:vector  ETV
vector 13747  Network.dyn_peer[6]  lookupStabilitySig:vector  ETV
vector 13748  Network.dyn_peer[6]  lookupTimeSig:vector  ETV
vector 13755  Network.dyn_peer[9]  lookupHopsSig:vector  ETV
vector 13756  Network.dyn_peer[9]  lookupStabilitySig:vector  ETV
vector 13757  Network.dyn_peer[9]  lookupTimeSig:vector  ETV
vector 13758  Network.dyn_peer[10]  lookupHopsSig:vector  ETV
vector 13759  Network.dyn_peer[10]  lookupStabilitySig:vector  ETV
vector 13760  Network.dyn_peer[10]  lookupTimeSig:vector  ETV
vector 13764  Network.dyn_peer[12]  lookupHopsSig:vector  ETV
vector 13765  Network.dyn_peer[12]  lookupStabilitySig:vector  ETV
vector 13766  Network.dyn_peer[12]  lookupTimeSig:vector  ETV
vector 13785  Network.dyn_peer[19]  lookupHopsSig:vector  ETV
vector 13786  Network.dyn_peer[19]  lookupStabilitySig:vector  ETV
vector 13787  Network.dyn_peer[19]  lookupTimeSig:vector  ETV
vector 13791  Network.dyn_peer[21]  lookupHopsSig:vector  ETV
vector 13792  Network.dyn_peer[21]  lookupStabilitySig:vector  ETV
vector 13793  Network.dyn_peer[21]  lookupTimeSig:vector  ETV
vector 13800  Network.dyn_peer[24]  lookupHopsSig:vector  ETV
vector 13801  Network.dyn_peer[24]  lookupStabilitySig:vector  ETV
vector 13802  Network.dyn_peer[24]  lookupTimeSig:vector  ETV
vector 13809  Network.dyn_peer[27]  lookupHopsSig:vector  ETV
vector 13810  Network.dyn_peer[27]  lookupStabilitySig:vector  ETV
vector 13811  Network.dyn_peer[27]  lookupTimeSig:vector  ETV
vector 13740  Network.dyn_peer[4]  lookupHopsSig:vector  ETV
vector 13741  Network.dyn_peer[4]  lookupStabilitySig:vector  ETV
vector 13742  Network.dyn_peer[4]  lookupTimeSig:vector  ETV
vector 13743  Network.dyn_peer[5]  lookupHopsSig:vector  ETV
vector 13744  Network.dyn_peer[5]  lookupStabilitySig:vector  ETV
vector 13745  Network.dyn_peer[5]  lookupTimeSig:vector  ETV
vector 13752  Network.dyn_peer[8]  lookupHopsSig:vector  ETV
vector 13753  Network.dyn_peer[8]  lookupStabilitySig:vector  ETV
vector 13754  Network.dyn_peer[8]  lookupTimeSig:vector  ETV
vector 13767  Network.dyn_peer[13]  lookupHopsSig:vector  ETV
vector 13768  Network.dyn_peer[13]  lookupStabilitySig:vector  ETV
vector 13769  Network.dyn_peer[13]  lookupTimeSig:vector  ETV
vector 13776  Network.dyn_peer[16]  lookupHopsSig:vector  ETV
vector 13777  Network.dyn_peer[16]  lookupStabilitySig:vector  ETV
vector 13778  Network.dyn_peer[16]  lookupTimeSig:vector  ETV
vector 13782  Network.dyn_peer[18]  lookupHopsSig:vector  ETV
vector 13783  Network.dyn_peer[18]  lookupStabilitySig:vector  ETV
vector 13784  Network.dyn_peer[18]  lookupTimeSig:vector  ETV
vector 13794  Network.dyn_peer[22]  lookupHopsSig:vector  ETV
vector 13795  Network.dyn_peer[22]  lookupStabilitySig:vector  ETV
vector 13796  Network.dyn_peer[22]  lookupTimeSig:vector  ETV
vector 13797  Network.dyn_peer[23]  lookupHopsSig:vector  ETV
vector 13798  Network.dyn_peer[23]  lookupStabilitySig:vector  ETV
vector 13799  Network.dyn_peer[23]  lookupTimeSig:vector  ETV
vector 13821  Network.dyn_peer[31]  lookupHopsSig:vector  ETV
vector 13822  Network.dyn_peer[31]  lookupStabilitySig:vector  ETV
vector 13823  Network.dyn_peer[31]  lookupTimeSig:vector  ETV
vector 13749  Network.dyn_peer[7]  lookupHopsSig:vector  ETV
vector 13750  Network.dyn_peer[7]  lookupStabilitySig:vector  ETV
vector 13751  Network.dyn_peer[7]  lookupTimeSig:vector  ETV
vector 13761  Network.dyn_peer[11]  lookupHopsSig:vector  ETV
vector 13762  Network.dyn_peer[11]  lookupStabilitySig:vector  ETV
vector 13763  Network.dyn_peer[11]  lookupTimeSig:vector  ETV
vector 13773  Network.dyn_peer[15]  lookupHopsSig:vector  ETV
vector 13774  Network.dyn_peer[15]  lookupStabilitySig:vector  ETV
vector 13775  Network.dyn_peer[15]  lookupTimeSig:vector  ETV
vector 13806  Network.dyn_peer[26]  lookupHopsSig:vector  ETV
vector 13807  Network.dyn_peer[26]  lookupStabilitySig:vector  ETV
vector 13808  Network.dyn_peer[26]  lookupTimeSig:vector  ETV
vector 13812  Network.dyn_peer[28]  lookupHopsSig:vector  ETV
vector 13813  Network.dyn_peer[28]  lookupStabilitySig:vector  ETV
vector 13814  Network.dyn_peer[28]  lookupTimeSig:vector  ETV
vector 13818  Network.dyn_peer[30]  lookupHopsSig:vector  ETV
vector 13819  Network.dyn_peer[30]  lookupStabilitySig:vector  ETV
vector 13820  Network.dyn_peer[30]  lookupTimeSig:vector  ETV
vector 13737  Network.dyn_peer[3]  lookupHopsSig:vector  ETV
vector 13738  Network.dyn_peer[3]  lookupStabilitySig:vector  ETV
vector 13739  Network.dyn_peer[3]  lookupTimeSig:vector  ETV
vector 13788  Network.dyn_peer[20]  lookupHopsSig:vector  ETV
vector 13789  Network.dyn_peer[20]  lookupStabilitySig:vector  ETV
vector 13790  Network.dyn_peer[20]  lookupTimeSig:vector  ETV
vector 13815  Network.dyn_peer[29]  lookupHopsSig:vector  ETV
vector 13816  Network.dyn_peer[29]  lookupStabilitySig:vector  ETV
vector 13817  Network.dyn_peer[29]  lookupTimeSig:vector  ETV
13728	6498 9106 135 135750 20.10000000001 132.633218290883 300 0 19 1286 8656
13729	15604 10099 135 135750 20.10000000001 132.633218290883 300 -1.375 1 139.47222214937 113.74845678865
13730	25703 9662 135 135750 20.10000000001 132.633218290883 300 0 1.7 141.9 90.51
13731	35365 9187 140 135371 20.10000000002 132.330679925843 302 0 17 1287 8395
13732	44552 10195 140 135371 20.10000000002 132.330679925843 302 -1.125 1 141.125 111.421875
13733	54747 9752 140 135371 20.10000000002 132.330679925843 302 0 1.7 144.1 93.03
13734	64499 10072 145 136308 20.10000000003 133.192198368114 331 0 18 1261 7311
13735	74571 11206 145 136308 20.10000000003 133.192198368114 331 -1.25 1 173.79166659713 130.32581013
13736	85777 10703 145 136308 20.10000000003 133.192198368114 331 0 1.9 144.3 85.63
13737	96480 9126 355 136208 20.40000000004 133.105264867961 300 0 17 1332 8656
13738	105606 10134 355 136208 20.40000000004 133.105264867961 300 -1.125 1 133.61111110449 102.36728394326
13739	115740 9688 355 136208 20.40000000004 133.105264867961 300 0.1 1.7 146.4 93.82
13740	125428 9113 216 136638 20.20000000005 133.811738627734 301 0 16 1233 7699
13741	134541 10146 216 136638 20.20000000005 133.811738627734 301 -1 1 146.98611110449 113.16415894326
13742	144687 9686 216 136638 20.20000000005 133.811738627734 301 0.1 1.5 137.8 83.34
13743	154373 8340 221 135632 20.20000000006 132.530679925843 274 0 18 1186 8270
13744	162713 9259 221 135632 20.20000000006 132.530679925843 274 -1.25 1 125.81944441795 106.77565584065
13745	171972 8849 221 135632 20.20000000006 132.530679925843 274 0.1 1.8 131.5 88.49
13746	180821 8695 153 135583 20.10000000007 132.491446670826 286 0 19 1246 8536
13747	189516 9678 153 135583 20.10000000007 132.491446670826 286 -1.375 1 130.47222217172 108.06365736546
13748	199194 9223 153 135583 20.10000000007 132.491446670826 286 0 1.8 137 91.98
13749	208417 8644 295 136073 20.30000000008 132.93623109531 284 0 19 1237 8559
13750	217061 9603 295 136073 20.30000000008 132.93623109531 284 -1.375 1 129.54166664183 108.63406633852
13751	226664 9166 295 136073 20.30000000008 132.93623109531 284 0 1.8 137.2 92.36
13752	235830 9039 228 136238 20.20000000009 133.132817785546 296 0 19 1203 7367
13753	244869 10076 228 136238 20.20000000009 133.132817785546 296 -1.375 1 145.86111105978 110.54629625104
13754	254945 9594 228 136238 20.20000000009 133.132817785546 296 0 1.7 135.1 82.49
13755	264539 9265 160 135234 20.1000000001 132.24421208178 305 0 17 1151 6857
13756	273804 10254 160 135234 20.1000000001 132.24421208178 305 -1.125 1 161.125 124.390625
13757	284058 9843 160 135234 20.1000000001 132.24421208178 305 0 1.7 130.8 76.84
13758	293901 8380 165 135725 20.10000000011 132.618007042452 276 0 26 1232 9270
13759	302281 9286 165 135725 20.10000000011 132.618007042452 276 -2.25 1 122.05555555224 112.90239197163
13760	311567 8889 165 135725 20.10000000011 132.618007042452 276 0 2.5 137.4 98.94
13761	320456 8511 304 135056 20.30000000012 132.10580542321 280 0 21 1250 8872
13762	328967 9419 304 135056 20.30000000012 132.10580542321 280 -1.625 1 123.79166665673 106.1788194312
13763	338386 9017 304 135056 20.30000000012 132.10580542321 280 0 1.9 137.6 93.26
13764	347403 8583 171 136593 20.10000000013 133.667525399173 282 0 25 1166 7480
13765	355986 9517 171 136593 20.10000000013 133.667525399173 282 -2.125 1 136.41666661948 107.50501539383
13766	365503 9120 171 136593 20.10000000013 133.667525399173 282 0 2.2 130.8 82.46
13767	374623 8799 237 136266 20.20000000014 133.150715553287 289 0 16 1286 8856
13768	383422 9736 237 136266 20.20000000014 133.150715553287 289 -1 1 128.25 105.875
13769	393158 9331 237 136266 20.20000000014 133.150715553287 289 0 1.5 142.7 96.21
13770	402489 9291 71 134756 20.00000000015 131.885329840321 306 0 22 1183 7937
13771	411780 10304 71 134756 20.00000000015 131.885329840321 306 -1.75 1 158.19444444031 134.34876542695
13772	422084 9858 71 134756 20.00000000015 131.885329840321 306 0 2.1 133.6 87.46
13773	431942 8535 311 135163 20.30000000016 132.171791722099 281 0 18 1146 7420
13774	440477 9475 311 135163 20.30000000016 132.171791722099 281 -1.25 1 137.90277776122 110.60860337446
13775	449952 9069 311 135163 20.30000000016 132.171791722099 281 0 1.6 129.2 80.66
13776	459021 8442 245 136197 20.20000000017 133.1043849474 276 0 22 1223 8767
13777	467463 9360 245 136197 20.20000000017 133.1043849474 276 -1.75 1 123.31944441795 107.27565584065
13778	476823 8952 245 136197 20.20000000017 133.1043849474 276 0 2.1 134.7 92.71
13779	485775 9400 84 136560 20.00000000018 133.579390807239 309 0 21 1247 7789
13780	495175 10413 84 136560 20.00000000018 133.579390807239 309 -1.625 1 153.31944441795 119.01408177541
13781	505588 9981 84 136560 20.00000000018 133.579390807239 309 0 1.8 139.1 85.71
13782	515569 9043 251 135489 20.20000000019 132.408523402469 297 0 16 1265 8811
13783	524612 10041 251 135489 20.20000000019 132.408523402469 297 -1 1 139.11111107469 118.54976848982
13784	534653 9580 251 135489 20.20000000019 132.408523402469 297 0 1.5 139.9 93.15
13785	544233 9252 182 136291 20.1000000002 133.168027791767 304 0 25 1184 7574
13786	553485 10269 182 136291 20.1000000002 133.168027791767 304 -2.125 1 156.02777777612 126.38618826903
13787	563754 9825 182 136291 20.1000000002 133.168027791767 304 0 2.2 133.4 80.72
13788	573579 9234 419 135423 20.50000000021 132.363903013864 303 0 21 1164 7198
13789	582813 10225 419 135423 20.50000000021 132.363903013864 303 -1.625 1 157.59722220898 124.50250771016
13790	593038 9800 419 135423 20.50000000021 132.363903013864 303 0 2.1 133.5 82.57
13791	602838 9204 188 136342 20.10000000022 133.214156588355 303 0 24 1146 7212
13792	612042 10222 188 136342 20.10000000022 133.214156588355 303 -2 1 159.83333332837 129.28858024066
13793	622264 9793 188 136342 20.10000000022 133.214156588355 303 0 2.1 129.6 77.76
13794	632057 9221 259 136454 20.20000000023 133.37168055261 303 0 20 1239 8233
13795	641278 10222 259 136454 20.20000000023 133.37168055261 303 -1.5 1 148.18055555224 121.94926697163
13796	651500 9803 259 136454 20.20000000023 133.37168055261 303 0 1.8 139 88.66
13797	661303 8902 264 136129 20.20000000024 133.009219543831 292 0 29 1282 9210
13798	670205 9866 264 136129 20.20000000024 133.009219543831 292 -2.625 1 131.76388888806 115.43074845532
13799	680071 9439 264 136129 20.20000000024 133.009219543831 292 0 2.8 141.1 97.35
13800	689510 8906 195 136383 20.10000000025 133.275275899241 293 0 18 1207 8053
13801	698416 9876 195 136383 20.10000000025 133.275275899241 293 -1.25 1 142.26388886571 117.18537806949
13802	708292 9450 195 136383 20.10000000025 133.275275899241 293 0 1.7 134.8 86.42
13803	717742 8695 112 136666 20.00000000026 133.92660669842 286 0 28 1261 8997
13804	726437 9652 112 136666 20.00000000026 133.92660669842 286 -2.5 1 128.40277777612 111.37056326903
13805	736089 9226 112 136666 20.00000000026 133.92660669842 286 0 2.6 140.6 96.54
13806	745315 8577 326 135458 20.30000000027 132.401393919076 282 0 19 1252 8656
13807	753892 9526 326 135458 20.30000000027 132.401393919076 282 -1.375 1 125.7499999553 104.52044748414
13808	763418 9087 326 135458 20.30000000027 132.401393919076 282 0 1.7 138 91.64
13809	772505 8402 202 135874 20.10000000028 132.732098052368 276 0 17 1210 8376
13810	780907 9317 202 135874 20.10000000028 132.732098052368 276 -1.125 1 125.08333328366 104.52353391014
13811	790224 8911 202 135874 20.10000000028 132.732098052368 276 0 1.6 133.9 89.85
13812	799135 9019 332 136509 20.30000000029 133.497946156626 296 0 37 1243 8749
13813	808154 9975 332 136509 20.30000000029 133.497946156626 296 -3.625 1 140.625 121.953125
13814	818129 9585 332 136509 20.30000000029 133.497946156626 296 0 3.2 138.6 92.6
13815	827714 9940 433 135994 20.5000000003 132.830679925853 327 0 20 1204 6932
13816	837654 11030 433 135994 20.5000000003 132.830679925853 327 -1.5 1 176.63888886571 134.40007714136
13817	848684 10554 433 135994 20.5000000003 132.830679925853 327 0 1.7 137.6 78.02
13818	859238 9475 338 136519 20.30000000031 133.50461729616 311 0 23 1296 8666
13819	868713 10478 338 136519 20.30000000031 133.50461729616 311 -1.875 1 149.16666662693 122.2673611376
13820	879191 10051 338 136519 20.30000000031 133.50461729616 311 0 2.1 145.1 94.91
13821	889242 8982 276 135961 20.20000000032 132.810781634045 296 0 25 1210 8544
13822	898224 9943 276 135961 20.20000000032 132.810781634045 296 -2.125 1 144.75 127
13823	908167 9547 276 135961 20.20000000032 132.810781634045 296 0 2.1 135.4 89.28
