version 2
run Stability-norelink-91-20130525-23:20:04-22103
attr configname Stability-norelink
attr datetime 20130525-23:20:04
attr experiment Stability
attr inifile omnetpp.ini
attr iterationvars $0=1e-3
attr iterationvars2 "$0=1e-3, $repetition=1"
attr measurement $0=1e-3
attr network Network
attr processid 22103
attr repetition 1
attr replication #1
attr resultdir results
attr runnumber 91
attr seedset 91

vector 8736  Network.dyn_peer[0]  lookupHopsSig:vector  ETV
vector 8737  Network.dyn_peer[0]  lookupStabilitySig:vector  ETV
vector 8738  Network.dyn_peer[0]  lookupTimeSig:vector  ETV
vector 8739  Network.dyn_peer[1]  lookupHopsSig:vector  ETV
vector 8740  Network.dyn_peer[1]  lookupStabilitySig:vector  ETV
vector 8741  Network.dyn_peer[1]  lookupTimeSig:vector  ETV
vector 8784  Network.dyn_peer[16]  lookupHopsSig:vector  ETV
vector 8785  Network.dyn_peer[16]  lookupStabilitySig:vector  ETV
vector 8786  Network.dyn_peer[16]  lookupTimeSig:vector  ETV
vector 8742  Network.dyn_peer[2]  lookupHopsSig:vector  ETV
vector 8743  Network.dyn_peer[2]  lookupStabilitySig:vector  ETV
vector 8744  Network.dyn_peer[2]  lookupTimeSig:vector  ETV
vector 8748  Network.dyn_peer[4]  lookupHopsSig:vector  ETV
vector 8749  Network.dyn_peer[4]  lookupStabilitySig:vector  ETV
vector 8750  Network.dyn_peer[4]  lookupTimeSig:vector  ETV
vector 8757  Network.dyn_peer[7]  lookupHopsSig:vector  ETV
vector 8758  Network.dyn_peer[7]  lookupStabilitySig:vector  ETV
vector 8759  Network.dyn_peer[7]  lookupTimeSig:vector  ETV
vector 8763  Network.dyn_peer[9]  lookupHopsSig:vector  ETV
vector 8764  Network.dyn_peer[9]  lookupStabilitySig:vector  ETV
vector 8765  Network.dyn_peer[9]  lookupTimeSig:vector  ETV
vector 8766  Network.dyn_peer[10]  lookupHopsSig:vector  ETV
vector 8767  Network.dyn_peer[10]  lookupStabilitySig:vector  ETV
vector 8768  Network.dyn_peer[10]  lookupTimeSig:vector  ETV
vector 8787  Network.dyn_peer[17]  lookupHopsSig:vector  ETV
vector 8788  Network.dyn_peer[17]  lookupStabilitySig:vector  ETV
vector 8789  Network.dyn_peer[17]  lookupTimeSig:vector  ETV
vector 8805  Network.dyn_peer[23]  lookupHopsSig:vector  ETV
vector 8806  Network.dyn_peer[23]  lookupStabilitySig:vector  ETV
vector 8807  Network.dyn_peer[23]  lookupTimeSig:vector  ETV
vector 8811  Network.dyn_peer[25]  lookupHopsSig:vector  ETV
vector 8812  Network.dyn_peer[25]  lookupStabilitySig:vector  ETV
vector 8813  Network.dyn_peer[25]  lookupTimeSig:vector  ETV
vector 8817  Network.dyn_peer[27]  lookupHopsSig:vector  ETV
vector 8818  Network.dyn_peer[27]  lookupStabilitySig:vector  ETV
vector 8819  Network.dyn_peer[27]  lookupTimeSig:vector  ETV
vector 8820  Network.dyn_peer[28]  lookupHopsSig:vector  ETV
vector 8821  Network.dyn_peer[28]  lookupStabilitySig:vector  ETV
vector 8822  Network.dyn_peer[28]  lookupTimeSig:vector  ETV
vector 8826  Network.dyn_peer[30]  lookupHopsSig:vector  ETV
vector 8827  Network.dyn_peer[30]  lookupStabilitySig:vector  ETV
vector 8828  Network.dyn_peer[30]  lookupTimeSig:vector  ETV
vector 8751  Network.dyn_peer[5]  lookupHopsSig:vector  ETV
vector 8752  Network.dyn_peer[5]  lookupStabilitySig:vector  ETV
vector 8753  Network.dyn_peer[5]  lookupTimeSig:vector  ETV
vector 8754  Network.dyn_peer[6]  lookupHopsSig:vector  ETV
vector 8755  Network.dyn_peer[6]  lookupStabilitySig:vector  ETV
vector 8756  Network.dyn_peer[6]  lookupTimeSig:vector  ETV
vector 8760  Network.dyn_peer[8]  lookupHopsSig:vector  ETV
vector 8761  Network.dyn_peer[8]  lookupStabilitySig:vector  ETV
vector 8762  Network.dyn_peer[8]  lookupTimeSig:vector  ETV
vector 8769  Network.dyn_peer[11]  lookupHopsSig:vector  ETV
vector 8770  Network.dyn_peer[11]  lookupStabilitySig:vector  ETV
vector 8771  Network.dyn_peer[11]  lookupTimeSig:vector  ETV
vector 8778  Network.dyn_peer[14]  lookupHopsSig:vector  ETV
vector 8779  Network.dyn_peer[14]  lookupStabilitySig:vector  ETV
vector 8780  Network.dyn_peer[14]  lookupTimeSig:vector  ETV
vector 8793  Network.dyn_peer[19]  lookupHopsSig:vector  ETV
vector 8794  Network.dyn_peer[19]  lookupStabilitySig:vector  ETV
vector 8795  Network.dyn_peer[19]  lookupTimeSig:vector  ETV
vector 8796  Network.dyn_peer[20]  lookupHopsSig:vector  ETV
vector 8797  Network.dyn_peer[20]  lookupStabilitySig:vector  ETV
vector 8798  Network.dyn_peer[20]  lookupTimeSig:vector  ETV
vector 8799  Network.dyn_peer[21]  lookupHopsSig:vector  ETV
vector 8800  Network.dyn_peer[21]  lookupStabilitySig:vector  ETV
vector 8801  Network.dyn_peer[21]  lookupTimeSig:vector  ETV
vector 8802  Network.dyn_peer[22]  lookupHopsSig:vector  ETV
vector 8803  Network.dyn_peer[22]  lookupStabilitySig:vector  ETV
vector 8804  Network.dyn_peer[22]  lookupTimeSig:vector  ETV
vector 8775  Network.dyn_peer[13]  lookupHopsSig:vector  ETV
vector 8776  Network.dyn_peer[13]  lookupStabilitySig:vector  ETV
vector 8777  Network.dyn_peer[13]  lookupTimeSig:vector  ETV
vector 8781  Network.dyn_peer[15]  lookupHopsSig:vector  ETV
vector 8782  Network.dyn_peer[15]  lookupStabilitySig:vector  ETV
vector 8783  Network.dyn_peer[15]  lookupTimeSig:vector  ETV
vector 8829  Network.dyn_peer[31]  lookupHopsSig:vector  ETV
vector 8830  Network.dyn_peer[31]  lookupStabilitySig:vector  ETV
vector 8831  Network.dyn_peer[31]  lookupTimeSig:vector  ETV
vector 8745  Network.dyn_peer[3]  lookupHopsSig:vector  ETV
vector 8746  Network.dyn_peer[3]  lookupStabilitySig:vector  ETV
vector 8747  Network.dyn_peer[3]  lookupTimeSig:vector  ETV
vector 8790  Network.dyn_peer[18]  lookupHopsSig:vector  ETV
vector 8791  Network.dyn_peer[18]  lookupStabilitySig:vector  ETV
vector 8792  Network.dyn_peer[18]  lookupTimeSig:vector  ETV
vector 8823  Network.dyn_peer[29]  lookupHopsSig:vector  ETV
vector 8824  Network.dyn_peer[29]  lookupStabilitySig:vector  ETV
vector 8825  Network.dyn_peer[29]  lookupTimeSig:vector  ETV
vector 8772  Network.dyn_peer[12]  lookupHopsSig:vector  ETV
vector 8773  Network.dyn_peer[12]  lookupStabilitySig:vector  ETV
vector 8774  Network.dyn_peer[12]  lookupTimeSig:vector  ETV
vector 8808  Network.dyn_peer[24]  lookupHopsSig:vector  ETV
vector 8809  Network.dyn_peer[24]  lookupStabilitySig:vector  ETV
vector 8810  Network.dyn_peer[24]  lookupTimeSig:vector  ETV
vector 8814  Network.dyn_peer[26]  lookupHopsSig:vector  ETV
vector 8815  Network.dyn_peer[26]  lookupStabilitySig:vector  ETV
vector 8816  Network.dyn_peer[26]  lookupTimeSig:vector  ETV
8736	28	20.000001	0
8736	338	20.400001	3
8736	682	20.803540223071	3
8736	1018	21.205367126481	3
8736	1352	21.508745997841	2
8736	1812	21.911184669568	4
8736	2300	22.311184669568	3
8736	2754	22.611665914939	2
8736	2882	22.711210470567	2
8736	3243	22.946426504889	1
8736	3304	23.019346408912	1
8736	3805	23.45336617692	4
8736	4563	24.058989077762	6
8736	5022	24.458989077762	3
8736	5264	24.661401869341	2
8736	5772	25.061401869341	3
8736	5992	25.261502869341	2
8736	6511	25.661502869341	4
8736	7182	26.369736387482	6
8736	7781	26.938505983929	6
8736	7787	26.938605983929	2
8736	8287	27.274133146975	3
8736	8913	27.774234146975	6
8736	9248	28.074234146975	2
8736	10022	28.847775801131	4
8736	10074	28.876131698315	8
8736	10549	29.372899523815	1
8736	10565	29.373000523815	0
8736	11405	30.085201556314	1
8736	12033	30.673000523815	13
8736	12418	30.982765826416	3
8736	12697	31.286383932734	2
8736	12932	31.486484932734	2
8736	14038	32.386484932734	8
8736	14671	32.894990235003	5
8736	15149	33.205084522246	3
8736	15824	33.705084522246	4
8736	16116	33.925202596613	1
8736	16378	34.125303596613	2
8736	16994	34.725303596613	5
8736	17487	35.133613765215	4
8736	17744	35.334659763426	2
8736	17926	35.514439499433	2
8736	18042	35.541739310564	1
8736	18104	35.619493436729	8
8736	18906	36.229284145649	6
8736	19778	36.929284145649	7
8736	20230	37.333679220097	3
8736	20670	37.635742035612	4
8736	20977	37.837094804067	3
8736	21222	38.037094804067	1
8736	21739	38.442134233852	5
8736	22216	38.842487708488	7
8736	22720	39.242588708488	4
8736	23223	39.642588708488	3
8736	23575	39.952318068883	2
8736	23978	40.261385235768	2
8736	24018	40.298880308015	5
8736	24331	40.502440541931	2
8736	25143	41.100269248457	4
8736	25546	41.400269248457	2
8736	26088	41.900548462895	4
8736	26236	42.01801583212	3
8736	26512	42.308144577575	4
8736	26779	42.508245577575	2
8736	27102	42.808245577575	2
8736	27493	43.116201120231	2
8736	28179	43.718276263211	6
8736	28599	44.049369468323	1
8736	29495	44.749369468323	6
8736	29707	44.948675224845	4
8736	30221	45.348776224845	5
8736	30615	45.748776224845	3
8736	31035	46.151459330076	3
8736	31317	46.458978275307	3
8736	32157	47.168387182625	3
8736	32497	47.471751708846	11
8736	32598	47.568590990984	3
8736	32605	47.573472676933	3
8736	32708	47.673573676933	1
8736	33861	48.75582465952	4
8736	34020	48.873573676933	13
8736	34251	49.061686270916	2
8736	34571	49.286916479161	3
8736	34825	49.485562581279	4
8736	35050	49.668105917965	7
8736	35689	50.168206917965	5
8736	35940	50.368206917965	1
8736	36743	51.195971513494	7
8736	37530	51.880824657149	2
8736	37837	52.081404014668	2
8736	38680	52.781404014668	6
8736	38923	52.982522430057	1
8736	39779	53.782623430057	8
8736	41189	54.921755802619	12
8736	41392	55.121755802619	1
8736	41676	55.329240719425	2
8736	42090	55.729240719425	3
8736	42804	56.429749561921	6
8736	42806	56.429938552534	6
8736	43287	56.833430498662	5
8736	43543	57.03495386503	6
8736	43986	57.33505486503	4
8736	44790	57.93505486503	5
8736	45249	58.345104690311	3
8736	45628	58.647416757969	2
8736	45816	58.847699064253	1
8736	45965	58.952733404192	1
8736	46523	59.352733404192	4
8736	46801	59.556962558774	1
8736	47632	60.274991110211	7
8736	48010	60.579630096765	3
8736	48236	60.779630096765	1
8736	48490	60.982931019531	1
8736	48620	61.097682069195	1
8736	48967	61.386168608688	3
8736	49244	61.594417913712	2
8736	49597	61.894417913712	2
8736	50232	62.39780049411	6
8736	50501	62.598959925518	2
8736	51601	63.599060925518	13
8736	52609	64.499060925518	9
8736	53051	64.807348615683	2
8736	53620	65.20952163774	3
8736	53723	65.295469352972	11
8736	53910	65.41193039308	3
8736	54531	66.014288931468	7
8736	55958	67.215362890163	7
8736	57273	68.325559672008	1
8736	57948	68.825660672008	5
8736	58342	69.125660672008	3
8736	59501	70.035125382334	9
8736	59824	70.335125382334	2
8736	60083	70.536010711871	1
8736	61224	71.437022822477	9
8736	62406	72.437022822477	11
8736	63015	72.941031972161	4
8736	63032	72.945868243612	0
8736	64494	73.945868243612	11
8736	64870	74.253919291002	2
8736	65172	74.555886814812	2
8736	67803	76.456731566868	21
8736	68024	76.656731566868	1
8736	68589	77.167497283547	4
8736	68883	77.373154502294	3
8736	69228	77.673154502294	2
8736	70161	78.388345476994	6
8736	70846	78.880450370856	14
8736	71112	79.081001175192	1
8736	71212	79.169872114049	1
8736	71260	79.210815682499	7
8736	71667	79.514154781793	4
8736	72395	80.214154781793	6
8736	73094	80.823306237986	5
8736	73885	81.432687039729	5
8736	74647	82.142128003035	6
8736	74654	82.152245048801	7
8736	74869	82.350914809697	1
8736	74892	82.362036858162	1
8736	74941	82.374411081635	1
8736	75563	82.885066988833	4
8736	75565	82.885353937868	4
8736	76810	83.885454937868	10
8736	77435	84.585454937868	6
8736	77711	84.794588047441	1
8736	77997	85.020949920613	1
8736	78371	85.326116795729	2
8736	78454	85.417756629189	2
8736	78570	85.533534296572	1
8736	78795	85.736644883533	1
8736	79408	86.33773123756	5
8736	79761	86.638784307473	2
8736	79830	86.719087020122	14
8736	80144	86.92836809029	2
8736	80372	87.12836809029	1
8736	80725	87.431585069369	1
8736	81267	87.837663332947	4
8736	81695	88.137663332947	2
8736	82193	88.641658296851	6
8736	82504	88.933998999768	1
8736	82789	89.239469399817	2
8736	82809	89.24438301407	6
8736	83147	89.544797204689	3
8736	83473	89.830774141698	0
8736	84170	90.530774141698	6
8736	84320	90.630875141698	1
8736	84907	91.130875141698	5
8736	85901	91.937197809683	8
8736	86354	92.344444193688	3
8736	87952	93.646980174485	14
8736	89033	94.546980174485	10
8736	89319	94.848482235684	2
8736	90066	95.482475767963	5
8736	90493	95.794385042733	2
8736	90585	95.852306117459	10
8736	90728	95.982575767963	8
8736	91066	96.284979299251	3
8736	91442	96.584979299251	3
8736	91894	96.974568518767	4
8736	92177	97.211012607926	5
8736	92411	97.418145691239	1
8736	92479	97.479921209499	4
8736	92688	97.629481740001	1
8736	92705	97.635538592773	1
8736	92735	97.692454452612	1
8736	92892	97.793961039861	1
8736	93586	98.393961039861	5
8736	94247	98.913385107886	3
8736	94329	98.99933485768	6
8736	94802	99.396224849019	4
8736	94812	99.40890567724	3
8736	94838	99.420406621925	5
8736	95065	99.622341784298	2
8736	95998	100.322341784298	6
8736	96350	100.626220705698	2
8736	97035	101.230227300995	5
8736	97191	101.352948261659	5
8736	97735	101.761105416716	3
8736	97830	101.844341801552	3
8736	98129	102.045403190522	2
8736	98398	102.245403190522	1
8736	98673	102.454299712086	1
8736	98939	102.655917513112	1
8736	99111	102.83154987131	1
8736	99793	103.332706131424	5
8736	100538	103.932706131424	6
8736	101156	104.43708524528	4
8736	101293	104.545327853262	0
8736	101548	104.748708266538	1
8736	101882	105.051001168767	4
8736	102059	105.251001168767	1
8736	102619	105.775568660991	3
8736	102712	105.857167983907	7
8736	103557	106.559199882251	9
8736	104369	107.259199882251	7
8736	104952	107.861510201991	5
8736	105159	108.014555988238	3
8736	105439	108.270035623687	3
8736	105686	108.478558611218	1
8736	105985	108.723640353496	6
8736	106529	109.127368267788	5
8736	107355	109.727368267788	6
8736	108097	110.238828234282	5
8736	108635	110.593830162817	3
8736	109074	110.900153464085	2
8736	109601	111.305685120523	4
8736	109949	111.605685120523	2
8736	110292	111.905885120523	2
8736	110506	112.105986120523	2
8736	111443	112.905986120523	7
8736	112553	113.712658224821	8
8736	113096	114.112658224821	4
8736	113767	114.619497919555	4
8736	114726	115.329104888757	6
8736	115522	115.929204462867	5
8736	115621	115.981317546479	16
8736	116309	116.58085738568	7
8736	116448	116.690731165443	6
8736	116460	116.735500673793	7
8736	118230	118.139872902497	17
8736	119275	119.14234151049	9
8736	119971	119.765430623818	2
8736	120207	119.950185752058	7
8736	120245	120.001038043544	3
8736	120957	120.505506397825	5
8736	121393	120.805506397825	2
8736	122184	121.305706397825	4
8736	122191	121.310359352709	4
8736	122829	121.813766233722	4
8736	122852	121.818668938726	4
8736	122897	121.83164961174	3
8736	123595	122.438995197513	6
8736	123929	122.738995197513	2
8736	124602	123.34883886841	6
8736	125536	124.14883886841	8
8736	125986	124.540950154161	6
8736	126258	124.746768245351	2
8736	126381	124.849881958953	6
8736	126579	125.048632759857	4
8736	126637	125.06280695877	2
8736	127112	125.456003095244	4
8736	127359	125.662729236372	2
8736	127921	126.170653198932	5
8736	127931	126.173931383926	2
8736	128327	126.556667499822	2
8736	128699	126.856768499822	3
8736	129440	127.456768499822	7
8736	130358	128.266759727003	7
8736	130587	128.472122166691	1
8736	130610	128.475977720925	0
8736	130876	128.775977720925	2
8736	130971	128.880312757577	1
8736	131221	129.089154697087	1
8736	131556	129.298448626146	1
8736	131660	129.385330685681	1
8736	131937	129.574851767621	6
8736	132236	129.775403669652	2
8736	133047	130.375403669652	5
8736	133480	130.771304935987	7
8736	133541	130.800130862162	2
8736	133757	130.979170601303	5
8736	134894	131.887788712142	10
8736	135215	132.187788712142	2
8737	28	20.000001	1
8737	338	20.400001	0.625
8737	682	20.803540223071	0.625
8737	1018	21.205367126481	0.625
8737	1352	21.508745997841	0.75
8737	1812	21.911184669568	0.5
8737	2300	22.311184669568	0.625
8737	2754	22.611665914939	0.75
8737	2882	22.711210470567	0.75
8737	3243	22.946426504889	0.875
8737	3304	23.019346408912	0.875
8737	3805	23.45336617692	0.5
8737	4563	24.058989077762	0.25
8737	5022	24.458989077762	0.625
8737	5264	24.661401869341	0.75
8737	5772	25.061401869341	0.625
8737	5992	25.261502869341	0.75
8737	6511	25.661502869341	0.5
8737	7182	26.369736387482	0.25
8737	7781	26.938505983929	0.25
8737	7787	26.938605983929	0.75
8737	8287	27.274133146975	0.625
8737	8913	27.774234146975	0.25
8737	9248	28.074234146975	0.75
8737	10022	28.847775801131	0.5
8737	10074	28.876131698315	0
8737	10549	29.372899523815	0.875
8737	10565	29.373000523815	1
8737	11405	30.085201556314	0.875
8737	12033	30.673000523815	-0.625
8737	12418	30.982765826416	0.625
8737	12697	31.286383932734	0.75
8737	12932	31.486484932734	0.75
8737	14038	32.386484932734	0
8737	14671	32.894990235003	0.375
8737	15149	33.205084522246	0.625
8737	15824	33.705084522246	0.5
8737	16116	33.925202596613	0.875
8737	16378	34.125303596613	0.75
8737	16994	34.725303596613	0.375
8737	17487	35.133613765215	0.5
8737	17744	35.334659763426	0.75
8737	17926	35.514439499433	0.75
8737	18042	35.541739310564	0.875
8737	18104	35.619493436729	0
8737	18906	36.229284145649	0.25
8737	19778	36.929284145649	0.125
8737	20230	37.333679220097	0.625
8737	20670	37.635742035612	0.5
8737	20977	37.837094804067	0.625
8737	21222	38.037094804067	0.875
8737	21739	38.442134233852	0.375
8737	22216	38.842487708488	0.125
8737	22720	39.242588708488	0.5
8737	23223	39.642588708488	0.625
8737	23575	39.952318068883	0.75
8737	23978	40.261385235768	0.75
8737	24018	40.298880308015	0.375
8737	24331	40.502440541931	0.75
8737	25143	41.100269248457	0.5
8737	25546	41.400269248457	0.75
8737	26088	41.900548462895	0.5
8737	26236	42.01801583212	0.625
8737	26512	42.308144577575	0.5
8737	26779	42.508245577575	0.75
8737	27102	42.808245577575	0.75
8737	27493	43.116201120231	0.75
8737	28179	43.718276263211	0.25
8737	28599	44.049369468323	0.875
8737	29495	44.749369468323	0.25
8737	29707	44.948675224845	0.5
8737	30221	45.348776224845	0.375
8737	30615	45.748776224845	0.625
8737	31035	46.151459330076	0.625
8737	31317	46.458978275307	0.625
8737	32157	47.168387182625	0.625
8737	32497	47.471751708846	-0.375
8737	32598	47.568590990984	0.625
8737	32605	47.573472676933	0.625
8737	32708	47.673573676933	0.875
8737	33861	48.75582465952	0.5
8737	34020	48.873573676933	-0.625
8737	34251	49.061686270916	0.75
8737	34571	49.286916479161	0.625
8737	34825	49.485562581279	0.5
8737	35050	49.668105917965	0.125
8737	35689	50.168206917965	0.375
8737	35940	50.368206917965	0.875
8737	36743	51.195971513494	0.125
8737	37530	51.880824657149	0.75
8737	37837	52.081404014668	0.75
8737	38680	52.781404014668	0.25
8737	38923	52.982522430057	0.875
8737	39779	53.782623430057	0
8737	41189	54.921755802619	-0.5
8737	41392	55.121755802619	0.875
8737	41676	55.329240719425	0.77777777612209
8737	42090	55.729240719425	0.625
8737	42804	56.429749561921	0.25
8737	42806	56.429938552534	0.25
8737	43287	56.833430498662	0.375
8737	43543	57.03495386503	0.25
8737	43986	57.33505486503	0.5
8737	44790	57.93505486503	0.375
8737	45249	58.345104690311	0.625
8737	45628	58.647416757969	0.75
8737	45816	58.847699064253	0.875
8737	45965	58.952733404192	0.875
8737	46523	59.352733404192	0.5
8737	46801	59.556962558774	0.875
8737	47632	60.274991110211	0.125
8737	48010	60.579630096765	0.625
8737	48236	60.779630096765	0.875
8737	48490	60.982931019531	0.875
8737	48620	61.097682069195	0.875
8737	48967	61.386168608688	0.625
8737	49244	61.594417913712	0.75
8737	49597	61.894417913712	0.75
8737	50232	62.39780049411	0.25
8737	50501	62.598959925518	0.75
8737	51601	63.599060925518	-0.625
8737	52609	64.499060925518	-0.125
8737	53051	64.807348615683	0.75
8737	53620	65.20952163774	0.625
8737	53723	65.295469352972	-0.375
8737	53910	65.41193039308	0.625
8737	54531	66.014288931468	0.125
8737	55958	67.215362890163	0.125
8737	57273	68.325559672008	0.875
8737	57948	68.825660672008	0.375
8737	58342	69.125660672008	0.625
8737	59501	70.035125382334	-0.125
8737	59824	70.335125382334	0.75
8737	60083	70.536010711871	0.875
8737	61224	71.437022822477	-0.125
8737	62406	72.437022822477	-0.375
8737	63015	72.941031972161	0.5
8737	63032	72.945868243612	1
8737	64494	73.945868243612	-0.375
8737	64870	74.253919291002	0.75
8737	65172	74.555886814812	0.75
8737	67803	76.456731566868	-1.625
8737	68024	76.656731566868	0.875
8737	68589	77.167497283547	0.5
8737	68883	77.373154502294	0.625
8737	69228	77.673154502294	0.75
8737	70161	78.388345476994	0.25
8737	70846	78.880450370856	-0.75
8737	71112	79.081001175192	0.875
8737	71212	79.169872114049	0.875
8737	71260	79.210815682499	0.125
8737	71667	79.514154781793	0.55555555224419
8737	72395	80.214154781793	0.25
8737	73094	80.823306237986	0.375
8737	73885	81.432687039729	0.375
8737	74647	82.142128003035	0.25
8737	74654	82.152245048801	0.125
8737	74869	82.350914809697	0.875
8737	74892	82.362036858162	0.875
8737	74941	82.374411081635	0.875
8737	75563	82.885066988833	0.5
8737	75565	82.885353937868	0.5
8737	76810	83.885454937868	-0.25
8737	77435	84.585454937868	0.25
8737	77711	84.794588047441	0.875
8737	77997	85.020949920613	0.875
8737	78371	85.326116795729	0.75
8737	78454	85.417756629189	0.75
8737	78570	85.533534296572	0.875
8737	78795	85.736644883533	0.875
8737	79408	86.33773123756	0.375
8737	79761	86.638784307473	0.75
8737	79830	86.719087020122	-0.75
8737	80144	86.92836809029	0.75
8737	80372	87.12836809029	0.875
8737	80725	87.431585069369	0.875
8737	81267	87.837663332947	0.5
8737	81695	88.137663332947	0.75
8737	82193	88.641658296851	0.25
8737	82504	88.933998999768	0.875
8737	82789	89.239469399817	0.75
8737	82809	89.24438301407	0.25
8737	83147	89.544797204689	0.625
8737	83473	89.830774141698	1
8737	84170	90.530774141698	0.25
8737	84320	90.630875141698	0.875
8737	84907	91.130875141698	0.375
8737	85901	91.937197809683	0
8737	86354	92.344444193688	0.625
8737	87952	93.646980174485	-0.75
8737	89033	94.546980174485	-0.25
8737	89319	94.848482235684	0.75
8737	90066	95.482475767963	0.375
8737	90493	95.794385042733	0.75
8737	90585	95.852306117459	-0.25
8737	90728	95.982575767963	0
8737	91066	96.284979299251	0.625
8737	91442	96.584979299251	0.625
8737	91894	96.974568518767	0.5
8737	92177	97.211012607926	0.375
8737	92411	97.418145691239	0.875
8737	92479	97.479921209499	0.5
8737	92688	97.629481740001	0.875
8737	92705	97.635538592773	0.875
8737	92735	97.692454452612	0.875
8737	92892	97.793961039861	0.875
8737	93586	98.393961039861	0.375
8737	94247	98.913385107886	0.625
8737	94329	98.99933485768	0.25
8737	94802	99.396224849019	0.5
8737	94812	99.40890567724	0.625
8737	94838	99.420406621925	0.375
8737	95065	99.622341784298	0.75
8737	95998	100.322341784298	0.25
8737	96350	100.626220705698	0.75
8737	97035	101.230227300995	0.375
8737	97191	101.352948261659	0.375
8737	97735	101.761105416716	0.625
8737	97830	101.844341801552	0.625
8737	98129	102.045403190522	0.75
8737	98398	102.245403190522	0.875
8737	98673	102.454299712086	0.875
8737	98939	102.655917513112	0.875
8737	99111	102.83154987131	0.875
8737	99793	103.332706131424	0.375
8737	100538	103.932706131424	0.25
8737	101156	104.43708524528	0.5
8737	101293	104.545327853262	1
8737	101548	104.748708266538	0.875
8737	101882	105.051001168767	0.5
8737	102059	105.251001168767	0.875
8737	102619	105.775568660991	0.625
8737	102712	105.857167983907	0.125
8737	103557	106.559199882251	-0.125
8737	104369	107.259199882251	0.125
8737	104952	107.861510201991	0.375
8737	105159	108.014555988238	0.625
8737	105439	108.270035623687	0.625
8737	105686	108.478558611218	0.875
8737	105985	108.723640353496	0.25
8737	106529	109.127368267788	0.375
8737	107355	109.727368267788	0.25
8737	108097	110.238828234282	0.375
8737	108635	110.593830162817	0.625
8737	109074	110.900153464085	0.75
8737	109601	111.305685120523	0.5
8737	109949	111.605685120523	0.75
8737	110292	111.905885120523	0.75
8737	110506	112.105986120523	0.75
8737	111443	112.905986120523	0.125
8737	112553	113.712658224821	0
8737	113096	114.112658224821	0.5
8737	113767	114.619497919555	0.5
8737	114726	115.329104888757	0.25
8737	115522	115.929204462867	0.375
8737	115621	115.981317546479	-1
8737	116309	116.58085738568	0.125
8737	116448	116.690731165443	0.25
8737	116460	116.735500673793	0.125
8737	118230	118.139872902497	-1.125
8737	119275	119.14234151049	-0.125
8737	119971	119.765430623818	0.75
8737	120207	119.950185752058	0.125
8737	120245	120.001038043544	0.625
8737	120957	120.505506397825	0.375
8737	121393	120.805506397825	0.75
8737	122184	121.305706397825	0.5
8737	122191	121.310359352709	0.5
8737	122829	121.813766233722	0.5
8737	122852	121.818668938726	0.5
8737	122897	121.83164961174	0.625
8737	123595	122.438995197513	0.25
8737	123929	122.738995197513	0.75
8737	124602	123.34883886841	0.25
8737	125536	124.14883886841	0
8737	125986	124.540950154161	0.25
8737	126258	124.746768245351	0.75
8737	126381	124.849881958953	0.25
8737	126579	125.048632759857	0.5
8737	126637	125.06280695877	0.75
8737	127112	125.456003095244	0.5
8737	127359	125.662729236372	0.75
8737	127921	126.170653198932	0.375
8737	127931	126.173931383926	0.75
8737	128327	126.556667499822	0.75
8737	128699	126.856768499822	0.625
8737	129440	127.456768499822	0.125
8737	130358	128.266759727003	0.125
8737	130587	128.472122166691	0.875
8737	130610	128.475977720925	1
8737	130876	128.775977720925	0.75
8737	130971	128.880312757577	0.875
8737	131221	129.089154697087	0.875
8737	131556	129.298448626146	0.875
8737	131660	129.385330685681	0.875
8737	131937	129.574851767621	0.25
8737	132236	129.775403669652	0.75
8737	133047	130.375403669652	0.375
8737	133480	130.771304935987	0.125
8737	133541	130.800130862162	0.75
8737	133757	130.979170601303	0.375
8737	134894	131.887788712142	-0.25
8737	135215	132.187788712142	0.75
8738	28	20.000001	0
8738	338	20.400001	0.4
8738	682	20.803540223071	0.4
8738	1018	21.205367126481	0.4
8738	1352	21.508745997841	0.3
8738	1812	21.911184669568	0.4
8738	2300	22.311184669568	0.4
8738	2754	22.611665914939	0.3
8738	2882	22.711210470567	0.3
8738	3243	22.946426504889	0.1
8738	3304	23.019346408912	0.1
8738	3805	23.45336617692	0.5
8738	4563	24.058989077762	0.6
8738	5022	24.458989077762	0.4
8738	5264	24.661401869341	0.2
8738	5772	25.061401869341	0.4
8738	5992	25.261502869341	0.2
8738	6511	25.661502869341	0.4
8738	7182	26.369736387482	0.7
8738	7781	26.938505983929	0.6
8738	7787	26.938605983929	0.3
8738	8287	27.274133146975	0.4
8738	8913	27.774234146975	0.5
8738	9248	28.074234146975	0.3
8738	10022	28.847775801131	0.5
8738	10074	28.876131698315	0.8
8738	10549	29.372899523815	0.2
8738	10565	29.373000523815	0
8738	11405	30.085201556314	0.2
8738	12033	30.673000523815	1.3
8738	12418	30.982765826416	0.3
8738	12697	31.286383932734	0.3
8738	12932	31.486484932734	0.2
8738	14038	32.386484932734	0.9
8738	14671	32.894990235003	0.5
8738	15149	33.205084522246	0.3
8738	15824	33.705084522246	0.5
8738	16116	33.925202596613	0.2
8738	16378	34.125303596613	0.2
8738	16994	34.725303596613	0.6
8738	17487	35.133613765215	0.4
8738	17744	35.334659763426	0.2
8738	17926	35.514439499433	0.3
8738	18042	35.541739310564	0.2
8738	18104	35.619493436729	0.8
8738	18906	36.229284145649	0.6
8738	19778	36.929284145649	0.7
8738	20230	37.333679220097	0.4
8738	20670	37.635742035612	0.5
8738	20977	37.837094804067	0.2
8738	21222	38.037094804067	0.2
8738	21739	38.442134233852	0.4
8738	22216	38.842487708488	0.8
8738	22720	39.242588708488	0.4
8738	23223	39.642588708488	0.4
8738	23575	39.952318068883	0.3
8738	23978	40.261385235768	0.3
8738	24018	40.298880308015	0.6
8738	24331	40.502440541931	0.2
8738	25143	41.100269248457	0.3
8738	25546	41.400269248457	0.3
8738	26088	41.900548462895	0.5
8738	26236	42.01801583212	0.4
8738	26512	42.308144577575	0.4
8738	26779	42.508245577575	0.2
8738	27102	42.808245577575	0.3
8738	27493	43.116201120231	0.3
8738	28179	43.718276263211	0.6
8738	28599	44.049369468323	0.1
8738	29495	44.749369468323	0.7
8738	29707	44.948675224845	0.5
8738	30221	45.348776224845	0.4
8738	30615	45.748776224845	0.4
8738	31035	46.151459330076	0.4
8738	31317	46.458978275307	0.3
8738	32157	47.168387182625	0.4
8738	32497	47.471751708846	1
8738	32598	47.568590990984	0.4
8738	32605	47.573472676933	0.4
8738	32708	47.673573676933	0.1
8738	33861	48.75582465952	0.5
8738	34020	48.873573676933	1.2
8738	34251	49.061686270916	0.3
8738	34571	49.286916479161	0.4
8738	34825	49.485562581279	0.5
8738	35050	49.668105917965	0.6
8738	35689	50.168206917965	0.5
8738	35940	50.368206917965	0.2
8738	36743	51.195971513494	0.8
8738	37530	51.880824657149	0.3
8738	37837	52.081404014668	0.2
8738	38680	52.781404014668	0.7
8738	38923	52.982522430057	0.2
8738	39779	53.782623430057	0.8
8738	41189	54.921755802619	1
8738	41392	55.121755802619	0.2
8738	41676	55.329240719425	0.2
8738	42090	55.729240719425	0.4
8738	42804	56.429749561921	0.7
8738	42806	56.429938552534	0.7
8738	43287	56.833430498662	0.6
8738	43543	57.03495386503	0.6
8738	43986	57.33505486503	0.3
8738	44790	57.93505486503	0.6
8738	45249	58.345104690311	0.4
8738	45628	58.647416757969	0.3
8738	45816	58.847699064253	0.2
8738	45965	58.952733404192	0.1
8738	46523	59.352733404192	0.4
8738	46801	59.556962558774	0.2
8738	47632	60.274991110211	0.8
8738	48010	60.579630096765	0.3
8738	48236	60.779630096765	0.2
8738	48490	60.982931019531	0.2
8738	48620	61.097682069195	0.2
8738	48967	61.386168608688	0.4
8738	49244	61.594417913712	0.2
8738	49597	61.894417913712	0.3
8738	50232	62.39780049411	0.5
8738	50501	62.598959925518	0.2
8738	51601	63.599060925518	1
8738	52609	64.499060925518	0.9
8738	53051	64.807348615683	0.3
8738	53620	65.20952163774	0.4
8738	53723	65.295469352972	1
8738	53910	65.41193039308	0.4
8738	54531	66.014288931468	0.6
8738	55958	67.215362890163	0.7
8738	57273	68.325559672008	0.2
8738	57948	68.825660672008	0.5
8738	58342	69.125660672008	0.3
8738	59501	70.035125382334	0.9
8738	59824	70.335125382334	0.3
8738	60083	70.536010711871	0.2
8738	61224	71.437022822477	0.9
8738	62406	72.437022822477	1
8738	63015	72.941031972161	0.5
8738	63032	72.945868243612	0
8738	64494	73.945868243612	1
8738	64870	74.253919291002	0.3
8738	65172	74.555886814812	0.3
8738	67803	76.456731566868	1.9
8738	68024	76.656731566868	0.2
8738	68589	77.167497283547	0.5
8738	68883	77.373154502294	0.2
8738	69228	77.673154502294	0.3
8738	70161	78.388345476994	0.7
8738	70846	78.880450370856	1.2
8738	71112	79.081001175192	0.2
8738	71212	79.169872114049	0.2
8738	71260	79.210815682499	0.8
8738	71667	79.514154781793	0.3
8738	72395	80.214154781793	0.7
8738	73094	80.823306237986	0.6
8738	73885	81.432687039729	0.6
8738	74647	82.142128003035	0.7