file 932025 1369674156                                          
version 2
run Stability-norelink-140-20130525-23:23:23-22103
attr configname Stability-norelink
attr datetime 20130525-23:23:23
attr experiment Stability
attr inifile omnetpp.ini
attr iterationvars $0=1e-8
attr iterationvars2 "$0=1e-8, $repetition=0"
attr measurement $0=1e-8
attr network Network
attr processid 22103
attr repetition 0
attr replication #0
attr resultdir results
attr runnumber 140
attr seedset 140
vector 13485  Network.dyn_peer[15]  lookupHopsSig:vector  ETV
13485	445539 9092 75 136479 20.00000000016 135.081044622829 299 0 27 1266 8684
vector 13486  Network.dyn_peer[15]  lookupStabilitySig:vector  ETV
13486	454631 10104 75 136479 20.00000000016 135.081044622829 299 -2.375 1 140.88888885081 118.34722218249
vector 13487  Network.dyn_peer[15]  lookupTimeSig:vector  ETV
13487	464735 9652 75 136479 20.00000000016 135.081044622829 299 0 2.6 141.8 93.44
vector 13488  Network.dyn_peer[16]  lookupHopsSig:vector  ETV
13488	474387 8716 82 136177 20.00000000017 134.818387676135 286 0 17 1227 8301
vector 13489  Network.dyn_peer[16]  lookupStabilitySig:vector  ETV
13489	483103 9639 82 136177 20.00000000017 134.818387676135 286 -1.125 1 132.625 108.953125
vector 13490  Network.dyn_peer[16]  lookupTimeSig:vector  ETV
13490	492742 9252 82 136177 20.00000000017 134.818387676135 286 0 1.6 135.9 88.51
vector 13497  Network.dyn_peer[19]  lookupHopsSig:vector  ETV
13497	558963 8598 95 137107 20.0000000002 136.225864238688 283 0 17 1237 8249
vector 13498  Network.dyn_peer[19]  lookupStabilitySig:vector  ETV
13498	567561 9550 95 137107 20.0000000002 136.225864238688 283 -1.125 1 128.38888888806 102.66512345532
vector 13499  Network.dyn_peer[19]  lookupTimeSig:vector  ETV
13499	577111 9111 95 137107 20.0000000002 136.225864238688 283 0 1.4 135.8 86.86
vector 13440  Network.dyn_peer[0]  lookupHopsSig:vector  ETV
13440	6498 9485 136 135993 20.10000000001 134.690534826338 312 0 17 1254 7880
vector 13441  Network.dyn_peer[0]  lookupStabilitySig:vector  ETV
13441	15983 10496 136 135993 20.10000000001 134.690534826338 312 -1.125 1 155.29166665673 121.6788194312
vector 13442  Network.dyn_peer[0]  lookupTimeSig:vector  ETV
13442	26479 10075 136 135993 20.10000000001 134.690534826338 312 0 1.6 143.2 88.64
vector 13443  Network.dyn_peer[1]  lookupHopsSig:vector  ETV
13443	36554 9258 141 136070 20.10000000002 134.729313186697 304 0 15 1283 8509
vector 13444  Network.dyn_peer[1]  lookupStabilitySig:vector  ETV
13444	45812 10279 141 136070 20.10000000002 134.729313186697 304 -0.875 1 143.68055555224 116.26176697163
vector 13445  Network.dyn_peer[1]  lookupTimeSig:vector  ETV
13445	56091 9815 141 136070 20.10000000002 134.729313186697 304 0 1.4 141.4 90.16
vector 13449  Network.dyn_peer[3]  lookupHopsSig:vector  ETV
13449	95950 8934 147 136542 20.10000000004 135.123170509729 294 0 29 1251 8287
vector 13450  Network.dyn_peer[3]  lookupStabilitySig:vector  ETV
13450	104884 9905 147 136542 20.10000000004 135.123170509729 294 -2.625 1 137.625 110.734375
vector 13451  Network.dyn_peer[3]  lookupTimeSig:vector  ETV
13451	114789 9486 147 136542 20.10000000004 135.123170509729 294 0 2.6 139 90.14
vector 13452  Network.dyn_peer[4]  lookupHopsSig:vector  ETV
13452	124275 9083 152 136018 20.10000000005 134.699656244294 298 0 17 1204 7874
vector 13453  Network.dyn_peer[4]  lookupStabilitySig:vector  ETV
13453	133358 10070 152 136018 20.10000000005 134.699656244294 298 -1.125 1 147.52777777612 120.07368826903
vector 13454  Network.dyn_peer[4]  lookupTimeSig:vector  ETV
13454	143428 9623 152 136018 20.10000000005 134.699656244294 298 0 1.7 133.3 84.21
vector 13455  Network.dyn_peer[5]  lookupHopsSig:vector  ETV
13455	153051 8840 157 136233 20.10000000006 134.871952463771 290 0 20 1276 8606
vector 13456  Network.dyn_peer[5]  lookupStabilitySig:vector  ETV
13456	161891 9808 157 136233 20.10000000006 134.871952463771 290 -1.5 1 130.58333331347 105.51736109787
vector 13457  Network.dyn_peer[5]  lookupTimeSig:vector  ETV
13457	171699 9378 157 136233 20.10000000006 134.871952463771 290 0 1.5 140.9 91.77
vector 13500  Network.dyn_peer[20]  lookupHopsSig:vector  ETV
13500	586222 9803 176 136902 20.10000000021 135.612556267437 322 0 18 1240 7572
vector 13501  Network.dyn_peer[20]  lookupStabilitySig:vector  ETV
13501	596025 10847 176 136902 20.10000000021 135.612556267437 322 -1.25 1 167.02777777612 130.35493826903
vector 13502  Network.dyn_peer[20]  lookupTimeSig:vector  ETV
13502	606872 10414 176 136902 20.10000000021 135.612556267437 322 0 1.5 141 83.38
vector 13530  Network.dyn_peer[30]  lookupHopsSig:vector  ETV
13530	875289 8960 190 136810 20.10000000031 135.423370509729 294 0 20 1248 8500
vector 13531  Network.dyn_peer[30]  lookupStabilitySig:vector  ETV
13531	884249 9926 190 136810 20.10000000031 135.423370509729 294 -1.5 1 138.01388888806 114.83699845532
vector 13532  Network.dyn_peer[30]  lookupTimeSig:vector  ETV
13532	894175 9501 190 136810 20.10000000031 135.423370509729 294 0 1.8 138.5 89.65
vector 13446  Network.dyn_peer[2]  lookupHopsSig:vector  ETV
13446	65906 9481 200 137009 20.20000000003 135.830341438165 312 0 38 1360 10590
vector 13447  Network.dyn_peer[2]  lookupStabilitySig:vector  ETV
13447	75387 10503 200 137009 20.20000000003 135.830341438165 312 -3.75 1 142.18055552244 137.62982250069
vector 13448  Network.dyn_peer[2]  lookupTimeSig:vector  ETV
13448	85890 10060 200 137009 20.20000000003 135.830341438165 312 0 3.4 149.7 106.97
vector 13458  Network.dyn_peer[6]  lookupHopsSig:vector  ETV
13458	181077 9500 207 135844 20.20000000007 134.520406729503 312 0 18 1198 7136
vector 13459  Network.dyn_peer[6]  lookupStabilitySig:vector  ETV
13459	190577 10511 207 135844 20.20000000007 134.520406729503 312 -1.25 1 162.34722220153 124.07310955318
vector 13460  Network.dyn_peer[6]  lookupTimeSig:vector  ETV
13460	201088 10093 207 135844 20.20000000007 134.520406729503 312 0 1.8 135.9 80.33
vector 13461  Network.dyn_peer[7]  lookupHopsSig:vector  ETV
13461	211181 9228 212 135672 20.20000000008 134.389243654119 303 0 18 1338 9110
vector 13462  Network.dyn_peer[7]  lookupStabilitySig:vector  ETV
13462	220409 10197 212 135672 20.20000000008 134.389243654119 303 -1.25 1 135.86111107469 110.95447527185
vector 13463  Network.dyn_peer[7]  lookupTimeSig:vector  ETV
13463	230606 9793 212 135672 20.20000000008 134.389243654119 303 0.1 1.8 148.1 98.07
vector 13476  Network.dyn_peer[12]  lookupHopsSig:vector  ETV
13476	357166 8720 221 137060 20.20000000013 135.992878166668 287 0 24 1310 10400
vector 13477  Network.dyn_peer[12]  lookupStabilitySig:vector  ETV
13477	365886 9668 221 137060 20.20000000013 135.992878166668 287 -2 1 123.40277777612 122.02681326903
vector 13478  Network.dyn_peer[12]  lookupTimeSig:vector  ETV
13478	375554 9247 221 137060 20.20000000013 135.992878166668 287 0 2.3 144.3 108.23
vector 13506  Network.dyn_peer[22]  lookupHopsSig:vector  ETV
13506	644636 9099 235 136710 20.20000000023 135.313939435703 299 0 23 1225 8149
vector 13507  Network.dyn_peer[22]  lookupStabilitySig:vector  ETV
13507	653735 10093 235 136710 20.20000000023 135.313939435703 299 -1.875 1 145.97222220898 120.11188271016
vector 13508  Network.dyn_peer[22]  lookupTimeSig:vector  ETV
13508	663828 9650 235 136710 20.20000000023 135.313939435703 299 0 1.9 137.7 88.51
vector 13524  Network.dyn_peer[28]  lookupHopsSig:vector  ETV
13524	815536 8611 245 136540 20.20000000029 135.12266032915 283 0 24 1177 7427
vector 13525  Network.dyn_peer[28]  lookupStabilitySig:vector  ETV
13525	824147 9526 245 136540 20.20000000029 135.12266032915 283 -2 1 135.875 104.796875
vector 13526  Network.dyn_peer[28]  lookupTimeSig:vector  ETV
13526	833673 9146 245 136540 20.20000000029 135.12266032915 283 0 2.2 133 82.86
vector 13527  Network.dyn_peer[29]  lookupHopsSig:vector  ETV
13527	842819 10244 250 136668 20.2000000003 135.286759349139 336 0 19 1313 8693
vector 13528  Network.dyn_peer[29]  lookupStabilitySig:vector  ETV
13528	853063 11356 250 136668 20.2000000003 135.286759349139 336 -1.375 1 171.97222220153 143.71026231772
vector 13529  Network.dyn_peer[29]  lookupTimeSig:vector  ETV
13529	864419 10870 250 136668 20.2000000003 135.286759349139 336 0 1.7 148.1 95.23
vector 13533  Network.dyn_peer[31]  lookupHopsSig:vector  ETV
13533	903676 8932 256 136670 20.20000000032 135.289136025441 293 0 18 1239 8303
vector 13534  Network.dyn_peer[31]  lookupStabilitySig:vector  ETV
13534	912608 9927 256 136670 20.20000000032 135.289136025441 293 -1.25 1 138.23611107469 113.09510027185
vector 13535  Network.dyn_peer[31]  lookupTimeSig:vector  ETV
13535	922535 9490 256 136670 20.20000000032 135.289136025441 293 0 1.7 139.4 91.76
vector 13464  Network.dyn_peer[8]  lookupHopsSig:vector  ETV
13464	240399 9803 277 136970 20.30000000009 135.729034670594 322 0 24 1302 8750
vector 13465  Network.dyn_peer[8]  lookupStabilitySig:vector  ETV
13465	250202 10841 277 136970 20.30000000009 135.729034670594 322 -2 1 159.29166665673 133.2725694312
vector 13466  Network.dyn_peer[8]  lookupTimeSig:vector  ETV
13466	261043 10411 277 136970 20.30000000009 135.729034670594 322 0 2.1 146.3 92.99
vector 13467  Network.dyn_peer[9]  lookupHopsSig:vector  ETV
13467	271454 9240 282 136268 20.3000000001 134.891746417579 304 0 20 1327 8771
vector 13468  Network.dyn_peer[9]  lookupStabilitySig:vector  ETV
13468	280694 10234 282 136268 20.3000000001 134.891746417579 304 -1.5 1 138.18055555224 109.35551697163
vector 13469  Network.dyn_peer[9]  lookupTimeSig:vector  ETV
13469	290928 9806 282 136268 20.3000000001 134.891746417579 304 0 1.6 146.6 93.5
vector 13470  Network.dyn_peer[10]  lookupHopsSig:vector  ETV
13470	300734 9151 287 137125 20.30000000011 136.463029860127 300 0 24 1242 8332
vector 13471  Network.dyn_peer[10]  lookupStabilitySig:vector  ETV
13471	309885 10097 287 137125 20.30000000011 136.463029860127 300 -2 1 144.91666667908 119.62075616548
vector 13472  Network.dyn_peer[10]  lookupTimeSig:vector  ETV
13472	319982 9699 287 137125 20.30000000011 136.463029860127 300 0 1.9 137.7 87.91
vector 13479  Network.dyn_peer[13]  lookupHopsSig:vector  ETV
13479	384801 9572 293 136158 20.30000000014 134.809436010594 314 0 15 1246 7448
vector 13480  Network.dyn_peer[13]  lookupStabilitySig:vector  ETV
13480	394373 10608 293 136158 20.30000000014 134.809436010594 314 -0.875 1 158.38888886571 118.98225306949
vector 13481  Network.dyn_peer[13]  lookupTimeSig:vector  ETV
13481	404981 10168 293 136158 20.30000000014 134.809436010594 314 0 1.5 141.2 83.74
vector 13482  Network.dyn_peer[14]  lookupHopsSig:vector  ETV
13482	415149 9592 298 135640 20.30000000015 134.340171085557 316 0 22 1256 8448
vector 13483  Network.dyn_peer[14]  lookupStabilitySig:vector  ETV
13483	424741 10619 298 135640 20.30000000015 134.340171085557 316 -1.75 1 159.02777777612 134.04243826903
vector 13484  Network.dyn_peer[14]  lookupTimeSig:vector  ETV
13484	435360 10179 298 135640 20.30000000015 134.340171085557 316 0 2 142.3 92.37
vector 13494  Network.dyn_peer[18]  lookupHopsSig:vector  ETV
13494	530728 8914 305 136317 20.30000000019 134.915825750864 293 0 15 1178 7282
vector 13495  Network.dyn_peer[18]  lookupStabilitySig:vector  ETV
13495	539642 9864 305 136317 20.30000000019 134.915825750864 293 -0.875 1 145.93055555224 112.32426697163
vector 13496  Network.dyn_peer[18]  lookupTimeSig:vector  ETV
13496	549506 9457 305 136317 20.30000000019 134.915825750864 293 0 1.6 132.7 81.55
vector 13503  Network.dyn_peer[21]  lookupHopsSig:vector  ETV
13503	617286 8639 311 136425 20.30000000022 135.019220179121 283 0 17 1198 7648
vector 13504  Network.dyn_peer[21]  lookupStabilitySig:vector  ETV
13504	625925 9546 311 136425 20.30000000022 135.019220179121 283 -1.125 1 133.25 103
vector 13505  Network.dyn_peer[21]  lookupTimeSig:vector  ETV
13505	635471 9165 311 136425 20.30000000022 135.019220179121 283 0 1.5 133.5 85.05
vector 13509  Network.dyn_peer[23]  lookupHopsSig:vector  ETV
13509	673478 8919 317 137027 20.30000000024 135.919979817895 293 0 24 1172 7334
vector 13510  Network.dyn_peer[23]  lookupStabilitySig:vector  ETV
13510	682397 9845 317 137027 20.30000000024 135.919979817895 293 -2 1 146.5 114.59375
vector 13511  Network.dyn_peer[23]  lookupTimeSig:vector  ETV
13511	692242 9470 317 137027 20.30000000024 135.919979817895 293 0 2.3 131.4 80.36
vector 13521  Network.dyn_peer[27]  lookupHopsSig:vector  ETV
13521	787241 8923 325 136167 20.30000000028 134.814673825762 293 0 18 1208 7872
vector 13522  Network.dyn_peer[27]  lookupStabilitySig:vector  ETV
13522	796164 9893 325 136167 20.30000000028 134.814673825762 293 -1.25 1 142 114
vector 13523  Network.dyn_peer[27]  lookupTimeSig:vector  ETV
13523	806057 9479 325 136167 20.30000000028 134.814673825762 293 0 1.7 134.6 84.2
vector 13473  Network.dyn_peer[11]  lookupHopsSig:vector  ETV
13473	329681 8671 354 137075 20.40000000012 136.012656267437 285 0 19 1239 8221
vector 13474  Network.dyn_peer[11]  lookupStabilitySig:vector  ETV
13474	338352 9608 354 137075 20.40000000012 136.012656267437 285 -1.375 1 130.18055555224 103.76176697163
vector 13475  Network.dyn_peer[11]  lookupTimeSig:vector  ETV
13475	347960 9206 354 137075 20.40000000012 136.012656267437 285 0 1.8 136.8 88.68
vector 13491  Network.dyn_peer[17]  lookupHopsSig:vector  ETV
13491	501994 9076 363 136561 20.40000000018 135.124671605008 298 0 17 1256 7674
vector 13492  Network.dyn_peer[17]  lookupStabilitySig:vector  ETV
13492	511070 10030 363 136561 20.40000000018 135.124671605008 298 -1.125 1 141.01388888806 103.93074845532
vector 13493  Network.dyn_peer[17]  lookupTimeSig:vector  ETV
13493	521100 9628 363 136561 20.40000000018 135.124671605008 298 0 1.5 141.6 87.94
vector 13515  Network.dyn_peer[25]  lookupHopsSig:vector  ETV
13515	728888 9227 374 136096 20.40000000026 134.773962271279 303 0 16 1291 8527
vector 13516  Network.dyn_peer[25]  lookupStabilitySig:vector  ETV
13516	738115 10227 374 136096 20.40000000026 134.773962271279 303 -1 1 141.625 113.484375
vector 13517  Network.dyn_peer[25]  lookupTimeSig:vector  ETV
13517	748342 9778 374 136096 20.40000000026 134.773962271279 303 0 1.6 144.9 94.83
vector 13518  Network.dyn_peer[26]  lookupHopsSig:vector  ETV
13518	758120 9174 418 136263 20.50000000027 134.890534826348 301 0 27 1260 8694
vector 13519  Network.dyn_peer[26]  lookupStabilitySig:vector  ETV
13519	767294 10199 418 136263 20.50000000027 134.890534826348 301 -2.375 1 143.7499999851 121.49112656124
vector 13520  Network.dyn_peer[26]  lookupTimeSig:vector  ETV
13520	777493 9748 418 136263 20.50000000027 134.890534826348 301 0 2.4 141.6 93.12
vector 13512  Network.dyn_peer[24]  lookupHopsSig:vector  ETV
13512	701712 8575 536 136935 20.70000000025 135.637208702075 281 0 18 1177 7963
vector 13513  Network.dyn_peer[24]  lookupStabilitySig:vector  ETV
13513	710287 9512 536 136935 20.70000000025 135.637208702075 281 -1.25 1 133.88888888806 111.19637345532
vector 13514  Network.dyn_peer[24]  lookupTimeSig:vector  ETV
13514	719799 9089 536 136935 20.70000000025 135.637208702075 281 0 1.7 132.4 86.68
