file 883073 1369674158                                          
version 2
run Stability-norelink-76-20130525-23:19:04-22103
attr configname Stability-norelink
attr datetime 20130525-23:19:04
attr experiment Stability
attr inifile omnetpp.ini
attr iterationvars $0=1e-1
attr iterationvars2 "$0=1e-1, $repetition=6"
attr measurement $0=1e-1
attr network Network
attr processid 22103
attr repetition 6
attr replication #6
attr resultdir results
attr runnumber 76
attr seedset 76
vector 7305  Network.dyn_peer[3]  lookupHopsSig:vector  ETV
7305	86299 8424 40 136683 20.0004 133.193079324242 287 0 22 1172 7328
vector 7306  Network.dyn_peer[3]  lookupStabilitySig:vector  ETV
7306	94723 9393 40 136683 20.0004 133.193079324242 287 -1.75 1 140.52777777612 108.54243826903
vector 7307  Network.dyn_peer[3]  lookupTimeSig:vector  ETV
7307	104116 8967 40 136683 20.0004 133.193079324242 287 0 2 133.1 82.53
vector 7320  Network.dyn_peer[8]  lookupHopsSig:vector  ETV
7320	226280 9117 59 136712 20.0009 133.212084914267 311 0 17 1273 8095
vector 7321  Network.dyn_peer[8]  lookupStabilitySig:vector  ETV
7321	235397 10157 59 136712 20.0009 133.212084914267 311 -1.125 1 152.02777776122 119.40547837446
vector 7322  Network.dyn_peer[8]  lookupTimeSig:vector  ETV
7322	245554 9703 59 136712 20.0009 133.212084914267 311 0 1.7 142.5 87.39
vector 7302  Network.dyn_peer[2]  lookupHopsSig:vector  ETV
7302	60199 8207 135 135883 20.1003 132.461379276984 280 0 21 1224 8188
vector 7303  Network.dyn_peer[2]  lookupStabilitySig:vector  ETV
7303	68406 9155 135 135883 20.1003 132.461379276984 280 -1.625 1 127.06944441795 101.99440584065
vector 7304  Network.dyn_peer[2]  lookupTimeSig:vector  ETV
7304	77561 8738 135 135883 20.1003 132.461379276984 280 0 2 136.5 89.67
vector 7311  Network.dyn_peer[5]  lookupHopsSig:vector  ETV
7311	141938 9048 142 136716 20.1006 133.213891579677 308 0 15 1267 7787
vector 7312  Network.dyn_peer[5]  lookupStabilitySig:vector  ETV
7312	150986 10077 142 136716 20.1006 133.213891579677 308 -0.875 1 149.66666665673 112.9756944312
vector 7313  Network.dyn_peer[5]  lookupTimeSig:vector  ETV
7313	161063 9626 142 136716 20.1006 133.213891579677 308 0 1.4 141.7 85.61
vector 7323  Network.dyn_peer[9]  lookupHopsSig:vector  ETV
7323	255257 8800 150 136956 20.101 133.618633917961 299 0 18 1309 8853
vector 7324  Network.dyn_peer[9]  lookupStabilitySig:vector  ETV
7324	264057 9805 150 136956 20.101 133.618633917961 299 -1.25 1 135.4999999702 110.18055552906
vector 7325  Network.dyn_peer[9]  lookupTimeSig:vector  ETV
7325	273862 9338 150 136956 20.101 133.618633917961 299 0 1.5 143.8 93.62
vector 7335  Network.dyn_peer[13]  lookupHopsSig:vector  ETV
7335	365973 8715 158 136345 20.1014 132.823750630982 296 0 18 1186 7274
vector 7336  Network.dyn_peer[13]  lookupStabilitySig:vector  ETV
7336	374688 9693 158 136345 20.1014 132.823750630982 296 -1.25 1 147.88888886571 113.24382714136
vector 7337  Network.dyn_peer[13]  lookupTimeSig:vector  ETV
7337	384381 9272 158 136345 20.1014 132.823750630982 296 0 1.6 133.4 80.9
vector 7338  Network.dyn_peer[14]  lookupHopsSig:vector  ETV
7338	393653 9050 163 136238 20.1015 132.773384675293 308 0 19 1244 8038
vector 7339  Network.dyn_peer[14]  lookupStabilitySig:vector  ETV
7339	402703 10032 163 136238 20.1015 132.773384675293 308 -1.375 1 152.52777777612 122.63618826903
vector 7340  Network.dyn_peer[14]  lookupTimeSig:vector  ETV
7340	412735 9614 163 136238 20.1015 132.773384675293 308 0 1.7 141.2 90.48
vector 7344  Network.dyn_peer[16]  lookupHopsSig:vector  ETV
7344	449533 9026 169 137016 20.1017 133.814377164144 307 0 21 1225 8159
vector 7345  Network.dyn_peer[16]  lookupStabilitySig:vector  ETV
7345	458559 10050 169 137016 20.1017 133.814377164144 307 -1.625 1 153.875 128.234375
vector 7346  Network.dyn_peer[16]  lookupTimeSig:vector  ETV
7346	468609 9591 169 137016 20.1017 133.814377164144 307 0 2 136.6 86.32
vector 7347  Network.dyn_peer[17]  lookupHopsSig:vector  ETV
7347	478200 8519 174 136186 20.1018 132.707959865498 290 0 17 1159 7239
vector 7348  Network.dyn_peer[17]  lookupStabilitySig:vector  ETV
7348	486719 9507 174 136186 20.1018 132.707959865498 290 -1.125 1 145.16666665673 113.4131944312
vector 7349  Network.dyn_peer[17]  lookupTimeSig:vector  ETV
7349	496226 9060 174 136186 20.1018 132.707959865498 290 0 1.5 129.7 79.33
vector 7350  Network.dyn_peer[18]  lookupHopsSig:vector  ETV
7350	505286 8992 179 136873 20.1019 133.482997824791 307 0 19 1221 7431
vector 7351  Network.dyn_peer[18]  lookupStabilitySig:vector  ETV
7351	514278 10002 179 136873 20.1019 133.482997824791 307 -1.375 1 154.41666665673 117.9131944312
vector 7352  Network.dyn_peer[18]  lookupTimeSig:vector  ETV
7352	524280 9579 179 136873 20.1019 133.482997824791 307 0 1.7 137.9 83.75
vector 7353  Network.dyn_peer[19]  lookupHopsSig:vector  ETV
7353	533859 7792 184 136436 20.102 132.901690941319 265 0 20 1217 9045
vector 7354  Network.dyn_peer[19]  lookupStabilitySig:vector  ETV
7354	541651 8679 184 136436 20.102 132.901690941319 265 -1.5 1 113.04166664183 102.25405090495
vector 7355  Network.dyn_peer[19]  lookupTimeSig:vector  ETV
7355	550330 8280 184 136436 20.102 132.901690941319 265 0 1.7 131.7 92.43
vector 7296  Network.dyn_peer[0]  lookupHopsSig:vector  ETV
7296	6399 8427 202 136411 20.2001 132.896085472979 287 0 23 1158 7604
vector 7297  Network.dyn_peer[0]  lookupStabilitySig:vector  ETV
7297	14826 9392 202 136411 20.2001 132.896085472979 287 -1.875 1 142.38888886571 116.47878083403
vector 7298  Network.dyn_peer[0]  lookupTimeSig:vector  ETV
7298	24218 8965 202 136411 20.2001 132.896085472979 287 0 1.9 130.3 83.15
vector 7308  Network.dyn_peer[4]  lookupHopsSig:vector  ETV
7308	113083 9101 211 136491 20.2005 132.96753039018 309 0 15 1242 7546
vector 7309  Network.dyn_peer[4]  lookupStabilitySig:vector  ETV
7309	122184 10077 211 136491 20.2005 132.96753039018 309 -0.875 1 153.77777777612 116.44868826903
vector 7310  Network.dyn_peer[4]  lookupTimeSig:vector  ETV
7310	132261 9677 211 136491 20.2005 132.96753039018 309 0 1.4 140.6 85.4
vector 7314  Network.dyn_peer[6]  lookupHopsSig:vector  ETV
7314	170689 8879 217 136513 20.2007 132.979518674774 302 0 20 1265 7903
vector 7315  Network.dyn_peer[6]  lookupStabilitySig:vector  ETV
7315	179568 9850 217 136513 20.2007 132.979518674774 302 -1.5 1 144.01388886571 109.34162806949
vector 7316  Network.dyn_peer[6]  lookupTimeSig:vector  ETV
7316	189418 9448 217 136513 20.2007 132.979518674774 302 0 1.9 141.2 87.14
vector 7329  Network.dyn_peer[11]  lookupHopsSig:vector  ETV
7329	312838 8569 227 136055 20.2012 132.599402445981 291 0 18 1298 8936
vector 7330  Network.dyn_peer[11]  lookupStabilitySig:vector  ETV
7330	321407 9501 227 136055 20.2012 132.599402445981 291 -1.25 1 128.80555555224 106.18364197163
vector 7331  Network.dyn_peer[11]  lookupTimeSig:vector  ETV
7331	330908 9117 227 136055 20.2012 132.599402445981 291 0 1.6 143.6 96.42
vector 7341  Network.dyn_peer[15]  lookupHopsSig:vector  ETV
7341	422349 8572 234 135957 20.2016 132.512861394773 292 0 18 1304 9268
vector 7342  Network.dyn_peer[15]  lookupStabilitySig:vector  ETV
7342	430921 9503 234 135957 20.2016 132.512861394773 292 -1.25 1 129.02777777612 110.85493826903
vector 7343  Network.dyn_peer[15]  lookupTimeSig:vector  ETV
7343	440424 9109 234 135957 20.2016 132.512861394773 292 0 1.8 144.3 99.03
vector 7365  Network.dyn_peer[23]  lookupHopsSig:vector  ETV
7365	640639 8288 246 136758 20.2024 133.240425253718 282 0 20 1237 8609
vector 7366  Network.dyn_peer[23]  lookupStabilitySig:vector  ETV
7366	648927 9276 246 136758 20.2024 133.240425253718 282 -1.5 1 127.56944438815 107.47087186097
vector 7367  Network.dyn_peer[23]  lookupTimeSig:vector  ETV
7367	658203 8810 246 136758 20.2024 133.240425253718 282 0 1.9 137.7 92.73
vector 7371  Network.dyn_peer[25]  lookupHopsSig:vector  ETV
7371	692505 8521 252 136099 20.2026 132.614274393096 290 0 21 1182 8094
vector 7372  Network.dyn_peer[25]  lookupStabilitySig:vector  ETV
7372	701026 9461 252 136099 20.2026 132.614274393096 290 -1.625 1 142.30555555224 121.02739197163
vector 7373  Network.dyn_peer[25]  lookupTimeSig:vector  ETV
7373	710487 9065 252 136099 20.2026 132.614274393096 290 0 1.9 131.4 85.18
vector 7374  Network.dyn_peer[26]  lookupHopsSig:vector  ETV
7374	719552 8790 257 136156 20.2027 132.697273770627 299 0 17 1271 8245
vector 7375  Network.dyn_peer[26]  lookupStabilitySig:vector  ETV
7375	728342 9752 257 136156 20.2027 132.697273770627 299 -1.125 1 140.19444443285 110.17438270023
vector 7376  Network.dyn_peer[26]  lookupTimeSig:vector  ETV
7376	738094 9350 257 136156 20.2027 132.697273770627 299 0 1.5 141.4 89.38
vector 7389  Network.dyn_peer[31]  lookupHopsSig:vector  ETV
7389	854845 8890 266 136843 20.2032 133.412961394773 302 0 19 1231 8315
vector 7390  Network.dyn_peer[31]  lookupStabilitySig:vector  ETV
7390	863735 9887 266 136843 20.2032 133.412961394773 302 -1.375 1 148.22222220898 124.28433640283
vector 7391  Network.dyn_peer[31]  lookupTimeSig:vector  ETV
7391	873622 9451 266 136843 20.2032 133.412961394773 302 0 1.8 137.4 89.24
vector 7299  Network.dyn_peer[1]  lookupHopsSig:vector  ETV
7299	33183 8508 276 136271 20.3002 132.7934313137 289 0 19 1221 8075
vector 7300  Network.dyn_peer[1]  lookupStabilitySig:vector  ETV
7300	41691 9455 276 136271 20.3002 132.7934313137 289 -1.375 1 136.51388885826 110.0619212676
vector 7301  Network.dyn_peer[1]  lookupTimeSig:vector  ETV
7301	51146 9053 276 136271 20.3002 132.7934313137 289 0 1.8 135.9 87.65
vector 7326  Network.dyn_peer[10]  lookupHopsSig:vector  ETV
7326	283200 9325 292 136908 20.3011 133.518589637222 317 0 17 1314 8352
vector 7327  Network.dyn_peer[10]  lookupStabilitySig:vector  ETV
7327	292525 10388 292 136908 20.3011 133.518589637222 317 -1.125 1 152.79166665673 119.0538194312
vector 7328  Network.dyn_peer[10]  lookupTimeSig:vector  ETV
7328	302913 9925 292 136908 20.3011 133.518589637222 317 0 1.5 146.3 90.83
vector 7356  Network.dyn_peer[20]  lookupHopsSig:vector  ETV
7356	558610 8053 306 137105 20.3021 134.287184017169 273 0 26 1220 9146
vector 7357  Network.dyn_peer[20]  lookupStabilitySig:vector  ETV
7357	566663 8978 306 137105 20.3021 134.287184017169 273 -2.25 1 120.56944444031 110.98939042695
vector 7358  Network.dyn_peer[20]  lookupTimeSig:vector  ETV
7358	575641 8551 306 137105 20.3021 134.287184017169 273 0 2.2 133 92.36
vector 7377  Network.dyn_peer[27]  lookupHopsSig:vector  ETV
7377	747444 8295 318 136629 20.3028 133.10820115128 281 0 19 1266 9080
vector 7378  Network.dyn_peer[27]  lookupStabilitySig:vector  ETV
7378	755739 9249 318 136629 20.3028 133.10820115128 281 -1.375 1 122.95833329111 106.53915892008
vector 7379  Network.dyn_peer[27]  lookupTimeSig:vector  ETV
7379	764988 8815 318 136629 20.3028 133.10820115128 281 0 1.8 139.9 95.37
vector 7386  Network.dyn_peer[30]  lookupHopsSig:vector  ETV
7386	828634 8261 325 137068 20.3031 133.984303836123 281 0 21 1248 8364
vector 7387  Network.dyn_peer[30]  lookupStabilitySig:vector  ETV
7387	836895 9167 325 137068 20.3031 133.984303836123 281 -1.625 1 125.08333331347 99.736111097866
vector 7388  Network.dyn_peer[30]  lookupTimeSig:vector  ETV
7388	846062 8783 325 137068 20.3031 133.984303836123 281 0 1.8 137.7 89.95
vector 7317  Network.dyn_peer[7]  lookupHopsSig:vector  ETV
7317	198866 8629 346 136365 20.4008 132.859915552955 294 0 17 1300 8500
vector 7318  Network.dyn_peer[7]  lookupStabilitySig:vector  ETV
7318	207495 9609 346 136365 20.4008 132.859915552955 294 -1.125 1 131.55555555224 101.87114197163
vector 7319  Network.dyn_peer[7]  lookupTimeSig:vector  ETV
7319	217104 9176 346 136365 20.4008 132.859915552955 294 0 1.7 142.3 90.61
vector 7362  Network.dyn_peer[22]  lookupHopsSig:vector  ETV
7362	612138 8970 362 136718 20.4023 133.213980359617 306 1 16 1260 7382
vector 7363  Network.dyn_peer[22]  lookupStabilitySig:vector  ETV
7363	621108 9979 362 136718 20.4023 133.213980359617 306 -1 0.875 148.58333332837 106.44483024066
vector 7364  Network.dyn_peer[22]  lookupTimeSig:vector  ETV
7364	631087 9552 362 136718 20.4023 133.213980359617 306 0.1 1.5 143 84.96
vector 7368  Network.dyn_peer[24]  lookupHopsSig:vector  ETV
7368	667013 8034 368 136040 20.4025 132.59028695842 274 0 21 1304 9548
vector 7369  Network.dyn_peer[24]  lookupStabilitySig:vector  ETV
7369	675047 8917 368 136040 20.4025 132.59028695842 274 -1.625 1 111.06944441795 97.24440584065
vector 7370  Network.dyn_peer[24]  lookupTimeSig:vector  ETV
7370	683964 8541 368 136040 20.4025 132.59028695842 274 0 1.9 142 99.96
vector 7380  Network.dyn_peer[28]  lookupHopsSig:vector  ETV
7380	773803 8901 377 136535 20.4029 132.998552608665 303 0 17 1321 8933
vector 7381  Network.dyn_peer[28]  lookupStabilitySig:vector  ETV
7381	782704 9896 377 136535 20.4029 132.998552608665 303 -1.125 1 137.93055555224 112.38676697163
vector 7382  Network.dyn_peer[28]  lookupTimeSig:vector  ETV
7382	792600 9458 377 136535 20.4029 132.998552608665 303 0 1.6 146.1 95.79
vector 7383  Network.dyn_peer[29]  lookupHopsSig:vector  ETV
7383	802058 8367 382 135542 20.403 132.114674819241 285 0 23 1181 8271
vector 7384  Network.dyn_peer[29]  lookupStabilitySig:vector  ETV
7384	810425 9314 382 135542 20.403 132.114674819241 285 -1.875 1 137.375 118.984375
vector 7385  Network.dyn_peer[29]  lookupTimeSig:vector  ETV
7385	819739 8895 382 135542 20.403 132.114674819241 285 0 2 130.5 85.07
vector 7332  Network.dyn_peer[12]  lookupHopsSig:vector  ETV
7332	340025 8152 422 136014 20.5013 132.579418674774 277 0 21 1195 8013
vector 7333  Network.dyn_peer[12]  lookupStabilitySig:vector  ETV
7333	348177 9116 422 136014 20.5013 132.579418674774 277 -1.625 1 127.72222220153 103.52623455318
vector 7334  Network.dyn_peer[12]  lookupTimeSig:vector  ETV
7334	357293 8680 422 136014 20.5013 132.579418674774 277 0 1.8 131.5 85.57
vector 7359  Network.dyn_peer[21]  lookupHopsSig:vector  ETV
7359	584192 8794 768 137034 21.0022 133.884711687336 299 0 17 1210 7840
vector 7360  Network.dyn_peer[21]  lookupStabilitySig:vector  ETV
7360	592986 9804 768 137034 21.0022 133.884711687336 299 -1.125 1 147.77777777612 119.04243826903
vector 7361  Network.dyn_peer[21]  lookupTimeSig:vector  ETV
7361	602790 9348 768 137034 21.0022 133.884711687336 299 0 1.8 136 87.56
