file 897110 1369674159                                          
version 2
run Stability-norelink-93-20130525-23:20:12-22103
attr configname Stability-norelink
attr datetime 20130525-23:20:12
attr experiment Stability
attr inifile omnetpp.ini
attr iterationvars $0=1e-3
attr iterationvars2 "$0=1e-3, $repetition=3"
attr measurement $0=1e-3
attr network Network
attr processid 22103
attr repetition 3
attr replication #3
attr resultdir results
attr runnumber 93
attr seedset 93
vector 8949  Network.dyn_peer[7]  lookupHopsSig:vector  ETV
8949	200749 9100 51 138082 20.000008 135.732387659086 310 0 19 1268 8032
vector 8950  Network.dyn_peer[7]  lookupStabilitySig:vector  ETV
8950	209849 10103 51 138082 20.000008 135.732387659086 310 -1.375 1 151.5 118.5
vector 8951  Network.dyn_peer[7]  lookupTimeSig:vector  ETV
8951	219952 9679 51 138082 20.000008 135.732387659086 310 0 1.9 140.5 86.35
vector 8988  Network.dyn_peer[20]  lookupHopsSig:vector  ETV
8988	558553 8612 94 136820 20.000021 134.133907723158 294 0 18 1241 8107
vector 8989  Network.dyn_peer[20]  lookupStabilitySig:vector  ETV
8989	567165 9533 94 136820 20.000021 134.133907723158 294 -1.25 1 138.875 110.421875
vector 8990  Network.dyn_peer[20]  lookupTimeSig:vector  ETV
8990	576698 9161 94 136820 20.000021 134.133907723158 294 0 1.7 137.7 88.01
vector 8991  Network.dyn_peer[21]  lookupHopsSig:vector  ETV
8991	585859 8555 101 137945 20.000022 135.366858932904 292 0 20 1236 7946
vector 8992  Network.dyn_peer[21]  lookupStabilitySig:vector  ETV
8992	594414 9523 101 137945 20.000022 135.366858932904 292 -1.5 1 137.69999997318 107.3318209625
vector 8993  Network.dyn_peer[21]  lookupTimeSig:vector  ETV
8993	603937 9097 101 137945 20.000022 135.366858932904 292 0 1.7 139 87.96
vector 9009  Network.dyn_peer[27]  lookupHopsSig:vector  ETV
9009	755321 8900 123 137146 20.000028 134.451237198012 303 0 19 1278 8596
vector 9010  Network.dyn_peer[27]  lookupStabilitySig:vector  ETV
9010	764221 9880 123 137146 20.000028 134.451237198012 303 -1.375 1 143.25 117.8125
vector 9011  Network.dyn_peer[27]  lookupTimeSig:vector  ETV
9011	774101 9462 123 137146 20.000028 134.451237198012 303 0 1.7 141.9 91.65
vector 8931  Network.dyn_peer[1]  lookupHopsSig:vector  ETV
8931	33589 9196 143 138157 20.100002 136.1447086578 313 0 17 1340 8628
vector 8932  Network.dyn_peer[1]  lookupStabilitySig:vector  ETV
8932	42785 10226 143 138157 20.100002 136.1447086578 313 -1.125 1 145.56944444031 112.89564042695
vector 8933  Network.dyn_peer[1]  lookupTimeSig:vector  ETV
8933	53011 9771 143 138157 20.100002 136.1447086578 313 0 1.8 149.5 95.67
vector 8943  Network.dyn_peer[5]  lookupHopsSig:vector  ETV
8943	144725 8894 151 137752 20.100006 135.110716475884 302 0 17 1212 7388
vector 8944  Network.dyn_peer[5]  lookupStabilitySig:vector  ETV
8944	153619 9890 151 137752 20.100006 135.110716475884 302 -1.125 1 150.59722220898 114.47125771016
vector 8945  Network.dyn_peer[5]  lookupTimeSig:vector  ETV
8945	163509 9474 151 137752 20.100006 135.110716475884 302 0 1.5 135.5 80.31
vector 8952  Network.dyn_peer[8]  lookupHopsSig:vector  ETV
8952	229631 9156 158 137337 20.100009 134.625589032105 312 0 20 1278 8096
vector 8953  Network.dyn_peer[8]  lookupStabilitySig:vector  ETV
8953	238787 10166 158 137337 20.100009 134.625589032105 312 -1.5 1 152.29166665673 119.0538194312
vector 8954  Network.dyn_peer[8]  lookupTimeSig:vector  ETV
8954	248953 9744 158 137337 20.100009 134.625589032105 312 0 2 144 91.5
vector 8955  Network.dyn_peer[9]  lookupHopsSig:vector  ETV
8955	258697 9131 163 138021 20.10001 135.518497743912 310 0 24 1322 9532
vector 8956  Network.dyn_peer[9]  lookupStabilitySig:vector  ETV
8956	267828 10163 163 138021 20.10001 135.518497743912 310 -2 1 144.79166665673 128.4913194312
vector 8957  Network.dyn_peer[9]  lookupTimeSig:vector  ETV
8957	277991 9712 163 138021 20.10001 135.518497743912 310 0 2.1 147.4 100.56
vector 8985  Network.dyn_peer[19]  lookupHopsSig:vector  ETV
8985	534932 7436 177 136969 20.10002 134.301174609082 254 0 29 1186 9036
vector 8986  Network.dyn_peer[19]  lookupStabilitySig:vector  ETV
8986	542368 8274 177 136969 20.10002 134.301174609082 254 -2.625 1 105.84722220898 98.721257710163
vector 8987  Network.dyn_peer[19]  lookupTimeSig:vector  ETV
8987	550642 7911 177 136969 20.10002 134.301174609082 254 0 2.6 128.7 92.25
vector 9006  Network.dyn_peer[26]  lookupHopsSig:vector  ETV
9006	728542 8439 188 138113 20.100027 135.780816589816 286 0 17 1236 8032
vector 9007  Network.dyn_peer[26]  lookupStabilitySig:vector  ETV
9007	736981 9378 188 138113 20.100027 135.780816589816 286 -1.125 1 131.5 102.5
vector 9008  Network.dyn_peer[26]  lookupTimeSig:vector  ETV
9008	746359 8962 188 138113 20.100027 135.780816589816 286 0 1.5 136.6 86.68
vector 8928  Network.dyn_peer[0]  lookupHopsSig:vector  ETV
8928	6399 8565 201 137684 20.200001 135.019520732032 292 0 24 1251 8129
vector 8929  Network.dyn_peer[0]  lookupStabilitySig:vector  ETV
8929	14964 9502 201 137684 20.200001 135.019520732032 292 -2 1 135.72222219408 106.36496910968
vector 8930  Network.dyn_peer[0]  lookupTimeSig:vector  ETV
8930	24466 9123 201 137684 20.200001 135.019520732032 292 0 2.2 140 89.82
vector 8940  Network.dyn_peer[4]  lookupHopsSig:vector  ETV
8940	117357 8616 209 137664 20.200005 135.012757349687 293 0 17 1290 8690
vector 8941  Network.dyn_peer[4]  lookupStabilitySig:vector  ETV
8941	125973 9599 209 137664 20.200005 135.012757349687 293 -1.125 1 131.88888888806 106.29012345532
vector 8942  Network.dyn_peer[4]  lookupTimeSig:vector  ETV
8942	135572 9153 209 137664 20.200005 135.012757349687 293 0 1.6 141 91.84
vector 8946  Network.dyn_peer[6]  lookupHopsSig:vector  ETV
8946	172983 8762 214 137101 20.200007 134.419187068671 298 0 17 1295 8721
vector 8947  Network.dyn_peer[6]  lookupStabilitySig:vector  ETV
8947	181745 9687 214 137101 20.200007 134.419187068671 298 -1.125 1 136.25 110.5
vector 8948  Network.dyn_peer[6]  lookupTimeSig:vector  ETV
8948	191432 9317 214 137101 20.200007 134.419187068671 298 0 1.7 142.9 93.11
vector 8961  Network.dyn_peer[11]  lookupHopsSig:vector  ETV
8961	314051 8886 222 137516 20.200012 134.835444279796 302 0 14 1175 6579
vector 8962  Network.dyn_peer[11]  lookupStabilitySig:vector  ETV
8962	322937 9903 222 137516 20.200012 134.835444279796 302 -0.75 1 155.22222221643 111.17245369598
vector 8963  Network.dyn_peer[11]  lookupTimeSig:vector  ETV
8963	332840 9454 222 137516 20.200012 134.835444279796 302 0 1.4 132.7 75.03
vector 8970  Network.dyn_peer[14]  lookupHopsSig:vector  ETV
8970	396109 9544 229 137627 20.200015 134.964475237215 324 0 21 1342 9048
vector 8971  Network.dyn_peer[14]  lookupStabilitySig:vector  ETV
8971	405653 10616 229 137627 20.200015 134.964475237215 324 -1.625 1 156.43055552244 129.94425151819
vector 8972  Network.dyn_peer[14]  lookupTimeSig:vector  ETV
8972	416269 10150 229 137627 20.200015 134.964475237215 324 0 2 151.1 98.75
vector 8973  Network.dyn_peer[15]  lookupHopsSig:vector  ETV
8973	426419 8154 234 137596 20.200016 134.930759996169 278 0 20 1199 7883
vector 8974  Network.dyn_peer[15]  lookupStabilitySig:vector  ETV
8974	434573 9033 234 137596 20.200016 134.930759996169 278 -1.5 1 128.125 101.421875
vector 8975  Network.dyn_peer[15]  lookupTimeSig:vector  ETV
8975	443606 8662 234 137596 20.200016 134.930759996169 278 0 1.9 132 84.86
vector 8982  Network.dyn_peer[18]  lookupHopsSig:vector  ETV
8982	507730 8557 241 136809 20.200019 134.131740023443 292 1 20 1292 8282
vector 8983  Network.dyn_peer[18]  lookupStabilitySig:vector  ETV
8983	516287 9546 241 136809 20.200019 134.131740023443 292 -1.5 0.875 130.7499999404 98.532407358841
vector 8984  Network.dyn_peer[18]  lookupTimeSig:vector  ETV
8984	525833 9099 241 136809 20.200019 134.131740023443 292 0.1 2 143.8 92.76
vector 8994  Network.dyn_peer[22]  lookupHopsSig:vector  ETV
8994	613034 8666 249 137911 20.200023 135.325689032105 294 0 31 1288 9342
vector 8995  Network.dyn_peer[22]  lookupStabilitySig:vector  ETV
8995	621700 9641 249 137911 20.200023 135.325689032105 294 -2.875 1 133.36111104488 117.93672840095
vector 8996  Network.dyn_peer[22]  lookupTimeSig:vector  ETV
8996	631341 9212 249 137911 20.200023 135.325689032105 294 0 2.7 142 98.06
vector 9000  Network.dyn_peer[24]  lookupHopsSig:vector  ETV
9000	669594 9751 255 137178 20.200025 134.466205347727 332 0 17 1257 7135
vector 9001  Network.dyn_peer[24]  lookupStabilitySig:vector  ETV
9001	679345 10854 255 137178 20.200025 134.466205347727 332 -1.125 1 175.0694444105 129.34124226335
vector 9002  Network.dyn_peer[24]  lookupTimeSig:vector  ETV
9002	690199 10384 255 137178 20.200025 134.466205347727 332 0 1.6 143.7 83.67
vector 9012  Network.dyn_peer[28]  lookupHopsSig:vector  ETV
9012	783563 8567 262 138093 20.200029 135.743199571283 291 0 23 1250 9056
vector 9013  Network.dyn_peer[28]  lookupStabilitySig:vector  ETV
9013	792130 9534 262 138093 20.200029 135.743199571283 291 -1.875 1 134.75 120
vector 9014  Network.dyn_peer[28]  lookupTimeSig:vector  ETV
9014	801664 9095 262 138093 20.200029 135.743199571283 291 0 2 137.5 93.01
vector 9018  Network.dyn_peer[30]  lookupHopsSig:vector  ETV
9018	841366 8979 268 137812 20.200031 135.20730883712 304 0 18 1337 9177
vector 9019  Network.dyn_peer[30]  lookupStabilitySig:vector  ETV
9019	850345 9995 268 137812 20.200031 135.20730883712 304 -1.25 1 136.94444443285 113.23688270023
vector 9020  Network.dyn_peer[30]  lookupTimeSig:vector  ETV
9020	860340 9553 268 137812 20.200031 135.20730883712 304 0 1.8 147.7 98.59
vector 8958  Network.dyn_peer[10]  lookupHopsSig:vector  ETV
8958	287703 8289 292 137658 20.300011 135.009293160881 282 0 29 1258 9110
vector 8959  Network.dyn_peer[10]  lookupStabilitySig:vector  ETV
8959	295992 9244 292 137658 20.300011 135.009293160881 282 -2.625 1 125.08333326876 109.2839507192
vector 8960  Network.dyn_peer[10]  lookupTimeSig:vector  ETV
8960	305236 8815 292 137658 20.300011 135.009293160881 282 0 2.5 140.4 98.54
vector 8964  Network.dyn_peer[12]  lookupHopsSig:vector  ETV
8964	342294 8471 297 137532 20.300013 134.848437512458 288 0 32 1255 8715
vector 8965  Network.dyn_peer[12]  lookupStabilitySig:vector  ETV
8965	350765 9418 297 137532 20.300013 134.848437512458 288 -3 1 131.18055555224 110.48051697163
vector 8966  Network.dyn_peer[12]  lookupTimeSig:vector  ETV
8966	360183 9020 297 137532 20.300013 134.848437512458 288 0 2.7 139.3 92.11
vector 8979  Network.dyn_peer[17]  lookupHopsSig:vector  ETV
8979	479330 8950 306 137365 20.300018 134.64311853829 305 0 16 1222 7630
vector 8980  Network.dyn_peer[17]  lookupStabilitySig:vector  ETV
8980	488280 9937 306 137365 20.300018 134.64311853829 305 -1 1 152.29166666418 118.78568672435
vector 8981  Network.dyn_peer[17]  lookupTimeSig:vector  ETV
8981	498217 9513 306 137365 20.300018 134.64311853829 305 0 1.4 138.1 84.99
vector 8997  Network.dyn_peer[23]  lookupHopsSig:vector  ETV
8997	640553 9143 318 137019 20.300024 134.337588656222 311 0 15 1269 7715
vector 8998  Network.dyn_peer[23]  lookupStabilitySig:vector  ETV
8998	649696 10177 318 137019 20.300024 134.337588656222 311 -0.875 1 152.48611109704 114.43383485815
vector 8999  Network.dyn_peer[23]  lookupTimeSig:vector  ETV
8999	659873 9721 318 137019 20.300024 134.337588656222 311 0 1.5 142.1 87.05
vector 9015  Network.dyn_peer[29]  lookupHopsSig:vector  ETV
9015	810759 9637 327 137950 20.30003 135.368868499157 328 0 17 1326 8094
vector 9016  Network.dyn_peer[29]  lookupStabilitySig:vector  ETV
9016	820396 10710 327 137950 20.30003 135.368868499157 328 -1.125 1 162.29166665673 123.0225694312
vector 9017  Network.dyn_peer[29]  lookupTimeSig:vector  ETV
9017	831106 10260 327 137950 20.30003 135.368868499157 328 0 1.5 149.6 90.78
vector 8934  Network.dyn_peer[2]  lookupHopsSig:vector  ETV
8934	62782 8954 351 137165 20.400003 134.458503315441 304 0 18 1363 9045
vector 8935  Network.dyn_peer[2]  lookupStabilitySig:vector  ETV
8935	71736 9931 351 137165 20.400003 134.458503315441 304 -1.25 1 133.68055554479 104.65644288652
vector 8936  Network.dyn_peer[2]  lookupTimeSig:vector  ETV
8936	81667 9514 351 137165 20.400003 134.458503315441 304 0 1.7 151.7 99.13
vector 8937  Network.dyn_peer[3]  lookupHopsSig:vector  ETV
8937	91181 8232 356 137034 20.400004 134.344588037097 280 0 20 1168 7806
vector 8938  Network.dyn_peer[3]  lookupStabilitySig:vector  ETV
8938	99413 9182 356 137034 20.400004 134.344588037097 280 -1.5 1 134 109.96875
vector 8939  Network.dyn_peer[3]  lookupTimeSig:vector  ETV
8939	108595 8762 356 137034 20.400004 134.344588037097 280 0 2.1 130.5 84.71
vector 8967  Network.dyn_peer[13]  lookupHopsSig:vector  ETV
8967	369203 8461 367 136785 20.400014 134.117540629245 287 0 24 1241 8529
vector 8968  Network.dyn_peer[13]  lookupStabilitySig:vector  ETV
8968	377664 9443 367 136785 20.400014 134.117540629245 287 -2 1 131.91666665673 110.0694444312
vector 8969  Network.dyn_peer[13]  lookupTimeSig:vector  ETV
8969	387107 9002 367 136785 20.400014 134.117540629245 287 0 2.2 138.1 92.73
vector 8976  Network.dyn_peer[16]  lookupHopsSig:vector  ETV
8976	452268 8528 374 137826 20.400017 135.218397743912 290 0 19 1321 9141
vector 8977  Network.dyn_peer[16]  lookupStabilitySig:vector  ETV
8977	460796 9469 374 137826 20.400017 135.218397743912 290 -1.375 1 124.875 102.578125
vector 8978  Network.dyn_peer[16]  lookupTimeSig:vector  ETV
8978	470265 9065 374 137826 20.400017 135.218397743912 290 0 1.7 146.6 99.54
vector 9003  Network.dyn_peer[25]  lookupHopsSig:vector  ETV
9003	700583 8783 426 138170 20.500026 136.179262251486 299 0 25 1250 8042
vector 9004  Network.dyn_peer[25]  lookupStabilitySig:vector  ETV
9004	709366 9820 426 138170 20.500026 136.179262251486 299 -2.125 1 142.95833326876 112.20235339101
vector 9005  Network.dyn_peer[25]  lookupTimeSig:vector  ETV
9005	719186 9356 426 138170 20.500026 136.179262251486 299 0 2.3 139.4 86.44
vector 9021  Network.dyn_peer[31]  lookupHopsSig:vector  ETV
9021	869893 8571 435 137260 20.500032 134.548943876862 291 0 33 1233 8981
vector 9022  Network.dyn_peer[31]  lookupStabilitySig:vector  ETV
9022	878464 9536 435 137260 20.500032 134.548943876862 291 -3.125 1 137.02777776122 123.14429010874
vector 9023  Network.dyn_peer[31]  lookupTimeSig:vector  ETV
9023	888000 9110 435 137260 20.500032 134.548943876862 291 0 3 136.4 94.14
