version 2
run Stability-norelink-123-20130525-23:22:15-22103
attr configname Stability-norelink
attr datetime 20130525-23:22:15
attr experiment Stability
attr inifile omnetpp.ini
attr iterationvars $0=1e-6
attr iterationvars2 "$0=1e-6, $repetition=3"
attr measurement $0=1e-6
attr network Network
attr processid 22103
attr repetition 3
attr replication #3
attr resultdir results
attr runnumber 123
attr seedset 123

vector 11823  Network.dyn_peer[5]  lookupHopsSig:vector  ETV
vector 11824  Network.dyn_peer[5]  lookupStabilitySig:vector  ETV
vector 11825  Network.dyn_peer[5]  lookupTimeSig:vector  ETV
vector 11871  Network.dyn_peer[21]  lookupHopsSig:vector  ETV
vector 11872  Network.dyn_peer[21]  lookupStabilitySig:vector  ETV
vector 11873  Network.dyn_peer[21]  lookupTimeSig:vector  ETV
vector 11898  Network.dyn_peer[30]  lookupHopsSig:vector  ETV
vector 11899  Network.dyn_peer[30]  lookupStabilitySig:vector  ETV
vector 11900  Network.dyn_peer[30]  lookupTimeSig:vector  ETV
vector 11808  Network.dyn_peer[0]  lookupHopsSig:vector  ETV
vector 11809  Network.dyn_peer[0]  lookupStabilitySig:vector  ETV
vector 11810  Network.dyn_peer[0]  lookupTimeSig:vector  ETV
vector 11811  Network.dyn_peer[1]  lookupHopsSig:vector  ETV
vector 11812  Network.dyn_peer[1]  lookupStabilitySig:vector  ETV
vector 11813  Network.dyn_peer[1]  lookupTimeSig:vector  ETV
vector 11814  Network.dyn_peer[2]  lookupHopsSig:vector  ETV
vector 11815  Network.dyn_peer[2]  lookupStabilitySig:vector  ETV
vector 11816  Network.dyn_peer[2]  lookupTimeSig:vector  ETV
vector 11820  Network.dyn_peer[4]  lookupHopsSig:vector  ETV
vector 11821  Network.dyn_peer[4]  lookupStabilitySig:vector  ETV
vector 11822  Network.dyn_peer[4]  lookupTimeSig:vector  ETV
vector 11835  Network.dyn_peer[9]  lookupHopsSig:vector  ETV
vector 11836  Network.dyn_peer[9]  lookupStabilitySig:vector  ETV
vector 11837  Network.dyn_peer[9]  lookupTimeSig:vector  ETV
vector 11868  Network.dyn_peer[20]  lookupHopsSig:vector  ETV
vector 11869  Network.dyn_peer[20]  lookupStabilitySig:vector  ETV
vector 11870  Network.dyn_peer[20]  lookupTimeSig:vector  ETV
vector 11874  Network.dyn_peer[22]  lookupHopsSig:vector  ETV
vector 11875  Network.dyn_peer[22]  lookupStabilitySig:vector  ETV
vector 11876  Network.dyn_peer[22]  lookupTimeSig:vector  ETV
vector 11877  Network.dyn_peer[23]  lookupHopsSig:vector  ETV
vector 11878  Network.dyn_peer[23]  lookupStabilitySig:vector  ETV
vector 11879  Network.dyn_peer[23]  lookupTimeSig:vector  ETV
vector 11880  Network.dyn_peer[24]  lookupHopsSig:vector  ETV
vector 11881  Network.dyn_peer[24]  lookupStabilitySig:vector  ETV
vector 11882  Network.dyn_peer[24]  lookupTimeSig:vector  ETV
vector 11886  Network.dyn_peer[26]  lookupHopsSig:vector  ETV
vector 11887  Network.dyn_peer[26]  lookupStabilitySig:vector  ETV
vector 11888  Network.dyn_peer[26]  lookupTimeSig:vector  ETV
vector 11895  Network.dyn_peer[29]  lookupHopsSig:vector  ETV
vector 11896  Network.dyn_peer[29]  lookupStabilitySig:vector  ETV
vector 11897  Network.dyn_peer[29]  lookupTimeSig:vector  ETV
vector 11832  Network.dyn_peer[8]  lookupHopsSig:vector  ETV
vector 11833  Network.dyn_peer[8]  lookupStabilitySig:vector  ETV
vector 11834  Network.dyn_peer[8]  lookupTimeSig:vector  ETV
vector 11838  Network.dyn_peer[10]  lookupHopsSig:vector  ETV
vector 11839  Network.dyn_peer[10]  lookupStabilitySig:vector  ETV
vector 11840  Network.dyn_peer[10]  lookupTimeSig:vector  ETV
vector 11850  Network.dyn_peer[14]  lookupHopsSig:vector  ETV
vector 11851  Network.dyn_peer[14]  lookupStabilitySig:vector  ETV
vector 11852  Network.dyn_peer[14]  lookupTimeSig:vector  ETV
vector 11862  Network.dyn_peer[18]  lookupHopsSig:vector  ETV
vector 11863  Network.dyn_peer[18]  lookupStabilitySig:vector  ETV
vector 11864  Network.dyn_peer[18]  lookupTimeSig:vector  ETV
vector 11865  Network.dyn_peer[19]  lookupHopsSig:vector  ETV
vector 11866  Network.dyn_peer[19]  lookupStabilitySig:vector  ETV
vector 11867  Network.dyn_peer[19]  lookupTimeSig:vector  ETV
vector 11883  Network.dyn_peer[25]  lookupHopsSig:vector  ETV
vector 11884  Network.dyn_peer[25]  lookupStabilitySig:vector  ETV
vector 11885  Network.dyn_peer[25]  lookupTimeSig:vector  ETV
vector 11901  Network.dyn_peer[31]  lookupHopsSig:vector  ETV
vector 11902  Network.dyn_peer[31]  lookupStabilitySig:vector  ETV
vector 11903  Network.dyn_peer[31]  lookupTimeSig:vector  ETV
vector 11826  Network.dyn_peer[6]  lookupHopsSig:vector  ETV
vector 11827  Network.dyn_peer[6]  lookupStabilitySig:vector  ETV
vector 11828  Network.dyn_peer[6]  lookupTimeSig:vector  ETV
vector 11844  Network.dyn_peer[12]  lookupHopsSig:vector  ETV
vector 11845  Network.dyn_peer[12]  lookupStabilitySig:vector  ETV
vector 11846  Network.dyn_peer[12]  lookupTimeSig:vector  ETV
vector 11847  Network.dyn_peer[13]  lookupHopsSig:vector  ETV
vector 11848  Network.dyn_peer[13]  lookupStabilitySig:vector  ETV
vector 11849  Network.dyn_peer[13]  lookupTimeSig:vector  ETV
vector 11853  Network.dyn_peer[15]  lookupHopsSig:vector  ETV
vector 11854  Network.dyn_peer[15]  lookupStabilitySig:vector  ETV
vector 11855  Network.dyn_peer[15]  lookupTimeSig:vector  ETV
vector 11859  Network.dyn_peer[17]  lookupHopsSig:vector  ETV
vector 11860  Network.dyn_peer[17]  lookupStabilitySig:vector  ETV
vector 11861  Network.dyn_peer[17]  lookupTimeSig:vector  ETV
vector 11892  Network.dyn_peer[28]  lookupHopsSig:vector  ETV
vector 11893  Network.dyn_peer[28]  lookupStabilitySig:vector  ETV
vector 11894  Network.dyn_peer[28]  lookupTimeSig:vector  ETV
vector 11817  Network.dyn_peer[3]  lookupHopsSig:vector  ETV
vector 11818  Network.dyn_peer[3]  lookupStabilitySig:vector  ETV
vector 11819  Network.dyn_peer[3]  lookupTimeSig:vector  ETV
vector 11829  Network.dyn_peer[7]  lookupHopsSig:vector  ETV
vector 11830  Network.dyn_peer[7]  lookupStabilitySig:vector  ETV
vector 11831  Network.dyn_peer[7]  lookupTimeSig:vector  ETV
vector 11856  Network.dyn_peer[16]  lookupHopsSig:vector  ETV
vector 11857  Network.dyn_peer[16]  lookupStabilitySig:vector  ETV
vector 11858  Network.dyn_peer[16]  lookupTimeSig:vector  ETV
vector 11889  Network.dyn_peer[27]  lookupHopsSig:vector  ETV
vector 11890  Network.dyn_peer[27]  lookupStabilitySig:vector  ETV
vector 11891  Network.dyn_peer[27]  lookupTimeSig:vector  ETV
vector 11841  Network.dyn_peer[11]  lookupHopsSig:vector  ETV
vector 11842  Network.dyn_peer[11]  lookupStabilitySig:vector  ETV
vector 11843  Network.dyn_peer[11]  lookupTimeSig:vector  ETV
11808	138	20.100000001	1
11808	985	21.308177300083	4
11808	1184	21.508177300083	1
11808	1682	21.920794799074	1
11808	1837	22.10875378026	5
11808	3433	23.511429201855	15
11808	3919	23.911429201855	3
11808	4130	24.033246276609	2
11808	4254	24.154566287138	2
11808	4461	24.33401850392	2
11808	5148	24.935444242337	7
11808	5579	25.332761966584	1
11808	6430	26.032861967584	8
11808	7215	26.732861967584	8
11808	9103	28.045113673792	13
11808	9520	28.352445059566	1
11808	9734	28.547955866097	4
11808	10094	28.856949944966	2
11808	10489	29.161593507438	3
11808	12000	30.561593507438	14
11808	12923	31.362144951391	2
11808	12927	31.363331221661	9
11808	13567	31.872135981193	5
11808	14068	32.272235982193	4
11808	14316	32.472235982193	1
11808	14808	32.877741279104	3
11808	15143	33.184975935069	3
11808	15333	33.349128276179	3
11808	15588	33.558648383409	1
11808	15643	33.591660266294	3
11808	15800	33.699932934441	1
11808	16091	33.899932934441	1
11808	16336	34.108802394563	1
11808	17256	34.910394561568	7
11808	17506	35.105673889084	13
11808	17623	35.210096282	1
11808	17884	35.410096282	1
11808	18253	35.700305606632	1
11808	18385	35.800405607632	1
11808	19004	36.300405607632	4
11808	19845	37.00374625273	7
11808	20172	37.30374625273	2
11808	20552	37.612702458962	0
11808	21180	38.212702458962	5
11808	22018	38.846244915696	6
11808	22362	39.146244915696	2
11808	23181	39.846751414872	7
11808	23304	39.946851415872	1
11808	24265	40.746851415872	8
11808	24755	41.152218370824	3
11808	25799	41.959055425848	8
11808	25954	42.121572326868	1
11808	25973	42.159864799617	1
11808	26806	42.864963873534	9
11808	27172	43.264963873534	3
11808	27396	43.465063874534	2
11808	28042	44.005925385439	3
11808	28528	44.406478236075	4
11808	29291	45.106478236075	6
11808	29654	45.416472977771	2
11808	29814	45.525956137086	1
11808	30998	46.452270971578	3
11808	31951	47.152370972578	8
11808	32260	47.460505721902	2
11808	32911	48.041226994374	1
11808	32960	48.065337117938	5
11808	33269	48.266384769124	2
11808	33572	48.521699471682	1
11808	33939	48.829123413984	3
11808	34519	49.329123413984	4
11808	36180	50.732812614444	16
11808	36619	51.132812614444	3
11808	36936	51.438099755553	2
11808	37464	51.84636255228	4
11808	37906	52.153500886322	2
11808	38112	52.353779931755	1
11808	38350	52.54518727972	8
11808	38380	52.562298347193	1
11808	38439	52.595674823925	1
11808	38645	52.763922335648	14
11808	38929	52.998191664905	4
11808	38992	53.064330537372	4
11808	39012	53.070744789056	0
11808	39861	53.79529936799	3
11808	40309	54.196266165464	4
11808	40602	54.412292720011	2
11808	41302	54.953199017925	4
11808	41749	55.353199017925	3
11808	42237	55.860359185085	4
11808	42472	55.993323351864	4
11808	42778	56.300353339758	2
11808	43340	56.704998471803	3
11808	43426	56.778390952825	7
11808	44397	57.484238845303	7
11808	44968	57.884238845303	3
11808	45714	58.498708435479	5
11808	46139	58.808155607558	2
11808	46224	58.895318386826	2
11808	46688	59.231836798087	4
11808	46883	59.39928080991	4
11808	47039	59.508494465727	1
11808	47537	60.008494465727	4
11808	47785	60.215814317111	1
11808	48035	60.416035811726	1
11808	48927	61.11978165979	9
11808	49751	61.81978165979	8
11808	50598	62.423287462329	6
11808	51289	62.923287462329	5
11808	51885	63.326209214383	3
11808	52377	63.714338976911	3
11808	52532	63.83681284129	4
11808	52620	63.908863760238	3
11808	53496	64.615321700325	8
11808	54316	65.215321700325	5
11808	54730	65.516344614856	3
11808	55103	65.816585888892	4
11808	55883	66.416585888892	5
11808	56598	67.116685889892	7
11808	57438	67.916685889892	7
11808	57843	68.321022280196	3
11808	58029	68.521134736705	1
11808	60216	70.230002989436	19
11808	61115	71.130002989436	8
11808	61550	71.630102990436	5
11808	62094	72.136723660403	5
11808	62639	72.536823661403	4
11808	63768	73.336823661403	8
11808	63930	73.444116551596	1
11808	64561	73.944116551596	4
11808	65005	74.360714532477	3
11808	65219	74.568857169544	1
11808	65872	75.176372768943	6
11808	65889	75.195246103294	9
11808	66551	75.798511619254	6
11808	67093	76.198511619254	3
11808	67528	76.504045493537	2
11808	67653	76.610493906801	1
11808	68174	77.010593907801	4
11808	68998	77.710593907801	6
11808	69762	78.319715070417	5
11808	70012	78.522095685575	1
11808	70215	78.68003020216	4
11808	71654	79.98013020316	13
11808	72130	80.38013020316	3
11808	72671	80.889020379871	5
11808	72788	80.978797850652	3
11808	73596	81.68970449816	7
11808	73977	82.002939851149	9
11808	74117	82.111144463957	1
11808	74362	82.304256612944	4
11808	74563	82.485598427649	16
11808	74710	82.594035641439	8
11808	74731	82.602144714615	0
11808	76328	83.902144714615	14
11808	77250	84.709785039802	7
11808	77718	85.110443066002	3
11808	78043	85.410543067002	3
11808	78982	86.110543067002	8
11808	79270	86.310643068002	3
11808	79638	86.610643068002	2
11808	80358	87.218162617782	5
11808	80391	87.287344457321	5
11808	80550	87.42592418904	1
11808	80759	87.593414006661	3
11808	80846	87.670724063767	3
11808	81706	88.385648246157	6
11808	81864	88.505122249961	7
11808	81962	88.594467138384	10
11808	82105	88.694900411209	1
11808	83518	89.88394409896	2
11808	83530	89.894900411209	12
11808	83678	89.995330247155	1
11808	84434	90.595330247155	6
11808	84975	91.011687761015	2
11808	85744	91.713532495872	7
11808	86364	92.213532495872	5
11808	87038	92.869822767017	6
11808	87158	92.949014935602	6
11808	87963	93.655046000054	7
11808	88278	93.955046000054	2
11808	88721	94.358454235032	3
11808	88943	94.56130495085	1
11808	89296	94.867410194486	3
11808	89652	95.167410194486	3
11808	90296	95.773878829501	5
11808	90476	95.97872331203	1
11808	90584	96.066694950325	5
11808	90803	96.271187173161	1
11808	91657	97.075964621893	8
11808	92086	97.475964621893	3
11808	93379	98.480288103309	10
11808	94500	99.483814611951	10
11808	95123	99.993429195807	4
11808	95468	100.261313956899	5
11808	95561	100.30114990274	2
11808	95577	100.302548209502	0
11808	96808	101.302548209502	10
11808	96883	101.404408241969	3
11808	97203	101.709056099407	3
11808	97631	102.009056099407	2
11808	97798	102.113918085538	1
11808	98187	102.419967573918	2
11808	98201	102.444806804072	2
11808	98414	102.624074515802	1
11808	98518	102.745250369468	2
11808	98535	102.745700081396	0
11808	98907	103.145700081396	3
11808	99319	103.514483586986	4
11808	99369	103.599464751538	4
11808	99413	103.650655082853	4
11808	99648	103.916263925198	3
11808	99709	103.958152045069	5
11808	100195	104.366336433184	4
11808	100802	104.866336433184	4
11808	101494	105.467101200752	3
11808	101503	105.474607377791	5
11808	101617	105.576820698185	0
11808	101964	105.877896503661	2
11808	102313	106.198598951743	3
11808	102399	106.268183845207	7
11808	103096	106.773646726343	6
11808	103657	107.273646726343	5
11808	103689	107.310141894359	3
11808	104169	107.719170608524	4
11808	104684	108.219170608524	5
11808	105350	108.824523258818	6
11808	105387	108.847410854184	6
11808	106031	109.354175918307	5
11808	106546	109.754175918307	3
11808	106760	109.961175426299	2
11808	107248	110.461175426299	5
11808	107714	110.868594050599	4
11808	107740	110.877113489696	4
11808	107969	111.079867492521	1
11808	108196	111.28523780341	1
11808	108723	111.674203905598	8
11808	108764	111.729225799072	6
11808	109130	111.978404731314	2
11808	109387	112.185809213647	2
11808	110271	112.985809213647	8
11808	110817	113.385909214647	4
11808	111281	113.785909214647	3
11808	112046	114.491532124384	6
11808	112795	115.291632125384	8
11808	113551	115.891632125384	5
11808	113836	116.09251356158	1
11808	114121	116.396207603158	2
11808	115456	117.497482679939	11
11808	116222	118.297482679939	7
11808	116775	118.806585558579	5
11808	117156	119.109778677048	2
11808	117213	119.14546469647	2
11808	117519	119.418990471746	3
11808	117522	119.419165786779	2
11808	117781	119.627043631754	2
11808	118225	120.027043631754	3
11808	118397	120.221677894513	3
11808	118711	120.528456903992	3
11808	119167	120.928456903992	3
11808	119763	121.536198394792	6
11808	120010	121.74391767441	1
11808	120179	121.90036305787	4
11808	121199	122.702570534898	9
11808	121784	123.202570534898	4
11808	123307	124.507076860805	12
11808	123727	124.912822764456	3
11808	124344	125.419008873638	4
11808	124751	125.72621391019	2
11808	125173	126.060779722451	9
11808	125444	126.354694550999	6
11808	125689	126.557605748904	2
11808	127013	127.765344115523	9
11808	128049	128.665344115523	9
11808	128455	129.071871807879	3
11808	128659	129.26051647823	4
11808	129089	129.60327549494	6
11808	129176	129.678416852789	6
11808	129848	130.187901825296	5
11808	131333	131.287901825296	10
11808	131764	131.693021136868	3
11808	132004	131.901880216608	1
11808	132590	132.507876401479	6
11808	133172	133.015480097195	4
11808	133837	133.518339357594	5
11808	134375	134.134213735424	6
11808	134412	134.182410731785	3
11808	134518	134.390501142487	1
11808	134612	134.601083734987	1
11808	134638	134.688154532442	2
11808	134680	134.741622303747	5
11809	138	20.100000001	0.875
11809	985	21.308177300083	0.5
11809	1184	21.508177300083	0.875
11809	1682	21.920794799074	0.875
11809	1837	22.10875378026	0.375
11809	3433	23.511429201855	-0.875
11809	3919	23.911429201855	0.625
11809	4130	24.033246276609	0.75
11809	4254	24.154566287138	0.75
11809	4461	24.33401850392	0.75
11809	5148	24.935444242337	0.125
11809	5579	25.332761966584	0.875
11809	6430	26.032861967584	0
11809	7215	26.732861967584	0
11809	9103	28.045113673792	-0.625
11809	9520	28.352445059566	0.875
11809	9734	28.547955866097	0.5
11809	10094	28.856949944966	0.75
11809	10489	29.161593507438	0.625
11809	12000	30.561593507438	-0.75
11809	12923	31.362144951391	0.75
11809	12927	31.363331221661	-0.125
11809	13567	31.872135981193	0.375
11809	14068	32.272235982193	0.5
11809	14316	32.472235982193	0.875
11809	14808	32.877741279104	0.625
11809	15143	33.184975935069	0.625
11809	15333	33.349128276179	0.625
11809	15588	33.558648383409	0.875
11809	15643	33.591660266294	0.625
11809	15800	33.699932934441	0.875
11809	16091	33.899932934441	0.875
11809	16336	34.108802394563	0.875
11809	17256	34.910394561568	0.125
11809	17506	35.105673889084	-0.625
11809	17623	35.210096282	0.875
11809	17884	35.410096282	0.875
11809	18253	35.700305606632	0.875
11809	18385	35.800405607632	0.875
11809	19004	36.300405607632	0.5
11809	19845	37.00374625273	0.125
11809	20172	37.30374625273	0.75
11809	20552	37.612702458962	1
11809	21180	38.212702458962	0.375
11809	22018	38.846244915696	0.25
11809	22362	39.146244915696	0.75
11809	23181	39.846751414872	0.125
11809	23304	39.946851415872	0.875
11809	24265	40.746851415872	0
11809	24755	41.152218370824	0.625
11809	25799	41.959055425848	0
11809	25954	42.121572326868	0.875
11809	25973	42.159864799617	0.875
11809	26806	42.864963873534	-0.125
11809	27172	43.264963873534	0.625
11809	27396	43.465063874534	0.75
11809	28042	44.005925385439	0.625
11809	28528	44.406478236075	0.5
11809	29291	45.106478236075	0.25
11809	29654	45.416472977771	0.75
11809	29814	45.525956137086	0.875
11809	30998	46.452270971578	0.625
11809	31951	47.152370972578	0
11809	32260	47.460505721902	0.75
11809	32911	48.041226994374	0.875
11809	32960	48.065337117938	0.375
11809	33269	48.266384769124	0.75
11809	33572	48.521699471682	0.875
11809	33939	48.829123413984	0.625
11809	34519	49.329123413984	0.5
11809	36180	50.732812614444	-1
11809	36619	51.132812614444	0.625
11809	36936	51.438099755553	0.75
11809	37464	51.84636255228	0.5
11809	37906	52.153500886322	0.75
11809	38112	52.353779931755	0.875
11809	38350	52.54518727972	0
11809	38380	52.562298347193	0.875
11809	38439	52.595674823925	0.875
11809	38645	52.763922335648	-0.75
11809	38929	52.998191664905	0.5
11809	38992	53.064330537372	0.5
11809	39012	53.070744789056	1
11809	39861	53.79529936799	0.625
11809	40309	54.196266165464	0.5
11809	40602	54.412292720011	0.75
11809	41302	54.953199017925	0.5
11809	41749	55.353199017925	0.625
11809	42237	55.860359185085	0.5
11809	42472	55.993323351864	0.5
11809	42778	56.300353339758	0.75
11809	43340	56.704998471803	0.625
11809	43426	56.778390952825	0.125
11809	44397	57.484238845303	0.125
11809	44968	57.884238845303	0.625
11809	45714	58.498708435479	0.375
11809	46139	58.808155607558	0.75
11809	46224	58.895318386826	0.75
11809	46688	59.231836798087	0.5
11809	46883	59.39928080991	0.5
11809	47039	59.508494465727	0.875
11809	47537	60.008494465727	0.5
11809	47785	60.215814317111	0.875
11809	48035	60.416035811726	0.875
11809	48927	61.11978165979	-0.125
11809	49751	61.81978165979	0
11809	50598	62.423287462329	0.25
11809	51289	62.923287462329	0.375
11809	51885	63.326209214383	0.625
11809	52377	63.714338976911	0.625
11809	52532	63.83681284129	0.5
11809	52620	63.908863760238	0.625
11809	53496	64.615321700325	0
11809	54316	65.215321700325	0.375
11809	54730	65.516344614856	0.625
11809	55103	65.816585888892	0.5
11809	55883	66.416585888892	0.375
11809	56598	67.116685889892	0.125
11809	57438	67.916685889892	0.125
11809	57843	68.321022280196	0.625
11809	58029	68.521134736705	0.875
11809	60216	70.230002989436	-1.375
11809	61115	71.130002989436	0
11809	61550	71.630102990436	0.375
11809	62094	72.136723660403	0.375
11809	62639	72.536823661403	0.5
11809	63768	73.336823661403	0
11809	63930	73.444116551596	0.875
11809	64561	73.944116551596	0.5
11809	65005	74.360714532477	0.625
11809	65219	74.568857169544	0.875
11809	65872	75.176372768943	0.25
11809	65889	75.195246103294	-0.125
11809	66551	75.798511619254	0.25
11809	67093	76.198511619254	0.625
11809	67528	76.504045493537	0.75
11809	67653	76.610493906801	0.875
11809	68174	77.010593907801	0.5
11809	68998	77.710593907801	0.25
11809	69762	78.319715070417	0.375
11809	70012	78.522095685575	0.875
11809	70215	78.68003020216	0.5
11809	71654	79.98013020316	-0.625
11809	72130	80.38013020316	0.625
11809	72671	80.889020379871	0.375
11809	72788	80.978797850652	0.625
11809	73596	81.68970449816	0.125
11809	73977	82.002939851149	-0.125
11809	74117	82.111144463957	0.875
11809	74362	82.304256612944	0.5
11809	74563	82.485598427649	-1
11809	74710	82.594035641439	0
11809	74731	82.602144714615	1
11809	76328	83.902144714615	-0.75
11809	77250	84.709785039802	0.125
11809	77718	85.110443066002	0.625
11809	78043	85.410543067002	0.625
11809	78982	86.110543067002	0
11809	79270	86.310643068002	0.625
11809	79638	86.610643068002	0.75
11809	80358	87.218162617782	0.375
11809	80391	87.287344457321	0.375
11809	80550	87.42592418904	0.875
11809	80759	87.593414006661	0.625
11809	80846	87.670724063767	0.625
11809	81706	88.385648246157	0.25
11809	81864	88.505122249961	0.125
11809	81962	88.594467138384	-0.25
11809	82105	88.694900411209	0.875
11809	83518	89.88394409896	0.75
11809	83530	89.894900411209	-0.5
11809	83678	89.995330247155	0.875
11809	84434	90.595330247155	0.25
11809	84975	91.011687761015	0.75
11809	85744	91.713532495872	0.125
11809	86364	92.213532495872	0.375
11809	87038	92.869822767017	0.25
11809	87158	92.949014935602	0.25
11809	87963	93.655046000054	0.125
11809	88278	93.955046000054	0.75
11809	88721	94.358454235032	0.625
11809	88943	94.56130495085	0.875
11809	89296	94.867410194486	0.625
11809	89652	95.167410194486	0.625
11809	90296	95.773878829501	0.375
11809	90476	95.97872331203	0.875
11809	90584	96.066694950325	0.375
11809	90803	96.271187173161	0.875
11809	91657	97.075964621893	0
11809	92086	97.475964621893	0.625
11809	93379	98.480288103309	-0.25
11809	94500	99.483814611951	-0.25
11809	95123	99.993429195807	0.5
11809	95468	100.261313956899	0.375
11809	95561	100.30114990274	0.75
11809	95577	100.302548209502	1
11809	96808	101.302548209502	-0.25
11809	96883	101.404408241969	0.625
11809	97203	101.709056099407	0.625
11809	97631	102.009056099407	0.75
11809	97798	102.113918085538	0.875
11809	98187	102.419967573918	0.75
11809	98201	102.444806804072	0.75
11809	98414	102.624074515802	0.875
11809	98518	102.745250369468	0.75
11809	98535	102.745700081396	1
11809	98907	103.145700081396	0.625
11809	99319	103.514483586986	0.5
11809	99369	103.599464751538	0.5
11809	99413	103.650655082853	0.5
11809	99648	103.916263925198	0.625
11809	99709	103.958152045069	0.375
11809	100195	104.366336433184	0.5
11809	100802	104.866336433184	0.5
11809	101494	105.467101200752	0.625
11809	101503	105.474607377791	0.375
11809	101617	105.576820698185	1
11809	101964	105.877896503661	0.75
11809	102313	106.198598951743	0.625
11809	102399	106.268183845207	0.125
11809	103096	106.773646726343	0.25
11809	103657	107.273646726343	0.375
11809	103689	107.310141894359	0.625
11809	104169	107.719170608524	0.5
11809	104684	108.219170608524	0.375
11809	105350	108.824523258818	0.25
11809	105387	108.847410854184	0.25
11809	106031	109.354175918307	0.375
11809	106546	109.754175918307	0.625
11809	106760	109.961175426299	0.75
11809	107248	110.461175426299	0.375
11809	107714	110.868594050599	0.5
11809	107740	110.877113489696	0.5
11809	107969	111.079867492521	0.875
11809	108196	111.28523780341	0.875
11809	108723	111.674203905598	0
11809	108764	111.729225799072	0.25
11809	109130	111.978404731314	0.75
11809	109387	112.185809213647	0.75
11809	110271	112.985809213647	0
11809	110817	113.385909214647	0.5
11809	111281	113.785909214647	0.625
11809	112046	114.491532124384	0.25
11809	112795	115.291632125384	0
11809	113551	115.891632125384	0.375
11809	113836	116.09251356158	0.875
11809	114121	116.396207603158	0.75
11809	115456	117.497482679939	-0.375
11809	116222	118.297482679939	0.125
11809	116775	118.806585558579	0.375
11809	117156	119.109778677048	0.75
11809	117213	119.14546469647	0.75
11809	117519	119.418990471746	0.625
11809	117522	119.419165786779	0.75
11809	117781	119.627043631754	0.75
11809	118225	120.027043631754	0.625
11809	118397	120.221677894513	0.625
11809	118711	120.528456903992	0.625
11809	119167	120.928456903992	0.625
11809	119763	121.536198394792	0.25
11809	120010	121.74391767441	0.875
11809	120179	121.90036305787	0.5
11809	121199	122.702570534898	-0.125
11809	121784	123.202570534898	0.5
11809	123307	124.507076860805	-0.5
11809	123727	124.912822764456	0.625
11809	124344	125.419008873638	0.5
11809	124751	125.72621391019	0.75
11809	125173	126.060779722451	-0.125
11809	125444	126.354694550999	0.25
11809	125689	126.557605748904	0.75
11809	127013	127.765344115523	-0.125
11809	128049	128.665344115523	-0.125
11809	128455	129.071871807879	0.625
11809	128659	129.26051647823	0.5
11809	129089	129.60327549494	0.25
11809	129176	129.678416852789	0.25
11809	129848	130.187901825296	0.375
11809	131333	131.287901825296	-0.25
11809	131764	131.693021136868	0.625
11809	132004	131.901880216608	0.875
11809	132590	132.507876401479	0.25
11809	133172	133.015480097195	0.5
11809	133837	133.518339357594	0.375
11809	134375	134.134213735424	0.25
11809	134412	134.182410731785	0.625
11809	134518	134.390501142487	0.875
11809	134612	134.601083734987	0.875
11809	134638	134.688154532442	0.75
11809	134680	134.741622303747	0.375
11810	138	20.100000001	0.1
11810	985	21.308177300083	0.4
11810	1184	21.508177300083	0.2
11810	1682	21.920794799074	0.2
11810	1837	22.10875378026	0.6
11810	3433	23.511429201855	1.4
11810	3919	23.911429201855	0.4
11810	4130	24.033246276609	0.2
11810	4254	24.154566287138	0.3
11810	4461	24.33401850392	0.3
11810	5148	24.935444242337	0.6
11810	5579	25.332761966584	0.2
11810	6430	26.032861967584	0.7
11810	7215	26.732861967584	0.7
11810	9103	28.045113673792	1.3
11810	9520	28.352445059566	0.2
11810	9734	28.547955866097	0.5
11810	10094	28.856949944966	0.3
11810	10489	29.161593507438	0.3
11810	12000	30.561593507438	1.4
11810	12923	31.362144951391	0.2
11810	12927	31.363331221661	0.8
11810	13567	31.872135981193	0.5
11810	14068	32.272235982193	0.4
11810	14316	32.472235982193	0.2
11810	14808	32.877741279104	0.4
11810	15143	33.184975935069	0.3
11810	15333	33.349128276179	0.4
11810	15588	33.558648383409	0.2
11810	15643	33.591660266294	0.4
11810	15800	33.699932934441	0.1
11810	16091	33.899932934441	0.2
11810	16336	34.108802394563	0.2
11810	17256	34.910394561568	0.8
11810	17506	35.105673889084	1.3
11810	17623	35.210096282	0.1
11810	17884	35.410096282	0.2
11810	18253	35.700305606632	0.2
11810	18385	35.800405607632	0.1
11810	19004	36.300405607632	0.5
11810	19845	37.00374625273	0.7
11810	20172	37.30374625273	0.3
11810	20552	37.612702458962	0
11810	21180	38.212702458962	0.6
11810	22018	38.846244915696	0.5
11810	22362	39.146244915696	0.3
11810	23181	39.846751414872	0.7
11810	23304	39.946851415872	0.1
11810	24265	40.746851415872	0.8
11810	24755	41.152218370824	0.4
11810	25799	41.959055425848	0.8
11810	25954	42.121572326868	0.2
11810	25973	42.159864799617	0.2
11810	26806	42.864963873534	0.7
11810	27172	43.264963873534	0.4
11810	27396	43.465063874534	0.2
11810	28042	44.005925385439	0.4
11810	28528	44.406478236075	0.4
11810	29291	45.106478236075	0.7
11810	29654	45.416472977771	0.3
11810	29814	45.525956137086	0.1
11810	30998	46.452270971578	0.4
11810	31951	47.152370972578	0.7
11810	32260	47.460505721902	0.3
11810	32911	48.041226994374	0.2
11810	32960	48.065337117938	0.6
11810	33269	48.266384769124	0.2
11810	33572	48.521699471682	0.1
11810	33939	48.829123413984	0.3
11810	34519	49.329123413984	0.5
11810	36180	50.732812614444	1.4
11810	36619	51.132812614444	0.4
11810	36936	51.438099755553	0.3
11810	37464	51.84636255228	0.4
11810	37906	52.153500886322	0.3
11810	38112	52.353779931755	0.2
11810	38350	52.54518727972	0.8
11810	38380	52.562298347193	0.2
11810	38439	52.595674823925	0.2
11810	38645	52.763922335648	1.4
11810	38929	52.998191664905	0.4
11810	38992	53.064330537372	0.5
11810	39012	53.070744789056	0
11810	39861	53.79529936799	0.3
11810	40309	54.196266165464	0.4
11810	40602	54.412292720011	0.2
11810	41302	54.953199017925	0.4
11810	41749	55.353199017925	0.4
11810	42237	55.860359185085	0.5
11810	42472	55.993323351864	0.5
11810	42778	56.300353339758	0.3
11810	43340	56.704998471803	0.4
11810	43426	56.778390952825	0.8
11810	44397	57.484238845303	0.7
11810	44968	57.884238845303	0.4
11810	45714	58.498708435479	0.6
11810	46139	58.808155607558	0.3
11810	46224	58.895318386826	0.3
11810	46688	59.231836798087	0.4
11810	46883	59.39928080991	0.5
11810	47039	59.508494465727	0.1
11810	47537	60.008494465727	0.5
11810	47785	60.215814317111	0.2
11810	48035	60.416035811726	0.2
11810	48927	61.11978165979	0.7
11810	49751	61.81978165979	0.7
11810	50598	62.423287462329	0.6
11810	51289	62.923287462329	0.5
11810	51885	63.326209214383	0.4
11810	52377	63.714338976911	0.3
11810	52532	63.83681284129	0.5
11810	52620	63.908863760238	0.4
11810	53496	64.615321700325	0.7
11810	54316	65.215321700325	0.6
11810	54730	65.516344614856	0.3
11810	55103	65.816585888892	0.3
11810	55883	66.416585888892	0.6
11810	56598	67.116685889892	0.7
11810	57438	67.916685889892	0.8
11810	57843	68.321022280196	0.4
11810	58029	68.521134736705	0.2
11810	60216	70.230002989436	1.7
11810	61115	71.130002989436	0.9
11810	61550	71.630102990436	0.5
11810	62094	72.136723660403	0.5
11810	62639	72.536823661403	0.4
11810	63768	73.336823661403	0.8
11810	63930	73.444116551596	0.1
11810	64561	73.944116551596	0.5
11810	65005	74.360714532477	0.4
11810	65219	74.568857169544	0.2
11810	65872	75.176372768943	0.6
11810	65889	75.195246103294	0.9
11810	66551	75.798511619254	0.6
11810	67093	76.198511619254	0.4
11810	67528	76.504045493537	0.3
11810	67653	76.610493906801	0.1
11810	68174	77.010593907801	0.4
11810	68998	77.710593907801	0.7
11810	69762	78.319715070417	0.6
11810	70012	78.522095685575	0.2
11810	70215	78.68003020216	0.5
11810	71654	79.98013020316	1.3
11810	72130	80.38013020316	0.4
11810	72671	80.889020379871	0.5
11810	72788	80.978797850652	0.4
11810	73596	81.68970449816	0.8
11810	73977	82.002939851149	0.9
11810	74117	82.111144463957	0.1
11810	74362	82.304256612944	0.5
11810	74563	82.485598427649	1.5
11810	74710	82.594035641439	0.9
11810	74731	82.602144714615	0
11810	76328	83.902144714615	1.3