version 2
run Stability-norelink-81-20130525-23:19:24-22103
attr configname Stability-norelink
attr datetime 20130525-23:19:24
attr experiment Stability
attr inifile omnetpp.ini
attr iterationvars $0=1e-2
attr iterationvars2 "$0=1e-2, $repetition=1"
attr measurement $0=1e-2
attr network Network
attr processid 22103
attr repetition 1
attr replication #1
attr resultdir results
attr runnumber 81
attr seedset 81

vector 7791  Network.dyn_peer[5]  lookupHopsSig:vector  ETV
vector 7792  Network.dyn_peer[5]  lookupStabilitySig:vector  ETV
vector 7793  Network.dyn_peer[5]  lookupTimeSig:vector  ETV
vector 7830  Network.dyn_peer[18]  lookupHopsSig:vector  ETV
vector 7831  Network.dyn_peer[18]  lookupStabilitySig:vector  ETV
vector 7832  Network.dyn_peer[18]  lookupTimeSig:vector  ETV
vector 7842  Network.dyn_peer[22]  lookupHopsSig:vector  ETV
vector 7843  Network.dyn_peer[22]  lookupStabilitySig:vector  ETV
vector 7844  Network.dyn_peer[22]  lookupTimeSig:vector  ETV
vector 7845  Network.dyn_peer[23]  lookupHopsSig:vector  ETV
vector 7846  Network.dyn_peer[23]  lookupStabilitySig:vector  ETV
vector 7847  Network.dyn_peer[23]  lookupTimeSig:vector  ETV
vector 7869  Network.dyn_peer[31]  lookupHopsSig:vector  ETV
vector 7870  Network.dyn_peer[31]  lookupStabilitySig:vector  ETV
vector 7871  Network.dyn_peer[31]  lookupTimeSig:vector  ETV
vector 7782  Network.dyn_peer[2]  lookupHopsSig:vector  ETV
vector 7783  Network.dyn_peer[2]  lookupStabilitySig:vector  ETV
vector 7784  Network.dyn_peer[2]  lookupTimeSig:vector  ETV
vector 7785  Network.dyn_peer[3]  lookupHopsSig:vector  ETV
vector 7786  Network.dyn_peer[3]  lookupStabilitySig:vector  ETV
vector 7787  Network.dyn_peer[3]  lookupTimeSig:vector  ETV
vector 7809  Network.dyn_peer[11]  lookupHopsSig:vector  ETV
vector 7810  Network.dyn_peer[11]  lookupStabilitySig:vector  ETV
vector 7811  Network.dyn_peer[11]  lookupTimeSig:vector  ETV
vector 7818  Network.dyn_peer[14]  lookupHopsSig:vector  ETV
vector 7819  Network.dyn_peer[14]  lookupStabilitySig:vector  ETV
vector 7820  Network.dyn_peer[14]  lookupTimeSig:vector  ETV
vector 7824  Network.dyn_peer[16]  lookupHopsSig:vector  ETV
vector 7825  Network.dyn_peer[16]  lookupStabilitySig:vector  ETV
vector 7826  Network.dyn_peer[16]  lookupTimeSig:vector  ETV
vector 7848  Network.dyn_peer[24]  lookupHopsSig:vector  ETV
vector 7849  Network.dyn_peer[24]  lookupStabilitySig:vector  ETV
vector 7850  Network.dyn_peer[24]  lookupTimeSig:vector  ETV
vector 7863  Network.dyn_peer[29]  lookupHopsSig:vector  ETV
vector 7864  Network.dyn_peer[29]  lookupStabilitySig:vector  ETV
vector 7865  Network.dyn_peer[29]  lookupTimeSig:vector  ETV
vector 7779  Network.dyn_peer[1]  lookupHopsSig:vector  ETV
vector 7780  Network.dyn_peer[1]  lookupStabilitySig:vector  ETV
vector 7781  Network.dyn_peer[1]  lookupTimeSig:vector  ETV
vector 7794  Network.dyn_peer[6]  lookupHopsSig:vector  ETV
vector 7795  Network.dyn_peer[6]  lookupStabilitySig:vector  ETV
vector 7796  Network.dyn_peer[6]  lookupTimeSig:vector  ETV
vector 7797  Network.dyn_peer[7]  lookupHopsSig:vector  ETV
vector 7798  Network.dyn_peer[7]  lookupStabilitySig:vector  ETV
vector 7799  Network.dyn_peer[7]  lookupTimeSig:vector  ETV
vector 7806  Network.dyn_peer[10]  lookupHopsSig:vector  ETV
vector 7807  Network.dyn_peer[10]  lookupStabilitySig:vector  ETV
vector 7808  Network.dyn_peer[10]  lookupTimeSig:vector  ETV
vector 7815  Network.dyn_peer[13]  lookupHopsSig:vector  ETV
vector 7816  Network.dyn_peer[13]  lookupStabilitySig:vector  ETV
vector 7817  Network.dyn_peer[13]  lookupTimeSig:vector  ETV
vector 7827  Network.dyn_peer[17]  lookupHopsSig:vector  ETV
vector 7828  Network.dyn_peer[17]  lookupStabilitySig:vector  ETV
vector 7829  Network.dyn_peer[17]  lookupTimeSig:vector  ETV
vector 7788  Network.dyn_peer[4]  lookupHopsSig:vector  ETV
vector 7789  Network.dyn_peer[4]  lookupStabilitySig:vector  ETV
vector 7790  Network.dyn_peer[4]  lookupTimeSig:vector  ETV
vector 7800  Network.dyn_peer[8]  lookupHopsSig:vector  ETV
vector 7801  Network.dyn_peer[8]  lookupStabilitySig:vector  ETV
vector 7802  Network.dyn_peer[8]  lookupTimeSig:vector  ETV
vector 7803  Network.dyn_peer[9]  lookupHopsSig:vector  ETV
vector 7804  Network.dyn_peer[9]  lookupStabilitySig:vector  ETV
vector 7805  Network.dyn_peer[9]  lookupTimeSig:vector  ETV
vector 7833  Network.dyn_peer[19]  lookupHopsSig:vector  ETV
vector 7834  Network.dyn_peer[19]  lookupStabilitySig:vector  ETV
vector 7835  Network.dyn_peer[19]  lookupTimeSig:vector  ETV
vector 7857  Network.dyn_peer[27]  lookupHopsSig:vector  ETV
vector 7858  Network.dyn_peer[27]  lookupStabilitySig:vector  ETV
vector 7859  Network.dyn_peer[27]  lookupTimeSig:vector  ETV
vector 7812  Network.dyn_peer[12]  lookupHopsSig:vector  ETV
vector 7813  Network.dyn_peer[12]  lookupStabilitySig:vector  ETV
vector 7814  Network.dyn_peer[12]  lookupTimeSig:vector  ETV
vector 7821  Network.dyn_peer[15]  lookupHopsSig:vector  ETV
vector 7822  Network.dyn_peer[15]  lookupStabilitySig:vector  ETV
vector 7823  Network.dyn_peer[15]  lookupTimeSig:vector  ETV
vector 7836  Network.dyn_peer[20]  lookupHopsSig:vector  ETV
vector 7837  Network.dyn_peer[20]  lookupStabilitySig:vector  ETV
vector 7838  Network.dyn_peer[20]  lookupTimeSig:vector  ETV
vector 7839  Network.dyn_peer[21]  lookupHopsSig:vector  ETV
vector 7840  Network.dyn_peer[21]  lookupStabilitySig:vector  ETV
vector 7841  Network.dyn_peer[21]  lookupTimeSig:vector  ETV
vector 7851  Network.dyn_peer[25]  lookupHopsSig:vector  ETV
vector 7852  Network.dyn_peer[25]  lookupStabilitySig:vector  ETV
vector 7853  Network.dyn_peer[25]  lookupTimeSig:vector  ETV
vector 7854  Network.dyn_peer[26]  lookupHopsSig:vector  ETV
vector 7855  Network.dyn_peer[26]  lookupStabilitySig:vector  ETV
vector 7856  Network.dyn_peer[26]  lookupTimeSig:vector  ETV
vector 7860  Network.dyn_peer[28]  lookupHopsSig:vector  ETV
vector 7861  Network.dyn_peer[28]  lookupStabilitySig:vector  ETV
vector 7862  Network.dyn_peer[28]  lookupTimeSig:vector  ETV
vector 7776  Network.dyn_peer[0]  lookupHopsSig:vector  ETV
vector 7777  Network.dyn_peer[0]  lookupStabilitySig:vector  ETV
vector 7778  Network.dyn_peer[0]  lookupTimeSig:vector  ETV
vector 7866  Network.dyn_peer[30]  lookupHopsSig:vector  ETV
vector 7867  Network.dyn_peer[30]  lookupStabilitySig:vector  ETV
vector 7868  Network.dyn_peer[30]  lookupTimeSig:vector  ETV
7776	396	20.50001	5
7776	776	21.10001	5
7776	1156	21.409972997515	2
7776	2010	22.113461152799	5
7776	2398	22.410946629952	11
7776	2738	22.615361069323	2
7776	3640	23.315361069323	6
7776	3865	23.515969449566	1
7776	4115	23.723506072906	1
7776	4435	24.025673364043	2
7776	4552	24.132456786569	3
7776	4940	24.435021669554	3
7776	5436	24.832183479954	2
7776	6146	25.434576623016	5
7776	6282	25.535021669554	10
7776	6853	25.94305555686	5
7776	7138	26.14305555686	1
7776	7923	26.750780214864	8
7776	8077	26.877512930719	6
7776	8617	27.380872600972	5
7776	9439	28.080872600972	6
7776	9457	28.086889510452	0
7776	10182	28.686889510452	6
7776	10396	28.888383640955	1
7776	10746	29.191443825793	2
7776	10927	29.363412489492	2
7776	11262	29.656559354435	5
7776	11560	29.901339634526	6
7776	11780	30.05761032501	3
7776	11817	30.063574109945	7
7776	11866	30.087873406402	7
7776	12480	30.596940651712	5
7776	13471	31.496940651712	8
7776	13846	31.802441680686	2
7776	14215	32.121866284342	2
7776	15274	32.826785704203	9
7776	15659	33.126785704203	2
7776	16460	33.833883204355	6
7776	16985	34.236743468592	3
7776	17151	34.396455712061	3
7776	17196	34.445112652833	1
7776	17426	34.64808013067	2
7776	18126	35.14808013067	4
7776	18964	35.75639741987	5
7776	19319	36.108063058018	6
7776	19696	36.361357858833	7
7776	19735	36.383225904854	4
7776	19964	36.563674314005	1
7776	20222	36.765928644747	2
7776	21782	37.971600955696	11
7776	21857	38.02393348971	10
7776	22206	38.325712360883	3
7776	22765	38.825712360883	4
7776	23360	39.233522318484	3
7776	23757	39.534660936071	2
7776	24055	39.836421488573	2
7776	24465	40.146118250752	2
7776	24789	40.419075613516	3
7776	25047	40.615838654787	3
7776	25407	40.855193522656	8
7776	26050	41.363401520059	5
7776	26790	41.963401520059	5
7776	27142	42.267054063463	3
7776	27636	42.684183733316	2
7776	27712	42.773636104841	5
7776	28545	43.474381528377	7
7776	29363	44.274381528377	7
7776	30236	44.975648756971	7
7776	30535	45.181671204567	1
7776	31430	45.886324261197	8
7776	32330	46.686324261197	7
7776	33126	47.29325669118	5
7776	33197	47.355261991457	5
7776	34196	48.264114974302	10
7776	34603	48.564114974302	3
7776	35190	49.066757267252	4
7776	35842	49.557365116694	4
7776	36634	50.164528468128	6
7776	37732	50.964528468128	8
7776	38016	51.174368613108	1
7776	39104	51.980427198628	7
7776	39250	52.080537198628	1
7776	39773	52.480537198628	4
7776	40291	52.881518446495	4
7776	40881	53.381818153431	4
7776	41979	54.181928153431	8
7776	42645	54.681928153431	4
7776	43106	55.089451006177	3
7776	43162	55.157595912867	3
7776	44145	55.957705912867	8
7776	45131	56.657705912867	7
7776	46679	57.67434753749	11
7776	47119	58.07434753749	4
7776	47951	58.684142059839	5
7776	47982	58.704953914688	5
7776	48444	59.109025005656	3
7776	48678	59.309404203452	2
7776	49532	60.009404203452	6
7776	50185	60.409514203452	4
7776	50611	60.709514203452	2
7776	51426	61.314953996435	5
7776	51638	61.433054740893	5
7776	52357	61.93572891047	5
7776	52411	61.949113723431	5
7776	52650	62.149849815171	2
7776	54694	63.849849815171	17
7776	55636	64.579574987401	5
7776	56131	65.050906491643	13
7776	56280	65.151016491643	1
7776	57070	65.751016491643	5
7776	57797	66.354022012711	5
7776	59785	68.055732476068	18
7776	60239	68.455732476068	3
7776	60535	68.759626102856	2
7776	60896	69.068938503129	2
7776	61229	69.369998896758	2
7776	61254	69.390859380801	2
7776	61941	69.998692742254	6
7776	62662	70.598692742254	6
7776	62845	70.727702667581	2
7776	63688	71.429186216577	10
7776	65016	72.629186216577	11
7776	65408	73.005725884218	7
7776	65823	73.339377690038	6
7776	66052	73.50775881176	5
7776	66437	73.811216081826	2
7776	66604	73.951028412229	2
7776	66840	74.120836178281	2
7776	67778	74.825849927122	7
7776	68623	75.625849927122	7
7776	68879	75.827044932968	1
7776	69099	76.033237598479	1
7776	69181	76.123609205163	4
7776	69523	76.442779021152	4
7776	69530	76.462072921683	4
7776	69639	76.531018184211	3
7776	69781	76.649805250294	1
7776	70053	76.942933288401	3
7776	70160	77.043043288401	1
7776	71223	77.943043288401	8
7776	71487	78.152774824645	1
7776	71876	78.452884824645	3
7776	72175	78.752884824645	2
7776	72681	79.258120359865	4
7776	73249	79.774780775108	4
7776	73388	79.88365559831	1
7776	73554	80.08365559831	1
7776	74232	80.785253882351	6
7776	74240	80.794487231941	6
7776	74597	81.093713273479	2
7776	74869	81.300727178425	2
7776	75440	81.700727178425	5
7776	76050	82.09832583646	3
7776	76056	82.103211112116	3
7776	76665	82.602125820959	4
7776	76906	82.802235820959	3
7776	77576	83.402235820959	6
7776	77793	83.603425038614	1
7776	78270	84.069102425511	6
7776	78404	84.187162805296	3
7776	78513	84.277943500309	1
7776	78682	84.387201526094	1
7776	79792	85.387201526094	11
7776	80593	85.989072145634	6
7776	81054	86.363411049538	4
7776	81246	86.49728314849	5
7776	81310	86.564770586756	1
7776	81637	86.873981097005	2
7776	81662	86.893854422178	2
7776	81809	87.004656909598	4
7776	81994	87.18684510228	2
7776	82543	87.587040327298	3
7776	82699	87.70266152431	8
7776	83704	88.412751172215	7
7776	83971	88.612751172215	1
7776	84850	89.206480943787	2
7776	85131	89.414178488417	8
7776	85423	89.62355013369	1
7776	86742	90.527370157529	12
7776	87242	90.927370157529	3
7776	88335	91.92996129206	10
7776	88939	92.42996129206	4
7776	89631	92.939237126432	5
7776	90687	93.743701002069	4
7776	91041	94.045837621683	2
7776	91571	94.449740920035	3
7776	91584	94.450462249647	3
7776	91834	94.650472249647	1
7776	91845	94.6507128388	1
7776	91953	94.750047482581	2
7776	92068	94.839237126432	22
7776	92217	94.962169960636	2
7776	92548	95.271274324492	3
7776	93691	96.171274324492	10
7776	93989	96.375987457348	1
7776	94562	96.779658980168	4
7776	95163	97.279658980168	5
7776	96557	98.492556625004	12
7776	97140	98.996137134507	4
7776	97812	99.60825887203	5
7776	98201	100.010282555276	3
7776	98227	100.062073215404	2
7776	98345	100.194108044302	5
7776	98628	100.400402133131	2
7776	99239	100.900402133131	4
7776	99804	101.403646811605	5
7776	100511	102.003646811605	7
7776	101037	102.404501541824	3
7776	101186	102.507086950403	3
7776	101544	102.811282613754	2
7776	101746	103.005319541072	5
7776	102001	103.213793527997	3
7776	102370	103.516887735229	3
7776	102735	103.820656350509	2
7776	103214	104.224162621773	3
7776	103971	104.831143372561	5
7776	104265	105.13983136223	2
7776	104938	105.742987285343	7
7776	106229	106.842987285343	10
7776	106638	107.149507807803	2
7776	107221	107.575153003455	5
7776	107506	107.854847594902	6
7776	107680	107.982842376738	3
7776	108486	108.656615585486	7
7776	108772	108.961748506886	7
7776	108798	108.971472600009	2
7776	109150	109.274821526948	3
7776	110182	110.174821526948	8
7776	111247	110.976336651494	5
7776	112422	111.876336651494	9
7776	112909	112.176446651494	3
7776	113484	112.676446651494	4
7776	114112	113.189193716256	4
7776	114620	113.597648111152	3
7776	115265	114.103394232366	13
7776	115378	114.198912909546	5
7776	115410	114.212690638317	4
7776	115931	114.615490599293	4
7776	116374	115.015490599293	3
7776	116707	115.32510145945	3
7776	117193	115.82510145945	4
7776	117509	116.025166881272	1
7776	118016	116.525491763571	4
7776	118378	116.925756701581	3
7776	119236	117.731639361918	8
7776	119767	118.131639361918	4
7776	120413	118.741419520372	5
7776	120828	119.142447965397	3
7776	120969	119.254227328191	3
7776	121036	119.342847834474	1
7776	121431	119.651185552476	3
7776	121914	120.051185552476	3
7776	122520	120.56025303371	5
7776	123079	120.947354961816	7
7776	123433	121.174110631997	1
7776	123471	121.227170841703	2
7776	123530	121.261234612427	7
7776	124255	121.869105582711	6
7776	124450	122.069105582711	2
7776	125373	122.971926383777	8
7776	125763	123.281364519249	2
7776	126190	123.688873066124	3
7776	126419	123.876419133862	0
7776	126557	124.002950343381	3
7776	126686	124.107785687389	7
7776	126943	124.312279058302	2
7776	126946	124.316021472097	2
7776	126974	124.345492362906	0
7776	127336	124.647672698921	3
7776	127791	124.947672698921	2
7776	128051	125.165169075608	1
7776	128321	125.365279075608	2
7776	129309	126.165279075608	7
7776	129909	126.722328582542	8
7776	129956	126.767382992007	5
7776	130218	126.976473074341	2
7776	130394	127.183452747438	1
7776	131316	127.92199488668	2
7776	131906	128.42199488668	5
7776	132302	128.749257327412	2
7776	132538	129.012635551379	6
7776	132782	129.249697712923	4
7776	132883	129.313388168783	2
7776	133113	129.517321842551	1
7776	133354	129.756567273307	4
7776	133371	129.797351733247	5
7776	133421	129.805567883196	0
7776	134623	130.824804227804	2
7776	135425	131.524914227804	7
7776	136317	132.324914227804	7
7776	136655	132.625566294531	2
7776	136901	132.82662261059	2
7776	137111	133.032662894075	3
7776	137518	133.439337491934	3
7776	137602	133.532845380318	3
7776	137808	133.736257537046	9
7777	396	20.50001	0.375
7777	776	21.10001	0.375
7777	1156	21.409972997515	0.75
7777	2010	22.113461152799	0.375
7777	2398	22.410946629952	-0.375
7777	2738	22.615361069323	0.75
7777	3640	23.315361069323	0.25
7777	3865	23.515969449566	0.875
7777	4115	23.723506072906	0.875
7777	4435	24.025673364043	0.75
7777	4552	24.132456786569	0.625
7777	4940	24.435021669554	0.66666665673256
7777	5436	24.832183479954	0.75
7777	6146	25.434576623016	0.375
7777	6282	25.535021669554	-0.25
7777	6853	25.94305555686	0.375
7777	7138	26.14305555686	0.875
7777	7923	26.750780214864	0
7777	8077	26.877512930719	0.25
7777	8617	27.380872600972	0.375
7777	9439	28.080872600972	0.25
7777	9457	28.086889510452	1
7777	10182	28.686889510452	0.25
7777	10396	28.888383640955	0.875
7777	10746	29.191443825793	0.75
7777	10927	29.363412489492	0.75
7777	11262	29.656559354435	0.375
7777	11560	29.901339634526	0.25
7777	11780	30.05761032501	0.625
7777	11817	30.063574109945	0.125
7777	11866	30.087873406402	0.125
7777	12480	30.596940651712	0.375
7777	13471	31.496940651712	0
7777	13846	31.802441680686	0.75
7777	14215	32.121866284342	0.75
7777	15274	32.826785704203	-0.125
7777	15659	33.126785704203	0.75
7777	16460	33.833883204355	0.25
7777	16985	34.236743468592	0.625
7777	17151	34.396455712061	0.625
7777	17196	34.445112652833	0.875
7777	17426	34.64808013067	0.75
7777	18126	35.14808013067	0.5
7777	18964	35.75639741987	0.375
7777	19319	36.108063058018	0.25
7777	19696	36.361357858833	0.125
7777	19735	36.383225904854	0.5
7777	19964	36.563674314005	0.875
7777	20222	36.765928644747	0.75
7777	21782	37.971600955696	-0.375
7777	21857	38.02393348971	-0.25
7777	22206	38.325712360883	0.625
7777	22765	38.825712360883	0.5
7777	23360	39.233522318484	0.625
7777	23757	39.534660936071	0.75
7777	24055	39.836421488573	0.75
7777	24465	40.146118250752	0.75
7777	24789	40.419075613516	0.625
7777	25047	40.615838654787	0.625
7777	25407	40.855193522656	0
7777	26050	41.363401520059	0.375
7777	26790	41.963401520059	0.375
7777	27142	42.267054063463	0.625
7777	27636	42.684183733316	0.75
7777	27712	42.773636104841	0.375
7777	28545	43.474381528377	0.125
7777	29363	44.274381528377	0.125
7777	30236	44.975648756971	0.125
7777	30535	45.181671204567	0.875
7777	31430	45.886324261197	0
7777	32330	46.686324261197	0.125
7777	33126	47.29325669118	0.375
7777	33197	47.355261991457	0.375
7777	34196	48.264114974302	-0.25
7777	34603	48.564114974302	0.625
7777	35190	49.066757267252	0.5
7777	35842	49.557365116694	0.5
7777	36634	50.164528468128	0.25
7777	37732	50.964528468128	0
7777	38016	51.174368613108	0.875
7777	39104	51.980427198628	0.125
7777	39250	52.080537198628	0.875
7777	39773	52.480537198628	0.5
7777	40291	52.881518446495	0.5
7777	40881	53.381818153431	0.5
7777	41979	54.181928153431	0
7777	42645	54.681928153431	0.5
7777	43106	55.089451006177	0.625
7777	43162	55.157595912867	0.625
7777	44145	55.957705912867	0
7777	45131	56.657705912867	0.125
7777	46679	57.67434753749	-0.375
7777	47119	58.07434753749	0.5
7777	47951	58.684142059839	0.375
7777	47982	58.704953914688	0.375
7777	48444	59.109025005656	0.625
7777	48678	59.309404203452	0.75
7777	49532	60.009404203452	0.25
7777	50185	60.409514203452	0.5
7777	50611	60.709514203452	0.75
7777	51426	61.314953996435	0.375
7777	51638	61.433054740893	0.44444441795349
7777	52357	61.93572891047	0.375
7777	52411	61.949113723431	0.375
7777	52650	62.149849815171	0.75
7777	54694	63.849849815171	-1.125
7777	55636	64.579574987401	0.375
7777	56131	65.050906491643	-0.625
7777	56280	65.151016491643	0.875
7777	57070	65.751016491643	0.375
7777	57797	66.354022012711	0.375
7777	59785	68.055732476068	-1.25
7777	60239	68.455732476068	0.625
7777	60535	68.759626102856	0.75
7777	60896	69.068938503129	0.75
7777	61229	69.369998896758	0.75
7777	61254	69.390859380801	0.75
7777	61941	69.998692742254	0.25
7777	62662	70.598692742254	0.25
7777	62845	70.727702667581	0.75
7777	63688	71.429186216577	-0.25
7777	65016	72.629186216577	-0.375
7777	65408	73.005725884218	0.125
7777	65823	73.339377690038	0.25
7777	66052	73.50775881176	0.375
7777	66437	73.811216081826	0.75
7777	66604	73.951028412229	0.75
7777	66840	74.120836178281	0.75
7777	67778	74.825849927122	0.125
7777	68623	75.625849927122	0.125
7777	68879	75.827044932968	0.875
7777	69099	76.033237598479	0.875
7777	69181	76.123609205163	0.5
7777	69523	76.442779021152	0.5
7777	69530	76.462072921683	0.5
7777	69639	76.531018184211	0.625
7777	69781	76.649805250294	0.875
7777	70053	76.942933288401	0.625
7777	70160	77.043043288401	0.875
7777	71223	77.943043288401	0
7777	71487	78.152774824645	0.875
7777	71876	78.452884824645	0.625
7777	72175	78.752884824645	0.75
7777	72681	79.258120359865	0.5
7777	73249	79.774780775108	0.5
7777	73388	79.88365559831	0.875
7777	73554	80.08365559831	0.875
7777	74232	80.785253882351	0.25
7777	74240	80.794487231941	0.25
7777	74597	81.093713273479	0.75
7777	74869	81.300727178425	0.75
7777	75440	81.700727178425	0.375
7777	76050	82.09832583646	0.625
7777	76056	82.103211112116	0.625
7777	76665	82.602125820959	0.5
7777	76906	82.802235820959	0.625
7777	77576	83.402235820959	0.25
7777	77793	83.603425038614	0.875
7777	78270	84.069102425511	0.25
7777	78404	84.187162805296	0.625
7777	78513	84.277943500309	0.875
7777	78682	84.387201526094	0.875
7777	79792	85.387201526094	-0.375
7777	80593	85.989072145634	0.25
7777	81054	86.363411049538	0.5
7777	81246	86.49728314849	0.375
7777	81310	86.564770586756	0.875
7777	81637	86.873981097005	0.75
7777	81662	86.893854422178	0.75
7777	81809	87.004656909598	0.5
7777	81994	87.18684510228	0.75
7777	82543	87.587040327298	0.625
7777	82699	87.70266152431	0
7777	83704	88.412751172215	0.125
7777	83971	88.612751172215	0.875
7777	84850	89.206480943787	0.75
7777	85131	89.414178488417	0
7777	85423	89.62355013369	0.875
7777	86742	90.527370157529	-0.5
7777	87242	90.927370157529	0.625
7777	88335	91.92996129206	-0.25
7777	88939	92.42996129206	0.5
7777	89631	92.939237126432	0.375
7777	90687	93.743701002069	0.5
7777	91041	94.045837621683	0.75
7777	91571	94.449740920035	0.625
7777	91584	94.450462249647	0.69999998807907
7777	91834	94.650472249647	0.875
7777	91845	94.6507128388	0.875
7777	91953	94.750047482581	0.75
7777	92068	94.839237126432	-1.75
7777	92217	94.962169960636	0.75
7777	92548	95.271274324492	0.625
7777	93691	96.171274324492	-0.25
7777	93989	96.375987457348	0.875
7777	94562	96.779658980168	0.5
7777	95163	97.279658980168	0.375
7777	96557	98.492556625004	-0.5
7777	97140	98.996137134507	0.5
7777	97812	99.60825887203	0.375
7777	98201	100.010282555276	0.625
7777	98227	100.062073215404	0.75
7777	98345	100.194108044302	0.375
7777	98628	100.400402133131	0.75
7777	99239	100.900402133131	0.5
7777	99804	101.403646811605	0.375
7777	100511	102.003646811605	0.125
7777	101037	102.404501541824	0.625
7777	101186	102.507086950403	0.625
7777	101544	102.811282613754	0.75
7777	101746	103.005319541072	0.375
7777	102001	103.213793527997	0.625
7777	102370	103.516887735229	0.625
7777	102735	103.820656350509	0.75
7777	103214	104.224162621773	0.625
7777	103971	104.831143372561	0.375
7777	104265	105.13983136223	0.75
7777	104938	105.742987285343	0.125
7777	106229	106.842987285343	-0.25
7777	106638	107.149507807803	0.75
7777	107221	107.575153003455	0.375
7777	107506	107.854847594902	0.25
7777	107680	107.982842376738	0.625
7777	108486	108.656615585486	0.125
7777	108772	108.961748506886	0.125
7777	108798	108.971472600009	0.75
7777	109150	109.274821526948	0.625
7777	110182	110.174821526948	0
7777	111247	110.976336651494	0.375
7777	112422	111.876336651494	-0.125
7777	112909	112.176446651494	0.625
7777	113484	112.676446651494	0.5
7777	114112	113.189193716256	0.5
7777	114620	113.597648111152	0.625
7777	115265	114.103394232366	-0.625
7777	115378	114.198912909546	0.375
7777	115410	114.212690638317	0.5
7777	115931	114.615490599293	0.5
7777	116374	115.015490599293	0.625
7777	116707	115.32510145945	0.625
7777	117193	115.82510145945	0.5
7777	117509	116.025166881272	0.875
7777	118016	116.525491763571	0.5
7777	118378	116.925756701581	0.625
7777	119236	117.731639361918	0
7777	119767	118.131639361918	0.5
7777	120413	118.741419520372	0.375
7777	120828	119.142447965397	0.625
7777	120969	119.254227328191	0.625
7777	121036	119.342847834474	0.875
7777	121431	119.651185552476	0.625
7777	121914	120.051185552476	0.625
7777	122520	120.56025303371	0.375
7777	123079	120.947354961816	0.125
7777	123433	121.174110631997	0.875
7777	123471	121.227170841703	0.75
7777	123530	121.261234612427	0.125
7777	124255	121.869105582711	0.25
7777	124450	122.069105582711	0.75
7777	125373	122.971926383777	0
7777	125763	123.281364519249	0.75
7777	126190	123.688873066124	0.625
7777	126419	123.876419133862	1
7777	126557	124.002950343381	0.625
7777	126686	124.107785687389	0.125
7777	126943	124.312279058302	0.75
7777	126946	124.316021472097	0.75
7777	126974	124.345492362906	1
7777	127336	124.647672698921	0.625
7777	127791	124.947672698921	0.75
7777	128051	125.165169075608	0.875
7777	128321	125.365279075608	0.75
7777	129309	126.165279075608	0.125
7777	129909	126.722328582542	0
7777	129956	126.767382992007	0.375
7777	130218	126.976473074341	0.75
7777	130394	127.183452747438	0.875
7777	131316	127.92199488668	0.75
7777	131906	128.42199488668	0.375
7777	132302	128.749257327412	0.75
7777	132538	129.012635551379	0.25
7777	132782	129.249697712923	0.5
7777	132883	129.313388168783	0.75
7777	133113	129.517321842551	0.875
7777	133354	129.756567273307	0.5
7777	133371	129.797351733247	0.375
7777	133421	129.805567883196	1
7777	134623	130.824804227804	0.75
7777	135425	131.524914227804	0.125
7777	136317	132.324914227804	0.125
7777	136655	132.625566294531	0.75
7777	136901	132.82662261059	0.75
7777	137111	133.032662894075	0.625
7777	137518	133.439337491934	0.625
7777	137602	133.532845380318	0.625
7777	137808	133.736257537046	-0.125
7778	396	20.50001	0.5
7778	776	21.10001	0.6
7778	1156	21.409972997515	0.3
7778	2010	22.113461152799	0.6
7778	2398	22.410946629952	1
7778	2738	22.615361069323	0.2
7778	3640	23.315361069323	0.7
7778	3865	23.515969449566	0.2
7778	4115	23.723506072906	0.2
7778	4435	24.025673364043	0.3
7778	4552	24.132456786569	0.4
7778	4940	24.435021669554	0.3
7778	5436	24.832183479954	0.2
7778	6146	25.434576623016	0.6
7778	6282	25.535021669554	1.1
7778	6853	25.94305555686	0.4
7778	7138	26.14305555686	0.2
7778	7923	26.750780214864	0.6
7778	8077	26.877512930719	0.7
7778	8617	27.380872600972	0.5
7778	9439	28.080872600972	0.7
7778	9457	28.086889510452	0
7778	10182	28.686889510452	0.6
7778	10396	28.888383640955	0.2
7778	10746	29.191443825793	0.3
7778	10927	29.363412489492	0.3
7778	11262	29.656559354435	0.5
7778	11560	29.901339634526	0.7
7778	11780	30.05761032501	0.4
7778	11817	30.063574109945	0.7
7778	11866	30.087873406402	0.7
7778	12480	30.596940651712	0.5
7778	13471	31.496940651712	0.9
7778	13846	31.802441680686	0.3
7778	14215	32.121866284342	0.3
7778	15274	32.826785704203	0.7
7778	15659	33.126785704203	0.3
7778	16460	33.833883204355	0.7
7778	16985	34.236743468592	0.4
7778	17151	34.396455712061	0.4
7778	17196	34.445112652833	0.2
7778	17426	34.64808013067	0.2
7778	18126	35.14808013067	0.5
7778	18964	35.75639741987	0.6
7778	19319	36.108063058018	0.6
7778	19696	36.361357858833	0.6
7778	19735	36.383225904854	0.4
7778	19964	36.563674314005	0.2
7778	20222	36.765928644747	0.2
7778	21782	37.971600955696	1.2
7778	21857	38.02393348971	1.1
7778	22206	38.325712360883	0.3
7778	22765	38.825712360883	0.5
7778	23360	39.233522318484	0.4
7778	23757	39.534660936071	0.3
7778	24055	39.836421488573	0.3
7778	24465	40.146118250752	0.3
7778	24789	40.419075613516	0.4
7778	25047	40.615838654787	0.4
7778	25407	40.855193522656	0.7
7778	26050	41.363401520059	0.5
7778	26790	41.963401520059	0.6
7778	27142	42.267054063463	0.3
7778	27636	42.684183733316	0.3
7778	27712	42.773636104841	0.5
7778	28545	43.474381528377	0.7
7778	29363	44.274381528377	0.8
7778	30236	44.975648756971	0.7
7778	30535	45.181671204567	0.2
7778	31430	45.886324261197	0.7
7778	32330	46.686324261197	0.8
7778	33126	47.29325669118	0.6
7778	33197	47.355261991457	0.6
7778	34196	48.264114974302	0.9
7778	34603	48.564114974302	0.3
7778	35190	49.066757267252	0.5
7778	35842	49.557365116694	0.5
7778	36634	50.164528468128	0.6
7778	37732	50.964528468128	0.8
7778	38016	51.174368613108	0.2
7778	39104	51.980427198628	0.8
7778	39250	52.080537198628	0.1
7778	39773	52.480537198628	0.4
7778	40291	52.881518446495	0.4
7778	40881	53.381818153431	0.5
7778	41979	54.181928153431	0.8
7778	42645	54.681928153431	0.5
7778	43106	55.089451006177	0.4
7778	43162	55.157595912867	0.4
7778	44145	55.957705912867	0.8
7778	45131	56.657705912867	0.7
7778	46679	57.67434753749	1
7778	47119	58.07434753749	0.4
7778	47951	58.684142059839	0.6
7778	47982	58.704953914688	0.6
7778	48444	59.109025005656	0.4
7778	48678	59.309404203452	0.2
7778	49532	60.009404203452	0.7
7778	50185	60.409514203452	0.4
7778	50611	60.709514203452	0.3
7778	51426	61.314953996435	0.6
7778	51638	61.433054740893	0.5
7778	52357	61.93572891047	0.5
7778	52411	61.949113723431	0.6
7778	52650	62.149849815171	0.2
7778	54694	63.849849815171	1.7
7778	55636	64.579574987401	0.5
7778	56131	65.050906491643	1.2
7778	56280	65.151016491643	0.1
7778	57070	65.751016491643	0.6
7778	57797	66.354022012711	0.6
7778	59785	68.055732476068	1.7
7778	60239	68.455732476068	0.4
7778	60535	68.759626102856	0.3
7778	60896	69.068938503129	0.3
7778	61229	69.369998896758	0.3
7778	61254	69.390859380801	0.3
7778	61941	69.998692742254	0.6
7778	62662	70.598692742254	0.6
7778	62845	70.727702667581	0.3
7778	63688	71.429186216577	0.7
7778	65016	72.629186216577	1.2
7778	65408	73.005725884218	0.7
7778	65823	73.339377690038	0.7
7778	66052	73.50775881176	0.5
7778	66437	73.811216081826	0.3
7778	66604	73.951028412229	0.2
7778	66840	74.120836178281	0.3
7778	67778	74.825849927122	0.7
7778	68623	75.625849927122	0.8
7778	68879	75.827044932968	0.2
7778	69099	76.033237598479	0.2
7778	69181	76.123609205163	0.5
7778	69523	76.442779021152	0.4
7778	69530	76.462072921683	0.4
7778	69639	76.531018184211	0.4
7778	69781	76.649805250294	0.2
7778	70053	76.942933288401	0.4
7778	70160	77.043043288401	0.1
7778	71223	77.943043288401	0.9
7778	71487	78.152774824645	0.2
7778	71876	78.452884824645	0.3
7778	72175	78.752884824645	0.3
7778	72681	79.258120359865	0.5
7778	73249	79.774780775108	0.5
7778	73388	79.88365559831	0.1
7778	73554	80.08365559831	0.2
7778	74232	80.785253882351	0.7
7778	74240	80.794487231941	0.7
7778	74597	81.093713273479	0.3
7778	74869	81.300727178425	0.2
7778	75440	81.700727178425	0.4
7778	76050	82.09832583646	0.2
7778	76056	82.103211112116	0.4
7778	76665	82.602125820959	0.5
7778	76906	82.802235820959	0.2
7778	77576	83.402235820959	0.6
7778	77793	83.603425038614	0.2
7778	78270	84.069102425511	0.7
7778	78404	84.187162805296	0.4
7778	78513	84.277943500309	0.2
7778	78682	84.387201526094	0.1
7778	79792	85.387201526094	1
7778	80593	85.989072145634	0.6
7778	81054	86.363411049538	0.5
7778	81246	86.49728314849	0.5
7778	81310	86.564770586756	0.2
7778	81637	86.873981097005	0.3