version 2
run Stability-norelink-48-20130525-23:17:11-22103
attr configname Stability-norelink
attr datetime 20130525-23:17:11
attr experiment Stability
attr inifile omnetpp.ini
attr iterationvars $0=1e2
attr iterationvars2 "$0=1e2, $repetition=8"
attr measurement $0=1e2
attr network Network
attr processid 22103
attr repetition 8
attr replication #8
attr resultdir results
attr runnumber 48
attr seedset 48

vector 4608  Network.dyn_peer[0]  lookupHopsSig:vector  ETV
vector 4609  Network.dyn_peer[0]  lookupStabilitySig:vector  ETV
vector 4610  Network.dyn_peer[0]  lookupTimeSig:vector  ETV
vector 4611  Network.dyn_peer[1]  lookupHopsSig:vector  ETV
vector 4612  Network.dyn_peer[1]  lookupStabilitySig:vector  ETV
vector 4613  Network.dyn_peer[1]  lookupTimeSig:vector  ETV
vector 4614  Network.dyn_peer[2]  lookupHopsSig:vector  ETV
vector 4615  Network.dyn_peer[2]  lookupStabilitySig:vector  ETV
vector 4616  Network.dyn_peer[2]  lookupTimeSig:vector  ETV
vector 4617  Network.dyn_peer[3]  lookupHopsSig:vector  ETV
vector 4618  Network.dyn_peer[3]  lookupStabilitySig:vector  ETV
vector 4619  Network.dyn_peer[3]  lookupTimeSig:vector  ETV
vector 4620  Network.dyn_peer[4]  lookupHopsSig:vector  ETV
vector 4621  Network.dyn_peer[4]  lookupStabilitySig:vector  ETV
vector 4622  Network.dyn_peer[4]  lookupTimeSig:vector  ETV
vector 4623  Network.dyn_peer[5]  lookupHopsSig:vector  ETV
vector 4624  Network.dyn_peer[5]  lookupStabilitySig:vector  ETV
vector 4625  Network.dyn_peer[5]  lookupTimeSig:vector  ETV
vector 4626  Network.dyn_peer[6]  lookupHopsSig:vector  ETV
vector 4627  Network.dyn_peer[6]  lookupStabilitySig:vector  ETV
vector 4628  Network.dyn_peer[6]  lookupTimeSig:vector  ETV
vector 4629  Network.dyn_peer[7]  lookupHopsSig:vector  ETV
vector 4630  Network.dyn_peer[7]  lookupStabilitySig:vector  ETV
vector 4631  Network.dyn_peer[7]  lookupTimeSig:vector  ETV
vector 4632  Network.dyn_peer[8]  lookupHopsSig:vector  ETV
vector 4633  Network.dyn_peer[8]  lookupStabilitySig:vector  ETV
vector 4634  Network.dyn_peer[8]  lookupTimeSig:vector  ETV
vector 4635  Network.dyn_peer[9]  lookupHopsSig:vector  ETV
vector 4636  Network.dyn_peer[9]  lookupStabilitySig:vector  ETV
vector 4637  Network.dyn_peer[9]  lookupTimeSig:vector  ETV
vector 4638  Network.dyn_peer[10]  lookupHopsSig:vector  ETV
vector 4639  Network.dyn_peer[10]  lookupStabilitySig:vector  ETV
vector 4640  Network.dyn_peer[10]  lookupTimeSig:vector  ETV
vector 4644  Network.dyn_peer[12]  lookupHopsSig:vector  ETV
vector 4645  Network.dyn_peer[12]  lookupStabilitySig:vector  ETV
vector 4646  Network.dyn_peer[12]  lookupTimeSig:vector  ETV
vector 4641  Network.dyn_peer[11]  lookupHopsSig:vector  ETV
vector 4642  Network.dyn_peer[11]  lookupStabilitySig:vector  ETV
vector 4643  Network.dyn_peer[11]  lookupTimeSig:vector  ETV
vector 4647  Network.dyn_peer[13]  lookupHopsSig:vector  ETV
vector 4648  Network.dyn_peer[13]  lookupStabilitySig:vector  ETV
vector 4649  Network.dyn_peer[13]  lookupTimeSig:vector  ETV
vector 4650  Network.dyn_peer[14]  lookupHopsSig:vector  ETV
vector 4651  Network.dyn_peer[14]  lookupStabilitySig:vector  ETV
vector 4652  Network.dyn_peer[14]  lookupTimeSig:vector  ETV
vector 4653  Network.dyn_peer[15]  lookupHopsSig:vector  ETV
vector 4654  Network.dyn_peer[15]  lookupStabilitySig:vector  ETV
vector 4655  Network.dyn_peer[15]  lookupTimeSig:vector  ETV
vector 4656  Network.dyn_peer[16]  lookupHopsSig:vector  ETV
vector 4657  Network.dyn_peer[16]  lookupStabilitySig:vector  ETV
vector 4658  Network.dyn_peer[16]  lookupTimeSig:vector  ETV
vector 4662  Network.dyn_peer[18]  lookupHopsSig:vector  ETV
vector 4663  Network.dyn_peer[18]  lookupStabilitySig:vector  ETV
vector 4664  Network.dyn_peer[18]  lookupTimeSig:vector  ETV
vector 4659  Network.dyn_peer[17]  lookupHopsSig:vector  ETV
vector 4660  Network.dyn_peer[17]  lookupStabilitySig:vector  ETV
vector 4661  Network.dyn_peer[17]  lookupTimeSig:vector  ETV
vector 4665  Network.dyn_peer[19]  lookupHopsSig:vector  ETV
vector 4666  Network.dyn_peer[19]  lookupStabilitySig:vector  ETV
vector 4667  Network.dyn_peer[19]  lookupTimeSig:vector  ETV
vector 4668  Network.dyn_peer[20]  lookupHopsSig:vector  ETV
vector 4669  Network.dyn_peer[20]  lookupStabilitySig:vector  ETV
vector 4670  Network.dyn_peer[20]  lookupTimeSig:vector  ETV
vector 4671  Network.dyn_peer[21]  lookupHopsSig:vector  ETV
vector 4672  Network.dyn_peer[21]  lookupStabilitySig:vector  ETV
vector 4673  Network.dyn_peer[21]  lookupTimeSig:vector  ETV
vector 4674  Network.dyn_peer[22]  lookupHopsSig:vector  ETV
vector 4675  Network.dyn_peer[22]  lookupStabilitySig:vector  ETV
vector 4676  Network.dyn_peer[22]  lookupTimeSig:vector  ETV
vector 4677  Network.dyn_peer[23]  lookupHopsSig:vector  ETV
vector 4678  Network.dyn_peer[23]  lookupStabilitySig:vector  ETV
vector 4679  Network.dyn_peer[23]  lookupTimeSig:vector  ETV
vector 4686  Network.dyn_peer[26]  lookupHopsSig:vector  ETV
vector 4687  Network.dyn_peer[26]  lookupStabilitySig:vector  ETV
vector 4688  Network.dyn_peer[26]  lookupTimeSig:vector  ETV
vector 4680  Network.dyn_peer[24]  lookupHopsSig:vector  ETV
vector 4681  Network.dyn_peer[24]  lookupStabilitySig:vector  ETV
vector 4682  Network.dyn_peer[24]  lookupTimeSig:vector  ETV
vector 4683  Network.dyn_peer[25]  lookupHopsSig:vector  ETV
vector 4684  Network.dyn_peer[25]  lookupStabilitySig:vector  ETV
vector 4685  Network.dyn_peer[25]  lookupTimeSig:vector  ETV
vector 4695  Network.dyn_peer[29]  lookupHopsSig:vector  ETV
vector 4696  Network.dyn_peer[29]  lookupStabilitySig:vector  ETV
vector 4697  Network.dyn_peer[29]  lookupTimeSig:vector  ETV
vector 4698  Network.dyn_peer[30]  lookupHopsSig:vector  ETV
vector 4699  Network.dyn_peer[30]  lookupStabilitySig:vector  ETV
vector 4700  Network.dyn_peer[30]  lookupTimeSig:vector  ETV
vector 4689  Network.dyn_peer[27]  lookupHopsSig:vector  ETV
vector 4690  Network.dyn_peer[27]  lookupStabilitySig:vector  ETV
vector 4691  Network.dyn_peer[27]  lookupTimeSig:vector  ETV
vector 4692  Network.dyn_peer[28]  lookupHopsSig:vector  ETV
vector 4693  Network.dyn_peer[28]  lookupStabilitySig:vector  ETV
vector 4694  Network.dyn_peer[28]  lookupTimeSig:vector  ETV
vector 4701  Network.dyn_peer[31]  lookupHopsSig:vector  ETV
vector 4702  Network.dyn_peer[31]  lookupStabilitySig:vector  ETV
vector 4703  Network.dyn_peer[31]  lookupTimeSig:vector  ETV
4608	37	20.3	2
4608	90	20.712694174309	3
4608	181	21.113273144936	3
4608	239	21.348110416685	1
4608	1201	23.4	0
4608	1334	23.7	2
4608	1419	23.831763824084	3
4608	1530	24.105161279297	3
4608	2557	26.2	1
4608	2771	26.7	5
4608	2800	26.718505481808	3
4608	2888	26.913271949111	1
4608	2895	26.920355232565	2
4608	2935	27.018883114304	1
4608	3094	27.421358607336	5
4608	3096	27.422056719998	3
4608	3101	27.427422928207	5
4608	4223	29.8	3
4608	4513	30.4	5
4608	4644	30.701943699151	2
4608	4810	31.0107048406	2
4608	5935	33.3	4
4608	6194	33.8	4
4608	6335	34.106065984845	2
4608	7391	36.1	2
4608	7527	36.5	3
4608	7751	37.003383286988	4
4608	7932	37.405643535328	7
4608	8136	37.809038788553	8
4608	9192	39.6	2
4608	9389	40	3
4608	9507	40.207003856303	1
4608	9804	40.721855792744	5
4608	9831	40.754825190301	3
4608	11136	43.4	4
4608	11244	43.7	2
4608	11527	44.405795457109	6
4608	12516	46.5	1
4608	12758	47	5
4608	12873	47.213312896777	2
4608	12997	47.43179942086	1
4608	14058	49.6	4
4608	14204	49.9	2
4608	14332	50.20849082261	2
4608	14338	50.216337834705	2
4608	14424	50.425472828993	1
4608	14500	50.612026554147	3
4608	15572	52.8	4
4608	15680	53	1
4608	15969	53.628541741376	5
4608	16056	53.843595236281	1
4608	17041	56.2	2
4608	17217	56.7	4
4608	18067	58.4	1
4608	18293	58.804465704266	3
4608	18402	58.955500768663	3
4608	18486	59.106836447975	3
4608	18530	59.215558294987	3
4608	18626	59.34276486403	3
4608	19578	61.3	0
4608	20033	62.120020808322	2
4608	20231	62.5	13
4608	20249	62.514955422502	2
4608	21280	64.7	2
4608	21463	65.1	3
4608	21623	65.40759911946	2
4608	21683	65.609147320126	1
4608	22849	68.1	7
4608	23008	68.4	3
4608	23158	68.706045019023	2
4608	23296	69.012601817965	3
4608	24462	71.5	4
4608	24644	71.9	3
4608	24854	72.402564596529	4
4608	25206	73.008476886103	5
4608	25333	73.208515985662	1
4608	26280	74.9	1
4608	26567	75.5	5
4608	26653	75.704903352607	1
4608	26809	76.013024203553	2
4608	27996	78.6	4
4608	28166	79.1	4
4608	29116	81.3	2
4608	29200	81.500122096382	1
4608	29514	82.209695972748	7
4608	29579	82.36324951504	6
4608	30557	84.3	1
4608	30634	84.5	1
4608	30782	84.914648537761	3
4608	31794	86.9	2
4608	31907	87.202320567895	3
4608	31970	87.413325484484	1
4608	32184	87.915092179228	4
4608	32191	87.920793845072	4
4608	33126	90	1
4608	33379	90.5	5
4608	34501	93.2	4
4608	34741	93.8	6
4608	34806	93.91011168175	2
4608	34838	94.000938661994	1
4608	35843	96.3	2
4608	36164	97.001510766865	8
4608	36217	97.103499974912	1
4608	36432	97.512273604826	4
4608	37381	99.5	1
4608	37457	99.7	1
4608	37658	100.016565167677	2
4608	37693	100.104099398263	2
4608	38567	101.9	1
4608	38807	102.4	4
4608	39140	103.038178080092	4
4608	39267	103.342124003935	2
4608	39361	103.5025599387	12
4608	40315	105.6	1
4608	40472	105.9	2
4608	40795	106.405629171966	5
4608	40806	106.418583174501	5
4608	41819	108.6	2
4608	42064	109.1	4
4608	42240	109.400694441781	3
4608	42420	109.80659604523	3
4608	43507	112.1	3
4608	43620	112.304445919538	1
4608	43774	112.706246670916	3
4608	43854	112.917785816125	1
4608	43888	113.022765784897	3
4608	43997	113.219755762789	2
4608	44001	113.224390686503	1
4608	45043	115.4	4
4608	45278	116	5
4608	45359	116.213280138245	1
4608	45506	116.513508402881	2
4608	45692	116.814405369079	2
4608	46710	118.5	2
4608	46941	118.909303367673	3
4608	47795	120.9	1
4608	48152	121.60422486657	6
4608	48261	121.805664081801	1
4608	48459	122.208381358554	5
4608	48481	122.215412125002	4
4608	48570	122.40980364543	1
4608	48573	122.411069176698	4
4608	49435	124.4	1
4608	49629	124.7	2
4608	49805	125.004258015726	2
4608	49922	125.20813379175	2
4608	50048	125.522990050407	2
4608	50065	125.60570155491	5
4608	50069	125.607960713829	5
4608	51012	127.8	1
4608	51139	128.1	2
4608	51368	128.608993072456	4
4608	51373	128.619038470504	3
4608	51460	128.814378502352	1
4608	52461	131	3
4608	52647	131.4	3
4608	52846	131.707318563902	1
4608	52890	131.804634211766	3
4608	52896	131.806044648485	3
4608	53890	133.9	3
4608	54025	134.2	3
4608	54168	134.50010322994	2
4608	55273	136.8	4
4608	55407	137.1	2
4608	55610	137.602754946721	4
4608	55748	137.904900783553	2
4608	55752	137.906976214253	2
4608	56780	140.2	2
4608	56954	140.605919315847	3
4608	57170	141.006403530889	3
4608	57188	141.010362353249	3
4608	57326	141.314778904241	2
4608	57330	141.318325261747	2
4608	57492	141.63256125889	2
4608	57494	141.632793380107	2
4608	57502	141.660474799789	2
4608	58551	143.9	5
4608	58757	144.4	5
4608	58944	144.802834286636	4
4608	59912	146.9	3
4608	60179	147.408419340555	4
4608	60457	148.015882549242	6
4608	60562	148.218832398874	1
4608	60651	148.414702579046	1
4608	60676	148.427414863854	1
4608	60765	148.617773553686	1
4608	61985	151.1	6
4608	62105	151.4	2
4608	62380	151.912697367563	4
4608	62414	152.030091646285	2
4608	63559	154.5	4
4608	63757	155	4
4608	63901	155.406599880407	3
4608	63904	155.407432028329	3
4608	63989	155.606988065327	1
4608	65170	158.4	8
4608	65258	158.6	1
4608	65606	159.405066610697	8
4608	65614	159.408965096483	8
4608	65807	159.814520440854	3
4608	65826	159.81953101708	3
4608	67079	162.1	5
4608	67212	162.4	2
4608	68410	164.8	2
4608	68608	165.306413339301	4
4608	68721	165.515474108933	1
4608	68800	165.715343406383	1
4608	69942	168.2	5
4608	70124	168.6	3
4608	70230	168.803297500107	1
4608	70409	169.112481210729	2
4608	70470	169.220404169548	2
4608	71529	171.5	2
4608	71729	172	4
4608	71840	172.301024176802	2
4608	71930	172.504187939416	1
4608	72020	172.704980497353	1
4608	73044	174.7	2
4608	73205	174.909506986474	1
4608	74559	177.6	5
4608	74767	178	4
4608	75871	180.2	2
4608	75969	180.4	1
4608	76108	180.604760937222	1
4608	76181	180.80831726349	1
4608	77379	183.1	4
4608	77475	183.3	1
4608	77650	183.708315729808	3
4608	77655	183.709658972595	3
4608	77794	184.018695655852	2
4608	78722	186.1	2
4608	78981	186.6	4
4608	79091	186.822677709759	1
4608	79245	187.128971115686	2
4608	80273	189.4	2
4608	80432	189.731250133795	3
4608	80626	190.149699279178	3
4608	80711	190.384655503743	1
4608	81713	192.7	2
4608	81963	193.2	5
4608	82053	193.407777742368	1
4608	82061	193.429305008474	1
4608	82188	193.734634963157	3
4608	82190	193.737769668296	3
4608	82221	193.809354407088	3
4608	82232	193.842787368567	1
4608	82235	193.845029185285	1
4608	82306	194.001045821986	1
4608	82355	194.104525707654	1
4608	83343	196.2	0
4608	83453	196.5	2
4608	83667	196.905637352124	3
4608	83770	197.110103016488	1
4608	83775	197.112650429957	1
4608	83914	197.31285880745	1
4608	83926	197.31427360932	1
4608	83942	197.328632381211	1
4608	84922	199.5	1
4608	85061	199.8	2
4608	85301	200.309931334184	4
4608	86322	202.5	2
4608	86579	203.1	5
4608	87541	205.3	3
4608	87881	206	6
4608	87987	206.203371252152	1
4608	88141	206.511442414293	2
4608	89247	208.7	4
4608	89499	209.2	5
4608	89728	209.662305155915	5
4608	89893	210.062894908736	3
4608	90244	210.672643934664	5
4608	90269	210.706505817659	18
4608	91384	213.2	4
4608	91538	213.5	2
4608	91648	213.717244250245	1
4608	91676	213.800256276107	3
4608	92707	216	2
4608	92841	216.3	2
4608	93458	217.207049032617	10
4608	93463	217.211486182072	9
4608	93635	217.512792365369	2
4608	93637	217.512902515594	2
4608	94645	219.5	1
4608	94766	219.7	1
4608	94834	219.811267912785	1
4608	95751	222.1	1
4608	95875	222.3	1
4608	95998	222.514890477745	1
4608	97101	224.7	3
4608	97169	224.9	1
4608	97259	225.210167283161	2
4608	97326	225.416371523017	1
4608	97383	225.622322332894	1
4609	37	20.3	0.75
4609	90	20.712694174309	0.625
4609	181	21.113273144936	0.625
4609	239	21.348110416685	0.875
4609	1201	23.4	1
4609	1334	23.7	0.75
4609	1419	23.831763824084	0.625
4609	1530	24.105161279297	0.625
4609	2557	26.2	0.875
4609	2771	26.7	0.375
4609	2800	26.718505481808	0.625
4609	2888	26.913271949111	0.875
4609	2895	26.920355232565	0.75
4609	2935	27.018883114304	0.875
4609	3094	27.421358607336	0.375
4609	3096	27.422056719998	0.625
4609	3101	27.427422928207	0.375
4609	4223	29.8	0.625
4609	4513	30.4	0.375
4609	4644	30.701943699151	0.75
4609	4810	31.0107048406	0.75
4609	5935	33.3	0.5
4609	6194	33.8	0.5
4609	6335	34.106065984845	0.75
4609	7391	36.1	0.75
4609	7527	36.5	0.625
4609	7751	37.003383286988	0.5
4609	7932	37.405643535328	0.125
4609	8136	37.809038788553	0
4609	9192	39.6	0.75
4609	9389	40	0.625
4609	9507	40.207003856303	0.875
4609	9804	40.721855792744	0.375
4609	9831	40.754825190301	0.625
4609	11136	43.4	0.5
4609	11244	43.7	0.75
4609	11527	44.405795457109	0.25
4609	12516	46.5	0.875
4609	12758	47	0.375
4609	12873	47.213312896777	0.75
4609	12997	47.43179942086	0.875
4609	14058	49.6	0.5
4609	14204	49.9	0.75
4609	14332	50.20849082261	0.75
4609	14338	50.216337834705	0.75
4609	14424	50.425472828993	0.875
4609	14500	50.612026554147	0.625
4609	15572	52.8	0.5
4609	15680	53	0.875
4609	15969	53.628541741376	0.375
4609	16056	53.843595236281	0.875
4609	17041	56.2	0.75
4609	17217	56.7	0.5
4609	18067	58.4	0.875
4609	18293	58.804465704266	0.625
4609	18402	58.955500768663	0.625
4609	18486	59.106836447975	0.625
4609	18530	59.215558294987	0.625
4609	18626	59.34276486403	0.625
4609	19578	61.3	1
4609	20033	62.120020808322	0.75
4609	20231	62.5	-0.625
4609	20249	62.514955422502	0.75
4609	21280	64.7	0.75
4609	21463	65.1	0.625
4609	21623	65.40759911946	0.75
4609	21683	65.609147320126	0.875
4609	22849	68.1	0.125
4609	23008	68.4	0.625
4609	23158	68.706045019023	0.75
4609	23296	69.012601817965	0.625
4609	24462	71.5	0.5
4609	24644	71.9	0.625
4609	24854	72.402564596529	0.5
4609	25206	73.008476886103	0.375
4609	25333	73.208515985662	0.875
4609	26280	74.9	0.875
4609	26567	75.5	0.375
4609	26653	75.704903352607	0.875
4609	26809	76.013024203553	0.75
4609	27996	78.6	0.5
4609	28166	79.1	0.5
4609	29116	81.3	0.75
4609	29200	81.500122096382	0.875
4609	29514	82.209695972748	0.125
4609	29579	82.36324951504	0.25
4609	30557	84.3	0.875
4609	30634	84.5	0.875
4609	30782	84.914648537761	0.625
4609	31794	86.9	0.75
4609	31907	87.202320567895	0.625
4609	31970	87.413325484484	0.875
4609	32184	87.915092179228	0.5
4609	32191	87.920793845072	0.5
4609	33126	90	0.875
4609	33379	90.5	0.375
4609	34501	93.2	0.5
4609	34741	93.8	0.25
4609	34806	93.91011168175	0.75
4609	34838	94.000938661994	0.875
4609	35843	96.3	0.75
4609	36164	97.001510766865	0
4609	36217	97.103499974912	0.875
4609	36432	97.512273604826	0.5
4609	37381	99.5	0.875
4609	37457	99.7	0.875
4609	37658	100.016565167677	0.75
4609	37693	100.104099398263	0.75
4609	38567	101.9	0.875
4609	38807	102.4	0.5
4609	39140	103.038178080092	0.5
4609	39267	103.342124003935	0.75
4609	39361	103.5025599387	-0.5
4609	40315	105.6	0.875
4609	40472	105.9	0.75
4609	40795	106.405629171966	0.375
4609	40806	106.418583174501	0.375
4609	41819	108.6	0.75
4609	42064	109.1	0.5
4609	42240	109.400694441781	0.625
4609	42420	109.80659604523	0.625
4609	43507	112.1	0.625
4609	43620	112.304445919538	0.875
4609	43774	112.706246670916	0.625
4609	43854	112.917785816125	0.875
4609	43888	113.022765784897	0.625
4609	43997	113.219755762789	0.75
4609	44001	113.224390686503	0.875
4609	45043	115.4	0.5
4609	45278	116	0.375
4609	45359	116.213280138245	0.875
4609	45506	116.513508402881	0.75
4609	45692	116.814405369079	0.75
4609	46710	118.5	0.75
4609	46941	118.909303367673	0.625
4609	47795	120.9	0.875
4609	48152	121.60422486657	0.25
4609	48261	121.805664081801	0.875
4609	48459	122.208381358554	0.375
4609	48481	122.215412125002	0.5
4609	48570	122.40980364543	0.875
4609	48573	122.411069176698	0.5
4609	49435	124.4	0.875
4609	49629	124.7	0.75
4609	49805	125.004258015726	0.75
4609	49922	125.20813379175	0.75
4609	50048	125.522990050407	0.75
4609	50065	125.60570155491	0.375
4609	50069	125.607960713829	0.375
4609	51012	127.8	0.875
4609	51139	128.1	0.75
4609	51368	128.608993072456	0.5
4609	51373	128.619038470504	0.625
4609	51460	128.814378502352	0.875
4609	52461	131	0.625
4609	52647	131.4	0.625
4609	52846	131.707318563902	0.875
4609	52890	131.804634211766	0.625
4609	52896	131.806044648485	0.625
4609	53890	133.9	0.625
4609	54025	134.2	0.625
4609	54168	134.50010322994	0.75
4609	55273	136.8	0.5
4609	55407	137.1	0.75
4609	55610	137.602754946721	0.5
4609	55748	137.904900783553	0.75
4609	55752	137.906976214253	0.75
4609	56780	140.2	0.75
4609	56954	140.605919315847	0.625
4609	57170	141.006403530889	0.625
4609	57188	141.010362353249	0.625
4609	57326	141.314778904241	0.75
4609	57330	141.318325261747	0.75
4609	57492	141.63256125889	0.75
4609	57494	141.632793380107	0.75
4609	57502	141.660474799789	0.75
4609	58551	143.9	0.375
4609	58757	144.4	0.375
4609	58944	144.802834286636	0.5
4609	59912	146.9	0.625
4609	60179	147.408419340555	0.5
4609	60457	148.015882549242	0.25
4609	60562	148.218832398874	0.875
4609	60651	148.414702579046	0.875
4609	60676	148.427414863854	0.875
4609	60765	148.617773553686	0.875
4609	61985	151.1	0.25
4609	62105	151.4	0.75
4609	62380	151.912697367563	0.5
4609	62414	152.030091646285	0.75
4609	63559	154.5	0.5
4609	63757	155	0.5
4609	63901	155.406599880407	0.625
4609	63904	155.407432028329	0.625
4609	63989	155.606988065327	0.875
4609	65170	158.4	0
4609	65258	158.6	0.875
4609	65606	159.405066610697	0
4609	65614	159.408965096483	0
4609	65807	159.814520440854	0.625
4609	65826	159.81953101708	0.625
4609	67079	162.1	0.375
4609	67212	162.4	0.75
4609	68410	164.8	0.75
4609	68608	165.306413339301	0.5
4609	68721	165.515474108933	0.875
4609	68800	165.715343406383	0.875
4609	69942	168.2	0.375
4609	70124	168.6	0.625
4609	70230	168.803297500107	0.875
4609	70409	169.112481210729	0.75
4609	70470	169.220404169548	0.75
4609	71529	171.5	0.75
4609	71729	172	0.5
4609	71840	172.301024176802	0.75
4609	71930	172.504187939416	0.875
4609	72020	172.704980497353	0.875
4609	73044	174.7	0.75
4609	73205	174.909506986474	0.875
4609	74559	177.6	0.375
4609	74767	178	0.5
4609	75871	180.2	0.75
4609	75969	180.4	0.875
4609	76108	180.604760937222	0.875
4609	76181	180.80831726349	0.875
4609	77379	183.1	0.5
4609	77475	183.3	0.875
4609	77650	183.708315729808	0.625
4609	77655	183.709658972595	0.625
4609	77794	184.018695655852	0.75
4609	78722	186.1	0.75
4609	78981	186.6	0.5
4609	79091	186.822677709759	0.875
4609	79245	187.128971115686	0.75
4609	80273	189.4	0.75
4609	80432	189.731250133795	0.625
4609	80626	190.149699279178	0.625
4609	80711	190.384655503743	0.875
4609	81713	192.7	0.75
4609	81963	193.2	0.375
4609	82053	193.407777742368	0.875
4609	82061	193.429305008474	0.875
4609	82188	193.734634963157	0.625
4609	82190	193.737769668296	0.625
4609	82221	193.809354407088	0.625
4609	82232	193.842787368567	0.875
4609	82235	193.845029185285	0.875
4609	82306	194.001045821986	0.875
4609	82355	194.104525707654	0.875
4609	83343	196.2	1
4609	83453	196.5	0.75
4609	83667	196.905637352124	0.625
4609	83770	197.110103016488	0.875
4609	83775	197.112650429957	0.875
4609	83914	197.31285880745	0.875
4609	83926	197.31427360932	0.875
4609	83942	197.328632381211	0.875
4609	84922	199.5	0.875
4609	85061	199.8	0.75
4609	85301	200.309931334184	0.5
4609	86322	202.5	0.75
4609	86579	203.1	0.375
4609	87541	205.3	0.625
4609	87881	206	0.25
4609	87987	206.203371252152	0.875
4609	88141	206.511442414293	0.75
4609	89247	208.7	0.5
4609	89499	209.2	0.375
4609	89728	209.662305155915	0.375
4609	89893	210.062894908736	0.625
4609	90244	210.672643934664	0.375
4609	90269	210.706505817659	-1.25
4609	91384	213.2	0.5
4609	91538	213.5	0.75
4609	91648	213.717244250245	0.875
4609	91676	213.800256276107	0.625
4609	92707	216	0.75
4609	92841	216.3	0.75
4609	93458	217.207049032617	-0.25
4609	93463	217.211486182072	-0.125
4609	93635	217.512792365369	0.75
4609	93637	217.512902515594	0.75
4609	94645	219.5	0.875
4609	94766	219.7	0.875
4609	94834	219.811267912785	0.875
4609	95751	222.1	0.875
4609	95875	222.3	0.875
4609	95998	222.514890477745	0.875
4609	97101	224.7	0.625
4609	97169	224.9	0.875
4609	97259	225.210167283161	0.75
4609	97326	225.416371523017	0.875
4609	97383	225.622322332894	0.875
4610	37	20.3	0.2
4610	90	20.712694174309	0.4
4610	181	21.113273144936	0.4
4610	239	21.348110416685	0.2
4610	1201	23.4	0
4610	1334	23.7	0.3
4610	1419	23.831763824084	0.3
4610	1530	24.105161279297	0.4
4610	2557	26.2	0.1
4610	2771	26.7	0.5
4610	2800	26.718505481808	0.4
4610	2888	26.913271949111	0.2
4610	2895	26.920355232565	0.2
4610	2935	27.018883114304	0.2
4610	3094	27.421358607336	0.5
4610	3096	27.422056719998	0.4
4610	3101	27.427422928207	0.5
4610	4223	29.8	0.3
4610	4513	30.4	0.6
4610	4644	30.701943699151	0.3
4610	4810	31.0107048406	0.3
4610	5935	33.3	0.4
4610	6194	33.8	0.5
4610	6335	34.106065984845	0.3
4610	7391	36.1	0.2
4610	7527	36.5	0.4
4610	7751	37.003383286988	0.5
4610	7932	37.405643535328	0.8
4610	8136	37.809038788553	0.8
4610	9192	39.6	0.2
4610	9389	40	0.4
4610	9507	40.207003856303	0.2
4610	9804	40.721855792744	0.5
4610	9831	40.754825190301	0.4
4610	11136	43.4	0.4
4610	11244	43.7	0.3
4610	11527	44.405795457109	0.7
4610	12516	46.5	0.1
4610	12758	47	0.5
4610	12873	47.213312896777	0.3
4610	12997	47.43179942086	0.2
4610	14058	49.6	0.4
4610	14204	49.9	0.3
4610	14332	50.20849082261	0.3
4610	14338	50.216337834705	0.3
4610	14424	50.425472828993	0.2
4610	14500	50.612026554147	0.4
4610	15572	52.8	0.4
4610	15680	53	0.2
4610	15969	53.628541741376	0.6
4610	16056	53.843595236281	0.2
4610	17041	56.2	0.2
4610	17217	56.7	0.5
4610	18067	58.4	0.1
4610	18293	58.804465704266	0.4
4610	18402	58.955500768663	0.4
4610	18486	59.106836447975	0.4
4610	18530	59.215558294987	0.4
4610	18626	59.34276486403	0.4
4610	19578	61.3	0
4610	20033	62.120020808322	0.3
4610	20231	62.5	1.2
4610	20249	62.514955422502	0.3
4610	21280	64.7	0.2
4610	21463	65.1	0.4
4610	21623	65.40759911946	0.3
4610	21683	65.609147320126	0.2
4610	22849	68.1	0.6
4610	23008	68.4	0.3
4610	23158	68.706045019023	0.3
4610	23296	69.012601817965	0.3
4610	24462	71.5	0.4
4610	24644	71.9	0.4
4610	24854	72.402564596529	0.5
4610	25206	73.008476886103	0.6
4610	25333	73.208515985662	0.2
4610	26280	74.9	0.1
4610	26567	75.5	0.6
4610	26653	75.704903352607	0.2
4610	26809	76.013024203553	0.3
4610	27996	78.6	0.4
4610	28166	79.1	0.5
4610	29116	81.3	0.2
4610	29200	81.500122096382	0.2
4610	29514	82.209695972748	0.7
4610	29579	82.36324951504	0.6
4610	30557	84.3	0.1
4610	30634	84.5	0.2
4610	30782	84.914648537761	0.4
4610	31794	86.9	0.2
4610	31907	87.202320567895	0.3
4610	31970	87.413325484484	0.2
4610	32184	87.915092179228	0.5
4610	32191	87.920793845072	0.5
4610	33126	90	0.1
4610	33379	90.5	0.5
4610	34501	93.2	0.4
4610	34741	93.8	0.6
4610	34806	93.91011168175	0.3
4610	34838	94.000938661994	0.2
4610	35843	96.3	0.2
4610	36164	97.001510766865	0.7
4610	36217	97.103499974912	0.2
4610	36432	97.512273604826	0.4
4610	37381	99.5	0.1
4610	37457	99.7	0.2
4610	37658	100.016565167677	0.3
4610	37693	100.104099398263	0.3
4610	38567	101.9	0.1
4610	38807	102.4	0.5
4610	39140	103.038178080092	0.5
4610	39267	103.342124003935	0.3
4610	39361	103.5025599387	1.1
4610	40315	105.6	0.1
4610	40472	105.9	0.3
4610	40795	106.405629171966	0.5
4610	40806	106.418583174501	0.5
4610	41819	108.6	0.2
4610	42064	109.1	0.5
4610	42240	109.400694441781	0.3
4610	42420	109.80659604523	0.4
4610	43507	112.1	0.3
4610	43620	112.304445919538	0.2
4610	43774	112.706246670916	0.4
4610	43854	112.917785816125	0.2
4610	43888	113.022765784897	0.4
4610	43997	113.219755762789	0.3
4610	44001	113.224390686503	0.2
4610	45043	115.4	0.4
4610	45278	116	0.6
4610	45359	116.213280138245	0.2
4610	45506	116.513508402881	0.3
4610	45692	116.814405369079	0.3
4610	46710	118.5	0.2
4610	46941	118.909303367673	0.4
4610	47795	120.9	0.1
4610	48152	121.60422486657	0.7
4610	48261	121.805664081801	0.2
4610	48459	122.208381358554	0.5
4610	48481	122.215412125002	0.4
4610	48570	122.40980364543	0.2
4610	48573	122.411069176698	0.5
4610	49435	124.4	0.1
4610	49629	124.7	0.3
4610	49805	125.004258015726	0.3
4610	49922	125.20813379175	0.3
4610	50048	125.522990050407	0.3
4610	50065	125.60570155491	0.6
4610	50069	125.607960713829	0.6
4610	51012	127.8	0.1
4610	51139	128.1	0.3
4610	51368	128.608993072456	0.5
4610	51373	128.619038470504	0.4
4610	51460	128.814378502352	0.2
4610	52461	131	0.3
4610	52647	131.4	0.4
4610	52846	131.707318563902	0.1
4610	52890	131.804634211766	0.4
4610	52896	131.806044648485	0.4
4610	53890	133.9	0.3
4610	54025	134.2	0.3
4610	54168	134.50010322994	0.3
4610	55273	136.8	0.4
4610	55407	137.1	0.3
4610	55610	137.602754946721	0.5
4610	55748	137.904900783553	0.3
4610	55752	137.906976214253	0.3
4610	56780	140.2	0.2
4610	56954	140.605919315847	0.4
4610	57170	141.006403530889	0.4
4610	57188	141.010362353249	0.4
4610	57326	141.314778904241	0.3
4610	57330	141.318325261747	0.3
4610	57492	141.63256125889	0.3
4610	57494	141.632793380107	0.3
4610	57502	141.660474799789	0.3
4610	58551	143.9	0.5
4610	58757	144.4	0.5
4610	58944	144.802834286636	0.4
4610	59912	146.9	0.3
4610	60179	147.408419340555	0.5
4610	60457	148.015882549242	0.6
4610	60562	148.218832398874	0.2
4610	60651	148.414702579046	0.2
4610	60676	148.427414863854	0.2
4610	60765	148.617773553686	0.2
4610	61985	151.1	0.5
4610	62105	151.4	0.3
4610	62380	151.912697367563	0.5
4610	62414	152.030091646285	0.3
4610	63559	154.5	0.4
4610	63757	155	0.5
4610	63901	155.406599880407	0.4
4610	63904	155.407432028329	0.4
4610	63989	155.606988065327	0.2
4610	65170	158.4	0.7
4610	65258	158.6	0.2
4610	65606	159.405066610697	0.8
4610	65614	159.408965096483	0.8
4610	65807	159.814520440854	0.4
4610	65826	159.81953101708	0.4
4610	67079	162.1	0.5
4610	67212	162.4	0.3
4610	68410	164.8	0.2
4610	68608	165.306413339301	0.5
4610	68721	165.515474108933	0.2
4610	68800	165.715343406383	0.2
4610	69942	168.2	0.4
4610	70124	168.6	0.4
4610	70230	168.803297500107	0.2
4610	70409	169.112481210729	0.3
4610	70470	169.220404169548	0.3
4610	71529	171.5	0.2
4610	71729	172	0.5
4610	71840	172.301024176802	0.3
4610	71930	172.504187939416	0.2
4610	72020	172.704980497353	0.2
4610	73044	174.7	0.2
4610	73205	174.909506986474	0.2
4610	74559	177.6	0.5
4610	74767	178	0.4
4610	75871	180.2	0.2
4610	75969	180.4	0.2
4610	76108	180.604760937222	0.2
4610	76181	180.80831726349	0.2
4610	77379	183.1	0.4
4610	77475	183.3	0.2
4610	77650	183.708315729808	0.3
4610	77655	183.709658972595	0.4
4610	77794	184.018695655852	0.3
4610	78722	186.1	0.2
4610	78981	186.6	0.5
4610	79091	186.822677709759	0.2
4610	79245	187.128971115686	0.3
4610	80273	189.4	0.2
4610	80432	189.731250133795	0.3
4610	80626	190.149699279178	0.4
4610	80711	190.384655503743	0.2
4610	81713	192.7	0.2
4610	81963	193.2	0.5
4610	82053	193.407777742368	0.2
4610	82061	193.429305008474	0.2
4610	82188	193.734634963157	0.3
4610	82190	193.737769668296	0.3
4610	82221	193.809354407088	0.4
4610	82232	193.842787368567	0.1
4610	82235	193.845029185285	0.1
4610	82306	194.001045821986	0.2
4610	82355	194.104525707654	0.2
4610	83343	196.2	0
4610	83453	196.5	0.3
4610	83667	196.905637352124	0.4
4610	83770	197.110103016488	0.2
4610	83775	197.112650429957	0.2
4610	83914	197.31285880745	0.2
4610	83926	197.31427360932	0.2
4610	83942	197.328632381211	0.2
4610	84922	199.5	0.1
4610	85061	199.8	0.3
4610	85301	200.309931334184	0.5
4610	86322	202.5	0.2
4610	86579	203.1	0.6
4610	87541	205.3	0.3
4610	87881	206	0.7
4610	87987	206.203371252152	0.2
4610	88141	206.511442414293	0.3
4610	89247	208.7	0.4
4610	89499	209.2	0.5
4610	89728	209.662305155915	0.6
4610	89893	210.062894908736	0.4
4610	90244	210.672643934664	0.6
4610	90269	210.706505817659	1.5
4610	91384	213.2	0.4
4610	91538	213.5	0.3
4610	91648	213.717244250245	0.2
4610	91676	213.800256276107	0.3
4610	92707	216	0.2
4610	92841	216.3	0.3
4610	93458	217.207049032617	0.9
4610	93463	217.211486182072	0.9
4610	93635	217.512792365369	0.3
4610	93637	217.512902515594	0.3
4610	94645	219.5	0.1
4610	94766	219.7	0.2
4610	94834	219.811267912785	0.2
4610	95751	222.1	0.1
4610	95875	222.3	0.2
4610	95998	222.514890477745	0.2
4610	97101	224.7	0.3
4610	97169	224.9	0.2
4610	97259	225.210167283161	0.3
4610	97326	225.416371523017	0.2
4610	97383	225.622322332894	0.2
4611	41	20.3	1
4611	64	20.6	2
4611	105	20.813658096759	1
4611	154	21.050145242922	1