version 2
run Stability-norelink-122-20130525-23:22:11-22103
attr configname Stability-norelink
attr datetime 20130525-23:22:11
attr experiment Stability
attr inifile omnetpp.ini
attr iterationvars $0=1e-6
attr iterationvars2 "$0=1e-6, $repetition=2"
attr measurement $0=1e-6
attr network Network
attr processid 22103
attr repetition 2
attr replication #2
attr resultdir results
attr runnumber 122
attr seedset 122

vector 11712  Network.dyn_peer[0]  lookupHopsSig:vector  ETV
vector 11713  Network.dyn_peer[0]  lookupStabilitySig:vector  ETV
vector 11714  Network.dyn_peer[0]  lookupTimeSig:vector  ETV
vector 11724  Network.dyn_peer[4]  lookupHopsSig:vector  ETV
vector 11725  Network.dyn_peer[4]  lookupStabilitySig:vector  ETV
vector 11726  Network.dyn_peer[4]  lookupTimeSig:vector  ETV
vector 11793  Network.dyn_peer[27]  lookupHopsSig:vector  ETV
vector 11794  Network.dyn_peer[27]  lookupStabilitySig:vector  ETV
vector 11795  Network.dyn_peer[27]  lookupTimeSig:vector  ETV
vector 11730  Network.dyn_peer[6]  lookupHopsSig:vector  ETV
vector 11731  Network.dyn_peer[6]  lookupStabilitySig:vector  ETV
vector 11732  Network.dyn_peer[6]  lookupTimeSig:vector  ETV
vector 11751  Network.dyn_peer[13]  lookupHopsSig:vector  ETV
vector 11752  Network.dyn_peer[13]  lookupStabilitySig:vector  ETV
vector 11753  Network.dyn_peer[13]  lookupTimeSig:vector  ETV
vector 11757  Network.dyn_peer[15]  lookupHopsSig:vector  ETV
vector 11758  Network.dyn_peer[15]  lookupStabilitySig:vector  ETV
vector 11759  Network.dyn_peer[15]  lookupTimeSig:vector  ETV
vector 11763  Network.dyn_peer[17]  lookupHopsSig:vector  ETV
vector 11764  Network.dyn_peer[17]  lookupStabilitySig:vector  ETV
vector 11765  Network.dyn_peer[17]  lookupTimeSig:vector  ETV
vector 11766  Network.dyn_peer[18]  lookupHopsSig:vector  ETV
vector 11767  Network.dyn_peer[18]  lookupStabilitySig:vector  ETV
vector 11768  Network.dyn_peer[18]  lookupTimeSig:vector  ETV
vector 11775  Network.dyn_peer[21]  lookupHopsSig:vector  ETV
vector 11776  Network.dyn_peer[21]  lookupStabilitySig:vector  ETV
vector 11777  Network.dyn_peer[21]  lookupTimeSig:vector  ETV
vector 11784  Network.dyn_peer[24]  lookupHopsSig:vector  ETV
vector 11785  Network.dyn_peer[24]  lookupStabilitySig:vector  ETV
vector 11786  Network.dyn_peer[24]  lookupTimeSig:vector  ETV
vector 11721  Network.dyn_peer[3]  lookupHopsSig:vector  ETV
vector 11722  Network.dyn_peer[3]  lookupStabilitySig:vector  ETV
vector 11723  Network.dyn_peer[3]  lookupTimeSig:vector  ETV
vector 11727  Network.dyn_peer[5]  lookupHopsSig:vector  ETV
vector 11728  Network.dyn_peer[5]  lookupStabilitySig:vector  ETV
vector 11729  Network.dyn_peer[5]  lookupTimeSig:vector  ETV
vector 11739  Network.dyn_peer[9]  lookupHopsSig:vector  ETV
vector 11740  Network.dyn_peer[9]  lookupStabilitySig:vector  ETV
vector 11741  Network.dyn_peer[9]  lookupTimeSig:vector  ETV
vector 11769  Network.dyn_peer[19]  lookupHopsSig:vector  ETV
vector 11770  Network.dyn_peer[19]  lookupStabilitySig:vector  ETV
vector 11771  Network.dyn_peer[19]  lookupTimeSig:vector  ETV
vector 11772  Network.dyn_peer[20]  lookupHopsSig:vector  ETV
vector 11773  Network.dyn_peer[20]  lookupStabilitySig:vector  ETV
vector 11774  Network.dyn_peer[20]  lookupTimeSig:vector  ETV
vector 11778  Network.dyn_peer[22]  lookupHopsSig:vector  ETV
vector 11779  Network.dyn_peer[22]  lookupStabilitySig:vector  ETV
vector 11780  Network.dyn_peer[22]  lookupTimeSig:vector  ETV
vector 11796  Network.dyn_peer[28]  lookupHopsSig:vector  ETV
vector 11797  Network.dyn_peer[28]  lookupStabilitySig:vector  ETV
vector 11798  Network.dyn_peer[28]  lookupTimeSig:vector  ETV
vector 11799  Network.dyn_peer[29]  lookupHopsSig:vector  ETV
vector 11800  Network.dyn_peer[29]  lookupStabilitySig:vector  ETV
vector 11801  Network.dyn_peer[29]  lookupTimeSig:vector  ETV
vector 11742  Network.dyn_peer[10]  lookupHopsSig:vector  ETV
vector 11743  Network.dyn_peer[10]  lookupStabilitySig:vector  ETV
vector 11744  Network.dyn_peer[10]  lookupTimeSig:vector  ETV
vector 11754  Network.dyn_peer[14]  lookupHopsSig:vector  ETV
vector 11755  Network.dyn_peer[14]  lookupStabilitySig:vector  ETV
vector 11756  Network.dyn_peer[14]  lookupTimeSig:vector  ETV
vector 11781  Network.dyn_peer[23]  lookupHopsSig:vector  ETV
vector 11782  Network.dyn_peer[23]  lookupStabilitySig:vector  ETV
vector 11783  Network.dyn_peer[23]  lookupTimeSig:vector  ETV
vector 11790  Network.dyn_peer[26]  lookupHopsSig:vector  ETV
vector 11791  Network.dyn_peer[26]  lookupStabilitySig:vector  ETV
vector 11792  Network.dyn_peer[26]  lookupTimeSig:vector  ETV
vector 11802  Network.dyn_peer[30]  lookupHopsSig:vector  ETV
vector 11803  Network.dyn_peer[30]  lookupStabilitySig:vector  ETV
vector 11804  Network.dyn_peer[30]  lookupTimeSig:vector  ETV
vector 11718  Network.dyn_peer[2]  lookupHopsSig:vector  ETV
vector 11719  Network.dyn_peer[2]  lookupStabilitySig:vector  ETV
vector 11720  Network.dyn_peer[2]  lookupTimeSig:vector  ETV
vector 11736  Network.dyn_peer[8]  lookupHopsSig:vector  ETV
vector 11737  Network.dyn_peer[8]  lookupStabilitySig:vector  ETV
vector 11738  Network.dyn_peer[8]  lookupTimeSig:vector  ETV
vector 11745  Network.dyn_peer[11]  lookupHopsSig:vector  ETV
vector 11746  Network.dyn_peer[11]  lookupStabilitySig:vector  ETV
vector 11747  Network.dyn_peer[11]  lookupTimeSig:vector  ETV
vector 11805  Network.dyn_peer[31]  lookupHopsSig:vector  ETV
vector 11806  Network.dyn_peer[31]  lookupStabilitySig:vector  ETV
vector 11807  Network.dyn_peer[31]  lookupTimeSig:vector  ETV
vector 11787  Network.dyn_peer[25]  lookupHopsSig:vector  ETV
vector 11788  Network.dyn_peer[25]  lookupStabilitySig:vector  ETV
vector 11789  Network.dyn_peer[25]  lookupTimeSig:vector  ETV
vector 11748  Network.dyn_peer[12]  lookupHopsSig:vector  ETV
vector 11749  Network.dyn_peer[12]  lookupStabilitySig:vector  ETV
vector 11750  Network.dyn_peer[12]  lookupTimeSig:vector  ETV
vector 11715  Network.dyn_peer[1]  lookupHopsSig:vector  ETV
vector 11716  Network.dyn_peer[1]  lookupStabilitySig:vector  ETV
vector 11717  Network.dyn_peer[1]  lookupTimeSig:vector  ETV
vector 11733  Network.dyn_peer[7]  lookupHopsSig:vector  ETV
vector 11734  Network.dyn_peer[7]  lookupStabilitySig:vector  ETV
vector 11735  Network.dyn_peer[7]  lookupTimeSig:vector  ETV
vector 11760  Network.dyn_peer[16]  lookupHopsSig:vector  ETV
vector 11761  Network.dyn_peer[16]  lookupStabilitySig:vector  ETV
vector 11762  Network.dyn_peer[16]  lookupTimeSig:vector  ETV
11712	31	20.000000001	0
11712	327	20.400000001	3
11712	514	20.706333804657	2
11712	908	21.209635681132	3
11712	999	21.308144043216	5
11712	1398	21.617214248181	2
11712	1646	21.910923178729	6
11712	1697	21.918112853916	7
11712	2515	22.626276630661	9
11712	3028	23.12690650493	2
11712	3223	23.326276630661	6
11712	3422	23.528621322356	1
11712	3624	23.731444701706	5
11712	3907	23.94018254337	2
11712	4718	24.64018254337	6
11712	5355	25.14028254437	5
11712	5725	25.44028254437	2
11712	7319	26.832288388514	13
11712	7344	26.840911379753	15
11712	7492	26.944627577997	0
11712	7499	26.947661548192	0
11712	8146	27.44085460014	7
11712	9615	28.648534485368	14
11712	9971	28.948534485368	2
11712	10779	29.65613035949	7
11712	11159	30.063828366178	3
11712	11281	30.17647069048	2
11712	11723	30.5730721341	5
11712	11746	30.580493336143	3
11712	11806	30.609853943161	2
11712	11932	30.713497703954	1
11712	12384	31.113497703954	3
11712	13146	31.717636226896	5
11712	14024	32.430937967365	6
11712	14951	33.139751717594	6
11712	15846	33.921107229683	9
11712	16513	34.633999738775	6
11712	16850	34.942630490585	3
11712	17185	35.261704438627	2
11712	17666	35.619007868366	1
11712	18229	35.975964393895	7
11712	18234	35.978593189686	7
11712	18241	36.018176345941	3
11712	19097	36.727634636313	8
11712	19701	37.327634636313	6
11712	20357	37.934838541164	5
11712	20433	37.964962794115	5
11712	20507	38.052444213273	3
11712	21366	38.754996761422	7
11712	22338	39.554996761422	9
11712	22696	39.856149029024	2
11712	23248	40.363984636354	4
11712	23638	40.669836104507	3
11712	24024	41.069836104507	3
11712	24439	41.472149961308	3
11712	24451	41.478300914053	3
11712	25545	42.504892912249	6
11712	26205	43.104892912249	5
11712	26841	43.680578974374	4
11712	27064	43.892713090896	1
11712	27081	43.908659802894	8
11712	27179	43.984835298673	1
11712	27419	44.188045540934	2
11712	28147	44.888045540934	6
11712	28658	45.492805030866	5
11712	29140	45.999317463288	4
11712	29392	46.201956234463	1
11712	29726	46.489013197379	3
11712	29958	46.694902802829	2
11712	31079	47.80654821669	3
11712	31355	48.00664821769	3
11712	32075	48.60664821769	5
11712	32491	48.91544776646	2
11712	32897	49.221392344122	2
11712	32930	49.236854305689	2
11712	33665	49.845197654544	6
11712	34182	50.245197654544	3
11712	34523	50.473094427519	1
11712	35003	50.906286737306	3
11712	35597	51.409836067531	5
11712	35924	51.668886025211	9
11712	36074	51.820515998316	3
11712	36364	52.073225981521	3
11712	37917	53.373325982521	14
11712	38150	53.573325982521	1
11712	38536	53.88124071781	3
11712	38816	54.08124071781	1
11712	39173	54.387441117253	2
11712	39270	54.464566495519	2
11712	39948	55.097403220764	6
11712	40887	55.901981979783	8
11712	41178	56.141869802205	1
11712	41996	56.857388266119	6
11712	42037	56.884582762724	5
11712	42056	56.887239381784	0
11712	42161	56.987239381784	0
11712	42813	57.59594244219	5
11712	43785	58.403537144341	8
11712	44144	58.703537144341	2
11712	44899	59.410182934371	1
11712	45029	59.507154277773	7
11712	46178	60.415023151414	10
11712	46770	60.815023151414	4
11712	47194	61.118547734571	3
11712	47208	61.119630426919	3
11712	47454	61.322709332263	1
11712	47457	61.32400939507	1
11712	48068	61.92410939607	6
11712	48366	62.22410939607	2
11712	48606	62.430769685368	1
11712	49292	63.101770254258	2
11712	49511	63.310954144879	1
11712	49652	63.420211587598	1
11712	50083	63.830454135253	3
11712	50559	64.230554136253	4
11712	51031	64.630554136253	3
11712	51621	65.115249591206	1
11712	51789	65.230807398949	6
11712	51979	65.333306608562	1
11712	52769	66.033306608562	6
11712	53133	66.341958872022	2
11712	53522	66.644631879618	2
11712	54132	67.071709347495	4
11712	54462	67.346983979877	6
11712	54692	67.548678946415	1
11712	55193	67.976245662055	9
11712	55749	68.476345663055	5
11712	56104	68.776345663055	2
11712	56314	68.963476622803	2
11712	56900	69.463576623803	5
11712	57135	69.663576623803	1
11712	57549	70.071429637876	3
11712	57789	70.274670854751	1
11712	58104	70.509418246751	2
11712	58170	70.597073167127	2
11712	58762	71.104422046929	5
11712	59385	71.704422046929	5
11712	59773	72.084202529069	1
11712	59815	72.107957913384	3
11712	59991	72.290104896242	1
11712	60703	72.894545951113	6
11712	61066	73.198730248577	2
11712	61893	73.8998685671	7
11712	62424	74.309125661208	3
11712	62793	74.619035462792	5
11712	63320	75.019135463792	4
11712	65612	76.854461864882	15
11712	66054	77.168621856736	2
11712	66320	77.378015337882	1
11712	67384	78.28435494322	11
11712	67758	78.594429353744	2
11712	68748	79.294529354744	7
11712	70628	80.894529354744	16
11712	71106	81.311348260405	3
11712	71547	81.719112556402	3
11712	72144	82.221765274285	5
11712	72362	82.421765274285	1
11712	73962	83.648853781898	7
11712	74286	83.848853781898	2
11712	75115	84.556315942254	6
11712	75585	85.063852966328	4
11712	75978	85.470538454697	4
11712	76410	85.870538454697	3
11712	77307	86.571780450392	7
11712	77419	86.671780450392	1
11712	77796	87.034926192852	2
11712	78113	87.381689986471	7
11712	78482	87.781826020197	4
11712	79034	88.23501912186	1
11712	79286	88.43511912286	2
11712	79631	88.73511912286	2
11712	79781	88.843141773901	1
11712	80008	89.043141773901	1
11712	80769	89.649140932864	6
11712	81207	90.052296348797	5
11712	82102	90.752396349797	7
11712	82620	91.152396349797	3
11712	83035	91.454877834941	2
11712	83439	91.761515269378	2
11712	83504	91.821694524457	4
11712	84320	92.527714905328	7
11712	84666	92.827714905328	2
11712	85108	93.231427170316	4
11712	85161	93.283670823914	3
11712	85948	93.979098683369	4
11712	86161	94.179098683369	1
11712	86531	94.480235121461	2
11712	87294	95.081093811313	6
11712	87739	95.381093811313	2
11712	88060	95.597910857872	1
11712	88161	95.697775729899	1
11712	88572	96.000642330693	3
11712	89317	96.600642330693	5
11712	89847	97.010328065021	3
11712	89877	97.024132800068	3
11712	90624	97.633950039608	7
11712	90852	97.833950039608	1
11712	90993	97.954274457529	1
11712	91170	98.134302869011	2
11712	91232	98.168315624383	1
11712	91421	98.336563927659	1
11712	92164	98.931291401111	6
11712	93062	99.631391402111	8
11712	93493	100.031391402111	3
11712	94064	100.535664825423	4
11712	95337	101.737523260537	13
11712	96108	102.441321749017	6
11712	96325	102.650869109672	1
11712	96851	103.168255539796	5
11712	96887	103.198124123977	4
11712	97411	103.703742425961	5
11712	98571	104.903742425961	12
11712	99189	105.415322027254	4
11712	100009	106.021039206286	6
11712	100229	106.183026242357	7
11712	100308	106.251005592402	5
11712	101646	107.451105593402	13
11712	102250	107.951105593402	5
11712	102269	107.958409604127	0
11712	103356	108.758409604127	8
11712	103693	109.062703341161	2
11712	104028	109.371416374446	2
11712	104352	109.673110198237	2
11712	105145	110.38127588539	7
11712	105588	110.78127588539	3
11712	106281	111.235793855333	3
11712	107194	111.933894679076	2
11712	107426	112.135793855333	9
11712	107564	112.239683246188	1
11712	108542	113.039683246188	7
11712	109198	113.546246154687	4
11712	109446	113.751838192494	1
11712	109954	114.157999352281	4
11712	110328	114.457999352281	2
11712	110686	114.72957445188	1
11712	111654	115.46711286991	10
11712	112286	115.929766171008	14
11712	112463	116.067604877935	5
11712	113276	116.677554642079	6
11712	113656	116.977554642079	2
11712	114564	117.694688779507	7
11712	115241	118.194688779507	5
11712	115929	118.701719484015	4
11712	116261	118.917161681036	5
11712	116831	119.399082361619	5
11712	117423	119.799915839372	5
11712	118942	121.099915839372	12
11712	119566	121.605188042066	4
11712	120099	122.107199878612	4
11712	120582	122.507317435701	4
11712	120896	122.707317435701	1
11712	121159	122.911047453336	1
11712	121513	123.220719194785	2
11712	121706	123.429808875657	1
11712	121863	123.630877690985	1
11712	121873	123.635152864046	1
11712	122240	124.002268933483	9
11712	122508	124.241171682194	5
11712	122912	124.644424290279	4
11712	123565	125.244424290279	5
11712	124093	125.695529657309	3
11712	124250	125.8460393849	6
11712	124486	125.998576033159	2
11712	125162	126.498676034159	5
11712	125521	126.798676034159	2
11712	125703	126.901733917115	1
11712	125938	127.116705802082	1
11712	126121	127.283625978823	1
11712	127249	128.104462474851	5
11712	127535	128.404462474851	2
11712	128697	129.504642583242	12
11712	128928	129.704833675514	1
11712	129983	130.500482547534	6
11712	130141	130.608449877742	0
11712	130379	130.806703294148	11
11712	130506	130.916011645983	2
11712	131712	132.016011645983	10
11712	132279	132.525875891964	4
11712	132487	132.726867133422	2
11712	133087	133.226867133422	4
11712	133725	133.729210663282	4
11712	133964	133.933551943493	1
11712	134102	134.040671000209	1
11712	135649	135.302363126398	5
11712	135686	135.340671000209	14
11712	136226	135.810650826129	4
11712	136292	135.847655651064	4
11712	136704	136.148486722227	2
11713	31	20.000000001	1
11713	327	20.400000001	0.625
11713	514	20.706333804657	0.75
11713	908	21.209635681132	0.625
11713	999	21.308144043216	0.375
11713	1398	21.617214248181	0.75
11713	1646	21.910923178729	0.25
11713	1697	21.918112853916	0.125
11713	2515	22.626276630661	-0.125
11713	3028	23.12690650493	0.75
11713	3223	23.326276630661	0.25
11713	3422	23.528621322356	0.875
11713	3624	23.731444701706	0.375
11713	3907	23.94018254337	0.75
11713	4718	24.64018254337	0.25
11713	5355	25.14028254437	0.375
11713	5725	25.44028254437	0.75
11713	7319	26.832288388514	-0.625
11713	7344	26.840911379753	-0.875
11713	7492	26.944627577997	1
11713	7499	26.947661548192	1
11713	8146	27.44085460014	0.125
11713	9615	28.648534485368	-0.75
11713	9971	28.948534485368	0.75
11713	10779	29.65613035949	0.125
11713	11159	30.063828366178	0.625
11713	11281	30.17647069048	0.75
11713	11723	30.5730721341	0.375
11713	11746	30.580493336143	0.625
11713	11806	30.609853943161	0.75
11713	11932	30.713497703954	0.875
11713	12384	31.113497703954	0.625
11713	13146	31.717636226896	0.375
11713	14024	32.430937967365	0.25
11713	14951	33.139751717594	0.25
11713	15846	33.921107229683	-0.125
11713	16513	34.633999738775	0.25
11713	16850	34.942630490585	0.625
11713	17185	35.261704438627	0.75
11713	17666	35.619007868366	0.875
11713	18229	35.975964393895	0.125
11713	18234	35.978593189686	0.125
11713	18241	36.018176345941	0.625
11713	19097	36.727634636313	0
11713	19701	37.327634636313	0.25
11713	20357	37.934838541164	0.375
11713	20433	37.964962794115	0.375
11713	20507	38.052444213273	0.625
11713	21366	38.754996761422	0.125
11713	22338	39.554996761422	-0.125
11713	22696	39.856149029024	0.75
11713	23248	40.363984636354	0.5
11713	23638	40.669836104507	0.625
11713	24024	41.069836104507	0.625
11713	24439	41.472149961308	0.625
11713	24451	41.478300914053	0.625
11713	25545	42.504892912249	0.25
11713	26205	43.104892912249	0.375
11713	26841	43.680578974374	0.5
11713	27064	43.892713090896	0.875
11713	27081	43.908659802894	0
11713	27179	43.984835298673	0.875
11713	27419	44.188045540934	0.75
11713	28147	44.888045540934	0.25
11713	28658	45.492805030866	0.375
11713	29140	45.999317463288	0.5
11713	29392	46.201956234463	0.875
11713	29726	46.489013197379	0.625
11713	29958	46.694902802829	0.75
11713	31079	47.80654821669	0.625
11713	31355	48.00664821769	0.625
11713	32075	48.60664821769	0.375
11713	32491	48.91544776646	0.75
11713	32897	49.221392344122	0.75
11713	32930	49.236854305689	0.75
11713	33665	49.845197654544	0.25
11713	34182	50.245197654544	0.625
11713	34523	50.473094427519	0.875
11713	35003	50.906286737306	0.625
11713	35597	51.409836067531	0.375
11713	35924	51.668886025211	-0.125
11713	36074	51.820515998316	0.625
11713	36364	52.073225981521	0.625
11713	37917	53.373325982521	-0.75
11713	38150	53.573325982521	0.875
11713	38536	53.88124071781	0.625
11713	38816	54.08124071781	0.875
11713	39173	54.387441117253	0.75
11713	39270	54.464566495519	0.75
11713	39948	55.097403220764	0.25
11713	40887	55.901981979783	0
11713	41178	56.141869802205	0.875
11713	41996	56.857388266119	0.25
11713	42037	56.884582762724	0.375
11713	42056	56.887239381784	1
11713	42161	56.987239381784	1
11713	42813	57.59594244219	0.375
11713	43785	58.403537144341	0
11713	44144	58.703537144341	0.75
11713	44899	59.410182934371	0.875
11713	45029	59.507154277773	0.125
11713	46178	60.415023151414	-0.25
11713	46770	60.815023151414	0.5
11713	47194	61.118547734571	0.625
11713	47208	61.119630426919	0.625
11713	47454	61.322709332263	0.875
11713	47457	61.32400939507	0.875
11713	48068	61.92410939607	0.25
11713	48366	62.22410939607	0.75
11713	48606	62.430769685368	0.875
11713	49292	63.101770254258	0.75
11713	49511	63.310954144879	0.875
11713	49652	63.420211587598	0.875
11713	50083	63.830454135253	0.625
11713	50559	64.230554136253	0.5
11713	51031	64.630554136253	0.625
11713	51621	65.115249591206	0.875
11713	51789	65.230807398949	0.25
11713	51979	65.333306608562	0.875
11713	52769	66.033306608562	0.25
11713	53133	66.341958872022	0.75
11713	53522	66.644631879618	0.75
11713	54132	67.071709347495	0.5
11713	54462	67.346983979877	0.25
11713	54692	67.548678946415	0.875
11713	55193	67.976245662055	-0.125
11713	55749	68.476345663055	0.375
11713	56104	68.776345663055	0.75
11713	56314	68.963476622803	0.75
11713	56900	69.463576623803	0.375
11713	57135	69.663576623803	0.875
11713	57549	70.071429637876	0.625
11713	57789	70.274670854751	0.875
11713	58104	70.509418246751	0.75
11713	58170	70.597073167127	0.75
11713	58762	71.104422046929	0.375
11713	59385	71.704422046929	0.375
11713	59773	72.084202529069	0.875
11713	59815	72.107957913384	0.625
11713	59991	72.290104896242	0.875
11713	60703	72.894545951113	0.25
11713	61066	73.198730248577	0.75
11713	61893	73.8998685671	0.125
11713	62424	74.309125661208	0.625
11713	62793	74.619035462792	0.375
11713	63320	75.019135463792	0.5
11713	65612	76.854461864882	-0.875
11713	66054	77.168621856736	0.75
11713	66320	77.378015337882	0.875
11713	67384	78.28435494322	-0.375
11713	67758	78.594429353744	0.75
11713	68748	79.294529354744	0.125
11713	70628	80.894529354744	-1
11713	71106	81.311348260405	0.625
11713	71547	81.719112556402	0.625
11713	72144	82.221765274285	0.375
11713	72362	82.421765274285	0.875
11713	73962	83.648853781898	0.125
11713	74286	83.848853781898	0.75
11713	75115	84.556315942254	0.25
11713	75585	85.063852966328	0.5
11713	75978	85.470538454697	0.5
11713	76410	85.870538454697	0.625
11713	77307	86.571780450392	0.125
11713	77419	86.671780450392	0.875
11713	77796	87.034926192852	0.75
11713	78113	87.381689986471	0.125
11713	78482	87.781826020197	0.5
11713	79034	88.23501912186	0.875
11713	79286	88.43511912286	0.75
11713	79631	88.73511912286	0.75
11713	79781	88.843141773901	0.875
11713	80008	89.043141773901	0.875
11713	80769	89.649140932864	0.25
11713	81207	90.052296348797	0.375
11713	82102	90.752396349797	0.125
11713	82620	91.152396349797	0.625
11713	83035	91.454877834941	0.75
11713	83439	91.761515269378	0.75
11713	83504	91.821694524457	0.5
11713	84320	92.527714905328	0.125
11713	84666	92.827714905328	0.75
11713	85108	93.231427170316	0.5
11713	85161	93.283670823914	0.625
11713	85948	93.979098683369	0.5
11713	86161	94.179098683369	0.875
11713	86531	94.480235121461	0.75
11713	87294	95.081093811313	0.25
11713	87739	95.381093811313	0.75
11713	88060	95.597910857872	0.875
11713	88161	95.697775729899	0.875
11713	88572	96.000642330693	0.625
11713	89317	96.600642330693	0.375
11713	89847	97.010328065021	0.625
11713	89877	97.024132800068	0.625
11713	90624	97.633950039608	0.125
11713	90852	97.833950039608	0.875
11713	90993	97.954274457529	0.875
11713	91170	98.134302869011	0.75
11713	91232	98.168315624383	0.875
11713	91421	98.336563927659	0.875
11713	92164	98.931291401111	0.25
11713	93062	99.631391402111	0
11713	93493	100.031391402111	0.625
11713	94064	100.535664825423	0.5
11713	95337	101.737523260537	-0.625
11713	96108	102.441321749017	0.25
11713	96325	102.650869109672	0.875
11713	96851	103.168255539796	0.375
11713	96887	103.198124123977	0.5
11713	97411	103.703742425961	0.375
11713	98571	104.903742425961	-0.5
11713	99189	105.415322027254	0.5
11713	100009	106.021039206286	0.25
11713	100229	106.183026242357	0.125
11713	100308	106.251005592402	0.375
11713	101646	107.451105593402	-0.625
11713	102250	107.951105593402	0.375
11713	102269	107.958409604127	1
11713	103356	108.758409604127	0
11713	103693	109.062703341161	0.75
11713	104028	109.371416374446	0.75
11713	104352	109.673110198237	0.75
11713	105145	110.38127588539	0.125
11713	105588	110.78127588539	0.625
11713	106281	111.235793855333	0.625
11713	107194	111.933894679076	0.75
11713	107426	112.135793855333	-0.125
11713	107564	112.239683246188	0.875
11713	108542	113.039683246188	0.125
11713	109198	113.546246154687	0.5
11713	109446	113.751838192494	0.875
11713	109954	114.157999352281	0.5
11713	110328	114.457999352281	0.75
11713	110686	114.72957445188	0.875
11713	111654	115.46711286991	-0.25
11713	112286	115.929766171008	-0.75
11713	112463	116.067604877935	0.375
11713	113276	116.677554642079	0.25
11713	113656	116.977554642079	0.75
11713	114564	117.694688779507	0.125
11713	115241	118.194688779507	0.375
11713	115929	118.701719484015	0.5
11713	116261	118.917161681036	0.375
11713	116831	119.399082361619	0.375
11713	117423	119.799915839372	0.375
11713	118942	121.099915839372	-0.5
11713	119566	121.605188042066	0.5
11713	120099	122.107199878612	0.5
11713	120582	122.507317435701	0.5
11713	120896	122.707317435701	0.875
11713	121159	122.911047453336	0.875
11713	121513	123.220719194785	0.75
11713	121706	123.429808875657	0.875
11713	121863	123.630877690985	0.875
11713	121873	123.635152864046	0.875
11713	122240	124.002268933483	-0.125
11713	122508	124.241171682194	0.375
11713	122912	124.644424290279	0.5
11713	123565	125.244424290279	0.375
11713	124093	125.695529657309	0.625
11713	124250	125.8460393849	0.25
11713	124486	125.998576033159	0.75
11713	125162	126.498676034159	0.375
11713	125521	126.798676034159	0.75
11713	125703	126.901733917115	0.875
11713	125938	127.116705802082	0.875
11713	126121	127.283625978823	0.875
11713	127249	128.104462474851	0.375
11713	127535	128.404462474851	0.75
11713	128697	129.504642583242	-0.5
11713	128928	129.704833675514	0.875
11713	129983	130.500482547534	0.25
11713	130141	130.608449877742	1
11713	130379	130.806703294148	-0.375
11713	130506	130.916011645983	0.75
11713	131712	132.016011645983	-0.25
11713	132279	132.525875891964	0.5
11713	132487	132.726867133422	0.75
11713	133087	133.226867133422	0.5
11713	133725	133.729210663282	0.5
11713	133964	133.933551943493	0.875
11713	134102	134.040671000209	0.875
11713	135649	135.302363126398	0.375
11713	135686	135.340671000209	-0.75
11713	136226	135.810650826129	0.5
11713	136292	135.847655651064	0.5
11713	136704	136.148486722227	0.75
11714	31	20.000000001	0
11714	327	20.400000001	0.4
11714	514	20.706333804657	0.3
11714	908	21.209635681132	0.4
11714	999	21.308144043216	0.5
11714	1398	21.617214248181	0.3
11714	1646	21.910923178729	0.6
11714	1697	21.918112853916	0.7
11714	2515	22.626276630661	0.7
11714	3028	23.12690650493	0.3
11714	3223	23.326276630661	0.7
11714	3422	23.528621322356	0.2
11714	3624	23.731444701706	0.6
11714	3907	23.94018254337	0.2
11714	4718	24.64018254337	0.7
11714	5355	25.14028254437	0.5
11714	5725	25.44028254437	0.3
11714	7319	26.832288388514	1.3
11714	7344	26.840911379753	1.4
11714	7492	26.944627577997	0.1
11714	7499	26.947661548192	0.1
11714	8146	27.44085460014	0.6
11714	9615	28.648534485368	1.2
11714	9971	28.948534485368	0.3
11714	10779	29.65613035949	0.7
11714	11159	30.063828366178	0.4
11714	11281	30.17647069048	0.3
11714	11723	30.5730721341	0.5
11714	11746	30.580493336143	0.4
11714	11806	30.609853943161	0.3
11714	11932	30.713497703954	0.1
11714	12384	31.113497703954	0.4
11714	13146	31.717636226896	0.6
11714	14024	32.430937967365	0.7
11714	14951	33.139751717594	0.7
11714	15846	33.921107229683	0.6
11714	16513	34.633999738775	0.7
11714	16850	34.942630490585	0.3
11714	17185	35.261704438627	0.3
11714	17666	35.619007868366	0.2
11714	18229	35.975964393895	0.7
11714	18234	35.978593189686	0.7
11714	18241	36.018176345941	0.3
11714	19097	36.727634636313	0.7
11714	19701	37.327634636313	0.6
11714	20357	37.934838541164	0.6
11714	20433	37.964962794115	0.6
11714	20507	38.052444213273	0.4
11714	21366	38.754996761422	0.7
11714	22338	39.554996761422	0.8
11714	22696	39.856149029024	0.3
11714	23248	40.363984636354	0.5
11714	23638	40.669836104507	0.3
11714	24024	41.069836104507	0.4
11714	24439	41.472149961308	0.4
11714	24451	41.478300914053	0.4
11714	25545	42.504892912249	0.6
11714	26205	43.104892912249	0.6
11714	26841	43.680578974374	0.4
11714	27064	43.892713090896	0.2
11714	27081	43.908659802894	0.8
11714	27179	43.984835298673	0.2
11714	27419	44.188045540934	0.2
11714	28147	44.888045540934	0.7
11714	28658	45.492805030866	0.6
11714	29140	45.999317463288	0.5
11714	29392	46.201956234463	0.2
11714	29726	46.489013197379	0.4
11714	29958	46.694902802829	0.2
11714	31079	47.80654821669	0.4
11714	31355	48.00664821769	0.2
11714	32075	48.60664821769	0.6
11714	32491	48.91544776646	0.3
11714	32897	49.221392344122	0.3
11714	32930	49.236854305689	0.3
11714	33665	49.845197654544	0.6
11714	34182	50.245197654544	0.4
11714	34523	50.473094427519	0.2
11714	35003	50.906286737306	0.4
11714	35597	51.409836067531	0.5
11714	35924	51.668886025211	1
11714	36074	51.820515998316	0.4
11714	36364	52.073225981521	0.4
11714	37917	53.373325982521	1.3
11714	38150	53.573325982521	0.2
11714	38536	53.88124071781	0.3
11714	38816	54.08124071781	0.2
11714	39173	54.387441117253	0.3
11714	39270	54.464566495519	0.3
11714	39948	55.097403220764	0.7
11714	40887	55.901981979783	0.8
11714	41178	56.141869802205	0.2
11714	41996	56.857388266119	0.7
11714	42037	56.884582762724	0.6
11714	42056	56.887239381784	0
11714	42161	56.987239381784	0.1
11714	42813	57.59594244219	0.6
11714	43785	58.403537144341	0.8
11714	44144	58.703537144341	0.3
11714	44899	59.410182934371	0.2
11714	45029	59.507154277773	0.8
11714	46178	60.415023151414	0.9
11714	46770	60.815023151414	0.4
11714	47194	61.118547734571	0.3
11714	47208	61.119630426919	0.3
11714	47454	61.322709332263	0.2
11714	47457	61.32400939507	0.2
11714	48068	61.92410939607	0.6
11714	48366	62.22410939607	0.3
11714	48606	62.430769685368	0.2
11714	49292	63.101770254258	0.3
11714	49511	63.310954144879	0.2
11714	49652	63.420211587598	0.1
11714	50083	63.830454135253	0.4
11714	50559	64.230554136253	0.4
11714	51031	64.630554136253	0.4
11714	51621	65.115249591206	0.2
11714	51789	65.230807398949	0.6
11714	51979	65.333306608562	0.1
11714	52769	66.033306608562	0.7
11714	53133	66.341958872022	0.3
11714	53522	66.644631879618	0.3
11714	54132	67.071709347495	0.5
11714	54462	67.346983979877	0.7
11714	54692	67.548678946415	0.2
11714	55193	67.976245662055	0.9
11714	55749	68.476345663055	0.5
11714	56104	68.776345663055	0.3
11714	56314	68.963476622803	0.3
11714	56900	69.463576623803	0.5
11714	57135	69.663576623803	0.2
11714	57549	70.071429637876	0.4
11714	57789	70.274670854751	0.2
11714	58104	70.509418246751	0.3
11714	58170	70.597073167127	0.3
11714	58762	71.104422046929	0.5
11714	59385	71.704422046929	0.6
11714	59773	72.084202529069	0.2
11714	59815	72.107957913384	0.4
11714	59991	72.290104896242	0.2
11714	60703	72.894545951113	0.6
11714	61066	73.198730248577	0.3
11714	61893	73.8998685671	0.7
11714	62424	74.309125661208	0.4
11714	62793	74.619035462792	0.6
11714	63320	75.019135463792	0.4
11714	65612	76.854461864882	1.3
11714	66054	77.168621856736	0.3
11714	66320	77.378015337882	0.2
11714	67384	78.28435494322	0.9
11714	67758	78.594429353744	0.3
11714	68748	79.294529354744	0.7
11714	70628	80.894529354744	1.6
11714	71106	81.311348260405	0.4
11714	71547	81.719112556402	0.4
11714	72144	82.221765274285	0.5
11714	72362	82.421765274285	0.2
11714	73962	83.648853781898	0.6
11714	74286	83.848853781898	0.2