file 891353 1369516711                                          
version 2
run Stability-norelink-67-20130525-23:18:27-22103
attr configname Stability-norelink
attr datetime 20130525-23:18:27
attr experiment Stability
attr inifile omnetpp.ini
attr iterationvars $0=1e0
attr iterationvars2 "$0=1e0, $repetition=7"
attr measurement $0=1e0
attr network Network
attr processid 22103
attr repetition 7
attr replication #7
attr resultdir results
attr runnumber 67
attr seedset 67

vector 6435  Network.dyn_peer[1]  lookupHopsSig:vector  ETV
vector 6436  Network.dyn_peer[1]  lookupStabilitySig:vector  ETV
vector 6437  Network.dyn_peer[1]  lookupTimeSig:vector  ETV
vector 6444  Network.dyn_peer[4]  lookupHopsSig:vector  ETV
vector 6445  Network.dyn_peer[4]  lookupStabilitySig:vector  ETV
vector 6446  Network.dyn_peer[4]  lookupTimeSig:vector  ETV
vector 6477  Network.dyn_peer[15]  lookupHopsSig:vector  ETV
vector 6478  Network.dyn_peer[15]  lookupStabilitySig:vector  ETV
vector 6479  Network.dyn_peer[15]  lookupTimeSig:vector  ETV
vector 6489  Network.dyn_peer[19]  lookupHopsSig:vector  ETV
vector 6490  Network.dyn_peer[19]  lookupStabilitySig:vector  ETV
vector 6491  Network.dyn_peer[19]  lookupTimeSig:vector  ETV
vector 6501  Network.dyn_peer[23]  lookupHopsSig:vector  ETV
vector 6502  Network.dyn_peer[23]  lookupStabilitySig:vector  ETV
vector 6503  Network.dyn_peer[23]  lookupTimeSig:vector  ETV
vector 6510  Network.dyn_peer[26]  lookupHopsSig:vector  ETV
vector 6511  Network.dyn_peer[26]  lookupStabilitySig:vector  ETV
vector 6512  Network.dyn_peer[26]  lookupTimeSig:vector  ETV
vector 6519  Network.dyn_peer[29]  lookupHopsSig:vector  ETV
vector 6520  Network.dyn_peer[29]  lookupStabilitySig:vector  ETV
vector 6521  Network.dyn_peer[29]  lookupTimeSig:vector  ETV
vector 6432  Network.dyn_peer[0]  lookupHopsSig:vector  ETV
vector 6433  Network.dyn_peer[0]  lookupStabilitySig:vector  ETV
vector 6434  Network.dyn_peer[0]  lookupTimeSig:vector  ETV
vector 6441  Network.dyn_peer[3]  lookupHopsSig:vector  ETV
vector 6442  Network.dyn_peer[3]  lookupStabilitySig:vector  ETV
vector 6443  Network.dyn_peer[3]  lookupTimeSig:vector  ETV
vector 6447  Network.dyn_peer[5]  lookupHopsSig:vector  ETV
vector 6448  Network.dyn_peer[5]  lookupStabilitySig:vector  ETV
vector 6449  Network.dyn_peer[5]  lookupTimeSig:vector  ETV
vector 6474  Network.dyn_peer[14]  lookupHopsSig:vector  ETV
vector 6475  Network.dyn_peer[14]  lookupStabilitySig:vector  ETV
vector 6476  Network.dyn_peer[14]  lookupTimeSig:vector  ETV
vector 6483  Network.dyn_peer[17]  lookupHopsSig:vector  ETV
vector 6484  Network.dyn_peer[17]  lookupStabilitySig:vector  ETV
vector 6485  Network.dyn_peer[17]  lookupTimeSig:vector  ETV
vector 6513  Network.dyn_peer[27]  lookupHopsSig:vector  ETV
vector 6514  Network.dyn_peer[27]  lookupStabilitySig:vector  ETV
vector 6515  Network.dyn_peer[27]  lookupTimeSig:vector  ETV
vector 6516  Network.dyn_peer[28]  lookupHopsSig:vector  ETV
vector 6517  Network.dyn_peer[28]  lookupStabilitySig:vector  ETV
vector 6518  Network.dyn_peer[28]  lookupTimeSig:vector  ETV
vector 6522  Network.dyn_peer[30]  lookupHopsSig:vector  ETV
vector 6523  Network.dyn_peer[30]  lookupStabilitySig:vector  ETV
vector 6524  Network.dyn_peer[30]  lookupTimeSig:vector  ETV
vector 6438  Network.dyn_peer[2]  lookupHopsSig:vector  ETV
vector 6439  Network.dyn_peer[2]  lookupStabilitySig:vector  ETV
vector 6440  Network.dyn_peer[2]  lookupTimeSig:vector  ETV
vector 6450  Network.dyn_peer[6]  lookupHopsSig:vector  ETV
vector 6451  Network.dyn_peer[6]  lookupStabilitySig:vector  ETV
vector 6452  Network.dyn_peer[6]  lookupTimeSig:vector  ETV
vector 6453  Network.dyn_peer[7]  lookupHopsSig:vector  ETV
vector 6454  Network.dyn_peer[7]  lookupStabilitySig:vector  ETV
vector 6455  Network.dyn_peer[7]  lookupTimeSig:vector  ETV
vector 6459  Network.dyn_peer[9]  lookupHopsSig:vector  ETV
vector 6460  Network.dyn_peer[9]  lookupStabilitySig:vector  ETV
vector 6461  Network.dyn_peer[9]  lookupTimeSig:vector  ETV
vector 6468  Network.dyn_peer[12]  lookupHopsSig:vector  ETV
vector 6469  Network.dyn_peer[12]  lookupStabilitySig:vector  ETV
vector 6470  Network.dyn_peer[12]  lookupTimeSig:vector  ETV
vector 6480  Network.dyn_peer[16]  lookupHopsSig:vector  ETV
vector 6481  Network.dyn_peer[16]  lookupStabilitySig:vector  ETV
vector 6482  Network.dyn_peer[16]  lookupTimeSig:vector  ETV
vector 6495  Network.dyn_peer[21]  lookupHopsSig:vector  ETV
vector 6496  Network.dyn_peer[21]  lookupStabilitySig:vector  ETV
vector 6497  Network.dyn_peer[21]  lookupTimeSig:vector  ETV
vector 6504  Network.dyn_peer[24]  lookupHopsSig:vector  ETV
vector 6505  Network.dyn_peer[24]  lookupStabilitySig:vector  ETV
vector 6506  Network.dyn_peer[24]  lookupTimeSig:vector  ETV
vector 6525  Network.dyn_peer[31]  lookupHopsSig:vector  ETV
vector 6526  Network.dyn_peer[31]  lookupStabilitySig:vector  ETV
vector 6527  Network.dyn_peer[31]  lookupTimeSig:vector  ETV
vector 6456  Network.dyn_peer[8]  lookupHopsSig:vector  ETV
vector 6457  Network.dyn_peer[8]  lookupStabilitySig:vector  ETV
vector 6458  Network.dyn_peer[8]  lookupTimeSig:vector  ETV
vector 6465  Network.dyn_peer[11]  lookupHopsSig:vector  ETV
vector 6466  Network.dyn_peer[11]  lookupStabilitySig:vector  ETV
vector 6467  Network.dyn_peer[11]  lookupTimeSig:vector  ETV
vector 6486  Network.dyn_peer[18]  lookupHopsSig:vector  ETV
vector 6487  Network.dyn_peer[18]  lookupStabilitySig:vector  ETV
vector 6488  Network.dyn_peer[18]  lookupTimeSig:vector  ETV
vector 6492  Network.dyn_peer[20]  lookupHopsSig:vector  ETV
vector 6493  Network.dyn_peer[20]  lookupStabilitySig:vector  ETV
vector 6494  Network.dyn_peer[20]  lookupTimeSig:vector  ETV
vector 6507  Network.dyn_peer[25]  lookupHopsSig:vector  ETV
vector 6508  Network.dyn_peer[25]  lookupStabilitySig:vector  ETV
vector 6509  Network.dyn_peer[25]  lookupTimeSig:vector  ETV
vector 6498  Network.dyn_peer[22]  lookupHopsSig:vector  ETV
vector 6499  Network.dyn_peer[22]  lookupStabilitySig:vector  ETV
vector 6500  Network.dyn_peer[22]  lookupTimeSig:vector  ETV
vector 6462  Network.dyn_peer[10]  lookupHopsSig:vector  ETV
vector 6463  Network.dyn_peer[10]  lookupStabilitySig:vector  ETV
vector 6464  Network.dyn_peer[10]  lookupTimeSig:vector  ETV
vector 6471  Network.dyn_peer[13]  lookupHopsSig:vector  ETV
vector 6472  Network.dyn_peer[13]  lookupStabilitySig:vector  ETV
vector 6473  Network.dyn_peer[13]  lookupTimeSig:vector  ETV
6432	6396 8626 151 135555 20.101 133.865879771906 293 0 22 1249 9197
6433	15022 9593 151 135555 20.101 133.865879771906 293 -1.75 1 136.875 124.453125
6434	24615 9160 151 135555 20.101 133.865879771906 293 0 2 139.2 97.34
6435	33775 8646 32 135416 20.002 133.730033233486 296 0 21 1215 7633
6436	42421 9625 32 135416 20.002 133.730033233486 296 -1.625 1 144.16666666418 111.58256172435
6437	52046 9203 32 135416 20.002 133.730033233486 296 0 2.1 134.7 82.45
6438	61249 8470 220 136283 20.203 134.526283198992 288 0 18 1192 7312
6439	69719 9440 220 136283 20.203 134.526283198992 288 -1.25 1 139.09722220898 104.28375771016
6440	79159 9015 220 136283 20.203 134.526283198992 288 0 1.5 133 79.82
6441	88174 8122 158 136400 20.104 134.716415444668 277 0 17 1159 7183
6442	96296 9032 158 136400 20.104 134.716415444668 277 -1.125 1 132.22222219408 99.583719109679
6443	105328 8640 158 136400 20.104 134.716415444668 277 0 1.3 129.4 76.92
6444	113968 8629 45 136631 20.005 135.346032584202 294 0 20 1197 7613
6445	122597 9584 45 136631 20.005 135.346032584202 294 -1.5 1 144.40277777612 113.74556326903
6446	132181 9186 45 136631 20.005 135.346032584202 294 0 1.8 135.2 84.46
6447	141367 8381 164 135541 20.106 133.855342844489 285 0 19 1223 8117
6448	149748 9294 164 135541 20.106 133.855342844489 285 -1.375 1 132.15277777612 106.12056326903
6449	159042 8912 164 135541 20.106 133.855342844489 285 0 1.7 136.6 88.48
6450	167954 8410 227 135142 20.207 133.432840069989 286 0 27 1265 9725
6451	176364 9337 227 135142 20.207 133.432840069989 286 -2.375 1 127.875 121.703125
6452	185701 8942 227 135142 20.207 133.432840069989 286 0 2.2 139.3 97.97
6453	194643 8752 232 135820 20.208 134.107729202578 298 0 19 1285 8629
6454	203395 9725 232 135820 20.208 134.107729202578 298 -1.375 1 137.47222220898 111.61188271016
6455	213120 9325 232 135820 20.208 134.107729202578 298 0 1.8 143.1 93.75
6456	222445 8736 299 135437 20.309 133.735728833255 297 0 24 1218 7822
6457	231181 9701 299 135437 20.309 133.735728833255 297 -2 1 144.75 114.71875
6458	240882 9297 299 135437 20.309 133.735728833255 297 0 2.1 137.5 86.99
6459	250179 8178 238 135361 20.21 133.696948920166 278 0 17 1256 8916
6460	258357 9094 238 135361 20.21 133.696948920166 278 -1.125 1 121 103.3125
6461	267451 8682 238 135361 20.21 133.696948920166 278 0 1.7 139 97.16
6462	276133 9118 416 135583 20.511 133.888693306392 311 0 17 1354 8734
6463	285251 10130 416 135583 20.511 133.888693306392 311 -1.125 1 141.75 108.96875
6464	295381 9693 416 135583 20.511 133.888693306392 311 0 1.6 151.9 98.03
6465	305074 8645 307 136454 20.312 134.789384682819 293 0 17 1228 7950
6466	313719 9590 307 136454 20.312 134.789384682819 293 -1.125 1 139.5 110.21875
6467	323309 9199 307 136454 20.312 134.789384682819 293 0 1.6 137 86.5
6468	332508 8055 247 135968 20.213 134.232682826385 274 0 24 1237 8569
6469	340563 8937 247 135968 20.213 134.232682826385 274 -2 1 119.55555558205 98.44753084065
6470	349500 8559 247 135968 20.213 134.232682826385 274 0 2.1 137.2 91.88
6471	358059 8044 426 135229 20.514 133.524316955831 274 1 24 1280 9212
6472	366103 8951 426 135229 20.514 133.524316955831 274 -2 0.875 114 97.9375
6473	375054 8541 426 135229 20.514 133.524316955831 274 0.1 2.2 139.2 95.04
6474	383595 9487 179 135691 20.115 133.965717709728 323 0 19 1349 8489
6475	393082 10520 179 135691 20.115 133.965717709728 323 -1.375 1 154.375 118.390625
6476	403602 10103 179 135691 20.115 133.965717709728 323 0 1.9 152.2 94.58
6477	413705 7713 82 136117 20.016 134.406592122492 263 0 21 1213 9083
6478	421418 8630 82 136117 20.016 134.406592122492 263 -1.625 1 111.44444443285 101.77469134184
6479	430048 8189 82 136117 20.016 134.406592122492 263 0 1.9 132.4 93.8
6480	438237 9343 254 136436 20.217 134.733681765622 317 0 21 1221 7597
6481	447580 10412 254 136436 20.217 134.733681765622 317 -1.625 1 164.55555553734 130.58796295082
6482	457992 9941 254 136436 20.217 134.733681765622 317 0 1.9 138 83.88
6483	467933 9235 186 135948 20.118 134.21682291547 315 0 18 1241 7663
6484	477168 10274 186 135948 20.118 134.21682291547 315 -1.25 1 159.91666665673 124.5381944312
6485	487442 9818 186 135948 20.118 134.21682291547 315 0 1.5 142.3 87.43
6486	497260 9487 320 136223 20.319 134.501984009301 323 0 18 1213 7075
6487	506747 10576 320 136223 20.319 134.501984009301 323 -1.25 1 171.58333328366 130.44135798201
6488	517323 10095 320 136223 20.319 134.501984009301 323 0 1.4 137.1 77.19
6489	527418 8163 98 135375 20.02 133.705472479084 278 0 23 1225 8401
6490	535581 9081 98 135375 20.02 133.705472479084 278 -1.875 1 124.875 103.015625
6491	544662 8670 98 135375 20.02 133.705472479084 278 0 2.2 135.8 91.58
6492	553332 9212 329 136546 20.321 134.997007676471 314 0 16 1205 7503
6493	562544 10264 329 136546 20.321 134.997007676471 314 -1 1 163.47222219408 130.08371910968
6494	572808 9799 329 136546 20.321 134.997007676471 314 0 1.5 136.5 83.31
6495	582607 9378 265 136231 20.222 134.505055199334 319 0 16 1227 7139
6496	591985 10412 265 136231 20.222 134.505055199334 319 -1 1 165.625 123.796875
6497	602397 9981 265 136231 20.222 134.505055199334 319 0 1.5 138.9 79.27
6498	612378 8318 386 136139 20.423 134.41505602286 282 0 19 1340 9452
6499	620696 9241 386 136139 20.423 134.41505602286 282 -1.375 1 114.59722220898 94.721257710163
6500	629937 8845 386 136139 20.423 134.41505602286 282 0.1 1.7 145.5 98.91
6501	638782 8728 114 135963 20.024 134.22910324259 297 0 21 1241 8379
6502	647510 9694 114 135963 20.024 134.22910324259 297 -1.625 1 141.875 117.671875
6503	657204 9289 114 135963 20.024 134.22910324259 297 0 1.9 138.6 89.92
6504	666493 8047 272 136603 20.225 135.177154812723 273 0 26 1305 9797
6505	674540 8942 272 136603 20.225 135.177154812723 273 -2.25 1 109.88888888806 99.852623455318
6506	683482 8538 272 136603 20.225 135.177154812723 273 0 2.2 141.8 99.88
6507	692020 8873 341 134707 20.326 133.089463847907 301 0 21 1258 8318
6508	700893 9846 341 134707 20.326 133.089463847907 301 -1.625 1 143.84722220898 116.50250771016
6509	710739 9429 341 134707 20.326 133.089463847907 301 0 1.9 140.2 89.84
6510	720168 9295 127 136648 20.027 135.441541270329 316 0 21 1296 8638
6511	729463 10355 127 136648 20.027 135.441541270329 316 -1.625 1 154.06944441795 127.02565584065
6512	739818 9883 127 136648 20.027 135.441541270329 316 0 1.9 145.3 92.83
6513	749701 8852 201 136513 20.128 134.897007676471 302 0 25 1292 8318
6514	758553 9852 201 136513 20.128 134.897007676471 302 -2.125 1 140.5 108.96875
6515	768405 9412 201 136513 20.128 134.897007676471 302 0 2.2 143.6 90.46
6516	777817 8709 206 136204 20.129 134.496907676471 297 0 25 1277 8963
6517	786526 9675 206 136204 20.129 134.496907676471 297 -2.125 1 137.5 117.78125
6518	796201 9266 206 136204 20.129 134.496907676471 297 0 2 140.6 92.46
6519	805467 9033 140 136322 20.03 134.591119581009 307 0 17 1264 8094
6520	814500 10090 140 136322 20.03 134.591119581009 307 -1.125 1 149.02777777612 117.51118826903
6521	824590 9601 140 136322 20.03 134.591119581009 307 0 1.7 140.6 88.64
6522	834191 9468 212 136190 20.131 134.48392458642 322 0 18 1280 7842
6523	843659 10520 212 136190 20.131 134.48392458642 322 -1.25 1 162.04166665673 124.5850694312
6524	854179 10076 212 136190 20.131 134.48392458642 322 0 1.7 144.9 88.73
6525	864255 8540 284 136061 20.232 134.320917768705 291 0 19 1197 7613
6526	872795 9467 284 136061 20.232 134.320917768705 291 -1.375 1 141.375 110.703125
6527	882262 9091 284 136061 20.232 134.320917768705 291 0 1.6 134 81.66
