version 2
run Stability-norelink-103-20130525-23:20:53-22103
attr configname Stability-norelink
attr datetime 20130525-23:20:53
attr experiment Stability
attr inifile omnetpp.ini
attr iterationvars $0=1e-4
attr iterationvars2 "$0=1e-4, $repetition=3"
attr measurement $0=1e-4
attr network Network
attr processid 22103
attr repetition 3
attr replication #3
attr resultdir results
attr runnumber 103
attr seedset 103

vector 9891  Network.dyn_peer[1]  lookupHopsSig:vector  ETV
vector 9892  Network.dyn_peer[1]  lookupStabilitySig:vector  ETV
vector 9893  Network.dyn_peer[1]  lookupTimeSig:vector  ETV
vector 9924  Network.dyn_peer[12]  lookupHopsSig:vector  ETV
vector 9925  Network.dyn_peer[12]  lookupStabilitySig:vector  ETV
vector 9926  Network.dyn_peer[12]  lookupTimeSig:vector  ETV
vector 9927  Network.dyn_peer[13]  lookupHopsSig:vector  ETV
vector 9928  Network.dyn_peer[13]  lookupStabilitySig:vector  ETV
vector 9929  Network.dyn_peer[13]  lookupTimeSig:vector  ETV
vector 9954  Network.dyn_peer[22]  lookupHopsSig:vector  ETV
vector 9955  Network.dyn_peer[22]  lookupStabilitySig:vector  ETV
vector 9956  Network.dyn_peer[22]  lookupTimeSig:vector  ETV
vector 9888  Network.dyn_peer[0]  lookupHopsSig:vector  ETV
vector 9889  Network.dyn_peer[0]  lookupStabilitySig:vector  ETV
vector 9890  Network.dyn_peer[0]  lookupTimeSig:vector  ETV
vector 9900  Network.dyn_peer[4]  lookupHopsSig:vector  ETV
vector 9901  Network.dyn_peer[4]  lookupStabilitySig:vector  ETV
vector 9902  Network.dyn_peer[4]  lookupTimeSig:vector  ETV
vector 9903  Network.dyn_peer[5]  lookupHopsSig:vector  ETV
vector 9904  Network.dyn_peer[5]  lookupStabilitySig:vector  ETV
vector 9905  Network.dyn_peer[5]  lookupTimeSig:vector  ETV
vector 9912  Network.dyn_peer[8]  lookupHopsSig:vector  ETV
vector 9913  Network.dyn_peer[8]  lookupStabilitySig:vector  ETV
vector 9914  Network.dyn_peer[8]  lookupTimeSig:vector  ETV
vector 9921  Network.dyn_peer[11]  lookupHopsSig:vector  ETV
vector 9922  Network.dyn_peer[11]  lookupStabilitySig:vector  ETV
vector 9923  Network.dyn_peer[11]  lookupTimeSig:vector  ETV
vector 9930  Network.dyn_peer[14]  lookupHopsSig:vector  ETV
vector 9931  Network.dyn_peer[14]  lookupStabilitySig:vector  ETV
vector 9932  Network.dyn_peer[14]  lookupTimeSig:vector  ETV
vector 9942  Network.dyn_peer[18]  lookupHopsSig:vector  ETV
vector 9943  Network.dyn_peer[18]  lookupStabilitySig:vector  ETV
vector 9944  Network.dyn_peer[18]  lookupTimeSig:vector  ETV
vector 9945  Network.dyn_peer[19]  lookupHopsSig:vector  ETV
vector 9946  Network.dyn_peer[19]  lookupStabilitySig:vector  ETV
vector 9947  Network.dyn_peer[19]  lookupTimeSig:vector  ETV
vector 9960  Network.dyn_peer[24]  lookupHopsSig:vector  ETV
vector 9961  Network.dyn_peer[24]  lookupStabilitySig:vector  ETV
vector 9962  Network.dyn_peer[24]  lookupTimeSig:vector  ETV
vector 9978  Network.dyn_peer[30]  lookupHopsSig:vector  ETV
vector 9979  Network.dyn_peer[30]  lookupStabilitySig:vector  ETV
vector 9980  Network.dyn_peer[30]  lookupTimeSig:vector  ETV
vector 9897  Network.dyn_peer[3]  lookupHopsSig:vector  ETV
vector 9898  Network.dyn_peer[3]  lookupStabilitySig:vector  ETV
vector 9899  Network.dyn_peer[3]  lookupTimeSig:vector  ETV
vector 9909  Network.dyn_peer[7]  lookupHopsSig:vector  ETV
vector 9910  Network.dyn_peer[7]  lookupStabilitySig:vector  ETV
vector 9911  Network.dyn_peer[7]  lookupTimeSig:vector  ETV
vector 9933  Network.dyn_peer[15]  lookupHopsSig:vector  ETV
vector 9934  Network.dyn_peer[15]  lookupStabilitySig:vector  ETV
vector 9935  Network.dyn_peer[15]  lookupTimeSig:vector  ETV
vector 9948  Network.dyn_peer[20]  lookupHopsSig:vector  ETV
vector 9949  Network.dyn_peer[20]  lookupStabilitySig:vector  ETV
vector 9950  Network.dyn_peer[20]  lookupTimeSig:vector  ETV
vector 9963  Network.dyn_peer[25]  lookupHopsSig:vector  ETV
vector 9964  Network.dyn_peer[25]  lookupStabilitySig:vector  ETV
vector 9965  Network.dyn_peer[25]  lookupTimeSig:vector  ETV
vector 9966  Network.dyn_peer[26]  lookupHopsSig:vector  ETV
vector 9967  Network.dyn_peer[26]  lookupStabilitySig:vector  ETV
vector 9968  Network.dyn_peer[26]  lookupTimeSig:vector  ETV
vector 9969  Network.dyn_peer[27]  lookupHopsSig:vector  ETV
vector 9970  Network.dyn_peer[27]  lookupStabilitySig:vector  ETV
vector 9971  Network.dyn_peer[27]  lookupTimeSig:vector  ETV
vector 9981  Network.dyn_peer[31]  lookupHopsSig:vector  ETV
vector 9982  Network.dyn_peer[31]  lookupStabilitySig:vector  ETV
vector 9983  Network.dyn_peer[31]  lookupTimeSig:vector  ETV
vector 9894  Network.dyn_peer[2]  lookupHopsSig:vector  ETV
vector 9895  Network.dyn_peer[2]  lookupStabilitySig:vector  ETV
vector 9896  Network.dyn_peer[2]  lookupTimeSig:vector  ETV
vector 9918  Network.dyn_peer[10]  lookupHopsSig:vector  ETV
vector 9919  Network.dyn_peer[10]  lookupStabilitySig:vector  ETV
vector 9920  Network.dyn_peer[10]  lookupTimeSig:vector  ETV
vector 9936  Network.dyn_peer[16]  lookupHopsSig:vector  ETV
vector 9937  Network.dyn_peer[16]  lookupStabilitySig:vector  ETV
vector 9938  Network.dyn_peer[16]  lookupTimeSig:vector  ETV
vector 9951  Network.dyn_peer[21]  lookupHopsSig:vector  ETV
vector 9952  Network.dyn_peer[21]  lookupStabilitySig:vector  ETV
vector 9953  Network.dyn_peer[21]  lookupTimeSig:vector  ETV
vector 9975  Network.dyn_peer[29]  lookupHopsSig:vector  ETV
vector 9976  Network.dyn_peer[29]  lookupStabilitySig:vector  ETV
vector 9977  Network.dyn_peer[29]  lookupTimeSig:vector  ETV
vector 9906  Network.dyn_peer[6]  lookupHopsSig:vector  ETV
vector 9907  Network.dyn_peer[6]  lookupStabilitySig:vector  ETV
vector 9908  Network.dyn_peer[6]  lookupTimeSig:vector  ETV
vector 9939  Network.dyn_peer[17]  lookupHopsSig:vector  ETV
vector 9940  Network.dyn_peer[17]  lookupStabilitySig:vector  ETV
vector 9941  Network.dyn_peer[17]  lookupTimeSig:vector  ETV
vector 9915  Network.dyn_peer[9]  lookupHopsSig:vector  ETV
vector 9916  Network.dyn_peer[9]  lookupStabilitySig:vector  ETV
vector 9917  Network.dyn_peer[9]  lookupTimeSig:vector  ETV
vector 9957  Network.dyn_peer[23]  lookupHopsSig:vector  ETV
vector 9958  Network.dyn_peer[23]  lookupStabilitySig:vector  ETV
vector 9959  Network.dyn_peer[23]  lookupTimeSig:vector  ETV
vector 9972  Network.dyn_peer[28]  lookupHopsSig:vector  ETV
vector 9973  Network.dyn_peer[28]  lookupStabilitySig:vector  ETV
vector 9974  Network.dyn_peer[28]  lookupTimeSig:vector  ETV
9888	140	20.1000001	1
9888	277	20.3000001	1
9888	916	21.206899076755	8
9888	1516	21.706999176755	5
9888	1859	22.006999176755	2
9888	2655	22.708080270507	7
9888	2678	22.712919326475	2
9888	3159	23.118323070565	4
9888	4985	24.624174827247	2
9888	5239	24.818323070565	18
9888	5274	24.829803701378	1
9888	5767	25.231667108972	3
9888	5778	25.235406964118	3
9888	6612	26.037212556402	9
9888	7764	27.037212556402	10
9888	8191	27.441395237105	7
9888	8658	27.847992264289	3
9888	8952	28.051735023013	1
9888	8965	28.053028680091	1
9888	9319	28.361094757427	2
9888	9321	28.361112063084	2
9888	9418	28.442035311185	12
9888	9777	28.676268693563	3
9888	9971	28.862362219434	4
9888	9979	28.866128659233	4
9888	10110	28.966624850936	1
9888	11411	30.066624850936	10
9888	11571	30.179434389548	1
9888	11807	30.382656060184	2
9888	11999	30.581710598961	3
9888	12440	30.984311644845	3
9888	12498	30.998479463686	2
9888	13032	31.500275489011	5
9888	13891	32.300275489011	8
9888	14383	32.7069700443	3
9888	14661	32.916165697928	1
9888	14918	33.116997954501	1
9888	15495	33.516997954501	5
9888	16153	34.020737202353	5
9888	16193	34.03762217431	4
9888	16418	34.22877184321	1
9888	16761	34.533828241128	3
9888	17600	35.333828241128	7
9888	18285	35.926963574477	7
9888	18611	36.232783003095	2
9888	18673	36.292979503095	6
9888	18833	36.478706592364	5
9888	18932	36.535754011601	2
9888	19064	36.643200237683	15
9888	19066	36.64338487167	15
9888	19392	36.947857950937	3
9888	19607	37.147857950937	1
9888	20266	37.748337694499	5
9888	20624	38.049284185526	2
9888	21148	38.449384285526	5
9888	21725	38.957036547621	4
9888	22077	39.263929755824	2
9888	22265	39.446760467203	2
9888	22528	39.653664598718	2
9888	22986	40.053664598718	3
9888	23130	40.160138868164	1
9888	23541	40.460138868164	2
9888	24698	41.363782070899	8
9888	24818	41.456276130513	2
9888	25108	41.672585294684	3
9888	25193	41.76617403278	3
9888	25324	41.866813613346	1
9888	25696	42.166813613346	3
9888	25854	42.219534213692	0
9888	26125	42.419534213692	1
9888	27078	43.129064157318	7
9888	27315	43.335686494125	1
9888	27351	43.381210121117	4
9888	27581	43.544504078304	2
9888	27841	43.747713792751	1
9888	28477	44.149636320873	3
9888	29372	44.854887872463	7
9888	29642	45.054887872463	2
9888	30502	45.858847986926	7
9888	30507	45.873423731573	7
9888	30751	46.074024637924	3
9888	31154	46.474024637924	3
9888	31408	46.681720645821	1
9888	31889	47.060962516111	2
9888	33032	47.970700682176	10
9888	33486	48.291476768844	1
9888	33592	48.370700682176	3
9888	34477	49.170800782176	8
9888	35087	49.770800782176	6
9888	35710	50.379720982375	5
9888	36357	50.881795588693	4
9888	36360	50.883512041844	4
9888	36824	51.284885235788	3
9888	38364	52.684985335788	16
9888	38984	53.284985335788	5
9888	39495	53.714227579209	5
9888	39790	53.951883873155	4
9888	39870	54.015733270245	2
9888	40397	54.425127313818	4
9888	41024	55.027416277012	5
9888	41029	55.030091831519	2
9888	41217	55.212789234475	5
9888	41404	55.386279897535	3
9888	41668	55.592108804765	2
9888	42171	55.992108804765	3
9888	42543	56.293872810033	2
9888	42616	56.324041511032	4
9888	43270	56.825857089458	5
9888	44016	57.425857089458	5
9888	44646	57.937765550071	4
9888	44862	58.140159778012	1
9888	46090	59.150197139934	10
9888	46618	59.650197139934	4
9888	47044	60.052354877998	3
9888	47291	60.262481928274	3
9888	47521	60.466206856895	1
9888	48094	60.955856803652	8
9888	48123	60.968171600302	4
9888	48381	61.171306581848	2
9888	48673	61.371306581848	1
9888	49539	62.064493517548	5
9888	49664	62.173564255749	9
9888	49687	62.191110149858	9
9888	50880	63.200086999051	10
9888	51414	63.600086999051	4
9888	51803	63.906973300866	2
9888	52461	64.412390271907	4
9888	52540	64.485249971651	6
9888	53053	64.888551739156	4
9888	54411	66.082599204799	9
9888	55096	66.682599204799	5
9888	55605	67.183001507825	4
9888	56094	67.568564077383	2
9888	56103	67.584408288469	4
9888	56119	67.59872671951	2
9888	56409	67.875817759712	2
9888	56415	67.886631072949	2
9888	56426	67.902360759963	3
9888	56566	68.006226162282	1
9888	57019	68.406226162282	4
9888	57435	68.771107695597	1
9888	58065	69.318970594207	9
9888	58241	69.466774529639	5
9888	58360	69.571358499741	8
9888	58377	69.571851122024	0
9888	58904	69.971851122024	3
9888	59157	70.17625243807	1
9888	59975	70.881406484968	6
9888	60002	70.898696570429	6
9888	60885	71.611184329835	5
9888	61665	72.351524696695	3
9888	62542	73.151624796695	8
9888	62843	73.451624796695	2
9888	63098	73.651899487738	1
9888	63251	73.756335488203	1
9888	63407	73.863547046948	1
9888	64019	74.363547046948	5
9888	64669	74.871227619022	4
9888	64929	75.059531635478	5
9888	64973	75.079909849327	5
9888	65246	75.277902416875	4
9888	66021	75.978870363599	8
9888	66261	76.178870363599	1
9888	67027	76.795595297	5
9888	67256	76.982822996374	1
9888	67502	77.182822996374	1
9888	67946	77.587255852819	3
9888	68601	78.191562767401	5
9888	68680	78.263482017862	8
9888	69393	78.863582117862	6
9888	69652	79.169008506133	2
9888	70019	79.478411850076	2
9888	70247	79.686757701026	1
9888	70907	80.294883125326	6
9888	71183	80.594883125326	2
9888	72916	82.017162072198	10
9888	73522	82.517162072198	5
9888	73820	82.725459570752	2
9888	74083	82.930046210791	1
9888	74583	83.284994069084	5
9888	74963	83.588222937746	2
9888	74968	83.590979533842	3
9888	75250	83.791443630387	2
9888	76009	84.391443630387	5
9888	76868	85.096972416901	6
9888	77539	85.601188883363	4
9888	77828	85.877324397673	3
9888	78624	86.477424497673	7
9888	78871	86.677424497673	2
9888	79093	86.885551047777	1
9888	79553	87.393486793965	4
9888	80007	87.799470292636	4
9888	81030	88.608530714372	8
9888	81657	89.108530714372	4
9888	81927	89.313625334219	3
9888	82599	89.913725434219	6
9888	83044	90.313725434219	3
9888	84438	91.519824920868	13
9888	84800	91.785258078009	1
9888	84959	91.92091944997	4
9888	85306	92.186440065553	3
9888	85547	92.392233482764	2
9888	85809	92.592233482764	2
9888	86301	92.993922388841	4
9888	86537	93.226466628351	5
9888	86833	93.534131161552	2
9888	87390	94.034231261552	5
9888	87916	94.534231261552	4
9888	88092	94.739166683325	1
9888	88311	94.940900249917	1
9888	88767	95.344626010684	3
9888	89048	95.646578387762	2
9888	89618	96.255364006612	6
9888	90393	96.95717964059	6
9888	91091	97.558954202691	5
9888	91675	98.059486830343	4
9888	91834	98.198096974982	3
9888	92267	98.563622742322	4
9888	92304	98.605392565425	1
9888	92313	98.613175061133	4
9888	92609	98.818105181324	2
9888	93024	99.218105181324	3
9888	93130	99.317348393778	2
9888	94167	100.163047098015	6
9888	95281	101.263047098015	10
9888	95787	101.667688019987	5
9888	96602	102.18485496313	4
9888	97511	102.930980308984	6
9888	98012	103.390552135554	1
9888	98392	103.790652235554	4
9888	99054	104.390652235554	5
9888	99582	104.795546171351	4
9888	99900	105.012224587294	2
9888	100363	105.414982541761	9
9888	100370	105.421863167857	3
9888	101141	106.123124861905	7
9888	101573	106.523124861905	3
9888	101825	106.826902297063	2
9888	102054	107.037564057067	1
9888	103134	108.042869927974	10
9888	103480	108.342869927974	2
9888	104228	109.047044201914	6
9888	105131	109.873501148389	11
9888	105375	110.08184859551	1
9888	105927	110.490293274257	4
9888	106874	111.190293274257	7
9888	107422	111.599785235678	3
9888	108064	112.16113507376	7
9888	108225	112.301805793713	7
9888	108269	112.36113517376	1
9888	109285	113.263592104106	10
9888	109727	113.663592104106	3
9888	110985	114.68705526048	9
9888	111076	114.767655878434	12
9888	111433	115.077009457108	3
9888	112034	115.577009457108	4
9888	112515	115.982443242712	4
9888	113026	116.382443242712	4
9888	113590	116.788182037005	4
9888	114267	117.288282137005	5
9888	115074	117.888282137005	6
9888	115379	118.088382237005	2
9888	115777	118.406946032309	1
9888	115996	118.588382237005	4
9888	116113	118.709495353459	2
9888	116351	118.917519731437	1
9888	116605	119.123761514641	1
9888	117309	119.723861614641	6
9888	118092	120.323861614641	5
9888	118903	120.964871962653	3
9888	119587	121.464871962653	4
9888	120051	121.868459934322	3
9888	120409	122.168560034322	3
9888	120972	122.668560034322	4
9888	121369	122.97698610897	3
9888	121651	123.183206112228	2
9888	122035	123.483206112228	2
9888	122441	123.788007736933	3
9888	122704	123.988007736933	2
9888	123055	124.292158682277	2
9888	123207	124.466326747642	2
9888	124222	125.277675084842	7
9888	125155	125.977675084842	6
9888	125221	125.99698662028	5
9888	125351	126.101374159282	1
9888	125761	126.401374159282	2
9888	126270	126.80685673857	4
9888	126419	126.906227348237	3
9888	126867	127.306327448237	4
9888	127158	127.606327448237	3
9888	127773	128.113527266242	4
9888	127802	128.141908551967	3
9888	128301	128.546080534117	4
9888	129341	129.346080534117	7
9888	129623	129.550502592603	1
9888	129672	129.608273960492	9
9888	130087	129.914453738675	3
9888	131110	130.714453738675	8
9888	131554	131.115533162912	4
9888	131650	131.154944786646	3
9888	131851	131.321370648895	1
9888	131961	131.360633729808	1
9888	132877	132.060733829808	8
9888	133678	132.760733829808	9
9888	134140	133.16958046917	4
9888	134419	133.37462880559	5
9888	134784	133.676061863185	4
9888	135127	133.982165663922	2
9888	135666	134.481787719188	10
9888	136038	134.79155066848	7
9888	136235	134.994381692527	1
9888	136524	135.283696733679	7
9888	136627	135.398869906087	3
9888	136635	135.409300325307	7
9888	136650	135.42489960358	3
9889	140	20.1000001	0.875
9889	277	20.3000001	0.875
9889	916	21.206899076755	0
9889	1516	21.706999176755	0.375
9889	1859	22.006999176755	0.75
9889	2655	22.708080270507	0.125
9889	2678	22.712919326475	0.75
9889	3159	23.118323070565	0.5
9889	4985	24.624174827247	0.75
9889	5239	24.818323070565	-1.25
9889	5274	24.829803701378	0.875
9889	5767	25.231667108972	0.625
9889	5778	25.235406964118	0.625
9889	6612	26.037212556402	-0.125
9889	7764	27.037212556402	-0.25
9889	8191	27.441395237105	0.125
9889	8658	27.847992264289	0.625
9889	8952	28.051735023013	0.875
9889	8965	28.053028680091	0.875
9889	9319	28.361094757427	0.75
9889	9321	28.361112063084	0.75
9889	9418	28.442035311185	-0.5
9889	9777	28.676268693563	0.625
9889	9971	28.862362219434	0.5
9889	9979	28.866128659233	0.5
9889	10110	28.966624850936	0.875
9889	11411	30.066624850936	-0.25
9889	11571	30.179434389548	0.875
9889	11807	30.382656060184	0.75
9889	11999	30.581710598961	0.625
9889	12440	30.984311644845	0.625
9889	12498	30.998479463686	0.75
9889	13032	31.500275489011	0.375
9889	13891	32.300275489011	0
9889	14383	32.7069700443	0.625
9889	14661	32.916165697928	0.875
9889	14918	33.116997954501	0.875
9889	15495	33.516997954501	0.375
9889	16153	34.020737202353	0.375
9889	16193	34.03762217431	0.5
9889	16418	34.22877184321	0.875
9889	16761	34.533828241128	0.625
9889	17600	35.333828241128	0.125
9889	18285	35.926963574477	0.125
9889	18611	36.232783003095	0.75
9889	18673	36.292979503095	0.25
9889	18833	36.478706592364	0.375
9889	18932	36.535754011601	0.75
9889	19064	36.643200237683	-0.875
9889	19066	36.64338487167	-0.875
9889	19392	36.947857950937	0.625
9889	19607	37.147857950937	0.875
9889	20266	37.748337694499	0.375
9889	20624	38.049284185526	0.75
9889	21148	38.449384285526	0.375
9889	21725	38.957036547621	0.5
9889	22077	39.263929755824	0.75
9889	22265	39.446760467203	0.75
9889	22528	39.653664598718	0.75
9889	22986	40.053664598718	0.625
9889	23130	40.160138868164	0.875
9889	23541	40.460138868164	0.75
9889	24698	41.363782070899	0
9889	24818	41.456276130513	0.75
9889	25108	41.672585294684	0.625
9889	25193	41.76617403278	0.625
9889	25324	41.866813613346	0.875
9889	25696	42.166813613346	0.625
9889	25854	42.219534213692	1
9889	26125	42.419534213692	0.875
9889	27078	43.129064157318	0.125
9889	27315	43.335686494125	0.875
9889	27351	43.381210121117	0.5
9889	27581	43.544504078304	0.75
9889	27841	43.747713792751	0.875
9889	28477	44.149636320873	0.625
9889	29372	44.854887872463	0.125
9889	29642	45.054887872463	0.75
9889	30502	45.858847986926	0.125
9889	30507	45.873423731573	0.125
9889	30751	46.074024637924	0.625
9889	31154	46.474024637924	0.625
9889	31408	46.681720645821	0.875
9889	31889	47.060962516111	0.75
9889	33032	47.970700682176	-0.25
9889	33486	48.291476768844	0.875
9889	33592	48.370700682176	0.625
9889	34477	49.170800782176	0
9889	35087	49.770800782176	0.25
9889	35710	50.379720982375	0.375
9889	36357	50.881795588693	0.5
9889	36360	50.883512041844	0.5
9889	36824	51.284885235788	0.625
9889	38364	52.684985335788	-1
9889	38984	53.284985335788	0.375
9889	39495	53.714227579209	0.375
9889	39790	53.951883873155	0.5
9889	39870	54.015733270245	0.75
9889	40397	54.425127313818	0.5
9889	41024	55.027416277012	0.375
9889	41029	55.030091831519	0.75
9889	41217	55.212789234475	0.375
9889	41404	55.386279897535	0.625
9889	41668	55.592108804765	0.75
9889	42171	55.992108804765	0.625
9889	42543	56.293872810033	0.75
9889	42616	56.324041511032	0.5
9889	43270	56.825857089458	0.375
9889	44016	57.425857089458	0.375
9889	44646	57.937765550071	0.5
9889	44862	58.140159778012	0.875
9889	46090	59.150197139934	-0.25
9889	46618	59.650197139934	0.5
9889	47044	60.052354877998	0.625
9889	47291	60.262481928274	0.625
9889	47521	60.466206856895	0.875
9889	48094	60.955856803652	0
9889	48123	60.968171600302	0.5
9889	48381	61.171306581848	0.75
9889	48673	61.371306581848	0.875
9889	49539	62.064493517548	0.375
9889	49664	62.173564255749	-0.125
9889	49687	62.191110149858	-0.125
9889	50880	63.200086999051	-0.25
9889	51414	63.600086999051	0.5
9889	51803	63.906973300866	0.75
9889	52461	64.412390271907	0.5
9889	52540	64.485249971651	0.25
9889	53053	64.888551739156	0.5
9889	54411	66.082599204799	-0.125
9889	55096	66.682599204799	0.375
9889	55605	67.183001507825	0.5
9889	56094	67.568564077383	0.75
9889	56103	67.584408288469	0.5
9889	56119	67.59872671951	0.75
9889	56409	67.875817759712	0.75
9889	56415	67.886631072949	0.75
9889	56426	67.902360759963	0.625
9889	56566	68.006226162282	0.875
9889	57019	68.406226162282	0.5
9889	57435	68.771107695597	0.875
9889	58065	69.318970594207	-0.125
9889	58241	69.466774529639	0.375
9889	58360	69.571358499741	0
9889	58377	69.571851122024	1
9889	58904	69.971851122024	0.625
9889	59157	70.17625243807	0.875
9889	59975	70.881406484968	0.25
9889	60002	70.898696570429	0.25
9889	60885	71.611184329835	0.375
9889	61665	72.351524696695	0.625
9889	62542	73.151624796695	0
9889	62843	73.451624796695	0.75
9889	63098	73.651899487738	0.875
9889	63251	73.756335488203	0.875
9889	63407	73.863547046948	0.875
9889	64019	74.363547046948	0.375
9889	64669	74.871227619022	0.5
9889	64929	75.059531635478	0.375
9889	64973	75.079909849327	0.375
9889	65246	75.277902416875	0.5
9889	66021	75.978870363599	0
9889	66261	76.178870363599	0.875
9889	67027	76.795595297	0.375
9889	67256	76.982822996374	0.875
9889	67502	77.182822996374	0.875
9889	67946	77.587255852819	0.625
9889	68601	78.191562767401	0.375
9889	68680	78.263482017862	0
9889	69393	78.863582117862	0.25
9889	69652	79.169008506133	0.75
9889	70019	79.478411850076	0.75
9889	70247	79.686757701026	0.875
9889	70907	80.294883125326	0.25
9889	71183	80.594883125326	0.75
9889	72916	82.017162072198	-0.25
9889	73522	82.517162072198	0.375
9889	73820	82.725459570752	0.75
9889	74083	82.930046210791	0.875
9889	74583	83.284994069084	0.375
9889	74963	83.588222937746	0.75
9889	74968	83.590979533842	0.625
9889	75250	83.791443630387	0.75
9889	76009	84.391443630387	0.375
9889	76868	85.096972416901	0.25
9889	77539	85.601188883363	0.5
9889	77828	85.877324397673	0.625
9889	78624	86.477424497673	0.125
9889	78871	86.677424497673	0.75
9889	79093	86.885551047777	0.875
9889	79553	87.393486793965	0.5
9889	80007	87.799470292636	0.5
9889	81030	88.608530714372	0
9889	81657	89.108530714372	0.5
9889	81927	89.313625334219	0.625
9889	82599	89.913725434219	0.25
9889	83044	90.313725434219	0.625
9889	84438	91.519824920868	-0.625
9889	84800	91.785258078009	0.875
9889	84959	91.92091944997	0.5
9889	85306	92.186440065553	0.625
9889	85547	92.392233482764	0.75
9889	85809	92.592233482764	0.75
9889	86301	92.993922388841	0.5
9889	86537	93.226466628351	0.375
9889	86833	93.534131161552	0.75
9889	87390	94.034231261552	0.375
9889	87916	94.534231261552	0.5
9889	88092	94.739166683325	0.875
9889	88311	94.940900249917	0.875
9889	88767	95.344626010684	0.625
9889	89048	95.646578387762	0.75
9889	89618	96.255364006612	0.25
9889	90393	96.95717964059	0.25
9889	91091	97.558954202691	0.375
9889	91675	98.059486830343	0.5
9889	91834	98.198096974982	0.625
9889	92267	98.563622742322	0.5
9889	92304	98.605392565425	0.875
9889	92313	98.613175061133	0.5
9889	92609	98.818105181324	0.75
9889	93024	99.218105181324	0.625
9889	93130	99.317348393778	0.75
9889	94167	100.163047098015	0.25
9889	95281	101.263047098015	-0.25
9889	95787	101.667688019987	0.375
9889	96602	102.18485496313	0.5
9889	97511	102.930980308984	0.25
9889	98012	103.390552135554	0.875
9889	98392	103.790652235554	0.5
9889	99054	104.390652235554	0.375
9889	99582	104.795546171351	0.5
9889	99900	105.012224587294	0.75
9889	100363	105.414982541761	-0.125
9889	100370	105.421863167857	0.625
9889	101141	106.123124861905	0.125
9889	101573	106.523124861905	0.625
9889	101825	106.826902297063	0.75
9889	102054	107.037564057067	0.875
9889	103134	108.042869927974	-0.25
9889	103480	108.342869927974	0.75
9889	104228	109.047044201914	0.25
9889	105131	109.873501148389	-0.375
9889	105375	110.08184859551	0.875
9889	105927	110.490293274257	0.5
9889	106874	111.190293274257	0.125
9889	107422	111.599785235678	0.625
9889	108064	112.16113507376	0.22222220897675
9889	108225	112.301805793713	0.125
9889	108269	112.36113517376	0.875
9889	109285	113.263592104106	-0.25
9889	109727	113.663592104106	0.625
9889	110985	114.68705526048	-0.125
9889	111076	114.767655878434	-0.5
9889	111433	115.077009457108	0.625
9889	112034	115.577009457108	0.5
9889	112515	115.982443242712	0.5
9889	113026	116.382443242712	0.5
9889	113590	116.788182037005	0.5
9889	114267	117.288282137005	0.375
9889	115074	117.888282137005	0.25
9889	115379	118.088382237005	0.75
9889	115777	118.406946032309	0.875
9889	115996	118.588382237005	0.5
9889	116113	118.709495353459	0.75
9889	116351	118.917519731437	0.875
9889	116605	119.123761514641	0.875
9889	117309	119.723861614641	0.25
9889	118092	120.323861614641	0.375
9889	118903	120.964871962653	0.625
9889	119587	121.464871962653	0.5
9889	120051	121.868459934322	0.625
9889	120409	122.168560034322	0.625
9889	120972	122.668560034322	0.5
9889	121369	122.97698610897	0.625
9889	121651	123.183206112228	0.75
9889	122035	123.483206112228	0.75
9889	122441	123.788007736933	0.66666665673256
9889	122704	123.988007736933	0.75
9889	123055	124.292158682277	0.75
9889	123207	124.466326747642	0.75
9889	124222	125.277675084842	0.125
9889	125155	125.977675084842	0.25
9889	125221	125.99698662028	0.375
9889	125351	126.101374159282	0.875
9889	125761	126.401374159282	0.75
9889	126270	126.80685673857	0.5
9889	126419	126.906227348237	0.625
9889	126867	127.306327448237	0.5
9889	127158	127.606327448237	0.625
9889	127773	128.113527266242	0.5
9889	127802	128.141908551967	0.625
9889	128301	128.546080534117	0.5
9889	129341	129.346080534117	0.125
9889	129623	129.550502592603	0.875
9889	129672	129.608273960492	-0.125
9889	130087	129.914453738675	0.625
9889	131110	130.714453738675	0
9889	131554	131.115533162912	0.5
9889	131650	131.154944786646	0.66666665673256
9889	131851	131.321370648895	0.875
9889	131961	131.360633729808	0.875
9889	132877	132.060733829808	0
9889	133678	132.760733829808	-0.125
9889	134140	133.16958046917	0.5
9889	134419	133.37462880559	0.375
9889	134784	133.676061863185	0.5
9889	135127	133.982165663922	0.75
9889	135666	134.481787719188	-0.25
9889	136038	134.79155066848	0.125
9889	136235	134.994381692527	0.875
9889	136524	135.283696733679	0.125
9889	136627	135.398869906087	0.625
9889	136635	135.409300325307	0.125
9889	136650	135.42489960358	0.625
9890	140	20.1000001	0.1
9890	277	20.3000001	0.2
9890	916	21.206899076755	0.9
9890	1516	21.706999176755	0.5
9890	1859	22.006999176755	0.3
9890	2655	22.708080270507	0.7
9890	2678	22.712919326475	0.3
9890	3159	23.118323070565	0.4
9890	4985	24.624174827247	0.3
9890	5239	24.818323070565	1.7
9890	5274	24.829803701378	0.2
9890	5767	25.231667108972	0.4
9890	5778	25.235406964118	0.4
9890	6612	26.037212556402	0.8
9890	7764	27.037212556402	1
9890	8191	27.441395237105	0.8
9890	8658	27.847992264289	0.4
9890	8952	28.051735023013	0.2
9890	8965	28.053028680091	0.2
9890	9319	28.361094757427	0.3
9890	9321	28.361112063084	0.3
9890	9418	28.442035311185	1.2
9890	9777	28.676268693563	0.4
9890	9971	28.862362219434	0.5
9890	9979	28.866128659233	0.5
9890	10110	28.966624850936	0.1
9890	11411	30.066624850936	1.1
9890	11571	30.179434389548	0.1
9890	11807	30.382656060184	0.3
9890	11999	30.581710598961	0.4
9890	12440	30.984311644845	0.4
9890	12498	30.998479463686	0.3
9890	13032	31.500275489011	0.5
9890	13891	32.300275489011	0.8
9890	14383	32.7069700443	0.4
9890	14661	32.916165697928	0.2
9890	14918	33.116997954501	0.1
9890	15495	33.516997954501	0.4
9890	16153	34.020737202353	0.5
9890	16193	34.03762217431	0.5
9890	16418	34.22877184321	0.2
9890	16761	34.533828241128	0.3
9890	17600	35.333828241128	0.8
9890	18285	35.926963574477	0.7
9890	18611	36.232783003095	0.3
9890	18673	36.292979503095	0.7
9890	18833	36.478706592364	0.6
9890	18932	36.535754011601	0.3
9890	19064	36.643200237683	1.3
9890	19066	36.64338487167	1.3
9890	19392	36.947857950937	0.3
9890	19607	37.147857950937	0.2
9890	20266	37.748337694499	0.6
9890	20624	38.049284185526	0.3
9890	21148	38.449384285526	0.4
9890	21725	38.957036547621	0.5
9890	22077	39.263929755824	0.3
9890	22265	39.446760467203	0.3
9890	22528	39.653664598718	0.2
9890	22986	40.053664598718	0.4
9890	23130	40.160138868164	0.1
9890	23541	40.460138868164	0.3
9890	24698	41.363782070899	0.9
9890	24818	41.456276130513	0.3
9890	25108	41.672585294684	0.3
9890	25193	41.76617403278	0.3
9890	25324	41.866813613346	0.1
9890	25696	42.166813613346	0.3
9890	25854	42.219534213692	0
9890	26125	42.419534213692	0.2
9890	27078	43.129064157318	0.7
9890	27315	43.335686494125	0.2
9890	27351	43.381210121117	0.5
9890	27581	43.544504078304	0.2
9890	27841	43.747713792751	0.2
9890	28477	44.149636320873	0.4
9890	29372	44.854887872463	0.7
9890	29642	45.054887872463	0.2
9890	30502	45.858847986926	0.8
9890	30507	45.873423731573	0.8
9890	30751	46.074024637924	0.2
9890	31154	46.474024637924	0.4
9890	31408	46.681720645821	0.2
9890	31889	47.060962516111	0.3
9890	33032	47.970700682176	0.9
9890	33486	48.291476768844	0.1
9890	33592	48.370700682176	0.4
9890	34477	49.170800782176	0.8
9890	35087	49.770800782176	0.6
9890	35710	50.379720982375	0.6
9890	36357	50.881795588693	0.5
9890	36360	50.883512041844	0.5
9890	36824	51.284885235788	0.4
9890	38364	52.684985335788	1.4
9890	38984	53.284985335788	0.6
9890	39495	53.714227579209	0.6
9890	39790	53.951883873155	0.5
9890	39870	54.015733270245	0.3
9890	40397	54.425127313818	0.4
9890	41024	55.027416277012	0.6
9890	41029	55.030091831519	0.3
9890	41217	55.212789234475	0.6
9890	41404	55.386279897535	0.4
9890	41668	55.592108804765	0.2
9890	42171	55.992108804765	0.4
9890	42543	56.293872810033	0.3
9890	42616	56.324041511032	0.5
9890	43270	56.825857089458	0.5
9890	44016	57.425857089458	0.6
9890	44646	57.937765550071	0.5
9890	44862	58.140159778012	0.2
9890	46090	59.150197139934	1
9890	46618	59.650197139934	0.5
9890	47044	60.052354877998	0.4
9890	47291	60.262481928274	0.4
9890	47521	60.466206856895	0.2
9890	48094	60.955856803652	0.9
9890	48123	60.968171600302	0.5
9890	48381	61.171306581848	0.2
9890	48673	61.371306581848	0.2
9890	49539	62.064493517548	0.6
9890	49664	62.173564255749	0.8
9890	49687	62.191110149858	0.8
9890	50880	63.200086999051	1
9890	51414	63.600086999051	0.4
9890	51803	63.906973300866	0.3
9890	52461	64.412390271907	0.5
9890	52540	64.485249971651	0.6
9890	53053	64.888551739156	0.4
9890	54411	66.082599204799	0.8
9890	55096	66.682599204799	0.6