file 729342 1369674157                                          
version 2
run Stability-norelink-45-20130525-23:17:01-22103
attr configname Stability-norelink
attr datetime 20130525-23:17:01
attr experiment Stability
attr inifile omnetpp.ini
attr iterationvars $0=1e2
attr iterationvars2 "$0=1e2, $repetition=5"
attr measurement $0=1e2
attr network Network
attr processid 22103
attr repetition 5
attr replication #5
attr resultdir results
attr runnumber 45
attr seedset 45
vector 4320  Network.dyn_peer[0]  lookupHopsSig:vector  ETV
4320	6396 6831 32 98597 20.2 224.70355734443 279 0 16 777 3213
vector 4321  Network.dyn_peer[0]  lookupStabilitySig:vector  ETV
4321	13227 7754 32 98597 20.2 224.70355734443 279 -1 1 181.875 134.953125
vector 4322  Network.dyn_peer[0]  lookupTimeSig:vector  ETV
4322	20981 7379 32 98597 20.2 224.70355734443 279 0 1.4 94.3 40.17
vector 4323  Network.dyn_peer[1]  lookupHopsSig:vector  ETV
4323	28360 7643 47 98799 20.4 225.10754051527 306 0 11 885 3773
vector 4324  Network.dyn_peer[1]  lookupStabilitySig:vector  ETV
4324	36003 8660 47 98799 20.4 225.10754051527 306 -0.375 1 195.41666666418 143.77006172435
vector 4325  Network.dyn_peer[1]  lookupTimeSig:vector  ETV
4325	44663 8238 47 98799 20.4 225.10754051527 306 0 0.9 107.3 47.97
vector 4326  Network.dyn_peer[2]  lookupHopsSig:vector  ETV
4326	52901 6998 60 97951 20.5 223.517782830236 283 0 13 843 3679
vector 4327  Network.dyn_peer[2]  lookupStabilitySig:vector  ETV
4327	59899 7970 60 97951 20.5 223.517782830236 283 -0.625 1 177.68055554479 129.81269288652
vector 4328  Network.dyn_peer[2]  lookupTimeSig:vector  ETV
4328	67869 7550 60 97951 20.5 223.517782830236 283 0 1.1 100.4 45.3
vector 4329  Network.dyn_peer[3]  lookupHopsSig:vector  ETV
4329	75419 7299 64 98399 20.5 224.31685343268 294 0 14 818 3430
vector 4330  Network.dyn_peer[3]  lookupStabilitySig:vector  ETV
4330	82718 8305 64 98399 20.5 224.31685343268 294 -0.75 1 191.86111108214 143.217592565
vector 4331  Network.dyn_peer[3]  lookupTimeSig:vector  ETV
4331	91023 7872 64 98399 20.5 224.31685343268 294 0 1.2 99.1 42.23
vector 4332  Network.dyn_peer[4]  lookupHopsSig:vector  ETV
4332	98895 7750 77 98000 20.6 223.606508681053 309 0 15 807 3229
vector 4333  Network.dyn_peer[4]  lookupStabilitySig:vector  ETV
4333	106645 8787 77 98000 20.6 223.606508681053 309 -0.875 1 208.125 157.703125
vector 4334  Network.dyn_peer[4]  lookupTimeSig:vector  ETV
4334	115432 8350 77 98000 20.6 223.606508681053 309 0 1.3 100.8 42.58
vector 4335  Network.dyn_peer[5]  lookupHopsSig:vector  ETV
4335	123782 6610 107 98157 20.8 223.905928272327 269 0 14 777 3673
vector 4336  Network.dyn_peer[5]  lookupStabilitySig:vector  ETV
4336	130392 7522 107 98157 20.8 223.905928272327 269 -0.75 1 171.90277777612 132.18306326903
vector 4337  Network.dyn_peer[5]  lookupTimeSig:vector  ETV
4337	137914 7128 107 98157 20.8 223.905928272327 269 0 1.3 91.9 41.63
vector 4338  Network.dyn_peer[6]  lookupHopsSig:vector  ETV
4338	145042 6443 128 97623 20.9 222.833400025846 265 0 10 736 3014
vector 4339  Network.dyn_peer[6]  lookupStabilitySig:vector  ETV
4339	151485 7398 128 97623 20.9 222.833400025846 265 -0.25 1 173.12499997765 128.26832558675
vector 4340  Network.dyn_peer[6]  lookupTimeSig:vector  ETV
4340	158883 6957 128 97623 20.9 222.833400025846 265 0 1 89.9 38.23
vector 4341  Network.dyn_peer[7]  lookupHopsSig:vector  ETV
4341	165840 7135 148 98262 21 224.108322266105 289 0 11 814 3408
vector 4342  Network.dyn_peer[7]  lookupStabilitySig:vector  ETV
4342	172975 8108 148 98262 21 224.108322266105 289 -0.375 1 187.31944443285 138.84625770023
vector 4343  Network.dyn_peer[7]  lookupTimeSig:vector  ETV
4343	181083 7697 148 98262 21 224.108322266105 289 0 1.1 99.7 43.21
vector 4347  Network.dyn_peer[9]  lookupHopsSig:vector  ETV
4347	211062 7922 172 98857 21.1 225.215341319828 312 0 18 861 3783
vector 4348  Network.dyn_peer[9]  lookupStabilitySig:vector  ETV
4348	218984 8986 172 98857 21.1 225.215341319828 312 -1.25 1 204.40277777612 155.90181326903
vector 4349  Network.dyn_peer[9]  lookupTimeSig:vector  ETV
4349	227970 8535 172 98857 21.1 225.215341319828 312 0 1.5 104 44.68
vector 4344  Network.dyn_peer[8]  lookupHopsSig:vector  ETV
4344	188780 6926 202 98066 21.2 223.718591608954 280 0 15 825 3613
vector 4345  Network.dyn_peer[8]  lookupStabilitySig:vector  ETV
4345	195706 7884 202 98066 21.2 223.718591608954 280 -0.875 1 176.875 130.203125
vector 4346  Network.dyn_peer[8]  lookupTimeSig:vector  ETV
4346	203590 7472 202 98066 21.2 223.718591608954 280 0 1.4 97.9 43.23
vector 4350  Network.dyn_peer[10]  lookupHopsSig:vector  ETV
4350	236505 7025 258 98908 21.4 225.316040285697 283 0 22 827 3693
vector 4351  Network.dyn_peer[10]  lookupStabilitySig:vector  ETV
4351	243530 7995 258 98908 21.4 225.316040285697 283 -1.75 1 179.65277777612 133.99556326903
vector 4352  Network.dyn_peer[10]  lookupTimeSig:vector  ETV
4352	251525 7578 258 98908 21.4 225.316040285697 283 0 2 98.6 44.14
vector 4356  Network.dyn_peer[12]  lookupHopsSig:vector  ETV
4356	280882 7183 290 98674 21.5 224.820000525604 289 0 15 827 3563
vector 4357  Network.dyn_peer[12]  lookupStabilitySig:vector  ETV
4357	288065 8200 290 98674 21.5 224.820000525604 289 -0.875 1 185.77777774632 138.07986108131
vector 4358  Network.dyn_peer[12]  lookupTimeSig:vector  ETV
4358	296265 7748 290 98674 21.5 224.820000525604 289 0 1.3 100.5 44.33
vector 4353  Network.dyn_peer[11]  lookupHopsSig:vector  ETV
4353	259103 6773 316 99019 21.6 225.744575743592 275 0 11 793 3369
vector 4354  Network.dyn_peer[11]  lookupStabilitySig:vector  ETV
4354	265876 7693 316 99019 21.6 225.744575743592 275 -0.375 1 175.91666666418 129.45756172435
vector 4355  Network.dyn_peer[11]  lookupTimeSig:vector  ETV
4355	273569 7313 316 99019 21.6 225.744575743592 275 0 1.1 94.5 41.43
vector 4362  Network.dyn_peer[14]  lookupHopsSig:vector  ETV
4362	327824 7192 320 97774 21.6 223.142347371686 290 0 13 756 3080
vector 4363  Network.dyn_peer[14]  lookupStabilitySig:vector  ETV
4363	335016 8202 320 97774 21.6 223.142347371686 290 -0.625 1 195.54166666418 149.19193672435
vector 4364  Network.dyn_peer[14]  lookupTimeSig:vector  ETV
4364	343218 7757 320 97774 21.6 223.142347371686 290 0 1.1 93.4 39.4
vector 4359  Network.dyn_peer[13]  lookupHopsSig:vector  ETV
4359	304013 7409 366 98336 21.7 224.218876274169 297 0 9 881 3723
vector 4360  Network.dyn_peer[13]  lookupStabilitySig:vector  ETV
4360	311422 8405 366 98336 21.7 224.218876274169 297 -0.125 1 186.91666665673 134.9756944312
vector 4361  Network.dyn_peer[13]  lookupTimeSig:vector  ETV
4361	319827 7997 366 98336 21.7 224.218876274169 297 0 0.9 105.5 46.19
vector 4365  Network.dyn_peer[15]  lookupHopsSig:vector  ETV
4365	350975 7290 370 99021 21.7 225.744956989694 293 0 15 812 3478
vector 4366  Network.dyn_peer[15]  lookupStabilitySig:vector  ETV
4366	358265 8302 370 99021 21.7 225.744956989694 293 -0.875 1 191.56944443285 144.44000770023
vector 4367  Network.dyn_peer[15]  lookupTimeSig:vector  ETV
4367	366567 7860 370 99021 21.7 225.744956989694 293 0 1.4 98.5 42.75
vector 4368  Network.dyn_peer[16]  lookupHopsSig:vector  ETV
4368	374427 6829 507 98226 22 224.028317084516 275 0 11 817 3571
vector 4369  Network.dyn_peer[16]  lookupStabilitySig:vector  ETV
4369	381256 7767 507 98226 22 224.028317084516 275 -0.375 1 172.93055554479 126.62519288652
vector 4370  Network.dyn_peer[16]  lookupTimeSig:vector  ETV
4370	389023 7360 507 98226 22 224.028317084516 275 0 1 96.9 42.73
vector 4371  Network.dyn_peer[17]  lookupHopsSig:vector  ETV
4371	396383 7026 557 98803 22.1 225.10795841769 282 0 11 803 3259
vector 4372  Network.dyn_peer[17]  lookupStabilitySig:vector  ETV
4372	403409 7996 557 98803 22.1 225.10795841769 282 -0.375 1 181.66666665673 132.2256944312
vector 4373  Network.dyn_peer[17]  lookupTimeSig:vector  ETV
4373	411405 7580 557 98803 22.1 225.10795841769 282 0 1.1 96.1 40.69
vector 4374  Network.dyn_peer[18]  lookupHopsSig:vector  ETV
4374	418985 7139 561 98886 22.1 225.308130901942 284 0 15 794 3296
vector 4375  Network.dyn_peer[18]  lookupStabilitySig:vector  ETV
4375	426124 8134 561 98886 22.1 225.308130901942 284 -0.875 1 184.77777777612 137.04243826903
vector 4376  Network.dyn_peer[18]  lookupTimeSig:vector  ETV
4376	434258 7697 561 98886 22.1 225.308130901942 284 0 1.3 95.9 40.57
vector 4377  Network.dyn_peer[19]  lookupHopsSig:vector  ETV
4377	441955 7565 595 98968 22.2 225.513709012697 300 0 15 851 3945
vector 4378  Network.dyn_peer[19]  lookupStabilitySig:vector  ETV
4378	449520 8555 595 98968 22.2 225.513709012697 300 -0.875 1 193.625 148.890625
vector 4379  Network.dyn_peer[19]  lookupTimeSig:vector  ETV
4379	458075 8146 595 98968 22.2 225.513709012697 300 0 1.4 103.4 48.08
vector 4380  Network.dyn_peer[20]  lookupHopsSig:vector  ETV
4380	466221 6577 649 98936 22.3 225.409921077887 271 0 10 719 2743
vector 4381  Network.dyn_peer[20]  lookupStabilitySig:vector  ETV
4381	472798 7501 649 98936 22.3 225.409921077887 271 -0.25 1 181.15277777612 134.15181326903
vector 4382  Network.dyn_peer[20]  lookupTimeSig:vector  ETV
4382	480299 7107 649 98936 22.3 225.409921077887 271 0 0.9 89.3 36.41
vector 4383  Network.dyn_peer[21]  lookupHopsSig:vector  ETV
4383	487406 7021 653 98687 22.3 224.828317084516 283 0 9 768 2938
vector 4384  Network.dyn_peer[21]  lookupStabilitySig:vector  ETV
4384	494427 7983 653 98687 22.3 224.828317084516 283 -0.125 1 187.02777777612 136.94868826903
vector 4385  Network.dyn_peer[21]  lookupTimeSig:vector  ETV
4385	502410 7575 653 98687 22.3 224.828317084516 283 0 1 94.2 39.02
vector 4389  Network.dyn_peer[23]  lookupHopsSig:vector  ETV
4389	531403 6493 808 99091 22.6 226.480713561543 266 0 12 759 3159
vector 4390  Network.dyn_peer[23]  lookupStabilitySig:vector  ETV
4390	537896 7415 808 99091 22.6 226.480713561543 266 -0.5 1 171.13888888806 125.63387345532
vector 4391  Network.dyn_peer[23]  lookupTimeSig:vector  ETV
4391	545311 7014 808 99091 22.6 226.480713561543 266 0 1.1 90.8 39.1
vector 4386  Network.dyn_peer[22]  lookupHopsSig:vector  ETV
4386	509985 6646 913 97704 22.8 223.009469830766 273 0 11 808 3488
vector 4387  Network.dyn_peer[22]  lookupStabilitySig:vector  ETV
4387	516631 7596 913 97704 22.8 223.009469830766 273 -0.375 1 172.05555554479 125.57831788652
vector 4388  Network.dyn_peer[22]  lookupTimeSig:vector  ETV
4388	524227 7176 913 97704 22.8 223.009469830766 273 0 1.1 95.7 43.07
vector 4395  Network.dyn_peer[25]  lookupHopsSig:vector  ETV
4395	573428 6669 918 98525 22.8 224.6 272 0 11 791 3509
vector 4396  Network.dyn_peer[25]  lookupStabilitySig:vector  ETV
4396	580097 7592 918 98525 22.8 224.6 272 -0.375 1 173.23611110449 129.22164350969
vector 4397  Network.dyn_peer[25]  lookupTimeSig:vector  ETV
4397	587689 7189 918 98525 22.8 224.6 272 0 1.1 94.1 42.95
vector 4398  Network.dyn_peer[26]  lookupHopsSig:vector  ETV
4398	594878 6553 922 99065 22.8 226.126401168533 267 0 10 788 3342
vector 4399  Network.dyn_peer[26]  lookupStabilitySig:vector  ETV
4399	601431 7425 922 99065 22.8 226.126401168533 267 -0.25 1 168.5 122.21875
vector 4400  Network.dyn_peer[26]  lookupTimeSig:vector  ETV
4400	608856 7073 922 99065 22.8 226.126401168533 267 0 0.9 94.3 41.41
vector 4392  Network.dyn_peer[24]  lookupHopsSig:vector  ETV
4392	552325 6543 973 98179 22.9 223.928217084516 267 0 9 718 2780
vector 4393  Network.dyn_peer[24]  lookupStabilitySig:vector  ETV
4393	558868 7491 973 98179 22.9 223.928217084516 267 -0.125 1 177.41666663438 131.10686725341
vector 4394  Network.dyn_peer[24]  lookupTimeSig:vector  ETV
4394	566359 7069 973 98179 22.9 223.928217084516 267 0 0.8 87.1 35.51
vector 4401  Network.dyn_peer[27]  lookupHopsSig:vector  ETV
4401	615929 6884 1071 97757 23.1 223.117254799834 276 0 11 809 3403
vector 4402  Network.dyn_peer[27]  lookupStabilitySig:vector  ETV
4402	622813 7832 1071 97757 23.1 223.117254799834 276 -0.375 1 174.91666665673 126.9756944312
vector 4403  Network.dyn_peer[27]  lookupTimeSig:vector  ETV
4403	630645 7429 1071 97757 23.1 223.117254799834 276 0 1.1 96.6 41.92
vector 4404  Network.dyn_peer[28]  lookupHopsSig:vector  ETV
4404	638074 7715 1075 97929 23.1 223.5 306 0 11 860 3396
vector 4405  Network.dyn_peer[28]  lookupStabilitySig:vector  ETV
4405	645789 8761 1075 97929 23.1 223.5 306 -0.375 1 198.5 144.0625
vector 4406  Network.dyn_peer[28]  lookupTimeSig:vector  ETV
4406	654550 8322 1075 97929 23.1 223.5 306 0 0.9 104.3 43.43
vector 4410  Network.dyn_peer[30]  lookupHopsSig:vector  ETV
4410	684344 7033 1113 97873 23.2 223.4 284 0 10 835 3327
vector 4411  Network.dyn_peer[30]  lookupStabilitySig:vector  ETV
4411	691377 8000 1113 97873 23.2 223.4 284 -0.25 1 179.66666665673 127.2881944312
vector 4412  Network.dyn_peer[30]  lookupTimeSig:vector  ETV
4412	699377 7594 1113 97873 23.2 223.4 284 0 0.9 99.7 42.29
vector 4413  Network.dyn_peer[31]  lookupHopsSig:vector  ETV
4413	706971 6955 1161 97983 23.3 223.6 280 0 11 747 2895
vector 4414  Network.dyn_peer[31]  lookupStabilitySig:vector  ETV
4414	713926 7917 1161 97983 23.3 223.6 280 -0.375 1 186.65277777612 138.52681326903
vector 4415  Network.dyn_peer[31]  lookupTimeSig:vector  ETV
4415	721843 7499 1161 97983 23.3 223.6 280 0 1 92.2 37.98
vector 4407  Network.dyn_peer[29]  lookupHopsSig:vector  ETV
4407	662872 6675 1191 98393 23.4 224.313307719281 272 0 13 748 3132
vector 4408  Network.dyn_peer[29]  lookupStabilitySig:vector  ETV
4408	669547 7588 1191 98393 23.4 224.313307719281 272 -0.625 1 178.5 133.9375
vector 4409  Network.dyn_peer[29]  lookupTimeSig:vector  ETV
4409	677135 7209 1191 98393 23.4 224.313307719281 272 0 1.3 90.2 37.92
