file 723327 1369674155                                          
version 2
run Stability-norelink-1-20130525-23:14:45-22103
attr configname Stability-norelink
attr datetime 20130525-23:14:45
attr experiment Stability
attr inifile omnetpp.ini
attr iterationvars $0=1e6
attr iterationvars2 "$0=1e6, $repetition=1"
attr measurement $0=1e6
attr network Network
attr processid 22103
attr repetition 1
attr replication #1
attr resultdir results
attr runnumber 1
attr seedset 1
vector 96  Network.dyn_peer[0]  lookupHopsSig:vector  ETV
96	6293 6709 32 65502 1020.2 2017020.812501185792 256 0 2 341 529
vector 97  Network.dyn_peer[0]  lookupStabilitySig:vector  ETV
97	13002 7603 32 65502 1020.2 2017020.812501185792 256 0.75 1 213.375 179.015625
vector 98  Network.dyn_peer[0]  lookupTimeSig:vector  ETV
98	20605 7203 32 65502 1020.2 2017020.812501185792 256 0 0.3 53.3 12.53
vector 99  Network.dyn_peer[1]  lookupHopsSig:vector  ETV
99	27808 6706 63 65530 2020.2 2018020.704750119733 256 0 2 347 545
vector 100  Network.dyn_peer[1]  lookupStabilitySig:vector  ETV
100	34514 7855 63 65530 2020.2 2018020.704750119733 256 0.75 1 212.625 177.765625
vector 101  Network.dyn_peer[1]  lookupTimeSig:vector  ETV
101	42369 7458 63 65530 2020.2 2018020.704750119733 256 0 0.3 53.9 12.63
vector 102  Network.dyn_peer[2]  lookupHopsSig:vector  ETV
102	49827 7079 92 65570 3020.2 2019020.884515398115 256 0 2 351 555
vector 103  Network.dyn_peer[2]  lookupStabilitySig:vector  ETV
103	56906 7973 92 65570 3020.2 2019020.884515398115 256 0.75 1 212.125 176.921875
vector 104  Network.dyn_peer[2]  lookupTimeSig:vector  ETV
104	64879 7577 92 65570 3020.2 2019020.884515398115 256 0 0.3 54.3 12.73
vector 105  Network.dyn_peer[3]  lookupHopsSig:vector  ETV
105	72456 7039 125 65601 4020.2 2020020.728731106725 256 0 2 325 473
vector 106  Network.dyn_peer[3]  lookupStabilitySig:vector  ETV
106	79495 7969 125 65601 4020.2 2020020.728731106725 256 0.75 1 215.375 182.140625
vector 107  Network.dyn_peer[3]  lookupTimeSig:vector  ETV
107	87464 7541 125 65601 4020.2 2020020.728731106725 256 0 0.3 51.7 11.53
vector 108  Network.dyn_peer[4]  lookupHopsSig:vector  ETV
108	95005 7025 154 65634 5020.1 2021021.018828481981 256 0 2 343 533
vector 109  Network.dyn_peer[4]  lookupStabilitySig:vector  ETV
109	102030 7922 154 65634 5020.1 2021021.018828481981 256 0.75 1 213.125 178.578125
vector 110  Network.dyn_peer[4]  lookupTimeSig:vector  ETV
110	109952 7521 154 65634 5020.1 2021021.018828481981 256 0 0.3 53.5 12.45
vector 111  Network.dyn_peer[5]  lookupHopsSig:vector  ETV
111	117473 6976 186 65666 6020.1 2022020.819576947992 256 0 2 340 522
vector 112  Network.dyn_peer[5]  lookupStabilitySig:vector  ETV
112	124449 7881 186 65666 6020.1 2022020.819576947992 256 0.75 1 213.5 179.15625
vector 113  Network.dyn_peer[5]  lookupTimeSig:vector  ETV
113	132330 7474 186 65666 6020.1 2022020.819576947992 256 0 0.3 53.2 12.36
vector 114  Network.dyn_peer[6]  lookupHopsSig:vector  ETV
114	139804 6969 223 65698 7020.1 2023020.738685637937 256 0 2 335 513
vector 115  Network.dyn_peer[6]  lookupStabilitySig:vector  ETV
115	146773 7864 223 65698 7020.1 2023020.738685637937 256 0.75 1 214.125 180.265625
vector 116  Network.dyn_peer[6]  lookupTimeSig:vector  ETV
116	154637 7461 223 65698 7020.1 2023020.738685637937 256 0 0.3 52.7 12.15
vector 117  Network.dyn_peer[7]  lookupHopsSig:vector  ETV
117	162098 6946 252 65730 8020.1 2024020.822528323192 256 0 2 331 501
vector 118  Network.dyn_peer[7]  lookupStabilitySig:vector  ETV
118	169044 7845 252 65730 8020.1 2024020.822528323192 256 0.75 1 214.625 181.078125
vector 119  Network.dyn_peer[7]  lookupTimeSig:vector  ETV
119	176889 7438 252 65730 8020.1 2024020.822528323192 256 0 0.3 52.3 12.01
vector 120  Network.dyn_peer[8]  lookupHopsSig:vector  ETV
120	184327 6986 287 65761 9020.2 2025020.731076416659 256 0 2 323 465
vector 121  Network.dyn_peer[8]  lookupStabilitySig:vector  ETV
121	191313 7923 287 65761 9020.2 2025020.731076416659 256 0.75 1 215.625 182.515625
vector 122  Network.dyn_peer[8]  lookupTimeSig:vector  ETV
122	199236 7490 287 65761 9020.2 2025020.731076416659 256 0 0.3 51.5 11.35
vector 123  Network.dyn_peer[9]  lookupHopsSig:vector  ETV
123	206726 7013 316 65791 10020.1 2026020.815038774806 256 0 2 337 521
vector 124  Network.dyn_peer[9]  lookupStabilitySig:vector  ETV
124	213739 7901 316 65791 10020.1 2026020.815038774806 256 0.75 1 213.875 179.890625
vector 125  Network.dyn_peer[9]  lookupTimeSig:vector  ETV
125	221640 7503 316 65791 10020.1 2026020.815038774806 256 0 0.3 52.9 12.39
vector 126  Network.dyn_peer[10]  lookupHopsSig:vector  ETV
126	229143 7067 353 65823 11020.1 2027020.738981487828 256 0 2 342 526
vector 127  Network.dyn_peer[10]  lookupStabilitySig:vector  ETV
127	236210 7975 353 65823 11020.1 2027020.738981487828 256 0.75 1 213.25 178.71875
vector 128  Network.dyn_peer[10]  lookupTimeSig:vector  ETV
128	244185 7567 353 65823 11020.1 2027020.738981487828 256 0 0.3 53.4 12.52
vector 129  Network.dyn_peer[11]  lookupHopsSig:vector  ETV
129	251752 6966 385 65854 12020.2 2028020.912586307945 256 0 2 333 507
vector 130  Network.dyn_peer[11]  lookupStabilitySig:vector  ETV
130	258718 7863 385 65854 12020.2 2028020.912586307945 256 0.75 1 214.375 180.671875
vector 131  Network.dyn_peer[11]  lookupTimeSig:vector  ETV
131	266581 7458 385 65854 12020.2 2028020.912586307945 256 0 0.3 52.5 12.15
vector 132  Network.dyn_peer[12]  lookupHopsSig:vector  ETV
132	274039 7000 414 65887 13020.1 2029020.736924191596 256 0 2 338 508
vector 133  Network.dyn_peer[12]  lookupStabilitySig:vector  ETV
133	281039 7927 414 65887 13020.1 2029020.736924191596 256 0.75 1 213.75 179.4375
vector 134  Network.dyn_peer[12]  lookupTimeSig:vector  ETV
134	288966 7506 414 65887 13020.1 2029020.736924191596 256 0 0.3 53 12.04
vector 135  Network.dyn_peer[13]  lookupHopsSig:vector  ETV
135	296472 6959 442 65918 14020 2030020.922096186404 256 0 2 335 509
vector 136  Network.dyn_peer[13]  lookupStabilitySig:vector  ETV
136	303431 7864 442 65918 14020 2030020.922096186404 256 0.75 1 214.125 180.203125
vector 137  Network.dyn_peer[13]  lookupTimeSig:vector  ETV
137	311295 7455 442 65918 14020 2030020.922096186404 256 0 0.3 52.7 12.05
vector 138  Network.dyn_peer[14]  lookupHopsSig:vector  ETV
138	318750 7033 475 65950 15020.2 2031020.730241466328 256 0 2 345 535
vector 139  Network.dyn_peer[14]  lookupStabilitySig:vector  ETV
139	325783 7938 475 65950 15020.2 2031020.730241466328 256 0.75 1 212.875 178.109375
vector 140  Network.dyn_peer[14]  lookupTimeSig:vector  ETV
140	333721 7533 475 65950 15020.2 2031020.730241466328 256 0 0.3 53.7 12.47
vector 141  Network.dyn_peer[15]  lookupHopsSig:vector  ETV
141	341254 6993 509 65984 16020.1 2032020.92655572074 256 0 2 332 510
vector 142  Network.dyn_peer[15]  lookupStabilitySig:vector  ETV
142	348247 7876 509 65984 16020.1 2032020.92655572074 256 0.75 1 214.5 180.96875
vector 143  Network.dyn_peer[15]  lookupTimeSig:vector  ETV
143	356123 7479 509 65984 16020.1 2032020.92655572074 256 0 0.3 52.4 12.12
vector 144  Network.dyn_peer[16]  lookupHopsSig:vector  ETV
144	363602 7039 538 66020 17020.2 2033020.939216545954 256 0 2 344 528
vector 145  Network.dyn_peer[16]  lookupStabilitySig:vector  ETV
145	370641 7955 538 66020 17020.2 2033020.939216545954 256 0.75 1 213 178.25
vector 146  Network.dyn_peer[16]  lookupTimeSig:vector  ETV
146	378596 7543 538 66020 17020.2 2033020.939216545954 256 0 0.3 53.6 12.1
vector 147  Network.dyn_peer[17]  lookupHopsSig:vector  ETV
147	386139 7017 572 66053 18020.2 2034020.92601645376 256 0 2 344 530
vector 148  Network.dyn_peer[17]  lookupStabilitySig:vector  ETV
148	393156 7928 572 66053 18020.2 2034020.92601645376 256 0.75 1 213 178.28125
vector 149  Network.dyn_peer[17]  lookupTimeSig:vector  ETV
149	401084 7519 572 66053 18020.2 2034020.92601645376 256 0 0.3 53.6 12.38
vector 150  Network.dyn_peer[18]  lookupHopsSig:vector  ETV
150	408603 7007 606 66088 19020.1 2035021.126592445957 256 0 2 340 518
vector 151  Network.dyn_peer[18]  lookupStabilitySig:vector  ETV
151	415610 7922 606 66088 19020.1 2035021.126592445957 256 0.75 1 213.5 179.09375
vector 152  Network.dyn_peer[18]  lookupTimeSig:vector  ETV
152	423532 7509 606 66088 19020.1 2035021.126592445957 256 0 0.3 53.2 12.28
vector 153  Network.dyn_peer[19]  lookupHopsSig:vector  ETV
153	431041 6994 636 66117 20020.2 2036020.810540811859 256 0 2 329 487
vector 154  Network.dyn_peer[19]  lookupStabilitySig:vector  ETV
154	438035 7915 636 66117 20020.2 2036020.810540811859 256 0.75 1 214.875 181.359375
vector 155  Network.dyn_peer[19]  lookupTimeSig:vector  ETV
155	445950 7494 636 66117 20020.2 2036020.810540811859 256 0 0.3 52.1 11.73
vector 156  Network.dyn_peer[20]  lookupHopsSig:vector  ETV
156	453444 6945 668 66149 21020.1 2037020.915053248999 256 0 2 334 504
vector 157  Network.dyn_peer[20]  lookupStabilitySig:vector  ETV
157	460389 7856 668 66149 21020.1 2037020.915053248999 256 0.75 1 214.25 180.375
vector 158  Network.dyn_peer[20]  lookupTimeSig:vector  ETV
158	468245 7443 668 66149 21020.1 2037020.915053248999 256 0 0.3 52.6 12.08
vector 159  Network.dyn_peer[21]  lookupHopsSig:vector  ETV
159	475688 7090 701 66205 22020.1 2038020.940499329588 256 0 2 343 527
vector 160  Network.dyn_peer[21]  lookupStabilitySig:vector  ETV
160	482778 8002 701 66205 22020.1 2038020.940499329588 256 0.75 1 213.125 178.484375
vector 161  Network.dyn_peer[21]  lookupTimeSig:vector  ETV
161	490780 7592 701 66205 22020.1 2038020.940499329588 256 0 0.3 53.5 12.25
vector 162  Network.dyn_peer[22]  lookupHopsSig:vector  ETV
162	498372 7115 732 66243 23020.2 2039020.84833270747 256 0 2 349 545
vector 163  Network.dyn_peer[22]  lookupStabilitySig:vector  ETV
163	505487 8021 732 66243 23020.2 2039020.84833270747 256 0.75 1 212.375 177.265625
vector 164  Network.dyn_peer[22]  lookupTimeSig:vector  ETV
164	513508 7617 732 66243 23020.2 2039020.84833270747 256 0 0.3 54.1 12.73
vector 165  Network.dyn_peer[23]  lookupHopsSig:vector  ETV
165	521125 6994 763 66272 24020.2 2040020.71674745967 256 0 2 336 514
vector 166  Network.dyn_peer[23]  lookupStabilitySig:vector  ETV
166	528119 7893 763 66272 24020.2 2040020.71674745967 256 0.75 1 214 180.03125
vector 167  Network.dyn_peer[23]  lookupTimeSig:vector  ETV
167	536012 7488 763 66272 24020.2 2040020.71674745967 256 0 0.3 52.8 12.16
vector 168  Network.dyn_peer[24]  lookupHopsSig:vector  ETV
168	543500 7052 794 66304 25020.2 2041020.924160587076 256 0 2 347 535
vector 169  Network.dyn_peer[24]  lookupStabilitySig:vector  ETV
169	550552 7970 794 66304 25020.2 2041020.924160587076 256 0.75 1 212.625 177.609375
vector 170  Network.dyn_peer[24]  lookupTimeSig:vector  ETV
170	558522 7558 794 66304 25020.2 2041020.924160587076 256 0 0.3 53.9 12.47
vector 171  Network.dyn_peer[25]  lookupHopsSig:vector  ETV
171	566080 7018 825 66337 26020.2 2042020.927074884187 256 0 2 345 539
vector 172  Network.dyn_peer[25]  lookupStabilitySig:vector  ETV
172	573098 7913 825 66337 26020.2 2042020.927074884187 256 0.75 1 212.875 178.171875
vector 173  Network.dyn_peer[25]  lookupTimeSig:vector  ETV
173	581011 7514 825 66337 26020.2 2042020.927074884187 256 0 0.3 53.7 12.67
vector 174  Network.dyn_peer[26]  lookupHopsSig:vector  ETV
174	588525 7058 855 66366 27020.1 2043020.724820548574 256 0 2 326 474
vector 175  Network.dyn_peer[26]  lookupStabilitySig:vector  ETV
175	595583 7992 855 66366 27020.1 2043020.724820548574 256 0.75 1 215.25 181.90625
vector 176  Network.dyn_peer[26]  lookupTimeSig:vector  ETV
176	603575 7562 855 66366 27020.1 2043020.724820548574 256 0 0.3 51.8 11.56
vector 177  Network.dyn_peer[27]  lookupHopsSig:vector  ETV
177	611137 7078 887 66394 28020.2 2044020.70997496171 256 0 2 319 465
vector 178  Network.dyn_peer[27]  lookupStabilitySig:vector  ETV
178	618215 7989 887 66394 28020.2 2044020.70997496171 256 0.75 1 216.125 183.515625
vector 179  Network.dyn_peer[27]  lookupTimeSig:vector  ETV
179	626204 7570 887 66394 28020.2 2044020.70997496171 256 0 0.3 51.1 11.49
vector 180  Network.dyn_peer[28]  lookupHopsSig:vector  ETV
180	633774 6988 921 66426 29020.2 2045021.019144800737 256 0 2 329 499
vector 181  Network.dyn_peer[28]  lookupStabilitySig:vector  ETV
181	640762 7879 921 66426 29020.2 2045021.019144800737 256 0.75 1 214.875 181.546875
vector 182  Network.dyn_peer[28]  lookupTimeSig:vector  ETV
182	648641 7476 921 66426 29020.2 2045021.019144800737 256 0 0.3 52.1 12.11
vector 183  Network.dyn_peer[29]  lookupHopsSig:vector  ETV
183	656117 7018 950 66459 30020.1 2046020.746367212168 256 0 2 340 528
vector 184  Network.dyn_peer[29]  lookupStabilitySig:vector  ETV
184	663135 7908 950 66459 30020.1 2046020.746367212168 256 0.75 1 213.5 179.25
vector 185  Network.dyn_peer[29]  lookupTimeSig:vector  ETV
185	671043 7510 950 66459 30020.1 2046020.746367212168 256 0 0.3 53.2 12.38
vector 186  Network.dyn_peer[30]  lookupHopsSig:vector  ETV
186	678553 6926 978 66488 31020.1 2047020.7140146266 256 0 2 329 497
vector 187  Network.dyn_peer[30]  lookupStabilitySig:vector  ETV
187	685479 7822 978 66488 31020.1 2047020.7140146266 256 0.75 1 214.875 181.515625
vector 188  Network.dyn_peer[30]  lookupTimeSig:vector  ETV
188	693301 7416 978 66488 31020.1 2047020.7140146266 256 0 0.3 52.1 11.93
vector 189  Network.dyn_peer[31]  lookupHopsSig:vector  ETV
189	700717 7056 1006 66519 32020.1 2048020.725179030686 256 0 2 329 481
vector 190  Network.dyn_peer[31]  lookupStabilitySig:vector  ETV
190	707773 7992 1006 66519 32020.1 2048020.725179030686 256 0.75 1 214.875 181.265625
vector 191  Network.dyn_peer[31]  lookupTimeSig:vector  ETV
191	715765 7562 1006 66519 32020.1 2048020.725179030686 256 0 0.3 52.1 11.69
