file 879623 1369674159                                          
version 2
run Stability-norelink-83-20130525-23:19:32-22103
attr configname Stability-norelink
attr datetime 20130525-23:19:32
attr experiment Stability
attr inifile omnetpp.ini
attr iterationvars $0=1e-2
attr iterationvars2 "$0=1e-2, $repetition=3"
attr measurement $0=1e-2
attr network Network
attr processid 22103
attr repetition 3
attr replication #3
attr resultdir results
attr runnumber 83
attr seedset 83
vector 8004  Network.dyn_peer[12]  lookupHopsSig:vector  ETV
8004	333746 8809 67 138668 20.00013 136.696442336614 300 0 19 1298 8366
vector 8005  Network.dyn_peer[12]  lookupStabilitySig:vector  ETV
8005	342555 9802 67 138668 20.00013 136.696442336614 300 -1.375 1 137.86111108959 106.3163580085
vector 8006  Network.dyn_peer[12]  lookupTimeSig:vector  ETV
8006	352357 9368 67 138668 20.00013 136.696442336614 300 0 1.7 143.1 89.41
vector 8013  Network.dyn_peer[15]  lookupHopsSig:vector  ETV
8013	412633 9018 80 138921 20.00016 137.011144606622 307 0 17 1213 7051
vector 8014  Network.dyn_peer[15]  lookupStabilitySig:vector  ETV
8014	421651 9979 80 138921 20.00016 137.011144606622 307 -1.125 1 155.375 113.921875
vector 8015  Network.dyn_peer[15]  lookupTimeSig:vector  ETV
8015	431630 9598 80 138921 20.00016 137.011144606622 307 0 1.5 137.2 80.04
vector 8019  Network.dyn_peer[17]  lookupHopsSig:vector  ETV
8019	468225 9182 90 138576 20.00018 136.601145593883 312 0 19 1270 8280
vector 8020  Network.dyn_peer[17]  lookupStabilitySig:vector  ETV
8020	477407 10223 90 138576 20.00018 136.601145593883 312 -1.375 1 153.31944441795 123.93190584065
vector 8021  Network.dyn_peer[17]  lookupTimeSig:vector  ETV
8021	487630 9763 90 138576 20.00018 136.601145593883 312 0 1.6 141.4 88.18
vector 8049  Network.dyn_peer[27]  lookupHopsSig:vector  ETV
8049	744392 8046 124 139206 20.00028 137.623489106657 273 0 15 1224 8184
vector 8050  Network.dyn_peer[27]  lookupStabilitySig:vector  ETV
8050	752438 8966 124 139206 20.00028 137.623489106657 273 -0.875 1 120.05555554479 94.953317886517
vector 8051  Network.dyn_peer[27]  lookupTimeSig:vector  ETV
8051	761404 8547 124 139206 20.00028 137.623489106657 273 0 1.4 134.8 88.32
vector 7974  Network.dyn_peer[2]  lookupHopsSig:vector  ETV
7974	59109 9232 146 139147 20.10003 137.447664428141 314 0 24 1266 8284
vector 7975  Network.dyn_peer[2]  lookupStabilitySig:vector  ETV
7975	68341 10272 146 139147 20.10003 137.447664428141 314 -2 1 155.80555555224 126.99614197163
vector 7976  Network.dyn_peer[2]  lookupTimeSig:vector  ETV
7976	78613 9826 146 139147 20.10003 137.447664428141 314 0 1.9 142.3 88.85
vector 7977  Network.dyn_peer[3]  lookupHopsSig:vector  ETV
7977	88439 8375 151 138317 20.10004 136.400964702952 285 0 17 1246 8546
vector 7978  Network.dyn_peer[3]  lookupStabilitySig:vector  ETV
7978	96814 9311 151 138317 20.10004 136.400964702952 285 -1.125 1 129.43055555224 107.07426697163
vector 7979  Network.dyn_peer[3]  lookupTimeSig:vector  ETV
7979	106125 8891 151 138317 20.10004 136.400964702952 285 0 1.6 137.9 91.43
vector 7995  Network.dyn_peer[9]  lookupHopsSig:vector  ETV
7995	249425 8910 161 138957 20.1001 137.045500825124 304 0 19 1308 8878
vector 7996  Network.dyn_peer[9]  lookupStabilitySig:vector  ETV
7996	258335 9909 161 138957 20.1001 137.045500825124 304 -1.375 1 140.54166666418 115.78568672435
vector 7997  Network.dyn_peer[9]  lookupTimeSig:vector  ETV
7997	268244 9483 161 138957 20.1001 137.045500825124 304 0 1.8 147 96.38
vector 8007  Network.dyn_peer[13]  lookupHopsSig:vector  ETV
8007	361725 7917 168 138041 20.10014 136.114301356785 269 0 30 1300 10208
vector 8008  Network.dyn_peer[13]  lookupStabilitySig:vector  ETV
8008	369642 8836 168 138041 20.10014 136.114301356785 269 -2.75 1 106.68055552989 103.67418979384
vector 8009  Network.dyn_peer[13]  lookupTimeSig:vector  ETV
8009	378478 8414 168 138041 20.10014 136.114301356785 269 0 2.5 141.1 104.45
vector 8010  Network.dyn_peer[14]  lookupHopsSig:vector  ETV
8010	386892 8108 173 137694 20.10015 135.711959138021 276 0 17 1295 9007
vector 8011  Network.dyn_peer[14]  lookupStabilitySig:vector  ETV
8011	395000 9019 173 137694 20.10015 135.711959138021 276 -1.125 1 114.26388888061 93.03915894657
vector 8012  Network.dyn_peer[14]  lookupTimeSig:vector  ETV
8012	404019 8614 173 137694 20.10015 135.711959138021 276 0 1.5 141.6 96.34
vector 8052  Network.dyn_peer[28]  lookupHopsSig:vector  ETV
8052	769951 8466 190 139081 20.10029 137.311973026635 287 0 17 1266 8650
vector 8053  Network.dyn_peer[28]  lookupStabilitySig:vector  ETV
8053	778417 9418 190 139081 20.10029 137.311973026635 287 -1.125 1 128.77777777612 105.69868826903
vector 8054  Network.dyn_peer[28]  lookupTimeSig:vector  ETV
8054	787835 9000 190 139081 20.10029 137.311973026635 287 0 1.6 139.4 92.34
vector 8055  Network.dyn_peer[29]  lookupHopsSig:vector  ETV
8055	796835 8494 195 138878 20.1003 136.923890168074 289 0 18 1307 9305
vector 8056  Network.dyn_peer[29]  lookupStabilitySig:vector  ETV
8056	805329 9438 195 138878 20.1003 136.923890168074 289 -1.25 1 125.65277777612 107.68306326903
vector 8057  Network.dyn_peer[29]  lookupTimeSig:vector  ETV
8057	814767 9024 195 138878 20.1003 136.923890168074 289 0 1.7 143 97.92
vector 7968  Network.dyn_peer[0]  lookupHopsSig:vector  ETV
7968	6399 8423 207 138788 20.20001 136.811675288772 286 0 20 1200 8012
vector 7969  Network.dyn_peer[0]  lookupStabilitySig:vector  ETV
7969	14822 9330 207 138788 20.20001 136.811675288772 286 -1.5 1 136 111.1875
vector 7970  Network.dyn_peer[0]  lookupTimeSig:vector  ETV
7970	24152 8945 207 138788 20.20001 136.811675288772 286 0 1.9 134.2 87.3
vector 7971  Network.dyn_peer[1]  lookupHopsSig:vector  ETV
7971	33097 8195 212 137909 20.20002 135.996342336614 278 0 21 1271 9229
vector 7972  Network.dyn_peer[1]  lookupStabilitySig:vector  ETV
7972	41292 9123 212 137909 20.20002 135.996342336614 278 -1.625 1 119.20833332837 104.55420524066
vector 7973  Network.dyn_peer[1]  lookupTimeSig:vector  ETV
7973	50415 8694 212 137909 20.20002 135.996342336614 278 0 2 139.2 97.5
vector 7980  Network.dyn_peer[4]  lookupHopsSig:vector  ETV
7980	115016 8160 218 137602 20.20005 135.617047396116 277 0 24 1233 8631
vector 7981  Network.dyn_peer[4]  lookupStabilitySig:vector  ETV
7981	123176 9058 218 137602 20.20005 135.617047396116 277 -2 1 122.97222220153 103.68248455318
vector 7982  Network.dyn_peer[4]  lookupTimeSig:vector  ETV
7982	132234 8685 218 137602 20.20005 135.617047396116 277 0 2.3 136 91.18
vector 7983  Network.dyn_peer[5]  lookupHopsSig:vector  ETV
7983	140919 7677 223 138843 20.20006 136.901045593883 261 0 18 1179 8385
vector 7984  Network.dyn_peer[5]  lookupStabilitySig:vector  ETV
7984	148596 8568 223 138843 20.20006 136.901045593883 261 -1.25 1 113.69444441795 97.32253084065
vector 7985  Network.dyn_peer[5]  lookupTimeSig:vector  ETV
7985	157164 8158 223 138843 20.20006 136.901045593883 261 0 1.7 129.2 88.04
vector 7992  Network.dyn_peer[8]  lookupHopsSig:vector  ETV
7992	222340 8526 230 138389 20.20009 136.420570734345 290 0 20 1286 8848
vector 7993  Network.dyn_peer[8]  lookupStabilitySig:vector  ETV
7993	230866 9496 230 138389 20.20009 136.420570734345 290 -1.5 1 129.27777777612 106.79243826903
vector 7994  Network.dyn_peer[8]  lookupTimeSig:vector  ETV
7994	240362 9063 230 138389 20.20009 136.420570734345 290 0 1.5 143.2 96.26
vector 8001  Network.dyn_peer[11]  lookupHopsSig:vector  ETV
8001	304978 9046 237 138044 20.20012 136.115053658539 309 0 17 1284 7786
vector 8002  Network.dyn_peer[11]  lookupStabilitySig:vector  ETV
8002	314024 10088 237 138044 20.20012 136.115053658539 309 -1.125 1 148.65277776867 109.73553240189
vector 8003  Network.dyn_peer[11]  lookupTimeSig:vector  ETV
8003	324112 9634 237 138044 20.20012 136.115053658539 309 0 1.5 144.2 85.42
vector 8028  Network.dyn_peer[20]  lookupHopsSig:vector  ETV
8028	552672 8543 248 138306 20.20021 136.396442336614 290 0 20 1266 9056
vector 8029  Network.dyn_peer[20]  lookupStabilitySig:vector  ETV
8029	561215 9511 248 138306 20.20021 136.396442336614 290 -1.5 1 131.84722220153 115.07310955318
vector 8030  Network.dyn_peer[20]  lookupTimeSig:vector  ETV
8030	570726 9078 248 138306 20.20021 136.396442336614 290 0 1.9 139.2 94.24
vector 8034  Network.dyn_peer[22]  lookupHopsSig:vector  ETV
8034	607814 8758 254 139194 20.20023 137.615498319662 298 0 19 1263 7877
vector 8035  Network.dyn_peer[22]  lookupStabilitySig:vector  ETV
8035	616572 9761 254 139194 20.20023 137.615498319662 298 -1.375 1 140.23611110449 105.44540894326
vector 8036  Network.dyn_peer[22]  lookupTimeSig:vector  ETV
8036	626333 9325 254 139194 20.20023 137.615498319662 298 0 1.8 141.4 87.44
vector 8046  Network.dyn_peer[26]  lookupHopsSig:vector  ETV
8046	717998 8309 262 138222 20.20027 136.304710482787 283 0 22 1219 8259
vector 8047  Network.dyn_peer[26]  lookupStabilitySig:vector  ETV
8047	726307 9245 262 138222 20.20027 136.304710482787 283 -1.75 1 130.66666665673 107.3506944312
vector 8048  Network.dyn_peer[26]  lookupTimeSig:vector  ETV
8048	735552 8840 262 138222 20.20027 136.304710482787 283 0 1.8 135.5 87.99
vector 8061  Network.dyn_peer[31]  lookupHopsSig:vector  ETV
8061	850647 9122 271 139180 20.20032 137.599598396489 310 0 29 1301 9177
vector 8062  Network.dyn_peer[31]  lookupStabilitySig:vector  ETV
8062	859769 10138 271 139180 20.20032 137.599598396489 310 -2.625 1 147.375 128.140625
vector 8063  Network.dyn_peer[31]  lookupTimeSig:vector  ETV
8063	869907 9716 271 139180 20.20032 137.599598396489 310 0.1 2.5 143.5 94.33
vector 7986  Network.dyn_peer[6]  lookupHopsSig:vector  ETV
7986	165322 8726 291 137042 20.30007 135.09036970218 297 0 17 1209 7441
vector 7987  Network.dyn_peer[6]  lookupStabilitySig:vector  ETV
7987	174048 9723 291 137042 20.30007 135.09036970218 297 -1.125 1 145.97222220898 111.04938271016
vector 7988  Network.dyn_peer[6]  lookupTimeSig:vector  ETV
7988	183771 9288 291 137042 20.30007 135.09036970218 297 0 1.6 136 81.58
vector 7989  Network.dyn_peer[7]  lookupHopsSig:vector  ETV
7989	193059 9204 296 139101 20.30008 137.339777314065 314 0 21 1241 7693
vector 7990  Network.dyn_peer[7]  lookupStabilitySig:vector  ETV
7990	202263 10272 296 139101 20.30008 137.339777314065 314 -1.625 1 159.09722219408 124.06307868935
vector 7991  Network.dyn_peer[7]  lookupTimeSig:vector  ETV
7991	212535 9805 296 139101 20.30008 137.339777314065 314 0 1.7 140.4 84.52
vector 7998  Network.dyn_peer[10]  lookupHopsSig:vector  ETV
7998	277727 8585 303 137832 20.30011 135.900767324113 292 0 12 1214 7054
vector 7999  Network.dyn_peer[10]  lookupStabilitySig:vector  ETV
7999	286312 9534 303 137832 20.30011 135.900767324113 292 -0.5 1 140.36111110449 98.731095677541
vector 8000  Network.dyn_peer[10]  lookupTimeSig:vector  ETV
8000	295846 9132 303 137832 20.30011 135.900767324113 292 0 1.1 136.1 80.15
vector 8022  Network.dyn_peer[18]  lookupHopsSig:vector  ETV
8022	497393 8255 314 138510 20.30019 136.51948380527 280 0 22 1276 9050
vector 8023  Network.dyn_peer[18]  lookupStabilitySig:vector  ETV
8023	505648 9171 314 138510 20.30019 136.51948380527 280 -1.75 1 120.5 102.40625
vector 8024  Network.dyn_peer[18]  lookupTimeSig:vector  ETV
8024	514819 8770 314 138510 20.30019 136.51948380527 280 0 1.9 141 96.92
vector 8025  Network.dyn_peer[19]  lookupHopsSig:vector  ETV
8025	523589 9159 319 138748 20.3002 136.731560471585 312 0 17 1290 8422
vector 8026  Network.dyn_peer[19]  lookupStabilitySig:vector  ETV
8026	532748 10183 319 138748 20.3002 136.731560471585 312 -1.125 1 150.81944441795 121.15065584065
vector 8027  Network.dyn_peer[19]  lookupTimeSig:vector  ETV
8027	542931 9741 319 138748 20.3002 136.731560471585 312 0 1.5 144.7 91.35
vector 8043  Network.dyn_peer[25]  lookupHopsSig:vector  ETV
8043	689878 8852 329 138087 20.30026 136.127059707909 300 0 24 1272 8312
vector 8044  Network.dyn_peer[25]  lookupStabilitySig:vector  ETV
8044	698730 9856 329 138087 20.30026 136.127059707909 300 -2 1 141.01388888806 111.89949845532
vector 8045  Network.dyn_peer[25]  lookupTimeSig:vector  ETV
8045	708586 9412 329 138087 20.30026 136.127059707909 300 0 2.3 142.8 91.6
vector 8031  Network.dyn_peer[21]  lookupHopsSig:vector  ETV
8031	579804 8816 366 138534 20.40022 136.530149945818 300 0 23 1336 9182
vector 8032  Network.dyn_peer[21]  lookupStabilitySig:vector  ETV
8032	588620 9821 366 138534 20.40022 136.530149945818 300 -1.875 1 133.02777777612 109.51118826903
vector 8033  Network.dyn_peer[21]  lookupTimeSig:vector  ETV
8033	598441 9373 366 138534 20.40022 136.530149945818 300 0 2.1 146.6 97.22
vector 8058  Network.dyn_peer[30]  lookupHopsSig:vector  ETV
8058	823791 8459 378 138244 20.40031 136.310268527508 286 0 22 1325 9545
vector 8059  Network.dyn_peer[30]  lookupStabilitySig:vector  ETV
8059	832250 9423 378 138244 20.40031 136.310268527508 286 -1.75 1 120.54166665673 103.96161264917
vector 8060  Network.dyn_peer[30]  lookupTimeSig:vector  ETV
8060	841673 8974 378 138244 20.40031 136.310268527508 286 0 2 145.2 101.32
vector 8016  Network.dyn_peer[16]  lookupHopsSig:vector  ETV
8016	441228 8490 413 139035 20.50017 137.223389106657 289 0 19 1274 8910
vector 8017  Network.dyn_peer[16]  lookupStabilitySig:vector  ETV
8017	449718 9474 413 139035 20.50017 137.223389106657 289 -1.375 1 130.0000000298 109.45138882266
vector 8018  Network.dyn_peer[16]  lookupTimeSig:vector  ETV
8018	459192 9033 413 139035 20.50017 137.223389106657 289 0 1.6 142.3 96.41
vector 8037  Network.dyn_peer[23]  lookupHopsSig:vector  ETV
8037	635658 9263 422 139052 20.50024 137.243656993033 314 0 28 1358 9692
vector 8038  Network.dyn_peer[23]  lookupStabilitySig:vector  ETV
8038	644921 10328 422 139052 20.50024 137.243656993033 314 -2.5 1 144.43055552244 126.07889657256
vector 8039  Network.dyn_peer[23]  lookupTimeSig:vector  ETV
8039	655249 9854 422 139052 20.50024 137.243656993033 314 0 2.6 152.1 103.79
vector 8040  Network.dyn_peer[24]  lookupHopsSig:vector  ETV
8040	665103 7798 427 139258 20.50025 138.132591926509 264 0 20 1240 8804
vector 8041  Network.dyn_peer[24]  lookupStabilitySig:vector  ETV
8041	672901 8698 427 139258 20.50025 138.132591926509 264 -1.5 1 109.11111108959 91.712577131427
vector 8042  Network.dyn_peer[24]  lookupTimeSig:vector  ETV
8042	681599 8279 427 139258 20.50025 138.132591926509 264 0 1.9 133.8 91.98
