file 906497 1369674155                                          
version 2
run Stability-norelink-102-20130525-23:20:49-22103
attr configname Stability-norelink
attr datetime 20130525-23:20:49
attr experiment Stability
attr inifile omnetpp.ini
attr iterationvars $0=1e-4
attr iterationvars2 "$0=1e-4, $repetition=2"
attr measurement $0=1e-4
attr network Network
attr processid 22103
attr repetition 2
attr replication #2
attr resultdir results
attr runnumber 102
attr seedset 102
vector 9795  Network.dyn_peer[1]  lookupHopsSig:vector  ETV
9795	35675 9235 32 138902 20.0000002 137.9795223999 312 0 40 1367 10541
vector 9796  Network.dyn_peer[1]  lookupStabilitySig:vector  ETV
9796	44910 10266 32 138902 20.0000002 137.9795223999 312 -4 1 141.22222220898 135.06558640283
vector 9797  Network.dyn_peer[1]  lookupTimeSig:vector  ETV
9797	55176 9809 32 138902 20.0000002 137.9795223999 312 0 3.5 150.9 107.65
vector 9798  Network.dyn_peer[2]  lookupHopsSig:vector  ETV
9798	64985 9142 39 138923 20.0000003 138.18345303719 311 0 17 1259 7679
vector 9799  Network.dyn_peer[2]  lookupStabilitySig:vector  ETV
9799	74127 10177 39 138923 20.0000003 138.18345303719 311 -1.125 1 153.70833331347 116.3420138624
vector 9800  Network.dyn_peer[2]  lookupTimeSig:vector  ETV
9800	84304 9728 39 138923 20.0000003 138.18345303719 311 0 1.6 141.6 84.94
vector 9813  Network.dyn_peer[7]  lookupHopsSig:vector  ETV
9813	205270 9361 58 138840 20.0000008 137.698275081168 318 0 15 1222 7288
vector 9814  Network.dyn_peer[7]  lookupStabilitySig:vector  ETV
9814	214631 10435 58 138840 20.0000008 137.698275081168 318 -0.875 1 165.4999999851 126.57330245626
vector 9815  Network.dyn_peer[7]  lookupTimeSig:vector  ETV
9815	225066 9945 58 138840 20.0000008 137.698275081168 318 0 1.5 139.4 82.38
vector 9825  Network.dyn_peer[11]  lookupHopsSig:vector  ETV
9825	317881 9343 74 138749 20.0000012 137.550505805765 317 0 19 1340 8646
vector 9826  Network.dyn_peer[11]  lookupStabilitySig:vector  ETV
9826	327224 10370 74 138749 20.0000012 137.550505805765 317 -1.375 1 149.5 117.09375
vector 9827  Network.dyn_peer[11]  lookupTimeSig:vector  ETV
9827	337594 9934 74 138749 20.0000012 137.550505805765 317 0 2 150.4 96.72
vector 9849  Network.dyn_peer[19]  lookupHopsSig:vector  ETV
9849	542266 8547 102 138673 20.000002 137.403168486704 290 0 33 1293 9909
vector 9850  Network.dyn_peer[19]  lookupStabilitySig:vector  ETV
9850	550813 9477 102 138673 20.000002 137.403168486704 290 -3.125 1 128.375 121.578125
vector 9851  Network.dyn_peer[19]  lookupTimeSig:vector  ETV
9851	560290 9062 102 138673 20.000002 137.403168486704 290 0 2.9 141.4 102.12
vector 9792  Network.dyn_peer[0]  lookupHopsSig:vector  ETV
9792	6402 9213 147 137011 20.1000001 135.948142740545 313 0 20 1227 7357
vector 9793  Network.dyn_peer[0]  lookupStabilitySig:vector  ETV
9793	15615 10242 147 137011 20.1000001 135.948142740545 313 -1.5 1 159.70833332837 121.30420524066
vector 9794  Network.dyn_peer[0]  lookupTimeSig:vector  ETV
9794	25857 9818 147 137011 20.1000001 135.948142740545 313 0 1.8 137.6 81.5
vector 9801  Network.dyn_peer[3]  lookupHopsSig:vector  ETV
9801	94032 8677 153 138054 20.1000004 136.869235237819 295 0 30 1227 8695
vector 9802  Network.dyn_peer[3]  lookupStabilitySig:vector  ETV
9802	102709 9657 153 138054 20.1000004 136.869235237819 295 -2.75 1 141.65277777612 124.15181326903
vector 9803  Network.dyn_peer[3]  lookupTimeSig:vector  ETV
9803	112366 9228 153 138054 20.1000004 136.869235237819 295 0 2.5 136 90.26
vector 9810  Network.dyn_peer[6]  lookupHopsSig:vector  ETV
9810	178641 8382 160 138807 20.1000007 137.610770649346 285 0 19 1234 8794
vector 9811  Network.dyn_peer[6]  lookupStabilitySig:vector  ETV
9811	187023 9342 160 138807 20.1000007 137.610770649346 285 -1.375 1 130.97222220898 113.87191355081
vector 9812  Network.dyn_peer[6]  lookupTimeSig:vector  ETV
9812	196365 8905 160 138807 20.1000007 137.610770649346 285 0 1.7 135.8 90.9
vector 9840  Network.dyn_peer[16]  lookupHopsSig:vector  ETV
9840	460593 8393 173 138500 20.1000017 137.272881174015 285 0 23 1294 9044
vector 9841  Network.dyn_peer[16]  lookupStabilitySig:vector  ETV
9841	468986 9333 173 138500 20.1000017 137.272881174015 285 -1.875 1 123.27777777612 102.85493826903
vector 9842  Network.dyn_peer[16]  lookupTimeSig:vector  ETV
9842	478319 8913 173 138500 20.1000017 137.272881174015 285 0 2.1 140.4 92.54
vector 9846  Network.dyn_peer[18]  lookupHopsSig:vector  ETV
9846	515322 8495 179 137512 20.1000019 136.362159261059 287 0 20 1336 9678
vector 9847  Network.dyn_peer[18]  lookupStabilitySig:vector  ETV
9847	523817 9428 179 137512 20.1000019 136.362159261059 287 -1.5 1 120 104.21875
vector 9848  Network.dyn_peer[18]  lookupTimeSig:vector  ETV
9848	533245 9021 179 137512 20.1000019 136.362159261059 287 0 1.8 147.8 103.52
vector 9855  Network.dyn_peer[21]  lookupHopsSig:vector  ETV
9855	594435 9132 185 138334 20.1000022 137.110219069709 310 0 18 1258 7992
vector 9856  Network.dyn_peer[21]  lookupStabilitySig:vector  ETV
9856	603567 10154 185 138334 20.1000022 137.110219069709 310 -1.25 1 152.83333331347 120.42361109787
vector 9857  Network.dyn_peer[21]  lookupTimeSig:vector  ETV
9857	613721 9719 185 138334 20.1000022 137.110219069709 310 0 1.6 143 89.62
vector 9867  Network.dyn_peer[25]  lookupHopsSig:vector  ETV
9867	703381 8559 193 138459 20.1000026 137.202519711578 290 0 24 1366 10320
vector 9868  Network.dyn_peer[25]  lookupStabilitySig:vector  ETV
9868	711940 9526 193 138459 20.1000026 137.202519711578 290 -2 1 119.26388888806 109.77449845532
vector 9869  Network.dyn_peer[25]  lookupTimeSig:vector  ETV
9869	721466 9092 193 138459 20.1000026 137.202519711578 290 0.1 2.2 149.3 106.21
vector 9873  Network.dyn_peer[27]  lookupHopsSig:vector  ETV
9873	759802 7944 199 137735 20.1000028 136.571042758563 270 0 23 1181 8321
vector 9874  Network.dyn_peer[27]  lookupStabilitySig:vector  ETV
9874	767746 8879 199 137735 20.1000028 136.571042758563 270 -1.875 1 122.41666665673 104.8194444312
vector 9875  Network.dyn_peer[27]  lookupTimeSig:vector  ETV
9875	776625 8451 199 137735 20.1000028 136.571042758563 270 0 2.2 130 86.54
vector 9876  Network.dyn_peer[28]  lookupHopsSig:vector  ETV
9876	785076 9211 204 137914 20.1000029 136.767048217851 313 0 29 1341 9375
vector 9877  Network.dyn_peer[28]  lookupStabilitySig:vector  ETV
9877	794287 10239 204 137914 20.1000029 136.767048217851 313 -2.625 1 145.41666665673 124.2881944312
vector 9878  Network.dyn_peer[28]  lookupTimeSig:vector  ETV
9878	804526 9781 204 137914 20.1000029 136.767048217851 313 0 2.8 150 102.48
vector 9885  Network.dyn_peer[31]  lookupHopsSig:vector  ETV
9885	875351 9815 211 138509 20.1000032 137.274304861266 334 0 19 1333 8735
vector 9886  Network.dyn_peer[31]  lookupStabilitySig:vector  ETV
9886	885166 10903 211 138509 20.1000032 137.274304861266 334 -1.375 1 167.55555552244 137.30362651819
vector 9887  Network.dyn_peer[31]  lookupTimeSig:vector  ETV
9887	896069 10428 211 138509 20.1000032 137.274304861266 334 0 1.8 150.4 95.56
vector 9807  Network.dyn_peer[5]  lookupHopsSig:vector  ETV
9807	152070 8363 226 138612 20.2000006 137.374204861266 284 0 17 1232 8346
vector 9808  Network.dyn_peer[5]  lookupStabilitySig:vector  ETV
9808	160433 9303 226 138612 20.2000006 137.374204861266 284 -1.125 1 130.15277772397 106.3805941461
vector 9809  Network.dyn_peer[5]  lookupTimeSig:vector  ETV
9809	169736 8905 226 138612 20.2000006 137.374204861266 284 0 1.5 134.9 87.05
vector 9819  Network.dyn_peer[9]  lookupHopsSig:vector  ETV
9819	264310 8660 233 137487 20.200001 136.334908764702 295 1 28 1360 10066
vector 9820  Network.dyn_peer[9]  lookupStabilitySig:vector  ETV
9820	272970 9679 233 137487 20.200001 136.334908764702 295 -2.5 0.875 125.20833337307 111.96006939146
vector 9821  Network.dyn_peer[9]  lookupTimeSig:vector  ETV
9821	282649 9210 233 137487 20.200001 136.334908764702 295 0.1 2.6 148.9 105.13
vector 9828  Network.dyn_peer[12]  lookupHopsSig:vector  ETV
9828	347528 8576 241 137999 20.2000013 136.801581077032 291 0 22 1190 8022
vector 9829  Network.dyn_peer[12]  lookupStabilitySig:vector  ETV
9829	356104 9543 241 137999 20.2000013 136.801581077032 291 -1.75 1 142.25 118.84375
vector 9830  Network.dyn_peer[12]  lookupTimeSig:vector  ETV
9830	365647 9108 241 137999 20.2000013 136.801581077032 291 0 2.1 134.2 87.62
vector 9834  Network.dyn_peer[14]  lookupHopsSig:vector  ETV
9834	406677 7883 247 137329 20.2000015 136.191910144033 268 0 20 1167 7833
vector 9835  Network.dyn_peer[14]  lookupStabilitySig:vector  ETV
9835	414560 8856 247 137329 20.2000015 136.191910144033 268 -1.5 1 122.44444438815 98.67283951206
vector 9836  Network.dyn_peer[14]  lookupTimeSig:vector  ETV
9836	423416 8385 247 137329 20.2000015 136.191910144033 268 0.1 1.9 129.6 83.74
vector 9843  Network.dyn_peer[17]  lookupHopsSig:vector  ETV
9843	487232 8838 253 137680 20.2000018 136.490784608695 300 0 18 1302 8470
vector 9844  Network.dyn_peer[17]  lookupStabilitySig:vector  ETV
9844	496070 9852 253 137680 20.2000018 136.490784608695 300 -1.25 1 137.29166666418 106.91068672435
vector 9845  Network.dyn_peer[17]  lookupTimeSig:vector  ETV
9845	505922 9400 253 137680 20.2000018 136.490784608695 300 0 1.7 144.9 93.13
vector 9858  Network.dyn_peer[22]  lookupHopsSig:vector  ETV
9858	623440 8611 260 138101 20.2000023 136.888308826523 293 0 33 1251 8969
vector 9859  Network.dyn_peer[22]  lookupStabilitySig:vector  ETV
9859	632051 9599 260 138101 20.2000023 136.888308826523 293 -3.125 1 136.625 120.390625
vector 9860  Network.dyn_peer[22]  lookupTimeSig:vector  ETV
9860	641650 9159 260 138101 20.2000023 136.888308826523 293 0 2.9 139.3 94.07
vector 9879  Network.dyn_peer[29]  lookupHopsSig:vector  ETV
9879	814307 9648 270 138396 20.200003 137.181618397283 328 0 19 1340 8696
vector 9880  Network.dyn_peer[29]  lookupStabilitySig:vector  ETV
9880	823955 10778 270 138396 20.200003 137.181618397283 328 -1.375 1 160.65277773142 129.03954470305
vector 9881  Network.dyn_peer[29]  lookupTimeSig:vector  ETV
9881	834733 10268 270 138396 20.200003 137.181618397283 328 0 1.8 151.3 96.73
vector 9882  Network.dyn_peer[30]  lookupHopsSig:vector  ETV
9882	845001 9554 275 136797 20.2000031 135.76417616879 325 0 22 1265 7495
vector 9883  Network.dyn_peer[30]  lookupStabilitySig:vector  ETV
9883	854555 10620 275 136797 20.2000031 135.76417616879 325 -1.75 1 167.02777776122 125.92554010874
vector 9884  Network.dyn_peer[30]  lookupTimeSig:vector  ETV
9884	865175 10176 275 136797 20.2000031 135.76417616879 325 0 2.1 141.7 83.05
vector 9864  Network.dyn_peer[24]  lookupHopsSig:vector  ETV
9864	676802 8370 310 137936 20.3000025 136.776191610258 285 0 29 1231 8575
vector 9865  Network.dyn_peer[24]  lookupStabilitySig:vector  ETV
9865	685172 9309 310 137936 20.3000025 136.776191610258 285 -2.625 1 131.20833332837 111.33545524066
vector 9866  Network.dyn_peer[24]  lookupTimeSig:vector  ETV
9866	694481 8900 310 137936 20.3000025 136.776191610258 285 0 2.6 136.8 90.82
vector 9870  Network.dyn_peer[26]  lookupHopsSig:vector  ETV
9870	730558 9197 316 138444 20.3000027 137.19559961708 314 0 22 1225 7761
vector 9871  Network.dyn_peer[26]  lookupStabilitySig:vector  ETV
9871	739755 10260 316 138444 20.3000027 137.19559961708 314 -1.75 1 160.94444441795 129.07253084065
vector 9872  Network.dyn_peer[26]  lookupTimeSig:vector  ETV
9872	750015 9787 316 138444 20.3000027 137.19559961708 314 0 1.9 139.8 85.48
vector 9804  Network.dyn_peer[4]  lookupHopsSig:vector  ETV
9804	121594 9602 347 138781 20.4000005 137.58438664479 326 0 19 1350 8946
vector 9805  Network.dyn_peer[4]  lookupStabilitySig:vector  ETV
9805	131196 10656 347 138781 20.4000005 137.58438664479 326 -1.375 1 157.44444441795 128.44714504112
vector 9806  Network.dyn_peer[4]  lookupTimeSig:vector  ETV
9806	141852 10218 347 138781 20.4000005 137.58438664479 326 0 1.8 151.2 97.84
vector 9822  Network.dyn_peer[10]  lookupHopsSig:vector  ETV
9822	291859 8187 357 137768 20.4000011 136.585502719984 277 0 18 1242 8788
vector 9823  Network.dyn_peer[10]  lookupStabilitySig:vector  ETV
9823	300046 9143 357 137768 20.4000011 136.585502719984 277 -1.25 1 121.93055552244 103.89486880803
vector 9824  Network.dyn_peer[10]  lookupTimeSig:vector  ETV
9824	309189 8692 357 137768 20.4000011 136.585502719984 277 0 1.7 137 93.3
vector 9837  Network.dyn_peer[15]  lookupHopsSig:vector  ETV
9837	431801 9063 365 137947 20.4000016 136.779357699229 308 0 18 1255 7681
vector 9838  Network.dyn_peer[15]  lookupStabilitySig:vector  ETV
9838	440864 10103 365 137947 20.4000016 136.779357699229 308 -1.25 1 151.26388886571 114.40567127753
vector 9839  Network.dyn_peer[15]  lookupTimeSig:vector  ETV
9839	450967 9626 365 137947 20.4000016 136.779357699229 308 0 1.7 140.4 85.3
vector 9852  Network.dyn_peer[20]  lookupHopsSig:vector  ETV
9852	569352 7914 371 138087 20.4000021 136.882791092958 269 0 26 1377 11983
vector 9853  Network.dyn_peer[20]  lookupStabilitySig:vector  ETV
9853	577266 8773 371 138087 20.4000021 136.882791092958 269 -2.25 1 97.013888835907 111.93422069079
vector 9854  Network.dyn_peer[20]  lookupTimeSig:vector  ETV
9854	586039 8396 371 138087 20.4000021 136.882791092958 269 0 2.4 148 119.6
vector 9861  Network.dyn_peer[23]  lookupHopsSig:vector  ETV
9861	650809 8192 378 137574 20.4000024 136.392964159925 278 0 28 1246 9078
vector 9862  Network.dyn_peer[23]  lookupStabilitySig:vector  ETV
9862	659001 9100 378 137574 20.4000024 136.392964159925 278 -2.5 1 122.30555555224 108.40239197163
vector 9863  Network.dyn_peer[23]  lookupTimeSig:vector  ETV
9863	668101 8701 378 137574 20.4000024 136.392964159925 278 0 2.3 136.3 92.99
vector 9831  Network.dyn_peer[13]  lookupHopsSig:vector  ETV
9831	374755 10055 435 138614 20.5000014 137.374304861266 341 0 17 1281 7443
vector 9832  Network.dyn_peer[13]  lookupStabilitySig:vector  ETV
9832	384810 11163 435 138614 20.5000014 137.374304861266 341 -1.125 1 180.93055554479 137.12519288652
vector 9833  Network.dyn_peer[13]  lookupTimeSig:vector  ETV
9833	395973 10704 435 138614 20.5000014 137.374304861266 341 0 1.6 147.1 84.45
vector 9816  Network.dyn_peer[8]  lookupHopsSig:vector  ETV
9816	235011 9227 486 138185 20.6000009 136.975133638837 313 0 23 1275 8517
vector 9817  Network.dyn_peer[8]  lookupStabilitySig:vector  ETV
9817	244238 10261 486 138185 20.6000009 136.975133638837 313 -1.875 1 153.68055554479 127.40644288652
vector 9818  Network.dyn_peer[8]  lookupTimeSig:vector  ETV
9818	254499 9811 486 138185 20.6000009 136.975133638837 313 0 2.1 144.2 93.48
