file 927499 1369516927                                          
version 2
run Stability-norelink-120-20130525-23:22:03-22103
attr configname Stability-norelink
attr datetime 20130525-23:22:03
attr experiment Stability
attr inifile omnetpp.ini
attr iterationvars $0=1e-6
attr iterationvars2 "$0=1e-6, $repetition=0"
attr measurement $0=1e-6
attr network Network
attr processid 22103
attr repetition 0
attr replication #0
attr resultdir results
attr runnumber 120
attr seedset 120

vector 11526  Network.dyn_peer[2]  lookupHopsSig:vector  ETV
vector 11527  Network.dyn_peer[2]  lookupStabilitySig:vector  ETV
vector 11528  Network.dyn_peer[2]  lookupTimeSig:vector  ETV
vector 11532  Network.dyn_peer[4]  lookupHopsSig:vector  ETV
vector 11533  Network.dyn_peer[4]  lookupStabilitySig:vector  ETV
vector 11534  Network.dyn_peer[4]  lookupTimeSig:vector  ETV
vector 11565  Network.dyn_peer[15]  lookupHopsSig:vector  ETV
vector 11566  Network.dyn_peer[15]  lookupStabilitySig:vector  ETV
vector 11567  Network.dyn_peer[15]  lookupTimeSig:vector  ETV
vector 11535  Network.dyn_peer[5]  lookupHopsSig:vector  ETV
vector 11536  Network.dyn_peer[5]  lookupStabilitySig:vector  ETV
vector 11537  Network.dyn_peer[5]  lookupTimeSig:vector  ETV
vector 11538  Network.dyn_peer[6]  lookupHopsSig:vector  ETV
vector 11539  Network.dyn_peer[6]  lookupStabilitySig:vector  ETV
vector 11540  Network.dyn_peer[6]  lookupTimeSig:vector  ETV
vector 11568  Network.dyn_peer[16]  lookupHopsSig:vector  ETV
vector 11569  Network.dyn_peer[16]  lookupStabilitySig:vector  ETV
vector 11570  Network.dyn_peer[16]  lookupTimeSig:vector  ETV
vector 11577  Network.dyn_peer[19]  lookupHopsSig:vector  ETV
vector 11578  Network.dyn_peer[19]  lookupStabilitySig:vector  ETV
vector 11579  Network.dyn_peer[19]  lookupTimeSig:vector  ETV
vector 11580  Network.dyn_peer[20]  lookupHopsSig:vector  ETV
vector 11581  Network.dyn_peer[20]  lookupStabilitySig:vector  ETV
vector 11582  Network.dyn_peer[20]  lookupTimeSig:vector  ETV
vector 11583  Network.dyn_peer[21]  lookupHopsSig:vector  ETV
vector 11584  Network.dyn_peer[21]  lookupStabilitySig:vector  ETV
vector 11585  Network.dyn_peer[21]  lookupTimeSig:vector  ETV
vector 11604  Network.dyn_peer[28]  lookupHopsSig:vector  ETV
vector 11605  Network.dyn_peer[28]  lookupStabilitySig:vector  ETV
vector 11606  Network.dyn_peer[28]  lookupTimeSig:vector  ETV
vector 11607  Network.dyn_peer[29]  lookupHopsSig:vector  ETV
vector 11608  Network.dyn_peer[29]  lookupStabilitySig:vector  ETV
vector 11609  Network.dyn_peer[29]  lookupTimeSig:vector  ETV
vector 11520  Network.dyn_peer[0]  lookupHopsSig:vector  ETV
vector 11521  Network.dyn_peer[0]  lookupStabilitySig:vector  ETV
vector 11522  Network.dyn_peer[0]  lookupTimeSig:vector  ETV
vector 11523  Network.dyn_peer[1]  lookupHopsSig:vector  ETV
vector 11524  Network.dyn_peer[1]  lookupStabilitySig:vector  ETV
vector 11525  Network.dyn_peer[1]  lookupTimeSig:vector  ETV
vector 11541  Network.dyn_peer[7]  lookupHopsSig:vector  ETV
vector 11542  Network.dyn_peer[7]  lookupStabilitySig:vector  ETV
vector 11543  Network.dyn_peer[7]  lookupTimeSig:vector  ETV
vector 11550  Network.dyn_peer[10]  lookupHopsSig:vector  ETV
vector 11551  Network.dyn_peer[10]  lookupStabilitySig:vector  ETV
vector 11552  Network.dyn_peer[10]  lookupTimeSig:vector  ETV
vector 11553  Network.dyn_peer[11]  lookupHopsSig:vector  ETV
vector 11554  Network.dyn_peer[11]  lookupStabilitySig:vector  ETV
vector 11555  Network.dyn_peer[11]  lookupTimeSig:vector  ETV
vector 11556  Network.dyn_peer[12]  lookupHopsSig:vector  ETV
vector 11557  Network.dyn_peer[12]  lookupStabilitySig:vector  ETV
vector 11558  Network.dyn_peer[12]  lookupTimeSig:vector  ETV
vector 11562  Network.dyn_peer[14]  lookupHopsSig:vector  ETV
vector 11563  Network.dyn_peer[14]  lookupStabilitySig:vector  ETV
vector 11564  Network.dyn_peer[14]  lookupTimeSig:vector  ETV
vector 11589  Network.dyn_peer[23]  lookupHopsSig:vector  ETV
vector 11590  Network.dyn_peer[23]  lookupStabilitySig:vector  ETV
vector 11591  Network.dyn_peer[23]  lookupTimeSig:vector  ETV
vector 11598  Network.dyn_peer[26]  lookupHopsSig:vector  ETV
vector 11599  Network.dyn_peer[26]  lookupStabilitySig:vector  ETV
vector 11600  Network.dyn_peer[26]  lookupTimeSig:vector  ETV
vector 11610  Network.dyn_peer[30]  lookupHopsSig:vector  ETV
vector 11611  Network.dyn_peer[30]  lookupStabilitySig:vector  ETV
vector 11612  Network.dyn_peer[30]  lookupTimeSig:vector  ETV
vector 11613  Network.dyn_peer[31]  lookupHopsSig:vector  ETV
vector 11614  Network.dyn_peer[31]  lookupStabilitySig:vector  ETV
vector 11615  Network.dyn_peer[31]  lookupTimeSig:vector  ETV
vector 11547  Network.dyn_peer[9]  lookupHopsSig:vector  ETV
vector 11548  Network.dyn_peer[9]  lookupStabilitySig:vector  ETV
vector 11549  Network.dyn_peer[9]  lookupTimeSig:vector  ETV
vector 11586  Network.dyn_peer[22]  lookupHopsSig:vector  ETV
vector 11587  Network.dyn_peer[22]  lookupStabilitySig:vector  ETV
vector 11588  Network.dyn_peer[22]  lookupTimeSig:vector  ETV
vector 11592  Network.dyn_peer[24]  lookupHopsSig:vector  ETV
vector 11593  Network.dyn_peer[24]  lookupStabilitySig:vector  ETV
vector 11594  Network.dyn_peer[24]  lookupTimeSig:vector  ETV
vector 11595  Network.dyn_peer[25]  lookupHopsSig:vector  ETV
vector 11596  Network.dyn_peer[25]  lookupStabilitySig:vector  ETV
vector 11597  Network.dyn_peer[25]  lookupTimeSig:vector  ETV
vector 11601  Network.dyn_peer[27]  lookupHopsSig:vector  ETV
vector 11602  Network.dyn_peer[27]  lookupStabilitySig:vector  ETV
vector 11603  Network.dyn_peer[27]  lookupTimeSig:vector  ETV
vector 11544  Network.dyn_peer[8]  lookupHopsSig:vector  ETV
vector 11545  Network.dyn_peer[8]  lookupStabilitySig:vector  ETV
vector 11546  Network.dyn_peer[8]  lookupTimeSig:vector  ETV
vector 11571  Network.dyn_peer[17]  lookupHopsSig:vector  ETV
vector 11572  Network.dyn_peer[17]  lookupStabilitySig:vector  ETV
vector 11573  Network.dyn_peer[17]  lookupTimeSig:vector  ETV
vector 11574  Network.dyn_peer[18]  lookupHopsSig:vector  ETV
vector 11575  Network.dyn_peer[18]  lookupStabilitySig:vector  ETV
vector 11576  Network.dyn_peer[18]  lookupTimeSig:vector  ETV
vector 11529  Network.dyn_peer[3]  lookupHopsSig:vector  ETV
vector 11530  Network.dyn_peer[3]  lookupStabilitySig:vector  ETV
vector 11531  Network.dyn_peer[3]  lookupTimeSig:vector  ETV
vector 11559  Network.dyn_peer[13]  lookupHopsSig:vector  ETV
vector 11560  Network.dyn_peer[13]  lookupStabilitySig:vector  ETV
vector 11561  Network.dyn_peer[13]  lookupTimeSig:vector  ETV
11520	6498 9697 199 133794 20.200000001 131.867883360829 320 0 19 1266 7976
11521	16195 10818 199 133794 20.200000001 131.867883360829 320 -1.375 1 161.90277776122 128.29610337446
11522	27013 10299 199 133794 20.200000001 131.867883360829 320 0 1.5 142 86.48
11523	37312 9408 204 133618 20.200000002 131.702115768121 310 0 17 1309 8485
11524	46720 10416 204 133618 20.200000002 131.702115768121 310 -1.125 1 146.40277777612 115.37056326903
11525	57136 9985 204 133618 20.200000002 131.702115768121 310 0 1.7 146.1 93.17
11526	67121 9177 35 134262 20.000000003 132.248477112072 303 0 22 1317 8691
11527	76298 10149 35 134262 20.000000003 132.248477112072 303 -1.75 1 138.48611109704 109.60513116548
11528	86447 9737 35 134262 20.000000003 132.248477112072 303 0 1.9 147.7 96.71
11529	96184 9149 403 134018 20.500000004 132.061752834752 301 0 14 1203 7353
11530	105333 10176 403 134018 20.500000004 132.061752834752 301 -0.75 1 150.625 115.140625
11531	115509 9709 403 134018 20.500000004 132.061752834752 301 0 1.4 135.2 82.06
11532	125218 8763 45 134971 20.000000005 133.069841875236 288 0 19 1237 8021
11533	133981 9687 45 134971 20.000000005 133.069841875236 288 -1.375 1 133.375 104.078125
11534	143668 9295 45 134971 20.000000005 133.069841875236 288 0 1.8 138.2 89.18
11535	152963 9276 140 135179 20.100000006 133.648193860882 305 0 16 1220 7732
11536	162239 10270 140 135179 20.100000006 133.648193860882 305 -1 1 152.5 120.8125
11537	172509 9845 140 135179 20.100000006 133.648193860882 305 0 1.6 137.3 85.11
11538	182354 8451 145 135164 20.100000007 133.573652690314 278 0 24 1259 9215
11539	190805 9374 145 135164 20.100000007 133.573652690314 278 -2 1 120.72222220898 107.26813271016
11540	200179 8963 145 135164 20.100000007 133.573652690314 278 0.1 2.3 140.6 98.44
11541	209142 9689 214 135212 20.200000008 133.899722523829 318 0 19 1300 8104
11542	218831 10727 214 135212 20.200000008 133.899722523829 318 -1.375 1 155.7499999702 119.74459874704
11543	229558 10291 214 135212 20.200000008 133.899722523829 318 0 1.8 145 88.34
11544	239849 9556 350 134053 20.400000009 132.071465650471 314 0 23 1329 9259
11545	249405 10602 350 134053 20.400000009 132.071465650471 314 -1.875 1 147.97222219408 126.52121910968
11546	260007 10128 350 134053 20.400000009 132.071465650471 314 0 2.1 146.5 97.49
11547	270135 8595 292 134915 20.30000001 132.969866693064 282 0 15 1272 8042
11548	278730 9499 292 134915 20.30000001 132.969866693064 282 -0.875 1 123.04166665673 89.710069431199
11549	288229 9118 292 134915 20.30000001 132.969866693064 282 0 1.5 139.7 88.71
11550	297347 8833 221 133725 20.200000011 131.849597110053 291 0 21 1147 7483
11551	306180 9733 221 133725 20.200000011 131.849597110053 291 -1.625 1 147.63888888806 121.19637345532
11552	315913 9372 221 133725 20.200000011 131.849597110053 291 0 2.1 128.5 81.05
11553	325285 10184 226 134987 20.200000012 133.076264537932 336 0 15 1273 7199
11554	335469 11318 226 134987 20.200000012 133.076264537932 336 -0.875 1 177.1249999553 130.39988421842
11555	346787 10834 226 134987 20.200000012 133.076264537932 336 0 1.4 144.3 81.59
11556	357621 8963 231 134242 20.200000013 132.216401350142 296 0 29 1226 8056
11557	366584 9960 231 134242 20.200000013 132.216401350142 296 -2.625 1 142.75 115.375
11558	376544 9535 231 134242 20.200000013 132.216401350142 296 0 2.6 135.4 85.12
11559	386079 8439 413 134588 20.500000014 132.558196854915 278 0 17 1231 8335
11560	394518 9356 413 134588 20.500000014 132.558196854915 278 -1.125 1 124.125 100.484375
11561	403874 8959 413 134588 20.500000014 132.558196854915 278 0 1.7 134.8 90.36
11562	412833 9308 237 135107 20.200000015 133.400327756953 306 0 19 1236 7680
11563	422141 10336 237 135107 20.200000015 133.400327756953 306 -1.375 1 151.51388888806 117.02449845532
11564	432477 9883 237 135107 20.200000015 133.400327756953 306 0 1.8 138.6 85.28
11565	442360 9228 82 135192 20.000000016 133.673154428553 303 0 19 1249 8055
11566	451588 10219 82 135192 20.000000016 133.673154428553 303 -1.375 1 146.91666665673 116.6631944312
11567	461807 9789 82 135192 20.000000016 133.673154428553 303 0 1.7 139.8 87.58
11568	471596 10063 159 134847 20.100000017 132.865126179281 331 0 23 1283 7981
11569	481659 11159 159 134847 20.100000017 132.865126179281 331 -1.875 1 170.73611110449 135.07040894326
11570	492818 10687 159 134847 20.100000017 132.865126179281 331 0 2.2 144.3 89.03
11571	503505 8739 362 134807 20.400000018 132.79147362892 288 0 22 1185 7989
11572	512244 9674 362 134807 20.400000018 132.79147362892 288 -1.75 1 139.91666665673 116.6319444312
11573	521918 9276 362 134807 20.400000018 132.79147362892 288 0 2.1 132.2 86.76
11574	531194 8296 367 133391 20.400000019 131.458508406303 273 0 21 1113 7775
11575	539490 9224 367 133391 20.400000019 131.458508406303 273 -1.625 1 133.95833331347 116.3420138624
11576	548714 8797 367 133391 20.400000019 131.458508406303 273 0 2.2 124.4 83.2
11577	557511 9327 166 134395 20.10000002 132.357654869134 308 0 14 1271 7881
11578	566838 10321 166 134395 20.10000002 132.357654869134 308 -0.75 1 149.23611107469 113.50135027185
11579	577159 9909 166 134395 20.10000002 132.357654869134 308 0 1.4 141.7 87.51
11580	587068 8246 171 134955 20.100000021 133.054508060678 271 0 24 1221 8607
11581	595314 9121 171 134955 20.100000021 133.054508060678 271 -2 1 118.44444443285 100.33063270023
11582	604435 8755 171 134955 20.100000021 133.054508060678 271 0 2.1 134.3 91.77
11583	613190 9317 176 134703 20.100000022 132.674035666573 305 0 20 1238 7962
11584	622507 10300 176 134703 20.100000022 132.674035666573 305 -1.5 1 150.30555555224 119.96489197163
11585	632807 9881 176 134703 20.100000022 132.674035666573 305 0 1.9 139.5 88.21
11586	642688 8699 308 134464 20.300000023 132.403941768885 285 0 19 1229 8357
11587	651387 9656 308 134464 20.300000023 132.403941768885 285 -1.375 1 131.48611107469 108.43885027185
11588	661043 9211 308 134464 20.300000023 132.403941768885 285 0 1.7 137.6 91.14
11589	670254 9010 251 134223 20.200000024 132.209531143587 296 0 20 1160 7686
11590	679264 9997 251 134223 20.200000024 132.209531143587 296 -1.5 1 151.06944441795 126.15065584065
11591	689261 9567 251 134223 20.200000024 132.209531143587 296 0 1.9 131.9 84.05
11592	698828 9409 313 133857 20.300000025 131.946705364652 310 0 17 1199 7465
11593	708237 10414 313 133857 20.300000025 131.946705364652 310 -1.125 1 160.22222220898 126.92438271016
11594	718651 9991 313 133857 20.300000025 131.946705364652 310 0 1.7 134.2 80.16
11595	728642 9436 318 134734 20.300000026 132.71346609831 311 0 25 1229 7997
11596	738078 10506 318 134734 20.300000026 132.71346609831 311 -2.125 1 157.73611105978 129.01215272811
11597	748584 10014 318 134734 20.300000026 132.71346609831 311 0 2.2 137.1 85.69
11598	758598 9154 258 134437 20.200000027 132.37730574931 301 0 18 1165 6957
11599	767752 10166 258 134437 20.200000027 132.37730574931 301 -1.25 1 155.51388883591 118.40297069079
11600	777918 9730 258 134437 20.200000027 132.37730574931 301 0 1.5 132.4 79.18
11601	787648 8727 324 134105 20.300000028 132.112143257509 287 0 24 1164 7174
11602	796375 9673 324 134105 20.300000028 132.112143257509 287 -2 1 141.5 108.09375
11603	806048 9268 324 134105 20.300000028 132.112143257509 287 0 2.2 129.1 78.37
11604	815316 8397 187 133896 20.100000029 131.965063925093 276 1 19 1174 7986
11605	823713 9316 187 133896 20.100000029 131.965063925093 276 -1.375 0.875 129.27777777612 107.32368826903
11606	833029 8912 187 133896 20.100000029 131.965063925093 276 0.1 1.8 129.6 84.72
11607	841941 9037 192 134730 20.10000003 132.711692797492 297 0 33 1224 8520
11608	850978 10065 192 134730 20.10000003 132.711692797492 297 -3.125 1 144.26388882846 124.21662808936
11609	861043 9580 192 134730 20.10000003 132.711692797492 297 0 3.2 136.6 91.52
11610	870623 9111 266 135038 20.200000031 133.191454576436 300 0 20 1221 7365
11611	879734 10063 266 135038 20.200000031 133.191454576436 300 -1.5 1 147.4999999702 109.93055552906
11612	889797 9669 266 135038 20.200000031 133.191454576436 300 0 1.6 135.1 79.37
11613	899466 8845 271 134008 20.200000032 132.060485563052 291 0 16 1206 7292
11614	908311 9791 271 134008 20.200000032 132.060485563052 291 -1 1 140.34722220153 103.56963731772
11615	918102 9397 271 134008 20.200000032 132.060485563052 291 0 1.5 134.3 79.75
