version 2
run Stability-norelink-84-20130525-23:19:36-22103
attr configname Stability-norelink
attr datetime 20130525-23:19:36
attr experiment Stability
attr inifile omnetpp.ini
attr iterationvars $0=1e-2
attr iterationvars2 "$0=1e-2, $repetition=4"
attr measurement $0=1e-2
attr network Network
attr processid 22103
attr repetition 4
attr replication #4
attr resultdir results
attr runnumber 84
attr seedset 84

vector 8145  Network.dyn_peer[27]  lookupHopsSig:vector  ETV
vector 8146  Network.dyn_peer[27]  lookupStabilitySig:vector  ETV
vector 8147  Network.dyn_peer[27]  lookupTimeSig:vector  ETV
vector 8073  Network.dyn_peer[3]  lookupHopsSig:vector  ETV
vector 8074  Network.dyn_peer[3]  lookupStabilitySig:vector  ETV
vector 8075  Network.dyn_peer[3]  lookupTimeSig:vector  ETV
vector 8076  Network.dyn_peer[4]  lookupHopsSig:vector  ETV
vector 8077  Network.dyn_peer[4]  lookupStabilitySig:vector  ETV
vector 8078  Network.dyn_peer[4]  lookupTimeSig:vector  ETV
vector 8091  Network.dyn_peer[9]  lookupHopsSig:vector  ETV
vector 8092  Network.dyn_peer[9]  lookupStabilitySig:vector  ETV
vector 8093  Network.dyn_peer[9]  lookupTimeSig:vector  ETV
vector 8094  Network.dyn_peer[10]  lookupHopsSig:vector  ETV
vector 8095  Network.dyn_peer[10]  lookupStabilitySig:vector  ETV
vector 8096  Network.dyn_peer[10]  lookupTimeSig:vector  ETV
vector 8112  Network.dyn_peer[16]  lookupHopsSig:vector  ETV
vector 8113  Network.dyn_peer[16]  lookupStabilitySig:vector  ETV
vector 8114  Network.dyn_peer[16]  lookupTimeSig:vector  ETV
vector 8115  Network.dyn_peer[17]  lookupHopsSig:vector  ETV
vector 8116  Network.dyn_peer[17]  lookupStabilitySig:vector  ETV
vector 8117  Network.dyn_peer[17]  lookupTimeSig:vector  ETV
vector 8124  Network.dyn_peer[20]  lookupHopsSig:vector  ETV
vector 8125  Network.dyn_peer[20]  lookupStabilitySig:vector  ETV
vector 8126  Network.dyn_peer[20]  lookupTimeSig:vector  ETV
vector 8127  Network.dyn_peer[21]  lookupHopsSig:vector  ETV
vector 8128  Network.dyn_peer[21]  lookupStabilitySig:vector  ETV
vector 8129  Network.dyn_peer[21]  lookupTimeSig:vector  ETV
vector 8133  Network.dyn_peer[23]  lookupHopsSig:vector  ETV
vector 8134  Network.dyn_peer[23]  lookupStabilitySig:vector  ETV
vector 8135  Network.dyn_peer[23]  lookupTimeSig:vector  ETV
vector 8136  Network.dyn_peer[24]  lookupHopsSig:vector  ETV
vector 8137  Network.dyn_peer[24]  lookupStabilitySig:vector  ETV
vector 8138  Network.dyn_peer[24]  lookupTimeSig:vector  ETV
vector 8157  Network.dyn_peer[31]  lookupHopsSig:vector  ETV
vector 8158  Network.dyn_peer[31]  lookupStabilitySig:vector  ETV
vector 8159  Network.dyn_peer[31]  lookupTimeSig:vector  ETV
vector 8064  Network.dyn_peer[0]  lookupHopsSig:vector  ETV
vector 8065  Network.dyn_peer[0]  lookupStabilitySig:vector  ETV
vector 8066  Network.dyn_peer[0]  lookupTimeSig:vector  ETV
vector 8070  Network.dyn_peer[2]  lookupHopsSig:vector  ETV
vector 8071  Network.dyn_peer[2]  lookupStabilitySig:vector  ETV
vector 8072  Network.dyn_peer[2]  lookupTimeSig:vector  ETV
vector 8079  Network.dyn_peer[5]  lookupHopsSig:vector  ETV
vector 8080  Network.dyn_peer[5]  lookupStabilitySig:vector  ETV
vector 8081  Network.dyn_peer[5]  lookupTimeSig:vector  ETV
vector 8088  Network.dyn_peer[8]  lookupHopsSig:vector  ETV
vector 8089  Network.dyn_peer[8]  lookupStabilitySig:vector  ETV
vector 8090  Network.dyn_peer[8]  lookupTimeSig:vector  ETV
vector 8100  Network.dyn_peer[12]  lookupHopsSig:vector  ETV
vector 8101  Network.dyn_peer[12]  lookupStabilitySig:vector  ETV
vector 8102  Network.dyn_peer[12]  lookupTimeSig:vector  ETV
vector 8130  Network.dyn_peer[22]  lookupHopsSig:vector  ETV
vector 8131  Network.dyn_peer[22]  lookupStabilitySig:vector  ETV
vector 8132  Network.dyn_peer[22]  lookupTimeSig:vector  ETV
vector 8139  Network.dyn_peer[25]  lookupHopsSig:vector  ETV
vector 8140  Network.dyn_peer[25]  lookupStabilitySig:vector  ETV
vector 8141  Network.dyn_peer[25]  lookupTimeSig:vector  ETV
vector 8148  Network.dyn_peer[28]  lookupHopsSig:vector  ETV
vector 8149  Network.dyn_peer[28]  lookupStabilitySig:vector  ETV
vector 8150  Network.dyn_peer[28]  lookupTimeSig:vector  ETV
vector 8151  Network.dyn_peer[29]  lookupHopsSig:vector  ETV
vector 8152  Network.dyn_peer[29]  lookupStabilitySig:vector  ETV
vector 8153  Network.dyn_peer[29]  lookupTimeSig:vector  ETV
vector 8154  Network.dyn_peer[30]  lookupHopsSig:vector  ETV
vector 8155  Network.dyn_peer[30]  lookupStabilitySig:vector  ETV
vector 8156  Network.dyn_peer[30]  lookupTimeSig:vector  ETV
vector 8067  Network.dyn_peer[1]  lookupHopsSig:vector  ETV
vector 8068  Network.dyn_peer[1]  lookupStabilitySig:vector  ETV
vector 8069  Network.dyn_peer[1]  lookupTimeSig:vector  ETV
vector 8085  Network.dyn_peer[7]  lookupHopsSig:vector  ETV
vector 8086  Network.dyn_peer[7]  lookupStabilitySig:vector  ETV
vector 8087  Network.dyn_peer[7]  lookupTimeSig:vector  ETV
vector 8097  Network.dyn_peer[11]  lookupHopsSig:vector  ETV
vector 8098  Network.dyn_peer[11]  lookupStabilitySig:vector  ETV
vector 8099  Network.dyn_peer[11]  lookupTimeSig:vector  ETV
vector 8103  Network.dyn_peer[13]  lookupHopsSig:vector  ETV
vector 8104  Network.dyn_peer[13]  lookupStabilitySig:vector  ETV
vector 8105  Network.dyn_peer[13]  lookupTimeSig:vector  ETV
vector 8106  Network.dyn_peer[14]  lookupHopsSig:vector  ETV
vector 8107  Network.dyn_peer[14]  lookupStabilitySig:vector  ETV
vector 8108  Network.dyn_peer[14]  lookupTimeSig:vector  ETV
vector 8142  Network.dyn_peer[26]  lookupHopsSig:vector  ETV
vector 8143  Network.dyn_peer[26]  lookupStabilitySig:vector  ETV
vector 8144  Network.dyn_peer[26]  lookupTimeSig:vector  ETV
vector 8082  Network.dyn_peer[6]  lookupHopsSig:vector  ETV
vector 8083  Network.dyn_peer[6]  lookupStabilitySig:vector  ETV
vector 8084  Network.dyn_peer[6]  lookupTimeSig:vector  ETV
vector 8109  Network.dyn_peer[15]  lookupHopsSig:vector  ETV
vector 8110  Network.dyn_peer[15]  lookupStabilitySig:vector  ETV
vector 8111  Network.dyn_peer[15]  lookupTimeSig:vector  ETV
vector 8118  Network.dyn_peer[18]  lookupHopsSig:vector  ETV
vector 8119  Network.dyn_peer[18]  lookupStabilitySig:vector  ETV
vector 8120  Network.dyn_peer[18]  lookupTimeSig:vector  ETV
vector 8121  Network.dyn_peer[19]  lookupHopsSig:vector  ETV
vector 8122  Network.dyn_peer[19]  lookupStabilitySig:vector  ETV
vector 8123  Network.dyn_peer[19]  lookupTimeSig:vector  ETV
8064	206	20.20001	2
8064	655	21.00001	7
8064	995	21.303521093303	2
8064	2650	22.710113007662	14
8064	2660	22.712260632068	14
8064	2856	22.914103039086	1
8064	3109	23.11613817943	1
8064	3119	23.119519379017	1
8064	3617	23.521906963471	3
8064	3641	23.524851475143	3
8064	3859	23.717601084986	11
8064	4141	23.924724765668	1
8064	4411	24.121055222437	7
8064	4439	24.12720377395	1
8064	4441	24.127720923214	7
8064	4443	24.128983413764	7
8064	5163	24.629093413764	5
8064	5580	24.935087742229	2
8064	5894	25.15131305031	1
8064	6212	25.379046427036	1
8064	6501	25.640169002327	3
8064	6741	25.8497013943	1
8064	7699	26.664098089153	7
8064	7704	26.665288663076	7
8064	7830	26.75784940163	13
8064	7876	26.78510626461	15
8064	8093	26.967126061675	1
8064	8476	27.274780465521	3
8064	9828	28.374780465521	11
8064	10223	28.690758237225	2
8064	10689	29.055552205267	4
8064	11057	29.291587298084	6
8064	11500	29.593414241823	3
8064	11945	29.993414241823	3
8064	12446	30.402796009329	4
8064	12877	30.788407249323	3
8064	13456	31.301494745176	13
8064	13484	31.313750676883	9
8064	13552	31.395752086416	7
8064	13685	31.517867073644	7
8064	13892	31.701549904699	3
8064	13918	31.714638132408	3
8064	14465	32.220857759285	5
8064	16025	33.499130416784	11
8064	16805	34.099130416784	5
8064	17138	34.40643756955	2
8064	17354	34.611890358543	1
8064	17701	35.015930261244	3
8064	18418	35.620308840405	5
8064	18426	35.626213503874	5
8064	19430	36.378868897638	1
8064	20450	37.278978897638	10
8064	21242	37.978978897638	6
8064	21626	38.268679998124	2
8064	21651	38.282354849374	2
8064	22217	38.788492686918	5
8064	23648	39.988492686918	12
8064	23991	40.295389930163	2
8064	24673	40.896755017526	7
8064	25108	41.296755017526	4
8064	25992	42.097885623531	8
8064	26064	42.180074124772	7
8064	26344	42.411264376575	2
8064	26646	42.620663631514	1
8064	26778	42.783721702078	6
8064	28322	43.883831702078	11
8064	28750	44.283831702078	3
8064	29366	44.892239489528	5
8064	29532	45.063954965743	2
8064	30234	45.671722190993	7
8064	31061	46.571722190993	8
8064	32052	47.474214723373	8
8064	32673	47.981262615774	4
8064	33187	48.384615401459	4
8064	33246	48.444856431126	8
8064	33285	48.452153819643	3
8064	33474	48.648553537389	2
8064	33700	48.785397554944	3
8064	34154	49.152519776729	6
8064	34267	49.245124683444	7
8064	34361	49.300825000158	5
8064	34598	49.505769540572	2
8064	35239	50.107256211389	5
8064	35687	50.496772434912	1
8064	35708	50.510520210635	3
8064	36174	50.919311195811	4
8064	36719	51.519311195811	5
8064	37052	51.825071966835	3
8064	37378	52.128157685296	2
8064	37381	52.129027044848	2
8064	37974	52.529710080438	5
8064	38923	53.237834172573	6
8064	39400	53.637834172573	3
8064	39959	54.144604655236	4
8064	40283	54.448200897997	2
8064	40817	54.957321142628	6
8064	41147	55.257321142628	2
8064	41400	55.55997722996	2
8064	42388	56.564463042631	9
8064	43225	57.265244268926	6
8064	43647	57.669726463569	3
8064	44001	57.977612751185	2
8064	45114	58.987389540887	9
8064	45635	59.393217582738	4
8064	45995	59.693217582738	2
8064	46347	59.997372732717	2
8064	46472	60.106869093713	1
8064	46693	60.306869093713	1
8064	48090	61.512282004894	12
8064	48812	62.121666388043	5
8064	49272	62.517347546351	1
8064	49291	62.5268182347	5
8064	49703	62.82321775504	2
8064	50223	63.128126198694	6
8064	50395	63.244622264018	4
8064	50484	63.324350782929	5
8064	50655	63.430282244862	1
8064	51346	63.930282244862	4
8064	51855	64.339981670437	3
8064	52376	64.846886639676	6
8064	53006	65.446886639676	5
8064	53699	66.050860453224	5
8064	53944	66.251155490758	4
8064	54699	66.852894140898	7
8064	55041	67.152894140898	3
8064	55292	67.357852578092	1
8064	55620	67.662212597128	3
8064	56167	68.176762858876	4
8064	56981	68.884497865394	7
8064	57848	69.691481081769	8
8064	58138	69.991481081769	2
8064	59481	71.095810187753	10
8064	59486	71.09748385204	10
8064	60251	71.699485252549	6
8064	60282	71.705699716232	7
8064	60397	71.803711804824	5
8064	60503	71.901009838646	1
8064	60867	72.207823675409	3
8064	60956	72.304698627308	4
8064	61385	72.704960371392	4
8064	61914	73.210756173258	4
8064	62072	73.413274022653	1
8064	62591	73.817661543957	4
8064	63528	74.517661543957	6
8064	63903	74.818667617573	2
8064	64433	75.22021527253	3
8064	64734	75.491282125752	7
8064	64829	75.524512916746	3
8064	64920	75.604457484093	2
8064	65001	75.695435159903	2
8064	65172	75.828410954357	2
8064	65236	75.905004629907	1
8064	65489	76.109078018637	5
8064	65528	76.135540047695	2
8064	66454	76.944044838587	9
8064	66865	77.344044838587	3
8064	67216	77.653198775589	2
8064	68246	78.558923346346	9
8064	69199	79.367060140454	7
8064	69660	79.725938889913	3
8064	70093	80.034805970078	3
8064	71877	81.377740845793	11
8064	72104	81.577740845793	2
8064	72557	81.985708139409	3
8064	73604	82.891680479853	8
8064	73817	83.094735168952	1
8064	73865	83.150143105631	9
8064	73988	83.252326217486	1
8064	74344	83.561817422696	2
8064	74567	83.765807343854	1
8064	74591	83.771747583344	1
8064	74957	84.071857583344	3
8064	75189	84.271857583344	1
8064	76058	84.979977809207	6
8064	76873	85.683789846318	4
8064	77315	86.086178606057	13
8064	77638	86.390034830742	2
8064	78454	87.146911411905	14
8064	79031	87.656620325956	5
8064	80423	88.956620325956	12
8064	81590	89.962558976545	13
8064	82703	90.852667493324	1
8064	83058	91.15681946414	2
8064	83116	91.227189667377	9
8064	83276	91.364752064931	1
8064	83612	91.626251535993	5
8064	83874	91.856599033625	11
8064	84125	92.060894027733	2
8064	84614	92.460894027733	3
8064	84814	92.666138490546	1
8064	85645	93.368129609763	7
8064	86051	93.668129609763	2
8064	86681	94.17656728477	4
8064	86955	94.38128048236	1
8064	86974	94.407648826535	1
8064	87265	94.689224488849	2
8064	87383	94.81104688258	3
8064	87580	95.013682671658	1
8064	87836	95.216927156635	2
8064	88180	95.516927156635	2
8064	88453	95.724372950608	2
8064	88665	95.940755540542	3
8064	88779	96.031153013743	2
8064	89026	96.239615511628	2
8064	89387	96.539615511628	2
8064	89660	96.749418808372	2
8064	90002	97.059104923544	2
8064	91139	97.959214923544	10
8064	91374	98.159214923544	1
8064	91967	98.659241157317	5
8064	92239	98.96579547409	2
8064	92276	99.013492282635	6
8064	92471	99.1833455962	2
8064	93392	99.991430089023	8
8064	93919	100.491430089023	5
8064	94577	100.992782801623	5
8064	94817	101.199906299422	1
8064	95792	102.000016299422	9
8064	96472	102.600016299422	6
8064	96991	103.102130557118	4
8064	97238	103.308767754683	1
8064	97365	103.421453396054	4
8064	97517	103.501629216227	1
8064	97648	103.612082584179	2
8064	98189	104.11397081062	5
8064	98491	104.41397081062	2
8064	99116	104.918687432366	5
8064	99330	105.07605698328	1
8064	99350	105.114507436036	1
8064	99358	105.12359087461	1
8064	99554	105.280305022078	1
8064	100083	105.724658097998	5
8064	100086	105.726261451095	5
8064	100450	106.032071101813	3
8064	101200	106.647901646863	3
8064	101459	106.848011646863	2
8064	103118	108.248011646863	15
8064	103792	108.760327549795	4
8064	104140	109.047669716676	9
8064	104312	109.165878845006	10
8064	104697	109.469973271821	8
8064	104718	109.475193005427	2
8064	104773	109.528054291915	6
8064	105192	109.836221474527	3
8064	106296	110.836221474527	9
8064	107092	111.445841267208	5
8064	107273	111.581462822065	5
8064	107547	111.785097146637	1
8064	107584	111.8520531763	3
8064	107965	112.160424018989	2
8064	108034	112.194041659207	3
8064	108207	112.376744813689	4
8064	108257	112.441899201778	9
8064	108531	112.644466226782	2
8064	109062	113.044466226782	3
8064	109393	113.244576226782	2
8064	109937	113.644576226782	3
8064	110576	114.1466079554	5
8064	111113	114.554355038419	3
8064	111466	114.859251929987	2
8064	112376	115.662637858118	8
8064	112740	115.962637858118	2
8064	112995	116.167375941406	1
8064	113504	116.577163188971	3
8064	114086	117.0148730419	6
8064	114129	117.032036486545	6
8064	114341	117.181727998847	6
8064	114433	117.236262502709	2
8064	114493	117.30363854089	6
8064	114527	117.319171978345	2
8064	114686	117.443649560566	1
8064	115665	118.25107081887	9
8064	115940	118.55107081887	2
8064	116459	119.155956107018	5
8064	116587	119.259977790486	1
8064	117475	119.959977790486	6
8064	118131	120.460124510571	5
8064	118565	120.723887622966	5
8064	118826	120.928691593375	1
8064	118862	120.965177250569	4
8064	120069	122.168591196834	12
8064	120484	122.568591196834	3
8064	120973	122.976432655686	5
8064	121364	123.383786030916	3
8064	121576	123.586732707167	1
8064	121825	123.791772316686	1
8064	121912	123.874024879643	2
8064	122431	124.283389860095	3
8064	122725	124.570028094658	6
8064	123050	124.871859389888	3
8064	123475	125.176902524276	2
8064	123767	125.401282555524	2
8064	124077	125.681327914897	5
8064	124235	125.8105621753	3
8064	125352	126.711319075983	9
8064	125474	126.811319075983	0
8064	126112	127.351727763025	3
8064	126253	127.451837763025	1
8064	126947	128.051837763025	5
8064	127248	128.302445360744	4
8064	127452	128.461476492399	3
8064	127853	128.749107591365	6
8064	129350	129.955293513189	13
8064	129795	130.355293513189	3
8064	130079	130.559287146252	1
8064	130672	130.962403568126	3
8064	130763	131.040971562096	4
8064	130867	131.125225223505	6
8064	131094	131.293116542004	7
8064	131355	131.525235223505	4
8064	131572	131.699560798407	3
8064	131872	131.93343208468	9
8064	131874	131.933585659719	4
8064	131902	131.972668663656	8
8064	131966	132.000025083281	2
8064	132311	132.2436730802	12
8064	133856	133.44843061837	12
8064	134512	133.94843061837	4
8064	134813	134.190614090716	2
8064	135157	134.495269554188	2
8064	135488	134.758013306933	7
8064	135502	134.768242174302	7
8064	135619	134.876257771441	1
8064	136377	135.576257771441	7
8064	136584	135.778126178322	2
8064	136752	135.989153763605	1
8064	136881	136.172898955731	4
8064	136896	136.197762286793	1
8065	206	20.20001	0.75
8065	655	21.00001	0.125
8065	995	21.303521093303	0.75
8065	2650	22.710113007662	-0.75
8065	2660	22.712260632068	-0.75
8065	2856	22.914103039086	0.875
8065	3109	23.11613817943	0.875
8065	3119	23.119519379017	0.875
8065	3617	23.521906963471	0.625
8065	3641	23.524851475143	0.625
8065	3859	23.717601084986	-0.375
8065	4141	23.924724765668	0.875
8065	4411	24.121055222437	0.125
8065	4439	24.12720377395	0.875
8065	4441	24.127720923214	0.125
8065	4443	24.128983413764	0.125
8065	5163	24.629093413764	0.375
8065	5580	24.935087742229	0.75
8065	5894	25.15131305031	0.875
8065	6212	25.379046427036	0.875
8065	6501	25.640169002327	0.625
8065	6741	25.8497013943	0.875
8065	7699	26.664098089153	0.125
8065	7704	26.665288663076	0.125
8065	7830	26.75784940163	-0.44444441795349
8065	7876	26.78510626461	-0.875
8065	8093	26.967126061675	0.875
8065	8476	27.274780465521	0.625
8065	9828	28.374780465521	-0.375
8065	10223	28.690758237225	0.75
8065	10689	29.055552205267	0.5
8065	11057	29.291587298084	0.25
8065	11500	29.593414241823	0.625
8065	11945	29.993414241823	0.625
8065	12446	30.402796009329	0.5
8065	12877	30.788407249323	0.625
8065	13456	31.301494745176	-0.625
8065	13484	31.313750676883	-0.125
8065	13552	31.395752086416	0.125
8065	13685	31.517867073644	0.125
8065	13892	31.701549904699	0.625
8065	13918	31.714638132408	0.625
8065	14465	32.220857759285	0.375
8065	16025	33.499130416784	-0.375
8065	16805	34.099130416784	0.375
8065	17138	34.40643756955	0.75
8065	17354	34.611890358543	0.875
8065	17701	35.015930261244	0.625
8065	18418	35.620308840405	0.375
8065	18426	35.626213503874	0.375
8065	19430	36.378868897638	0.875
8065	20450	37.278978897638	-0.25
8065	21242	37.978978897638	0.25
8065	21626	38.268679998124	0.75
8065	21651	38.282354849374	0.75
8065	22217	38.788492686918	0.375
8065	23648	39.988492686918	-0.5
8065	23991	40.295389930163	0.75
8065	24673	40.896755017526	0.125
8065	25108	41.296755017526	0.5
8065	25992	42.097885623531	0
8065	26064	42.180074124772	0.125
8065	26344	42.411264376575	0.75
8065	26646	42.620663631514	0.875
8065	26778	42.783721702078	0.25
8065	28322	43.883831702078	-0.375
8065	28750	44.283831702078	0.625
8065	29366	44.892239489528	0.375
8065	29532	45.063954965743	0.75
8065	30234	45.671722190993	0.125
8065	31061	46.571722190993	0
8065	32052	47.474214723373	0
8065	32673	47.981262615774	0.5
8065	33187	48.384615401459	0.5
8065	33246	48.444856431126	0
8065	33285	48.452153819643	0.625
8065	33474	48.648553537389	0.75
8065	33700	48.785397554944	0.625
8065	34154	49.152519776729	0.25
8065	34267	49.245124683444	0.125
8065	34361	49.300825000158	0.375
8065	34598	49.505769540572	0.75
8065	35239	50.107256211389	0.375
8065	35687	50.496772434912	0.875
8065	35708	50.510520210635	0.625
8065	36174	50.919311195811	0.5
8065	36719	51.519311195811	0.375
8065	37052	51.825071966835	0.625
8065	37378	52.128157685296	0.75
8065	37381	52.129027044848	0.75
8065	37974	52.529710080438	0.375
8065	38923	53.237834172573	0.25
8065	39400	53.637834172573	0.625
8065	39959	54.144604655236	0.5
8065	40283	54.448200897997	0.75
8065	40817	54.957321142628	0.25
8065	41147	55.257321142628	0.75
8065	41400	55.55997722996	0.75
8065	42388	56.564463042631	-0.125
8065	43225	57.265244268926	0.25
8065	43647	57.669726463569	0.625
8065	44001	57.977612751185	0.75
8065	45114	58.987389540887	-0.125
8065	45635	59.393217582738	0.5
8065	45995	59.693217582738	0.75
8065	46347	59.997372732717	0.75
8065	46472	60.106869093713	0.875
8065	46693	60.306869093713	0.875
8065	48090	61.512282004894	-0.5
8065	48812	62.121666388043	0.375
8065	49272	62.517347546351	0.875
8065	49291	62.5268182347	0.375
8065	49703	62.82321775504	0.75
8065	50223	63.128126198694	0.25
8065	50395	63.244622264018	0.5
8065	50484	63.324350782929	0.375
8065	50655	63.430282244862	0.875
8065	51346	63.930282244862	0.5
8065	51855	64.339981670437	0.625
8065	52376	64.846886639676	0.25
8065	53006	65.446886639676	0.375
8065	53699	66.050860453224	0.375
8065	53944	66.251155490758	0.5
8065	54699	66.852894140898	0.125
8065	55041	67.152894140898	0.625
8065	55292	67.357852578092	0.875
8065	55620	67.662212597128	0.625
8065	56167	68.176762858876	0.5
8065	56981	68.884497865394	0.125
8065	57848	69.691481081769	0
8065	58138	69.991481081769	0.75
8065	59481	71.095810187753	-0.25
8065	59486	71.09748385204	-0.25
8065	60251	71.699485252549	0.25
8065	60282	71.705699716232	0.125
8065	60397	71.803711804824	0.375
8065	60503	71.901009838646	0.875
8065	60867	72.207823675409	0.625
8065	60956	72.304698627308	0.5
8065	61385	72.704960371392	0.5
8065	61914	73.210756173258	0.5
8065	62072	73.413274022653	0.875
8065	62591	73.817661543957	0.5
8065	63528	74.517661543957	0.25
8065	63903	74.818667617573	0.75
8065	64433	75.22021527253	0.625
8065	64734	75.491282125752	0.125
8065	64829	75.524512916746	0.625
8065	64920	75.604457484093	0.75
8065	65001	75.695435159903	0.75
8065	65172	75.828410954357	0.75
8065	65236	75.905004629907	0.875
8065	65489	76.109078018637	0.375
8065	65528	76.135540047695	0.75
8065	66454	76.944044838587	-0.125
8065	66865	77.344044838587	0.625
8065	67216	77.653198775589	0.75
8065	68246	78.558923346346	-0.125
8065	69199	79.367060140454	0.125
8065	69660	79.725938889913	0.625
8065	70093	80.034805970078	0.625
8065	71877	81.377740845793	-0.375
8065	72104	81.577740845793	0.75
8065	72557	81.985708139409	0.625
8065	73604	82.891680479853	0
8065	73817	83.094735168952	0.875
8065	73865	83.150143105631	-0.125
8065	73988	83.252326217486	0.875
8065	74344	83.561817422696	0.75
8065	74567	83.765807343854	0.875
8065	74591	83.771747583344	0.875
8065	74957	84.071857583344	0.625
8065	75189	84.271857583344	0.875
8065	76058	84.979977809207	0.25
8065	76873	85.683789846318	0.5
8065	77315	86.086178606057	-0.625
8065	77638	86.390034830742	0.75
8065	78454	87.146911411905	-0.75
8065	79031	87.656620325956	0.375
8065	80423	88.956620325956	-0.5
8065	81590	89.962558976545	-0.625
8065	82703	90.852667493324	0.875
8065	83058	91.15681946414	0.75
8065	83116	91.227189667377	-0.125
8065	83276	91.364752064931	0.875
8065	83612	91.626251535993	0.375
8065	83874	91.856599033625	-0.375
8065	84125	92.060894027733	0.75
8065	84614	92.460894027733	0.625
8065	84814	92.666138490546	0.875
8065	85645	93.368129609763	0.125
8065	86051	93.668129609763	0.75
8065	86681	94.17656728477	0.5
8065	86955	94.38128048236	0.875
8065	86974	94.407648826535	0.875
8065	87265	94.689224488849	0.75
8065	87383	94.81104688258	0.625
8065	87580	95.013682671658	0.875
8065	87836	95.216927156635	0.75
8065	88180	95.516927156635	0.75
8065	88453	95.724372950608	0.75
8065	88665	95.940755540542	0.625
8065	88779	96.031153013743	0.75
8065	89026	96.239615511628	0.75
8065	89387	96.539615511628	0.75
8065	89660	96.749418808372	0.75
8065	90002	97.059104923544	0.75
8065	91139	97.959214923544	-0.25
8065	91374	98.159214923544	0.875
8065	91967	98.659241157317	0.375
8065	92239	98.96579547409	0.75
8065	92276	99.013492282635	0.33333331346512
8065	92471	99.1833455962	0.75
8065	93392	99.991430089023	0
8065	93919	100.491430089023	0.375
8065	94577	100.992782801623	0.375
8065	94817	101.199906299422	0.875
8065	95792	102.000016299422	-0.125
8065	96472	102.600016299422	0.25
8065	96991	103.102130557118	0.5
8065	97238	103.308767754683	0.875
8065	97365	103.421453396054	0.5
8065	97517	103.501629216227	0.875
8065	97648	103.612082584179	0.75
8065	98189	104.11397081062	0.375
8065	98491	104.41397081062	0.75
8065	99116	104.918687432366	0.375
8065	99330	105.07605698328	0.875
8065	99350	105.114507436036	0.875
8065	99358	105.12359087461	0.875
8065	99554	105.280305022078	0.875
8065	100083	105.724658097998	0.375
8065	100086	105.726261451095	0.375
8065	100450	106.032071101813	0.625
8065	101200	106.647901646863	0.625
8065	101459	106.848011646863	0.75
8065	103118	108.248011646863	-0.875
8065	103792	108.760327549795	0.5
8065	104140	109.047669716676	-0.125
8065	104312	109.165878845006	-0.25
8065	104697	109.469973271821	0
8065	104718	109.475193005427	0.75
8065	104773	109.528054291915	0.25
8065	105192	109.836221474527	0.625
8065	106296	110.836221474527	-0.125
8065	107092	111.445841267208	0.375
8065	107273	111.581462822065	0.375
8065	107547	111.785097146637	0.875
8065	107584	111.8520531763	0.625
8065	107965	112.160424018989	0.75
8065	108034	112.194041659207	0.625
8065	108207	112.376744813689	0.5
8065	108257	112.441899201778	-0.125
8065	108531	112.644466226782	0.75
8065	109062	113.044466226782	0.625
8065	109393	113.244576226782	0.75
8065	109937	113.644576226782	0.625
8065	110576	114.1466079554	0.375
8065	111113	114.554355038419	0.625
8065	111466	114.859251929987	0.75
8065	112376	115.662637858118	0
8065	112740	115.962637858118	0.75
8065	112995	116.167375941406	0.875
8065	113504	116.577163188971	0.625
8065	114086	117.0148730419	0.25
8065	114129	117.032036486545	0.25
8065	114341	117.181727998847	0.25
8065	114433	117.236262502709	0.75
8065	114493	117.30363854089	0.25
8065	114527	117.319171978345	0.75
8065	114686	117.443649560566	0.875
8065	115665	118.25107081887	-0.125
8065	115940	118.55107081887	0.75
8065	116459	119.155956107018	0.375
8065	116587	119.259977790486	0.875
8065	117475	119.959977790486	0.25
8065	118131	120.460124510571	0.375
8065	118565	120.723887622966	0.375
8065	118826	120.928691593375	0.875
8065	118862	120.965177250569	0.5
8065	120069	122.168591196834	-0.5
8065	120484	122.568591196834	0.625
8065	120973	122.976432655686	0.375
8065	121364	123.383786030916	0.625
8065	121576	123.586732707167	0.875
8065	121825	123.791772316686	0.875
8065	121912	123.874024879643	0.75
8065	122431	124.283389860095	0.625
8065	122725	124.570028094658	0.25
8065	123050	124.871859389888	0.625
8065	123475	125.176902524276	0.75
8065	123767	125.401282555524	0.75
8065	124077	125.681327914897	0.375
8065	124235	125.8105621753	0.625
8065	125352	126.711319075983	-0.125
8065	125474	126.811319075983	1
8065	126112	127.351727763025	0.625
8065	126253	127.451837763025	0.875
8065	126947	128.051837763025	0.375
8065	127248	128.302445360744	0.5
8065	127452	128.461476492399	0.625
8065	127853	128.749107591365	0.25
8065	129350	129.955293513189	-0.625
8065	129795	130.355293513189	0.625
8065	130079	130.559287146252	0.875
8065	130672	130.962403568126	0.625
8065	130763	131.040971562096	0.5
8065	130867	131.125225223505	0.33333331346512
8065	131094	131.293116542004	0.125
8065	131355	131.525235223505	0.5
8065	131572	131.699560798407	0.625
8065	131872	131.93343208468	-0.125
8065	131874	131.933585659719	0.5
8065	131902	131.972668663656	0
8065	131966	132.000025083281	0.77777777612209
8065	132311	132.2436730802	-0.5
8065	133856	133.44843061837	-0.5
8065	134512	133.94843061837	0.5
8065	134813	134.190614090716	0.75
8065	135157	134.495269554188	0.75
8065	135488	134.758013306933	0.125
8065	135502	134.768242174302	0.125
8065	135619	134.876257771441	0.875
8065	136377	135.576257771441	0.125
8065	136584	135.778126178322	0.75
8065	136752	135.989153763605	0.875
8065	136881	136.172898955731	0.5
8065	136896	136.197762286793	0.875
8066	206	20.20001	0.2
8066	655	21.00001	0.8
8066	995	21.303521093303	0.3
8066	2650	22.710113007662	1.4
8066	2660	22.712260632068	1.4
8066	2856	22.914103039086	0.2
8066	3109	23.11613817943	0.2
8066	3119	23.119519379017	0.2
8066	3617	23.521906963471	0.4
8066	3641	23.524851475143	0.4
8066	3859	23.717601084986	1
8066	4141	23.924724765668	0.2
8066	4411	24.121055222437	0.8
8066	4439	24.12720377395	0.2
8066	4441	24.127720923214	0.6
8066	4443	24.128983413764	0.6
8066	5163	24.629093413764	0.5
8066	5580	24.935087742229	0.3
8066	5894	25.15131305031	0.2
8066	6212	25.379046427036	0.2
8066	6501	25.640169002327	0.3
8066	6741	25.8497013943	0.2
8066	7699	26.664098089153	0.8
8066	7704	26.665288663076	0.8
8066	7830	26.75784940163	1.3
8066	7876	26.78510626461	1.4
8066	8093	26.967126061675	0.2
8066	8476	27.274780465521	0.3
8066	9828	28.374780465521	1.1
8066	10223	28.690758237225	0.3
8066	10689	29.055552205267	0.5
8066	11057	29.291587298084	0.6
8066	11500	29.593414241823	0.3
8066	11945	29.993414241823	0.4
8066	12446	30.402796009329	0.4
8066	12877	30.788407249323	0.3
8066	13456	31.301494745176	1.2
8066	13484	31.313750676883	0.9
8066	13552	31.395752086416	0.6
8066	13685	31.517867073644	0.7
8066	13892	31.701549904699	0.4
8066	13918	31.714638132408	0.4
8066	14465	32.220857759285	0.5
8066	16025	33.499130416784	1.1
8066	16805	34.099130416784	0.6
8066	17138	34.40643756955	0.3
8066	17354	34.611890358543	0.2
8066	17701	35.015930261244	0.4
8066	18418	35.620308840405	0.6
8066	18426	35.626213503874	0.6
8066	19430	36.378868897638	0.2
8066	20450	37.278978897638	0.9
8066	21242	37.978978897638	0.7
8066	21626	38.268679998124	0.3
8066	21651	38.282354849374	0.3
8066	22217	38.788492686918	0.5
8066	23648	39.988492686918	1.2
8066	23991	40.295389930163	0.3
8066	24673	40.896755017526	0.6
8066	25108	41.296755017526	0.4
8066	25992	42.097885623531	0.8
8066	26064	42.180074124772	0.8
8066	26344	42.411264376575	0.3
8066	26646	42.620663631514	0.2
8066	26778	42.783721702078	0.6
8066	28322	43.883831702078	1.1
8066	28750	44.283831702078	0.4
8066	29366	44.892239489528	0.6
8066	29532	45.063954965743	0.3
8066	30234	45.671722190993	0.6
8066	31061	46.571722190993	0.9
8066	32052	47.474214723373	0.9
8066	32673	47.981262615774	0.5
8066	33187	48.384615401459	0.4
8066	33246	48.444856431126	0.8
8066	33285	48.452153819643	0.4
8066	33474	48.648553537389	0.2
8066	33700	48.785397554944	0.4
8066	34154	49.152519776729	0.7
8066	34267	49.245124683444	0.7
8066	34361	49.300825000158	0.5
8066	34598	49.505769540572	0.2
8066	35239	50.107256211389	0.6
8066	35687	50.496772434912	0.2
8066	35708	50.510520210635	0.4
8066	36174	50.919311195811	0.4
8066	36719	51.519311195811	0.6
8066	37052	51.825071966835	0.3
8066	37378	52.128157685296	0.3
8066	37381	52.129027044848	0.3
8066	37974	52.529710080438	0.4
8066	38923	53.237834172573	0.5
8066	39400	53.637834172573	0.4
8066	39959	54.144604655236	0.5
8066	40283	54.448200897997	0.3
8066	40817	54.957321142628	0.5
8066	41147	55.257321142628	0.3
8066	41400	55.55997722996	0.3
8066	42388	56.564463042631	1
8066	43225	57.265244268926	0.7
8066	43647	57.669726463569	0.4
8066	44001	57.977612751185	0.3