file 950481 1369674155                                          
version 2
run Stability-norelink-106-20130525-23:21:05-22103
attr configname Stability-norelink
attr datetime 20130525-23:21:05
attr experiment Stability
attr inifile omnetpp.ini
attr iterationvars $0=1e-4
attr iterationvars2 "$0=1e-4, $repetition=6"
attr measurement $0=1e-4
attr network Network
attr processid 22103
attr repetition 6
attr replication #6
attr resultdir results
attr runnumber 106
attr seedset 106
vector 10203  Network.dyn_peer[9]  lookupHopsSig:vector  ETV
10203	270911 10069 55 137966 20.000001 136.480900739429 331 0 18 1356 8718
vector 10204  Network.dyn_peer[9]  lookupStabilitySig:vector  ETV
10204	280980 11114 55 137966 20.000001 136.480900739429 331 -1.25 1 161.54166665673 128.2725694312
vector 10205  Network.dyn_peer[9]  lookupTimeSig:vector  ETV
10205	292094 10676 55 137966 20.000001 136.480900739429 331 0 1.6 149.7 91.93
vector 10209  Network.dyn_peer[11]  lookupHopsSig:vector  ETV
10209	332157 9318 65 137915 20.0000012 136.445203532357 306 0 21 1265 7985
vector 10210  Network.dyn_peer[11]  lookupStabilitySig:vector  ETV
10210	341475 10319 65 137915 20.0000012 136.445203532357 306 -1.625 1 147.875 114.515625
vector 10211  Network.dyn_peer[11]  lookupTimeSig:vector  ETV
10211	351794 9884 65 137915 20.0000012 136.445203532357 306 0 1.7 140.2 86.48
vector 10215  Network.dyn_peer[13]  lookupHopsSig:vector  ETV
10215	393956 8772 75 136903 20.0000014 135.460545817967 288 0 16 1283 8601
vector 10216  Network.dyn_peer[13]  lookupStabilitySig:vector  ETV
10216	402728 9695 75 136903 20.0000014 135.460545817967 288 -1 1 127.70833331347 101.68923609787
vector 10217  Network.dyn_peer[13]  lookupTimeSig:vector  ETV
10217	412423 9306 75 136903 20.0000014 135.460545817967 288 0 1.5 142.3 93.77
vector 10227  Network.dyn_peer[17]  lookupHopsSig:vector  ETV
10227	514515 8833 91 138294 20.0000018 137.161289450419 290 0 17 1240 8506
vector 10228  Network.dyn_peer[17]  lookupStabilitySig:vector  ETV
10228	523348 9755 91 138294 20.0000018 137.161289450419 290 -1.125 1 135 112.90625
vector 10229  Network.dyn_peer[17]  lookupTimeSig:vector  ETV
10229	533103 9368 91 138294 20.0000018 137.161289450419 290 0 1.5 138.5 91.49
vector 10176  Network.dyn_peer[0]  lookupHopsSig:vector  ETV
10176	6498 8637 139 137163 20.1000001 135.670341627407 284 0 19 1270 8880
vector 10177  Network.dyn_peer[0]  lookupStabilitySig:vector  ETV
10177	15135 9583 139 137163 20.1000001 135.670341627407 284 -1.375 1 125.25 105.25
vector 10178  Network.dyn_peer[0]  lookupTimeSig:vector  ETV
10178	24718 9162 139 137163 20.1000001 135.670341627407 284 0 1.8 140.5 93.89
vector 10179  Network.dyn_peer[1]  lookupHopsSig:vector  ETV
10179	33880 9299 144 136979 20.1000002 135.541478127354 305 0 19 1310 8966
vector 10180  Network.dyn_peer[1]  lookupStabilitySig:vector  ETV
10180	43179 10300 144 136979 20.1000002 135.541478127354 305 -1.375 1 141.25 117.59375
vector 10181  Network.dyn_peer[1]  lookupTimeSig:vector  ETV
10181	53479 9861 144 136979 20.1000002 135.541478127354 305 0 1.9 145.1 97.27
vector 10182  Network.dyn_peer[2]  lookupHopsSig:vector  ETV
10182	63340 9154 149 137266 20.1000003 135.761566683821 301 0 21 1346 9912
vector 10183  Network.dyn_peer[2]  lookupStabilitySig:vector  ETV
10183	72494 10195 149 137266 20.1000003 135.761566683821 301 -1.625 1 132.86111110449 119.54475307612
vector 10184  Network.dyn_peer[2]  lookupTimeSig:vector  ETV
10184	82689 9712 149 137266 20.1000003 135.761566683821 301 0.1 1.9 150.1 106.13
vector 10200  Network.dyn_peer[8]  lookupHopsSig:vector  ETV
10200	240984 9421 159 138130 20.1000009 136.770735553255 310 0 24 1316 8858
vector 10201  Network.dyn_peer[8]  lookupStabilitySig:vector  ETV
10201	250405 10494 159 138130 20.1000009 136.770735553255 310 -2 1 145.61111108959 119.55632713143
vector 10202  Network.dyn_peer[8]  lookupTimeSig:vector  ETV
10202	260899 10012 159 138130 20.1000009 136.770735553255 310 0 2 147.9 97.07
vector 10212  Network.dyn_peer[12]  lookupHopsSig:vector  ETV
10212	361678 10180 167 137918 20.1000013 136.448215474504 335 0 19 1294 8092
vector 10213  Network.dyn_peer[12]  lookupStabilitySig:vector  ETV
10213	371858 11289 167 137918 20.1000013 136.448215474504 335 -1.375 1 173.34722219408 138.03684410968
vector 10214  Network.dyn_peer[12]  lookupTimeSig:vector  ETV
10214	383147 10809 167 137918 20.1000013 136.448215474504 335 0 1.7 147.7 90.95
vector 10218  Network.dyn_peer[14]  lookupHopsSig:vector  ETV
10218	421729 9539 173 137788 20.1000015 136.277217712567 313 0 15 1298 8262
vector 10219  Network.dyn_peer[14]  lookupStabilitySig:vector  ETV
10219	431268 10581 173 137788 20.1000015 136.277217712567 313 -0.875 1 150.81944441795 117.65065584065
vector 10220  Network.dyn_peer[14]  lookupTimeSig:vector  ETV
10220	441849 10138 173 137788 20.1000015 136.277217712567 313 0.1 1.4 145.6 89.3
vector 10224  Network.dyn_peer[16]  lookupHopsSig:vector  ETV
10224	485051 9300 179 137627 20.1000017 136.090415263486 305 0 30 1297 9145
vector 10225  Network.dyn_peer[16]  lookupStabilitySig:vector  ETV
10225	494351 10298 179 137627 20.1000017 136.090415263486 305 -2.75 1 142.875 123.640625
vector 10226  Network.dyn_peer[16]  lookupTimeSig:vector  ETV
10226	504649 9866 179 137627 20.1000017 136.090415263486 305 0 2.7 144 97.06
vector 10230  Network.dyn_peer[18]  lookupHopsSig:vector  ETV
10230	542471 9501 184 138364 20.1000019 137.467979537416 312 0 17 1318 8448
vector 10231  Network.dyn_peer[18]  lookupStabilitySig:vector  ETV
10231	551972 10575 184 138364 20.1000019 137.467979537416 312 -1.125 1 147.43055552244 114.66107250069
vector 10232  Network.dyn_peer[18]  lookupTimeSig:vector  ETV
10232	562547 10082 184 138364 20.1000019 137.467979537416 312 0 1.6 146.9 91.31
vector 10239  Network.dyn_peer[21]  lookupHopsSig:vector  ETV
10239	627970 10337 191 137589 20.1000022 136.069758879049 340 0 19 1302 8076
vector 10240  Network.dyn_peer[21]  lookupStabilitySig:vector  ETV
10240	638307 11517 191 137589 20.1000022 136.069758879049 340 -1.375 1 177.44444440305 140.90586415412
vector 10241  Network.dyn_peer[21]  lookupTimeSig:vector  ETV
10241	649824 10981 191 137589 20.1000022 136.069758879049 340 0 1.7 149 89.68
vector 10242  Network.dyn_peer[22]  lookupHopsSig:vector  ETV
10242	660805 9296 196 138017 20.1000023 136.570635553255 305 0 18 1289 8365
vector 10243  Network.dyn_peer[22]  lookupStabilitySig:vector  ETV
10243	670101 10315 196 138017 20.1000023 136.570635553255 305 -1.25 1 143.98611108959 113.60320213143
vector 10244  Network.dyn_peer[22]  lookupTimeSig:vector  ETV
10244	680416 9868 196 138017 20.1000023 136.570635553255 305 0 1.7 142.1 90.19
vector 10251  Network.dyn_peer[25]  lookupHopsSig:vector  ETV
10251	746055 9603 203 137985 20.1000026 136.536172437606 316 0 15 1189 6873
vector 10252  Network.dyn_peer[25]  lookupStabilitySig:vector  ETV
10252	755658 10644 203 137985 20.1000026 136.536172437606 316 -0.875 1 167.51388885826 126.2806712676
vector 10253  Network.dyn_peer[25]  lookupTimeSig:vector  ETV
10253	766302 10205 203 137985 20.1000026 136.536172437606 316 0 1.5 135.7 78.93
vector 10185  Network.dyn_peer[3]  lookupHopsSig:vector  ETV
10185	92401 9860 222 138255 20.2000004 137.070735553255 323 0 21 1347 9141
vector 10186  Network.dyn_peer[3]  lookupStabilitySig:vector  ETV
10186	102261 10918 222 138255 20.2000004 137.070735553255 323 -1.625 1 154.68055555224 129.16956017967
vector 10187  Network.dyn_peer[3]  lookupTimeSig:vector  ETV
10187	113179 10447 222 138255 20.2000004 137.070735553255 323 0 2 149.4 98.08
vector 10206  Network.dyn_peer[10]  lookupHopsSig:vector  ETV
10206	302770 9263 233 137654 20.2000011 136.1310366426 304 0 23 1235 8251
vector 10207  Network.dyn_peer[10]  lookupStabilitySig:vector  ETV
10207	312033 10282 233 137654 20.2000011 136.1310366426 304 -1.875 1 149.73611109704 124.30883485815
vector 10208  Network.dyn_peer[10]  lookupTimeSig:vector  ETV
10208	322315 9842 233 137654 20.2000011 136.1310366426 304 0 1.9 139 89
vector 10221  Network.dyn_peer[15]  lookupHopsSig:vector  ETV
10221	451987 10427 241 138374 20.2000016 137.484623456453 343 0 18 1265 7213
vector 10222  Network.dyn_peer[15]  lookupStabilitySig:vector  ETV
10222	462414 11559 241 138374 20.2000016 137.484623456453 343 -1.25 1 184.90277777612 139.49556326903
vector 10223  Network.dyn_peer[15]  lookupTimeSig:vector  ETV
10223	473973 11078 241 138374 20.2000016 137.484623456453 343 0 1.7 143 80.2
vector 10236  Network.dyn_peer[20]  lookupHopsSig:vector  ETV
10236	599882 8862 249 137021 20.2000021 135.558993201197 291 0 21 1215 7559
vector 10237  Network.dyn_peer[20]  lookupStabilitySig:vector  ETV
10237	608744 9821 249 137021 20.2000021 135.558993201197 291 -1.625 1 139.23611109704 105.41763116548
vector 10238  Network.dyn_peer[20]  lookupTimeSig:vector  ETV
10238	618565 9405 249 137021 20.2000021 135.558993201197 291 0 1.7 134.6 81.42
vector 10245  Network.dyn_peer[23]  lookupHopsSig:vector  ETV
10245	690284 8917 256 138281 20.2000024 137.142103270968 293 0 22 1358 10040
vector 10246  Network.dyn_peer[23]  lookupStabilitySig:vector  ETV
10246	699201 9890 256 138281 20.2000024 137.142103270968 293 -1.75 1 123.38888885081 110.52816354088
vector 10247  Network.dyn_peer[23]  lookupTimeSig:vector  ETV
10247	709091 9460 256 138281 20.2000024 137.142103270968 293 0 1.8 147.3 102.67
vector 10248  Network.dyn_peer[24]  lookupHopsSig:vector  ETV
10248	718551 8680 261 138332 20.2000025 137.205198908021 285 0 23 1320 9744
vector 10249  Network.dyn_peer[24]  lookupStabilitySig:vector  ETV
10249	727231 9622 261 138332 20.2000025 137.205198908021 285 -1.875 1 120 107.25
vector 10250  Network.dyn_peer[24]  lookupTimeSig:vector  ETV
10250	736853 9202 261 138332 20.2000025 137.205198908021 285 0 1.9 144.5 101.45
vector 10254  Network.dyn_peer[26]  lookupHopsSig:vector  ETV
10254	776507 9122 266 138241 20.2000027 137.058800717499 300 0 23 1275 8215
vector 10255  Network.dyn_peer[26]  lookupStabilitySig:vector  ETV
10255	785629 10126 266 138241 20.2000027 137.058800717499 300 -1.875 1 140.625 109.609375
vector 10256  Network.dyn_peer[26]  lookupTimeSig:vector  ETV
10256	795755 9692 266 138241 20.2000027 137.058800717499 300 0 2.2 143.1 91.79
vector 10257  Network.dyn_peer[27]  lookupHopsSig:vector  ETV
10257	805447 8873 271 138270 20.2000028 137.08885444282 291 0 23 1281 8987
vector 10258  Network.dyn_peer[27]  lookupStabilitySig:vector  ETV
10258	814320 9825 271 138270 20.2000028 137.08885444282 291 -1.875 1 130.98611110449 111.31539350969
vector 10259  Network.dyn_peer[27]  lookupTimeSig:vector  ETV
10259	824145 9411 271 138270 20.2000028 137.08885444282 291 0 2 141.7 94.75
vector 10260  Network.dyn_peer[28]  lookupHopsSig:vector  ETV
10260	833556 9783 276 137857 20.2000029 136.371685668668 321 0 17 1335 8871
vector 10261  Network.dyn_peer[28]  lookupStabilitySig:vector  ETV
10261	843339 10791 276 137857 20.2000029 136.371685668668 321 -1.125 1 154.125 125.859375
vector 10262  Network.dyn_peer[28]  lookupTimeSig:vector  ETV
10262	854130 10379 276 137857 20.2000029 136.371685668668 321 0 1.5 149 95.22
vector 10188  Network.dyn_peer[4]  lookupHopsSig:vector  ETV
10188	123626 10424 296 138202 20.3000005 136.953962339411 342 0 23 1292 8280
vector 10189  Network.dyn_peer[4]  lookupStabilitySig:vector  ETV
10189	134050 11561 296 138202 20.3000005 136.953962339411 342 -1.875 1 180.58333331347 148.42361109787
vector 10190  Network.dyn_peer[4]  lookupTimeSig:vector  ETV
10190	145611 11068 296 138202 20.3000005 136.953962339411 342 0 1.9 146.1 87.77
vector 10191  Network.dyn_peer[5]  lookupHopsSig:vector  ETV
10191	156679 9100 301 137363 20.3000006 135.842911016105 299 0 14 1280 7948
vector 10192  Network.dyn_peer[5]  lookupStabilitySig:vector  ETV
10192	165779 10104 301 137363 20.3000006 135.842911016105 299 -0.75 1 139.04166665673 103.2413194312
vector 10193  Network.dyn_peer[5]  lookupTimeSig:vector  ETV
10193	175883 9662 301 137363 20.3000006 135.842911016105 299 0 1.3 143.4 88.88
vector 10197  Network.dyn_peer[7]  lookupHopsSig:vector  ETV
10197	215053 8180 307 136855 20.3000008 135.441109288331 269 0 27 1256 9518
vector 10198  Network.dyn_peer[7]  lookupStabilitySig:vector  ETV
10198	223233 9080 307 136855 20.3000008 135.441109288331 269 -2.375 1 112.09722220898 103.85744596926
vector 10199  Network.dyn_peer[7]  lookupTimeSig:vector  ETV
10199	232313 8671 307 136855 20.3000008 135.441109288331 269 0 2.4 138.3 98.81
vector 10233  Network.dyn_peer[19]  lookupHopsSig:vector  ETV
10233	572629 8592 322 138146 20.300002 136.780799961019 283 0 25 1301 9417
vector 10234  Network.dyn_peer[19]  lookupStabilitySig:vector  ETV
10234	581221 9556 322 138146 20.300002 136.780799961019 283 -2.125 1 120.43055555224 104.98206017967
vector 10235  Network.dyn_peer[19]  lookupTimeSig:vector  ETV
10235	590777 9105 322 138146 20.300002 136.780799961019 283 0 2.2 144.7 102.39
vector 10194  Network.dyn_peer[6]  lookupHopsSig:vector  ETV
10194	185545 9294 352 137903 20.4000007 136.442911016105 305 0 21 1272 8364
vector 10195  Network.dyn_peer[6]  lookupStabilitySig:vector  ETV
10195	194839 10345 352 137903 20.4000007 136.442911016105 305 -1.625 1 146.11111108214 117.811342565
vector 10196  Network.dyn_peer[6]  lookupTimeSig:vector  ETV
10196	205184 9869 352 137903 20.4000007 136.442911016105 305 0 1.7 142.8 90.26
vector 10263  Network.dyn_peer[29]  lookupHopsSig:vector  ETV
10263	864509 9289 376 137081 20.400003 135.623568633425 305 0 21 1253 8199
vector 10264  Network.dyn_peer[29]  lookupStabilitySig:vector  ETV
10264	873798 10308 376 137081 20.400003 135.623568633425 305 -1.625 1 148.41666665673 119.9131944312
vector 10265  Network.dyn_peer[29]  lookupTimeSig:vector  ETV
10265	884106 9866 376 137081 20.400003 135.623568633425 305 0 1.9 140.8 90.12
vector 10269  Network.dyn_peer[31]  lookupHopsSig:vector  ETV
10269	923386 8552 382 137283 20.4000032 135.770241627407 281 0 23 1221 8433
vector 10270  Network.dyn_peer[31]  lookupStabilitySig:vector  ETV
10270	931938 9466 382 137283 20.4000032 135.770241627407 281 -1.875 1 128.40277777612 107.55806326903
vector 10271  Network.dyn_peer[31]  lookupTimeSig:vector  ETV
10271	941404 9077 382 137283 20.4000032 135.770241627407 281 0 1.9 134.9 89.43
vector 10266  Network.dyn_peer[30]  lookupHopsSig:vector  ETV
10266	893972 9269 425 137189 20.5000031 135.706116249376 304 0 22 1265 8697
vector 10267  Network.dyn_peer[30]  lookupStabilitySig:vector  ETV
10267	903241 10304 425 137189 20.5000031 135.706116249376 304 -1.75 1 146.05555553734 123.75578701938
vector 10268  Network.dyn_peer[30]  lookupTimeSig:vector  ETV
10268	913545 9841 425 137189 20.5000031 135.706116249376 304 0 1.9 141.5 92.33
