version 2
run Stability-norelink-113-20130525-23:21:34-22103
attr configname Stability-norelink
attr datetime 20130525-23:21:34
attr experiment Stability
attr inifile omnetpp.ini
attr iterationvars $0=1e-5
attr iterationvars2 "$0=1e-5, $repetition=3"
attr measurement $0=1e-5
attr network Network
attr processid 22103
attr repetition 3
attr replication #3
attr resultdir results
attr runnumber 113
attr seedset 113

vector 10857  Network.dyn_peer[3]  lookupHopsSig:vector  ETV
vector 10858  Network.dyn_peer[3]  lookupStabilitySig:vector  ETV
vector 10859  Network.dyn_peer[3]  lookupTimeSig:vector  ETV
vector 10860  Network.dyn_peer[4]  lookupHopsSig:vector  ETV
vector 10861  Network.dyn_peer[4]  lookupStabilitySig:vector  ETV
vector 10862  Network.dyn_peer[4]  lookupTimeSig:vector  ETV
vector 10863  Network.dyn_peer[5]  lookupHopsSig:vector  ETV
vector 10864  Network.dyn_peer[5]  lookupStabilitySig:vector  ETV
vector 10865  Network.dyn_peer[5]  lookupTimeSig:vector  ETV
vector 10890  Network.dyn_peer[14]  lookupHopsSig:vector  ETV
vector 10891  Network.dyn_peer[14]  lookupStabilitySig:vector  ETV
vector 10892  Network.dyn_peer[14]  lookupTimeSig:vector  ETV
vector 10938  Network.dyn_peer[30]  lookupHopsSig:vector  ETV
vector 10939  Network.dyn_peer[30]  lookupStabilitySig:vector  ETV
vector 10940  Network.dyn_peer[30]  lookupTimeSig:vector  ETV
vector 10866  Network.dyn_peer[6]  lookupHopsSig:vector  ETV
vector 10867  Network.dyn_peer[6]  lookupStabilitySig:vector  ETV
vector 10868  Network.dyn_peer[6]  lookupTimeSig:vector  ETV
vector 10875  Network.dyn_peer[9]  lookupHopsSig:vector  ETV
vector 10876  Network.dyn_peer[9]  lookupStabilitySig:vector  ETV
vector 10877  Network.dyn_peer[9]  lookupTimeSig:vector  ETV
vector 10899  Network.dyn_peer[17]  lookupHopsSig:vector  ETV
vector 10900  Network.dyn_peer[17]  lookupStabilitySig:vector  ETV
vector 10901  Network.dyn_peer[17]  lookupTimeSig:vector  ETV
vector 10917  Network.dyn_peer[23]  lookupHopsSig:vector  ETV
vector 10918  Network.dyn_peer[23]  lookupStabilitySig:vector  ETV
vector 10919  Network.dyn_peer[23]  lookupTimeSig:vector  ETV
vector 10935  Network.dyn_peer[29]  lookupHopsSig:vector  ETV
vector 10936  Network.dyn_peer[29]  lookupStabilitySig:vector  ETV
vector 10937  Network.dyn_peer[29]  lookupTimeSig:vector  ETV
vector 10854  Network.dyn_peer[2]  lookupHopsSig:vector  ETV
vector 10855  Network.dyn_peer[2]  lookupStabilitySig:vector  ETV
vector 10856  Network.dyn_peer[2]  lookupTimeSig:vector  ETV
vector 10869  Network.dyn_peer[7]  lookupHopsSig:vector  ETV
vector 10870  Network.dyn_peer[7]  lookupStabilitySig:vector  ETV
vector 10871  Network.dyn_peer[7]  lookupTimeSig:vector  ETV
vector 10872  Network.dyn_peer[8]  lookupHopsSig:vector  ETV
vector 10873  Network.dyn_peer[8]  lookupStabilitySig:vector  ETV
vector 10874  Network.dyn_peer[8]  lookupTimeSig:vector  ETV
vector 10878  Network.dyn_peer[10]  lookupHopsSig:vector  ETV
vector 10879  Network.dyn_peer[10]  lookupStabilitySig:vector  ETV
vector 10880  Network.dyn_peer[10]  lookupTimeSig:vector  ETV
vector 10902  Network.dyn_peer[18]  lookupHopsSig:vector  ETV
vector 10903  Network.dyn_peer[18]  lookupStabilitySig:vector  ETV
vector 10904  Network.dyn_peer[18]  lookupTimeSig:vector  ETV
vector 10920  Network.dyn_peer[24]  lookupHopsSig:vector  ETV
vector 10921  Network.dyn_peer[24]  lookupStabilitySig:vector  ETV
vector 10922  Network.dyn_peer[24]  lookupTimeSig:vector  ETV
vector 10923  Network.dyn_peer[25]  lookupHopsSig:vector  ETV
vector 10924  Network.dyn_peer[25]  lookupStabilitySig:vector  ETV
vector 10925  Network.dyn_peer[25]  lookupTimeSig:vector  ETV
vector 10929  Network.dyn_peer[27]  lookupHopsSig:vector  ETV
vector 10930  Network.dyn_peer[27]  lookupStabilitySig:vector  ETV
vector 10931  Network.dyn_peer[27]  lookupTimeSig:vector  ETV
vector 10941  Network.dyn_peer[31]  lookupHopsSig:vector  ETV
vector 10942  Network.dyn_peer[31]  lookupStabilitySig:vector  ETV
vector 10943  Network.dyn_peer[31]  lookupTimeSig:vector  ETV
vector 10851  Network.dyn_peer[1]  lookupHopsSig:vector  ETV
vector 10852  Network.dyn_peer[1]  lookupStabilitySig:vector  ETV
vector 10853  Network.dyn_peer[1]  lookupTimeSig:vector  ETV
vector 10881  Network.dyn_peer[11]  lookupHopsSig:vector  ETV
vector 10882  Network.dyn_peer[11]  lookupStabilitySig:vector  ETV
vector 10883  Network.dyn_peer[11]  lookupTimeSig:vector  ETV
vector 10884  Network.dyn_peer[12]  lookupHopsSig:vector  ETV
vector 10885  Network.dyn_peer[12]  lookupStabilitySig:vector  ETV
vector 10886  Network.dyn_peer[12]  lookupTimeSig:vector  ETV
vector 10887  Network.dyn_peer[13]  lookupHopsSig:vector  ETV
vector 10888  Network.dyn_peer[13]  lookupStabilitySig:vector  ETV
vector 10889  Network.dyn_peer[13]  lookupTimeSig:vector  ETV
vector 10896  Network.dyn_peer[16]  lookupHopsSig:vector  ETV
vector 10897  Network.dyn_peer[16]  lookupStabilitySig:vector  ETV
vector 10898  Network.dyn_peer[16]  lookupTimeSig:vector  ETV
vector 10911  Network.dyn_peer[21]  lookupHopsSig:vector  ETV
vector 10912  Network.dyn_peer[21]  lookupStabilitySig:vector  ETV
vector 10913  Network.dyn_peer[21]  lookupTimeSig:vector  ETV
vector 10932  Network.dyn_peer[28]  lookupHopsSig:vector  ETV
vector 10933  Network.dyn_peer[28]  lookupStabilitySig:vector  ETV
vector 10934  Network.dyn_peer[28]  lookupTimeSig:vector  ETV
vector 10893  Network.dyn_peer[15]  lookupHopsSig:vector  ETV
vector 10894  Network.dyn_peer[15]  lookupStabilitySig:vector  ETV
vector 10895  Network.dyn_peer[15]  lookupTimeSig:vector  ETV
vector 10926  Network.dyn_peer[26]  lookupHopsSig:vector  ETV
vector 10927  Network.dyn_peer[26]  lookupStabilitySig:vector  ETV
vector 10928  Network.dyn_peer[26]  lookupTimeSig:vector  ETV
vector 10905  Network.dyn_peer[19]  lookupHopsSig:vector  ETV
vector 10906  Network.dyn_peer[19]  lookupStabilitySig:vector  ETV
vector 10907  Network.dyn_peer[19]  lookupTimeSig:vector  ETV
vector 10908  Network.dyn_peer[20]  lookupHopsSig:vector  ETV
vector 10909  Network.dyn_peer[20]  lookupStabilitySig:vector  ETV
vector 10910  Network.dyn_peer[20]  lookupTimeSig:vector  ETV
vector 10848  Network.dyn_peer[0]  lookupHopsSig:vector  ETV
vector 10849  Network.dyn_peer[0]  lookupStabilitySig:vector  ETV
vector 10850  Network.dyn_peer[0]  lookupTimeSig:vector  ETV
vector 10914  Network.dyn_peer[22]  lookupHopsSig:vector  ETV
vector 10915  Network.dyn_peer[22]  lookupStabilitySig:vector  ETV
vector 10916  Network.dyn_peer[22]  lookupTimeSig:vector  ETV
10848	527	20.70000001	7
10848	1352	21.70000001	9
10848	1658	21.909825889985	1
10848	2160	22.221438505551	2
10848	2449	22.43942197409	0
10848	3316	23.139542990801	7
10848	4160	23.939542990801	7
10848	4534	24.240372867008	3
10848	5134	24.822172463335	2
10848	5499	25.129506631296	3
10848	6176	25.729506631296	5
10848	7189	26.630170522819	8
10848	7713	27.037789251594	3
10848	7938	27.24423848336	4
10848	8020	27.336478988788	4
10848	8422	27.643552637397	2
10848	8438	27.643991933398	0
10848	8782	27.943991933398	2
10848	9273	28.349630376645	3
10848	9556	28.557082342716	2
10848	9793	28.763881611999	1
10848	10056	28.967287007139	1
10848	10461	29.367387017139	4
10848	11153	29.967387017139	5
10848	11882	30.571399856001	5
10848	12177	30.811064788978	7
10848	12729	31.321150203656	5
10848	14922	33.280123892656	9
10848	15224	33.484097354706	1
10848	15313	33.520432860452	1
10848	15739	33.821150203656	27
10848	16073	34.026090865178	1
10848	16119	34.09229489231	6
10848	16826	34.695576672821	6
10848	17549	35.395576672821	6
10848	17897	35.705453607013	2
10848	18310	36.026982650004	4
10848	18478	36.212089166512	4
10848	18634	36.320625840826	1
10848	18965	36.620625840826	2
10848	19408	36.926545817826	2
10848	19812	37.232900020081	2
10848	20233	37.534918216128	2
10848	20595	37.83123580324	2
10848	20721	37.919996982508	9
10848	20760	37.936177513939	5
10848	21015	38.13881396787	2
10848	22835	39.53891397787	16
10848	23010	39.73891397787	1
10848	23444	40.24137251327	4
10848	23627	40.445676453227	1
10848	24743	41.550530546115	12
10848	25138	41.95889655516	4
10848	25567	42.35889655516	3
10848	26476	43.164022249018	8
10848	26548	43.206701203304	7
10848	26801	43.41087261461	1
10848	27203	43.71097262461	3
10848	27896	44.21097262461	4
10848	28437	44.612510992358	3
10848	28458	44.625976046327	3
10848	28697	44.83386500333	2
10848	29254	45.317687889115	2
10848	29284	45.344531870288	2
10848	29397	45.43386500333	6
10848	29777	45.73396501333	3
10848	30336	46.13396501333	3
10848	30574	46.334017285669	1
10848	30827	46.547866380991	1
10848	30909	46.6254425213	1
10848	31438	47.034806815697	4
10848	32291	47.734806815697	6
10848	32495	47.935176087319	1
10848	33006	48.342271675024	3
10848	33703	48.842371685024	6
10848	33937	49.048059192952	1
10848	34825	49.756871121332	5
10848	35303	50.1471391494	2
10848	35314	50.155738366045	2
10848	35440	50.256871121332	4
10848	35639	50.458177984131	3
10848	35877	50.658277994131	2
10848	36679	51.458277994131	8
10848	36939	51.67493749301	3
10848	37129	51.866753168005	3
10848	37252	51.985212774585	2
10848	37438	52.180776426669	4
10848	37548	52.283177419225	1
10848	37898	52.583177419225	2
10848	38097	52.788107020591	1
10848	38461	53.088207030591	4
10848	38817	53.388207030591	2
10848	38988	53.561799782905	2
10848	39369	53.868503554204	3
10848	39971	54.368503554204	4
10848	40534	54.877724528706	4
10848	41077	55.299308688886	3
10848	41232	55.403155453484	3
10848	41374	55.508624267162	1
10848	42016	56.00307429928	2
10848	42431	56.315818866159	8
10848	42652	56.508635977999	4
10848	42669	56.517055608046	2
10848	42892	56.701783906702	12
10848	42921	56.708173055184	15
10848	43236	56.911942802826	2
10848	43616	57.220079894661	2
10848	43872	57.428385853256	1
10848	43964	57.515346567776	1
10848	44216	57.729459506779	3
10848	44277	57.810286060304	3
10848	44544	58.035654120294	2
10848	44902	58.335754130294	3
10848	45255	58.635754130294	2
10848	45680	58.965561359419	2
10848	46332	59.506264701703	8
10848	46430	59.586055584594	5
10848	46848	59.991874272047	4
10848	47442	60.591874272047	7
10848	48666	61.601294269446	12
10848	49430	62.306121087864	6
10848	49754	62.618229601527	2
10848	50029	62.877755372327	4
10848	50380	63.18198673513	3
10848	50846	63.68198673513	4
10848	50873	63.687053679099	0
10848	51752	64.587053679099	8
10848	52692	65.288829685877	10
10848	54151	66.488829685877	11
10848	54918	67.188929695877	7
10848	55445	67.688929695877	4
10848	56061	68.192318571143	4
10848	56204	68.328133740126	5
10848	56279	68.394203014921	1
10848	56749	68.795456505417	3
10848	56853	68.839675824629	5
10848	56886	68.875953351726	4
10848	57038	68.980193256736	1
10848	58124	69.837243982657	5
10848	58593	70.241812947342	3
10848	59023	70.551328816607	2
10848	60613	71.757955043006	13
10848	61597	72.476199300263	7
10848	61963	72.765270679627	10
10848	61990	72.776533819336	2
10848	62520	73.182148327924	5
10848	62879	73.482148327924	2
10848	63703	74.187166678661	7
10848	64477	74.887166678661	6
10848	65973	76.091966638071	12
10848	66374	76.494816518443	4
10848	67681	77.494816518443	9
10848	68000	77.796880936984	2
10848	68210	78.004314421622	1
10848	68409	78.210779168828	2
10848	68984	78.810779168828	5
10848	69166	79.015852490408	1
10848	69604	79.418153441893	3
10848	69670	79.431332913431	3
10848	69675	79.432465409685	2
10848	69930	79.63501655975	1
10848	69938	79.639251547931	1
10848	70599	80.239351557931	6
10848	71468	81.039351557931	8
10848	72759	82.240583406316	7
10848	73166	82.543424660523	2
10848	73422	82.754718456159	3
10848	73786	83.064104284208	2
10848	74002	83.246326169599	23
10848	74376	83.555128527177	3
10848	75157	84.155128527177	5
10848	75809	84.828020055534	3
10848	76627	85.428120065534	6
10848	77648	86.228120065534	8
10848	78150	86.740803463342	4
10848	78765	87.247183471423	4
10848	79222	87.652880812301	3
10848	79297	87.711176713011	1
10848	79506	87.856278388769	1
10848	80093	88.403512058275	8
10848	80170	88.463459025439	5
10848	80241	88.51652283271	6
10848	80246	88.519227641128	7
10848	80856	88.929051404866	5
10848	82126	90.029051404866	11
10848	82395	90.245313268883	1
10848	82673	90.498707312468	2
10848	82725	90.551582277989	2
10848	83317	91.059627082474	4
10848	83359	91.100218272273	5
10848	84129	91.776932459137	5
10848	84198	91.82750971683	5
10848	84981	92.528637299264	7
10848	85762	93.236153515217	7
10848	86025	93.444376694574	1
10848	86121	93.539493289022	6
10848	86132	93.545564415352	1
10848	86527	93.848319845531	3
10848	87525	94.748319845531	8
10848	88363	95.45474581813	6
10848	88556	95.62609004118	10
10848	88883	95.861026465145	4
10848	89081	96.061482016029	1
10848	89099	96.073234433791	5
10848	89119	96.112494158127	6
10848	89144	96.118057020363	6
10848	89284	96.232083384711	5
10848	89373	96.331727433204	1
10848	89730	96.63403798153	3
10848	89942	96.83403798153	2
10848	90190	97.043103788626	1
10848	90210	97.0434358526	0
10848	90805	97.5434358526	4
10848	91178	97.851333903381	2
10848	91679	98.253241663595	3
10848	91940	98.440279849717	2
10848	92597	98.944642011062	5
10848	93412	99.644642011062	6
10848	93742	99.945417976197	2
10848	93997	100.172950146496	1
10848	94480	100.581070321148	3
10848	94911	100.984751800265	4
10848	96100	101.884751800265	9
10848	96345	102.095311186922	1
10848	96667	102.295676130175	1
10848	96878	102.425214404672	1
10848	97613	102.933753383167	5
10848	98595	103.747231788381	7
10848	98951	104.047331798381	3
10848	99286	104.347331798381	2
10848	99721	104.659664122321	3
10848	99967	104.825631870622	3
10848	100019	104.860236830847	2
10848	100559	105.263567248546	3
10848	100952	105.566666268606	3
10848	102961	107.166666268606	16
10848	103698	107.866766278606	7
10848	103887	108.066766278606	1
10848	104330	108.467628187012	3
10848	105093	109.070637265849	6
10848	105270	109.17415554007	1
10848	105610	109.47415554007	2
10848	106111	109.881817843601	3
10848	106972	110.487315773664	6
10848	108460	111.987315773664	15
10848	108888	112.390336878572	3
10848	109043	112.546453379993	3
10848	109237	112.753763468165	1
10848	109947	113.359164589479	7
10848	110230	113.565044899455	1
10848	110439	113.768796559185	1
10848	110651	113.975447599367	1
10848	110958	114.280307321854	2
10848	111370	114.589884682756	2
10848	111400	114.612547396819	2
10848	111715	114.921410798136	2
10848	111890	115.095376488663	4
10848	112111	115.297165946716	4
10848	112425	115.601513606498	3
10848	112627	115.801513606498	1
10848	114450	117.31137663162	16
10848	114468	117.325638194717	8
10848	114751	117.619014754101	2
10848	116734	119.020904387024	17
10848	117151	119.420904387024	3
10848	117881	120.004338392266	2
10848	117924	120.030459929651	6
10848	117932	120.034827413283	2
10848	118244	120.237117291122	2
10848	119887	121.656507635627	8
10848	120159	121.856507635627	1
10848	120423	122.032504501374	1
10848	121294	122.732604511374	8
10848	122263	123.532604511374	8
10848	122305	123.557511162541	1
10848	122651	123.840840299044	2
10848	123197	124.179909200934	3
10848	123439	124.382757823935	1
10848	123523	124.449268393118	6
10848	123694	124.561639749277	11
10848	124449	125.063227852447	5
10848	124654	125.263227852447	1
10848	125009	125.664009914853	3
10848	125372	126.070682897084	4
10848	125543	126.195562414489	4
10848	125839	126.398337633369	2
10848	126152	126.698337633369	2
10848	127007	127.401990385088	5
10848	127575	127.901990385088	4
10848	127800	128.107566770706	1
10848	127815	128.114351390736	5
10848	128063	128.318528800731	1
10848	128071	128.321488278827	1
10848	128136	128.403368975214	1
10848	128161	128.409808610586	1
10848	128619	128.809908620586	4
10848	129082	129.209908620586	3
10848	129632	129.694702990097	3
10848	129784	129.816855118532	6
10848	130977	130.722118135011	9
10848	131360	131.022118135011	2
10848	131918	131.523905212353	4
10848	132369	132.023929607721	4
10848	133232	132.72784992967	4
10848	133244	132.730475420332	6
10848	134184	133.439458968638	7
10848	134455	133.639458968638	1
10848	134989	134.046108581986	3
10848	134998	134.048906993997	3
10848	136076	134.949185330717	5
10848	136117	134.960909770047	5
10849	527	20.70000001	0.125
10849	1352	21.70000001	-0.125
10849	1658	21.909825889985	0.875
10849	2160	22.221438505551	0.75
10849	2449	22.43942197409	1
10849	3316	23.139542990801	0.125
10849	4160	23.939542990801	0.125
10849	4534	24.240372867008	0.625
10849	5134	24.822172463335	0.75
10849	5499	25.129506631296	0.625
10849	6176	25.729506631296	0.375
10849	7189	26.630170522819	0
10849	7713	27.037789251594	0.625
10849	7938	27.24423848336	0.5
10849	8020	27.336478988788	0.5
10849	8422	27.643552637397	0.75
10849	8438	27.643991933398	1
10849	8782	27.943991933398	0.75
10849	9273	28.349630376645	0.625
10849	9556	28.557082342716	0.75
10849	9793	28.763881611999	0.875
10849	10056	28.967287007139	0.875
10849	10461	29.367387017139	0.5
10849	11153	29.967387017139	0.375
10849	11882	30.571399856001	0.375
10849	12177	30.811064788978	0.125
10849	12729	31.321150203656	0.375
10849	14922	33.280123892656	-0.125
10849	15224	33.484097354706	0.875
10849	15313	33.520432860452	0.875
10849	15739	33.821150203656	-2.375
10849	16073	34.026090865178	0.875
10849	16119	34.09229489231	0.25
10849	16826	34.695576672821	0.25
10849	17549	35.395576672821	0.25
10849	17897	35.705453607013	0.75
10849	18310	36.026982650004	0.5
10849	18478	36.212089166512	0.5
10849	18634	36.320625840826	0.875
10849	18965	36.620625840826	0.75
10849	19408	36.926545817826	0.75
10849	19812	37.232900020081	0.75
10849	20233	37.534918216128	0.75
10849	20595	37.83123580324	0.75
10849	20721	37.919996982508	-0.125
10849	20760	37.936177513939	0.375
10849	21015	38.13881396787	0.75
10849	22835	39.53891397787	-1
10849	23010	39.73891397787	0.875
10849	23444	40.24137251327	0.5
10849	23627	40.445676453227	0.875
10849	24743	41.550530546115	-0.5
10849	25138	41.95889655516	0.5
10849	25567	42.35889655516	0.625
10849	26476	43.164022249018	0
10849	26548	43.206701203304	0.125
10849	26801	43.41087261461	0.875
10849	27203	43.71097262461	0.625
10849	27896	44.21097262461	0.5
10849	28437	44.612510992358	0.625
10849	28458	44.625976046327	0.625
10849	28697	44.83386500333	0.75
10849	29254	45.317687889115	0.75
10849	29284	45.344531870288	0.75
10849	29397	45.43386500333	0.25
10849	29777	45.73396501333	0.625
10849	30336	46.13396501333	0.625
10849	30574	46.334017285669	0.875
10849	30827	46.547866380991	0.875
10849	30909	46.6254425213	0.875
10849	31438	47.034806815697	0.5
10849	32291	47.734806815697	0.25
10849	32495	47.935176087319	0.875
10849	33006	48.342271675024	0.625
10849	33703	48.842371685024	0.25
10849	33937	49.048059192952	0.875
10849	34825	49.756871121332	0.375
10849	35303	50.1471391494	0.75
10849	35314	50.155738366045	0.75
10849	35440	50.256871121332	0.5
10849	35639	50.458177984131	0.625
10849	35877	50.658277994131	0.75
10849	36679	51.458277994131	0
10849	36939	51.67493749301	0.625
10849	37129	51.866753168005	0.625
10849	37252	51.985212774585	0.75
10849	37438	52.180776426669	0.5
10849	37548	52.283177419225	0.875
10849	37898	52.583177419225	0.75
10849	38097	52.788107020591	0.875
10849	38461	53.088207030591	0.5
10849	38817	53.388207030591	0.75
10849	38988	53.561799782905	0.75
10849	39369	53.868503554204	0.625
10849	39971	54.368503554204	0.5
10849	40534	54.877724528706	0.5
10849	41077	55.299308688886	0.625
10849	41232	55.403155453484	0.625
10849	41374	55.508624267162	0.875
10849	42016	56.00307429928	0.75
10849	42431	56.315818866159	0
10849	42652	56.508635977999	0.5
10849	42669	56.517055608046	0.75
10849	42892	56.701783906702	-0.5
10849	42921	56.708173055184	-0.875
10849	43236	56.911942802826	0.75
10849	43616	57.220079894661	0.75
10849	43872	57.428385853256	0.875
10849	43964	57.515346567776	0.875
10849	44216	57.729459506779	0.625
10849	44277	57.810286060304	0.625
10849	44544	58.035654120294	0.75
10849	44902	58.335754130294	0.625
10849	45255	58.635754130294	0.75
10849	45680	58.965561359419	0.75
10849	46332	59.506264701703	0
10849	46430	59.586055584594	0.375
10849	46848	59.991874272047	0.5
10849	47442	60.591874272047	0.125
10849	48666	61.601294269446	-0.5
10849	49430	62.306121087864	0.25
10849	49754	62.618229601527	0.75
10849	50029	62.877755372327	0.5
10849	50380	63.18198673513	0.625
10849	50846	63.68198673513	0.5
10849	50873	63.687053679099	1
10849	51752	64.587053679099	0
10849	52692	65.288829685877	-0.25
10849	54151	66.488829685877	-0.375
10849	54918	67.188929695877	0.125
10849	55445	67.688929695877	0.5
10849	56061	68.192318571143	0.5
10849	56204	68.328133740126	0.375
10849	56279	68.394203014921	0.875
10849	56749	68.795456505417	0.625
10849	56853	68.839675824629	0.375
10849	56886	68.875953351726	0.5
10849	57038	68.980193256736	0.875
10849	58124	69.837243982657	0.375
10849	58593	70.241812947342	0.625
10849	59023	70.551328816607	0.75
10849	60613	71.757955043006	-0.625
10849	61597	72.476199300263	0.125
10849	61963	72.765270679627	-0.25
10849	61990	72.776533819336	0.75
10849	62520	73.182148327924	0.375
10849	62879	73.482148327924	0.75
10849	63703	74.187166678661	0.125
10849	64477	74.887166678661	0.25
10849	65973	76.091966638071	-0.5
10849	66374	76.494816518443	0.5
10849	67681	77.494816518443	-0.125
10849	68000	77.796880936984	0.75
10849	68210	78.004314421622	0.875
10849	68409	78.210779168828	0.75
10849	68984	78.810779168828	0.375
10849	69166	79.015852490408	0.875
10849	69604	79.418153441893	0.625
10849	69670	79.431332913431	0.625
10849	69675	79.432465409685	0.75
10849	69930	79.63501655975	0.875
10849	69938	79.639251547931	0.875
10849	70599	80.239351557931	0.25
10849	71468	81.039351557931	0
10849	72759	82.240583406316	0.125
10849	73166	82.543424660523	0.75
10849	73422	82.754718456159	0.625
10849	73786	83.064104284208	0.75
10849	74002	83.246326169599	-1.875
10849	74376	83.555128527177	0.625
10849	75157	84.155128527177	0.375
10849	75809	84.828020055534	0.625
10849	76627	85.428120065534	0.25
10849	77648	86.228120065534	0
10849	78150	86.740803463342	0.5
10849	78765	87.247183471423	0.5
10849	79222	87.652880812301	0.625
10849	79297	87.711176713011	0.875
10849	79506	87.856278388769	0.875
10849	80093	88.403512058275	0
10849	80170	88.463459025439	0.375
10849	80241	88.51652283271	0.25
10849	80246	88.519227641128	0.125
10849	80856	88.929051404866	0.375
10849	82126	90.029051404866	-0.375
10849	82395	90.245313268883	0.875
10849	82673	90.498707312468	0.75
10849	82725	90.551582277989	0.75
10849	83317	91.059627082474	0.5
10849	83359	91.100218272273	0.375
10849	84129	91.776932459137	0.375
10849	84198	91.82750971683	0.375
10849	84981	92.528637299264	0.125
10849	85762	93.236153515217	0.125
10849	86025	93.444376694574	0.875
10849	86121	93.539493289022	0.25
10849	86132	93.545564415352	0.875
10849	86527	93.848319845531	0.625
10849	87525	94.748319845531	0
10849	88363	95.45474581813	0.25
10849	88556	95.62609004118	-0.25
10849	88883	95.861026465145	0.5
10849	89081	96.061482016029	0.875
10849	89099	96.073234433791	0.375
10849	89119	96.112494158127	0.25
10849	89144	96.118057020363	0.25
10849	89284	96.232083384711	0.375
10849	89373	96.331727433204	0.875
10849	89730	96.63403798153	0.625
10849	89942	96.83403798153	0.75
10849	90190	97.043103788626	0.875
10849	90210	97.0434358526	1
10849	90805	97.5434358526	0.5
10849	91178	97.851333903381	0.75
10849	91679	98.253241663595	0.625
10849	91940	98.440279849717	0.75
10849	92597	98.944642011062	0.375
10849	93412	99.644642011062	0.25
10849	93742	99.945417976197	0.75
10849	93997	100.172950146496	0.875
10849	94480	100.581070321148	0.625
10849	94911	100.984751800265	0.5
10849	96100	101.884751800265	-0.125
10849	96345	102.095311186922	0.875
10849	96667	102.295676130175	0.875
10849	96878	102.425214404672	0.875
10849	97613	102.933753383167	0.375
10849	98595	103.747231788381	0.125
10849	98951	104.047331798381	0.625
10849	99286	104.347331798381	0.75
10849	99721	104.659664122321	0.625
10849	99967	104.825631870622	0.625
10849	100019	104.860236830847	0.75
10849	100559	105.263567248546	0.625
10849	100952	105.566666268606	0.625
10849	102961	107.166666268606	-1
10849	103698	107.866766278606	0.125
10849	103887	108.066766278606	0.875
10849	104330	108.467628187012	0.625
10849	105093	109.070637265849	0.25
10849	105270	109.17415554007	0.875
10849	105610	109.47415554007	0.75
10849	106111	109.881817843601	0.625
10849	106972	110.487315773664	0.25
10849	108460	111.987315773664	-0.875
10849	108888	112.390336878572	0.625
10849	109043	112.546453379993	0.625
10849	109237	112.753763468165	0.875
10849	109947	113.359164589479	0.125
10849	110230	113.565044899455	0.875
10849	110439	113.768796559185	0.875
10849	110651	113.975447599367	0.875
10849	110958	114.280307321854	0.75
10849	111370	114.589884682756	0.75
10849	111400	114.612547396819	0.75
10849	111715	114.921410798136	0.75
10849	111890	115.095376488663	0.5
10849	112111	115.297165946716	0.5
10849	112425	115.601513606498	0.625
10849	112627	115.801513606498	0.875
10849	114450	117.31137663162	-1
10849	114468	117.325638194717	0
10849	114751	117.619014754101	0.75
10849	116734	119.020904387024	-1.125
10849	117151	119.420904387024	0.625
10849	117881	120.004338392266	0.75
10849	117924	120.030459929651	0.25
10849	117932	120.034827413283	0.75
10849	118244	120.237117291122	0.75
10849	119887	121.656507635627	0
10849	120159	121.856507635627	0.875
10849	120423	122.032504501374	0.875
10849	121294	122.732604511374	0
10849	122263	123.532604511374	0
10849	122305	123.557511162541	0.875
10849	122651	123.840840299044	0.75
10849	123197	124.179909200934	0.625
10849	123439	124.382757823935	0.875
10849	123523	124.449268393118	0.25
10849	123694	124.561639749277	-0.375
10849	124449	125.063227852447	0.375
10849	124654	125.263227852447	0.875
10849	125009	125.664009914853	0.625
10849	125372	126.070682897084	0.5
10849	125543	126.195562414489	0.5
10849	125839	126.398337633369	0.75
10849	126152	126.698337633369	0.75
10849	127007	127.401990385088	0.375
10849	127575	127.901990385088	0.5
10849	127800	128.107566770706	0.875
10849	127815	128.114351390736	0.375
10849	128063	128.318528800731	0.875
10849	128071	128.321488278827	0.875
10849	128136	128.403368975214	0.875
10849	128161	128.409808610586	0.875
10849	128619	128.809908620586	0.5
10849	129082	129.209908620586	0.625
10849	129632	129.694702990097	0.625
10849	129784	129.816855118532	0.25
10849	130977	130.722118135011	-0.125
10849	131360	131.022118135011	0.75
10849	131918	131.523905212353	0.5
10849	132369	132.023929607721	0.5
10849	133232	132.72784992967	0.5
10849	133244	132.730475420332	0.25
10849	134184	133.439458968638	0.125
10849	134455	133.639458968638	0.875
10849	134989	134.046108581986	0.625
10849	134998	134.048906993997	0.625
10849	136076	134.949185330717	0.375
10849	136117	134.960909770047	0.375
10850	527	20.70000001	0.7
10850	1352	21.70000001	1
10850	1658	21.909825889985	0.2
10850	2160	22.221438505551	0.3
10850	2449	22.43942197409	0.1
10850	3316	23.139542990801	0.7
10850	4160	23.939542990801	0.8
10850	4534	24.240372867008	0.3
10850	5134	24.822172463335	0.3
10850	5499	25.129506631296	0.3
10850	6176	25.729506631296	0.6
10850	7189	26.630170522819	0.9
10850	7713	27.037789251594	0.4
10850	7938	27.24423848336	0.5
10850	8020	27.336478988788	0.5
10850	8422	27.643552637397	0.3
10850	8438	27.643991933398	0
10850	8782	27.943991933398	0.3
10850	9273	28.349630376645	0.4
10850	9556	28.557082342716	0.2
10850	9793	28.763881611999	0.2
10850	10056	28.967287007139	0.2
10850	10461	29.367387017139	0.4
10850	11153	29.967387017139	0.6
10850	11882	30.571399856001	0.6
10850	12177	30.811064788978	0.8
10850	12729	31.321150203656	0.5
10850	14922	33.280123892656	1
10850	15224	33.484097354706	0.2
10850	15313	33.520432860452	0.2
10850	15739	33.821150203656	2.5
10850	16073	34.026090865178	0.2
10850	16119	34.09229489231	0.6
10850	16826	34.695576672821	0.6
10850	17549	35.395576672821	0.7
10850	17897	35.705453607013	0.3
10850	18310	36.026982650004	0.5
10850	18478	36.212089166512	0.5
10850	18634	36.320625840826	0.1
10850	18965	36.620625840826	0.3
10850	19408	36.926545817826	0.3
10850	19812	37.232900020081	0.3
10850	20233	37.534918216128	0.3
10850	20595	37.83123580324	0.2
10850	20721	37.919996982508	1
10850	20760	37.936177513939	0.6
10850	21015	38.13881396787	0.3
10850	22835	39.53891397787	1.4
10850	23010	39.73891397787	0.2
10850	23444	40.24137251327	0.5
10850	23627	40.445676453227	0.2
10850	24743	41.550530546115	1.1
10850	25138	41.95889655516	0.4
10850	25567	42.35889655516	0.4
10850	26476	43.164022249018	0.8
10850	26548	43.206701203304	0.8
10850	26801	43.41087261461	0.2
10850	27203	43.71097262461	0.3
10850	27896	44.21097262461	0.5
10850	28437	44.612510992358	0.4
10850	28458	44.625976046327	0.4
10850	28697	44.83386500333	0.2
10850	29254	45.317687889115	0.3
10850	29284	45.344531870288	0.3
10850	29397	45.43386500333	0.6
10850	29777	45.73396501333	0.3
10850	30336	46.13396501333	0.4
10850	30574	46.334017285669	0.2
10850	30827	46.547866380991	0.2
10850	30909	46.6254425213	0.2
10850	31438	47.034806815697	0.4
10850	32291	47.734806815697	0.7
10850	32495	47.935176087319	0.2
10850	33006	48.342271675024	0.4
10850	33703	48.842371685024	0.5
10850	33937	49.048059192952	0.2
10850	34825	49.756871121332	0.5
10850	35303	50.1471391494	0.2
10850	35314	50.155738366045	0.2
10850	35440	50.256871121332	0.5
10850	35639	50.458177984131	0.3
10850	35877	50.658277994131	0.2
10850	36679	51.458277994131	0.8
10850	36939	51.67493749301	0.4
10850	37129	51.866753168005	0.4
10850	37252	51.985212774585	0.2
10850	37438	52.180776426669	0.5
10850	37548	52.283177419225	0.1
10850	37898	52.583177419225	0.3
10850	38097	52.788107020591	0.2
10850	38461	53.088207030591	0.3
10850	38817	53.388207030591	0.3
10850	38988	53.561799782905	0.3
10850	39369	53.868503554204	0.3
10850	39971	54.368503554204	0.5
10850	40534	54.877724528706	0.5
10850	41077	55.299308688886	0.4
10850	41232	55.403155453484	0.4
10850	41374	55.508624267162	0.2
10850	42016	56.00307429928	0.3
10850	42431	56.315818866159	0.8
10850	42652	56.508635977999	0.5
10850	42669	56.517055608046	0.2
10850	42892	56.701783906702	1.2
10850	42921	56.708173055184	1.3
10850	43236	56.911942802826	0.2
10850	43616	57.220079894661	0.3
10850	43872	57.428385853256	0.2
10850	43964	57.515346567776	0.2
10850	44216	57.729459506779	0.3
10850	44277	57.810286060304	0.3
10850	44544	58.035654120294	0.3
10850	44902	58.335754130294	0.3
10850	45255	58.635754130294	0.3