version 2
run Stability-norelink-51-20130525-23:17:23-22103
attr configname Stability-norelink
attr datetime 20130525-23:17:23
attr experiment Stability
attr inifile omnetpp.ini
attr iterationvars $0=1e1
attr iterationvars2 "$0=1e1, $repetition=1"
attr measurement $0=1e1
attr network Network
attr processid 22103
attr repetition 1
attr replication #1
attr resultdir results
attr runnumber 51
attr seedset 51

vector 4899  Network.dyn_peer[1]  lookupHopsSig:vector  ETV
vector 4900  Network.dyn_peer[1]  lookupStabilitySig:vector  ETV
vector 4901  Network.dyn_peer[1]  lookupTimeSig:vector  ETV
vector 4914  Network.dyn_peer[6]  lookupHopsSig:vector  ETV
vector 4915  Network.dyn_peer[6]  lookupStabilitySig:vector  ETV
vector 4916  Network.dyn_peer[6]  lookupTimeSig:vector  ETV
vector 4896  Network.dyn_peer[0]  lookupHopsSig:vector  ETV
vector 4897  Network.dyn_peer[0]  lookupStabilitySig:vector  ETV
vector 4898  Network.dyn_peer[0]  lookupTimeSig:vector  ETV
vector 4908  Network.dyn_peer[4]  lookupHopsSig:vector  ETV
vector 4909  Network.dyn_peer[4]  lookupStabilitySig:vector  ETV
vector 4910  Network.dyn_peer[4]  lookupTimeSig:vector  ETV
vector 4917  Network.dyn_peer[7]  lookupHopsSig:vector  ETV
vector 4918  Network.dyn_peer[7]  lookupStabilitySig:vector  ETV
vector 4919  Network.dyn_peer[7]  lookupTimeSig:vector  ETV
vector 4920  Network.dyn_peer[8]  lookupHopsSig:vector  ETV
vector 4921  Network.dyn_peer[8]  lookupStabilitySig:vector  ETV
vector 4922  Network.dyn_peer[8]  lookupTimeSig:vector  ETV
vector 4932  Network.dyn_peer[12]  lookupHopsSig:vector  ETV
vector 4933  Network.dyn_peer[12]  lookupStabilitySig:vector  ETV
vector 4934  Network.dyn_peer[12]  lookupTimeSig:vector  ETV
vector 4905  Network.dyn_peer[3]  lookupHopsSig:vector  ETV
vector 4906  Network.dyn_peer[3]  lookupStabilitySig:vector  ETV
vector 4907  Network.dyn_peer[3]  lookupTimeSig:vector  ETV
vector 4911  Network.dyn_peer[5]  lookupHopsSig:vector  ETV
vector 4912  Network.dyn_peer[5]  lookupStabilitySig:vector  ETV
vector 4913  Network.dyn_peer[5]  lookupTimeSig:vector  ETV
vector 4971  Network.dyn_peer[25]  lookupHopsSig:vector  ETV
vector 4972  Network.dyn_peer[25]  lookupStabilitySig:vector  ETV
vector 4973  Network.dyn_peer[25]  lookupTimeSig:vector  ETV
vector 4923  Network.dyn_peer[9]  lookupHopsSig:vector  ETV
vector 4924  Network.dyn_peer[9]  lookupStabilitySig:vector  ETV
vector 4925  Network.dyn_peer[9]  lookupTimeSig:vector  ETV
vector 4926  Network.dyn_peer[10]  lookupHopsSig:vector  ETV
vector 4927  Network.dyn_peer[10]  lookupStabilitySig:vector  ETV
vector 4928  Network.dyn_peer[10]  lookupTimeSig:vector  ETV
vector 4959  Network.dyn_peer[21]  lookupHopsSig:vector  ETV
vector 4960  Network.dyn_peer[21]  lookupStabilitySig:vector  ETV
vector 4961  Network.dyn_peer[21]  lookupTimeSig:vector  ETV
vector 4902  Network.dyn_peer[2]  lookupHopsSig:vector  ETV
vector 4903  Network.dyn_peer[2]  lookupStabilitySig:vector  ETV
vector 4904  Network.dyn_peer[2]  lookupTimeSig:vector  ETV
vector 4935  Network.dyn_peer[13]  lookupHopsSig:vector  ETV
vector 4936  Network.dyn_peer[13]  lookupStabilitySig:vector  ETV
vector 4937  Network.dyn_peer[13]  lookupTimeSig:vector  ETV
vector 4941  Network.dyn_peer[15]  lookupHopsSig:vector  ETV
vector 4942  Network.dyn_peer[15]  lookupStabilitySig:vector  ETV
vector 4943  Network.dyn_peer[15]  lookupTimeSig:vector  ETV
vector 4944  Network.dyn_peer[16]  lookupHopsSig:vector  ETV
vector 4945  Network.dyn_peer[16]  lookupStabilitySig:vector  ETV
vector 4946  Network.dyn_peer[16]  lookupTimeSig:vector  ETV
vector 4947  Network.dyn_peer[17]  lookupHopsSig:vector  ETV
vector 4948  Network.dyn_peer[17]  lookupStabilitySig:vector  ETV
vector 4949  Network.dyn_peer[17]  lookupTimeSig:vector  ETV
vector 4977  Network.dyn_peer[27]  lookupHopsSig:vector  ETV
vector 4978  Network.dyn_peer[27]  lookupStabilitySig:vector  ETV
vector 4979  Network.dyn_peer[27]  lookupTimeSig:vector  ETV
vector 4980  Network.dyn_peer[28]  lookupHopsSig:vector  ETV
vector 4981  Network.dyn_peer[28]  lookupStabilitySig:vector  ETV
vector 4982  Network.dyn_peer[28]  lookupTimeSig:vector  ETV
vector 4938  Network.dyn_peer[14]  lookupHopsSig:vector  ETV
vector 4939  Network.dyn_peer[14]  lookupStabilitySig:vector  ETV
vector 4940  Network.dyn_peer[14]  lookupTimeSig:vector  ETV
vector 4956  Network.dyn_peer[20]  lookupHopsSig:vector  ETV
vector 4957  Network.dyn_peer[20]  lookupStabilitySig:vector  ETV
vector 4958  Network.dyn_peer[20]  lookupTimeSig:vector  ETV
vector 4986  Network.dyn_peer[30]  lookupHopsSig:vector  ETV
vector 4987  Network.dyn_peer[30]  lookupStabilitySig:vector  ETV
vector 4988  Network.dyn_peer[30]  lookupTimeSig:vector  ETV
vector 4929  Network.dyn_peer[11]  lookupHopsSig:vector  ETV
vector 4930  Network.dyn_peer[11]  lookupStabilitySig:vector  ETV
vector 4931  Network.dyn_peer[11]  lookupTimeSig:vector  ETV
vector 4962  Network.dyn_peer[22]  lookupHopsSig:vector  ETV
vector 4963  Network.dyn_peer[22]  lookupStabilitySig:vector  ETV
vector 4964  Network.dyn_peer[22]  lookupTimeSig:vector  ETV
vector 4965  Network.dyn_peer[23]  lookupHopsSig:vector  ETV
vector 4966  Network.dyn_peer[23]  lookupStabilitySig:vector  ETV
vector 4967  Network.dyn_peer[23]  lookupTimeSig:vector  ETV
vector 4989  Network.dyn_peer[31]  lookupHopsSig:vector  ETV
vector 4990  Network.dyn_peer[31]  lookupStabilitySig:vector  ETV
vector 4991  Network.dyn_peer[31]  lookupTimeSig:vector  ETV
vector 4968  Network.dyn_peer[24]  lookupHopsSig:vector  ETV
vector 4969  Network.dyn_peer[24]  lookupStabilitySig:vector  ETV
vector 4970  Network.dyn_peer[24]  lookupTimeSig:vector  ETV
vector 4950  Network.dyn_peer[18]  lookupHopsSig:vector  ETV
vector 4951  Network.dyn_peer[18]  lookupStabilitySig:vector  ETV
vector 4952  Network.dyn_peer[18]  lookupTimeSig:vector  ETV
vector 4953  Network.dyn_peer[19]  lookupHopsSig:vector  ETV
vector 4954  Network.dyn_peer[19]  lookupStabilitySig:vector  ETV
vector 4955  Network.dyn_peer[19]  lookupTimeSig:vector  ETV
vector 4983  Network.dyn_peer[29]  lookupHopsSig:vector  ETV
vector 4984  Network.dyn_peer[29]  lookupStabilitySig:vector  ETV
vector 4985  Network.dyn_peer[29]  lookupTimeSig:vector  ETV
vector 4974  Network.dyn_peer[26]  lookupHopsSig:vector  ETV
vector 4975  Network.dyn_peer[26]  lookupStabilitySig:vector  ETV
vector 4976  Network.dyn_peer[26]  lookupTimeSig:vector  ETV
4896	67	20.11	1
4896	195	20.31	1
4896	818	21.211743854067	8
4896	1353	21.714767075052	5
4896	1815	22.02702589906	3
4896	2691	22.803052102403	4
4896	3627	23.603052102403	8
4896	3932	23.907292398324	2
4896	4160	24.114970044377	1
4896	5015	24.933242813642	9
4896	5518	25.333242813642	3
4896	6754	26.439645864234	12
4896	7366	26.949978911262	4
4896	7497	27.073757219933	3
4896	7782	27.350051204503	4
4896	7838	27.383805943556	8
4896	7991	27.477073016295	3
4896	8105	27.590706471955	1
4896	8766	28.105349629051	5
4896	9079	28.305349629051	1
4896	9465	28.608017447825	2
4896	9683	28.801729448204	2
4896	9875	28.912383004898	2
4896	10029	29.058368538751	1
4896	10285	29.216443768445	4
4896	10287	29.218092975004	2
4896	10819	29.628192975004	5
4896	11955	30.628192975004	10
4896	12480	31.10370735371	9
4896	12612	31.206418295854	1
4896	12688	31.233065084169	5
4896	12988	31.450873357448	2
4896	13030	31.507321520785	2
4896	13133	31.589095759416	2
4896	13624	32.004648106841	4
4896	13863	32.204648106841	1
4896	13915	32.219126881402	0
4896	14365	32.619126881402	3
4896	14763	32.92533449079	3
4896	15257	33.318997076255	5
4896	15420	33.444545124541	3
4896	15507	33.525935141287	1
4896	15509	33.52720503771	5
4896	16400	34.23730503771	7
4896	16875	34.63730503771	3
4896	17667	35.394572589374	7
4896	17809	35.539225006478	8
4896	17882	35.596979349911	1
4896	18285	35.926362274998	3
4896	18803	36.426362274998	4
4896	19086	36.698482061383	2
4896	19568	37.102091317731	3
4896	19692	37.2339093629	8
4896	20027	37.5440093629	3
4896	20279	37.7440093629	2
4896	20897	38.246797811154	4
4896	21145	38.456185510915	1
4896	22144	39.27532358084	11
4896	22354	39.47532358084	2
4896	23008	39.983657967188	4
4896	24677	41.390617917897	15
4896	25204	41.86061354343	6
4896	25315	41.945879963179	2
4896	25356	41.997229349994	5
4896	26276	42.70970255839	7
4896	27483	43.60970255839	8
4896	27763	43.836907869086	1
4896	28348	44.350403383439	5
4896	28922	44.859234027081	4
4896	29121	44.993077461073	8
4896	29690	45.473512882915	5
4896	30034	45.701715019185	6
4896	30070	45.730839249305	2
4896	30117	45.770273789737	11
4896	31249	46.682697292244	10
4896	31992	47.282697292244	7
4896	32453	47.584976082627	2
4896	32846	47.892797606069	3
4896	33081	48.060211745083	3
4896	34096	48.872013804331	8
4896	34607	49.272013804331	3
4896	35093	49.676209461063	4
4896	35593	50.103239410071	6
4896	35931	50.381024188043	6
4896	36114	50.552203669616	6
4896	36501	50.876549962819	3
4896	36850	51.176549962819	2
4896	37292	51.581588267689	1
4896	37461	51.689202805677	1
4896	38377	52.40043777149	7
4896	39335	53.30043777149	8
4896	39652	53.515852917791	1
4896	39718	53.590409147829	3
4896	40570	54.203834217007	7
4896	41061	54.603834217007	3
4896	41624	55.015489659539	4
4896	42180	55.426898655321	3
4896	42579	55.736998655321	3
4896	43021	56.136998655321	3
4896	43525	56.643026155871	5
4896	43809	56.853126155871	2
4896	44870	57.753126155871	9
4896	45557	58.261467666616	4
4896	46046	58.666209164473	3
4896	46253	58.786186399268	1
4896	48582	60.586186399268	19
4896	48926	60.892902684106	3
4896	49259	61.179732386739	4
4896	49688	61.496023938424	5
4896	49961	61.711731618566	1
4896	49982	61.724341182119	0
4896	50392	62.024341182119	2
4896	50877	62.43392720958	3
4896	51678	63.140945365519	7
4896	51691	63.166682558312	9
4896	51807	63.266582558312	11
4896	51949	63.34128855375	1
4896	52401	63.752259910105	4
4896	53016	64.252259910105	4
4896	54523	65.562359910105	13
4896	55430	66.262359910105	6
4896	55854	66.663427050379	3
4896	56069	66.869054590992	1
4896	56148	66.9444930182	1
4896	56743	67.578442808408	6
4896	56915	67.747293378447	7
4896	57370	68.160735055808	4
4896	57813	68.560735055808	4
4896	58391	69.063383096029	4
4896	58406	69.072431364623	4
4896	58818	69.468519032901	3
4896	58936	69.582075978324	4
4896	59765	70.301974038343	7
4896	60982	71.201974038343	10
4896	61998	72.209421147043	9
4896	62168	72.344463048282	9
4896	62682	72.777093395208	4
4896	63690	73.577093395208	8
4896	64186	73.979062756077	3
4896	64651	74.382970590875	3
4896	65003	74.68908962391	2
4896	65810	75.301328080011	7
4896	66673	76.001328080011	7
4896	66771	76.07672608535	2
4896	66929	76.201735903875	2
4896	67049	76.290328710643	1
4896	67187	76.405924847901	3
4896	67203	76.427386052318	1
4896	67396	76.61352933586	1
4896	67556	76.708786082823	3
4896	67709	76.835864498876	3
4896	68072	77.146047618309	3
4896	68856	77.846047618309	7
4896	69040	78.051603113616	1
4896	69856	78.71910766744	3
4896	70448	79.226254618116	4
4896	70608	79.35976581574	15
4896	71423	80.05451121142	5
4896	71665	80.25451121142	1
4896	72843	81.257606022528	9
4896	73686	81.96340011331	7
4896	74151	82.33309843583	7
4896	74205	82.364413251185	3
4896	74211	82.371054060384	3
4896	74419	82.541725223392	1
4896	74589	82.666040955066	2
4896	74608	82.68013492809	2
4896	74837	82.893973926551	3
4896	75351	83.393973926551	4
4896	75845	83.847279959937	4
4896	76175	84.067394414816	1
4896	76244	84.118917638391	6
4896	76265	84.137237493932	0
4896	77290	84.937237493932	7
4896	77578	85.150770798174	1
4896	78114	85.565310763194	4
4896	78678	86.065310763194	4
4896	79002	86.475004043144	3
4896	79236	86.680940068068	1
4896	80148	87.39460995495	7
4896	80490	87.69460995495	2
4896	80864	87.998082478567	3
4896	81133	88.176567694619	2
4896	81788	88.732085564476	3
4896	82215	89.064709170056	3
4896	82508	89.264709170056	1
4896	83510	90.066525536633	8
4896	83795	90.279211720892	1
4896	84578	90.883452788213	7
4896	85182	91.509103953869	14
4896	85258	91.585629640152	6
4896	85441	91.767374921959	14
4896	85494	91.813581545225	3
4896	86381	92.529306050972	7
4896	87067	93.036769885166	4
4896	87623	93.443170322681	3
4896	88569	94.152307536162	7
4896	88960	94.505453842004	5
4896	89225	94.712445917575	1
4896	89263	94.759966499031	6
4896	89453	94.913894079405	1
4896	89484	94.951129111681	4
4896	91028	96.167012960478	13
4896	91253	96.367012960478	1
4896	91635	96.677383849096	2
4896	91916	96.895843651863	1
4896	92477	97.314252088803	4
4896	93442	98.114252088803	8
4896	93840	98.416466200376	2
4896	94511	98.928494083682	5
4896	94661	99.028494083682	1
4896	95056	99.337674017787	2
4896	95402	99.637674017787	2
4896	96294	100.456227407789	8
4896	96767	100.86448107793	3
4896	97064	101.11015275181	3
4896	97368	101.32790862867	2
4896	97421	101.369883219813	4
4896	98238	101.983441853263	6
4896	98983	102.683441853263	7
4896	99679	103.284368192384	5
4896	100028	103.584515421984	2
4896	100448	103.970514494507	3
4896	100469	103.988000761074	3
4896	100536	104.040305676238	11
4896	100865	104.349273808413	2
4896	101367	104.767530129606	4
4896	101884	105.167530129606	3
4896	102295	105.474029108756	2
4896	102366	105.517692423734	2
4896	102699	105.776176181949	2
4896	103139	106.094616233717	2
4896	103201	106.127703386594	7
4896	103353	106.239215608802	1
4896	104270	107.039215608802	7
4896	105101	107.741978394449	6
4896	105686	108.1496440792	3
4896	106141	108.55184774353	3
4896	106458	108.880306629128	2
4896	106637	109.05643757863	12
4896	107323	109.669765161336	6
4896	108954	111.169765161336	16
4896	108973	111.178364465401	5
4896	109332	111.491969799391	3
4896	109769	111.891969799391	3
4896	110142	112.197781418292	2
4896	110721	112.719545763811	5
4896	111926	113.740389865734	11
4896	112375	114.140389865734	3
4896	112847	114.513224798819	4
4896	113182	114.75523400928	6
4896	113322	114.86533400928	1
4896	114266	115.56533400928	6
4896	115176	116.273374069217	6
4896	116037	117.057209475169	7
4896	116169	117.175907132069	9
4896	116694	117.589468367104	4
4896	118444	119.092981444336	16
4896	118996	119.502560759789	3
4896	119027	119.512660759789	0
4896	120022	120.317169925778	5
4896	121082	121.327269925778	11
4896	121946	122.027269925778	7
4896	122393	122.326269507207	2
4896	122643	122.535305612872	5
4896	123004	122.914471448269	7
4896	123028	122.935754142395	6
4896	123307	123.148234001789	2
4896	123626	123.448234001789	2
4896	125022	124.70428016483	11
4896	125428	125.114665600952	3
4896	125641	125.34958046789	19
4896	125844	125.551311100874	1
4896	126054	125.770617510614	2
4896	126537	126.270617510614	4
4896	126885	126.578995111103	3
4896	127197	126.821223118164	4
4896	127403	126.985910396869	4
4896	127772	127.328005932707	5
4896	127904	127.447038962561	1
4896	128210	127.747038962561	2
4896	128567	128.053667199157	2
4896	128977	128.454461847617	4
4896	129497	128.964717564611	7
4896	129984	129.464717564611	4
4896	131174	130.469155804191	11
4896	131439	130.672831852498	1
4896	131468	130.712477446629	1
4896	131772	130.928009222461	2
4896	132150	131.228009222461	2
4896	132385	131.437216703334	1
4896	132619	131.650706509424	2
4896	132920	131.950706509424	2
4896	133240	132.285372394389	1
4896	133400	132.463222963625	5
4896	134002	132.975877243253	5
4896	135849	134.275877243253	12
4896	136065	134.477559404052	1
4896	136205	134.586206555797	1
4896	136415	134.787766631624	1
4896	136769	135.105430891526	3
4896	137323	135.605430891526	4
4896	137777	136.112511659365	4
4896	137884	136.317567085437	1
4896	137945	136.528785000861	1
4897	67	20.11	0.875
4897	195	20.31	0.875
4897	818	21.211743854067	0
4897	1353	21.714767075052	0.375
4897	1815	22.02702589906	0.625
4897	2691	22.803052102403	0.5
4897	3627	23.603052102403	0
4897	3932	23.907292398324	0.75
4897	4160	24.114970044377	0.875
4897	5015	24.933242813642	-0.125
4897	5518	25.333242813642	0.625
4897	6754	26.439645864234	-0.5
4897	7366	26.949978911262	0.5
4897	7497	27.073757219933	0.625
4897	7782	27.350051204503	0.5
4897	7838	27.383805943556	0
4897	7991	27.477073016295	0.625
4897	8105	27.590706471955	0.875
4897	8766	28.105349629051	0.375
4897	9079	28.305349629051	0.875
4897	9465	28.608017447825	0.75
4897	9683	28.801729448204	0.75
4897	9875	28.912383004898	0.75
4897	10029	29.058368538751	0.875
4897	10285	29.216443768445	0.5
4897	10287	29.218092975004	0.75
4897	10819	29.628192975004	0.375
4897	11955	30.628192975004	-0.25
4897	12480	31.10370735371	-0.125
4897	12612	31.206418295854	0.875
4897	12688	31.233065084169	0.375
4897	12988	31.450873357448	0.75
4897	13030	31.507321520785	0.75
4897	13133	31.589095759416	0.75
4897	13624	32.004648106841	0.5
4897	13863	32.204648106841	0.875
4897	13915	32.219126881402	1
4897	14365	32.619126881402	0.625
4897	14763	32.92533449079	0.625
4897	15257	33.318997076255	0.375
4897	15420	33.444545124541	0.625
4897	15507	33.525935141287	0.875
4897	15509	33.52720503771	0.375
4897	16400	34.23730503771	0.125
4897	16875	34.63730503771	0.625
4897	17667	35.394572589374	0.125
4897	17809	35.539225006478	0
4897	17882	35.596979349911	0.875
4897	18285	35.926362274998	0.625
4897	18803	36.426362274998	0.5
4897	19086	36.698482061383	0.75
4897	19568	37.102091317731	0.625
4897	19692	37.2339093629	0
4897	20027	37.5440093629	0.625
4897	20279	37.7440093629	0.75
4897	20897	38.246797811154	0.5
4897	21145	38.456185510915	0.875
4897	22144	39.27532358084	-0.375
4897	22354	39.47532358084	0.75
4897	23008	39.983657967188	0.5
4897	24677	41.390617917897	-0.875
4897	25204	41.86061354343	0.25
4897	25315	41.945879963179	0.75
4897	25356	41.997229349994	0.375
4897	26276	42.70970255839	0.125
4897	27483	43.60970255839	0
4897	27763	43.836907869086	0.875
4897	28348	44.350403383439	0.375
4897	28922	44.859234027081	0.5
4897	29121	44.993077461073	0
4897	29690	45.473512882915	0.375
4897	30034	45.701715019185	0.25
4897	30070	45.730839249305	0.75
4897	30117	45.770273789737	-0.375
4897	31249	46.682697292244	-0.25
4897	31992	47.282697292244	0.125
4897	32453	47.584976082627	0.75
4897	32846	47.892797606069	0.625
4897	33081	48.060211745083	0.625
4897	34096	48.872013804331	0
4897	34607	49.272013804331	0.625
4897	35093	49.676209461063	0.5
4897	35593	50.103239410071	0.25
4897	35931	50.381024188043	0.25
4897	36114	50.552203669616	0.25
4897	36501	50.876549962819	0.625
4897	36850	51.176549962819	0.75
4897	37292	51.581588267689	0.875
4897	37461	51.689202805677	0.875
4897	38377	52.40043777149	0.125
4897	39335	53.30043777149	0
4897	39652	53.515852917791	0.875
4897	39718	53.590409147829	0.625
4897	40570	54.203834217007	0.125
4897	41061	54.603834217007	0.625
4897	41624	55.015489659539	0.5
4897	42180	55.426898655321	0.625
4897	42579	55.736998655321	0.625
4897	43021	56.136998655321	0.625
4897	43525	56.643026155871	0.375
4897	43809	56.853126155871	0.75
4897	44870	57.753126155871	-0.125
4897	45557	58.261467666616	0.5
4897	46046	58.666209164473	0.625
4897	46253	58.786186399268	0.875
4897	48582	60.586186399268	-1.375
4897	48926	60.892902684106	0.625
4897	49259	61.179732386739	0.5
4897	49688	61.496023938424	0.375
4897	49961	61.711731618566	0.875
4897	49982	61.724341182119	1
4897	50392	62.024341182119	0.75
4897	50877	62.43392720958	0.625
4897	51678	63.140945365519	0.125
4897	51691	63.166682558312	-0.125
4897	51807	63.266582558312	-0.375
4897	51949	63.34128855375	0.875
4897	52401	63.752259910105	0.5
4897	53016	64.252259910105	0.5
4897	54523	65.562359910105	-0.625
4897	55430	66.262359910105	0.25
4897	55854	66.663427050379	0.625
4897	56069	66.869054590992	0.875
4897	56148	66.9444930182	0.875
4897	56743	67.578442808408	0.25
4897	56915	67.747293378447	0.125
4897	57370	68.160735055808	0.5
4897	57813	68.560735055808	0.5
4897	58391	69.063383096029	0.5
4897	58406	69.072431364623	0.5
4897	58818	69.468519032901	0.625
4897	58936	69.582075978324	0.5
4897	59765	70.301974038343	0.125
4897	60982	71.201974038343	-0.25
4897	61998	72.209421147043	-0.125
4897	62168	72.344463048282	-0.125
4897	62682	72.777093395208	0.5
4897	63690	73.577093395208	0
4897	64186	73.979062756077	0.625
4897	64651	74.382970590875	0.625
4897	65003	74.68908962391	0.75
4897	65810	75.301328080011	0.125
4897	66673	76.001328080011	0.125
4897	66771	76.07672608535	0.75
4897	66929	76.201735903875	0.75
4897	67049	76.290328710643	0.875
4897	67187	76.405924847901	0.625
4897	67203	76.427386052318	0.875
4897	67396	76.61352933586	0.875
4897	67556	76.708786082823	0.625
4897	67709	76.835864498876	0.625
4897	68072	77.146047618309	0.625
4897	68856	77.846047618309	0.125
4897	69040	78.051603113616	0.875
4897	69856	78.71910766744	0.625
4897	70448	79.226254618116	0.5
4897	70608	79.35976581574	-0.875
4897	71423	80.05451121142	0.375
4897	71665	80.25451121142	0.875
4897	72843	81.257606022528	-0.125
4897	73686	81.96340011331	0.125
4897	74151	82.33309843583	0.125
4897	74205	82.364413251185	0.625
4897	74211	82.371054060384	0.625
4897	74419	82.541725223392	0.875
4897	74589	82.666040955066	0.75
4897	74608	82.68013492809	0.75
4897	74837	82.893973926551	0.625
4897	75351	83.393973926551	0.5
4897	75845	83.847279959937	0.5
4897	76175	84.067394414816	0.875
4897	76244	84.118917638391	0.25
4897	76265	84.137237493932	1
4897	77290	84.937237493932	0.125
4897	77578	85.150770798174	0.875
4897	78114	85.565310763194	0.5
4897	78678	86.065310763194	0.5
4897	79002	86.475004043144	0.625
4897	79236	86.680940068068	0.875
4897	80148	87.39460995495	0.125
4897	80490	87.69460995495	0.75
4897	80864	87.998082478567	0.625
4897	81133	88.176567694619	0.75
4897	81788	88.732085564476	0.625
4897	82215	89.064709170056	0.625
4897	82508	89.264709170056	0.875
4897	83510	90.066525536633	0
4897	83795	90.279211720892	0.875
4897	84578	90.883452788213	0.125
4897	85182	91.509103953869	-0.75
4897	85258	91.585629640152	0.25
4897	85441	91.767374921959	-0.75
4897	85494	91.813581545225	0.625
4897	86381	92.529306050972	0.125
4897	87067	93.036769885166	0.5
4897	87623	93.443170322681	0.625
4897	88569	94.152307536162	0.125
4897	88960	94.505453842004	0.375
4897	89225	94.712445917575	0.875
4897	89263	94.759966499031	0.25
4897	89453	94.913894079405	0.875
4897	89484	94.951129111681	0.5
4897	91028	96.167012960478	-0.625
4897	91253	96.367012960478	0.875
4897	91635	96.677383849096	0.75
4897	91916	96.895843651863	0.875
4897	92477	97.314252088803	0.5
4897	93442	98.114252088803	0
4897	93840	98.416466200376	0.75
4897	94511	98.928494083682	0.375
4897	94661	99.028494083682	0.875
4897	95056	99.337674017787	0.75
4897	95402	99.637674017787	0.75
4897	96294	100.456227407789	0
4897	96767	100.86448107793	0.625
4897	97064	101.11015275181	0.625
4897	97368	101.32790862867	0.75
4897	97421	101.369883219813	0.5
4897	98238	101.983441853263	0.25
4897	98983	102.683441853263	0.125
4897	99679	103.284368192384	0.375
4897	100028	103.584515421984	0.75
4897	100448	103.970514494507	0.625
4897	100469	103.988000761074	0.625
4897	100536	104.040305676238	-0.375
4897	100865	104.349273808413	0.75
4897	101367	104.767530129606	0.5
4897	101884	105.167530129606	0.625
4897	102295	105.474029108756	0.75
4897	102366	105.517692423734	0.75
4897	102699	105.776176181949	0.75
4897	103139	106.094616233717	0.75
4897	103201	106.127703386594	0.125
4897	103353	106.239215608802	0.875
4897	104270	107.039215608802	0.125
4897	105101	107.741978394449	0.25
4897	105686	108.1496440792	0.625
4897	106141	108.55184774353	0.625
4897	106458	108.880306629128	0.75
4897	106637	109.05643757863	-0.5
4897	107323	109.669765161336	0.25
4897	108954	111.169765161336	-1
4897	108973	111.178364465401	0.375
4897	109332	111.491969799391	0.625
4897	109769	111.891969799391	0.625
4897	110142	112.197781418292	0.75
4897	110721	112.719545763811	0.375
4897	111926	113.740389865734	-0.375
4897	112375	114.140389865734	0.625
4897	112847	114.513224798819	0.5
4897	113182	114.75523400928	0.25
4897	113322	114.86533400928	0.875
4897	114266	115.56533400928	0.25
4897	115176	116.273374069217	0.25
4897	116037	117.057209475169	0.125
4897	116169	117.175907132069	-0.125
4897	116694	117.589468367104	0.5
4897	118444	119.092981444336	-1
4897	118996	119.502560759789	0.625
4897	119027	119.512660759789	1
4897	120022	120.317169925778	0.375
4897	121082	121.327269925778	-0.375
4897	121946	122.027269925778	0.125
4897	122393	122.326269507207	0.75
4897	122643	122.535305612872	0.375
4897	123004	122.914471448269	0.125
4897	123028	122.935754142395	0.25
4897	123307	123.148234001789	0.75
4897	123626	123.448234001789	0.75
4897	125022	124.70428016483	-0.375
4897	125428	125.114665600952	0.625
4897	125641	125.34958046789	-1.375
4897	125844	125.551311100874	0.875
4897	126054	125.770617510614	0.75
4897	126537	126.270617510614	0.5
4897	126885	126.578995111103	0.625
4897	127197	126.821223118164	0.5
4897	127403	126.985910396869	0.5
4897	127772	127.328005932707	0.375
4897	127904	127.447038962561	0.875
4897	128210	127.747038962561	0.75
4897	128567	128.053667199157	0.75
4897	128977	128.454461847617	0.5
4897	129497	128.964717564611	0.125
4897	129984	129.464717564611	0.5
4897	131174	130.469155804191	-0.375
4897	131439	130.672831852498	0.875
4897	131468	130.712477446629	0.875
4897	131772	130.928009222461	0.75
4897	132150	131.228009222461	0.75
4897	132385	131.437216703334	0.875
4897	132619	131.650706509424	0.75
4897	132920	131.950706509424	0.75
4897	133240	132.285372394389	0.875
4897	133400	132.463222963625	0.375
4897	134002	132.975877243253	0.375
4897	135849	134.275877243253	-0.5
4897	136065	134.477559404052	0.875
4897	136205	134.586206555797	0.875
4897	136415	134.787766631624	0.875
4897	136769	135.105430891526	0.625
4897	137323	135.605430891526	0.5
4897	137777	136.112511659365	0.5
4897	137884	136.317567085437	0.875
4897	137945	136.528785000861	0.875
4898	67	20.11	0.1
4898	195	20.31	0.2
4898	818	21.211743854067	0.9
4898	1353	21.714767075052	0.5
4898	1815	22.02702589906	0.3
4898	2691	22.803052102403	0.4
4898	3627	23.603052102403	0.8
4898	3932	23.907292398324	0.3
4898	4160	24.114970044377	0.2
4898	5015	24.933242813642	0.8
4898	5518	25.333242813642	0.4
4898	6754	26.439645864234	1.1
4898	7366	26.949978911262	0.5
4898	7497	27.073757219933	0.4
4898	7782	27.350051204503	0.4
4898	7838	27.383805943556	0.8
4898	7991	27.477073016295	0.4
4898	8105	27.590706471955	0.2
4898	8766	28.105349629051	0.5
4898	9079	28.305349629051	0.2
4898	9465	28.608017447825	0.3
4898	9683	28.801729448204	0.3
4898	9875	28.912383004898	0.3
4898	10029	29.058368538751	0.2
4898	10285	29.216443768445	0.4
4898	10287	29.218092975004	0.3
4898	10819	29.628192975004	0.4
4898	11955	30.628192975004	1
4898	12480	31.10370735371	0.7
4898	12612	31.206418295854	0.1
4898	12688	31.233065084169	0.6
4898	12988	31.450873357448	0.3
4898	13030	31.507321520785	0.3
4898	13133	31.589095759416	0.3
4898	13624	32.004648106841	0.4
4898	13863	32.204648106841	0.2
4898	13915	32.219126881402	0
4898	14365	32.619126881402	0.4
4898	14763	32.92533449079	0.3
4898	15257	33.318997076255	0.6
4898	15420	33.444545124541	0.3
4898	15507	33.525935141287	0.2
4898	15509	33.52720503771	0.6
4898	16400	34.23730503771	0.7
4898	16875	34.63730503771	0.4
4898	17667	35.394572589374	0.6
4898	17809	35.539225006478	0.9
4898	17882	35.596979349911	0.2
4898	18285	35.926362274998	0.3
4898	18803	36.426362274998	0.5
4898	19086	36.698482061383	0.3
4898	19568	37.102091317731	0.4
4898	19692	37.2339093629	0.8
4898	20027	37.5440093629	0.3
4898	20279	37.7440093629	0.2
4898	20897	38.246797811154	0.5
4898	21145	38.456185510915	0.2
4898	22144	39.27532358084	0.8
4898	22354	39.47532358084	0.2
4898	23008	39.983657967188	0.5
4898	24677	41.390617917897	1.4
4898	25204	41.86061354343	0.7
4898	25315	41.945879963179	0.3
4898	25356	41.997229349994	0.6
4898	26276	42.70970255839	0.7
4898	27483	43.60970255839	0.9
4898	27763	43.836907869086	0.2
4898	28348	44.350403383439	0.5
4898	28922	44.859234027081	0.5
4898	29121	44.993077461073	0.9
4898	29690	45.473512882915	0.6
4898	30034	45.701715019185	0.7
4898	30070	45.730839249305	0.3
4898	30117	45.770273789737	0.9
4898	31249	46.682697292244	0.9
4898	31992	47.282697292244	0.6
4898	32453	47.584976082627	0.3
4898	32846	47.892797606069	0.3
4898	33081	48.060211745083	0.4
4898	34096	48.872013804331	0.8
4898	34607	49.272013804331	0.4
4898	35093	49.676209461063	0.4
4898	35593	50.103239410071	0.7
4898	35931	50.381024188043	0.7
4898	36114	50.552203669616	0.7
4898	36501	50.876549962819	0.3
4898	36850	51.176549962819	0.3
4898	37292	51.581588267689	0.2
4898	37461	51.689202805677	0.2
4898	38377	52.40043777149	0.7
4898	39335	53.30043777149	0.9
4898	39652	53.515852917791	0.2
4898	39718	53.590409147829	0.3
4898	40570	54.203834217007	0.6
4898	41061	54.603834217007	0.4
4898	41624	55.015489659539	0.4
4898	42180	55.426898655321	0.4
4898	42579	55.736998655321	0.3
4898	43021	56.136998655321	0.4
4898	43525	56.643026155871	0.5
4898	43809	56.853126155871	0.2
4898	44870	57.753126155871	0.9
4898	45557	58.261467666616	0.5
4898	46046	58.666209164473	0.4
4898	46253	58.786186399268	0.1
4898	48582	60.586186399268	1.8
4898	48926	60.892902684106	0.3
4898	49259	61.179732386739	0.5
4898	49688	61.496023938424	0.6
4898	49961	61.711731618566	0.2
4898	49982	61.724341182119	0
4898	50392	62.024341182119	0.3
4898	50877	62.43392720958	0.4
4898	51678	63.140945365519	0.7
4898	51691	63.166682558312	0.9
4898	51807	63.266582558312	1
4898	51949	63.34128855375	0.2
4898	52401	63.752259910105	0.4
4898	53016	64.252259910105	0.5
4898	54523	65.562359910105	1.3
4898	55430	66.262359910105	0.7
4898	55854	66.663427050379	0.4
4898	56069	66.869054590992	0.2
4898	56148	66.9444930182	0.2
4898	56743	67.578442808408	0.7
4898	56915	67.747293378447	0.8
4898	57370	68.160735055808	0.4
4898	57813	68.560735055808	0.4
4898	58391	69.063383096029	0.5
4898	58406	69.072431364623	0.5
4898	58818	69.468519032901	0.4
4898	58936	69.582075978324	0.5
4898	59765	70.301974038343	0.7
4898	60982	71.201974038343	0.9
4898	61998	72.209421147043	1
4898	62168	72.344463048282	1
4898	62682	72.777093395208	0.4
4898	63690	73.577093395208	0.8
4898	64186	73.979062756077	0.4
4898	64651	74.382970590875	0.4
4898	65003	74.68908962391	0.3
4898	65810	75.301328080011	0.6
4898	66673	76.001328080011	0.7
4898	66771	76.07672608535	0.3
4898	66929	76.201735903875	0.2
4898	67049	76.290328710643	0.2
4898	67187	76.405924847901	0.4
4898	67203	76.427386052318	0.2
4898	67396	76.61352933586	0.2
4898	67556	76.708786082823	0.4
4898	67709	76.835864498876	0.4
4898	68072	77.146047618309	0.3
4898	68856	77.846047618309	0.7
4898	69040	78.051603113616	0.2