file 897783 1369674155                                          
version 2
run Stability-norelink-100-20130525-23:20:41-22103
attr configname Stability-norelink
attr datetime 20130525-23:20:41
attr experiment Stability
attr inifile omnetpp.ini
attr iterationvars $0=1e-4
attr iterationvars2 "$0=1e-4, $repetition=0"
attr measurement $0=1e-4
attr network Network
attr processid 22103
attr repetition 0
attr replication #0
attr resultdir results
attr runnumber 100
attr seedset 100
vector 9636  Network.dyn_peer[12]  lookupHopsSig:vector  ETV
9636	338957 9033 66 135704 20.0000013 134.106322617671 307 0 19 1328 9112
vector 9637  Network.dyn_peer[12]  lookupStabilitySig:vector  ETV
9637	347990 10046 66 135704 20.0000013 134.106322617671 307 -1.375 1 141.16666662693 117.46566355081
vector 9638  Network.dyn_peer[12]  lookupTimeSig:vector  ETV
9638	358036 9600 66 135704 20.0000013 134.106322617671 307 0 1.6 148.3 97.23
vector 9648  Network.dyn_peer[16]  lookupHopsSig:vector  ETV
9648	450844 9312 82 134977 20.0000017 133.470622372887 318 0 22 1224 7336
vector 9649  Network.dyn_peer[16]  lookupStabilitySig:vector  ETV
9649	460156 10408 82 134977 20.0000017 133.470622372887 318 -1.75 1 165.04166666418 126.69193672435
vector 9650  Network.dyn_peer[16]  lookupTimeSig:vector  ETV
9650	470564 9919 82 134977 20.0000017 133.470622372887 318 0 2.1 139.5 83.97
vector 9600  Network.dyn_peer[0]  lookupHopsSig:vector  ETV
9600	6402 8395 132 135599 20.1000001 133.989817489556 285 0 21 1294 9404
vector 9601  Network.dyn_peer[0]  lookupStabilitySig:vector  ETV
9601	14797 9369 132 135599 20.1000001 133.989817489556 285 -1.625 1 123.44444438815 108.59683636971
vector 9602  Network.dyn_peer[0]  lookupTimeSig:vector  ETV
9602	24166 8930 132 135599 20.1000001 133.989817489556 285 0 2.1 143.6 101.4
vector 9606  Network.dyn_peer[2]  lookupHopsSig:vector  ETV
9606	61542 8896 138 135165 20.1000003 133.619532926055 303 0 25 1234 8436
vector 9607  Network.dyn_peer[2]  lookupStabilitySig:vector  ETV
9607	70438 9917 138 135165 20.1000003 133.619532926055 303 -2.125 1 148.80555555224 126.39737653806
vector 9608  Network.dyn_peer[2]  lookupTimeSig:vector  ETV
9608	80355 9469 138 135165 20.1000003 133.619532926055 303 0 2.4 138.1 91.47
vector 9615  Network.dyn_peer[5]  lookupHopsSig:vector  ETV
9615	146885 9177 145 134389 20.1000006 132.796959697259 312 0 26 1295 9131
vector 9616  Network.dyn_peer[5]  lookupStabilitySig:vector  ETV
9616	156062 10184 145 134389 20.1000006 132.796959697259 312 -2.25 1 150.125 130.921875
vector 9617  Network.dyn_peer[5]  lookupTimeSig:vector  ETV
9617	166246 9758 145 134389 20.1000006 132.796959697259 312 0 2.4 145.4 97.48
vector 9618  Network.dyn_peer[6]  lookupHopsSig:vector  ETV
9618	176004 8319 150 135782 20.1000007 134.201180382778 283 0 17 1167 7307
vector 9619  Network.dyn_peer[6]  lookupStabilitySig:vector  ETV
9619	184323 9232 150 135782 20.1000007 134.201180382778 283 -1.125 1 137.125 105.421875
vector 9620  Network.dyn_peer[6]  lookupTimeSig:vector  ETV
9620	193555 8853 150 135782 20.1000007 134.201180382778 283 0 1.5 130.3 79.25
vector 9621  Network.dyn_peer[7]  lookupHopsSig:vector  ETV
9621	202408 8585 155 135002 20.1000008 133.476793578668 292 0 20 1242 7946
vector 9622  Network.dyn_peer[7]  lookupStabilitySig:vector  ETV
9622	210993 9572 155 135002 20.1000008 133.476793578668 292 -1.5 1 136.94444441795 105.82870367942
vector 9623  Network.dyn_peer[7]  lookupTimeSig:vector  ETV
9623	220565 9132 155 135002 20.1000008 133.476793578668 292 0 1.8 138.8 87.54
vector 9624  Network.dyn_peer[8]  lookupHopsSig:vector  ETV
9624	229697 9068 160 134825 20.1000009 133.278675101431 308 0 16 1258 7746
vector 9625  Network.dyn_peer[8]  lookupStabilitySig:vector  ETV
9625	238765 10065 160 134825 20.1000009 133.278675101431 308 -1 1 150.88888888061 114.69097221229
vector 9626  Network.dyn_peer[8]  lookupTimeSig:vector  ETV
9626	248830 9646 160 134825 20.1000009 133.278675101431 308 0 1.5 141.3 87.11
vector 9630  Network.dyn_peer[10]  lookupHopsSig:vector  ETV
9630	284067 8131 166 134660 20.1000011 133.112861752173 277 0 21 1234 8646
vector 9631  Network.dyn_peer[10]  lookupStabilitySig:vector  ETV
9631	292198 9053 166 134660 20.1000011 133.112861752173 277 -1.625 1 122.80555555224 103.65239197163
vector 9632  Network.dyn_peer[10]  lookupTimeSig:vector  ETV
9632	301251 8650 166 134660 20.1000011 133.112861752173 277 0 1.8 135.7 90.75
vector 9654  Network.dyn_peer[18]  lookupHopsSig:vector  ETV
9654	509096 8829 178 134520 20.1000019 132.968870021565 301 0 17 1155 6923
vector 9655  Network.dyn_peer[18]  lookupStabilitySig:vector  ETV
9655	517925 9817 178 134520 20.1000019 132.968870021565 301 -1.125 1 156.65277777612 120.46431326903
vector 9656  Network.dyn_peer[18]  lookupTimeSig:vector  ETV
9656	527742 9392 178 134520 20.1000019 132.968870021565 301 0 1.4 128.8 74.46
vector 9669  Network.dyn_peer[23]  lookupHopsSig:vector  ETV
9669	651092 8717 187 135250 20.1000024 133.684013471038 297 0 23 1268 8772
vector 9670  Network.dyn_peer[23]  lookupStabilitySig:vector  ETV
9670	659809 9675 187 135250 20.1000024 133.684013471038 297 -1.875 1 138.55555555224 117.12114197163
vector 9671  Network.dyn_peer[23]  lookupTimeSig:vector  ETV
9671	669484 9274 187 135250 20.1000024 133.684013471038 297 0 2.2 141.1 95.81
vector 9678  Network.dyn_peer[26]  lookupHopsSig:vector  ETV
9678	732203 8133 194 135669 20.1000027 134.084113471038 276 0 22 1206 8318
vector 9679  Network.dyn_peer[26]  lookupStabilitySig:vector  ETV
9679	740336 9013 194 135669 20.1000027 134.084113471038 276 -1.75 1 125.26388888806 104.49324845532
vector 9680  Network.dyn_peer[26]  lookupTimeSig:vector  ETV
9680	749349 8634 194 135669 20.1000027 134.084113471038 276 0 1.8 132.9 87.07
vector 9609  Network.dyn_peer[3]  lookupHopsSig:vector  ETV
9609	89824 8718 208 135406 20.2000004 133.820911979677 296 0 22 1237 8239
vector 9610  Network.dyn_peer[3]  lookupStabilitySig:vector  ETV
9610	98542 9724 208 135406 20.2000004 133.820911979677 296 -1.75 1 141.40277777612 115.52681326903
vector 9611  Network.dyn_peer[3]  lookupTimeSig:vector  ETV
9611	108266 9272 208 135406 20.2000004 133.820911979677 296 0 1.9 137.2 88.34
vector 9633  Network.dyn_peer[11]  lookupHopsSig:vector  ETV
9633	309901 9148 220 135575 20.2000012 133.979920268237 311 0 26 1200 7152
vector 9634  Network.dyn_peer[11]  lookupStabilitySig:vector  ETV
9634	319049 10154 220 135575 20.2000012 133.979920268237 311 -2.25 1 161 122.75
vector 9635  Network.dyn_peer[11]  lookupTimeSig:vector  ETV
9635	329203 9754 220 135575 20.2000012 133.979920268237 311 0 2.5 134.4 78.16
vector 9645  Network.dyn_peer[15]  lookupHopsSig:vector  ETV
9645	422600 8899 229 135753 20.2000016 134.1802848154 303 0 20 1342 9530
vector 9646  Network.dyn_peer[15]  lookupStabilitySig:vector  ETV
9646	431499 9879 229 135753 20.2000016 134.1802848154 303 -1.5 1 135.25 116.40625
vector 9647  Network.dyn_peer[15]  lookupTimeSig:vector  ETV
9647	441378 9466 229 135753 20.2000016 134.1802848154 303 0 1.9 147.4 101.3
vector 9651  Network.dyn_peer[17]  lookupHopsSig:vector  ETV
9651	480483 9025 235 134088 20.2000018 132.468729858469 307 0 14 1275 8173
vector 9652  Network.dyn_peer[17]  lookupStabilitySig:vector  ETV
9652	489508 10004 235 134088 20.2000018 132.468729858469 307 -0.75 1 147.66666665673 116.0069444312
vector 9653  Network.dyn_peer[17]  lookupTimeSig:vector  ETV
9653	499512 9584 235 134088 20.2000018 132.468729858469 307 0 1.3 142.2 89.68
vector 9657  Network.dyn_peer[19]  lookupHopsSig:vector  ETV
9657	537134 8448 241 134469 20.200002 132.883749900743 288 0 17 1175 7341
vector 9658  Network.dyn_peer[19]  lookupStabilitySig:vector  ETV
9658	545582 9441 241 134469 20.200002 132.883749900743 288 -1.125 1 141.44444437325 109.20177463212
vector 9659  Network.dyn_peer[19]  lookupTimeSig:vector  ETV
9659	555023 8992 241 134469 20.200002 132.883749900743 288 0 1.7 132 79.92
vector 9660  Network.dyn_peer[20]  lookupHopsSig:vector  ETV
9660	564015 9469 246 135326 20.2000021 133.771588031961 321 0 21 1419 10187
vector 9661  Network.dyn_peer[20]  lookupStabilitySig:vector  ETV
9661	573484 10505 246 135326 20.2000021 133.771588031961 321 -1.625 1 143.625 125.421875
vector 9662  Network.dyn_peer[20]  lookupTimeSig:vector  ETV
9662	583989 10066 246 135326 20.2000021 133.771588031961 321 0 2 157.1 108.13
vector 9663  Network.dyn_peer[21]  lookupHopsSig:vector  ETV
9663	594055 9484 251 135816 20.2000022 134.278307274467 322 0 19 1330 8742
vector 9664  Network.dyn_peer[21]  lookupStabilitySig:vector  ETV
9664	603539 10553 251 135816 20.2000022 134.278307274467 322 -1.375 1 155.91666662693 126.26311724348
vector 9665  Network.dyn_peer[21]  lookupTimeSig:vector  ETV
9665	614092 10089 251 135816 20.2000022 134.278307274467 322 0 1.7 147.7 93.35
vector 9681  Network.dyn_peer[27]  lookupHopsSig:vector  ETV
9681	757983 8585 260 135404 20.2000028 133.819774720132 291 0 19 1202 8104
vector 9682  Network.dyn_peer[27]  lookupStabilitySig:vector  ETV
9682	766568 9564 260 135404 20.2000028 133.819774720132 291 -1.375 1 140.84722220898 117.15875771016
vector 9683  Network.dyn_peer[27]  lookupTimeSig:vector  ETV
9683	776132 9131 260 135404 20.2000028 133.819774720132 291 0 1.7 134.6 86.66
vector 9684  Network.dyn_peer[28]  lookupHopsSig:vector  ETV
9684	785263 8876 265 134261 20.2000029 132.672953943457 301 0 18 1330 9096
vector 9685  Network.dyn_peer[28]  lookupStabilitySig:vector  ETV
9685	794139 9848 265 134261 20.2000029 132.672953943457 301 -1.25 1 134.80555555224 110.68364197163
vector 9686  Network.dyn_peer[28]  lookupTimeSig:vector  ETV
9686	803987 9439 265 134261 20.2000029 132.672953943457 301 0 1.6 145.8 95.14
vector 9687  Network.dyn_peer[29]  lookupHopsSig:vector  ETV
9687	813426 8376 270 135193 20.200003 133.668633665019 285 0 21 1204 8322
vector 9688  Network.dyn_peer[29]  lookupStabilitySig:vector  ETV
9688	821802 9306 270 135193 20.200003 133.668633665019 285 -1.625 1 134.68055555224 114.07426697163
vector 9689  Network.dyn_peer[29]  lookupTimeSig:vector  ETV
9689	831108 8904 270 135193 20.200003 133.668633665019 285 0 1.7 134.1 88.25
vector 9693  Network.dyn_peer[31]  lookupHopsSig:vector  ETV
9693	866648 9825 276 135839 20.2000032 134.289987084349 333 0 18 1372 8862
vector 9694  Network.dyn_peer[31]  lookupStabilitySig:vector  ETV
9694	876473 10869 276 135839 20.2000032 134.289987084349 333 -1.25 1 161.5 128.46875
vector 9695  Network.dyn_peer[31]  lookupTimeSig:vector  ETV
9695	887342 10441 276 135839 20.2000032 134.289987084349 333 0 1.5 154.7 95.79
vector 9603  Network.dyn_peer[1]  lookupHopsSig:vector  ETV
9603	33096 8963 290 135956 20.3000002 135.102931813353 303 0 17 1272 8324
vector 9604  Network.dyn_peer[1]  lookupStabilitySig:vector  ETV
9604	42059 9976 290 135956 20.3000002 135.102931813353 303 -1.125 1 144.3194444105 115.15374226335
vector 9605  Network.dyn_peer[1]  lookupTimeSig:vector  ETV
9605	52035 9507 290 135956 20.3000002 135.102931813353 303 0 1.6 141.6 89.78
vector 9639  Network.dyn_peer[13]  lookupHopsSig:vector  ETV
9639	367636 8513 305 134613 20.3000014 133.085886689866 291 0 13 1179 7245
vector 9640  Network.dyn_peer[13]  lookupStabilitySig:vector  ETV
9640	376149 9446 305 134613 20.3000014 133.085886689866 291 -0.625 1 143.65277777612 109.49556326903
vector 9641  Network.dyn_peer[13]  lookupTimeSig:vector  ETV
9641	385595 9061 305 134613 20.3000014 133.085886689866 291 0 1.3 131.7 80.67
vector 9675  Network.dyn_peer[25]  lookupHopsSig:vector  ETV
9675	706073 8237 319 135294 20.3000026 133.706222617671 280 0 21 1176 7964
vector 9676  Network.dyn_peer[25]  lookupStabilitySig:vector  ETV
9676	714310 9142 319 135294 20.3000026 133.706222617671 280 -1.625 1 133.01388888806 110.46199845532
vector 9677  Network.dyn_peer[25]  lookupTimeSig:vector  ETV
9677	723452 8751 319 135294 20.3000026 133.706222617671 280 0 1.9 130.5 84.73
vector 9690  Network.dyn_peer[30]  lookupHopsSig:vector  ETV
9690	840012 8382 328 135248 20.3000031 133.683294815157 285 0 19 1237 7997
vector 9691  Network.dyn_peer[30]  lookupStabilitySig:vector  ETV
9691	848394 9339 328 135248 20.3000031 133.683294815157 285 -1.375 1 130.43055555224 100.76176697163
vector 9692  Network.dyn_peer[30]  lookupTimeSig:vector  ETV
9692	857733 8915 328 135248 20.3000031 133.683294815157 285 0.1 1.7 136.8 85.6
vector 9666  Network.dyn_peer[22]  lookupHopsSig:vector  ETV
9666	624181 8483 366 135442 20.4000023 133.867784793132 288 0 17 1210 7824
vector 9667  Network.dyn_peer[22]  lookupStabilitySig:vector  ETV
9667	632664 9412 366 135442 20.4000023 133.867784793132 288 -1.125 1 136.91666665673 107.7881944312
vector 9668  Network.dyn_peer[22]  lookupTimeSig:vector  ETV
9668	642076 9016 366 135442 20.4000023 133.867784793132 288 0 1.5 134.3 84.21
vector 9672  Network.dyn_peer[24]  lookupHopsSig:vector  ETV
9672	678758 8598 371 134827 20.4000025 133.278939857506 293 0 29 1210 8870
vector 9673  Network.dyn_peer[24]  lookupStabilitySig:vector  ETV
9673	687356 9559 371 134827 20.4000025 133.278939857506 293 -2.625 1 141.75 129.09375
vector 9674  Network.dyn_peer[24]  lookupTimeSig:vector  ETV
9674	696915 9158 371 134827 20.4000025 133.278939857506 293 0.1 2.6 133.9 90.93
vector 9612  Network.dyn_peer[4]  lookupHopsSig:vector  ETV
9612	117538 9226 408 134673 20.5000005 133.156710357876 315 0 16 1209 7179
vector 9613  Network.dyn_peer[4]  lookupStabilitySig:vector  ETV
9613	126764 10288 408 134673 20.5000005 133.156710357876 315 -1 1 164.02777775377 125.03395059668
vector 9614  Network.dyn_peer[4]  lookupTimeSig:vector  ETV
9614	137052 9833 408 134673 20.5000005 133.156710357876 315 0 1.5 137.2 80.48
vector 9627  Network.dyn_peer[9]  lookupHopsSig:vector  ETV
9627	258476 8042 454 135077 20.600001 133.571543788351 274 0 23 1249 8967
vector 9628  Network.dyn_peer[9]  lookupStabilitySig:vector  ETV
9628	266518 9000 454 135077 20.600001 133.571543788351 274 -1.875 1 117.95833332092 101.98013115555
vector 9629  Network.dyn_peer[9]  lookupTimeSig:vector  ETV
9629	275518 8549 454 135077 20.600001 133.571543788351 274 0 1.9 137.2 95.5
vector 9642  Network.dyn_peer[14]  lookupHopsSig:vector  ETV
9642	394656 8793 461 134806 20.6000015 133.27604738316 299 0 23 1212 7970
vector 9643  Network.dyn_peer[14]  lookupStabilitySig:vector  ETV
9643	403449 9806 461 134806 20.6000015 133.27604738316 299 -1.875 1 147.84722217917 120.65181323923
vector 9644  Network.dyn_peer[14]  lookupTimeSig:vector  ETV
9644	413255 9345 461 134806 20.6000015 133.27604738316 299 0 2.1 134.6 84.58
