file 903380 1369674158                                          
version 2
run Stability-norelink-75-20130525-23:19:00-22103
attr configname Stability-norelink
attr datetime 20130525-23:19:00
attr experiment Stability
attr inifile omnetpp.ini
attr iterationvars $0=1e-1
attr iterationvars2 "$0=1e-1, $repetition=5"
attr measurement $0=1e-1
attr network Network
attr processid 22103
attr repetition 5
attr replication #5
attr resultdir results
attr runnumber 75
attr seedset 75
vector 7257  Network.dyn_peer[19]  lookupHopsSig:vector  ETV
7257	539219 8956 85 139318 20.002 135.243059103185 305 0 17 1188 7208
vector 7258  Network.dyn_peer[19]  lookupStabilitySig:vector  ETV
7258	548175 9948 85 139318 20.002 135.243059103185 305 -1.125 1 156.52777777612 120.66743826903
vector 7259  Network.dyn_peer[19]  lookupTimeSig:vector  ETV
7259	558123 9529 85 139318 20.002 135.243059103185 305 0 1.5 135.8 81.6
vector 7275  Network.dyn_peer[25]  lookupHopsSig:vector  ETV
7275	707143 9018 107 139358 20.0026 135.321318945289 307 0 23 1253 8015
vector 7276  Network.dyn_peer[25]  lookupStabilitySig:vector  ETV
7276	716161 10056 107 139358 20.0026 135.321318945289 307 -1.875 1 150.375 118.984375
vector 7277  Network.dyn_peer[25]  lookupTimeSig:vector  ETV
7277	726217 9603 107 139358 20.0026 135.321318945289 307 0 2.2 141.3 88.71
vector 7293  Network.dyn_peer[31]  lookupHopsSig:vector  ETV
7293	874749 9028 129 139486 20.0032 135.641069984091 307 0 17 1260 8040
vector 7294  Network.dyn_peer[31]  lookupStabilitySig:vector  ETV
7294	883777 10006 129 139486 20.0032 135.641069984091 307 -1.125 1 149.58333331347 117.67361109787
vector 7295  Network.dyn_peer[31]  lookupTimeSig:vector  ETV
7295	893783 9597 129 139486 20.0032 135.641069984091 307 0 1.6 140.3 88.01
vector 7203  Network.dyn_peer[1]  lookupHopsSig:vector  ETV
7203	36312 9110 135 138378 20.1002 134.19582499056 311 0 20 1331 9497
vector 7204  Network.dyn_peer[1]  lookupStabilitySig:vector  ETV
7204	45422 10096 135 138378 20.1002 134.19582499056 311 -1.5 1 144.625 126.640625
vector 7205  Network.dyn_peer[1]  lookupTimeSig:vector  ETV
7205	55518 9679 135 138378 20.1002 134.19582499056 311 0 1.9 148.2 102.3
vector 7227  Network.dyn_peer[9]  lookupHopsSig:vector  ETV
7227	251732 8680 147 138825 20.101 134.642332798487 296 0 18 1324 8928
vector 7228  Network.dyn_peer[9]  lookupStabilitySig:vector  ETV
7228	260412 9679 147 138825 20.101 134.642332798487 296 -1.25 1 130.73611107469 104.71971447232
vector 7229  Network.dyn_peer[9]  lookupTimeSig:vector  ETV
7229	270091 9225 147 138825 20.101 134.642332798487 296 0 1.7 146.8 96.98
vector 7245  Network.dyn_peer[15]  lookupHopsSig:vector  ETV
7245	428356 8772 157 138071 20.1016 133.932790820921 298 0 21 1285 9097
vector 7246  Network.dyn_peer[15]  lookupStabilitySig:vector  ETV
7246	437128 9799 157 138071 20.1016 133.932790820921 298 -1.625 1 137.44444443285 118.99344134184
vector 7247  Network.dyn_peer[15]  lookupTimeSig:vector  ETV
7247	446927 9328 157 138071 20.1016 133.932790820921 298 0 1.7 142.4 96.12
vector 7248  Network.dyn_peer[16]  lookupHopsSig:vector  ETV
7248	456255 8757 162 139410 20.1017 135.437740161109 297 0 18 1274 8546
vector 7249  Network.dyn_peer[16]  lookupStabilitySig:vector  ETV
7249	465012 9718 162 139410 20.1017 135.437740161109 297 -1.25 1 137.81944441795 112.08815584065
vector 7250  Network.dyn_peer[16]  lookupTimeSig:vector  ETV
7250	474730 9305 162 139410 20.1017 135.437740161109 297 0 1.7 142.1 93.51
vector 7260  Network.dyn_peer[20]  lookupHopsSig:vector  ETV
7260	567652 8929 170 139040 20.1021 134.920787751246 304 0 18 1296 8390
vector 7261  Network.dyn_peer[20]  lookupStabilitySig:vector  ETV
7261	576581 9957 170 139040 20.1021 134.920787751246 304 -1.25 1 142.30555552244 111.23919750069
vector 7262  Network.dyn_peer[20]  lookupTimeSig:vector  ETV
7262	586538 9502 170 139040 20.1021 134.920787751246 304 0 1.5 144.3 90.57
vector 7269  Network.dyn_peer[23]  lookupHopsSig:vector  ETV
7269	651982 8338 177 137925 20.1024 133.79572499056 284 0 21 1161 7387
vector 7270  Network.dyn_peer[23]  lookupStabilitySig:vector  ETV
7270	660320 9294 177 137925 20.1024 133.79572499056 284 -1.625 1 138.97222220898 109.28433640283
vector 7271  Network.dyn_peer[23]  lookupTimeSig:vector  ETV
7271	669614 8872 177 137925 20.1024 133.79572499056 284 0 2.1 130.4 81.14
vector 7278  Network.dyn_peer[26]  lookupHopsSig:vector  ETV
7278	735820 8483 184 137998 20.1027 133.871635116928 288 0 27 1311 9685
vector 7279  Network.dyn_peer[26]  lookupStabilitySig:vector  ETV
7279	744303 9438 184 137998 20.1027 133.871635116928 288 -2.375 1 124.18055554479 111.65644288652
vector 7280  Network.dyn_peer[26]  lookupTimeSig:vector  ETV
7280	753741 9023 184 137998 20.1027 133.871635116928 288 0 2.3 144.8 101.84
vector 7200  Network.dyn_peer[0]  lookupHopsSig:vector  ETV
7200	6399 9432 194 139131 20.2001 135.018524825777 321 0 18 1294 8190
vector 7201  Network.dyn_peer[0]  lookupStabilitySig:vector  ETV
7201	15831 10453 194 139131 20.2001 135.018524825777 321 -1.25 1 159.26388888806 125.49324845532
vector 7202  Network.dyn_peer[0]  lookupTimeSig:vector  ETV
7202	26284 10028 194 139131 20.2001 135.018524825777 321 0 1.6 146.9 92.07
vector 7209  Network.dyn_peer[3]  lookupHopsSig:vector  ETV
7209	93462 7997 201 139504 20.2004 135.663205732671 272 0 17 1174 7808
vector 7210  Network.dyn_peer[3]  lookupStabilitySig:vector  ETV
7210	101459 8903 201 139504 20.2004 135.663205732671 272 -1.125 1 125.41666664183 100.64969133852
vector 7211  Network.dyn_peer[3]  lookupTimeSig:vector  ETV
7211	110362 8510 201 139504 20.2004 135.663205732671 272 0 1.6 131.3 85.53
vector 7215  Network.dyn_peer[5]  lookupHopsSig:vector  ETV
7215	145174 8630 207 138632 20.2006 134.437742943822 294 0 21 1314 9020
vector 7216  Network.dyn_peer[5]  lookupStabilitySig:vector  ETV
7216	153804 9644 207 138632 20.2006 134.437742943822 294 -1.625 1 129.90277774632 106.59548608131
vector 7217  Network.dyn_peer[5]  lookupTimeSig:vector  ETV
7217	163448 9171 207 138632 20.2006 134.437742943822 294 0 2 145.7 97.07
vector 7224  Network.dyn_peer[8]  lookupHopsSig:vector  ETV
7224	225392 8291 214 139194 20.2009 135.105400178022 281 0 14 1231 7569
vector 7225  Network.dyn_peer[8]  lookupStabilitySig:vector  ETV
7225	233683 9223 214 139194 20.2009 135.105400178022 281 -0.75 1 127.29166665673 91.58661264917
vector 7226  Network.dyn_peer[8]  lookupTimeSig:vector  ETV
7226	242906 8826 214 139194 20.2009 135.105400178022 281 0 1.3 136 83.12
vector 7230  Network.dyn_peer[10]  lookupHopsSig:vector  ETV
7230	279316 9314 220 138155 20.2011 133.99582499056 317 0 22 1309 8255
vector 7231  Network.dyn_peer[10]  lookupStabilitySig:vector  ETV
7231	288630 10325 220 138155 20.2011 133.99582499056 317 -1.75 1 153.45833331347 118.78298609787
vector 7232  Network.dyn_peer[10]  lookupTimeSig:vector  ETV
7232	298955 9915 220 138155 20.2011 133.99582499056 317 0 2 146.3 89.85
vector 7236  Network.dyn_peer[12]  lookupHopsSig:vector  ETV
7236	335993 9541 226 138751 20.2013 134.55078979836 324 0 17 1330 8572
vector 7237  Network.dyn_peer[12]  lookupStabilitySig:vector  ETV
7237	345534 10588 226 138751 20.2013 134.55078979836 324 -1.125 1 157.79166665673 125.4913194312
vector 7238  Network.dyn_peer[12]  lookupTimeSig:vector  ETV
7238	356122 10145 226 138751 20.2013 134.55078979836 324 0 1.6 147.1 92.43
vector 7254  Network.dyn_peer[18]  lookupHopsSig:vector  ETV
7254	511746 8646 236 138437 20.2019 134.239940189664 295 0 21 1220 8800
vector 7255  Network.dyn_peer[18]  lookupStabilitySig:vector  ETV
7255	520392 9634 236 138437 20.2019 134.239940189664 295 -1.625 1 142.61111110449 127.51234567754
vector 7256  Network.dyn_peer[18]  lookupTimeSig:vector  ETV
7256	530026 9193 236 138437 20.2019 134.239940189664 295 0 1.8 137.2 93.66
vector 7263  Network.dyn_peer[21]  lookupHopsSig:vector  ETV
7263	596040 9385 243 137831 20.2022 133.727438581727 319 0 18 1281 7881
vector 7264  Network.dyn_peer[21]  lookupStabilitySig:vector  ETV
7264	605425 10419 243 137831 20.2022 133.727438581727 319 -1.25 1 158.875 121.890625
vector 7265  Network.dyn_peer[21]  lookupTimeSig:vector  ETV
7265	615844 9988 243 137831 20.2022 133.727438581727 319 0 1.7 144.3 87.91
vector 7284  Network.dyn_peer[28]  lookupHopsSig:vector  ETV
7284	790918 8743 254 139465 20.2029 135.542655649451 297 0 18 1233 7963
vector 7285  Network.dyn_peer[28]  lookupStabilitySig:vector  ETV
7285	799661 9701 254 139465 20.2029 135.542655649451 297 -1.25 1 142.97222220898 113.20563271016
vector 7286  Network.dyn_peer[28]  lookupTimeSig:vector  ETV
7286	809362 9298 254 139465 20.2029 135.542655649451 297 0 1.7 138.3 87.03
vector 7287  Network.dyn_peer[29]  lookupHopsSig:vector  ETV
7287	818660 8420 259 138087 20.203 133.937777038846 287 0 15 1200 6998
vector 7288  Network.dyn_peer[29]  lookupStabilitySig:vector  ETV
7288	827080 9362 259 138087 20.203 133.937777038846 287 -0.875 1 137.04166665673 96.397569431199
vector 7289  Network.dyn_peer[29]  lookupTimeSig:vector  ETV
7289	836442 8966 259 138087 20.203 133.937777038846 287 0 1.4 135.4 80.3
vector 7206  Network.dyn_peer[2]  lookupHopsSig:vector  ETV
7206	65197 8899 272 138975 20.3003 134.837170616877 302 0 19 1257 8287
vector 7207  Network.dyn_peer[2]  lookupStabilitySig:vector  ETV
7207	74096 9896 272 138975 20.3003 134.837170616877 302 -1.375 1 144.9999999851 117.31057097919
vector 7208  Network.dyn_peer[2]  lookupTimeSig:vector  ETV
7208	83992 9470 272 138975 20.3003 134.837170616877 302 0 1.7 141.6 91.74
vector 7212  Network.dyn_peer[4]  lookupHopsSig:vector  ETV
7212	118872 8289 278 138961 20.3005 134.832790820921 283 0 15 1215 7607
vector 7213  Network.dyn_peer[4]  lookupStabilitySig:vector  ETV
7213	127161 9194 278 138961 20.3005 134.832790820921 283 -0.875 1 131.18055555224 98.168016971629
vector 7214  Network.dyn_peer[4]  lookupTimeSig:vector  ETV
7214	136355 8819 278 138961 20.3005 134.832790820921 283 0 1.4 135 83.14
vector 7218  Network.dyn_peer[6]  lookupHopsSig:vector  ETV
7218	172619 8187 284 139274 20.3007 135.199270486353 278 0 17 1251 8297
vector 7219  Network.dyn_peer[6]  lookupStabilitySig:vector  ETV
7219	180806 9120 284 139274 20.3007 135.199270486353 278 -1.125 1 121.73611107469 95.001350271849
vector 7220  Network.dyn_peer[6]  lookupTimeSig:vector  ETV
7220	189926 8708 284 139274 20.3007 135.199270486353 278 0 1.5 137.9 89.45
vector 7233  Network.dyn_peer[11]  lookupHopsSig:vector  ETV
7233	308870 8547 293 139060 20.3012 134.935246164662 290 0 22 1223 8559
vector 7234  Network.dyn_peer[11]  lookupStabilitySig:vector  ETV
7234	317417 9481 293 139060 20.3012 134.935246164662 290 -1.75 1 137.16666665673 118.0381944312
vector 7235  Network.dyn_peer[11]  lookupTimeSig:vector  ETV
7235	326898 9095 293 139060 20.3012 134.935246164662 290 0 2 137.6 92.76
vector 7239  Network.dyn_peer[13]  lookupHopsSig:vector  ETV
7239	366267 9608 299 139292 20.3014 135.227386808189 327 0 16 1418 9482
vector 7240  Network.dyn_peer[13]  lookupStabilitySig:vector  ETV
7240	375875 10678 299 139292 20.3014 135.227386808189 327 -1 1 149.75 120.65625
vector 7241  Network.dyn_peer[13]  lookupTimeSig:vector  ETV
7241	386553 10206 299 139292 20.3014 135.227386808189 327 0 1.6 158.3 104.13
vector 7242  Network.dyn_peer[14]  lookupHopsSig:vector  ETV
7242	396759 9943 304 138547 20.3015 134.338026099264 338 0 18 1265 7445
vector 7243  Network.dyn_peer[14]  lookupStabilitySig:vector  ETV
7243	406702 11072 304 138547 20.3015 134.338026099264 338 -1.25 1 179.97222220898 138.19058640283
vector 7244  Network.dyn_peer[14]  lookupTimeSig:vector  ETV
7244	417774 10582 304 138547 20.3015 134.338026099264 338 0 1.6 143.6 83.06
vector 7221  Network.dyn_peer[7]  lookupHopsSig:vector  ETV
7221	198634 8435 345 139001 20.4008 134.85088979836 286 0 21 1289 9399
vector 7222  Network.dyn_peer[7]  lookupStabilitySig:vector  ETV
7222	207069 9356 345 139001 20.4008 134.85088979836 286 -1.625 1 124.90277777612 110.65181326903
vector 7223  Network.dyn_peer[7]  lookupTimeSig:vector  ETV
7223	216425 8967 345 139001 20.4008 134.85088979836 286 0 1.9 141.6 97.94
vector 7251  Network.dyn_peer[17]  lookupHopsSig:vector  ETV
7251	484035 8726 361 138311 20.4018 134.136705646297 296 0 21 1264 8830
vector 7252  Network.dyn_peer[17]  lookupStabilitySig:vector  ETV
7252	492761 9699 361 138311 20.4018 134.136705646297 296 -1.625 1 138.125 117.953125
vector 7253  Network.dyn_peer[17]  lookupTimeSig:vector  ETV
7253	502460 9286 361 138311 20.4018 134.136705646297 296 0 2 139.7 93.45
vector 7281  Network.dyn_peer[27]  lookupHopsSig:vector  ETV
7281	762764 8864 374 138628 20.4028 134.436805646297 301 0 20 1280 8656
vector 7282  Network.dyn_peer[27]  lookupStabilitySig:vector  ETV
7282	771628 9864 374 138628 20.4028 134.436805646297 301 -1.5 1 141.18055551499 116.36516200613
vector 7283  Network.dyn_peer[27]  lookupTimeSig:vector  ETV
7283	781492 9426 374 138628 20.4028 134.436805646297 301 0 1.9 142.5 93.13
vector 7290  Network.dyn_peer[30]  lookupHopsSig:vector  ETV
7290	845408 9234 434 138512 20.5031 134.327438581727 314 0 24 1241 8325
vector 7291  Network.dyn_peer[30]  lookupStabilitySig:vector  ETV
7291	854642 10288 434 138512 20.5031 134.327438581727 314 -2 1 158.97222220898 133.94058640283
vector 7292  Network.dyn_peer[30]  lookupTimeSig:vector  ETV
7292	864930 9819 434 138512 20.5031 134.327438581727 314 0 1.8 139.8 87.92
vector 7272  Network.dyn_peer[24]  lookupHopsSig:vector  ETV
7272	678486 9040 551 139437 20.7025 135.487324683712 307 0 18 1297 8495
vector 7273  Network.dyn_peer[24]  lookupStabilitySig:vector  ETV
7273	687526 10002 551 139437 20.7025 135.487324683712 307 -1.25 1 144.875 115.484375
vector 7274  Network.dyn_peer[24]  lookupTimeSig:vector  ETV
7274	697528 9615 551 139437 20.7025 135.487324683712 307 0 1.7 144 91.98
vector 7266  Network.dyn_peer[22]  lookupHopsSig:vector  ETV
7266	625832 8238 835 138714 21.1023 134.533610901282 280 0 23 1213 8745
vector 7267  Network.dyn_peer[22]  lookupStabilitySig:vector  ETV
7267	634070 9168 835 138714 21.1023 134.533610901282 280 -1.875 1 128.40277777612 113.43306326903
vector 7268  Network.dyn_peer[22]  lookupTimeSig:vector  ETV
7268	643238 8744 835 138714 21.1023 134.533610901282 280 0 2.3 134.9 94.17
