file 935595 1369516910                                          
version 2
run Stability-norelink-116-20130525-23:21:46-22103
attr configname Stability-norelink
attr datetime 20130525-23:21:46
attr experiment Stability
attr inifile omnetpp.ini
attr iterationvars $0=1e-5
attr iterationvars2 "$0=1e-5, $repetition=6"
attr measurement $0=1e-5
attr network Network
attr processid 22103
attr repetition 6
attr replication #6
attr resultdir results
attr runnumber 116
attr seedset 116

vector 11160  Network.dyn_peer[8]  lookupHopsSig:vector  ETV
vector 11161  Network.dyn_peer[8]  lookupStabilitySig:vector  ETV
vector 11162  Network.dyn_peer[8]  lookupTimeSig:vector  ETV
vector 11163  Network.dyn_peer[9]  lookupHopsSig:vector  ETV
vector 11164  Network.dyn_peer[9]  lookupStabilitySig:vector  ETV
vector 11165  Network.dyn_peer[9]  lookupTimeSig:vector  ETV
vector 11166  Network.dyn_peer[10]  lookupHopsSig:vector  ETV
vector 11167  Network.dyn_peer[10]  lookupStabilitySig:vector  ETV
vector 11168  Network.dyn_peer[10]  lookupTimeSig:vector  ETV
vector 11172  Network.dyn_peer[12]  lookupHopsSig:vector  ETV
vector 11173  Network.dyn_peer[12]  lookupStabilitySig:vector  ETV
vector 11174  Network.dyn_peer[12]  lookupTimeSig:vector  ETV
vector 11208  Network.dyn_peer[24]  lookupHopsSig:vector  ETV
vector 11209  Network.dyn_peer[24]  lookupStabilitySig:vector  ETV
vector 11210  Network.dyn_peer[24]  lookupTimeSig:vector  ETV
vector 11136  Network.dyn_peer[0]  lookupHopsSig:vector  ETV
vector 11137  Network.dyn_peer[0]  lookupStabilitySig:vector  ETV
vector 11138  Network.dyn_peer[0]  lookupTimeSig:vector  ETV
vector 11145  Network.dyn_peer[3]  lookupHopsSig:vector  ETV
vector 11146  Network.dyn_peer[3]  lookupStabilitySig:vector  ETV
vector 11147  Network.dyn_peer[3]  lookupTimeSig:vector  ETV
vector 11154  Network.dyn_peer[6]  lookupHopsSig:vector  ETV
vector 11155  Network.dyn_peer[6]  lookupStabilitySig:vector  ETV
vector 11156  Network.dyn_peer[6]  lookupTimeSig:vector  ETV
vector 11169  Network.dyn_peer[11]  lookupHopsSig:vector  ETV
vector 11170  Network.dyn_peer[11]  lookupStabilitySig:vector  ETV
vector 11171  Network.dyn_peer[11]  lookupTimeSig:vector  ETV
vector 11178  Network.dyn_peer[14]  lookupHopsSig:vector  ETV
vector 11179  Network.dyn_peer[14]  lookupStabilitySig:vector  ETV
vector 11180  Network.dyn_peer[14]  lookupTimeSig:vector  ETV
vector 11190  Network.dyn_peer[18]  lookupHopsSig:vector  ETV
vector 11191  Network.dyn_peer[18]  lookupStabilitySig:vector  ETV
vector 11192  Network.dyn_peer[18]  lookupTimeSig:vector  ETV
vector 11196  Network.dyn_peer[20]  lookupHopsSig:vector  ETV
vector 11197  Network.dyn_peer[20]  lookupStabilitySig:vector  ETV
vector 11198  Network.dyn_peer[20]  lookupTimeSig:vector  ETV
vector 11202  Network.dyn_peer[22]  lookupHopsSig:vector  ETV
vector 11203  Network.dyn_peer[22]  lookupStabilitySig:vector  ETV
vector 11204  Network.dyn_peer[22]  lookupTimeSig:vector  ETV
vector 11229  Network.dyn_peer[31]  lookupHopsSig:vector  ETV
vector 11230  Network.dyn_peer[31]  lookupStabilitySig:vector  ETV
vector 11231  Network.dyn_peer[31]  lookupTimeSig:vector  ETV
vector 11139  Network.dyn_peer[1]  lookupHopsSig:vector  ETV
vector 11140  Network.dyn_peer[1]  lookupStabilitySig:vector  ETV
vector 11141  Network.dyn_peer[1]  lookupTimeSig:vector  ETV
vector 11142  Network.dyn_peer[2]  lookupHopsSig:vector  ETV
vector 11143  Network.dyn_peer[2]  lookupStabilitySig:vector  ETV
vector 11144  Network.dyn_peer[2]  lookupTimeSig:vector  ETV
vector 11157  Network.dyn_peer[7]  lookupHopsSig:vector  ETV
vector 11158  Network.dyn_peer[7]  lookupStabilitySig:vector  ETV
vector 11159  Network.dyn_peer[7]  lookupTimeSig:vector  ETV
vector 11175  Network.dyn_peer[13]  lookupHopsSig:vector  ETV
vector 11176  Network.dyn_peer[13]  lookupStabilitySig:vector  ETV
vector 11177  Network.dyn_peer[13]  lookupTimeSig:vector  ETV
vector 11181  Network.dyn_peer[15]  lookupHopsSig:vector  ETV
vector 11182  Network.dyn_peer[15]  lookupStabilitySig:vector  ETV
vector 11183  Network.dyn_peer[15]  lookupTimeSig:vector  ETV
vector 11199  Network.dyn_peer[21]  lookupHopsSig:vector  ETV
vector 11200  Network.dyn_peer[21]  lookupStabilitySig:vector  ETV
vector 11201  Network.dyn_peer[21]  lookupTimeSig:vector  ETV
vector 11205  Network.dyn_peer[23]  lookupHopsSig:vector  ETV
vector 11206  Network.dyn_peer[23]  lookupStabilitySig:vector  ETV
vector 11207  Network.dyn_peer[23]  lookupTimeSig:vector  ETV
vector 11217  Network.dyn_peer[27]  lookupHopsSig:vector  ETV
vector 11218  Network.dyn_peer[27]  lookupStabilitySig:vector  ETV
vector 11219  Network.dyn_peer[27]  lookupTimeSig:vector  ETV
vector 11148  Network.dyn_peer[4]  lookupHopsSig:vector  ETV
vector 11149  Network.dyn_peer[4]  lookupStabilitySig:vector  ETV
vector 11150  Network.dyn_peer[4]  lookupTimeSig:vector  ETV
vector 11151  Network.dyn_peer[5]  lookupHopsSig:vector  ETV
vector 11152  Network.dyn_peer[5]  lookupStabilitySig:vector  ETV
vector 11153  Network.dyn_peer[5]  lookupTimeSig:vector  ETV
vector 11211  Network.dyn_peer[25]  lookupHopsSig:vector  ETV
vector 11212  Network.dyn_peer[25]  lookupStabilitySig:vector  ETV
vector 11213  Network.dyn_peer[25]  lookupTimeSig:vector  ETV
vector 11214  Network.dyn_peer[26]  lookupHopsSig:vector  ETV
vector 11215  Network.dyn_peer[26]  lookupStabilitySig:vector  ETV
vector 11216  Network.dyn_peer[26]  lookupTimeSig:vector  ETV
vector 11223  Network.dyn_peer[29]  lookupHopsSig:vector  ETV
vector 11224  Network.dyn_peer[29]  lookupStabilitySig:vector  ETV
vector 11225  Network.dyn_peer[29]  lookupTimeSig:vector  ETV
vector 11184  Network.dyn_peer[16]  lookupHopsSig:vector  ETV
vector 11185  Network.dyn_peer[16]  lookupStabilitySig:vector  ETV
vector 11186  Network.dyn_peer[16]  lookupTimeSig:vector  ETV
vector 11220  Network.dyn_peer[28]  lookupHopsSig:vector  ETV
vector 11221  Network.dyn_peer[28]  lookupStabilitySig:vector  ETV
vector 11222  Network.dyn_peer[28]  lookupTimeSig:vector  ETV
vector 11226  Network.dyn_peer[30]  lookupHopsSig:vector  ETV
vector 11227  Network.dyn_peer[30]  lookupStabilitySig:vector  ETV
vector 11228  Network.dyn_peer[30]  lookupTimeSig:vector  ETV
vector 11193  Network.dyn_peer[19]  lookupHopsSig:vector  ETV
vector 11194  Network.dyn_peer[19]  lookupStabilitySig:vector  ETV
vector 11195  Network.dyn_peer[19]  lookupTimeSig:vector  ETV
vector 11187  Network.dyn_peer[17]  lookupHopsSig:vector  ETV
vector 11188  Network.dyn_peer[17]  lookupStabilitySig:vector  ETV
vector 11189  Network.dyn_peer[17]  lookupTimeSig:vector  ETV
11136	6498 8934 145 137890 20.10000001 134.02022832222 293 0 24 1268 8614
11137	15432 9889 145 137890 20.10000001 134.02022832222 293 -2 1 134.51388888806 110.61824845532
11138	25321 9462 145 137890 20.10000001 134.02022832222 293 0 2.1 141.3 93.03
11139	34783 9667 218 138769 20.20000002 134.932291046033 318 0 41 1337 11095
11140	44450 10688 218 138769 20.20000002 134.932291046033 318 -4.125 1 150.875 157.109375
11141	55138 10255 218 138769 20.20000002 134.932291046033 318 0 3.8 149.4 116.68
11142	65393 9369 223 137829 20.20000003 133.968618123406 308 0 16 1211 7153
11143	74762 10343 223 137829 20.20000003 133.968618123406 308 -1 1 156.625 117.015625
11144	85105 9951 223 137829 20.20000003 133.968618123406 308 0 1.5 136.8 80.96
11145	95056 8447 152 139331 20.10000004 135.982893311015 277 0 18 1216 8176
11146	103503 9356 152 139331 20.10000004 135.982893311015 277 -1.25 1 125.01388888806 100.77449845532
11147	112859 8968 152 139331 20.10000004 135.982893311015 277 0 1.7 135.1 89.69
11148	121827 9505 297 138795 20.30000005 134.95725191524 312 0 18 1305 8023
11149	131332 10551 297 138795 20.30000005 134.95725191524 312 -1.25 1 148.97222220898 111.22183640283
11150	141883 10097 297 138795 20.30000005 134.95725191524 312 0 1.4 147.6 91.54
11151	151980 8851 302 138109 20.30000006 134.265871710158 291 0 23 1215 8539
11152	160831 9851 302 138109 20.30000006 134.265871710158 291 -1.875 1 139.26388883591 120.62172069079
11153	170682 9407 302 138109 20.30000006 134.265871710158 291 0 2 135.7 90.43
11154	180089 9133 159 138041 20.10000007 134.168718123406 301 0 17 1220 7198
11155	189222 10120 159 138041 20.10000007 134.168718123406 301 -1.125 1 148.5 108.46875
11156	199342 9703 159 138041 20.10000007 134.168718123406 301 0 1.6 137.9 82.39
11157	209045 9998 232 139183 20.20000008 135.509490082623 328 0 16 1324 7960
11158	219043 11110 232 139183 20.20000008 135.509490082623 328 -1 1 162.58333331347 121.42361109787
11159	230153 10624 232 139183 20.20000008 135.509490082623 328 0 1.6 148.6 89.22
11160	240777 8917 54 137963 20.00000009 134.102207793588 293 0 16 1293 8403
11161	249694 9852 54 137963 20.00000009 134.102207793588 293 -1 1 131.47222220898 101.15933640283
11162	259546 9472 54 137963 20.00000009 134.102207793588 293 0 1.5 142.3 91.41
11163	269018 9068 61 138559 20.0000001 134.741140580046 298 0 18 1326 8942
11164	278086 10027 61 138559 20.0000001 134.741140580046 298 -1.25 1 132.45833331347 106.25173609787
11165	288113 9619 61 138559 20.0000001 134.741140580046 298 0 1.8 147.1 98.61
11166	297732 9187 68 138872 20.00000011 135.053668813293 302 0 15 1206 7228
11167	306919 10196 68 138872 20.00000011 135.053668813293 302 -0.875 1 151.32499998808 113.53687498331
11168	317115 9739 68 138872 20.00000011 135.053668813293 302 0 1.5 135.8 81.66
11169	326854 9835 167 139059 20.10000012 135.309619338482 323 0 18 1273 7431
11170	336689 10897 167 139059 20.10000012 135.309619338482 323 -1.25 1 163.95833330601 120.94077929597
11171	347586 10457 167 139059 20.10000012 135.309619338482 323 0 1.7 143.6 84.82
11172	358043 8415 78 138142 20.00000013 134.302615067338 276 0 19 1180 7554
11173	366458 9310 78 138142 20.00000013 134.302615067338 276 -1.375 1 128.625 99.015625
11174	375768 8924 78 138142 20.00000013 134.302615067338 276 0 1.8 131.6 83.9
11175	384692 8512 243 138733 20.20000014 134.909519338482 280 0 19 1238 8346
11176	393204 9450 243 138733 20.20000014 134.909519338482 280 -1.375 1 125.25 100.90625
11177	402654 9035 243 138733 20.20000014 134.909519338482 280 0 1.7 137.5 89.29
11178	411689 8736 174 138570 20.10000015 134.747385048763 288 0 18 1226 7902
11179	420425 9699 174 138570 20.10000015 134.747385048763 288 -1.25 1 134.8749999702 105.08429781228
11180	430124 9285 174 138570 20.10000015 134.747385048763 288 0 1.6 136.5 86.01
11181	439409 8843 249 138556 20.20000016 134.735738932408 290 0 19 1306 8586
11182	448252 9764 249 138556 20.20000016 134.735738932408 290 -1.375 1 126.75 97.65625
11183	458016 9373 249 138556 20.20000016 134.735738932408 290 0 1.6 143.6 94
11184	467389 9552 365 138946 20.40000017 135.149499258607 314 0 18 1255 7783
11185	476941 10642 365 138946 20.40000017 135.149499258607 314 -1.25 1 157.20833332092 121.98013115555
11186	487583 10137 365 138946 20.40000017 135.149499258607 314 0 1.6 142.1 87.73
11187	497720 9855 504 139019 20.70000018 135.261688775412 324 0 21 1300 8462
11188	507575 10947 504 139019 20.70000018 135.261688775412 324 -1.625 1 161.59722220153 131.29185955318
11189	518522 10462 504 139019 20.70000018 135.261688775412 324 0 2 146.6 92.36
11190	528984 9364 182 138687 20.10000019 134.857811838813 307 0 24 1288 8396
11191	538348 10369 182 138687 20.10000019 134.857811838813 307 -2 1 146 116.1875
11192	548717 9941 182 138687 20.10000019 134.857811838813 307 0 2 143.6 91.22
11193	558658 9578 419 138152 20.5000002 134.311396060891 315 0 21 1310 8778
11194	568236 10666 419 138152 20.5000002 134.311396060891 315 -1.625 1 151.61111101508 124.94560177017
11195	578902 10166 419 138152 20.5000002 134.311396060891 315 0 1.9 147 95.38
11196	589068 8883 188 139168 20.10000021 135.475197528095 292 0 20 1198 7704
11197	597951 9838 188 139168 20.10000021 135.475197528095 292 -1.5 1 142.26388888806 112.89949845532
11198	607789 9441 188 139168 20.10000021 135.475197528095 292 0 1.7 133.2 82.92
11199	617230 9556 258 139353 20.20000022 136.209537237831 313 0 27 1313 8891
11200	626786 10580 258 139353 20.20000022 136.209537237831 313 -2.375 1 148.98611107469 123.78260027185
11201	637366 10149 258 139353 20.20000022 136.209537237831 313 0 2.4 147.7 96.93
11202	647515 9584 194 137344 20.10000023 133.528926719451 315 0 19 1365 9339
11203	657099 10603 194 137344 20.10000023 133.528926719451 315 -1.375 1 144.43055555224 119.73051697163
11204	667702 10176 194 137344 20.10000023 133.528926719451 315 0 1.8 151.4 100.04
11205	677878 8771 264 138508 20.20000024 134.703484581635 288 0 24 1226 8342
11206	686649 9719 264 138508 20.20000024 134.703484581635 288 -2 1 134.75 111.84375
11207	696368 9303 264 138508 20.20000024 134.703484581635 288 0 2.2 137.1 90.37
11208	705671 8808 118 138604 20.00000025 134.765971720158 290 0 19 1380 10016
11209	714479 9753 118 138604 20.00000025 134.765971720158 290 -1.375 1 117.625 101.484375
11210	724232 9333 118 138604 20.00000025 134.765971720158 290 0 1.7 148.8 104.24
11211	733565 8685 320 139144 20.30000026 135.459419919889 286 0 21 1235 8105
11212	742250 9627 320 139144 20.30000026 135.459419919889 286 -1.625 1 131.94444447011 103.73263887564
11213	751877 9229 320 139144 20.30000026 135.459419919889 286 0 1.7 135.8 86.4
11214	761106 8495 325 138750 20.30000027 134.918623931147 279 0 34 1199 8555
11215	769601 9433 325 138750 20.30000027 134.918623931147 279 -3.25 1 129.23611110449 113.03915894326
11216	779034 9016 325 138750 20.30000027 134.918623931147 279 0 3.2 134.4 91.84
11217	788050 9988 272 139198 20.20000028 135.537627763428 328 0 20 1293 8033
11218	798038 11113 272 139198 20.20000028 135.537627763428 328 -1.5 1 166.56944443285 130.38560955981
11219	809151 10605 272 139198 20.20000028 135.537627763428 328 0 2 146.4 91.12
11220	819756 8865 379 138935 20.40000029 135.144223181196 292 0 21 1346 9316
11221	828621 9801 379 138935 20.40000029 135.144223181196 292 -1.625 1 123.79166665673 101.1163194312
11222	838422 9402 379 138935 20.40000029 135.144223181196 292 0 2 150 102.96
11223	847824 9480 332 137836 20.3000003 133.968718123406 311 0 23 1289 8525
11224	857304 10540 332 137836 20.3000003 133.968718123406 311 -1.875 1 149.97222219408 122.05246910968
11225	867844 10063 332 137836 20.3000003 133.968718123406 311 0 2.1 144.7 93.49
11226	877907 9167 385 138344 20.40000031 134.519385736794 301 0 20 1181 7497
11227	887074 10168 385 138344 20.40000031 134.519385736794 301 -1.5 1 153.375 122.890625
11228	897242 9707 385 138344 20.40000031 134.519385736794 301 0 1.9 132.4 82.2
11229	906949 9034 207 138282 20.10000032 134.456498122686 297 0 27 1189 8379
11230	915983 10032 207 138282 20.10000032 134.456498122686 297 -2.375 1 148.47222221643 130.79745369598
11231	926015 9580 207 138282 20.10000032 134.456498122686 297 0 2.6 134.8 91.44
