file 698846 1369516570                                          
version 2
run Stability-norelink-28-20130525-23:16:06-22103
attr configname Stability-norelink
attr datetime 20130525-23:16:06
attr experiment Stability
attr inifile omnetpp.ini
attr iterationvars $0=1e4
attr iterationvars2 "$0=1e4, $repetition=8"
attr measurement $0=1e4
attr network Network
attr processid 22103
attr repetition 8
attr replication #8
attr resultdir results
attr runnumber 28
attr seedset 28

vector 2688  Network.dyn_peer[0]  lookupHopsSig:vector  ETV
vector 2689  Network.dyn_peer[0]  lookupStabilitySig:vector  ETV
vector 2690  Network.dyn_peer[0]  lookupTimeSig:vector  ETV
vector 2691  Network.dyn_peer[1]  lookupHopsSig:vector  ETV
vector 2692  Network.dyn_peer[1]  lookupStabilitySig:vector  ETV
vector 2693  Network.dyn_peer[1]  lookupTimeSig:vector  ETV
vector 2694  Network.dyn_peer[2]  lookupHopsSig:vector  ETV
vector 2695  Network.dyn_peer[2]  lookupStabilitySig:vector  ETV
vector 2696  Network.dyn_peer[2]  lookupTimeSig:vector  ETV
vector 2697  Network.dyn_peer[3]  lookupHopsSig:vector  ETV
vector 2698  Network.dyn_peer[3]  lookupStabilitySig:vector  ETV
vector 2699  Network.dyn_peer[3]  lookupTimeSig:vector  ETV
vector 2700  Network.dyn_peer[4]  lookupHopsSig:vector  ETV
vector 2701  Network.dyn_peer[4]  lookupStabilitySig:vector  ETV
vector 2702  Network.dyn_peer[4]  lookupTimeSig:vector  ETV
vector 2703  Network.dyn_peer[5]  lookupHopsSig:vector  ETV
vector 2704  Network.dyn_peer[5]  lookupStabilitySig:vector  ETV
vector 2705  Network.dyn_peer[5]  lookupTimeSig:vector  ETV
vector 2706  Network.dyn_peer[6]  lookupHopsSig:vector  ETV
vector 2707  Network.dyn_peer[6]  lookupStabilitySig:vector  ETV
vector 2708  Network.dyn_peer[6]  lookupTimeSig:vector  ETV
vector 2709  Network.dyn_peer[7]  lookupHopsSig:vector  ETV
vector 2710  Network.dyn_peer[7]  lookupStabilitySig:vector  ETV
vector 2711  Network.dyn_peer[7]  lookupTimeSig:vector  ETV
vector 2712  Network.dyn_peer[8]  lookupHopsSig:vector  ETV
vector 2713  Network.dyn_peer[8]  lookupStabilitySig:vector  ETV
vector 2714  Network.dyn_peer[8]  lookupTimeSig:vector  ETV
vector 2715  Network.dyn_peer[9]  lookupHopsSig:vector  ETV
vector 2716  Network.dyn_peer[9]  lookupStabilitySig:vector  ETV
vector 2717  Network.dyn_peer[9]  lookupTimeSig:vector  ETV
vector 2718  Network.dyn_peer[10]  lookupHopsSig:vector  ETV
vector 2719  Network.dyn_peer[10]  lookupStabilitySig:vector  ETV
vector 2720  Network.dyn_peer[10]  lookupTimeSig:vector  ETV
vector 2721  Network.dyn_peer[11]  lookupHopsSig:vector  ETV
vector 2722  Network.dyn_peer[11]  lookupStabilitySig:vector  ETV
vector 2723  Network.dyn_peer[11]  lookupTimeSig:vector  ETV
vector 2724  Network.dyn_peer[12]  lookupHopsSig:vector  ETV
vector 2725  Network.dyn_peer[12]  lookupStabilitySig:vector  ETV
vector 2726  Network.dyn_peer[12]  lookupTimeSig:vector  ETV
vector 2727  Network.dyn_peer[13]  lookupHopsSig:vector  ETV
vector 2728  Network.dyn_peer[13]  lookupStabilitySig:vector  ETV
vector 2729  Network.dyn_peer[13]  lookupTimeSig:vector  ETV
vector 2730  Network.dyn_peer[14]  lookupHopsSig:vector  ETV
vector 2731  Network.dyn_peer[14]  lookupStabilitySig:vector  ETV
vector 2732  Network.dyn_peer[14]  lookupTimeSig:vector  ETV
vector 2733  Network.dyn_peer[15]  lookupHopsSig:vector  ETV
vector 2734  Network.dyn_peer[15]  lookupStabilitySig:vector  ETV
vector 2735  Network.dyn_peer[15]  lookupTimeSig:vector  ETV
vector 2736  Network.dyn_peer[16]  lookupHopsSig:vector  ETV
vector 2737  Network.dyn_peer[16]  lookupStabilitySig:vector  ETV
vector 2738  Network.dyn_peer[16]  lookupTimeSig:vector  ETV
vector 2739  Network.dyn_peer[17]  lookupHopsSig:vector  ETV
vector 2740  Network.dyn_peer[17]  lookupStabilitySig:vector  ETV
vector 2741  Network.dyn_peer[17]  lookupTimeSig:vector  ETV
vector 2742  Network.dyn_peer[18]  lookupHopsSig:vector  ETV
vector 2743  Network.dyn_peer[18]  lookupStabilitySig:vector  ETV
vector 2744  Network.dyn_peer[18]  lookupTimeSig:vector  ETV
vector 2745  Network.dyn_peer[19]  lookupHopsSig:vector  ETV
vector 2746  Network.dyn_peer[19]  lookupStabilitySig:vector  ETV
vector 2747  Network.dyn_peer[19]  lookupTimeSig:vector  ETV
vector 2748  Network.dyn_peer[20]  lookupHopsSig:vector  ETV
vector 2749  Network.dyn_peer[20]  lookupStabilitySig:vector  ETV
vector 2750  Network.dyn_peer[20]  lookupTimeSig:vector  ETV
vector 2751  Network.dyn_peer[21]  lookupHopsSig:vector  ETV
vector 2752  Network.dyn_peer[21]  lookupStabilitySig:vector  ETV
vector 2753  Network.dyn_peer[21]  lookupTimeSig:vector  ETV
vector 2754  Network.dyn_peer[22]  lookupHopsSig:vector  ETV
vector 2755  Network.dyn_peer[22]  lookupStabilitySig:vector  ETV
vector 2756  Network.dyn_peer[22]  lookupTimeSig:vector  ETV
vector 2757  Network.dyn_peer[23]  lookupHopsSig:vector  ETV
vector 2758  Network.dyn_peer[23]  lookupStabilitySig:vector  ETV
vector 2759  Network.dyn_peer[23]  lookupTimeSig:vector  ETV
vector 2760  Network.dyn_peer[24]  lookupHopsSig:vector  ETV
vector 2761  Network.dyn_peer[24]  lookupStabilitySig:vector  ETV
vector 2762  Network.dyn_peer[24]  lookupTimeSig:vector  ETV
vector 2763  Network.dyn_peer[25]  lookupHopsSig:vector  ETV
vector 2764  Network.dyn_peer[25]  lookupStabilitySig:vector  ETV
vector 2765  Network.dyn_peer[25]  lookupTimeSig:vector  ETV
vector 2766  Network.dyn_peer[26]  lookupHopsSig:vector  ETV
vector 2767  Network.dyn_peer[26]  lookupStabilitySig:vector  ETV
vector 2768  Network.dyn_peer[26]  lookupTimeSig:vector  ETV
vector 2769  Network.dyn_peer[27]  lookupHopsSig:vector  ETV
vector 2770  Network.dyn_peer[27]  lookupStabilitySig:vector  ETV
vector 2771  Network.dyn_peer[27]  lookupTimeSig:vector  ETV
vector 2772  Network.dyn_peer[28]  lookupHopsSig:vector  ETV
vector 2773  Network.dyn_peer[28]  lookupStabilitySig:vector  ETV
vector 2774  Network.dyn_peer[28]  lookupTimeSig:vector  ETV
vector 2775  Network.dyn_peer[29]  lookupHopsSig:vector  ETV
vector 2776  Network.dyn_peer[29]  lookupStabilitySig:vector  ETV
vector 2777  Network.dyn_peer[29]  lookupTimeSig:vector  ETV
vector 2778  Network.dyn_peer[30]  lookupHopsSig:vector  ETV
vector 2779  Network.dyn_peer[30]  lookupStabilitySig:vector  ETV
vector 2780  Network.dyn_peer[30]  lookupTimeSig:vector  ETV
vector 2781  Network.dyn_peer[31]  lookupHopsSig:vector  ETV
vector 2782  Network.dyn_peer[31]  lookupStabilitySig:vector  ETV
vector 2783  Network.dyn_peer[31]  lookupTimeSig:vector  ETV
2688	6396 6685 31 65555 30.1 20190.927390440547 256 0 2 343 531
2689	13081 7587 31 65555 30.1 20190.927390440547 256 0.75 1 213.125 178.546875
2690	20668 7183 31 65555 30.1 20190.927390440547 256 0 0.3 53.5 12.53
2691	27851 6740 61 65588 40.2 20200.827967265683 256 0 2 339 521
2692	34591 7641 61 65588 40.2 20200.827967265683 256 0.75 1 213.625 179.390625
2693	42232 7236 61 65588 40.2 20200.827967265683 256 0 0.3 53.1 12.33
2694	49468 6713 100 65619 50.2 20210.825040590529 256 0 2 341 525
2695	56181 7617 100 65619 50.2 20210.825040590529 256 0.75 1 213.375 178.953125
2696	63798 7211 100 65619 50.2 20210.825040590529 256 0 0.3 53.3 12.25
2697	71009 6758 136 65648 60.2 20220.706103313959 256 0 2 340 526
2698	77767 7653 136 65648 60.2 20220.706103313959 256 0.75 1 213.5 179.21875
2699	85420 7252 136 65648 60.2 20220.706103313959 256 0 0.3 53.2 12.26
2700	92672 6753 166 65680 70.2 20230.820128497235 256 0 2 347 537
2701	99425 7666 166 65680 70.2 20230.820128497235 256 0.75 1 212.625 177.640625
2702	107091 7257 166 65680 70.2 20230.820128497235 256 0 0.3 53.9 12.45
2703	114348 6745 195 65713 80.1 20240.917859708872 256 0 2 338 520
2704	121093 7642 195 65713 80.1 20240.917859708872 256 0.75 1 213.75 179.625
2705	128735 7239 195 65713 80.1 20240.917859708872 256 0 0.3 53 12.22
2706	135974 6688 230 65743 90.2 20250.816886201434 256 0 2 338 520
2707	142662 7585 230 65743 90.2 20250.816886201434 256 0.75 1 213.75 179.625
2708	150247 7182 230 65743 90.2 20250.816886201434 256 0 0.3 53 12.28
2709	157429 6781 261 65774 100.2 20260.821697937774 256 0 2 350 550
2710	164210 7681 261 65774 100.2 20260.821697937774 256 0.75 1 212.25 177.09375
2711	171891 7281 261 65774 100.2 20260.821697937774 256 0 0.3 54.2 12.68
2712	179172 6779 294 65804 110.2 20270.812120850418 256 0 2 339 525
2713	185951 7670 294 65804 110.2 20270.812120850418 256 0.75 1 213.625 179.453125
2714	193621 7271 294 65804 110.2 20270.812120850418 256 0 0.3 53.1 12.47
2715	200892 6767 327 65839 120 20281.015406154938 256 0 2 342 532
2716	207659 7660 327 65839 120 20281.015406154938 256 0.75 1 213.25 178.8125
2717	215319 7261 327 65839 120 20281.015406154938 256 0 0.3 53.4 12.52
2718	222580 6749 358 65867 130.2 20290.710587191416 256 0 2 351 563
2719	229329 7623 358 65867 130.2 20290.710587191416 256 0.75 1 212.125 177.046875
2720	236952 7239 358 65867 130.2 20290.710587191416 256 0 0.3 54.3 12.93
2721	244191 6755 389 65896 140.1 20300.713062818878 256 0 2 328 494
2722	250946 7652 389 65896 140.1 20300.713062818878 256 0.75 1 215 181.71875
2723	258598 7245 389 65896 140.1 20300.713062818878 256 0 0.3 52 11.82
2724	265843 6694 418 65942 150.1 20310.881947284065 256 0 2 351 557
2725	272537 7583 418 65942 150.1 20310.881947284065 256 0.75 1 212.125 176.953125
2726	280120 7190 418 65942 150.1 20310.881947284065 256 0 0.3 54.3 12.79
2727	287310 6766 448 65972 160.1 20320.907452674756 256 0 2 331 491
2728	294076 7690 448 65972 160.1 20320.907452674756 256 0.75 1 214.625 180.921875
2729	301766 7268 448 65972 160.1 20320.907452674756 256 0 0.3 52.3 11.73
2730	309034 6726 478 66006 170.2 20330.827114355379 256 0 2 346 540
2731	315760 7625 478 66006 170.2 20330.827114355379 256 0.75 1 212.75 177.9375
2732	323385 7224 478 66006 170.2 20330.827114355379 256 0 0.3 53.8 12.48
2733	330609 6773 507 66037 180.1 20340.909074134452 256 0 2 340 526
2734	337382 7668 507 66037 180.1 20340.909074134452 256 0.75 1 213.5 179.21875
2735	345050 7267 507 66037 180.1 20340.909074134452 256 0 0.3 53.2 12.4
2736	352317 6726 538 66068 190.1 20350.914739648251 256 0 2 322 476
2737	359043 7629 538 66068 190.1 20350.914739648251 256 0.75 1 215.75 182.9375
2738	366672 7216 538 66068 190.1 20350.914739648251 256 0 0.3 51.4 11.66
2739	373888 6804 583 66099 200.1 20361.002092610489 256 0 2 329 489
2740	380692 7720 583 66099 200.1 20361.002092610489 256 0.75 1 214.875 181.390625
2741	388412 7302 583 66099 200.1 20361.002092610489 256 0 0.3 52.1 11.89
2742	395714 6774 614 66133 210.1 20370.926915304821 256 0 2 333 505
2743	402488 7676 614 66133 210.1 20370.926915304821 256 0.75 1 214.375 180.640625
2744	410164 7268 614 66133 210.1 20370.926915304821 256 0 0.3 52.5 12.15
2745	417432 6739 643 66169 220.1 20380.766690739417 256 0 2 352 558
2746	424171 7632 643 66169 220.1 20380.766690739417 256 0.75 1 212 176.71875
2747	431803 7237 643 66169 220.1 20380.766690739417 256 0 0.3 54.4 12.9
2748	439040 6747 674 66200 230.2 20390.923135921839 256 0 2 341 533
2749	445787 7631 674 66200 230.2 20390.923135921839 256 0.75 1 213.375 179.078125
2750	453418 7237 674 66200 230.2 20390.923135921839 256 0 0.3 53.3 12.49
2751	460655 6763 707 66235 240.1 20400.835904612635 256 0 2 339 521
2752	467418 7664 707 66235 240.1 20400.835904612635 256 0.75 1 213.625 179.390625
2753	475082 7259 707 66235 240.1 20400.835904612635 256 0 0.3 53.1 12.37
2754	482341 6731 734 66263 250 20410.703014056383 256 0 2 340 530
2755	489072 7616 734 66263 250 20410.703014056383 256 0.75 1 213.5 179.28125
2756	496688 7221 734 66263 250 20410.703014056383 256 0 0.3 53.2 12.48
2757	503909 6767 763 66297 260.2 20420.82717219049 256 0 2 331 491
2758	510676 7691 763 66297 260.2 20420.82717219049 256 0.75 1 214.625 180.921875
2759	518367 7269 763 66297 260.2 20420.82717219049 256 0 0.3 52.3 11.87
2760	525636 6773 798 66327 270.2 20430.817056316908 256 0 2 337 517
2761	532409 7671 798 66327 270.2 20430.817056316908 256 0.75 1 213.875 179.828125
2762	540080 7267 798 66327 270.2 20430.817056316908 256 0 0.3 52.9 12.21
2763	547347 6831 828 66359 280.2 20440.918539052457 256 0 2 327 483
2764	554178 7749 828 66359 280.2 20440.918539052457 256 0.75 1 215.125 181.796875
2765	561927 7329 828 66359 280.2 20440.918539052457 256 0 0.3 51.9 11.73
2766	569256 6789 859 66391 290 20450.915464566653 256 0 2 336 512
2767	576045 7693 859 66391 290 20450.915464566653 256 0.75 1 214 180
2768	583738 7285 859 66391 290 20450.915464566653 256 0 0.3 52.8 12.1
2769	591023 6762 889 66425 300.2 20460.848247632998 256 0 2 346 538
2770	597785 7666 889 66425 300.2 20460.848247632998 256 0.75 1 212.75 177.90625
2771	605451 7262 889 66425 300.2 20460.848247632998 256 0 0.3 53.8 12.58
2772	612713 6705 922 66459 310.1 20470.825115757951 256 0 2 334 510
2773	619418 7601 922 66459 310.1 20470.825115757951 256 0.75 1 214.25 180.46875
2774	627019 7197 922 66459 310.1 20470.825115757951 256 0 0.3 52.6 12.14
2775	634216 6696 951 66488 320.1 20480.710350487107 256 0 2 339 519
2776	640912 7602 951 66488 320.1 20480.710350487107 256 0.75 1 213.625 179.359375
2777	648514 7194 951 66488 320.1 20480.710350487107 256 0 0.3 53.1 12.41
2778	655708 6735 985 66517 330.1 20490.802821540839 256 0 2 351 551
2779	662443 7639 985 66517 330.1 20490.802821540839 256 0.75 1 212.125 176.859375
2780	670082 7237 985 66517 330.1 20490.802821540839 256 0 0.3 54.3 12.71
2781	677319 6719 1020 66551 340 20500.726231225362 256 0 2 331 507
2782	684038 7603 1020 66551 340 20500.726231225362 256 0.75 1 214.625 181.171875
2783	691641 7205 1020 66551 340 20500.726231225362 256 0 0.3 52.3 12.27
