version 2
run Stability-norelink-29-20130525-23:16:10-22103
attr configname Stability-norelink
attr datetime 20130525-23:16:10
attr experiment Stability
attr inifile omnetpp.ini
attr iterationvars $0=1e4
attr iterationvars2 "$0=1e4, $repetition=9"
attr measurement $0=1e4
attr network Network
attr processid 22103
attr repetition 9
attr replication #9
attr resultdir results
attr runnumber 29
attr seedset 29

vector 2784  Network.dyn_peer[0]  lookupHopsSig:vector  ETV
vector 2785  Network.dyn_peer[0]  lookupStabilitySig:vector  ETV
vector 2786  Network.dyn_peer[0]  lookupTimeSig:vector  ETV
vector 2787  Network.dyn_peer[1]  lookupHopsSig:vector  ETV
vector 2788  Network.dyn_peer[1]  lookupStabilitySig:vector  ETV
vector 2789  Network.dyn_peer[1]  lookupTimeSig:vector  ETV
vector 2790  Network.dyn_peer[2]  lookupHopsSig:vector  ETV
vector 2791  Network.dyn_peer[2]  lookupStabilitySig:vector  ETV
vector 2792  Network.dyn_peer[2]  lookupTimeSig:vector  ETV
vector 2793  Network.dyn_peer[3]  lookupHopsSig:vector  ETV
vector 2794  Network.dyn_peer[3]  lookupStabilitySig:vector  ETV
vector 2795  Network.dyn_peer[3]  lookupTimeSig:vector  ETV
vector 2796  Network.dyn_peer[4]  lookupHopsSig:vector  ETV
vector 2797  Network.dyn_peer[4]  lookupStabilitySig:vector  ETV
vector 2798  Network.dyn_peer[4]  lookupTimeSig:vector  ETV
vector 2799  Network.dyn_peer[5]  lookupHopsSig:vector  ETV
vector 2800  Network.dyn_peer[5]  lookupStabilitySig:vector  ETV
vector 2801  Network.dyn_peer[5]  lookupTimeSig:vector  ETV
vector 2802  Network.dyn_peer[6]  lookupHopsSig:vector  ETV
vector 2803  Network.dyn_peer[6]  lookupStabilitySig:vector  ETV
vector 2804  Network.dyn_peer[6]  lookupTimeSig:vector  ETV
vector 2805  Network.dyn_peer[7]  lookupHopsSig:vector  ETV
vector 2806  Network.dyn_peer[7]  lookupStabilitySig:vector  ETV
vector 2807  Network.dyn_peer[7]  lookupTimeSig:vector  ETV
vector 2808  Network.dyn_peer[8]  lookupHopsSig:vector  ETV
vector 2809  Network.dyn_peer[8]  lookupStabilitySig:vector  ETV
vector 2810  Network.dyn_peer[8]  lookupTimeSig:vector  ETV
vector 2811  Network.dyn_peer[9]  lookupHopsSig:vector  ETV
vector 2812  Network.dyn_peer[9]  lookupStabilitySig:vector  ETV
vector 2813  Network.dyn_peer[9]  lookupTimeSig:vector  ETV
vector 2814  Network.dyn_peer[10]  lookupHopsSig:vector  ETV
vector 2815  Network.dyn_peer[10]  lookupStabilitySig:vector  ETV
vector 2816  Network.dyn_peer[10]  lookupTimeSig:vector  ETV
vector 2817  Network.dyn_peer[11]  lookupHopsSig:vector  ETV
vector 2818  Network.dyn_peer[11]  lookupStabilitySig:vector  ETV
vector 2819  Network.dyn_peer[11]  lookupTimeSig:vector  ETV
vector 2820  Network.dyn_peer[12]  lookupHopsSig:vector  ETV
vector 2821  Network.dyn_peer[12]  lookupStabilitySig:vector  ETV
vector 2822  Network.dyn_peer[12]  lookupTimeSig:vector  ETV
vector 2823  Network.dyn_peer[13]  lookupHopsSig:vector  ETV
vector 2824  Network.dyn_peer[13]  lookupStabilitySig:vector  ETV
vector 2825  Network.dyn_peer[13]  lookupTimeSig:vector  ETV
vector 2826  Network.dyn_peer[14]  lookupHopsSig:vector  ETV
vector 2827  Network.dyn_peer[14]  lookupStabilitySig:vector  ETV
vector 2828  Network.dyn_peer[14]  lookupTimeSig:vector  ETV
vector 2829  Network.dyn_peer[15]  lookupHopsSig:vector  ETV
vector 2830  Network.dyn_peer[15]  lookupStabilitySig:vector  ETV
vector 2831  Network.dyn_peer[15]  lookupTimeSig:vector  ETV
vector 2832  Network.dyn_peer[16]  lookupHopsSig:vector  ETV
vector 2833  Network.dyn_peer[16]  lookupStabilitySig:vector  ETV
vector 2834  Network.dyn_peer[16]  lookupTimeSig:vector  ETV
vector 2835  Network.dyn_peer[17]  lookupHopsSig:vector  ETV
vector 2836  Network.dyn_peer[17]  lookupStabilitySig:vector  ETV
vector 2837  Network.dyn_peer[17]  lookupTimeSig:vector  ETV
vector 2838  Network.dyn_peer[18]  lookupHopsSig:vector  ETV
vector 2839  Network.dyn_peer[18]  lookupStabilitySig:vector  ETV
vector 2840  Network.dyn_peer[18]  lookupTimeSig:vector  ETV
vector 2841  Network.dyn_peer[19]  lookupHopsSig:vector  ETV
vector 2842  Network.dyn_peer[19]  lookupStabilitySig:vector  ETV
vector 2843  Network.dyn_peer[19]  lookupTimeSig:vector  ETV
vector 2844  Network.dyn_peer[20]  lookupHopsSig:vector  ETV
vector 2845  Network.dyn_peer[20]  lookupStabilitySig:vector  ETV
vector 2846  Network.dyn_peer[20]  lookupTimeSig:vector  ETV
vector 2847  Network.dyn_peer[21]  lookupHopsSig:vector  ETV
vector 2848  Network.dyn_peer[21]  lookupStabilitySig:vector  ETV
vector 2849  Network.dyn_peer[21]  lookupTimeSig:vector  ETV
vector 2850  Network.dyn_peer[22]  lookupHopsSig:vector  ETV
vector 2851  Network.dyn_peer[22]  lookupStabilitySig:vector  ETV
vector 2852  Network.dyn_peer[22]  lookupTimeSig:vector  ETV
vector 2853  Network.dyn_peer[23]  lookupHopsSig:vector  ETV
vector 2854  Network.dyn_peer[23]  lookupStabilitySig:vector  ETV
vector 2855  Network.dyn_peer[23]  lookupTimeSig:vector  ETV
vector 2856  Network.dyn_peer[24]  lookupHopsSig:vector  ETV
vector 2857  Network.dyn_peer[24]  lookupStabilitySig:vector  ETV
vector 2858  Network.dyn_peer[24]  lookupTimeSig:vector  ETV
vector 2859  Network.dyn_peer[25]  lookupHopsSig:vector  ETV
vector 2860  Network.dyn_peer[25]  lookupStabilitySig:vector  ETV
vector 2861  Network.dyn_peer[25]  lookupTimeSig:vector  ETV
vector 2862  Network.dyn_peer[26]  lookupHopsSig:vector  ETV
vector 2863  Network.dyn_peer[26]  lookupStabilitySig:vector  ETV
vector 2864  Network.dyn_peer[26]  lookupTimeSig:vector  ETV
vector 2865  Network.dyn_peer[27]  lookupHopsSig:vector  ETV
vector 2866  Network.dyn_peer[27]  lookupStabilitySig:vector  ETV
vector 2867  Network.dyn_peer[27]  lookupTimeSig:vector  ETV
vector 2868  Network.dyn_peer[28]  lookupHopsSig:vector  ETV
vector 2869  Network.dyn_peer[28]  lookupStabilitySig:vector  ETV
vector 2870  Network.dyn_peer[28]  lookupTimeSig:vector  ETV
vector 2871  Network.dyn_peer[29]  lookupHopsSig:vector  ETV
vector 2872  Network.dyn_peer[29]  lookupStabilitySig:vector  ETV
vector 2873  Network.dyn_peer[29]  lookupTimeSig:vector  ETV
vector 2874  Network.dyn_peer[30]  lookupHopsSig:vector  ETV
vector 2875  Network.dyn_peer[30]  lookupStabilitySig:vector  ETV
vector 2876  Network.dyn_peer[30]  lookupTimeSig:vector  ETV
vector 2877  Network.dyn_peer[31]  lookupHopsSig:vector  ETV
vector 2878  Network.dyn_peer[31]  lookupStabilitySig:vector  ETV
vector 2879  Network.dyn_peer[31]  lookupTimeSig:vector  ETV
2784	31	30.1	1
2784	34	30.3	1
2784	38	30.506770463143	1
2784	51	30.754056309975	1
2784	1072	350.2	2
2784	1075	350.4	1
2784	1080	350.702595704067	2
2784	1084	350.909498313182	1
2784	2055	670.1	1
2784	2059	670.4	2
2784	2064	670.607731879704	1
2784	2073	670.838526919278	1
2784	3107	990.1	1
2784	3112	990.304267881169	1
2784	3121	990.543291796911	1
2784	3127	990.849562208437	2
2784	4141	1310.1	1
2784	4144	1310.3	1
2784	4150	1310.516013919435	1
2784	4155	1310.820637972889	2
2784	5169	1630.2	2
2784	5174	1630.414263383894	1
2784	5181	1630.642805292874	1
2784	5185	1630.846968617993	1
2784	6216	1950.2	2
2784	6219	1950.4	1
2784	6228	1950.61568150277	1
2784	6237	1950.946657939198	2
2784	7272	2270.3	3
2784	7275	2270.5	1
2784	7279	2270.703230090003	1
2784	7289	2270.941656781822	1
2784	8325	2590	0
2784	8329	2590.203124035373	1
2784	8334	2590.408202056255	1
2784	8340	2590.617898765772	1
2784	9372	2910.2	2
2784	9377	2910.504353414624	2
2784	9381	2910.71342380301	1
2784	9388	2910.939546100245	1
2784	10388	3230.1	1
2784	10392	3230.4	2
2784	10396	3230.602430862649	1
2784	10402	3230.813061388717	1
2784	11430	3550.1	1
2784	11434	3550.4	2
2784	11439	3550.706051220891	2
2784	11445	3551.016686544139	2
2784	12473	3870.1	1
2784	12478	3870.404035952829	2
2784	12483	3870.616394222293	1
2784	12487	3870.817658167232	1
2784	13506	4190.2	2
2784	13511	4190.503933534941	2
2784	13515	4190.713642098998	1
2784	13520	4190.930072385031	1
2784	14550	4510.2	2
2784	14553	4510.4	1
2784	14557	4510.601706812081	1
2784	14564	4510.813961070959	1
2784	15562	4830.1	1
2784	15566	4830.4	2
2784	15570	4830.601885809944	1
2784	15576	4830.910630967708	2
2784	16589	5150.2	2
2784	16593	5150.5	2
2784	16598	5150.803401916259	2
2784	16603	5151.00921940129	1
2784	17608	5470.2	2
2784	17612	5470.402499207167	1
2784	17617	5470.703483393275	2
2784	17623	5471.014739941168	2
2784	18645	5790.2	2
2784	18649	5790.407032794016	1
2784	18653	5790.611272978337	1
2784	18658	5790.824861876236	1
2784	19684	6110.1	1
2784	19687	6110.3	1
2784	19691	6110.501208495425	1
2784	19703	6110.747258423859	1
2784	20736	6430.2	2
2784	20740	6430.406779967725	1
2784	20747	6430.615379049302	1
2784	20753	6430.835427193718	1
2784	21773	6750.2	2
2784	21776	6750.4	1
2784	21782	6750.618359663068	1
2784	21787	6750.831595991202	1
2784	22824	7070.1	1
2784	22828	7070.4	2
2784	22835	7070.709324722773	2
2784	22839	7070.918405037551	1
2784	23881	7390.1	1
2784	23884	7390.3	1
2784	23888	7390.500146052199	1
2784	23897	7390.733777098841	1
2784	24971	7710.2	2
2784	24974	7710.4	1
2784	24978	7710.605447942235	1
2784	24989	7710.847434120399	1
2784	25999	8030.2	2
2784	26002	8030.4	1
2784	26006	8030.603499770241	1
2784	26015	8030.925553613636	2
2784	27042	8350.2	2
2784	27046	8350.5	2
2784	27051	8350.809346996152	2
2784	27055	8351.01502181312	1
2784	28079	8670.2	2
2784	28082	8670.4	1
2784	28087	8670.704822518019	2
2784	28092	8671.014657037576	2
2784	29109	8990.2	2
2784	29113	8990.5	2
2784	29120	8990.818685987846	2
2784	29127	8991.034301609996	1
2784	30179	9310.2	2
2784	30183	9310.5	2
2784	30188	9310.711241215976	1
2784	30193	9311.02029315162	2
2784	31219	9630.2	2
2784	31227	9630.432485146228	1
2784	31232	9630.638944558597	1
2784	31240	9630.856786153694	1
2784	32245	9950.1	1
2784	32249	9950.4	2
2784	32256	9950.716218895224	2
2784	32263	9950.938817631448	1
2784	33276	10270.1	1
2784	33280	10270.306868962675	1
2784	33285	10270.608801143597	2
2784	33289	10270.81517424157	1
2784	34310	10590.1	1
2784	34315	10590.408574858608	2
2784	34323	10590.634082681999	1
2784	34328	10590.935838627246	2
2784	35345	10910.2	2
2784	35348	10910.4	1
2784	35352	10910.607300026156	1
2784	35357	10910.812404767516	1
2784	36371	11230.3	3
2784	36374	11230.5	1
2784	36378	11230.708953546027	1
2784	36382	11230.91828909127	1
2784	37385	11550.2	2
2784	37389	11550.408579058749	1
2784	37397	11550.735222929549	2
2784	37402	11550.944253465813	1
2784	38424	11870.1	1
2784	38428	11870.4	2
2784	38433	11870.612453181284	1
2784	38437	11870.818377868755	1
2784	39457	12190.1	1
2784	39461	12190.303492296333	1
2784	39465	12190.512690970105	1
2784	39470	12190.729466942244	1
2784	40497	12510.1	1
2784	40501	12510.4	2
2784	40505	12510.607508378822	1
2784	40510	12510.82553357954	1
2784	41518	12830.2	2
2784	41522	12830.400319828628	1
2784	41528	12830.712780935067	2
2784	41533	12830.920487890167	1
2784	42558	13150.2	2
2784	42562	13150.5	2
2784	42569	13150.71846915708	1
2784	42576	13150.936852507059	1
2784	43611	13470.1	1
2784	43615	13470.4	2
2784	43619	13470.604281706162	1
2784	43631	13470.951679209516	2
2784	44650	13790	0
2784	44653	13790.2	1
2784	44657	13790.40257731935	1
2784	44663	13790.618368571176	1
2784	45683	14110.1	1
2784	45687	14110.309825117483	1
2784	45692	14110.52414334975	1
2784	45700	14110.752265918704	1
2784	46728	14430.2	2
2784	46732	14430.5	2
2784	46737	14430.707825601826	1
2784	46743	14430.935295552683	1
2784	47717	14750	0
2784	47720	14750.2	1
2784	47726	14750.509866744274	2
2784	47731	14750.810812921401	2
2784	48754	15070.2	2
2784	48758	15070.5	2
2784	48768	15070.830086955008	2
2784	48774	15071.042791295518	1
2784	49790	15390.1	1
2784	49796	15390.412667857164	2
2784	49803	15390.632824475497	1
2784	49810	15390.849023425122	1
2784	50867	15710.2	2
2784	50871	15710.5	2
2784	50876	15710.800336623182	2
2784	50883	15711.02056836097	1
2784	51915	16030.3	3
2784	51918	16030.5	1
2784	51924	16030.808853703569	2
2784	51929	16031.015342111428	1
2784	52930	16350.1	1
2784	52934	16350.4	2
2784	52939	16350.704988135984	2
2784	52945	16350.920629981522	1
2784	53967	16670.1	1
2784	53973	16670.315546992196	1
2784	53980	16670.53026606817	1
2784	53984	16670.738481356403	1
2784	54989	16990.1	1
2784	54993	16990.4	2
2784	54997	16990.604306945414	1
2784	55002	16990.90816035699	2
2784	56030	17310.1	1
2784	56033	17310.3	1
2784	56040	17310.520424314922	1
2784	56054	17310.786348265684	1
2784	57091	17630	0
2784	57094	17630.2	1
2784	57102	17630.425345559376	1
2784	57106	17630.633383784938	1
2784	58128	17950.1	1
2784	58132	17950.4	2
2784	58138	17950.710225824985	2
2784	58143	17950.925013914199	1
2784	59179	18270.1	1
2784	59182	18270.3	1
2784	59188	18270.618174354461	2
2784	59193	18270.830991520807	1
2784	60232	18590.2	2
2784	60237	18590.502508695262	2
2784	60241	18590.703001250169	1
2784	60247	18590.923109546305	1
2784	61275	18910.2	2
2784	61279	18910.5	2
2784	61285	18910.714702035696	1
2784	61291	18911.030984588157	2
2784	62285	19230	0
2784	62289	19230.205083473783	1
2784	62294	19230.514514439531	2
2784	62298	19230.71828416668	1
2784	63333	19550.2	2
2784	63336	19550.4	1
2784	63343	19550.711895888141	2
2784	63348	19550.925948863502	1
2784	64383	19870.3	3
2784	64386	19870.5	1
2784	64391	19870.80752223059	2
2784	64397	19871.01321720215	1
2784	65432	20190.1	1
2784	65436	20190.4	2
2784	65444	20190.626948408664	1
2784	65448	20190.829875285236	1
2785	31	30.1	0.875
2785	34	30.3	0.875
2785	38	30.506770463143	0.875
2785	51	30.754056309975	0.875
2785	1072	350.2	0.75
2785	1075	350.4	0.875
2785	1080	350.702595704067	0.75
2785	1084	350.909498313182	0.875
2785	2055	670.1	0.875
2785	2059	670.4	0.75
2785	2064	670.607731879704	0.875
2785	2073	670.838526919278	0.875
2785	3107	990.1	0.875
2785	3112	990.304267881169	0.875
2785	3121	990.543291796911	0.875
2785	3127	990.849562208437	0.75
2785	4141	1310.1	0.875
2785	4144	1310.3	0.875
2785	4150	1310.516013919435	0.875
2785	4155	1310.820637972889	0.75
2785	5169	1630.2	0.75
2785	5174	1630.414263383894	0.875
2785	5181	1630.642805292874	0.875
2785	5185	1630.846968617993	0.875
2785	6216	1950.2	0.75
2785	6219	1950.4	0.875
2785	6228	1950.61568150277	0.875
2785	6237	1950.946657939198	0.75
2785	7272	2270.3	0.625
2785	7275	2270.5	0.875
2785	7279	2270.703230090003	0.875
2785	7289	2270.941656781822	0.875
2785	8325	2590	1
2785	8329	2590.203124035373	0.875
2785	8334	2590.408202056255	0.875
2785	8340	2590.617898765772	0.875
2785	9372	2910.2	0.75
2785	9377	2910.504353414624	0.75
2785	9381	2910.71342380301	0.875
2785	9388	2910.939546100245	0.875
2785	10388	3230.1	0.875
2785	10392	3230.4	0.75
2785	10396	3230.602430862649	0.875
2785	10402	3230.813061388717	0.875
2785	11430	3550.1	0.875
2785	11434	3550.4	0.75
2785	11439	3550.706051220891	0.75
2785	11445	3551.016686544139	0.75
2785	12473	3870.1	0.875
2785	12478	3870.404035952829	0.75
2785	12483	3870.616394222293	0.875
2785	12487	3870.817658167232	0.875
2785	13506	4190.2	0.75
2785	13511	4190.503933534941	0.75
2785	13515	4190.713642098998	0.875
2785	13520	4190.930072385031	0.875
2785	14550	4510.2	0.75
2785	14553	4510.4	0.875
2785	14557	4510.601706812081	0.875
2785	14564	4510.813961070959	0.875
2785	15562	4830.1	0.875
2785	15566	4830.4	0.75
2785	15570	4830.601885809944	0.875
2785	15576	4830.910630967708	0.75
2785	16589	5150.2	0.75
2785	16593	5150.5	0.75
2785	16598	5150.803401916259	0.75
2785	16603	5151.00921940129	0.875
2785	17608	5470.2	0.75
2785	17612	5470.402499207167	0.875
2785	17617	5470.703483393275	0.75
2785	17623	5471.014739941168	0.75
2785	18645	5790.2	0.75
2785	18649	5790.407032794016	0.875
2785	18653	5790.611272978337	0.875
2785	18658	5790.824861876236	0.875
2785	19684	6110.1	0.875
2785	19687	6110.3	0.875
2785	19691	6110.501208495425	0.875
2785	19703	6110.747258423859	0.875
2785	20736	6430.2	0.75
2785	20740	6430.406779967725	0.875
2785	20747	6430.615379049302	0.875
2785	20753	6430.835427193718	0.875
2785	21773	6750.2	0.75
2785	21776	6750.4	0.875
2785	21782	6750.618359663068	0.875
2785	21787	6750.831595991202	0.875
2785	22824	7070.1	0.875
2785	22828	7070.4	0.75
2785	22835	7070.709324722773	0.75
2785	22839	7070.918405037551	0.875
2785	23881	7390.1	0.875
2785	23884	7390.3	0.875
2785	23888	7390.500146052199	0.875
2785	23897	7390.733777098841	0.875
2785	24971	7710.2	0.75
2785	24974	7710.4	0.875
2785	24978	7710.605447942235	0.875
2785	24989	7710.847434120399	0.875
2785	25999	8030.2	0.75
2785	26002	8030.4	0.875
2785	26006	8030.603499770241	0.875
2785	26015	8030.925553613636	0.75
2785	27042	8350.2	0.75
2785	27046	8350.5	0.75
2785	27051	8350.809346996152	0.75
2785	27055	8351.01502181312	0.875
2785	28079	8670.2	0.75
2785	28082	8670.4	0.875
2785	28087	8670.704822518019	0.75
2785	28092	8671.014657037576	0.75
2785	29109	8990.2	0.75
2785	29113	8990.5	0.75
2785	29120	8990.818685987846	0.75
2785	29127	8991.034301609996	0.875
2785	30179	9310.2	0.75
2785	30183	9310.5	0.75
2785	30188	9310.711241215976	0.875
2785	30193	9311.02029315162	0.75
2785	31219	9630.2	0.75
2785	31227	9630.432485146228	0.875
2785	31232	9630.638944558597	0.875
2785	31240	9630.856786153694	0.875
2785	32245	9950.1	0.875
2785	32249	9950.4	0.75
2785	32256	9950.716218895224	0.75
2785	32263	9950.938817631448	0.875
2785	33276	10270.1	0.875
2785	33280	10270.306868962675	0.875
2785	33285	10270.608801143597	0.75
2785	33289	10270.81517424157	0.875
2785	34310	10590.1	0.875
2785	34315	10590.408574858608	0.75
2785	34323	10590.634082681999	0.875
2785	34328	10590.935838627246	0.75
2785	35345	10910.2	0.75
2785	35348	10910.4	0.875
2785	35352	10910.607300026156	0.875
2785	35357	10910.812404767516	0.875
2785	36371	11230.3	0.625
2785	36374	11230.5	0.875
2785	36378	11230.708953546027	0.875
2785	36382	11230.91828909127	0.875
2785	37385	11550.2	0.75
2785	37389	11550.408579058749	0.875
2785	37397	11550.735222929549	0.75
2785	37402	11550.944253465813	0.875
2785	38424	11870.1	0.875
2785	38428	11870.4	0.75
2785	38433	11870.612453181284	0.875
2785	38437	11870.818377868755	0.875
2785	39457	12190.1	0.875
2785	39461	12190.303492296333	0.875
2785	39465	12190.512690970105	0.875
2785	39470	12190.729466942244	0.875
2785	40497	12510.1	0.875
2785	40501	12510.4	0.75
2785	40505	12510.607508378822	0.875
2785	40510	12510.82553357954	0.875
2785	41518	12830.2	0.75
2785	41522	12830.400319828628	0.875
2785	41528	12830.712780935067	0.75
2785	41533	12830.920487890167	0.875
2785	42558	13150.2	0.75
2785	42562	13150.5	0.75
2785	42569	13150.71846915708	0.875
2785	42576	13150.936852507059	0.875
2785	43611	13470.1	0.875
2785	43615	13470.4	0.75
2785	43619	13470.604281706162	0.875
2785	43631	13470.951679209516	0.75
2785	44650	13790	1
2785	44653	13790.2	0.875
2785	44657	13790.40257731935	0.875
2785	44663	13790.618368571176	0.875
2785	45683	14110.1	0.875
2785	45687	14110.309825117483	0.875
2785	45692	14110.52414334975	0.875
2785	45700	14110.752265918704	0.875
2785	46728	14430.2	0.75
2785	46732	14430.5	0.75
2785	46737	14430.707825601826	0.875
2785	46743	14430.935295552683	0.875
2785	47717	14750	1
2785	47720	14750.2	0.875
2785	47726	14750.509866744274	0.75
2785	47731	14750.810812921401	0.75
2785	48754	15070.2	0.75
2785	48758	15070.5	0.75
2785	48768	15070.830086955008	0.75
2785	48774	15071.042791295518	0.875
2785	49790	15390.1	0.875
2785	49796	15390.412667857164	0.75
2785	49803	15390.632824475497	0.875
2785	49810	15390.849023425122	0.875
2785	50867	15710.2	0.75
2785	50871	15710.5	0.75
2785	50876	15710.800336623182	0.75
2785	50883	15711.02056836097	0.875
2785	51915	16030.3	0.625
2785	51918	16030.5	0.875
2785	51924	16030.808853703569	0.75
2785	51929	16031.015342111428	0.875
2785	52930	16350.1	0.875
2785	52934	16350.4	0.75
2785	52939	16350.704988135984	0.75
2785	52945	16350.920629981522	0.875
2785	53967	16670.1	0.875
2785	53973	16670.315546992196	0.875
2785	53980	16670.53026606817	0.875
2785	53984	16670.738481356403	0.875
2785	54989	16990.1	0.875
2785	54993	16990.4	0.75
2785	54997	16990.604306945414	0.875
2785	55002	16990.90816035699	0.75
2785	56030	17310.1	0.875
2785	56033	17310.3	0.875
2785	56040	17310.520424314922	0.875
2785	56054	17310.786348265684	0.875
2785	57091	17630	1
2785	57094	17630.2	0.875
2785	57102	17630.425345559376	0.875
2785	57106	17630.633383784938	0.875
2785	58128	17950.1	0.875
2785	58132	17950.4	0.75
2785	58138	17950.710225824985	0.75
2785	58143	17950.925013914199	0.875
2785	59179	18270.1	0.875
2785	59182	18270.3	0.875
2785	59188	18270.618174354461	0.75
2785	59193	18270.830991520807	0.875
2785	60232	18590.2	0.75
2785	60237	18590.502508695262	0.75
2785	60241	18590.703001250169	0.875
2785	60247	18590.923109546305	0.875
2785	61275	18910.2	0.75
2785	61279	18910.5	0.75
2785	61285	18910.714702035696	0.875
2785	61291	18911.030984588157	0.75
2785	62285	19230	1
2785	62289	19230.205083473783	0.875
2785	62294	19230.514514439531	0.75
2785	62298	19230.71828416668	0.875
2785	63333	19550.2	0.75
2785	63336	19550.4	0.875
2785	63343	19550.711895888141	0.75
2785	63348	19550.925948863502	0.875
2785	64383	19870.3	0.625
2785	64386	19870.5	0.875
2785	64391	19870.80752223059	0.75
2785	64397	19871.01321720215	0.875
2785	65432	20190.1	0.875
2785	65436	20190.4	0.75
2785	65444	20190.626948408664	0.875
2785	65448	20190.829875285236	0.875
2786	31	30.1	0.1
2786	34	30.3	0.2
2786	38	30.506770463143	0.2
2786	51	30.754056309975	0.2
2786	1072	350.2	0.2
2786	1075	350.4	0.2
2786	1080	350.702595704067	0.3
2786	1084	350.909498313182	0.2
2786	2055	670.1	0.1
2786	2059	670.4	0.3
2786	2064	670.607731879704	0.2
2786	2073	670.838526919278	0.2
2786	3107	990.1	0.1
2786	3112	990.304267881169	0.2
2786	3121	990.543291796911	0.2
2786	3127	990.849562208437	0.3
2786	4141	1310.1	0.1
2786	4144	1310.3	0.2
2786	4150	1310.516013919435	0.2
2786	4155	1310.820637972889	0.3
2786	5169	1630.2	0.2
2786	5174	1630.414263383894	0.2
2786	5181	1630.642805292874	0.2
2786	5185	1630.846968617993	0.2
2786	6216	1950.2	0.2
2786	6219	1950.4	0.2
2786	6228	1950.61568150277	0.2
2786	6237	1950.946657939198	0.3
2786	7272	2270.3	0.3
2786	7275	2270.5	0.2
2786	7279	2270.703230090003	0.2
2786	7289	2270.941656781822	0.2
2786	8325	2590	0
2786	8329	2590.203124035373	0.2
2786	8334	2590.408202056255	0.2
2786	8340	2590.617898765772	0.2
2786	9372	2910.2	0.2
2786	9377	2910.504353414624	0.3
2786	9381	2910.71342380301	0.2
2786	9388	2910.939546100245	0.2
2786	10388	3230.1	0.1
2786	10392	3230.4	0.3
2786	10396	3230.602430862649	0.2
2786	10402	3230.813061388717	0.2
2786	11430	3550.1	0.1
2786	11434	3550.4	0.3
2786	11439	3550.706051220891	0.3
2786	11445	3551.016686544139	0.3
2786	12473	3870.1	0.1
2786	12478	3870.404035952829	0.3
2786	12483	3870.616394222293	0.2
2786	12487	3870.817658167232	0.2
2786	13506	4190.2	0.2
2786	13511	4190.503933534941	0.3
2786	13515	4190.713642098998	0.2
2786	13520	4190.930072385031	0.2
2786	14550	4510.2	0.2
2786	14553	4510.4	0.2
2786	14557	4510.601706812081	0.2
2786	14564	4510.813961070959	0.2
2786	15562	4830.1	0.1
2786	15566	4830.4	0.3
2786	15570	4830.601885809944	0.2
2786	15576	4830.910630967708	0.3
2786	16589	5150.2	0.2
2786	16593	5150.5	0.3
2786	16598	5150.803401916259	0.3
2786	16603	5151.00921940129	0.2
2786	17608	5470.2	0.2
2786	17612	5470.402499207167	0.2
2786	17617	5470.703483393275	0.3
2786	17623	5471.014739941168	0.3
2786	18645	5790.2	0.2
2786	18649	5790.407032794016	0.2
2786	18653	5790.611272978337	0.2
2786	18658	5790.824861876236	0.2
2786	19684	6110.1	0.1
2786	19687	6110.3	0.2
2786	19691	6110.501208495425	0.2
2786	19703	6110.747258423859	0.2
2786	20736	6430.2	0.2
2786	20740	6430.406779967725	0.2
2786	20747	6430.615379049302	0.2
2786	20753	6430.835427193718	0.2
2786	21773	6750.2	0.2
2786	21776	6750.4	0.2
2786	21782	6750.618359663068	0.2
2786	21787	6750.831595991202	0.2
2786	22824	7070.1	0.1
2786	22828	7070.4	0.3
2786	22835	7070.709324722773	0.3
2786	22839	7070.918405037551	0.2
2786	23881	7390.1	0.1
2786	23884	7390.3	0.2
2786	23888	7390.500146052199	0.2
2786	23897	7390.733777098841	0.2
2786	24971	7710.2	0.2
2786	24974	7710.4	0.2
2786	24978	7710.605447942235	0.2
2786	24989	7710.847434120399	0.2
2786	25999	8030.2	0.2
2786	26002	8030.4	0.2
2786	26006	8030.603499770241	0.2
2786	26015	8030.925553613636	0.3
2786	27042	8350.2	0.2
2786	27046	8350.5	0.3
2786	27051	8350.809346996152	0.3
2786	27055	8351.01502181312	0.2
2786	28079	8670.2	0.2
2786	28082	8670.4	0.2
2786	28087	8670.704822518019	0.3
2786	28092	8671.014657037576	0.3
2786	29109	8990.2	0.2
2786	29113	8990.5	0.3
2786	29120	8990.818685987846	0.3
2786	29127	8991.034301609996	0.2
2786	30179	9310.2	0.2
2786	30183	9310.5	0.3
2786	30188	9310.711241215976	0.2
2786	30193	9311.02029315162	0.3
2786	31219	9630.2	0.2
2786	31227	9630.432485146228	0.2
2786	31232	9630.638944558597	0.2
2786	31240	9630.856786153694	0.2
2786	32245	9950.1	0.1
2786	32249	9950.4	0.3
2786	32256	9950.716218895224	0.3
2786	32263	9950.938817631448	0.2
2786	33276	10270.1	0.1
2786	33280	10270.306868962675	0.2
2786	33285	10270.608801143597	0.3
2786	33289	10270.81517424157	0.2
2786	34310	10590.1	0.1
2786	34315	10590.408574858608	0.3
2786	34323	10590.634082681999	0.2
2786	34328	10590.935838627246	0.3
2786	35345	10910.2	0.2
2786	35348	10910.4	0.2
2786	35352	10910.607300026156	0.2
2786	35357	10910.812404767516	0.2
2786	36371	11230.3	0.3
2786	36374	11230.5	0.2
2786	36378	11230.708953546027	0.2
2786	36382	11230.91828909127	0.2
2786	37385	11550.2	0.2
2786	37389	11550.408579058749	0.2
2786	37397	11550.735222929549	0.3
2786	37402	11550.944253465813	0.2
2786	38424	11870.1	0.1
2786	38428	11870.4	0.3
2786	38433	11870.612453181284	0.2
2786	38437	11870.818377868755	0.2
2786	39457	12190.1	0.1
2786	39461	12190.303492296333	0.2
2786	39465	12190.512690970105	0.2
2786	39470	12190.729466942244	0.2
2786	40497	12510.1	0.1
2786	40501	12510.4	0.3
2786	40505	12510.607508378822	0.2
2786	40510	12510.82553357954	0.2
2786	41518	12830.2	0.2
2786	41522	12830.400319828628	0.2
2786	41528	12830.712780935067	0.3
2786	41533	12830.920487890167	0.2
2786	42558	13150.2	0.2
2786	42562	13150.5	0.3
2786	42569	13150.71846915708	0.2
2786	42576	13150.936852507059	0.2
2786	43611	13470.1	0.1
2786	43615	13470.4	0.3
2786	43619	13470.604281706162	0.2
2786	43631	13470.951679209516	0.3
2786	44650	13790	0
2786	44653	13790.2	0.2
2786	44657	13790.40257731935	0.2
2786	44663	13790.618368571176	0.2
2786	45683	14110.1	0.1
2786	45687	14110.309825117483	0.2
2786	45692	14110.52414334975	0.2
2786	45700	14110.752265918704	0.2
2786	46728	14430.2	0.2
2786	46732	14430.5	0.3
2786	46737	14430.707825601826	0.2
2786	46743	14430.935295552683	0.2
2786	47717	14750	0
2786	47720	14750.2	0.2
2786	47726	14750.509866744274	0.3
2786	47731	14750.810812921401	0.3
2786	48754	15070.2	0.2
2786	48758	15070.5	0.3
2786	48768	15070.830086955008	0.3
2786	48774	15071.042791295518	0.2
2786	49790	15390.1	0.1
2786	49796	15390.412667857164	0.3
2786	49803	15390.632824475497	0.2
2786	49810	15390.849023425122	0.2
2786	50867	15710.2	0.2
2786	50871	15710.5	0.3
2786	50876	15710.800336623182	0.3
2786	50883	15711.02056836097	0.2
2786	51915	16030.3	0.3
2786	51918	16030.5	0.2
2786	51924	16030.808853703569	0.3
2786	51929	16031.015342111428	0.2
2786	52930	16350.1	0.1
2786	52934	16350.4	0.3
2786	52939	16350.704988135984	0.3
2786	52945	16350.920629981522	0.2
2786	53967	16670.1	0.1
2786	53973	16670.315546992196	0.2
2786	53980	16670.53026606817	0.2
2786	53984	16670.738481356403	0.2
2786	54989	16990.1	0.1
2786	54993	16990.4	0.3
2786	54997	16990.604306945414	0.2
2786	55002	16990.90816035699	0.3
2786	56030	17310.1	0.1
2786	56033	17310.3	0.2
2786	56040	17310.520424314922	0.2
2786	56054	17310.786348265684	0.2
2786	57091	17630	0
2786	57094	17630.2	0.2
2786	57102	17630.425345559376	0.2
2786	57106	17630.633383784938	0.2
2786	58128	17950.1	0.1
2786	58132	17950.4	0.3
2786	58138	17950.710225824985	0.3
2786	58143	17950.925013914199	0.2
2786	59179	18270.1	0.1
2786	59182	18270.3	0.2
2786	59188	18270.618174354461	0.3
2786	59193	18270.830991520807	0.2
2786	60232	18590.2	0.2
2786	60237	18590.502508695262	0.3
2786	60241	18590.703001250169	0.2
2786	60247	18590.923109546305	0.2
2786	61275	18910.2	0.2
2786	61279	18910.5	0.3
2786	61285	18910.714702035696	0.2
2786	61291	18911.030984588157	0.3
2786	62285	19230	0
2786	62289	19230.205083473783	0.2
2786	62294	19230.514514439531	0.3
2786	62298	19230.71828416668	0.2
2786	63333	19550.2	0.2
2786	63336	19550.4	0.2
2786	63343	19550.711895888141	0.3
2786	63348	19550.925948863502	0.2
2786	64383	19870.3	0.3
2786	64386	19870.5	0.2
2786	64391	19870.80752223059	0.3
2786	64397	19871.01321720215	0.2
2786	65432	20190.1	0.1
2786	65436	20190.4	0.3
2786	65444	20190.626948408664	0.2
2786	65448	20190.829875285236	0.2
2787	68	40.1	1
2787	71	40.3	1
2787	75	40.500833529336	1
2787	81	40.714495833023	1
2787	1100	360	0
2787	1104	360.204006420178	1
2787	1109	360.419651360155	1
2787	1114	360.72040457457	2
2787	2091	680.2	2
2787	2094	680.4	1
2787	2099	680.70421882007	2
2787	2103	680.907146281785	1
2787	3145	1000.2	2
2787	3149	1000.5	2
2787	3156	1000.810497046999	2
2787	3163	1001.120069129073	2
2787	4172	1320.1	1
2787	4175	1320.3	1
2787	4179	1320.506497769372	1
2787	4186	1320.820642469077	2
2787	5203	1640.2	2
2787	5209	1640.4023143926	1
2787	5216	1640.715467890776	2
2787	5223	1640.935620153818	1
2787	6254	1960.1	1
2787	6257	1960.3	1
2787	6264	1960.617991946124	2
2787	6270	1960.832678549191	1
2787	7306	2280.1	1
2787	7310	2280.4	2
2787	7315	2280.704117939199	2
2787	7319	2280.905718927571	1
2787	8357	2600.1	1
2787	8361	2600.4	2
2787	8365	2600.606560027501	1
2787	8379	2600.852268569386	1
2787	9406	2920.2	2
2787	9411	2920.507180320501	2
2787	9416	2920.715368697681	1
2787	9423	2920.940807938109	1
2787	10420	3240.2	2
2787	10424	3240.5	2
2787	10431	3240.722220150775	1
2787	10442	3240.955006545517	1
2787	11461	3560	0
2787	11465	3560.3	2
2787	11469	3560.500061242827	1
2787	11473	3560.701756777658	1
2787	12505	3880.2	2
2787	12510	3880.413802865073	1
2787	12515	3880.717469773942	2
2787	12520	3880.930199667236	1
2787	13537	4200.1	1
2787	13540	4200.3	1
2787	13545	4200.509557089202	1
2787	13549	4200.7096227502	1
2787	14582	4520.2	2
2787	14585	4520.4	1
2787	14591	4520.617518350939	1
2787	14595	4520.819382342159	1
2787	15594	4840.2	2
2787	15597	4840.4	1
2787	15606	4840.721201984453	2
2787	15612	4841.029513068302	2
2787	16620	5160.1	1
2787	16623	5160.3	1
2787	16627	5160.503981660744	1
2787	16631	5160.705815948541	1
2787	17640	5480.1	1
2787	17643	5480.3	1
2787	17648	5480.609557017064	2
2787	17656	5480.826835972114	1
2787	18675	5800.1	1
2787	18679	5800.4	2