version 2
run Stability-norelink-86-20130525-23:19:44-22103
attr configname Stability-norelink
attr datetime 20130525-23:19:44
attr experiment Stability
attr inifile omnetpp.ini
attr iterationvars $0=1e-2
attr iterationvars2 "$0=1e-2, $repetition=6"
attr measurement $0=1e-2
attr network Network
attr processid 22103
attr repetition 6
attr replication #6
attr resultdir results
attr runnumber 86
attr seedset 86

vector 8316  Network.dyn_peer[20]  lookupHopsSig:vector  ETV
vector 8317  Network.dyn_peer[20]  lookupStabilitySig:vector  ETV
vector 8318  Network.dyn_peer[20]  lookupTimeSig:vector  ETV
vector 8337  Network.dyn_peer[27]  lookupHopsSig:vector  ETV
vector 8338  Network.dyn_peer[27]  lookupStabilitySig:vector  ETV
vector 8339  Network.dyn_peer[27]  lookupTimeSig:vector  ETV
vector 8349  Network.dyn_peer[31]  lookupHopsSig:vector  ETV
vector 8350  Network.dyn_peer[31]  lookupStabilitySig:vector  ETV
vector 8351  Network.dyn_peer[31]  lookupTimeSig:vector  ETV
vector 8259  Network.dyn_peer[1]  lookupHopsSig:vector  ETV
vector 8260  Network.dyn_peer[1]  lookupStabilitySig:vector  ETV
vector 8261  Network.dyn_peer[1]  lookupTimeSig:vector  ETV
vector 8262  Network.dyn_peer[2]  lookupHopsSig:vector  ETV
vector 8263  Network.dyn_peer[2]  lookupStabilitySig:vector  ETV
vector 8264  Network.dyn_peer[2]  lookupTimeSig:vector  ETV
vector 8265  Network.dyn_peer[3]  lookupHopsSig:vector  ETV
vector 8266  Network.dyn_peer[3]  lookupStabilitySig:vector  ETV
vector 8267  Network.dyn_peer[3]  lookupTimeSig:vector  ETV
vector 8271  Network.dyn_peer[5]  lookupHopsSig:vector  ETV
vector 8272  Network.dyn_peer[5]  lookupStabilitySig:vector  ETV
vector 8273  Network.dyn_peer[5]  lookupTimeSig:vector  ETV
vector 8274  Network.dyn_peer[6]  lookupHopsSig:vector  ETV
vector 8275  Network.dyn_peer[6]  lookupStabilitySig:vector  ETV
vector 8276  Network.dyn_peer[6]  lookupTimeSig:vector  ETV
vector 8286  Network.dyn_peer[10]  lookupHopsSig:vector  ETV
vector 8287  Network.dyn_peer[10]  lookupStabilitySig:vector  ETV
vector 8288  Network.dyn_peer[10]  lookupTimeSig:vector  ETV
vector 8289  Network.dyn_peer[11]  lookupHopsSig:vector  ETV
vector 8290  Network.dyn_peer[11]  lookupStabilitySig:vector  ETV
vector 8291  Network.dyn_peer[11]  lookupTimeSig:vector  ETV
vector 8295  Network.dyn_peer[13]  lookupHopsSig:vector  ETV
vector 8296  Network.dyn_peer[13]  lookupStabilitySig:vector  ETV
vector 8297  Network.dyn_peer[13]  lookupTimeSig:vector  ETV
vector 8298  Network.dyn_peer[14]  lookupHopsSig:vector  ETV
vector 8299  Network.dyn_peer[14]  lookupStabilitySig:vector  ETV
vector 8300  Network.dyn_peer[14]  lookupTimeSig:vector  ETV
vector 8319  Network.dyn_peer[21]  lookupHopsSig:vector  ETV
vector 8320  Network.dyn_peer[21]  lookupStabilitySig:vector  ETV
vector 8321  Network.dyn_peer[21]  lookupTimeSig:vector  ETV
vector 8325  Network.dyn_peer[23]  lookupHopsSig:vector  ETV
vector 8326  Network.dyn_peer[23]  lookupStabilitySig:vector  ETV
vector 8327  Network.dyn_peer[23]  lookupTimeSig:vector  ETV
vector 8331  Network.dyn_peer[25]  lookupHopsSig:vector  ETV
vector 8332  Network.dyn_peer[25]  lookupStabilitySig:vector  ETV
vector 8333  Network.dyn_peer[25]  lookupTimeSig:vector  ETV
vector 8340  Network.dyn_peer[28]  lookupHopsSig:vector  ETV
vector 8341  Network.dyn_peer[28]  lookupStabilitySig:vector  ETV
vector 8342  Network.dyn_peer[28]  lookupTimeSig:vector  ETV
vector 8256  Network.dyn_peer[0]  lookupHopsSig:vector  ETV
vector 8257  Network.dyn_peer[0]  lookupStabilitySig:vector  ETV
vector 8258  Network.dyn_peer[0]  lookupTimeSig:vector  ETV
vector 8268  Network.dyn_peer[4]  lookupHopsSig:vector  ETV
vector 8269  Network.dyn_peer[4]  lookupStabilitySig:vector  ETV
vector 8270  Network.dyn_peer[4]  lookupTimeSig:vector  ETV
vector 8277  Network.dyn_peer[7]  lookupHopsSig:vector  ETV
vector 8278  Network.dyn_peer[7]  lookupStabilitySig:vector  ETV
vector 8279  Network.dyn_peer[7]  lookupTimeSig:vector  ETV
vector 8283  Network.dyn_peer[9]  lookupHopsSig:vector  ETV
vector 8284  Network.dyn_peer[9]  lookupStabilitySig:vector  ETV
vector 8285  Network.dyn_peer[9]  lookupTimeSig:vector  ETV
vector 8292  Network.dyn_peer[12]  lookupHopsSig:vector  ETV
vector 8293  Network.dyn_peer[12]  lookupStabilitySig:vector  ETV
vector 8294  Network.dyn_peer[12]  lookupTimeSig:vector  ETV
vector 8307  Network.dyn_peer[17]  lookupHopsSig:vector  ETV
vector 8308  Network.dyn_peer[17]  lookupStabilitySig:vector  ETV
vector 8309  Network.dyn_peer[17]  lookupTimeSig:vector  ETV
vector 8313  Network.dyn_peer[19]  lookupHopsSig:vector  ETV
vector 8314  Network.dyn_peer[19]  lookupStabilitySig:vector  ETV
vector 8315  Network.dyn_peer[19]  lookupTimeSig:vector  ETV
vector 8322  Network.dyn_peer[22]  lookupHopsSig:vector  ETV
vector 8323  Network.dyn_peer[22]  lookupStabilitySig:vector  ETV
vector 8324  Network.dyn_peer[22]  lookupTimeSig:vector  ETV
vector 8334  Network.dyn_peer[26]  lookupHopsSig:vector  ETV
vector 8335  Network.dyn_peer[26]  lookupStabilitySig:vector  ETV
vector 8336  Network.dyn_peer[26]  lookupTimeSig:vector  ETV
vector 8343  Network.dyn_peer[29]  lookupHopsSig:vector  ETV
vector 8344  Network.dyn_peer[29]  lookupStabilitySig:vector  ETV
vector 8345  Network.dyn_peer[29]  lookupTimeSig:vector  ETV
vector 8301  Network.dyn_peer[15]  lookupHopsSig:vector  ETV
vector 8302  Network.dyn_peer[15]  lookupStabilitySig:vector  ETV
vector 8303  Network.dyn_peer[15]  lookupTimeSig:vector  ETV
vector 8346  Network.dyn_peer[30]  lookupHopsSig:vector  ETV
vector 8347  Network.dyn_peer[30]  lookupStabilitySig:vector  ETV
vector 8348  Network.dyn_peer[30]  lookupTimeSig:vector  ETV
vector 8304  Network.dyn_peer[16]  lookupHopsSig:vector  ETV
vector 8305  Network.dyn_peer[16]  lookupStabilitySig:vector  ETV
vector 8306  Network.dyn_peer[16]  lookupTimeSig:vector  ETV
vector 8328  Network.dyn_peer[24]  lookupHopsSig:vector  ETV
vector 8329  Network.dyn_peer[24]  lookupStabilitySig:vector  ETV
vector 8330  Network.dyn_peer[24]  lookupTimeSig:vector  ETV
vector 8310  Network.dyn_peer[18]  lookupHopsSig:vector  ETV
vector 8311  Network.dyn_peer[18]  lookupStabilitySig:vector  ETV
vector 8312  Network.dyn_peer[18]  lookupTimeSig:vector  ETV
vector 8280  Network.dyn_peer[8]  lookupHopsSig:vector  ETV
vector 8281  Network.dyn_peer[8]  lookupStabilitySig:vector  ETV
vector 8282  Network.dyn_peer[8]  lookupTimeSig:vector  ETV
8256	222	20.20001	2
8256	865	21.20001	9
8256	1114	21.40207066902	1
8256	1635	21.81622336327	4
8256	1991	22.110783392065	6
8256	2519	22.517085256806	4
8256	3097	22.920055272967	5
8256	3487	23.220055272967	2
8256	3600	23.320452443123	1
8256	3894	23.620452443123	2
8256	4933	24.522585451155	8
8256	5368	24.927350033096	3
8256	5516	25.04630293768	3
8256	5795	25.329187298548	16
8256	5899	25.436186702137	4
8256	6112	25.555022634687	4
8256	6612	25.962005221641	4
8256	7120	26.467958277987	4
8256	7683	26.973141452622	4
8256	7699	26.998989061016	4
8256	8092	27.375057510448	3
8256	8395	27.578018143353	2
8256	8589	27.778018143353	1
8256	9240	28.2830753384	4
8256	9528	28.517147270968	4
8256	9803	28.692109103398	3
8256	10671	29.392219103398	8
8256	11058	29.792219103398	3
8256	11358	30.000413643404	3
8256	12974	31.376763485662	2
8256	13510	31.776763485662	3
8256	14011	32.178254385165	3
8256	14505	32.580169169668	4
8256	14507	32.583034563198	4
8256	14512	32.583134563198	3
8256	14801	32.883426659892	2
8256	14806	32.887057734842	2
8256	14809	32.888926432642	2
8256	14992	33.088054791688	1
8256	14996	33.089943655002	1
8256	15002	33.092448112897	1
8256	15326	33.392558112897	3
8256	16022	34.059632658579	0
8256	16702	34.659632658579	5
8256	16954	34.859742658579	3
8256	17552	35.359742658579	4
8256	18275	35.867425920062	4
8256	18627	36.079364416169	2
8256	19084	36.388715852837	2
8256	19091	36.392851366383	7
8256	19591	36.792961366383	4
8256	20046	37.092961366383	2
8256	20657	37.601657472023	4
8256	21442	38.309750334576	6
8256	23319	39.909860334576	17
8256	24028	40.509860334576	5
8256	24582	41.011302267879	4
8256	24855	41.213707351291	2
8256	25335	41.520891482138	4
8256	25377	41.530129314398	4
8256	26834	42.635846561643	11
8256	27301	43.026921648912	1
8256	27327	43.035846561643	3
8256	27583	43.244273065643	2
8256	28408	43.944273065643	6
8256	28838	44.346885247181	3
8256	29160	44.650690759543	2
8256	29623	44.95538744375	3
8256	30421	45.65538744375	6
8256	30690	45.860139579192	1
8256	30937	46.060249579192	2
8256	31480	46.560249579192	5
8256	32057	46.974565817672	3
8256	32441	47.276599605314	2
8256	33066	47.785094556591	4
8256	33913	48.2871544171	6
8256	34568	48.7871544171	5
8256	34802	49.000708794643	1
8256	35209	49.305877721842	2
8256	35272	49.353884371324	2
8256	35604	49.558423033422	2
8256	36507	50.258423033422	8
8256	36910	50.567618044363	2
8256	37240	50.775735374826	2
8256	38401	51.675735374826	11
8256	39250	52.380868033146	6
8256	39379	52.502854154021	4
8256	39999	53.005824554904	5
8256	40090	53.089221423977	6
8256	40411	53.370595763849	3
8256	40579	53.495268735839	3
8256	41037	53.896750600531	4
8256	42591	55.196750600531	13
8256	42849	55.404196585223	1
8256	43304	55.810362292241	4
8256	43721	56.210362292241	3
8256	43969	56.416232092887	2
8256	44282	56.674787316469	3
8256	44772	57.078656476258	4
8256	45033	57.281485184227	2
8256	45281	57.508248400027	8
8256	45286	57.516733561527	11
8256	45522	57.731667279237	1
8256	45759	57.939655582906	2
8256	46091	58.239655582906	3
8256	46333	58.447983638489	1
8256	47498	59.265320190319	8
8256	48379	59.965768119902	6
8256	50010	61.171430024264	11
8256	50835	61.880656431097	6
8256	50917	61.915465150592	6
8256	51318	62.215575150592	2
8256	51323	62.218394293862	2
8256	51615	62.490871567184	6
8256	51886	62.690981567184	2
8256	53561	63.990981567184	12
8256	53946	64.295617196303	5
8256	54031	64.396096573349	3
8256	54279	64.60106505339	4
8256	54869	65.103965445879	7
8256	54871	65.104282952205	6
8256	54884	65.107395266051	4
8256	55682	65.609350412728	6
8256	56599	66.209350412728	5
8256	57252	66.809769861269	5
8256	57406	66.949437834332	3
8256	57637	67.156272393777	1
8256	57926	67.417875687448	5
8256	58043	67.52384590213	1
8256	58662	68.12384590213	5
8256	58816	68.22395590213	1
8256	59828	69.02395590213	7
8256	60386	69.533621245439	4
8256	60599	69.737510248537	1
8256	61429	70.438640623924	7
8256	62647	71.538640623924	11
8256	62731	71.611253379094	2
8256	63403	72.219306429678	6
8256	63749	72.519306429678	2
8256	64383	72.953235056537	3
8256	64458	73.022703216005	5
8256	64821	73.262491329334	2
8256	65431	73.668648822644	4
8256	66223	74.268648822644	5
8256	67165	75.077785596469	8
8256	67553	75.385824576829	2
8256	68009	75.846415272191	3
8256	68074	75.92805485703	6
8256	68103	75.935897968651	0
8256	68276	76.135897968651	1
8256	69625	77.244746432484	9
8256	70214	77.744746432484	4
8256	70479	77.945384017972	1
8256	70941	78.349651391643	3
8256	71761	79.051451882324	8
8256	72366	79.479891035919	2
8256	73145	80.080001035919	7
8256	73636	80.480001035919	3
8256	74056	80.78605909018	2
8256	74761	81.375545866237	5
8256	74779	81.386810457973	5
8256	75219	81.781440459491	4
8256	75852	82.282412068303	6
8256	76181	82.582412068303	2
8256	76710	83.074654374812	1
8256	76716	83.082903447546	4
8256	77386	83.69750497548	5
8256	77727	83.99761497548	3
8256	78555	84.69761497548	7
8256	80010	85.87663757745	11
8256	80464	86.182332887194	3
8256	80926	86.589100691274	3
8256	82250	87.689210691274	12
8256	82845	88.189210691274	4
8256	83246	88.495562669135	2
8256	83713	88.901799895664	4
8256	84118	89.201799895664	2
8256	84896	89.752639996205	3
8256	85190	89.95977131622	2
8256	85890	90.55977131622	5
8256	86512	91.060000295411	4
8256	87031	91.462298235483	3
8256	87101	91.543524579541	6
8256	88252	92.445228129206	10
8256	88829	92.940291701698	2
8256	89444	93.442536329353	2
8256	89879	93.845925539099	4
8256	90821	94.645925539099	8
8256	91882	95.563031268515	8
8256	91898	95.565085280209	0
8256	92540	96.065085280209	5
8256	93356	96.672157752968	7
8256	93629	96.872157752968	1
8256	94205	97.375246882008	4
8256	94553	97.680958985819	2
8256	94611	97.745237807695	3
8256	94626	97.752479084329	2
8256	94763	97.853377542209	1
8256	94971	98.053377542209	1
8256	95334	98.353487542209	3
8256	96457	99.253487542209	8
8256	96841	99.554672048497	2
8256	97886	100.363718856904	9
8256	98323	100.763718856904	4
8256	98682	101.071222051647	2
8256	99094	101.371332051647	3
8256	99428	101.671332051647	2
8256	99806	101.996231204011	2
8256	100023	102.200573419516	1
8256	100388	102.50890401033	3
8256	101629	103.50890401033	9
8256	102171	103.918197616699	3
8256	102463	104.147942318908	4
8256	102965	104.553774724221	3
8256	103047	104.626276200156	7
8256	103257	104.793724618688	4
8256	103330	104.869829829409	2
8256	103559	105.078407720713	2
8256	103918	105.378407720713	3
8256	104342	105.699594694479	1
8256	104881	106.104901038499	3
8256	104988	106.18591740067	9
8256	105031	106.208357364162	1
8256	105445	106.513389383728	3
8256	106357	107.313389383728	8
8256	106966	107.718340524154	3
8256	107001	107.753585418017	1
8256	107155	107.857997975561	4
8256	107177	107.865193631616	0
8256	107504	108.065193631616	1
8256	108740	109.073730003914	9
8256	109047	109.27839718511	2
8256	109506	109.67839718511	3
8256	109720	109.884925889793	1
8256	109986	110.094723135592	1
8256	110885	110.796648813028	7
8256	111689	111.396648813028	5
8256	112332	111.897561686528	4
8256	112707	112.199480455794	3
8256	112911	112.375456002979	6
8256	112946	112.392554450536	3
8256	113138	112.504243760354	2
8256	113454	112.710300721402	2
8256	113645	112.897315261951	4
8256	113779	112.998992584055	1
8256	115490	114.384517877785	10
8256	115762	114.584517877785	1
8256	116217	114.886779232738	1
8256	117301	115.922750880374	3
8256	117463	116.137070738852	1
8256	117766	116.486779232738	16
8256	117783	116.499973031164	2
8256	118146	116.806836924204	3
8256	118718	117.306836924204	4
8256	119657	118.016945022518	5
8256	119929	118.223616629942	1
8256	120003	118.313760602204	10
8256	120137	118.417845626739	1
8256	120359	118.617845626739	1
8256	120629	118.826719891536	1
8256	121108	119.236539656664	5
8256	121991	119.936539656664	6
8256	122258	120.15304388973	1
8256	122771	120.555754439831	4
8256	123097	120.777885995711	5
8256	123220	120.859774424212	2
8256	123237	120.864749512322	2
8256	123713	121.164859512322	3
8256	124804	122.036770028185	3
8256	126374	123.245744554229	13
8256	126421	123.264859512322	21
8256	126547	123.381643080829	5
8256	127285	123.987664793908	6
8256	128609	125.187664793908	11
8256	129145	125.591756700923	3
8256	129164	125.611211783438	2
8256	129445	125.793330669656	1
8256	130497	126.693440669656	10
8256	130772	126.899099326061	1
8256	131447	127.403762902921	4
8256	132107	128.024568493489	5
8256	132667	128.542478342912	6
8256	133574	129.343600271068	10
8256	133871	129.643600271068	2
8256	134129	129.856057783104	1
8256	134661	130.259633776641	5
8256	136117	131.459633776641	12
8256	136476	131.76755587971	2
8256	136775	131.978360769421	1
8256	136816	132.01246446942	1
8256	137021	132.182741277926	1
8256	137284	132.384670609436	1
8256	137487	132.520430135897	5
8256	137796	132.729476987021	2
8256	139403	134.429476987021	17
8256	139467	134.536189573519	3
8256	139705	134.832651244492	3
8256	139800	134.939632462966	3
8256	139823	134.965852529591	1
8257	222	20.20001	0.75
8257	865	21.20001	-0.125
8257	1114	21.40207066902	0.875
8257	1635	21.81622336327	0.5
8257	1991	22.110783392065	0.25
8257	2519	22.517085256806	0.5
8257	3097	22.920055272967	0.375
8257	3487	23.220055272967	0.75
8257	3600	23.320452443123	0.875
8257	3894	23.620452443123	0.75
8257	4933	24.522585451155	0
8257	5368	24.927350033096	0.625
8257	5516	25.04630293768	0.625
8257	5795	25.329187298548	-1
8257	5899	25.436186702137	0.5
8257	6112	25.555022634687	0.5
8257	6612	25.962005221641	0.5
8257	7120	26.467958277987	0.5
8257	7683	26.973141452622	0.5
8257	7699	26.998989061016	0.5
8257	8092	27.375057510448	0.625
8257	8395	27.578018143353	0.75
8257	8589	27.778018143353	0.875
8257	9240	28.2830753384	0.5
8257	9528	28.517147270968	0.5
8257	9803	28.692109103398	0.625
8257	10671	29.392219103398	0
8257	11058	29.792219103398	0.625
8257	11358	30.000413643404	0.625
8257	12974	31.376763485662	0.75
8257	13510	31.776763485662	0.625
8257	14011	32.178254385165	0.625
8257	14505	32.580169169668	0.5
8257	14507	32.583034563198	0.5
8257	14512	32.583134563198	0.625
8257	14801	32.883426659892	0.75
8257	14806	32.887057734842	0.75
8257	14809	32.888926432642	0.75
8257	14992	33.088054791688	0.875
8257	14996	33.089943655002	0.875
8257	15002	33.092448112897	0.875
8257	15326	33.392558112897	0.625
8257	16022	34.059632658579	1
8257	16702	34.659632658579	0.375
8257	16954	34.859742658579	0.625
8257	17552	35.359742658579	0.5
8257	18275	35.867425920062	0.5
8257	18627	36.079364416169	0.75
8257	19084	36.388715852837	0.75
8257	19091	36.392851366383	0.125
8257	19591	36.792961366383	0.5
8257	20046	37.092961366383	0.75
8257	20657	37.601657472023	0.5
8257	21442	38.309750334576	0.25
8257	23319	39.909860334576	-1.125
8257	24028	40.509860334576	0.375
8257	24582	41.011302267879	0.5
8257	24855	41.213707351291	0.75
8257	25335	41.520891482138	0.5
8257	25377	41.530129314398	0.5
8257	26834	42.635846561643	-0.375
8257	27301	43.026921648912	0.875
8257	27327	43.035846561643	0.625
8257	27583	43.244273065643	0.75
8257	28408	43.944273065643	0.25
8257	28838	44.346885247181	0.625
8257	29160	44.650690759543	0.75
8257	29623	44.95538744375	0.625
8257	30421	45.65538744375	0.25
8257	30690	45.860139579192	0.875
8257	30937	46.060249579192	0.75
8257	31480	46.560249579192	0.375
8257	32057	46.974565817672	0.625
8257	32441	47.276599605314	0.75
8257	33066	47.785094556591	0.5
8257	33913	48.2871544171	0.25
8257	34568	48.7871544171	0.375
8257	34802	49.000708794643	0.875
8257	35209	49.305877721842	0.75
8257	35272	49.353884371324	0.75
8257	35604	49.558423033422	0.75
8257	36507	50.258423033422	0
8257	36910	50.567618044363	0.75
8257	37240	50.775735374826	0.75
8257	38401	51.675735374826	-0.375
8257	39250	52.380868033146	0.25
8257	39379	52.502854154021	0.5
8257	39999	53.005824554904	0.375
8257	40090	53.089221423977	0.25
8257	40411	53.370595763849	0.625
8257	40579	53.495268735839	0.625
8257	41037	53.896750600531	0.5
8257	42591	55.196750600531	-0.625
8257	42849	55.404196585223	0.875
8257	43304	55.810362292241	0.5
8257	43721	56.210362292241	0.625
8257	43969	56.416232092887	0.75
8257	44282	56.674787316469	0.625
8257	44772	57.078656476258	0.5
8257	45033	57.281485184227	0.75
8257	45281	57.508248400027	0
8257	45286	57.516733561527	-0.375
8257	45522	57.731667279237	0.875
8257	45759	57.939655582906	0.75
8257	46091	58.239655582906	0.625
8257	46333	58.447983638489	0.875
8257	47498	59.265320190319	0
8257	48379	59.965768119902	0.25
8257	50010	61.171430024264	-0.375
8257	50835	61.880656431097	0.25
8257	50917	61.915465150592	0.25
8257	51318	62.215575150592	0.75
8257	51323	62.218394293862	0.75
8257	51615	62.490871567184	0.25
8257	51886	62.690981567184	0.75
8257	53561	63.990981567184	-0.5
8257	53946	64.295617196303	0.375
8257	54031	64.396096573349	0.625
8257	54279	64.60106505339	0.5
8257	54869	65.103965445879	0.125
8257	54871	65.104282952205	0.25
8257	54884	65.107395266051	0.5
8257	55682	65.609350412728	0.25
8257	56599	66.209350412728	0.375
8257	57252	66.809769861269	0.375
8257	57406	66.949437834332	0.625
8257	57637	67.156272393777	0.875
8257	57926	67.417875687448	0.375
8257	58043	67.52384590213	0.875
8257	58662	68.12384590213	0.375
8257	58816	68.22395590213	0.875
8257	59828	69.02395590213	0.125
8257	60386	69.533621245439	0.5
8257	60599	69.737510248537	0.875
8257	61429	70.438640623924	0.125
8257	62647	71.538640623924	-0.375
8257	62731	71.611253379094	0.75
8257	63403	72.219306429678	0.25
8257	63749	72.519306429678	0.75
8257	64383	72.953235056537	0.625
8257	64458	73.022703216005	0.375
8257	64821	73.262491329334	0.75
8257	65431	73.668648822644	0.5
8257	66223	74.268648822644	0.375
8257	67165	75.077785596469	0
8257	67553	75.385824576829	0.75
8257	68009	75.846415272191	0.625
8257	68074	75.92805485703	0.25
8257	68103	75.935897968651	1
8257	68276	76.135897968651	0.875
8257	69625	77.244746432484	-0.125
8257	70214	77.744746432484	0.5
8257	70479	77.945384017972	0.875
8257	70941	78.349651391643	0.625
8257	71761	79.051451882324	0
8257	72366	79.479891035919	0.75
8257	73145	80.080001035919	0.125
8257	73636	80.480001035919	0.625
8257	74056	80.78605909018	0.75
8257	74761	81.375545866237	0.375
8257	74779	81.386810457973	0.375
8257	75219	81.781440459491	0.5
8257	75852	82.282412068303	0.25
8257	76181	82.582412068303	0.75
8257	76710	83.074654374812	0.875
8257	76716	83.082903447546	0.5
8257	77386	83.69750497548	0.375
8257	77727	83.99761497548	0.625
8257	78555	84.69761497548	0.125
8257	80010	85.87663757745	-0.375
8257	80464	86.182332887194	0.625
8257	80926	86.589100691274	0.625
8257	82250	87.689210691274	-0.5
8257	82845	88.189210691274	0.5
8257	83246	88.495562669135	0.75
8257	83713	88.901799895664	0.5
8257	84118	89.201799895664	0.75
8257	84896	89.752639996205	0.625
8257	85190	89.95977131622	0.75
8257	85890	90.55977131622	0.375
8257	86512	91.060000295411	0.5
8257	87031	91.462298235483	0.625
8257	87101	91.543524579541	0.25
8257	88252	92.445228129206	-0.25
8257	88829	92.940291701698	0.75
8257	89444	93.442536329353	0.75
8257	89879	93.845925539099	0.5
8257	90821	94.645925539099	0
8257	91882	95.563031268515	0
8257	91898	95.565085280209	1
8257	92540	96.065085280209	0.375
8257	93356	96.672157752968	0.125
8257	93629	96.872157752968	0.875
8257	94205	97.375246882008	0.5
8257	94553	97.680958985819	0.75
8257	94611	97.745237807695	0.625
8257	94626	97.752479084329	0.75
8257	94763	97.853377542209	0.875
8257	94971	98.053377542209	0.875
8257	95334	98.353487542209	0.625
8257	96457	99.253487542209	0
8257	96841	99.554672048497	0.75
8257	97886	100.363718856904	-0.125
8257	98323	100.763718856904	0.5
8257	98682	101.071222051647	0.75
8257	99094	101.371332051647	0.625
8257	99428	101.671332051647	0.75
8257	99806	101.996231204011	0.75
8257	100023	102.200573419516	0.875
8257	100388	102.50890401033	0.625
8257	101629	103.50890401033	-0.125
8257	102171	103.918197616699	0.625
8257	102463	104.147942318908	0.5
8257	102965	104.553774724221	0.625
8257	103047	104.626276200156	0.125
8257	103257	104.793724618688	0.5
8257	103330	104.869829829409	0.75
8257	103559	105.078407720713	0.75
8257	103918	105.378407720713	0.625
8257	104342	105.699594694479	0.875
8257	104881	106.104901038499	0.625
8257	104988	106.18591740067	-0.125
8257	105031	106.208357364162	0.875
8257	105445	106.513389383728	0.625
8257	106357	107.313389383728	0
8257	106966	107.718340524154	0.625
8257	107001	107.753585418017	0.875
8257	107155	107.857997975561	0.5
8257	107177	107.865193631616	1
8257	107504	108.065193631616	0.875
8257	108740	109.073730003914	-0.125
8257	109047	109.27839718511	0.75
8257	109506	109.67839718511	0.625
8257	109720	109.884925889793	0.875
8257	109986	110.094723135592	0.875
8257	110885	110.796648813028	0.125
8257	111689	111.396648813028	0.375
8257	112332	111.897561686528	0.5
8257	112707	112.199480455794	0.625
8257	112911	112.375456002979	0.25
8257	112946	112.392554450536	0.625
8257	113138	112.504243760354	0.75
8257	113454	112.710300721402	0.75
8257	113645	112.897315261951	0.5
8257	113779	112.998992584055	0.875
8257	115490	114.384517877785	-0.25
8257	115762	114.584517877785	0.875
8257	116217	114.886779232738	0.875
8257	117301	115.922750880374	0.625
8257	117463	116.137070738852	0.875
8257	117766	116.486779232738	-1
8257	117783	116.499973031164	0.75
8257	118146	116.806836924204	0.625
8257	118718	117.306836924204	0.5
8257	119657	118.016945022518	0.375
8257	119929	118.223616629942	0.875
8257	120003	118.313760602204	-0.25
8257	120137	118.417845626739	0.875
8257	120359	118.617845626739	0.875
8257	120629	118.826719891536	0.875
8257	121108	119.236539656664	0.375
8257	121991	119.936539656664	0.25
8257	122258	120.15304388973	0.875
8257	122771	120.555754439831	0.5
8257	123097	120.777885995711	0.375
8257	123220	120.859774424212	0.75
8257	123237	120.864749512322	0.75
8257	123713	121.164859512322	0.625
8257	124804	122.036770028185	0.625
8257	126374	123.245744554229	-0.625
8257	126421	123.264859512322	-1.625
8257	126547	123.381643080829	0.375
8257	127285	123.987664793908	0.25
8257	128609	125.187664793908	-0.375
8257	129145	125.591756700923	0.625
8257	129164	125.611211783438	0.75
8257	129445	125.793330669656	0.875
8257	130497	126.693440669656	-0.25
8257	130772	126.899099326061	0.875
8257	131447	127.403762902921	0.5
8257	132107	128.024568493489	0.375
8257	132667	128.542478342912	0.25
8257	133574	129.343600271068	-0.25
8257	133871	129.643600271068	0.75
8257	134129	129.856057783104	0.875
8257	134661	130.259633776641	0.375
8257	136117	131.459633776641	-0.5
8257	136476	131.76755587971	0.75
8257	136775	131.978360769421	0.875
8257	136816	132.01246446942	0.875
8257	137021	132.182741277926	0.875
8257	137284	132.384670609436	0.875
8257	137487	132.520430135897	0.375
8257	137796	132.729476987021	0.75
8257	139403	134.429476987021	-1.125
8257	139467	134.536189573519	0.625
8257	139705	134.832651244492	0.625
8257	139800	134.939632462966	0.625
8257	139823	134.965852529591	0.875
8258	222	20.20001	0.2
8258	865	21.20001	1
8258	1114	21.40207066902	0.2
8258	1635	21.81622336327	0.5
8258	1991	22.110783392065	0.7
8258	2519	22.517085256806	0.4
8258	3097	22.920055272967	0.4
8258	3487	23.220055272967	0.3
8258	3600	23.320452443123	0.1
8258	3894	23.620452443123	0.3
8258	4933	24.522585451155	0.9
8258	5368	24.927350033096	0.4
8258	5516	25.04630293768	0.4
8258	5795	25.329187298548	1.5
8258	5899	25.436186702137	0.5
8258	6112	25.555022634687	0.5
8258	6612	25.962005221641	0.4
8258	7120	26.467958277987	0.5
8258	7683	26.973141452622	0.5
8258	7699	26.998989061016	0.5
8258	8092	27.375057510448	0.4
8258	8395	27.578018143353	0.2
8258	8589	27.778018143353	0.2
8258	9240	28.2830753384	0.5
8258	9528	28.517147270968	0.5
8258	9803	28.692109103398	0.4
8258	10671	29.392219103398	0.7
8258	11058	29.792219103398	0.4
8258	11358	30.000413643404	0.2
8258	12974	31.376763485662	0.2
8258	13510	31.776763485662	0.4
8258	14011	32.178254385165	0.4
8258	14505	32.580169169668	0.4
8258	14507	32.583034563198	0.4
8258	14512	32.583134563198	0.4
8258	14801	32.883426659892	0.3
8258	14806	32.887057734842	0.3
8258	14809	32.888926432642	0.3
8258	14992	33.088054791688	0.2
8258	14996	33.089943655002	0.2
8258	15002	33.092448112897	0.2
8258	15326	33.392558112897	0.3
8258	16022	34.059632658579	0
8258	16702	34.659632658579	0.6
8258	16954	34.859742658579	0.2
8258	17552	35.359742658579	0.5
8258	18275	35.867425920062	0.5
8258	18627	36.079364416169	0.2
8258	19084	36.388715852837	0.3
8258	19091	36.392851366383	0.8
8258	19591	36.792961366383	0.4
8258	20046	37.092961366383	0.3
8258	20657	37.601657472023	0.5
8258	21442	38.309750334576	0.7
8258	23319	39.909860334576	1.6
8258	24028	40.509860334576	0.6
8258	24582	41.011302267879	0.5
8258	24855	41.213707351291	0.3
8258	25335	41.520891482138	0.5
8258	25377	41.530129314398	0.5
8258	26834	42.635846561643	1.1
8258	27301	43.026921648912	0.2
8258	27327	43.035846561643	0.4
8258	27583	43.244273065643	0.2
8258	28408	43.944273065643	0.7
8258	28838	44.346885247181	0.4
8258	29160	44.650690759543	0.3
8258	29623	44.95538744375	0.3
8258	30421	45.65538744375	0.7
8258	30690	45.860139579192	0.2
8258	30937	46.060249579192	0.2
8258	31480	46.560249579192	0.5
8258	32057	46.974565817672	0.4
8258	32441	47.276599605314	0.3
8258	33066	47.785094556591	0.5
8258	33913	48.2871544171	0.5
8258	34568	48.7871544171	0.5
8258	34802	49.000708794643	0.2
8258	35209	49.305877721842	0.3
8258	35272	49.353884371324	0.3
8258	35604	49.558423033422	0.2
8258	36507	50.258423033422	0.7
8258	36910	50.567618044363	0.3
8258	37240	50.775735374826	0.2
8258	38401	51.675735374826	0.9
8258	39250	52.380868033146	0.7
8258	39379	52.502854154021	0.5
8258	39999	53.005824554904	0.5
8258	40090	53.089221423977	0.7
8258	40411	53.370595763849	0.4
8258	40579	53.495268735839	0.4
8258	41037	53.896750600531	0.4
8258	42591	55.196750600531	1.3
8258	42849	55.404196585223	0.2
8258	43304	55.810362292241	0.4
8258	43721	56.210362292241	0.4
8258	43969	56.416232092887	0.2
8258	44282	56.674787316469	0.4
8258	44772	57.078656476258	0.4
8258	45033	57.281485184227	0.2
8258	45281	57.508248400027	0.8
8258	45286	57.516733561527	1.1
8258	45522	57.731667279237	0.2
8258	45759	57.939655582906	0.2
8258	46091	58.239655582906	0.3
8258	46333	58.447983638489	0.2
8258	47498	59.265320190319	0.8
8258	48379	59.965768119902	0.7
8258	50010	61.171430024264	1.2
8258	50835	61.880656431097	0.7
8258	50917	61.915465150592	0.7
8258	51318	62.215575150592	0.3
8258	51323	62.218394293862	0.3
8258	51615	62.490871567184	0.6
8258	51886	62.690981567184	0.2
8258	53561	63.990981567184	1.3
8258	53946	64.295617196303	0.5
8258	54031	64.396096573349	0.4
8258	54279	64.60106505339	0.5
8258	54869	65.103965445879	0.8
8258	54871	65.104282952205	0.7
8258	54884	65.107395266051	0.5
8258	55682	65.609350412728	0.5
8258	56599	66.209350412728	0.6
8258	57252	66.809769861269	0.6
8258	57406	66.949437834332	0.4
8258	57637	67.156272393777	0.2
8258	57926	67.417875687448	0.6
8258	58043	67.52384590213	0.1
8258	58662	68.12384590213	0.6
8258	58816	68.22395590213	0.1
8258	59828	69.02395590213	0.8
8258	60386	69.533621245439	0.5
8258	60599	69.737510248537	0.2
8258	61429	70.438640623924	0.7
8258	62647	71.538640623924	1.1
8258	62731	71.611253379094	0.3
8258	63403	72.219306429678	0.6
8258	63749	72.519306429678	0.3
8258	64383	72.953235056537	0.4
8258	64458	73.022703216005	0.5
8258	64821	73.262491329334	0.3
8258	65431	73.668648822644	0.4
8258	66223	74.268648822644	0.6
8258	67165	75.077785596469	0.8
8258	67553	75.385824576829	0.3
8258	68009	75.846415272191	0.4
8258	68074	75.92805485703	0.7
8258	68103	75.935897968651	0
8258	68276	76.135897968651	0.2
8258	69625	77.244746432484	0.8
8258	70214	77.744746432484	0.5
8258	70479	77.945384017972	0.2
8258	70941	78.349651391643	0.4
8258	71761	79.051451882324	0.7
8258	72366	79.479891035919	0.3
8258	73145	80.080001035919	0.6
8258	73636	80.480001035919	0.4
8258	74056	80.78605909018	0.3
8258	74761	81.375545866237	0.6
8258	74779	81.386810457973	0.6
8258	75219	81.781440459491	0.4
8258	75852	82.282412068303	0.5
8258	76181	82.582412068303	0.3