file 907806 1369674159                                          
version 2
run Stability-norelink-98-20130525-23:20:33-22103
attr configname Stability-norelink
attr datetime 20130525-23:20:33
attr experiment Stability
attr inifile omnetpp.ini
attr iterationvars $0=1e-3
attr iterationvars2 "$0=1e-3, $repetition=8"
attr measurement $0=1e-3
attr network Network
attr processid 22103
attr repetition 8
attr replication #8
attr resultdir results
attr runnumber 98
attr seedset 98
vector 9423  Network.dyn_peer[5]  lookupHopsSig:vector  ETV
9423	147533 8591 45 135557 20.000006 132.680081714974 292 0 18 1215 8145
vector 9424  Network.dyn_peer[5]  lookupStabilitySig:vector  ETV
9424	156124 9599 45 135557 20.000006 132.680081714974 292 -1.25 1 140.19444443285 115.61844134184
vector 9425  Network.dyn_peer[5]  lookupTimeSig:vector  ETV
9425	165723 9120 45 135557 20.000006 132.680081714974 292 0 1.6 134.3 86.45
vector 9432  Network.dyn_peer[8]  lookupHopsSig:vector  ETV
9432	233909 8491 58 135609 20.000009 132.719010223381 290 0 20 1213 7591
vector 9433  Network.dyn_peer[8]  lookupStabilitySig:vector  ETV
9433	242400 9439 58 135609 20.000009 132.719010223381 290 -1.5 1 138.51388886571 105.52565583403
vector 9434  Network.dyn_peer[8]  lookupTimeSig:vector  ETV
9434	251839 9046 58 135609 20.000009 132.719010223381 290 0 1.8 135.9 83.93
vector 9447  Network.dyn_peer[13]  lookupHopsSig:vector  ETV
9447	375554 8263 77 136172 20.000014 133.926020047249 282 0 14 1236 8098
vector 9448  Network.dyn_peer[13]  lookupStabilitySig:vector  ETV
9448	383817 9218 77 136172 20.000014 133.926020047249 282 -0.75 1 127.54166665673 99.585069431199
vector 9449  Network.dyn_peer[13]  lookupTimeSig:vector  ETV
9449	393035 8797 77 136172 20.000014 133.926020047249 282 0 1.4 137.5 89.47
vector 9408  Network.dyn_peer[0]  lookupHopsSig:vector  ETV
9408	6399 9355 136 136095 20.100001 133.599621097067 318 0 24 1328 8702
vector 9409  Network.dyn_peer[0]  lookupStabilitySig:vector  ETV
9409	15754 10422 136 136095 20.100001 133.599621097067 318 -2 1 152.08333332837 122.06983024066
vector 9410  Network.dyn_peer[0]  lookupTimeSig:vector  ETV
9410	26176 9955 136 136095 20.100001 133.599621097067 318 0 2.1 150.2 96.82
vector 9411  Network.dyn_peer[1]  lookupHopsSig:vector  ETV
9411	36131 8271 141 135016 20.100002 132.170086311272 282 0 17 1194 7676
vector 9412  Network.dyn_peer[1]  lookupStabilitySig:vector  ETV
9412	44402 9202 141 135016 20.100002 132.170086311272 282 -1.125 1 132.75 103.4375
vector 9413  Network.dyn_peer[1]  lookupTimeSig:vector  ETV
9413	53604 8789 141 135016 20.100002 132.170086311272 282 0 1.7 133.7 85.35
vector 9414  Network.dyn_peer[2]  lookupHopsSig:vector  ETV
9414	62393 9009 146 135592 20.100003 132.70843588161 307 0 21 1321 8585
vector 9415  Network.dyn_peer[2]  lookupStabilitySig:vector  ETV
9415	71402 9964 146 135592 20.100003 132.70843588161 307 -1.625 1 141.875 110.890625
vector 9416  Network.dyn_peer[2]  lookupTimeSig:vector  ETV
9416	81366 9588 146 135592 20.100003 132.70843588161 307 0 2 146.9 93.89
vector 9417  Network.dyn_peer[3]  lookupHopsSig:vector  ETV
9417	90954 9246 151 135325 20.100004 132.454815699954 314 0 14 1182 6894
vector 9418  Network.dyn_peer[3]  lookupStabilitySig:vector  ETV
9418	100200 10240 151 135325 20.100004 132.454815699954 314 -0.75 1 166.25 126.21875
vector 9419  Network.dyn_peer[3]  lookupTimeSig:vector  ETV
9419	110440 9827 151 135325 20.100004 132.454815699954 314 0 1.4 134.3 78.39
vector 9435  Network.dyn_peer[9]  lookupHopsSig:vector  ETV
9435	260885 9029 161 135532 20.10001 132.66631017381 307 0 28 1269 8377
vector 9436  Network.dyn_peer[9]  lookupStabilitySig:vector  ETV
9436	269914 9998 161 135532 20.10001 132.66631017381 307 -2.5 1 148.375 120.640625
vector 9437  Network.dyn_peer[9]  lookupTimeSig:vector  ETV
9437	279912 9602 161 135532 20.10001 132.66631017381 307 0 2.7 141.9 92.09
vector 9444  Network.dyn_peer[12]  lookupHopsSig:vector  ETV
9444	347024 8974 168 136119 20.100013 133.613561325571 306 0 22 1298 8720
vector 9445  Network.dyn_peer[12]  lookupStabilitySig:vector  ETV
9445	355998 10015 168 136119 20.100013 133.613561325571 306 -1.75 1 143.75 117.75
vector 9446  Network.dyn_peer[12]  lookupTimeSig:vector  ETV
9446	366013 9541 168 136119 20.100013 133.613561325571 306 0 2.2 145.6 96.14
vector 9459  Network.dyn_peer[17]  lookupHopsSig:vector  ETV
9459	485502 8785 177 135714 20.100018 132.876163157858 299 0 16 1260 7754
vector 9460  Network.dyn_peer[17]  lookupStabilitySig:vector  ETV
9460	494287 9793 177 135714 20.100018 132.876163157858 299 -1 1 141.65277774632 105.31423608131
vector 9461  Network.dyn_peer[17]  lookupTimeSig:vector  ETV
9461	504080 9348 177 135714 20.100018 132.876163157858 299 0 1.5 140.9 86.77
vector 9468  Network.dyn_peer[20]  lookupHopsSig:vector  ETV
9468	569884 8653 184 134986 20.100021 132.151527608452 294 0 15 1154 6892
vector 9469  Network.dyn_peer[20]  lookupStabilitySig:vector  ETV
9469	578537 9699 184 134986 20.100021 132.151527608452 294 -0.875 1 150.02777770162 113.46759251533
vector 9470  Network.dyn_peer[20]  lookupTimeSig:vector  ETV
9470	588236 9206 184 134986 20.100021 132.151527608452 294 0 1.4 130.1 77.09
vector 9477  Network.dyn_peer[23]  lookupHopsSig:vector  ETV
9477	656367 8547 191 135262 20.100024 132.39460857773 291 0 19 1147 7075
vector 9478  Network.dyn_peer[23]  lookupStabilitySig:vector  ETV
9478	664914 9573 191 135262 20.100024 132.39460857773 291 -1.375 1 147.87777774036 115.09109564059
vector 9479  Network.dyn_peer[23]  lookupTimeSig:vector  ETV
9479	674487 9103 191 135262 20.100024 132.39460857773 291 0 1.8 128.6 77.9
vector 9486  Network.dyn_peer[26]  lookupHopsSig:vector  ETV
9486	737752 8954 198 135809 20.100027 132.995767212712 304 0 13 1212 7226
vector 9487  Network.dyn_peer[26]  lookupStabilitySig:vector  ETV
9487	746706 9985 198 135809 20.100027 132.995767212712 304 -0.625 1 152.59722221643 114.03182869598
vector 9488  Network.dyn_peer[26]  lookupTimeSig:vector  ETV
9488	756691 9522 198 135809 20.100027 132.995767212712 304 0 1.4 137.3 81.59
vector 9489  Network.dyn_peer[27]  lookupHopsSig:vector  ETV
9489	766213 8962 203 135090 20.100028 132.21177866552 305 0 16 1309 8009
vector 9490  Network.dyn_peer[27]  lookupStabilitySig:vector  ETV
9490	775175 9976 203 135090 20.100028 132.21177866552 305 -1 1 141.375 102.890625
vector 9491  Network.dyn_peer[27]  lookupTimeSig:vector  ETV
9491	785151 9542 203 135090 20.100028 132.21177866552 305 0 1.6 145.9 89.75
vector 9420  Network.dyn_peer[4]  lookupHopsSig:vector  ETV
9420	120267 8580 219 135365 20.200005 132.48151301448 292 0 19 1331 9109
vector 9421  Network.dyn_peer[4]  lookupStabilitySig:vector  ETV
9421	128847 9563 219 135365 20.200005 132.48151301448 292 -1.375 1 125.65277777612 101.62056326903
vector 9422  Network.dyn_peer[4]  lookupTimeSig:vector  ETV
9422	138410 9123 219 135365 20.200005 132.48151301448 292 0 1.7 146.7 97.25
vector 9438  Network.dyn_peer[10]  lookupHopsSig:vector  ETV
9438	289514 9128 230 135881 20.200011 133.105079560886 311 0 18 1227 7653
vector 9439  Network.dyn_peer[10]  lookupStabilitySig:vector  ETV
9439	298642 10176 230 135881 20.200011 133.105079560886 311 -1.25 1 157.80555550754 124.03510797208
vector 9440  Network.dyn_peer[10]  lookupTimeSig:vector  ETV
9440	308818 9704 230 135881 20.200011 133.105079560886 311 0 1.7 138.6 84.88
vector 9471  Network.dyn_peer[21]  lookupHopsSig:vector  ETV
9471	597442 9015 244 135638 20.200022 132.768079684447 306 0 20 1265 8189
vector 9472  Network.dyn_peer[21]  lookupStabilitySig:vector  ETV
9472	606457 10022 244 135638 20.200022 132.768079684447 306 -1.5 1 147.97222220153 117.83526231772
vector 9473  Network.dyn_peer[21]  lookupTimeSig:vector  ETV
9473	616479 9583 244 135638 20.200022 132.768079684447 306 0 1.8 140.8 89.28
vector 9480  Network.dyn_peer[24]  lookupHopsSig:vector  ETV
9480	683590 8197 250 134959 20.200025 132.11187766552 279 0 22 1265 8889
vector 9481  Network.dyn_peer[24]  lookupStabilitySig:vector  ETV
9481	691787 9110 250 134959 20.200025 132.11187766552 279 -1.75 1 120.98611107469 101.75135027185
vector 9482  Network.dyn_peer[24]  lookupTimeSig:vector  ETV
9482	700897 8724 250 134959 20.200025 132.11187766552 279 0 2 139.6 95.7
vector 9483  Network.dyn_peer[25]  lookupHopsSig:vector  ETV
9483	709621 8852 255 134692 20.200026 131.898025624763 301 0 16 1226 7474
vector 9484  Network.dyn_peer[25]  lookupStabilitySig:vector  ETV
9484	718473 9857 255 134692 20.200026 131.898025624763 301 -1 1 147.8749999702 111.38368052906
vector 9485  Network.dyn_peer[25]  lookupTimeSig:vector  ETV
9485	728330 9422 255 134692 20.200026 131.898025624763 301 0 1.6 137.6 82.92
vector 9492  Network.dyn_peer[28]  lookupHopsSig:vector  ETV
9492	794693 9277 262 136161 20.200029 133.826116107615 315 0 19 1270 8056
vector 9493  Network.dyn_peer[28]  lookupStabilitySig:vector  ETV
9493	803970 10293 262 136161 20.200029 133.826116107615 315 -1.375 1 156.25 123.375
vector 9494  Network.dyn_peer[28]  lookupTimeSig:vector  ETV
9494	814263 9875 262 136161 20.200029 133.826116107615 315 0 1.6 142.3 86.13
vector 9426  Network.dyn_peer[6]  lookupHopsSig:vector  ETV
9426	174843 9460 283 135206 20.300007 132.362947172631 323 0 14 1170 6286
vector 9427  Network.dyn_peer[6]  lookupStabilitySig:vector  ETV
9427	184303 10556 283 135206 20.300007 132.362947172631 323 -0.75 1 176.81944441795 128.77565584065
vector 9428  Network.dyn_peer[6]  lookupTimeSig:vector  ETV
9428	194859 10073 283 135206 20.300007 132.362947172631 323 0 1.3 134.6 73.76
vector 9429  Network.dyn_peer[7]  lookupHopsSig:vector  ETV
9429	204932 9117 288 134886 20.300008 132.066595267575 310 0 17 1156 6786
vector 9430  Network.dyn_peer[7]  lookupStabilitySig:vector  ETV
9430	214049 10161 288 134886 20.300008 132.066595267575 310 -1.125 1 165.66666662693 127.20061724348
vector 9431  Network.dyn_peer[7]  lookupTimeSig:vector  ETV
9431	224210 9699 288 134886 20.300008 132.066595267575 310 0 1.6 131.3 75.85
vector 9453  Network.dyn_peer[15]  lookupHopsSig:vector  ETV
9453	430352 7978 299 135979 20.300016 133.303187954478 272 0 16 1204 7726
vector 9454  Network.dyn_peer[15]  lookupStabilitySig:vector  ETV
9454	438330 8858 299 135979 20.300016 133.303187954478 272 -1 1 121.77777773142 91.513503102609
vector 9455  Network.dyn_peer[15]  lookupTimeSig:vector  ETV
9455	447188 8486 299 135979 20.300016 133.303187954478 272 0.1 1.6 133.2 84.64
vector 9456  Network.dyn_peer[16]  lookupHopsSig:vector  ETV
9456	455674 9376 304 135135 20.300017 132.281402436124 319 0 17 1246 7616
vector 9457  Network.dyn_peer[16]  lookupStabilitySig:vector  ETV
9457	465050 10467 304 135135 20.300017 132.281402436124 319 -1.125 1 163.34722220898 126.61246140283
vector 9458  Network.dyn_peer[16]  lookupTimeSig:vector  ETV
9458	475517 9985 304 135135 20.300017 132.281402436124 319 0 1.7 141.8 85.5
vector 9462  Network.dyn_peer[18]  lookupHopsSig:vector  ETV
9462	513428 8669 310 135236 20.300019 132.382632541856 296 0 17 1184 7180
vector 9463  Network.dyn_peer[18]  lookupStabilitySig:vector  ETV
9463	522097 9642 310 135236 20.300019 132.382632541856 296 -1.125 1 148.05555555224 112.24614197163
vector 9464  Network.dyn_peer[18]  lookupTimeSig:vector  ETV
9464	531739 9222 310 135236 20.300019 132.382632541856 296 0 1.6 133.2 79.62
vector 9474  Network.dyn_peer[22]  lookupHopsSig:vector  ETV
9474	626062 9536 317 135913 20.300023 133.181509033618 324 0 18 1347 8751
vector 9475  Network.dyn_peer[22]  lookupStabilitySig:vector  ETV
9475	635598 10637 317 135913 20.300023 133.181509033618 324 -1.25 1 155.86111104488 124.21064808413
vector 9476  Network.dyn_peer[22]  lookupTimeSig:vector  ETV
9476	646235 10132 317 135913 20.300023 133.181509033618 324 0 1.8 151.4 96.14
vector 9495  Network.dyn_peer[29]  lookupHopsSig:vector  ETV
9495	824138 8658 327 134769 20.30003 131.975028841857 295 0 25 1286 8874
vector 9496  Network.dyn_peer[29]  lookupStabilitySig:vector  ETV
9496	832796 9644 327 134769 20.30003 131.975028841857 295 -2.125 1 134.33333332837 112.25733024066
vector 9497  Network.dyn_peer[29]  lookupTimeSig:vector  ETV
9497	842440 9209 327 134769 20.30003 131.975028841857 295 0 2.4 144 97.82
vector 9465  Network.dyn_peer[19]  lookupHopsSig:vector  ETV
9465	540961 9105 361 136085 20.40002 133.594930132552 311 0 16 1240 7506
vector 9466  Network.dyn_peer[19]  lookupStabilitySig:vector  ETV
9466	550066 10124 361 136085 20.40002 133.594930132552 311 -1 1 156.13888886571 118.38850306949
vector 9467  Network.dyn_peer[19]  lookupTimeSig:vector  ETV
9467	560190 9694 361 136085 20.40002 133.594930132552 311 0 1.5 139.1 84.13
vector 9498  Network.dyn_peer[30]  lookupHopsSig:vector  ETV
9498	851649 8509 376 133283 20.400031 130.945838526713 289 0 23 1250 8412
vector 9499  Network.dyn_peer[30]  lookupStabilitySig:vector  ETV
9499	860158 9466 376 133283 20.400031 130.945838526713 289 -1.875 1 132.96388885379 108.12445212467
vector 9500  Network.dyn_peer[30]  lookupTimeSig:vector  ETV
9500	869624 9043 376 133283 20.400031 130.945838526713 289 0 2.1 137.6 89.36
vector 9501  Network.dyn_peer[31]  lookupHopsSig:vector  ETV
9501	878667 9179 381 135311 20.400032 132.434173152724 312 0 24 1273 8219
vector 9502  Network.dyn_peer[31]  lookupStabilitySig:vector  ETV
9502	887846 10200 381 135311 20.400032 132.434173152724 312 -2 1 152.9999999702 122.27430552906
vector 9503  Network.dyn_peer[31]  lookupTimeSig:vector  ETV
9503	898046 9760 381 135311 20.400032 132.434173152724 312 0 2.1 142.2 88.7
vector 9441  Network.dyn_peer[11]  lookupHopsSig:vector  ETV
9441	318522 8976 415 136057 20.500012 133.504060551406 305 0 20 1200 7348
vector 9442  Network.dyn_peer[11]  lookupStabilitySig:vector  ETV
9442	327498 9974 415 136057 20.500012 133.504060551406 305 -1.5 1 155.02777777612 119.85493826903
vector 9443  Network.dyn_peer[11]  lookupTimeSig:vector  ETV
9443	337472 9552 415 136057 20.500012 133.504060551406 305 0 1.8 134.9 81.69
vector 9450  Network.dyn_peer[14]  lookupHopsSig:vector  ETV
9450	401832 8961 420 135166 20.500015 132.307136515557 306 0 18 1216 7478
vector 9451  Network.dyn_peer[14]  lookupStabilitySig:vector  ETV
9451	410793 10007 420 135166 20.500015 132.307136515557 306 -1.25 1 154.22222220153 118.91435184302
vector 9452  Network.dyn_peer[14]  lookupTimeSig:vector  ETV
9452	420800 9552 420 135166 20.500015 132.307136515557 306 0 1.5 137.2 82.3
