version 2
run Stability-norelink-92-20130525-23:20:08-22103
attr configname Stability-norelink
attr datetime 20130525-23:20:08
attr experiment Stability
attr inifile omnetpp.ini
attr iterationvars $0=1e-3
attr iterationvars2 "$0=1e-3, $repetition=2"
attr measurement $0=1e-3
attr network Network
attr processid 22103
attr repetition 2
attr replication #2
attr resultdir results
attr runnumber 92
attr seedset 92

vector 8850  Network.dyn_peer[6]  lookupHopsSig:vector  ETV
vector 8851  Network.dyn_peer[6]  lookupStabilitySig:vector  ETV
vector 8852  Network.dyn_peer[6]  lookupTimeSig:vector  ETV
vector 8886  Network.dyn_peer[18]  lookupHopsSig:vector  ETV
vector 8887  Network.dyn_peer[18]  lookupStabilitySig:vector  ETV
vector 8888  Network.dyn_peer[18]  lookupTimeSig:vector  ETV
vector 8916  Network.dyn_peer[28]  lookupHopsSig:vector  ETV
vector 8917  Network.dyn_peer[28]  lookupStabilitySig:vector  ETV
vector 8918  Network.dyn_peer[28]  lookupTimeSig:vector  ETV
vector 8832  Network.dyn_peer[0]  lookupHopsSig:vector  ETV
vector 8833  Network.dyn_peer[0]  lookupStabilitySig:vector  ETV
vector 8834  Network.dyn_peer[0]  lookupTimeSig:vector  ETV
vector 8835  Network.dyn_peer[1]  lookupHopsSig:vector  ETV
vector 8836  Network.dyn_peer[1]  lookupStabilitySig:vector  ETV
vector 8837  Network.dyn_peer[1]  lookupTimeSig:vector  ETV
vector 8838  Network.dyn_peer[2]  lookupHopsSig:vector  ETV
vector 8839  Network.dyn_peer[2]  lookupStabilitySig:vector  ETV
vector 8840  Network.dyn_peer[2]  lookupTimeSig:vector  ETV
vector 8841  Network.dyn_peer[3]  lookupHopsSig:vector  ETV
vector 8842  Network.dyn_peer[3]  lookupStabilitySig:vector  ETV
vector 8843  Network.dyn_peer[3]  lookupTimeSig:vector  ETV
vector 8844  Network.dyn_peer[4]  lookupHopsSig:vector  ETV
vector 8845  Network.dyn_peer[4]  lookupStabilitySig:vector  ETV
vector 8846  Network.dyn_peer[4]  lookupTimeSig:vector  ETV
vector 8883  Network.dyn_peer[17]  lookupHopsSig:vector  ETV
vector 8884  Network.dyn_peer[17]  lookupStabilitySig:vector  ETV
vector 8885  Network.dyn_peer[17]  lookupTimeSig:vector  ETV
vector 8898  Network.dyn_peer[22]  lookupHopsSig:vector  ETV
vector 8899  Network.dyn_peer[22]  lookupStabilitySig:vector  ETV
vector 8900  Network.dyn_peer[22]  lookupTimeSig:vector  ETV
vector 8907  Network.dyn_peer[25]  lookupHopsSig:vector  ETV
vector 8908  Network.dyn_peer[25]  lookupStabilitySig:vector  ETV
vector 8909  Network.dyn_peer[25]  lookupTimeSig:vector  ETV
vector 8853  Network.dyn_peer[7]  lookupHopsSig:vector  ETV
vector 8854  Network.dyn_peer[7]  lookupStabilitySig:vector  ETV
vector 8855  Network.dyn_peer[7]  lookupTimeSig:vector  ETV
vector 8856  Network.dyn_peer[8]  lookupHopsSig:vector  ETV
vector 8857  Network.dyn_peer[8]  lookupStabilitySig:vector  ETV
vector 8858  Network.dyn_peer[8]  lookupTimeSig:vector  ETV
vector 8859  Network.dyn_peer[9]  lookupHopsSig:vector  ETV
vector 8860  Network.dyn_peer[9]  lookupStabilitySig:vector  ETV
vector 8861  Network.dyn_peer[9]  lookupTimeSig:vector  ETV
vector 8862  Network.dyn_peer[10]  lookupHopsSig:vector  ETV
vector 8863  Network.dyn_peer[10]  lookupStabilitySig:vector  ETV
vector 8864  Network.dyn_peer[10]  lookupTimeSig:vector  ETV
vector 8865  Network.dyn_peer[11]  lookupHopsSig:vector  ETV
vector 8866  Network.dyn_peer[11]  lookupStabilitySig:vector  ETV
vector 8867  Network.dyn_peer[11]  lookupTimeSig:vector  ETV
vector 8868  Network.dyn_peer[12]  lookupHopsSig:vector  ETV
vector 8869  Network.dyn_peer[12]  lookupStabilitySig:vector  ETV
vector 8870  Network.dyn_peer[12]  lookupTimeSig:vector  ETV
vector 8871  Network.dyn_peer[13]  lookupHopsSig:vector  ETV
vector 8872  Network.dyn_peer[13]  lookupStabilitySig:vector  ETV
vector 8873  Network.dyn_peer[13]  lookupTimeSig:vector  ETV
vector 8874  Network.dyn_peer[14]  lookupHopsSig:vector  ETV
vector 8875  Network.dyn_peer[14]  lookupStabilitySig:vector  ETV
vector 8876  Network.dyn_peer[14]  lookupTimeSig:vector  ETV
vector 8901  Network.dyn_peer[23]  lookupHopsSig:vector  ETV
vector 8902  Network.dyn_peer[23]  lookupStabilitySig:vector  ETV
vector 8903  Network.dyn_peer[23]  lookupTimeSig:vector  ETV
vector 8910  Network.dyn_peer[26]  lookupHopsSig:vector  ETV
vector 8911  Network.dyn_peer[26]  lookupStabilitySig:vector  ETV
vector 8912  Network.dyn_peer[26]  lookupTimeSig:vector  ETV
vector 8919  Network.dyn_peer[29]  lookupHopsSig:vector  ETV
vector 8920  Network.dyn_peer[29]  lookupStabilitySig:vector  ETV
vector 8921  Network.dyn_peer[29]  lookupTimeSig:vector  ETV
vector 8925  Network.dyn_peer[31]  lookupHopsSig:vector  ETV
vector 8926  Network.dyn_peer[31]  lookupStabilitySig:vector  ETV
vector 8927  Network.dyn_peer[31]  lookupTimeSig:vector  ETV
vector 8847  Network.dyn_peer[5]  lookupHopsSig:vector  ETV
vector 8848  Network.dyn_peer[5]  lookupStabilitySig:vector  ETV
vector 8849  Network.dyn_peer[5]  lookupTimeSig:vector  ETV
vector 8877  Network.dyn_peer[15]  lookupHopsSig:vector  ETV
vector 8878  Network.dyn_peer[15]  lookupStabilitySig:vector  ETV
vector 8879  Network.dyn_peer[15]  lookupTimeSig:vector  ETV
vector 8889  Network.dyn_peer[19]  lookupHopsSig:vector  ETV
vector 8890  Network.dyn_peer[19]  lookupStabilitySig:vector  ETV
vector 8891  Network.dyn_peer[19]  lookupTimeSig:vector  ETV
vector 8892  Network.dyn_peer[20]  lookupHopsSig:vector  ETV
vector 8893  Network.dyn_peer[20]  lookupStabilitySig:vector  ETV
vector 8894  Network.dyn_peer[20]  lookupTimeSig:vector  ETV
vector 8904  Network.dyn_peer[24]  lookupHopsSig:vector  ETV
vector 8905  Network.dyn_peer[24]  lookupStabilitySig:vector  ETV
vector 8906  Network.dyn_peer[24]  lookupTimeSig:vector  ETV
vector 8913  Network.dyn_peer[27]  lookupHopsSig:vector  ETV
vector 8914  Network.dyn_peer[27]  lookupStabilitySig:vector  ETV
vector 8915  Network.dyn_peer[27]  lookupTimeSig:vector  ETV
vector 8880  Network.dyn_peer[16]  lookupHopsSig:vector  ETV
vector 8881  Network.dyn_peer[16]  lookupStabilitySig:vector  ETV
vector 8882  Network.dyn_peer[16]  lookupTimeSig:vector  ETV
vector 8895  Network.dyn_peer[21]  lookupHopsSig:vector  ETV
vector 8896  Network.dyn_peer[21]  lookupStabilitySig:vector  ETV
vector 8897  Network.dyn_peer[21]  lookupTimeSig:vector  ETV
vector 8922  Network.dyn_peer[30]  lookupHopsSig:vector  ETV
vector 8923  Network.dyn_peer[30]  lookupStabilitySig:vector  ETV
vector 8924  Network.dyn_peer[30]  lookupTimeSig:vector  ETV
8832	136	20.100001	1
8832	286	20.300001	1
8832	902	21.204936810286	8
8832	1367	21.611463848609	3
8832	1614	21.810175489281	3
8832	2376	22.410435585735	7
8832	3057	22.910435585735	4
8832	3316	23.118575043779	1
8832	3482	23.227351015518	1
8832	5258	24.831729704059	16
8832	5760	25.231729704059	3
8832	6498	25.937316605114	6
8832	6918	26.337417605114	4
8832	7430	26.837417605114	4
8832	8416	27.640201160424	5
8832	8421	27.640341296636	7
8832	8425	27.642202538891	7
8832	9019	28.145796690077	5
8832	9894	28.845796690077	6
8832	11139	29.85452648677	10
8832	11625	30.165179191631	2
8832	11967	30.456603433453	2
8832	12218	30.583023777841	4
8832	12453	30.784623809235	1
8832	12655	30.971427811365	5
8832	12791	31.072008873756	6
8832	13671	31.772732221544	7
8832	14681	32.572732221544	7
8832	15346	33.092914426927	12
8832	15434	33.185789426105	5
8832	15652	33.39347006875	2
8832	17005	34.501382634377	12
8832	17521	35.001382634377	4
8832	17781	35.202057240574	2
8832	18733	36.002057240574	7
8832	18756	36.009837422844	0
8832	19032	36.209837422844	1
8832	19429	36.511182473248	2
8832	19984	36.920896131097	5
8832	20258	37.120896131097	1
8832	20882	37.721683344122	5
8832	21963	38.62746918494	10
8832	23181	39.661881619713	4
8832	23194	39.664747100126	3
8832	23318	39.764848100126	1
8832	23516	39.964848100126	1
8832	23947	40.367349343786	3
8832	24413	40.776369351035	3
8832	24955	41.177247367321	5
8832	25060	41.269951139577	3
8832	25110	41.283665195499	5
8832	25137	41.317090148006	5
8832	25571	41.623239607141	3
8832	26671	42.533153647131	8
8832	27031	42.85526017865	2
8832	27440	43.258696520236	3
8832	28156	43.860365725162	5
8832	28308	43.976905699098	9
8832	28544	44.189761829168	5
8832	28704	44.291744732242	1
8832	29593	45.004160613372	6
8832	29863	45.214524230993	3
8832	30008	45.317707611359	1
8832	31121	46.276829523572	5
8832	31586	46.576829523572	3
8832	31930	46.884440237243	3
8832	31968	46.921007604054	2
8832	32650	47.436027140239	2
8832	33178	47.836027140239	3
8832	33389	48.040190460783	1
8832	33634	48.250021366249	1
8832	33749	48.3561125818	1
8832	34011	48.6561125818	2
8832	34914	49.463892587797	7
8832	34958	49.513043315247	6
8832	35476	49.915900908605	4
8832	35701	50.123942675163	1
8832	35736	50.165445407232	6
8832	36063	50.426569491821	2
8832	36104	50.469165282029	2
8832	36725	50.971864836979	5
8832	37081	51.271864836979	2
8832	38293	52.235639542615	8
8832	38445	52.38131957153	13
8832	38750	52.638097135684	3
8832	38957	52.844124516304	2
8832	39411	53.244124516304	3
8832	39920	53.648533954782	4
8832	40176	53.85435774074	1
8832	40180	53.859478314747	5
8832	40435	54.052778705508	1
8832	40874	54.36982309344	5
8832	40887	54.373791072259	5
8832	41606	54.874243587594	5
8832	42194	55.374243587594	4
8832	43011	56.082584460748	6
8832	43314	56.291663221158	1
8832	43693	56.501538928278	2
8832	43943	56.710399702565	1
8832	44559	57.210995525683	4
8832	44973	57.547166850839	2
8832	45384	57.853406990994	2
8832	45482	57.91825104343	8
8832	45648	58.060633726902	2
8832	45761	58.157834887503	2
8832	46109	58.466157369373	3
8832	46736	58.966157369373	5
8832	46891	59.097950390001	4
8832	47091	59.251563644925	4
8832	47401	59.500712240115	3
8832	47494	59.569807243579	5
8832	47993	59.903004983249	4
8832	48275	60.15779420941	8
8832	48738	60.55789520941	4
8832	49015	60.75789520941	1
8832	49211	60.939219884198	1
8832	49318	61.058652083857	2
8832	49334	61.058753083857	0
8832	49593	61.262889180775	1
8832	50220	61.863791981473	7
8832	50775	62.363791981473	5
8832	51142	62.673706762849	2
8832	51718	63.174910606821	4
8832	51923	63.383115990657	1
8832	52629	63.983639014301	7
8832	52998	64.291686449132	1
8832	53095	64.390357379948	3
8832	53221	64.49549574731	12
8832	54653	65.597140884273	12
8832	55686	66.397140884273	8
8832	56321	66.946287771584	2
8832	56498	67.10479873915	7
8832	56536	67.147861528438	1
8832	57024	67.548012698352	4
8832	57463	68.048012698352	4
8832	57652	68.249639180003	1
8832	58246	68.756843309435	4
8832	58789	69.158089685576	4
8832	59252	69.558089685576	3
8832	60809	70.767430651246	12
8832	61045	70.970793070553	1
8832	61765	71.574106528173	6
8832	62394	72.074106528173	4
8832	62606	72.282699517498	1
8832	63259	72.877524333662	5
8832	63502	73.082916014812	1
8832	63647	73.210956261541	10
8832	63861	73.383109854842	2
8832	64375	73.79255888885	4
8832	65855	74.99255888885	12
8832	66486	75.495474524135	4
8832	67087	75.943941633515	5
8832	67127	76.004542604808	5
8832	67143	76.015008199163	5
8832	68160	76.81937501326	8
8832	68645	77.21937501326	3
8832	69538	77.91947601326	8
8832	69801	78.11947601326	2
8832	70604	78.82643559161	6
8832	71070	79.22653659161	4
8832	72436	80.52653659161	14
8832	72844	80.932985193299	3
8832	73162	81.160432339673	3
8832	73317	81.342454338893	3
8832	73548	81.547067105495	1
8832	73697	81.664086305365	4
8832	73839	81.766981564392	1
8832	74134	82.066981564392	2
8832	74450	82.382593632418	2
8832	74567	82.485910528972	2
8832	74714	82.588982169773	1
8832	75690	83.488982169773	8
8832	76175	83.862640264483	2
8832	76506	84.072459661007	1
8832	76548	84.090265803977	1
8832	77764	84.991613589826	10
8832	78662	85.791613589826	7
8832	79348	86.418749527073	5
8832	79487	86.59810477183	9
8832	80033	87.018984481588	5
8832	80315	87.298111445401	6
8832	80806	87.623970937203	5
8832	80892	87.707139308729	4
8832	80925	87.719076069138	2
8832	81240	87.959124225948	5
8832	81296	88.027251966814	3
8832	81329	88.035600651206	2
8832	81946	88.44439587238	4
8832	82435	88.84439587238	3
8832	82847	89.168434013719	2
8832	82949	89.25998901648	2
8832	83766	89.862121213108	5
8832	83787	89.8746114725	7
8832	83829	89.914084619938	5
8832	84453	90.31602377351	5
8832	84829	90.61602377351	2
8832	85536	91.085505851924	4
8832	85940	91.35697439602	3
8832	86217	91.560743901791	1
8832	86377	91.660844901791	1
8832	86620	91.860844901791	1
8832	86971	92.165850868579	2
8832	87525	92.64691843761	2
8832	88068	93.171404923333	11
8832	88805	93.852815142426	13
8832	89051	94.052916142426	2
8832	89433	94.452916142426	4
8832	90305	95.255020322443	5
8832	90890	95.716746708213	2
8832	92353	96.722813431813	10
8832	92608	96.922813431813	1
8832	93058	97.280241684314	1
8832	93456	97.581654049377	3
8832	93928	97.981654049377	4
8832	94495	98.386409970419	3
8832	94717	98.599218094884	1
8832	95394	99.20414451694	5
8832	95455	99.240319316226	6
8832	95839	99.604409632336	9
8832	95842	99.604829976257	3
8832	96238	99.910650122356	3
8832	96561	100.210650122356	2
8832	97256	100.745820939965	4
8832	97502	100.946299957004	2
8832	98487	101.746299957004	7
8832	98801	101.955566761739	2
8832	99077	102.161525408971	1
8832	99431	102.453448310356	2
8832	99530	102.539819536679	6
8832	99938	102.841470980528	3
8832	100522	103.25181695404	3
8832	101241	103.75191795404	5
8832	102458	104.55191795404	7
8832	103460	105.260160536732	6
8832	104208	105.770103669747	4
8832	104972	106.379781969893	5
8832	105329	106.680251852958	2
8832	107286	108.281001153857	17
8832	107918	108.783604216942	4
8832	109057	109.690679568861	9
8832	109075	109.701919480776	5
8832	109282	109.897396660503	1
8832	109430	110.005750202477	2
8832	109547	110.109754650813	2
8832	110258	110.711990443736	6
8832	110820	111.211990443736	4
8832	111807	112.113098295756	10
8832	112332	112.513098295756	3
8832	112604	112.719686125187	1
8832	112754	112.829157924528	1
8832	113267	113.229157924528	3
8832	113557	113.441208581324	4
8832	113669	113.534463557181	2
8832	113858	113.643162541797	1
8832	115208	114.543162541797	8
8832	115828	115.046998751147	6
8832	116216	115.35238483692	2
8832	116683	115.739103715203	8
8832	116794	115.832842086316	5
8832	116957	115.940544544872	1
8832	118683	117.471176181188	12
8832	120039	118.671176181188	12
8832	120217	118.788433491815	3
8832	120327	118.876233518383	1
8832	121028	119.384497600344	5
8832	121770	119.984497600344	5
8832	122185	120.284897062221	2
8832	122332	120.373555461665	2
8832	122763	120.673875823682	3
8832	123292	121.081643260102	3
8832	123429	121.19051119461	7
8832	123462	121.263141234291	4
8832	123521	121.294385001562	10
8832	123609	121.398033323405	2
8832	123611	121.399091217196	1
8832	124107	121.799192217196	4
8832	124712	122.399192217196	6
8832	125344	123.007900451238	5
8832	125902	123.478431665479	9
8832	126004	123.55296216563	4
8832	126139	123.687790532152	1
8832	126995	124.395118043794	7
8832	127301	124.695118043794	4
8832	127766	125.098310775683	3
8832	128819	126.001124083435	9
8832	129873	126.857236104883	7
8832	130043	127.001148752604	5
8832	130447	127.305113137085	3
8832	131546	128.305113137085	9
8832	132394	129.009238391697	6
8832	133085	129.616547660447	5
8832	133305	129.826351906977	1
8832	133326	129.83605364191	1
8832	135420	131.440669700385	20
8832	135990	131.940669700385	4
8832	136513	132.447252208439	4
8832	136900	132.756147997716	3
8832	136947	132.827701420013	2
8832	137143	132.955968020246	11
8832	137179	132.966107498259	1
8832	137219	133.027600420013	8
8832	137422	133.168439569799	1
8832	137424	133.168502838499	1
8832	138002	133.668603838499	5
8832	138178	133.868603838499	1
8832	138366	134.072013659952	2
8832	138381	134.089852554655	1
8832	138521	134.275565845387	1
8832	138530	134.297645559156	1
8833	136	20.100001	0.875
8833	286	20.300001	0.875
8833	902	21.204936810286	0
8833	1367	21.611463848609	0.625
8833	1614	21.810175489281	0.625
8833	2376	22.410435585735	0.125
8833	3057	22.910435585735	0.5
8833	3316	23.118575043779	0.875
8833	3482	23.227351015518	0.875
8833	5258	24.831729704059	-1
8833	5760	25.231729704059	0.625
8833	6498	25.937316605114	0.25
8833	6918	26.337417605114	0.5
8833	7430	26.837417605114	0.5
8833	8416	27.640201160424	0.375
8833	8421	27.640341296636	0.125
8833	8425	27.642202538891	0.125
8833	9019	28.145796690077	0.375
8833	9894	28.845796690077	0.25
8833	11139	29.85452648677	-0.25
8833	11625	30.165179191631	0.75
8833	11967	30.456603433453	0.75
8833	12218	30.583023777841	0.5
8833	12453	30.784623809235	0.875
8833	12655	30.971427811365	0.375
8833	12791	31.072008873756	0.25
8833	13671	31.772732221544	0.125
8833	14681	32.572732221544	0.125
8833	15346	33.092914426927	-0.5
8833	15434	33.185789426105	0.375
8833	15652	33.39347006875	0.75
8833	17005	34.501382634377	-0.5
8833	17521	35.001382634377	0.5
8833	17781	35.202057240574	0.75
8833	18733	36.002057240574	0.125
8833	18756	36.009837422844	1
8833	19032	36.209837422844	0.875
8833	19429	36.511182473248	0.75
8833	19984	36.920896131097	0.375
8833	20258	37.120896131097	0.875
8833	20882	37.721683344122	0.375
8833	21963	38.62746918494	-0.25
8833	23181	39.661881619713	0.5
8833	23194	39.664747100126	0.625
8833	23318	39.764848100126	0.875
8833	23516	39.964848100126	0.875
8833	23947	40.367349343786	0.625
8833	24413	40.776369351035	0.625
8833	24955	41.177247367321	0.375
8833	25060	41.269951139577	0.625
8833	25110	41.283665195499	0.375
8833	25137	41.317090148006	0.375
8833	25571	41.623239607141	0.625
8833	26671	42.533153647131	0
8833	27031	42.85526017865	0.75
8833	27440	43.258696520236	0.625
8833	28156	43.860365725162	0.375
8833	28308	43.976905699098	-0.125
8833	28544	44.189761829168	0.375
8833	28704	44.291744732242	0.875
8833	29593	45.004160613372	0.25
8833	29863	45.214524230993	0.625
8833	30008	45.317707611359	0.875
8833	31121	46.276829523572	0.375
8833	31586	46.576829523572	0.625
8833	31930	46.884440237243	0.625
8833	31968	46.921007604054	0.75
8833	32650	47.436027140239	0.75
8833	33178	47.836027140239	0.625
8833	33389	48.040190460783	0.875
8833	33634	48.250021366249	0.875
8833	33749	48.3561125818	0.875
8833	34011	48.6561125818	0.75
8833	34914	49.463892587797	0.125
8833	34958	49.513043315247	0.25
8833	35476	49.915900908605	0.5
8833	35701	50.123942675163	0.875
8833	35736	50.165445407232	0.25
8833	36063	50.426569491821	0.75
8833	36104	50.469165282029	0.75
8833	36725	50.971864836979	0.44444441795349
8833	37081	51.271864836979	0.75
8833	38293	52.235639542615	0
8833	38445	52.38131957153	-0.625
8833	38750	52.638097135684	0.625
8833	38957	52.844124516304	0.75
8833	39411	53.244124516304	0.625
8833	39920	53.648533954782	0.5
8833	40176	53.85435774074	0.875
8833	40180	53.859478314747	0.375
8833	40435	54.052778705508	0.875
8833	40874	54.36982309344	0.375
8833	40887	54.373791072259	0.375
8833	41606	54.874243587594	0.375
8833	42194	55.374243587594	0.5
8833	43011	56.082584460748	0.25
8833	43314	56.291663221158	0.875
8833	43693	56.501538928278	0.75
8833	43943	56.710399702565	0.875
8833	44559	57.210995525683	0.5
8833	44973	57.547166850839	0.75
8833	45384	57.853406990994	0.75
8833	45482	57.91825104343	0
8833	45648	58.060633726902	0.75
8833	45761	58.157834887503	0.75
8833	46109	58.466157369373	0.625
8833	46736	58.966157369373	0.375
8833	46891	59.097950390001	0.5
8833	47091	59.251563644925	0.5
8833	47401	59.500712240115	0.625
8833	47494	59.569807243579	0.375
8833	47993	59.903004983249	0.5
8833	48275	60.15779420941	0
8833	48738	60.55789520941	0.5
8833	49015	60.75789520941	0.875
8833	49211	60.939219884198	0.875
8833	49318	61.058652083857	0.75
8833	49334	61.058753083857	1
8833	49593	61.262889180775	0.875
8833	50220	61.863791981473	0.125
8833	50775	62.363791981473	0.375
8833	51142	62.673706762849	0.75
8833	51718	63.174910606821	0.5
8833	51923	63.383115990657	0.875
8833	52629	63.983639014301	0.125
8833	52998	64.291686449132	0.875
8833	53095	64.390357379948	0.625
8833	53221	64.49549574731	-0.5
8833	54653	65.597140884273	-0.5
8833	55686	66.397140884273	0
8833	56321	66.946287771584	0.75
8833	56498	67.10479873915	0.125
8833	56536	67.147861528438	0.875
8833	57024	67.548012698352	0.5
8833	57463	68.048012698352	0.5
8833	57652	68.249639180003	0.875
8833	58246	68.756843309435	0.5
8833	58789	69.158089685576	0.5
8833	59252	69.558089685576	0.625
8833	60809	70.767430651246	-0.5
8833	61045	70.970793070553	0.875
8833	61765	71.574106528173	0.25
8833	62394	72.074106528173	0.5
8833	62606	72.282699517498	0.875
8833	63259	72.877524333662	0.375
8833	63502	73.082916014812	0.875
8833	63647	73.210956261541	-0.25
8833	63861	73.383109854842	0.75
8833	64375	73.79255888885	0.5
8833	65855	74.99255888885	-0.5
8833	66486	75.495474524135	0.5
8833	67087	75.943941633515	0.375
8833	67127	76.004542604808	0.375
8833	67143	76.015008199163	0.375
8833	68160	76.81937501326	0
8833	68645	77.21937501326	0.625
8833	69538	77.91947601326	0
8833	69801	78.11947601326	0.75
8833	70604	78.82643559161	0.25
8833	71070	79.22653659161	0.5
8833	72436	80.52653659161	-0.75
8833	72844	80.932985193299	0.625
8833	73162	81.160432339673	0.625
8833	73317	81.342454338893	0.625
8833	73548	81.547067105495	0.875
8833	73697	81.664086305365	0.5
8833	73839	81.766981564392	0.875
8833	74134	82.066981564392	0.75
8833	74450	82.382593632418	0.75
8833	74567	82.485910528972	0.75
8833	74714	82.588982169773	0.875
8833	75690	83.488982169773	0
8833	76175	83.862640264483	0.75
8833	76506	84.072459661007	0.875
8833	76548	84.090265803977	0.875
8833	77764	84.991613589826	-0.25
8833	78662	85.791613589826	0.125
8833	79348	86.418749527073	0.375
8833	79487	86.59810477183	-0.125
8833	80033	87.018984481588	0.375
8833	80315	87.298111445401	0.25
8833	80806	87.623970937203	0.375
8833	80892	87.707139308729	0.5
8833	80925	87.719076069138	0.75
8833	81240	87.959124225948	0.375
8833	81296	88.027251966814	0.625
8833	81329	88.035600651206	0.75
8833	81946	88.44439587238	0.5
8833	82435	88.84439587238	0.625
8833	82847	89.168434013719	0.75
8833	82949	89.25998901648	0.75
8833	83766	89.862121213108	0.375
8833	83787	89.8746114725	0.125
8833	83829	89.914084619938	0.375
8833	84453	90.31602377351	0.375
8833	84829	90.61602377351	0.75
8833	85536	91.085505851924	0.5
8833	85940	91.35697439602	0.625
8833	86217	91.560743901791	0.875
8833	86377	91.660844901791	0.875
8833	86620	91.860844901791	0.875
8833	86971	92.165850868579	0.75
8833	87525	92.64691843761	0.75
8833	88068	93.171404923333	-0.375
8833	88805	93.852815142426	-0.625
8833	89051	94.052916142426	0.75
8833	89433	94.452916142426	0.5
8833	90305	95.255020322443	0.375
8833	90890	95.716746708213	0.75
8833	92353	96.722813431813	-0.25
8833	92608	96.922813431813	0.875
8833	93058	97.280241684314	0.875
8833	93456	97.581654049377	0.625
8833	93928	97.981654049377	0.5
8833	94495	98.386409970419	0.625
8833	94717	98.599218094884	0.875
8833	95394	99.20414451694	0.375
8833	95455	99.240319316226	0.25
8833	95839	99.604409632336	-0.125
8833	95842	99.604829976257	0.625
8833	96238	99.910650122356	0.625
8833	96561	100.210650122356	0.75
8833	97256	100.745820939965	0.5
8833	97502	100.946299957004	0.75
8833	98487	101.746299957004	0.125
8833	98801	101.955566761739	0.75
8833	99077	102.161525408971	0.875
8833	99431	102.453448310356	0.75
8833	99530	102.539819536679	0.25
8833	99938	102.841470980528	0.625
8833	100522	103.25181695404	0.625
8833	101241	103.75191795404	0.375
8833	102458	104.55191795404	0.125
8833	103460	105.260160536732	0.25
8833	104208	105.770103669747	0.5
8833	104972	106.379781969893	0.375
8833	105329	106.680251852958	0.77777777612209
8833	107286	108.281001153857	-1.125
8833	107918	108.783604216942	0.5
8833	109057	109.690679568861	-0.125
8833	109075	109.701919480776	0.375
8833	109282	109.897396660503	0.875
8833	109430	110.005750202477	0.75
8833	109547	110.109754650813	0.75
8833	110258	110.711990443736	0.25
8833	110820	111.211990443736	0.5
8833	111807	112.113098295756	-0.25
8833	112332	112.513098295756	0.625
8833	112604	112.719686125187	0.875
8833	112754	112.829157924528	0.875
8833	113267	113.229157924528	0.625
8833	113557	113.441208581324	0.5
8833	113669	113.534463557181	0.75
8833	113858	113.643162541797	0.875
8833	115208	114.543162541797	0
8833	115828	115.046998751147	0.25
8833	116216	115.35238483692	0.75
8833	116683	115.739103715203	0
8833	116794	115.832842086316	0.375
8833	116957	115.940544544872	0.875
8833	118683	117.471176181188	-0.5
8833	120039	118.671176181188	-0.5
8833	120217	118.788433491815	0.625
8833	120327	118.876233518383	0.875
8833	121028	119.384497600344	0.375
8833	121770	119.984497600344	0.375
8833	122185	120.284897062221	0.75
8833	122332	120.373555461665	0.75
8833	122763	120.673875823682	0.625
8833	123292	121.081643260102	0.625
8833	123429	121.19051119461	0.125
8833	123462	121.263141234291	0.5
8833	123521	121.294385001562	-0.25
8833	123609	121.398033323405	0.75
8833	123611	121.399091217196	0.875
8833	124107	121.799192217196	0.5
8833	124712	122.399192217196	0.25
8833	125344	123.007900451238	0.375
8833	125902	123.478431665479	-0.125
8833	126004	123.55296216563	0.5
8833	126139	123.687790532152	0.875
8833	126995	124.395118043794	0.125
8833	127301	124.695118043794	0.5
8833	127766	125.098310775683	0.625
8833	128819	126.001124083435	-0.125
8833	129873	126.857236104883	0.125
8833	130043	127.001148752604	0.375
8833	130447	127.305113137085	0.625
8833	131546	128.305113137085	-0.125
8833	132394	129.009238391697	0.25
8833	133085	129.616547660447	0.375
8833	133305	129.826351906977	0.875
8833	133326	129.83605364191	0.875
8833	135420	131.440669700385	-1.5
8833	135990	131.940669700385	0.5
8833	136513	132.447252208439	0.5
8833	136900	132.756147997716	0.625
8833	136947	132.827701420013	0.75
8833	137143	132.955968020246	-0.375
8833	137179	132.966107498259	0.875
8833	137219	133.027600420013	0.11111110448837
8833	137422	133.168439569799	0.875
8833	137424	133.168502838499	0.875
8833	138002	133.668603838499	0.375
8833	138178	133.868603838499	0.875
8833	138366	134.072013659952	0.75
8833	138381	134.089852554655	0.875
8833	138521	134.275565845387	0.875
8833	138530	134.297645559156	0.875
8834	136	20.100001	0.1
8834	286	20.300001	0.2
8834	902	21.204936810286	0.9
8834	1367	21.611463848609	0.4
8834	1614	21.810175489281	0.4
8834	2376	22.410435585735	0.6
8834	3057	22.910435585735	0.5
8834	3316	23.118575043779	0.2
8834	3482	23.227351015518	0.2
8834	5258	24.831729704059	1.6
8834	5760	25.231729704059	0.4
8834	6498	25.937316605114	0.7
8834	6918	26.337417605114	0.4
8834	7430	26.837417605114	0.5
8834	8416	27.640201160424	0.5
8834	8421	27.640341296636	0.8
8834	8425	27.642202538891	0.8
8834	9019	28.145796690077	0.5
8834	9894	28.845796690077	0.7
8834	11139	29.85452648677	1
8834	11625	30.165179191631	0.3
8834	11967	30.456603433453	0.3
8834	12218	30.583023777841	0.4
8834	12453	30.784623809235	0.2
8834	12655	30.971427811365	0.5
8834	12791	31.072008873756	0.6
8834	13671	31.772732221544	0.7
8834	14681	32.572732221544	0.8
8834	15346	33.092914426927	1.1
8834	15434	33.185789426105	0.6
8834	15652	33.39347006875	0.3
8834	17005	34.501382634377	1.1
8834	17521	35.001382634377	0.5
8834	17781	35.202057240574	0.2
8834	18733	36.002057240574	0.8
8834	18756	36.009837422844	0
8834	19032	36.209837422844	0.2
8834	19429	36.511182473248	0.3
8834	19984	36.920896131097	0.4
8834	20258	37.120896131097	0.2
8834	20882	37.721683344122	0.6
8834	21963	38.62746918494	0.9
8834	23181	39.661881619713	0.5
8834	23194	39.664747100126	0.4
8834	23318	39.764848100126	0.1
8834	23516	39.964848100126	0.2
8834	23947	40.367349343786	0.4
8834	24413	40.776369351035	0.4
8834	24955	41.177247367321	0.5
8834	25060	41.269951139577	0.4
8834	25110	41.283665195499	0.5
8834	25137	41.317090148006	0.5
8834	25571	41.623239607141	0.3
8834	26671	42.533153647131	0.9
8834	27031	42.85526017865	0.3
8834	27440	43.258696520236	0.4
8834	28156	43.860365725162	0.6
8834	28308	43.976905699098	0.9
8834	28544	44.189761829168	0.6
8834	28704	44.291744732242	0.1
8834	29593	45.004160613372	0.7
8834	29863	45.214524230993	0.3
8834	30008	45.317707611359	0.1
8834	31121	46.276829523572	0.5
8834	31586	46.576829523572	0.3
8834	31930	46.884440237243	0.3
8834	31968	46.921007604054	0.3
8834	32650	47.436027140239	0.2
8834	33178	47.836027140239	0.4
8834	33389	48.040190460783	0.2
8834	33634	48.250021366249	0.2
8834	33749	48.3561125818	0.1
8834	34011	48.6561125818	0.3
8834	34914	49.463892587797	0.8
8834	34958	49.513043315247	0.7
8834	35476	49.915900908605	0.4
8834	35701	50.123942675163	0.2
8834	35736	50.165445407232	0.7
8834	36063	50.426569491821	0.3
8834	36104	50.469165282029	0.3
8834	36725	50.971864836979	0.5
8834	37081	51.271864836979	0.3
8834	38293	52.235639542615	0.9
8834	38445	52.38131957153	1.1
8834	38750	52.638097135684	0.4
8834	38957	52.844124516304	0.2
8834	39411	53.244124516304	0.4
8834	39920	53.648533954782	0.4
8834	40176	53.85435774074	0.2
8834	40180	53.859478314747	0.6
8834	40435	54.052778705508	0.2
8834	40874	54.36982309344	0.5
8834	40887	54.373791072259	0.5
8834	41606	54.874243587594	0.5
8834	42194	55.374243587594	0.5
8834	43011	56.082584460748	0.7
8834	43314	56.291663221158	0.2
8834	43693	56.501538928278	0.2
8834	43943	56.710399702565	0.2
8834	44559	57.210995525683	0.5
8834	44973	57.547166850839	0.3
8834	45384	57.853406990994	0.3
8834	45482	57.91825104343	0.7
8834	45648	58.060633726902	0.3
8834	45761	58.157834887503	0.3
8834	46109	58.466157369373	0.3
8834	46736	58.966157369373	0.5
8834	46891	59.097950390001	0.5
8834	47091	59.251563644925	0.5
8834	47401	59.500712240115	0.4
8834	47494	59.569807243579	0.6
8834	47993	59.903004983249	0.4
8834	48275	60.15779420941	0.9
8834	48738	60.55789520941	0.4
8834	49015	60.75789520941	0.2
8834	49211	60.939219884198	0.2
8834	49318	61.058652083857	0.3
8834	49334	61.058753083857	0
8834	49593	61.262889180775	0.2
8834	50220	61.863791981473	0.6
8834	50775	62.363791981473	0.5
8834	51142	62.673706762849	0.3
8834	51718	63.174910606821	0.5
8834	51923	63.383115990657	0.2
8834	52629	63.983639014301	0.6
8834	52998	64.291686449132	0.2
8834	53095	64.390357379948	0.4
8834	53221	64.49549574731	1.1
8834	54653	65.597140884273	1.1
8834	55686	66.397140884273	0.8
8834	56321	66.946287771584	0.3
8834	56498	67.10479873915	0.7
8834	56536	67.147861528438	0.2
8834	57024	67.548012698352	0.4
8834	57463	68.048012698352	0.5
8834	57652	68.249639180003	0.2
8834	58246	68.756843309435	0.5
8834	58789	69.158089685576	0.4
8834	59252	69.558089685576	0.4
8834	60809	70.767430651246	1.2
8834	61045	70.970793070553	0.2
8834	61765	71.574106528173	0.6
8834	62394	72.074106528173	0.5
8834	62606	72.282699517498	0.2