version 2
run Stability-norelink-131-20130525-23:22:47-22103
attr configname Stability-norelink
attr datetime 20130525-23:22:47
attr experiment Stability
attr inifile omnetpp.ini
attr iterationvars $0=1e-7
attr iterationvars2 "$0=1e-7, $repetition=1"
attr measurement $0=1e-7
attr network Network
attr processid 22103
attr repetition 1
attr replication #1
attr resultdir results
attr runnumber 131
attr seedset 131

vector 12579  Network.dyn_peer[1]  lookupHopsSig:vector  ETV
vector 12580  Network.dyn_peer[1]  lookupStabilitySig:vector  ETV
vector 12581  Network.dyn_peer[1]  lookupTimeSig:vector  ETV
vector 12582  Network.dyn_peer[2]  lookupHopsSig:vector  ETV
vector 12583  Network.dyn_peer[2]  lookupStabilitySig:vector  ETV
vector 12584  Network.dyn_peer[2]  lookupTimeSig:vector  ETV
vector 12606  Network.dyn_peer[10]  lookupHopsSig:vector  ETV
vector 12607  Network.dyn_peer[10]  lookupStabilitySig:vector  ETV
vector 12608  Network.dyn_peer[10]  lookupTimeSig:vector  ETV
vector 12609  Network.dyn_peer[11]  lookupHopsSig:vector  ETV
vector 12610  Network.dyn_peer[11]  lookupStabilitySig:vector  ETV
vector 12611  Network.dyn_peer[11]  lookupTimeSig:vector  ETV
vector 12639  Network.dyn_peer[21]  lookupHopsSig:vector  ETV
vector 12640  Network.dyn_peer[21]  lookupStabilitySig:vector  ETV
vector 12641  Network.dyn_peer[21]  lookupTimeSig:vector  ETV
vector 12591  Network.dyn_peer[5]  lookupHopsSig:vector  ETV
vector 12592  Network.dyn_peer[5]  lookupStabilitySig:vector  ETV
vector 12593  Network.dyn_peer[5]  lookupTimeSig:vector  ETV
vector 12618  Network.dyn_peer[14]  lookupHopsSig:vector  ETV
vector 12619  Network.dyn_peer[14]  lookupStabilitySig:vector  ETV
vector 12620  Network.dyn_peer[14]  lookupTimeSig:vector  ETV
vector 12576  Network.dyn_peer[0]  lookupHopsSig:vector  ETV
vector 12577  Network.dyn_peer[0]  lookupStabilitySig:vector  ETV
vector 12578  Network.dyn_peer[0]  lookupTimeSig:vector  ETV
vector 12585  Network.dyn_peer[3]  lookupHopsSig:vector  ETV
vector 12586  Network.dyn_peer[3]  lookupStabilitySig:vector  ETV
vector 12587  Network.dyn_peer[3]  lookupTimeSig:vector  ETV
vector 12594  Network.dyn_peer[6]  lookupHopsSig:vector  ETV
vector 12595  Network.dyn_peer[6]  lookupStabilitySig:vector  ETV
vector 12596  Network.dyn_peer[6]  lookupTimeSig:vector  ETV
vector 12600  Network.dyn_peer[8]  lookupHopsSig:vector  ETV
vector 12601  Network.dyn_peer[8]  lookupStabilitySig:vector  ETV
vector 12602  Network.dyn_peer[8]  lookupTimeSig:vector  ETV
vector 12603  Network.dyn_peer[9]  lookupHopsSig:vector  ETV
vector 12604  Network.dyn_peer[9]  lookupStabilitySig:vector  ETV
vector 12605  Network.dyn_peer[9]  lookupTimeSig:vector  ETV
vector 12612  Network.dyn_peer[12]  lookupHopsSig:vector  ETV
vector 12613  Network.dyn_peer[12]  lookupStabilitySig:vector  ETV
vector 12614  Network.dyn_peer[12]  lookupTimeSig:vector  ETV
vector 12615  Network.dyn_peer[13]  lookupHopsSig:vector  ETV
vector 12616  Network.dyn_peer[13]  lookupStabilitySig:vector  ETV
vector 12617  Network.dyn_peer[13]  lookupTimeSig:vector  ETV
vector 12621  Network.dyn_peer[15]  lookupHopsSig:vector  ETV
vector 12622  Network.dyn_peer[15]  lookupStabilitySig:vector  ETV
vector 12623  Network.dyn_peer[15]  lookupTimeSig:vector  ETV
vector 12624  Network.dyn_peer[16]  lookupHopsSig:vector  ETV
vector 12625  Network.dyn_peer[16]  lookupStabilitySig:vector  ETV
vector 12626  Network.dyn_peer[16]  lookupTimeSig:vector  ETV
vector 12642  Network.dyn_peer[22]  lookupHopsSig:vector  ETV
vector 12643  Network.dyn_peer[22]  lookupStabilitySig:vector  ETV
vector 12644  Network.dyn_peer[22]  lookupTimeSig:vector  ETV
vector 12645  Network.dyn_peer[23]  lookupHopsSig:vector  ETV
vector 12646  Network.dyn_peer[23]  lookupStabilitySig:vector  ETV
vector 12647  Network.dyn_peer[23]  lookupTimeSig:vector  ETV
vector 12651  Network.dyn_peer[25]  lookupHopsSig:vector  ETV
vector 12652  Network.dyn_peer[25]  lookupStabilitySig:vector  ETV
vector 12653  Network.dyn_peer[25]  lookupTimeSig:vector  ETV
vector 12663  Network.dyn_peer[29]  lookupHopsSig:vector  ETV
vector 12664  Network.dyn_peer[29]  lookupStabilitySig:vector  ETV
vector 12665  Network.dyn_peer[29]  lookupTimeSig:vector  ETV
vector 12666  Network.dyn_peer[30]  lookupHopsSig:vector  ETV
vector 12667  Network.dyn_peer[30]  lookupStabilitySig:vector  ETV
vector 12668  Network.dyn_peer[30]  lookupTimeSig:vector  ETV
vector 12588  Network.dyn_peer[4]  lookupHopsSig:vector  ETV
vector 12589  Network.dyn_peer[4]  lookupStabilitySig:vector  ETV
vector 12590  Network.dyn_peer[4]  lookupTimeSig:vector  ETV
vector 12597  Network.dyn_peer[7]  lookupHopsSig:vector  ETV
vector 12598  Network.dyn_peer[7]  lookupStabilitySig:vector  ETV
vector 12599  Network.dyn_peer[7]  lookupTimeSig:vector  ETV
vector 12633  Network.dyn_peer[19]  lookupHopsSig:vector  ETV
vector 12634  Network.dyn_peer[19]  lookupStabilitySig:vector  ETV
vector 12635  Network.dyn_peer[19]  lookupTimeSig:vector  ETV
vector 12648  Network.dyn_peer[24]  lookupHopsSig:vector  ETV
vector 12649  Network.dyn_peer[24]  lookupStabilitySig:vector  ETV
vector 12650  Network.dyn_peer[24]  lookupTimeSig:vector  ETV
vector 12660  Network.dyn_peer[28]  lookupHopsSig:vector  ETV
vector 12661  Network.dyn_peer[28]  lookupStabilitySig:vector  ETV
vector 12662  Network.dyn_peer[28]  lookupTimeSig:vector  ETV
vector 12630  Network.dyn_peer[18]  lookupHopsSig:vector  ETV
vector 12631  Network.dyn_peer[18]  lookupStabilitySig:vector  ETV
vector 12632  Network.dyn_peer[18]  lookupTimeSig:vector  ETV
vector 12657  Network.dyn_peer[27]  lookupHopsSig:vector  ETV
vector 12658  Network.dyn_peer[27]  lookupStabilitySig:vector  ETV
vector 12659  Network.dyn_peer[27]  lookupTimeSig:vector  ETV
vector 12654  Network.dyn_peer[26]  lookupHopsSig:vector  ETV
vector 12655  Network.dyn_peer[26]  lookupStabilitySig:vector  ETV
vector 12656  Network.dyn_peer[26]  lookupTimeSig:vector  ETV
vector 12669  Network.dyn_peer[31]  lookupHopsSig:vector  ETV
vector 12670  Network.dyn_peer[31]  lookupStabilitySig:vector  ETV
vector 12671  Network.dyn_peer[31]  lookupTimeSig:vector  ETV
vector 12636  Network.dyn_peer[20]  lookupHopsSig:vector  ETV
vector 12637  Network.dyn_peer[20]  lookupStabilitySig:vector  ETV
vector 12638  Network.dyn_peer[20]  lookupTimeSig:vector  ETV
vector 12627  Network.dyn_peer[17]  lookupHopsSig:vector  ETV
vector 12628  Network.dyn_peer[17]  lookupStabilitySig:vector  ETV
vector 12629  Network.dyn_peer[17]  lookupTimeSig:vector  ETV
12576	182	20.2000000001	2
12576	513	20.7000000001	4
12576	731	21.007025931249	2
12576	746	21.00944495027	2
12576	928	21.210440415804	1
12576	945	21.218554800055	1
12576	1143	21.421132504001	2
12576	1810	22.021132504001	5
12576	1988	22.216929223694	1
12576	2011	22.224485586594	1
12576	2434	22.624585586694	4
12576	2730	22.924585586694	2
12576	2959	23.130145021621	1
12576	2975	23.143065247605	1
12576	2991	23.206819185941	3
12576	3594	23.637766536413	4
12576	3633	23.709251508678	5
12576	4028	23.935947922457	1
12576	4840	24.643311521877	6
12576	5175	24.946128560684	2
12576	5516	25.248730613735	3
12576	5743	25.454988705481	1
12576	8681	27.655088705581	26
12576	9922	28.655088705581	10
12576	10969	29.555996954112	8
12576	11078	29.6602297885	1
12576	11298	29.864598323468	2
12576	11311	29.870978125784	11
12576	11517	30.072444325688	1
12576	11947	30.572544325788	5
12576	12516	31.072544325788	4
12576	12950	31.475541554382	3
12576	13022	31.508032078785	3
12576	13302	31.782716415224	2
12576	14186	32.682816415324	9
12576	14403	32.882816415324	1
12576	14903	33.385033457632	5
12576	15168	33.591969618183	1
12576	16137	34.368055948065	4
12576	16488	34.668055948065	2
12576	16857	34.974800509432	2
12576	17305	35.380868794975	3
12576	17561	35.573141332342	2
12576	18190	36.176250192063	5
12576	18321	36.344853520817	8
12576	18842	36.746057793926	4
12576	19371	37.146057793926	4
12576	20031	37.65041244815	4
12576	20644	38.157894511696	5
12576	21075	38.469146399729	3
12576	21392	38.721810346463	2
12576	21930	39.126223649378	4
12576	22602	39.626223649378	4
12576	23396	40.240131471597	6
12576	23632	40.44988765004	1
12576	23693	40.464933839647	5
12576	23947	40.658810803065	1
12576	24406	40.964182287064	3
12576	25240	41.664182287064	6
12576	26304	42.567463572225	8
12576	26600	42.772495121403	2
12576	27734	43.672495121403	9
12576	28531	44.380916772019	7
12576	28805	44.581774458826	1
12576	29403	45.083006824924	5
12576	30526	45.983006824924	10
12576	30874	46.303846019085	2
12576	30885	46.309411312897	2
12576	31608	46.809511312997	6
12576	32940	47.909511312997	11
12576	33165	48.116077165991	1
12576	33556	48.417408644103	3
12576	33890	48.717408644103	3
12576	34444	49.220358475835	4
12576	34747	49.422875864309	1
12576	34775	49.42933959277	1
12576	35295	49.83112433858	4
12576	36156	50.53122433868	7
12576	36644	50.93122433868	4
12576	36907	51.136512343767	1
12576	37227	51.440545216188	3
12576	37731	51.942338868511	4
12576	37844	52.042438868611	1
12576	38297	52.442438868611	3
12576	38755	52.84531041527	3
12576	38771	52.847617421979	3
12576	38796	52.851503107538	0
12576	39655	53.551503107538	6
12576	39817	53.654345360752	8
12576	40165	53.965734292095	2
12576	41033	54.673113303909	8
12576	41452	55.073113303909	3
12576	41891	55.475394740791	3
12576	42098	55.683158326306	1
12576	42576	56.090008780342	4
12576	42908	56.390008780342	3
12576	43531	56.893930769807	3
12576	44946	58.093741475742	4
12576	45683	58.693741475742	5
12576	47308	60.101915484783	15
12576	47554	60.302756673055	1
12576	48253	60.904540028659	3
12576	48397	61.003300103083	8
12576	48751	61.223946720973	3
12576	49002	61.424046721073	2
12576	49363	61.72766060714	3
12576	49786	62.13133329765	3
12576	50089	62.415192313688	6
12576	50652	62.820110387706	5
12576	51039	63.120110387706	3
12576	51309	63.325338581012	2
12576	52010	63.925338581012	6
12576	52163	64.055300961793	2
12576	52667	64.542515748762	2
12576	53481	65.342515748762	7
12576	53701	65.546137838444	1
12576	53895	65.751562495293	1
12576	53912	65.754088087338	0
12576	54319	66.154088087338	4
12576	55261	67.065681540684	4
12576	55433	67.261537568226	12
12576	55771	67.55967634562	3
12576	56675	68.366990413554	8
12576	57316	68.866990413554	6
12576	57549	69.07951353759	1
12576	57766	69.293995191351	1
12576	58221	69.768744471964	3
12576	58602	70.073226836571	4
12576	59619	70.973226836571	10
12576	59871	71.179684169379	1
12576	60033	71.318791335896	1
12576	60535	71.718891335996	4
12576	62427	73.321485379003	16
12576	62485	73.351662388399	3
12576	63015	73.729783570591	4
12576	63514	74.122978370309	3
12576	63881	74.422978370309	2
12576	64309	74.843130849384	3
12576	64317	74.846133828834	3
12576	64942	75.35529716464	5
12576	65829	76.05532031117	6
12576	66526	76.65542031127	6
12576	66804	76.85542031127	1
12576	67578	77.566228099273	7
12576	67790	77.766328099373	2
12576	68196	78.066328099373	2
12576	68972	78.669501194961	6
12576	70049	79.569601195061	10
12576	70320	79.869601195061	2
12576	70684	80.270185340805	4
12576	71284	80.783701938807	4
12576	71325	80.817556855581	4
12576	71548	80.991428980708	1
12576	71759	81.201082738185	1
12576	71773	81.217656855581	3
12576	71789	81.222743131753	3
12576	72303	81.722843131853	5
12576	72635	82.022843131853	2
12576	73392	82.728164814109	6
12576	73644	82.932050375192	1
12576	74205	83.340228599464	5
12576	74739	83.740228599464	3
12576	75154	84.050412418423	2
12576	75379	84.263199001877	1
12576	75790	84.647590326262	2
12576	76252	85.047590326262	3
12576	77403	86.047690326362	10
12576	77642	86.247690326362	1
12576	78252	86.759849248292	5
12576	78830	87.267628383723	4
12576	79108	87.479945944223	4
12576	79598	87.873228506234	6
12576	79616	87.884321079437	3
12576	80234	88.393565697661	5
12576	81044	89.193565697661	7
12576	81292	89.402841513789	2
12576	82223	90.136582360661	5
12576	82261	90.179574209866	8
12576	82340	90.217304630291	8
12576	82954	90.619922417725	3
12576	83193	90.745543800131	6
12576	83871	91.247656907894	5
12576	84236	91.647656907894	3
12576	84722	92.157095196941	5
12576	85434	92.864722730005	8
12576	85670	93.077041788198	1
12576	85942	93.280836413694	3
12576	86280	93.598648716832	2
12576	86683	93.907754587819	1
12576	86916	94.113934442474	1
12576	87139	94.302425711703	8
12576	88416	95.302525711803	11
12576	89649	96.302525711803	10
12576	89783	96.409687004148	1
12576	90335	96.88817869526	4
12576	90880	97.388501360187	4
12576	91301	97.690540847606	3
12576	92052	98.290540847606	5
12576	92914	98.996331522222	6
12576	92921	98.999498425447	6
12576	92945	99.01266711025	4
12576	93644	99.617876783378	7
12576	94267	100.217876783378	5
12576	94966	100.922917085803	6
12576	95213	101.123647929267	1
12576	95249	101.153703544604	1
12576	95486	101.358202909355	2
12576	96160	101.958202909355	5
12576	97032	102.703849610103	8
12576	97335	102.921573321013	1
12576	97413	102.973816769607	9
12576	97650	103.174979007978	4
12576	97656	103.178426295779	2
12576	97863	103.329039545947	4
12576	98123	103.535388225948	2
12576	98749	104.135388225948	5
12576	99538	104.821645511321	5
12576	100197	105.32483288749	5
12576	100211	105.337596004076	13
12576	100786	105.841555081287	6
12576	101481	106.441555081287	5
12576	102212	107.097299095235	1
12576	102242	107.112924889356	1
12576	102715	107.519550185214	5
12576	103183	107.919550185214	3
12576	104225	108.722819183863	9
12576	104667	109.125322615919	3
12576	105386	109.744522019984	5
12576	105639	109.955336492951	5
12576	106315	110.557737509563	6
12576	106903	111.057737509563	4
12576	108391	112.260213929648	12
12576	109462	113.049333154492	9
12576	110039	113.449433154592	4
12576	111829	114.749433154592	14
12576	112951	115.756660740072	10
12576	113418	116.156660740072	4
12576	113686	116.462466541099	2
12576	114153	116.890211916927	2
12576	114211	116.964939120098	4
12576	114874	117.574787392092	6
12576	115382	117.979198345094	4
12576	115725	118.279198345094	3
12576	115991	118.517103288224	3
12576	116184	118.687673541564	2
12576	116768	119.188882586637	7
12576	117561	119.888882586637	7
12576	117695	119.988982586737	1
12576	118046	120.288982586737	2
12576	119855	121.775158983905	2
12576	120186	122.081625423739	2
12576	121381	123.081725423839	10
12576	122121	123.66043974936	3
12576	122502	124.06043974936	3
12576	122737	124.268516672765	1
12576	122746	124.270061134151	1
12576	123460	124.870161134251	6
12576	123901	125.270161134251	3
12576	124294	125.677650308622	3
12576	124619	125.985022989878	2
12576	124770	126.123910127583	2
12576	124974	126.32507955027	2
12576	125181	126.52507955027	1
12576	125368	126.731030973593	1
12576	125870	127.138440332316	5
12576	126145	127.440772342482	2
12576	126485	127.744294518893	2
12576	126956	128.150593928374	4
12576	127750	128.950593928374	7
12576	128087	129.263759209209	2
12576	128492	129.669225145401	3
12576	128859	130.005495034148	8
12576	128878	130.019090220296	2
12576	128935	130.055270334161	2
12576	129256	130.260015706196	2
12576	130161	130.960015706196	6
12576	130634	131.36897104375	4
12576	130647	131.375924269231	3
12576	131443	132.048597978052	5
12576	131822	132.348697978252	3
12576	133157	133.357904987925	10
12576	133660	133.764439098789	3
12576	133721	133.803054162147	1
12576	133994	134.006787316332	2
12576	134270	134.206787316332	1
12576	135074	134.907018399561	6
12576	135077	134.907027680613	6
12576	135545	135.212298661067	2
12576	135549	135.213232990886	2
12576	135574	135.218010807641	2
12576	135823	135.421922097663	1
12576	135853	135.423677727657	1
12576	136477	135.925005324248	6
12576	137221	136.725005324248	7
12576	137380	136.925244938591	1
12576	137514	137.139080225314	1
12576	137671	137.345587046629	1
12577	182	20.2000000001	0.75
12577	513	20.7000000001	0.5
12577	731	21.007025931249	0.75
12577	746	21.00944495027	0.75
12577	928	21.210440415804	0.875
12577	945	21.218554800055	0.875
12577	1143	21.421132504001	0.75
12577	1810	22.021132504001	0.375
12577	1988	22.216929223694	0.875
12577	2011	22.224485586594	0.875
12577	2434	22.624585586694	0.5
12577	2730	22.924585586694	0.75
12577	2959	23.130145021621	0.875
12577	2975	23.143065247605	0.875
12577	2991	23.206819185941	0.625
12577	3594	23.637766536413	0.5
12577	3633	23.709251508678	0.375
12577	4028	23.935947922457	0.875
12577	4840	24.643311521877	0.25
12577	5175	24.946128560684	0.75
12577	5516	25.248730613735	0.625
12577	5743	25.454988705481	0.875
12577	8681	27.655088705581	-2.25
12577	9922	28.655088705581	-0.25
12577	10969	29.555996954112	0
12577	11078	29.6602297885	0.875
12577	11298	29.864598323468	0.75
12577	11311	29.870978125784	-0.375
12577	11517	30.072444325688	0.875
12577	11947	30.572544325788	0.375
12577	12516	31.072544325788	0.5
12577	12950	31.475541554382	0.625
12577	13022	31.508032078785	0.625
12577	13302	31.782716415224	0.75
12577	14186	32.682816415324	-0.125
12577	14403	32.882816415324	0.875
12577	14903	33.385033457632	0.375
12577	15168	33.591969618183	0.875
12577	16137	34.368055948065	0.5
12577	16488	34.668055948065	0.75
12577	16857	34.974800509432	0.75
12577	17305	35.380868794975	0.625
12577	17561	35.573141332342	0.75
12577	18190	36.176250192063	0.375
12577	18321	36.344853520817	0
12577	18842	36.746057793926	0.5
12577	19371	37.146057793926	0.5
12577	20031	37.65041244815	0.5
12577	20644	38.157894511696	0.375
12577	21075	38.469146399729	0.625
12577	21392	38.721810346463	0.75
12577	21930	39.126223649378	0.55555555224419
12577	22602	39.626223649378	0.5
12577	23396	40.240131471597	0.25
12577	23632	40.44988765004	0.875
12577	23693	40.464933839647	0.375
12577	23947	40.658810803065	0.875
12577	24406	40.964182287064	0.625
12577	25240	41.664182287064	0.25
12577	26304	42.567463572225	0
12577	26600	42.772495121403	0.75
12577	27734	43.672495121403	-0.125
12577	28531	44.380916772019	0.125
12577	28805	44.581774458826	0.875
12577	29403	45.083006824924	0.375
12577	30526	45.983006824924	-0.25
12577	30874	46.303846019085	0.75
12577	30885	46.309411312897	0.75
12577	31608	46.809511312997	0.25
12577	32940	47.909511312997	-0.375
12577	33165	48.116077165991	0.875
12577	33556	48.417408644103	0.66666665673256
12577	33890	48.717408644103	0.625
12577	34444	49.220358475835	0.5
12577	34747	49.422875864309	0.875
12577	34775	49.42933959277	0.875
12577	35295	49.83112433858	0.5
12577	36156	50.53122433868	0.125
12577	36644	50.93122433868	0.5
12577	36907	51.136512343767	0.875
12577	37227	51.440545216188	0.625
12577	37731	51.942338868511	0.5
12577	37844	52.042438868611	0.875
12577	38297	52.442438868611	0.625
12577	38755	52.84531041527	0.625
12577	38771	52.847617421979	0.625
12577	38796	52.851503107538	1
12577	39655	53.551503107538	0.25
12577	39817	53.654345360752	0
12577	40165	53.965734292095	0.75
12577	41033	54.673113303909	0
12577	41452	55.073113303909	0.625
12577	41891	55.475394740791	0.625
12577	42098	55.683158326306	0.875
12577	42576	56.090008780342	0.5
12577	42908	56.390008780342	0.625
12577	43531	56.893930769807	0.625
12577	44946	58.093741475742	0.5
12577	45683	58.693741475742	0.375
12577	47308	60.101915484783	-0.875
12577	47554	60.302756673055	0.875
12577	48253	60.904540028659	0.625
12577	48397	61.003300103083	0
12577	48751	61.223946720973	0.625
12577	49002	61.424046721073	0.75
12577	49363	61.72766060714	0.625
12577	49786	62.13133329765	0.625
12577	50089	62.415192313688	0.25
12577	50652	62.820110387706	0.375
12577	51039	63.120110387706	0.625
12577	51309	63.325338581012	0.75
12577	52010	63.925338581012	0.25
12577	52163	64.055300961793	0.75
12577	52667	64.542515748762	0.75
12577	53481	65.342515748762	0.125
12577	53701	65.546137838444	0.875
12577	53895	65.751562495293	0.875
12577	53912	65.754088087338	1
12577	54319	66.154088087338	0.5
12577	55261	67.065681540684	0.5
12577	55433	67.261537568226	-0.5
12577	55771	67.55967634562	0.625
12577	56675	68.366990413554	0
12577	57316	68.866990413554	0.25
12577	57549	69.07951353759	0.875
12577	57766	69.293995191351	0.875
12577	58221	69.768744471964	0.625
12577	58602	70.073226836571	0.5
12577	59619	70.973226836571	-0.25
12577	59871	71.179684169379	0.875
12577	60033	71.318791335896	0.875
12577	60535	71.718891335996	0.5
12577	62427	73.321485379003	-1
12577	62485	73.351662388399	0.625
12577	63015	73.729783570591	0.5
12577	63514	74.122978370309	0.625
12577	63881	74.422978370309	0.75
12577	64309	74.843130849384	0.625
12577	64317	74.846133828834	0.625
12577	64942	75.35529716464	0.375
12577	65829	76.05532031117	0.25
12577	66526	76.65542031127	0.25
12577	66804	76.85542031127	0.875
12577	67578	77.566228099273	0.125
12577	67790	77.766328099373	0.75
12577	68196	78.066328099373	0.75
12577	68972	78.669501194961	0.25
12577	70049	79.569601195061	-0.25
12577	70320	79.869601195061	0.75
12577	70684	80.270185340805	0.5
12577	71284	80.783701938807	0.5
12577	71325	80.817556855581	0.5
12577	71548	80.991428980708	0.875
12577	71759	81.201082738185	0.875
12577	71773	81.217656855581	0.625
12577	71789	81.222743131753	0.625
12577	72303	81.722843131853	0.375
12577	72635	82.022843131853	0.75
12577	73392	82.728164814109	0.25
12577	73644	82.932050375192	0.875
12577	74205	83.340228599464	0.375
12577	74739	83.740228599464	0.625
12577	75154	84.050412418423	0.75
12577	75379	84.263199001877	0.875
12577	75790	84.647590326262	0.75
12577	76252	85.047590326262	0.625
12577	77403	86.047690326362	-0.25
12577	77642	86.247690326362	0.875
12577	78252	86.759849248292	0.375
12577	78830	87.267628383723	0.5
12577	79108	87.479945944223	0.5
12577	79598	87.873228506234	0.25
12577	79616	87.884321079437	0.625
12577	80234	88.393565697661	0.375
12577	81044	89.193565697661	0.125
12577	81292	89.402841513789	0.75
12577	82223	90.136582360661	0.375
12577	82261	90.179574209866	0
12577	82340	90.217304630291	0
12577	82954	90.619922417725	0.625
12577	83193	90.745543800131	0.25
12577	83871	91.247656907894	0.375
12577	84236	91.647656907894	0.625
12577	84722	92.157095196941	0.375
12577	85434	92.864722730005	0
12577	85670	93.077041788198	0.875
12577	85942	93.280836413694	0.625
12577	86280	93.598648716832	0.75
12577	86683	93.907754587819	0.875
12577	86916	94.113934442474	0.875
12577	87139	94.302425711703	0
12577	88416	95.302525711803	-0.375
12577	89649	96.302525711803	-0.25
12577	89783	96.409687004148	0.875
12577	90335	96.88817869526	0.5
12577	90880	97.388501360187	0.5
12577	91301	97.690540847606	0.625
12577	92052	98.290540847606	0.375
12577	92914	98.996331522222	0.25
12577	92921	98.999498425447	0.25
12577	92945	99.01266711025	0.5
12577	93644	99.617876783378	0.125
12577	94267	100.217876783378	0.375
12577	94966	100.922917085803	0.25
12577	95213	101.123647929267	0.875
12577	95249	101.153703544604	0.875
12577	95486	101.358202909355	0.75
12577	96160	101.958202909355	0.375
12577	97032	102.703849610103	0.11111110448837
12577	97335	102.921573321013	0.875
12577	97413	102.973816769607	-0.125
12577	97650	103.174979007978	0.5
12577	97656	103.178426295779	0.75
12577	97863	103.329039545947	0.5
12577	98123	103.535388225948	0.75
12577	98749	104.135388225948	0.375
12577	99538	104.821645511321	0.375
12577	100197	105.32483288749	0.375
12577	100211	105.337596004076	-0.625
12577	100786	105.841555081287	0.25
12577	101481	106.441555081287	0.375
12577	102212	107.097299095235	0.875
12577	102242	107.112924889356	0.875
12577	102715	107.519550185214	0.375
12577	103183	107.919550185214	0.625
12577	104225	108.722819183863	-0.125
12577	104667	109.125322615919	0.625
12577	105386	109.744522019984	0.375
12577	105639	109.955336492951	0.375
12577	106315	110.557737509563	0.25
12577	106903	111.057737509563	0.5
12577	108391	112.260213929648	-0.5
12577	109462	113.049333154492	-0.125
12577	110039	113.449433154592	0.5
12577	111829	114.749433154592	-0.75
12577	112951	115.756660740072	-0.25
12577	113418	116.156660740072	0.5
12577	113686	116.462466541099	0.75
12577	114153	116.890211916927	0.75
12577	114211	116.964939120098	0.5
12577	114874	117.574787392092	0.25
12577	115382	117.979198345094	0.5
12577	115725	118.279198345094	0.625
12577	115991	118.517103288224	0.625
12577	116184	118.687673541564	0.75
12577	116768	119.188882586637	0.125
12577	117561	119.888882586637	0.125
12577	117695	119.988982586737	0.875
12577	118046	120.288982586737	0.75
12577	119855	121.775158983905	0.75
12577	120186	122.081625423739	0.75
12577	121381	123.081725423839	-0.25
12577	122121	123.66043974936	0.625
12577	122502	124.06043974936	0.625
12577	122737	124.268516672765	0.875
12577	122746	124.270061134151	0.875
12577	123460	124.870161134251	0.25
12577	123901	125.270161134251	0.625
12577	124294	125.677650308622	0.625
12577	124619	125.985022989878	0.75
12577	124770	126.123910127583	0.75
12577	124974	126.32507955027	0.75
12577	125181	126.52507955027	0.875
12577	125368	126.731030973593	0.875
12577	125870	127.138440332316	0.375
12577	126145	127.440772342482	0.75
12577	126485	127.744294518893	0.75
12577	126956	128.150593928374	0.5
12577	127750	128.950593928374	0.125
12577	128087	129.263759209209	0.75
12577	128492	129.669225145401	0.625
12577	128859	130.005495034148	0
12577	128878	130.019090220296	0.75
12577	128935	130.055270334161	0.75
12577	129256	130.260015706196	0.75
12577	130161	130.960015706196	0.25
12577	130634	131.36897104375	0.5
12577	130647	131.375924269231	0.625
12577	131443	132.048597978052	0.44444441795349
12577	131822	132.348697978252	0.625
12577	133157	133.357904987925	-0.25
12577	133660	133.764439098789	0.625
12577	133721	133.803054162147	0.875
12577	133994	134.006787316332	0.75
12577	134270	134.206787316332	0.875
12577	135074	134.907018399561	0.25
12577	135077	134.907027680613	0.25
12577	135545	135.212298661067	0.75
12577	135549	135.213232990886	0.75
12577	135574	135.218010807641	0.75
12577	135823	135.421922097663	0.875
12577	135853	135.423677727657	0.875
12577	136477	135.925005324248	0.25
12577	137221	136.725005324248	0.125
12577	137380	136.925244938591	0.875
12577	137514	137.139080225314	0.875
12577	137671	137.345587046629	0.875
12578	182	20.2000000001	0.2
12578	513	20.7000000001	0.5
12578	731	21.007025931249	0.3
12578	746	21.00944495027	0.3
12578	928	21.210440415804	0.2
12578	945	21.218554800055	0.2
12578	1143	21.421132504001	0.2
12578	1810	22.021132504001	0.6
12578	1988	22.216929223694	0.2
12578	2011	22.224485586594	0.2
12578	2434	22.624585586694	0.4
12578	2730	22.924585586694	0.3
12578	2959	23.130145021621	0.2
12578	2975	23.143065247605	0.2
12578	2991	23.206819185941	0.4
12578	3594	23.637766536413	0.5
12578	3633	23.709251508678	0.5
12578	4028	23.935947922457	0.1
12578	4840	24.643311521877	0.7
12578	5175	24.946128560684	0.3
12578	5516	25.248730613735	0.3
12578	5743	25.454988705481	0.2
12578	8681	27.655088705581	2.2
12578	9922	28.655088705581	1
12578	10969	29.555996954112	0.9
12578	11078	29.6602297885	0.1
12578	11298	29.864598323468	0.2
12578	11311	29.870978125784	1.1
12578	11517	30.072444325688	0.2
12578	11947	30.572544325788	0.5
12578	12516	31.072544325788	0.5
12578	12950	31.475541554382	0.4
12578	13022	31.508032078785	0.4
12578	13302	31.782716415224	0.3
12578	14186	32.682816415324	0.9
12578	14403	32.882816415324	0.2
12578	14903	33.385033457632	0.5
12578	15168	33.591969618183	0.2
12578	16137	34.368055948065	0.3
12578	16488	34.668055948065	0.3
12578	16857	34.974800509432	0.3
12578	17305	35.380868794975	0.4
12578	17561	35.573141332342	0.2
12578	18190	36.176250192063	0.6
12578	18321	36.344853520817	0.9
12578	18842	36.746057793926	0.4
12578	19371	37.146057793926	0.4
12578	20031	37.65041244815	0.5
12578	20644	38.157894511696	0.5
12578	21075	38.469146399729	0.3
12578	21392	38.721810346463	0.3
12578	21930	39.126223649378	0.4
12578	22602	39.626223649378	0.5
12578	23396	40.240131471597	0.6
12578	23632	40.44988765004	0.2
12578	23693	40.464933839647	0.6
12578	23947	40.658810803065	0.2
12578	24406	40.964182287064	0.3
12578	25240	41.664182287064	0.7
12578	26304	42.567463572225	0.9
12578	26600	42.772495121403	0.2
12578	27734	43.672495121403	0.9
12578	28531	44.380916772019	0.7
12578	28805	44.581774458826	0.2
12578	29403	45.083006824924	0.5
12578	30526	45.983006824924	0.9
12578	30874	46.303846019085	0.3
12578	30885	46.309411312897	0.3
12578	31608	46.809511312997	0.5
12578	32940	47.909511312997	1.1
12578	33165	48.116077165991	0.2
12578	33556	48.417408644103	0.3
12578	33890	48.717408644103	0.3
12578	34444	49.220358475835	0.5
12578	34747	49.422875864309	0.2
12578	34775	49.42933959277	0.2
12578	35295	49.83112433858	0.4
12578	36156	50.53122433868	0.7
12578	36644	50.93122433868	0.4
12578	36907	51.136512343767	0.2
12578	37227	51.440545216188	0.3
12578	37731	51.942338868511	0.5
12578	37844	52.042438868611	0.1
12578	38297	52.442438868611	0.4
12578	38755	52.84531041527	0.4
12578	38771	52.847617421979	0.4
12578	38796	52.851503107538	0
12578	39655	53.551503107538	0.7
12578	39817	53.654345360752	0.8
12578	40165	53.965734292095	0.3
12578	41033	54.673113303909	0.7
12578	41452	55.073113303909	0.4
12578	41891	55.475394740791	0.4
12578	42098	55.683158326306	0.2
12578	42576	56.090008780342	0.4
12578	42908	56.390008780342	0.3
12578	43531	56.893930769807	0.3
12578	44946	58.093741475742	0.4
12578	45683	58.693741475742	0.6
12578	47308	60.101915484783	1.4
12578	47554	60.302756673055	0.2
12578	48253	60.904540028659	0.4
12578	48397	61.003300103083	0.7
12578	48751	61.223946720973	0.3
12578	49002	61.424046721073	0.2
12578	49363	61.72766060714	0.3
12578	49786	62.13133329765	0.4
12578	50089	62.415192313688	0.7
12578	50652	62.820110387706	0.4
12578	51039	63.120110387706	0.3
12578	51309	63.325338581012	0.2
12578	52010	63.925338581012	0.6
12578	52163	64.055300961793	0.2
12578	52667	64.542515748762	0.2
12578	53481	65.342515748762	0.8
12578	53701	65.546137838444	0.2
12578	53895	65.751562495293	0.2
12578	53912	65.754088087338	0
12578	54319	66.154088087338	0.4
12578	55261	67.065681540684	0.4
12578	55433	67.261537568226	1.1
12578	55771	67.55967634562	0.4
12578	56675	68.366990413554	0.8
12578	57316	68.866990413554	0.5
12578	57549	69.07951353759	0.2
12578	57766	69.293995191351	0.2
12578	58221	69.768744471964	0.4
12578	58602	70.073226836571	0.3
12578	59619	70.973226836571	0.9
12578	59871	71.179684169379	0.2
12578	60033	71.318791335896	0.2
12578	60535	71.718891335996	0.4
12578	62427	73.321485379003	1.6
12578	62485	73.351662388399	0.4
12578	63015	73.729783570591	0.4
12578	63514	74.122978370309	0.3
12578	63881	74.422978370309	0.3
12578	64309	74.843130849384	0.4
12578	64317	74.846133828834	0.4