version 2
run Stability-norelink-97-20130525-23:20:28-22103
attr configname Stability-norelink
attr datetime 20130525-23:20:28
attr experiment Stability
attr inifile omnetpp.ini
attr iterationvars $0=1e-3
attr iterationvars2 "$0=1e-3, $repetition=7"
attr measurement $0=1e-3
attr network Network
attr processid 22103
attr repetition 7
attr replication #7
attr resultdir results
attr runnumber 97
attr seedset 97

vector 9321  Network.dyn_peer[3]  lookupHopsSig:vector  ETV
vector 9322  Network.dyn_peer[3]  lookupStabilitySig:vector  ETV
vector 9323  Network.dyn_peer[3]  lookupTimeSig:vector  ETV
vector 9366  Network.dyn_peer[18]  lookupHopsSig:vector  ETV
vector 9367  Network.dyn_peer[18]  lookupStabilitySig:vector  ETV
vector 9368  Network.dyn_peer[18]  lookupTimeSig:vector  ETV
vector 9369  Network.dyn_peer[19]  lookupHopsSig:vector  ETV
vector 9370  Network.dyn_peer[19]  lookupStabilitySig:vector  ETV
vector 9371  Network.dyn_peer[19]  lookupTimeSig:vector  ETV
vector 9312  Network.dyn_peer[0]  lookupHopsSig:vector  ETV
vector 9313  Network.dyn_peer[0]  lookupStabilitySig:vector  ETV
vector 9314  Network.dyn_peer[0]  lookupTimeSig:vector  ETV
vector 9315  Network.dyn_peer[1]  lookupHopsSig:vector  ETV
vector 9316  Network.dyn_peer[1]  lookupStabilitySig:vector  ETV
vector 9317  Network.dyn_peer[1]  lookupTimeSig:vector  ETV
vector 9327  Network.dyn_peer[5]  lookupHopsSig:vector  ETV
vector 9328  Network.dyn_peer[5]  lookupStabilitySig:vector  ETV
vector 9329  Network.dyn_peer[5]  lookupTimeSig:vector  ETV
vector 9339  Network.dyn_peer[9]  lookupHopsSig:vector  ETV
vector 9340  Network.dyn_peer[9]  lookupStabilitySig:vector  ETV
vector 9341  Network.dyn_peer[9]  lookupTimeSig:vector  ETV
vector 9342  Network.dyn_peer[10]  lookupHopsSig:vector  ETV
vector 9343  Network.dyn_peer[10]  lookupStabilitySig:vector  ETV
vector 9344  Network.dyn_peer[10]  lookupTimeSig:vector  ETV
vector 9351  Network.dyn_peer[13]  lookupHopsSig:vector  ETV
vector 9352  Network.dyn_peer[13]  lookupStabilitySig:vector  ETV
vector 9353  Network.dyn_peer[13]  lookupTimeSig:vector  ETV
vector 9360  Network.dyn_peer[16]  lookupHopsSig:vector  ETV
vector 9361  Network.dyn_peer[16]  lookupStabilitySig:vector  ETV
vector 9362  Network.dyn_peer[16]  lookupTimeSig:vector  ETV
vector 9375  Network.dyn_peer[21]  lookupHopsSig:vector  ETV
vector 9376  Network.dyn_peer[21]  lookupStabilitySig:vector  ETV
vector 9377  Network.dyn_peer[21]  lookupTimeSig:vector  ETV
vector 9402  Network.dyn_peer[30]  lookupHopsSig:vector  ETV
vector 9403  Network.dyn_peer[30]  lookupStabilitySig:vector  ETV
vector 9404  Network.dyn_peer[30]  lookupTimeSig:vector  ETV
vector 9405  Network.dyn_peer[31]  lookupHopsSig:vector  ETV
vector 9406  Network.dyn_peer[31]  lookupStabilitySig:vector  ETV
vector 9407  Network.dyn_peer[31]  lookupTimeSig:vector  ETV
vector 9318  Network.dyn_peer[2]  lookupHopsSig:vector  ETV
vector 9319  Network.dyn_peer[2]  lookupStabilitySig:vector  ETV
vector 9320  Network.dyn_peer[2]  lookupTimeSig:vector  ETV
vector 9330  Network.dyn_peer[6]  lookupHopsSig:vector  ETV
vector 9331  Network.dyn_peer[6]  lookupStabilitySig:vector  ETV
vector 9332  Network.dyn_peer[6]  lookupTimeSig:vector  ETV
vector 9345  Network.dyn_peer[11]  lookupHopsSig:vector  ETV
vector 9346  Network.dyn_peer[11]  lookupStabilitySig:vector  ETV
vector 9347  Network.dyn_peer[11]  lookupTimeSig:vector  ETV
vector 9354  Network.dyn_peer[14]  lookupHopsSig:vector  ETV
vector 9355  Network.dyn_peer[14]  lookupStabilitySig:vector  ETV
vector 9356  Network.dyn_peer[14]  lookupTimeSig:vector  ETV
vector 9363  Network.dyn_peer[17]  lookupHopsSig:vector  ETV
vector 9364  Network.dyn_peer[17]  lookupStabilitySig:vector  ETV
vector 9365  Network.dyn_peer[17]  lookupTimeSig:vector  ETV
vector 9390  Network.dyn_peer[26]  lookupHopsSig:vector  ETV
vector 9391  Network.dyn_peer[26]  lookupStabilitySig:vector  ETV
vector 9392  Network.dyn_peer[26]  lookupTimeSig:vector  ETV
vector 9399  Network.dyn_peer[29]  lookupHopsSig:vector  ETV
vector 9400  Network.dyn_peer[29]  lookupStabilitySig:vector  ETV
vector 9401  Network.dyn_peer[29]  lookupTimeSig:vector  ETV
vector 9333  Network.dyn_peer[7]  lookupHopsSig:vector  ETV
vector 9334  Network.dyn_peer[7]  lookupStabilitySig:vector  ETV
vector 9335  Network.dyn_peer[7]  lookupTimeSig:vector  ETV
vector 9348  Network.dyn_peer[12]  lookupHopsSig:vector  ETV
vector 9349  Network.dyn_peer[12]  lookupStabilitySig:vector  ETV
vector 9350  Network.dyn_peer[12]  lookupTimeSig:vector  ETV
vector 9372  Network.dyn_peer[20]  lookupHopsSig:vector  ETV
vector 9373  Network.dyn_peer[20]  lookupStabilitySig:vector  ETV
vector 9374  Network.dyn_peer[20]  lookupTimeSig:vector  ETV
vector 9336  Network.dyn_peer[8]  lookupHopsSig:vector  ETV
vector 9337  Network.dyn_peer[8]  lookupStabilitySig:vector  ETV
vector 9338  Network.dyn_peer[8]  lookupTimeSig:vector  ETV
vector 9357  Network.dyn_peer[15]  lookupHopsSig:vector  ETV
vector 9358  Network.dyn_peer[15]  lookupStabilitySig:vector  ETV
vector 9359  Network.dyn_peer[15]  lookupTimeSig:vector  ETV
vector 9378  Network.dyn_peer[22]  lookupHopsSig:vector  ETV
vector 9379  Network.dyn_peer[22]  lookupStabilitySig:vector  ETV
vector 9380  Network.dyn_peer[22]  lookupTimeSig:vector  ETV
vector 9387  Network.dyn_peer[25]  lookupHopsSig:vector  ETV
vector 9388  Network.dyn_peer[25]  lookupStabilitySig:vector  ETV
vector 9389  Network.dyn_peer[25]  lookupTimeSig:vector  ETV
vector 9393  Network.dyn_peer[27]  lookupHopsSig:vector  ETV
vector 9394  Network.dyn_peer[27]  lookupStabilitySig:vector  ETV
vector 9395  Network.dyn_peer[27]  lookupTimeSig:vector  ETV
vector 9324  Network.dyn_peer[4]  lookupHopsSig:vector  ETV
vector 9325  Network.dyn_peer[4]  lookupStabilitySig:vector  ETV
vector 9326  Network.dyn_peer[4]  lookupTimeSig:vector  ETV
vector 9381  Network.dyn_peer[23]  lookupHopsSig:vector  ETV
vector 9382  Network.dyn_peer[23]  lookupStabilitySig:vector  ETV
vector 9383  Network.dyn_peer[23]  lookupTimeSig:vector  ETV
vector 9396  Network.dyn_peer[28]  lookupHopsSig:vector  ETV
vector 9397  Network.dyn_peer[28]  lookupStabilitySig:vector  ETV
vector 9398  Network.dyn_peer[28]  lookupTimeSig:vector  ETV
vector 9384  Network.dyn_peer[24]  lookupHopsSig:vector  ETV
vector 9385  Network.dyn_peer[24]  lookupStabilitySig:vector  ETV
vector 9386  Network.dyn_peer[24]  lookupTimeSig:vector  ETV
9312	137	20.100001	1
9312	453	20.600001	4
9312	1476	21.70737054986	4
9312	1706	21.914279330589	1
9312	2034	22.21429889721	2
9312	2268	22.404391743626	18
9312	2312	22.418834750879	1
9312	2528	22.62649309102	1
9312	2534	22.627192643399	2
9312	2557	22.631305330765	0
9312	3503	23.531305330765	9
9312	4003	23.931497084585	3
9312	4390	24.24595334383	2
9312	5410	25.048360007233	7
9312	5448	25.126371942282	7
9312	5861	25.355563793077	3
9312	7517	26.662027061368	13
9312	7896	26.972153503154	2
9312	8266	27.2851956751	2
9312	8534	27.489777270667	2
9312	9386	28.189777270667	7
9312	9607	28.398059032929	1
9312	9625	28.399329224039	0
9312	9751	28.505852382754	3
9312	10292	28.906625293723	4
9312	11445	30.007923017767	11
9312	12021	30.510848617994	4
9312	12045	30.556754118268	4
9312	12847	31.265372587507	8
9312	13418	31.765372587507	5
9312	13593	31.969858875076	1
9312	14061	32.379494657005	4
9312	14303	32.579494657005	1
9312	14780	32.983421979312	3
9312	15423	33.591206935691	5
9312	15677	33.802540270569	1
9312	15720	33.823967729396	1
9312	16119	34.22610385281	4
9312	16494	34.62610385281	3
9312	17381	35.404581607413	6
9312	17747	35.713519978032	3
9312	18804	36.622921759166	10
9312	19042	36.822921759166	1
9312	19265	37.029728990941	1
9312	19514	37.242784502853	1
9312	20479	38.05208361378	8
9312	20874	38.45208361378	3
9312	21278	38.754907923841	2
9312	21645	39.060224223273	2
9312	21881	39.255146364603	7
9312	21904	39.263954056136	1
9312	22403	39.764948412451	5
9312	23037	40.364948412451	5
9312	23273	40.570036647041	1
9312	24221	41.270131985748	7
9312	24421	41.394312176008	1
9312	24693	41.594594078198	2
9312	25441	42.197885284748	5
9312	25897	42.577165435157	11
9312	25930	42.602117029445	3
9312	26390	43.010080474833	4
9312	26808	43.410080474833	3
9312	27035	43.611281555026	1
9312	27270	43.824118210871	1
9312	27904	44.432782064223	6
9312	28266	44.738617278021	2
9312	28799	45.138718278021	5
9312	29237	45.438718278021	2
9312	30206	46.141186998769	5
9312	30341	46.248294493003	9
9312	30865	46.651628471285	4
9312	31014	46.753798588064	1
9312	31496	47.153798588064	3
9312	32033	47.655747492826	4
9312	32337	47.86403087645	1
9312	34012	49.36853388743	16
9312	34228	49.56853388743	2
9312	34907	50.273150422472	6
9312	35356	50.681303647356	4
9312	35716	51.081303647356	3
9312	36063	51.382418770273	3
9312	36245	51.578674327148	3
9312	36848	52.084944735368	4
9312	37183	52.391921373005	2
9312	37217	52.405477148849	11
9312	37794	52.911962460505	5
9312	38127	53.211962460505	2
9312	38722	53.811382568269	3
9312	38743	53.822900226699	6
9312	39815	54.725763455773	9
9312	40280	55.225763455773	4
9312	40721	55.734589945251	4
9312	40799	55.836746885323	0
9312	41091	56.140966250799	2
9312	41360	56.441422883912	2
9312	41614	56.64750035917	2
9312	42191	57.14750035917	4
9312	43353	58.018407836634	5
9312	43534	58.157214500401	10
9312	43538	58.164468363011	8
9312	44502	58.964971651405	9
9312	44771	59.174477821136	1
9312	45127	59.483120787231	2
9312	45237	59.586718773178	1
9312	45536	59.886718773178	2
9312	45754	60.087423366086	1
9312	46107	60.322228270981	1
9312	46171	60.392396464572	2
9312	46760	60.893196583781	5
9312	47178	61.293196583781	3
9312	47795	61.803155029113	4
9312	48776	62.510931511552	7
9312	49269	62.912872611638	3
9312	50189	63.621497708442	6
9312	50826	64.121650926371	5
9312	51168	64.423185513349	2
9312	51573	64.724688899141	2
9312	51793	64.929924894244	1
9312	52443	65.430025894244	5
9312	52737	65.630025894244	1
9312	53180	66.033976616724	3
9312	53289	66.11818536234	3
9312	53732	66.526804005923	4
9312	53741	66.539458174358	4
9312	54075	66.848118409956	2
9312	54207	66.97910993965	2
9312	54328	67.08830832307	1
9312	55048	67.68830832307	5
9312	55267	67.843789864343	2
9312	55473	67.990611542363	2
9312	55488	67.996843660324	2
9312	56258	68.555697077649	6
9312	56955	69.155798077649	6
9312	57410	69.560918999774	1
9312	57617	69.760918999774	1
9312	57981	70.0638207171	3
9312	58171	70.248537607693	3
9312	58719	70.655449272882	4
9312	58763	70.669495114693	3
9312	58856	70.763603671974	6
9312	58919	70.772892960645	7
9312	59121	70.956935413371	2
9312	59521	71.269596114693	3
9312	59536	71.2732202305	5
9312	59546	71.277744832038	5
9312	60026	71.577845832038	3
9312	60398	71.877845832038	2
9312	60619	72.078251532482	1
9312	61372	72.785421836239	6
9312	61390	72.787748337191	0
9312	62488	73.687748337191	9
9312	63862	74.741077644035	9
9312	63905	74.793707307668	11
9312	64546	75.294635534751	6
9312	65786	76.394635534751	10
9312	66052	76.714528640168	2
9312	66655	77.324526531108	6
9312	67246	77.824526531108	5
9312	67779	78.225938943927	4
9312	68119	78.525938943927	2
9312	68796	79.165444005466	5
9312	69125	79.465444005466	2
9312	70111	80.467331539084	9
9312	70140	80.502280910198	9
9312	70686	80.969938115038	4
9312	70711	81.002452824317	4
9312	70960	81.275669114809	2
9312	70975	81.276175376339	0
9312	71515	81.776175376339	5
9312	72047	82.282513074259	4
9312	72671	82.786231391605	4
9312	72807	82.89311530718	1
9312	72848	82.924987361893	3
9312	72849	82.924987361893	3
9312	73426	83.325088361893	4
9312	73753	83.625088361893	2
9312	73985	83.829689956673	1
9312	75120	84.731001281663	11
9312	76595	85.931001281663	12
9312	77037	86.339320428247	3
9312	78818	87.843353755456	16
9312	79332	88.346435146176	4
9312	79349	88.35624043947	4
9312	79511	88.552933102583	1
9312	79620	88.656760990458	2
9312	80019	88.960616154608	3
9312	80519	89.360616154608	3
9312	80835	89.587531315438	1
9312	81962	90.785232215551	3
9312	82110	90.887427937265	1
9312	82633	91.387427937265	5
9312	83751	92.193368555498	8
9312	84142	92.594008992938	12
9312	84378	92.796222621071	5
9312	84733	93.107568512901	2
9312	85105	93.394743057915	9
9312	85141	93.402517194847	9
9312	85152	93.408515140714	2
9312	85587	93.712478553078	3
9312	85806	93.912478553078	1
9312	86536	94.517050373992	6
9312	86902	94.837034150216	5
9312	87242	95.131965550736	5
9312	87258	95.133370537701	0
9312	87802	95.633370537701	4
9312	88298	96.025707256063	3
9312	88859	96.425808256063	6
9312	90709	97.825808256063	16
9312	91648	98.73308494788	10
9312	91859	98.873463355063	8
9312	92131	99.082378032058	1
9312	92619	99.486538747864	4
9312	93060	99.886538747864	3
9312	93308	100.090116060607	2
9312	93695	100.399726879508	2
9312	93928	100.6101368331	1
9312	93930	100.610688228229	1
9312	94148	100.817367125947	1
9312	94151	100.818994401699	1
9312	94791	101.320471042547	5
9312	95254	101.720471042547	4
9312	95706	102.127166102822	3
9312	96333	102.702433850689	4
9312	96721	102.935772031473	9
9312	96938	103.108771925387	3
9312	97644	103.710496903746	5
9312	97845	103.906602765872	7
9312	98175	104.21527093762	3
9312	99294	105.201053697087	6
9312	100019	105.810654097566	7
9312	100861	106.61329719103	7
9312	101371	107.118044207517	6
9312	101598	107.318044207517	1
9312	101949	107.627915243696	2
9312	102104	107.763066727017	2
9312	102998	108.472918928826	7
9312	104295	109.672918928826	11
9312	104523	109.877077356827	1
9312	104928	110.279868962951	3
9312	104945	110.285950710083	0
9312	105211	110.585950710083	2
9312	105468	110.893809699838	2
9312	106565	111.946017152088	4
9312	106649	111.996752454035	13
9312	106687	112.036045104501	3
9312	107170	112.439467096754	4
9312	107628	112.839467096754	3
9312	107925	113.040287613835	1
9312	108019	113.096149660209	1
9312	108767	113.596250660209	5
9312	110324	115.096250660209	14
9312	110675	115.402395921756	2
9312	111609	116.309978196093	8
9312	111938	116.610079196093	3
9312	112475	117.110079196093	4
9312	113435	118.014315619873	8
9312	113640	118.222580482621	2
9312	113933	118.503550419018	3
9312	114003	118.542998852914	9
9312	114360	118.811571508105	3
9312	114398	118.84958333136	2
9312	114876	119.151124375535	3
9312	115262	119.451124375535	2
9312	116139	120.158117066761	8
9312	116394	120.358117066761	1
9312	117056	120.877275311608	4
9312	117313	121.084079818728	2
9312	118041	121.684079818728	6
9312	118776	122.284180818728	6
9312	119360	122.784180818728	4
9312	119850	123.188619055581	4
9312	120090	123.403108574855	1
9312	120241	123.535382050214	1
9312	121268	124.54297486972	10
9312	121907	125.14297486972	5
9312	122543	125.751019133712	5
9312	122670	125.857580878366	1
9312	123116	126.257580878366	3
9312	123327	126.467362259709	1
9312	124246	127.169380764936	8
9312	124437	127.326504740161	7
9312	124770	127.633756149986	4
9312	125053	127.878547724638	7
9312	125247	128.040688086633	3
9312	125367	128.129898063133	7
9312	126340	128.838602304197	7
9312	128583	130.593043944282	9
9312	128838	130.80804787768	1
9312	129669	131.513363958952	7
9312	130407	132.182042687271	3
9312	130613	132.387993475185	1
9312	131279	132.891216066854	5
9312	132024	133.491216066854	5
9312	132311	133.693199843952	1
9312	132465	133.852302779714	1
9312	132807	134.200758014862	5
9312	133145	134.504717580852	3
9312	133647	135.004717580852	4
9312	134714	135.776568451344	5
9312	136011	136.676568451344	10
9312	136860	137.378523670373	7
9312	136863	137.379141466856	7
9312	137334	137.885392047733	5
9312	137336	137.885776293115	5
9313	137	20.100001	0.875
9313	453	20.600001	0.5
9313	1476	21.70737054986	0.5
9313	1706	21.914279330589	0.875
9313	2034	22.21429889721	0.75
9313	2268	22.404391743626	-1.25
9313	2312	22.418834750879	0.875
9313	2528	22.62649309102	0.875
9313	2534	22.627192643399	0.75
9313	2557	22.631305330765	1
9313	3503	23.531305330765	-0.125
9313	4003	23.931497084585	0.625
9313	4390	24.24595334383	0.75
9313	5410	25.048360007233	0.125
9313	5448	25.126371942282	0.125
9313	5861	25.355563793077	0.625
9313	7517	26.662027061368	-0.625
9313	7896	26.972153503154	0.75
9313	8266	27.2851956751	0.75
9313	8534	27.489777270667	0.75
9313	9386	28.189777270667	0.125
9313	9607	28.398059032929	0.875
9313	9625	28.399329224039	1
9313	9751	28.505852382754	0.625
9313	10292	28.906625293723	0.5
9313	11445	30.007923017767	-0.375
9313	12021	30.510848617994	0.5
9313	12045	30.556754118268	0.5
9313	12847	31.265372587507	0
9313	13418	31.765372587507	0.375
9313	13593	31.969858875076	0.875
9313	14061	32.379494657005	0.5
9313	14303	32.579494657005	0.875
9313	14780	32.983421979312	0.625
9313	15423	33.591206935691	0.375
9313	15677	33.802540270569	0.875
9313	15720	33.823967729396	0.875
9313	16119	34.22610385281	0.5
9313	16494	34.62610385281	0.625
9313	17381	35.404581607413	0.25
9313	17747	35.713519978032	0.625
9313	18804	36.622921759166	-0.25
9313	19042	36.822921759166	0.875
9313	19265	37.029728990941	0.875
9313	19514	37.242784502853	0.875
9313	20479	38.05208361378	0
9313	20874	38.45208361378	0.625
9313	21278	38.754907923841	0.75
9313	21645	39.060224223273	0.75
9313	21881	39.255146364603	0.125
9313	21904	39.263954056136	0.875
9313	22403	39.764948412451	0.375
9313	23037	40.364948412451	0.375
9313	23273	40.570036647041	0.875
9313	24221	41.270131985748	0.125
9313	24421	41.394312176008	0.875
9313	24693	41.594594078198	0.75
9313	25441	42.197885284748	0.375
9313	25897	42.577165435157	-0.375
9313	25930	42.602117029445	0.625
9313	26390	43.010080474833	0.5
9313	26808	43.410080474833	0.625
9313	27035	43.611281555026	0.875
9313	27270	43.824118210871	0.875
9313	27904	44.432782064223	0.25
9313	28266	44.738617278021	0.75
9313	28799	45.138718278021	0.375
9313	29237	45.438718278021	0.75
9313	30206	46.141186998769	0.375
9313	30341	46.248294493003	-0.125
9313	30865	46.651628471285	0.5
9313	31014	46.753798588064	0.875
9313	31496	47.153798588064	0.625
9313	32033	47.655747492826	0.5
9313	32337	47.86403087645	0.875
9313	34012	49.36853388743	-1
9313	34228	49.56853388743	0.75
9313	34907	50.273150422472	0.25
9313	35356	50.681303647356	0.5
9313	35716	51.081303647356	0.625
9313	36063	51.382418770273	0.625
9313	36245	51.578674327148	0.625
9313	36848	52.084944735368	0.5
9313	37183	52.391921373005	0.75
9313	37217	52.405477148849	-0.375
9313	37794	52.911962460505	0.375
9313	38127	53.211962460505	0.75
9313	38722	53.811382568269	0.625
9313	38743	53.822900226699	0.25
9313	39815	54.725763455773	-0.125
9313	40280	55.225763455773	0.5
9313	40721	55.734589945251	0.5
9313	40799	55.836746885323	1
9313	41091	56.140966250799	0.75
9313	41360	56.441422883912	0.75
9313	41614	56.64750035917	0.75
9313	42191	57.14750035917	0.5
9313	43353	58.018407836634	0.375
9313	43534	58.157214500401	-0.25
9313	43538	58.164468363011	0
9313	44502	58.964971651405	-0.125
9313	44771	59.174477821136	0.875
9313	45127	59.483120787231	0.75
9313	45237	59.586718773178	0.875
9313	45536	59.886718773178	0.75
9313	45754	60.087423366086	0.875
9313	46107	60.322228270981	0.875
9313	46171	60.392396464572	0.75
9313	46760	60.893196583781	0.375
9313	47178	61.293196583781	0.625
9313	47795	61.803155029113	0.5
9313	48776	62.510931511552	0.125
9313	49269	62.912872611638	0.625
9313	50189	63.621497708442	0.25
9313	50826	64.121650926371	0.44444441795349
9313	51168	64.423185513349	0.75
9313	51573	64.724688899141	0.75
9313	51793	64.929924894244	0.875
9313	52443	65.430025894244	0.375
9313	52737	65.630025894244	0.875
9313	53180	66.033976616724	0.625
9313	53289	66.11818536234	0.625
9313	53732	66.526804005923	0.5
9313	53741	66.539458174358	0.5
9313	54075	66.848118409956	0.75
9313	54207	66.97910993965	0.75
9313	54328	67.08830832307	0.875
9313	55048	67.68830832307	0.375
9313	55267	67.843789864343	0.75
9313	55473	67.990611542363	0.75
9313	55488	67.996843660324	0.75
9313	56258	68.555697077649	0.25
9313	56955	69.155798077649	0.25
9313	57410	69.560918999774	0.875
9313	57617	69.760918999774	0.875
9313	57981	70.0638207171	0.625
9313	58171	70.248537607693	0.625
9313	58719	70.655449272882	0.5
9313	58763	70.669495114693	0.625
9313	58856	70.763603671974	0.25
9313	58919	70.772892960645	0.125
9313	59121	70.956935413371	0.75
9313	59521	71.269596114693	0.625
9313	59536	71.2732202305	0.375
9313	59546	71.277744832038	0.375
9313	60026	71.577845832038	0.625
9313	60398	71.877845832038	0.75
9313	60619	72.078251532482	0.875
9313	61372	72.785421836239	0.25
9313	61390	72.787748337191	1
9313	62488	73.687748337191	-0.125
9313	63862	74.741077644035	-0.125
9313	63905	74.793707307668	-0.375
9313	64546	75.294635534751	0.25
9313	65786	76.394635534751	-0.25
9313	66052	76.714528640168	0.75
9313	66655	77.324526531108	0.25
9313	67246	77.824526531108	0.375
9313	67779	78.225938943927	0.5
9313	68119	78.525938943927	0.75
9313	68796	79.165444005466	0.375
9313	69125	79.465444005466	0.75
9313	70111	80.467331539084	-0.125
9313	70140	80.502280910198	-0.125
9313	70686	80.969938115038	0.5
9313	70711	81.002452824317	0.5
9313	70960	81.275669114809	0.75
9313	70975	81.276175376339	1
9313	71515	81.776175376339	0.375
9313	72047	82.282513074259	0.5
9313	72671	82.786231391605	0.5
9313	72807	82.89311530718	0.875
9313	72848	82.924987361893	0.625
9313	72849	82.924987361893	0.625
9313	73426	83.325088361893	0.5
9313	73753	83.625088361893	0.75
9313	73985	83.829689956673	0.875
9313	75120	84.731001281663	-0.375
9313	76595	85.931001281663	-0.5
9313	77037	86.339320428247	0.625
9313	78818	87.843353755456	-1
9313	79332	88.346435146176	0.5
9313	79349	88.35624043947	0.5
9313	79511	88.552933102583	0.875
9313	79620	88.656760990458	0.75
9313	80019	88.960616154608	0.625
9313	80519	89.360616154608	0.625
9313	80835	89.587531315438	0.875
9313	81962	90.785232215551	0.625
9313	82110	90.887427937265	0.875
9313	82633	91.387427937265	0.375
9313	83751	92.193368555498	0
9313	84142	92.594008992938	-0.5
9313	84378	92.796222621071	0.375
9313	84733	93.107568512901	0.75
9313	85105	93.394743057915	-0.125
9313	85141	93.402517194847	-0.125
9313	85152	93.408515140714	0.75
9313	85587	93.712478553078	0.625
9313	85806	93.912478553078	0.875
9313	86536	94.517050373992	0.25
9313	86902	94.837034150216	0.375
9313	87242	95.131965550736	0.375
9313	87258	95.133370537701	1
9313	87802	95.633370537701	0.5
9313	88298	96.025707256063	0.625
9313	88859	96.425808256063	0.25
9313	90709	97.825808256063	-1
9313	91648	98.73308494788	-0.25
9313	91859	98.873463355063	0
9313	92131	99.082378032058	0.875
9313	92619	99.486538747864	0.5
9313	93060	99.886538747864	0.625
9313	93308	100.090116060607	0.75
9313	93695	100.399726879508	0.75
9313	93928	100.6101368331	0.875
9313	93930	100.610688228229	0.875
9313	94148	100.817367125947	0.875
9313	94151	100.818994401699	0.875
9313	94791	101.320471042547	0.375
9313	95254	101.720471042547	0.5
9313	95706	102.127166102822	0.625
9313	96333	102.702433850689	0.5
9313	96721	102.935772031473	-0.125
9313	96938	103.108771925387	0.625
9313	97644	103.710496903746	0.375
9313	97845	103.906602765872	0.125
9313	98175	104.21527093762	0.625
9313	99294	105.201053697087	0.25
9313	100019	105.810654097566	0.125
9313	100861	106.61329719103	0.125
9313	101371	107.118044207517	0.25
9313	101598	107.318044207517	0.875
9313	101949	107.627915243696	0.75
9313	102104	107.763066727017	0.75
9313	102998	108.472918928826	0.125
9313	104295	109.672918928826	-0.375
9313	104523	109.877077356827	0.875
9313	104928	110.279868962951	0.625
9313	104945	110.285950710083	1
9313	105211	110.585950710083	0.75
9313	105468	110.893809699838	0.75
9313	106565	111.946017152088	0.5
9313	106649	111.996752454035	-0.625
9313	106687	112.036045104501	0.625
9313	107170	112.439467096754	0.5
9313	107628	112.839467096754	0.625
9313	107925	113.040287613835	0.875
9313	108019	113.096149660209	0.875
9313	108767	113.596250660209	0.375
9313	110324	115.096250660209	-0.75
9313	110675	115.402395921756	0.75
9313	111609	116.309978196093	0
9313	111938	116.610079196093	0.625
9313	112475	117.110079196093	0.5
9313	113435	118.014315619873	0
9313	113640	118.222580482621	0.75
9313	113933	118.503550419018	0.625
9313	114003	118.542998852914	-0.125
9313	114360	118.811571508105	0.625
9313	114398	118.84958333136	0.75
9313	114876	119.151124375535	0.625
9313	115262	119.451124375535	0.75
9313	116139	120.158117066761	0
9313	116394	120.358117066761	0.875
9313	117056	120.877275311608	0.5
9313	117313	121.084079818728	0.75
9313	118041	121.684079818728	0.25
9313	118776	122.284180818728	0.25
9313	119360	122.784180818728	0.5
9313	119850	123.188619055581	0.5
9313	120090	123.403108574855	0.875
9313	120241	123.535382050214	0.875
9313	121268	124.54297486972	-0.25
9313	121907	125.14297486972	0.375
9313	122543	125.751019133712	0.375
9313	122670	125.857580878366	0.875
9313	123116	126.257580878366	0.625
9313	123327	126.467362259709	0.875
9313	124246	127.169380764936	0
9313	124437	127.326504740161	0.125
9313	124770	127.633756149986	0.5
9313	125053	127.878547724638	0.125
9313	125247	128.040688086633	0.625
9313	125367	128.129898063133	0.125
9313	126340	128.838602304197	0.125
9313	128583	130.593043944282	-0.125
9313	128838	130.80804787768	0.875
9313	129669	131.513363958952	0.125
9313	130407	132.182042687271	0.625
9313	130613	132.387993475185	0.875
9313	131279	132.891216066854	0.375
9313	132024	133.491216066854	0.375
9313	132311	133.693199843952	0.875
9313	132465	133.852302779714	0.875
9313	132807	134.200758014862	0.375
9313	133145	134.504717580852	0.625
9313	133647	135.004717580852	0.5
9313	134714	135.776568451344	0.375
9313	136011	136.676568451344	-0.25
9313	136860	137.378523670373	0.125
9313	136863	137.379141466856	0.125
9313	137334	137.885392047733	0.375
9313	137336	137.885776293115	0.375
9314	137	20.100001	0.1
9314	453	20.600001	0.5
9314	1476	21.70737054986	0.5
9314	1706	21.914279330589	0.2
9314	2034	22.21429889721	0.3
9314	2268	22.404391743626	1.8
9314	2312	22.418834750879	0.2
9314	2528	22.62649309102	0.2
9314	2534	22.627192643399	0.3
9314	2557	22.631305330765	0
9314	3503	23.531305330765	0.9
9314	4003	23.931497084585	0.4
9314	4390	24.24595334383	0.3
9314	5410	25.048360007233	0.8
9314	5448	25.126371942282	0.8
9314	5861	25.355563793077	0.3
9314	7517	26.662027061368	1.3
9314	7896	26.972153503154	0.3
9314	8266	27.2851956751	0.3
9314	8534	27.489777270667	0.2
9314	9386	28.189777270667	0.7
9314	9607	28.398059032929	0.2
9314	9625	28.399329224039	0.1
9314	9751	28.505852382754	0.3
9314	10292	28.906625293723	0.4
9314	11445	30.007923017767	1.1
9314	12021	30.510848617994	0.5
9314	12045	30.556754118268	0.5
9314	12847	31.265372587507	0.7
9314	13418	31.765372587507	0.5
9314	13593	31.969858875076	0.2
9314	14061	32.379494657005	0.4
9314	14303	32.579494657005	0.2
9314	14780	32.983421979312	0.4
9314	15423	33.591206935691	0.6
9314	15677	33.802540270569	0.2
9314	15720	33.823967729396	0.2
9314	16119	34.22610385281	0.4
9314	16494	34.62610385281	0.4
9314	17381	35.404581607413	0.6
9314	17747	35.713519978032	0.3
9314	18804	36.622921759166	0.9
9314	19042	36.822921759166	0.2
9314	19265	37.029728990941	0.2
9314	19514	37.242784502853	0.2
9314	20479	38.05208361378	0.8
9314	20874	38.45208361378	0.4
9314	21278	38.754907923841	0.3
9314	21645	39.060224223273	0.3
9314	21881	39.255146364603	0.7
9314	21904	39.263954056136	0.2
9314	22403	39.764948412451	0.5
9314	23037	40.364948412451	0.6
9314	23273	40.570036647041	0.2
9314	24221	41.270131985748	0.7
9314	24421	41.394312176008	0.2
9314	24693	41.594594078198	0.2
9314	25441	42.197885284748	0.6
9314	25897	42.577165435157	1.2
9314	25930	42.602117029445	0.4
9314	26390	43.010080474833	0.4
9314	26808	43.410080474833	0.4
9314	27035	43.611281555026	0.2
9314	27270	43.824118210871	0.2
9314	27904	44.432782064223	0.6
9314	28266	44.738617278021	0.3
9314	28799	45.138718278021	0.4
9314	29237	45.438718278021	0.3
9314	30206	46.141186998769	0.5
9314	30341	46.248294493003	0.8
9314	30865	46.651628471285	0.5
9314	31014	46.753798588064	0.1
9314	31496	47.153798588064	0.4
9314	32033	47.655747492826	0.5
9314	32337	47.86403087645	0.2
9314	34012	49.36853388743	1.5
9314	34228	49.56853388743	0.2
9314	34907	50.273150422472	0.7
9314	35356	50.681303647356	0.4
9314	35716	51.081303647356	0.4
9314	36063	51.382418770273	0.3
9314	36245	51.578674327148	0.4
9314	36848	52.084944735368	0.5
9314	37183	52.391921373005	0.3
9314	37217	52.405477148849	1
9314	37794	52.911962460505	0.5
9314	38127	53.211962460505	0.3
9314	38722	53.811382568269	0.4
9314	38743	53.822900226699	0.6
9314	39815	54.725763455773	0.9
9314	40280	55.225763455773	0.5
9314	40721	55.734589945251	0.5
9314	40799	55.836746885323	0.1
9314	41091	56.140966250799	0.3
9314	41360	56.441422883912	0.3
9314	41614	56.64750035917	0.2
9314	42191	57.14750035917	0.5
9314	43353	58.018407836634	0.6
9314	43534	58.157214500401	1
9314	43538	58.164468363011	0.9
9314	44502	58.964971651405	0.8
9314	44771	59.174477821136	0.2
9314	45127	59.483120787231	0.3
9314	45237	59.586718773178	0.1
9314	45536	59.886718773178	0.3
9314	45754	60.087423366086	0.2
9314	46107	60.322228270981	0.2
9314	46171	60.392396464572	0.3
9314	46760	60.893196583781	0.5
9314	47178	61.293196583781	0.4
9314	47795	61.803155029113	0.5
9314	48776	62.510931511552	0.7
9314	49269	62.912872611638	0.4
9314	50189	63.621497708442	0.7
9314	50826	64.121650926371	0.5
9314	51168	64.423185513349	0.3
9314	51573	64.724688899141	0.3
9314	51793	64.929924894244	0.2
9314	52443	65.430025894244	0.5
9314	52737	65.630025894244	0.2
9314	53180	66.033976616724	0.4
9314	53289	66.11818536234	0.4
9314	53732	66.526804005923	0.4
9314	53741	66.539458174358	0.5
9314	54075	66.848118409956	0.3
9314	54207	66.97910993965	0.3
9314	54328	67.08830832307	0.1
9314	55048	67.68830832307	0.6
9314	55267	67.843789864343	0.3
9314	55473	67.990611542363	0.3
9314	55488	67.996843660324	0.3
9314	56258	68.555697077649	0.7
9314	56955	69.155798077649	0.6
9314	57410	69.560918999774	0.1
9314	57617	69.760918999774	0.2
9314	57981	70.0638207171	0.3
9314	58171	70.248537607693	0.4
9314	58719	70.655449272882	0.4
9314	58763	70.669495114693	0.4
9314	58856	70.763603671974	0.5
9314	58919	70.772892960645	0.7
9314	59121	70.956935413371	0.3
9314	59521	71.269596114693	0.4
9314	59536	71.2732202305	0.5
9314	59546	71.277744832038	0.5
9314	60026	71.577845832038	0.3
9314	60398	71.877845832038	0.3
9314	60619	72.078251532482	0.2
9314	61372	72.785421836239	0.7
9314	61390	72.787748337191	0
9314	62488	73.687748337191	0.9
9314	63862	74.741077644035	1
9314	63905	74.793707307668	1.1
9314	64546	75.294635534751	0.5