version 2
run Stability-norelink-118-20130525-23:21:54-22103
attr configname Stability-norelink
attr datetime 20130525-23:21:54
attr experiment Stability
attr inifile omnetpp.ini
attr iterationvars $0=1e-5
attr iterationvars2 "$0=1e-5, $repetition=8"
attr measurement $0=1e-5
attr network Network
attr processid 22103
attr repetition 8
attr replication #8
attr resultdir results
attr runnumber 118
attr seedset 118

vector 11355  Network.dyn_peer[9]  lookupHopsSig:vector  ETV
vector 11356  Network.dyn_peer[9]  lookupStabilitySig:vector  ETV
vector 11357  Network.dyn_peer[9]  lookupTimeSig:vector  ETV
vector 11367  Network.dyn_peer[13]  lookupHopsSig:vector  ETV
vector 11368  Network.dyn_peer[13]  lookupStabilitySig:vector  ETV
vector 11369  Network.dyn_peer[13]  lookupTimeSig:vector  ETV
vector 11379  Network.dyn_peer[17]  lookupHopsSig:vector  ETV
vector 11380  Network.dyn_peer[17]  lookupStabilitySig:vector  ETV
vector 11381  Network.dyn_peer[17]  lookupTimeSig:vector  ETV
vector 11328  Network.dyn_peer[0]  lookupHopsSig:vector  ETV
vector 11329  Network.dyn_peer[0]  lookupStabilitySig:vector  ETV
vector 11330  Network.dyn_peer[0]  lookupTimeSig:vector  ETV
vector 11337  Network.dyn_peer[3]  lookupHopsSig:vector  ETV
vector 11338  Network.dyn_peer[3]  lookupStabilitySig:vector  ETV
vector 11339  Network.dyn_peer[3]  lookupTimeSig:vector  ETV
vector 11340  Network.dyn_peer[4]  lookupHopsSig:vector  ETV
vector 11341  Network.dyn_peer[4]  lookupStabilitySig:vector  ETV
vector 11342  Network.dyn_peer[4]  lookupTimeSig:vector  ETV
vector 11346  Network.dyn_peer[6]  lookupHopsSig:vector  ETV
vector 11347  Network.dyn_peer[6]  lookupStabilitySig:vector  ETV
vector 11348  Network.dyn_peer[6]  lookupTimeSig:vector  ETV
vector 11349  Network.dyn_peer[7]  lookupHopsSig:vector  ETV
vector 11350  Network.dyn_peer[7]  lookupStabilitySig:vector  ETV
vector 11351  Network.dyn_peer[7]  lookupTimeSig:vector  ETV
vector 11352  Network.dyn_peer[8]  lookupHopsSig:vector  ETV
vector 11353  Network.dyn_peer[8]  lookupStabilitySig:vector  ETV
vector 11354  Network.dyn_peer[8]  lookupTimeSig:vector  ETV
vector 11358  Network.dyn_peer[10]  lookupHopsSig:vector  ETV
vector 11359  Network.dyn_peer[10]  lookupStabilitySig:vector  ETV
vector 11360  Network.dyn_peer[10]  lookupTimeSig:vector  ETV
vector 11394  Network.dyn_peer[22]  lookupHopsSig:vector  ETV
vector 11395  Network.dyn_peer[22]  lookupStabilitySig:vector  ETV
vector 11396  Network.dyn_peer[22]  lookupTimeSig:vector  ETV
vector 11397  Network.dyn_peer[23]  lookupHopsSig:vector  ETV
vector 11398  Network.dyn_peer[23]  lookupStabilitySig:vector  ETV
vector 11399  Network.dyn_peer[23]  lookupTimeSig:vector  ETV
vector 11400  Network.dyn_peer[24]  lookupHopsSig:vector  ETV
vector 11401  Network.dyn_peer[24]  lookupStabilitySig:vector  ETV
vector 11402  Network.dyn_peer[24]  lookupTimeSig:vector  ETV
vector 11403  Network.dyn_peer[25]  lookupHopsSig:vector  ETV
vector 11404  Network.dyn_peer[25]  lookupStabilitySig:vector  ETV
vector 11405  Network.dyn_peer[25]  lookupTimeSig:vector  ETV
vector 11409  Network.dyn_peer[27]  lookupHopsSig:vector  ETV
vector 11410  Network.dyn_peer[27]  lookupStabilitySig:vector  ETV
vector 11411  Network.dyn_peer[27]  lookupTimeSig:vector  ETV
vector 11361  Network.dyn_peer[11]  lookupHopsSig:vector  ETV
vector 11362  Network.dyn_peer[11]  lookupStabilitySig:vector  ETV
vector 11363  Network.dyn_peer[11]  lookupTimeSig:vector  ETV
vector 11364  Network.dyn_peer[12]  lookupHopsSig:vector  ETV
vector 11365  Network.dyn_peer[12]  lookupStabilitySig:vector  ETV
vector 11366  Network.dyn_peer[12]  lookupTimeSig:vector  ETV
vector 11370  Network.dyn_peer[14]  lookupHopsSig:vector  ETV
vector 11371  Network.dyn_peer[14]  lookupStabilitySig:vector  ETV
vector 11372  Network.dyn_peer[14]  lookupTimeSig:vector  ETV
vector 11382  Network.dyn_peer[18]  lookupHopsSig:vector  ETV
vector 11383  Network.dyn_peer[18]  lookupStabilitySig:vector  ETV
vector 11384  Network.dyn_peer[18]  lookupTimeSig:vector  ETV
vector 11385  Network.dyn_peer[19]  lookupHopsSig:vector  ETV
vector 11386  Network.dyn_peer[19]  lookupStabilitySig:vector  ETV
vector 11387  Network.dyn_peer[19]  lookupTimeSig:vector  ETV
vector 11391  Network.dyn_peer[21]  lookupHopsSig:vector  ETV
vector 11392  Network.dyn_peer[21]  lookupStabilitySig:vector  ETV
vector 11393  Network.dyn_peer[21]  lookupTimeSig:vector  ETV
vector 11421  Network.dyn_peer[31]  lookupHopsSig:vector  ETV
vector 11422  Network.dyn_peer[31]  lookupStabilitySig:vector  ETV
vector 11423  Network.dyn_peer[31]  lookupTimeSig:vector  ETV
vector 11331  Network.dyn_peer[1]  lookupHopsSig:vector  ETV
vector 11332  Network.dyn_peer[1]  lookupStabilitySig:vector  ETV
vector 11333  Network.dyn_peer[1]  lookupTimeSig:vector  ETV
vector 11343  Network.dyn_peer[5]  lookupHopsSig:vector  ETV
vector 11344  Network.dyn_peer[5]  lookupStabilitySig:vector  ETV
vector 11345  Network.dyn_peer[5]  lookupTimeSig:vector  ETV
vector 11373  Network.dyn_peer[15]  lookupHopsSig:vector  ETV
vector 11374  Network.dyn_peer[15]  lookupStabilitySig:vector  ETV
vector 11375  Network.dyn_peer[15]  lookupTimeSig:vector  ETV
vector 11388  Network.dyn_peer[20]  lookupHopsSig:vector  ETV
vector 11389  Network.dyn_peer[20]  lookupStabilitySig:vector  ETV
vector 11390  Network.dyn_peer[20]  lookupTimeSig:vector  ETV
vector 11412  Network.dyn_peer[28]  lookupHopsSig:vector  ETV
vector 11413  Network.dyn_peer[28]  lookupStabilitySig:vector  ETV
vector 11414  Network.dyn_peer[28]  lookupTimeSig:vector  ETV
vector 11415  Network.dyn_peer[29]  lookupHopsSig:vector  ETV
vector 11416  Network.dyn_peer[29]  lookupStabilitySig:vector  ETV
vector 11417  Network.dyn_peer[29]  lookupTimeSig:vector  ETV
vector 11334  Network.dyn_peer[2]  lookupHopsSig:vector  ETV
vector 11335  Network.dyn_peer[2]  lookupStabilitySig:vector  ETV
vector 11336  Network.dyn_peer[2]  lookupTimeSig:vector  ETV
vector 11376  Network.dyn_peer[16]  lookupHopsSig:vector  ETV
vector 11377  Network.dyn_peer[16]  lookupStabilitySig:vector  ETV
vector 11378  Network.dyn_peer[16]  lookupTimeSig:vector  ETV
vector 11418  Network.dyn_peer[30]  lookupHopsSig:vector  ETV
vector 11419  Network.dyn_peer[30]  lookupStabilitySig:vector  ETV
vector 11420  Network.dyn_peer[30]  lookupTimeSig:vector  ETV
vector 11406  Network.dyn_peer[26]  lookupHopsSig:vector  ETV
vector 11407  Network.dyn_peer[26]  lookupStabilitySig:vector  ETV
vector 11408  Network.dyn_peer[26]  lookupTimeSig:vector  ETV
11328	137	20.10000001	1
11328	397	20.50000001	3
11328	870	21.101700690532	5
11328	1328	21.504914779151	6
11328	1613	21.710268173494	1
11328	1704	21.807220228981	6
11328	2018	22.013361433784	2
11328	2537	22.413361433784	3
11328	3427	23.216358951786	7
11328	4080	23.725007708231	4
11328	4683	24.229438086219	4
11328	5347	24.736645975871	5
11328	5890	25.136645975871	3
11328	6210	25.350169623377	3
11328	6415	25.553413111785	1
11328	7288	26.361840176173	8
11328	8467	27.361881840567	5
11328	9461	28.267513121457	8
11328	9606	28.37219540049	1
11328	10096	28.77219540049	3
11328	10336	28.978913050665	1
11328	11138	29.56242014717	2
11328	11767	29.96252015717	4
11328	12358	30.46252015717	4
11328	12871	30.90524669413	3
11328	12891	30.90534670413	0
11328	13284	31.20534670413	2
11328	13536	31.411520961811	1
11328	13663	31.513857203884	1
11328	14231	32.05854423675	3
11328	15064	32.665312287686	5
11328	15401	32.890654481873	4
11328	15535	32.990754491873	1
11328	16346	33.590754491873	6
11328	16571	33.792370675187	1
11328	17248	34.397913378744	5
11328	17544	34.693281441111	3
11328	18058	35.09396377662	5
11328	18315	35.29396377662	1
11328	19160	35.953198188591	4
11328	19418	36.203852435793	9
11328	19495	36.27053016407	8
11328	19728	36.506865534191	2
11328	19744	36.506965544191	0
11328	20170	37.006965544191	4
11328	20680	37.409356835048	4
11328	21253	37.909456845048	5
11328	22026	38.566455026514	1
11328	22501	38.874921550343	4
11328	23964	40.15200570762	4
11328	24447	40.552973292663	2
11328	24660	40.752973292663	1
11328	25410	41.354564918011	5
11328	25526	41.445517531856	5
11328	25760	41.661130502986	2
11328	25990	41.864354882906	5
11328	26080	41.94895149594	4
11328	26765	42.554920431282	6
11328	27865	43.454920431282	8
11328	28230	43.721377391154	1
11328	28328	43.811994445527	9
11328	28488	43.957039627849	5
11328	28679	44.126648398721	3
11328	29110	44.534516411679	4
11328	29848	45.134516411679	6
11328	29971	45.240618981171	1
11328	30293	45.541934138519	2
11328	31401	46.444786887488	10
11328	31994	46.944786887488	5
11328	32244	47.144886897488	2
11328	32767	47.544886897488	3
11328	33506	48.148633823893	5
11328	34083	48.648733833893	5
11328	34327	48.848733833893	1
11328	34707	49.149884273423	2
11328	34934	49.366760809639	1
11328	36900	51.171023069336	19
11328	37232	51.471023069336	2
11328	38359	52.475495721076	10
11328	39187	53.093178070472	4
11328	39396	53.281563698393	7
11328	39719	53.601409209457	4
11328	39893	53.783709847361	4
11328	40084	53.893509617691	1
11328	40335	54.093509617691	1
11328	41573	55.019747290414	9
11328	42356	55.823379054134	6
11328	42376	55.828863731679	9
11328	42658	56.130597967518	2
11328	42668	56.133745249572	2
11328	43231	56.633845259572	6
11328	43697	57.033845259572	3
11328	45125	58.233945269572	13
11328	45735	58.833945269572	5
11328	45858	58.951455072034	5
11328	45955	59.03586978173	2
11328	46679	59.654468021404	7
11328	47057	59.937282397024	10
11328	47129	59.974092844614	10
11328	47231	60.063160073518	3
11328	47395	60.170370265907	1
11328	48124	60.782180761191	4
11328	48219	60.870370265907	6
11328	48322	60.983808798334	1
11328	48737	61.393284009075	4
11328	49268	61.993284009075	6
11328	49508	62.196304051931	1
11328	49865	62.504888380534	2
11328	50131	62.71245913934	2
11328	50785	63.21245913934	5
11328	51435	63.725402477859	4
11328	51712	64.012296057178	4
11328	51992	64.318117657317	3
11328	52549	64.918117657317	5
11328	53171	65.503856573688	3
11328	53224	65.51853517721	5
11328	53519	65.723631632926	2
11328	54197	66.323631632926	5
11328	54445	66.527209352852	1
11328	54858	66.833094797247	3
11328	55705	67.433094797247	5
11328	56090	67.734401385857	2
11328	56385	67.935722754186	1
11328	56646	68.135646199115	5
11328	57337	68.644251883058	7
11328	57629	68.937081713107	8
11328	58226	69.346752271869	5
11328	59024	69.946752271869	5
11328	59539	70.449706664895	4
11328	60387	71.149806674895	8
11328	61429	71.949806674895	9
11328	61735	72.159648792453	1
11328	62554	72.869077298324	7
11328	63805	74.069077298324	12
11328	64400	74.577824694024	4
11328	65057	75.104198688023	3
11328	65441	75.406495171842	3
11328	65905	75.806495171842	3
11328	66557	76.314672149248	3
11328	67038	76.718034838226	4
11328	67067	76.719949059248	0
11328	67424	77.019949059248	2
11328	68043	77.529601159912	4
11328	68062	77.529701169912	0
11328	68370	77.829701169912	2
11328	68593	78.035200190691	1
11328	69536	78.835300200691	10
11328	70935	80.135300200691	12
11328	71878	80.844706669398	6
11328	72060	80.957457446374	6
11328	72536	81.294267847087	1
11328	73386	81.900762138375	3
11328	73820	82.28663470224	2
11328	74019	82.48663470224	1
11328	74855	83.090311523263	6
11328	74860	83.092741951502	6
11328	75243	83.392841961502	3
11328	76579	84.492841961502	10
11328	77261	84.993420918727	4
11328	77745	85.388200248424	2
11328	77879	85.474263192055	5
11328	78415	85.892697391219	5
11328	78719	86.092797401219	2
11328	79216	86.492797401219	3
11328	79759	86.992897411219	6
11328	80171	87.392897411219	3
11328	80373	87.594706174446	1
11328	81170	88.300017406489	7
11328	81708	88.718552374111	6
11328	81847	88.833913249946	4
11328	81906	88.906913162351	5
11328	82469	89.307013172351	4
11328	83339	90.007013172351	6
11328	83894	90.413729413936	3
11328	84153	90.56308641539	3
11328	84464	90.86406364592	2
11328	84497	90.918251124186	5
11328	85300	91.518772401123	6
11328	85951	92.051237514041	3
11328	86071	92.149734998556	2
11328	86730	92.64987925422	5
11328	86998	92.84987925422	1
11328	88277	93.854536483924	11
11328	88610	94.165194175049	2
11328	89316	94.667168983948	4
11328	90997	95.87138700261	14
11328	91383	96.27138700261	4
11328	92713	97.380038476784	11
11328	93547	98.081655016962	6
11328	94231	98.624592558844	4
11328	94300	98.68342105694	6
11328	94972	99.183606498484	5
11328	95891	99.883606498484	6
11328	96788	100.683827687488	7
11328	97085	100.952697889258	8
11328	97320	101.189624842039	5
11328	98113	101.833349756764	3
11328	98770	102.333449766764	5
11328	99028	102.533449766764	1
11328	99496	102.945237785174	4
11328	100369	103.745237785174	7
11328	101201	104.450937275603	7
11328	101620	104.850937275603	3
11328	102210	105.358097243658	4
11328	102699	105.765577372279	3
11328	102926	105.968799389427	2
11328	103111	106.102567311997	5
11328	103189	106.184275004372	3
11328	103320	106.2903442946	1
11328	103650	106.5903442946	2
11328	103857	106.799429747501	1
11328	104063	106.999924364545	2
11328	104382	107.299924364545	2
11328	105403	108.212016460346	10
11328	105410	108.214513985189	10
11328	105969	108.715352223946	4
11328	105975	108.717295881311	4
11328	106274	108.92565452773	1
11328	106287	108.931040614919	1
11328	107314	109.732304047342	10
11328	107497	109.932304047342	1
11328	108009	110.332738409592	4
11328	108306	110.597753629468	5
11328	108507	110.735940730741	3
11328	108908	111.037161916649	3
11328	109090	111.237161916649	1
11328	109452	111.550488744543	2
11328	109789	111.850588754543	3
11328	110204	112.250588754543	3
11328	110618	112.657204287411	2
11328	111375	113.162368261208	6
11328	112845	114.462368261208	14
11328	113075	114.676711146346	1
11328	113536	115.080045174207	4
11328	114334	115.680045174207	6
11328	114714	116.073358827577	4
11328	114980	116.290275011152	2
11328	115052	116.381070819972	7
11328	115111	116.426152197466	5
11328	115125	116.43832271601	5
11328	115276	116.546554192883	1
11328	115660	116.846554192883	2
11328	116292	117.346654202883	5
11328	116686	117.646654202883	2
11328	116911	117.849022027622	1
11328	117285	118.250979268208	3
11328	117359	118.305000856986	4
11328	117671	118.612528097079	2
11328	117743	118.652098570549	6
11328	117874	118.759254757852	5
11328	117976	118.852198570549	1
11328	117993	118.859428800776	1
11328	118960	119.759528810776	9
11328	119419	120.159528810776	3
11328	119794	120.439928576419	1
11328	120050	120.657843872962	1
11328	120054	120.662418021613	5
11328	120885	121.376794046837	6
11328	120887	121.377315428525	6
11328	121126	121.585304652317	1
11328	121251	121.685404662317	1
11328	121659	121.985404662317	3
11328	121871	122.187017574384	1
11328	122485	122.685792749824	3
11328	123113	123.19318639777	6
11328	123607	123.599949140905	3
11328	124393	124.200049150905	7
11328	124957	124.700049150905	4
11328	125493	125.205964488331	4
11328	125837	125.513129370133	2
11328	127115	126.613493092827	14
11328	128358	127.594397474041	5
11328	128597	127.795982088395	1
11328	128615	127.815025296789	11
11328	128950	128.119348647294	2
11328	129075	128.220268487948	1
11328	129259	128.401056961384	5
11328	129505	128.606684006775	1
11328	130266	129.206784016775	6
11328	131215	130.006784016775	7
11328	131650	130.316005263557	2
11328	131995	130.621264657317	2
11328	132133	130.723870265138	1
11328	132784	131.323870265138	5
11328	133438	131.832936607961	4
11328	133663	132.033036617961	3
11328	134131	132.433036617961	3
11328	135092	133.145730877067	6
11328	135195	133.236377675935	3
11328	135310	133.326418453559	5
11328	135377	133.354609944326	1
11328	135597	133.540794653006	2
11328	135795	133.731684247289	3
11329	137	20.10000001	0.875
11329	397	20.50000001	0.625
11329	870	21.101700690532	0.375
11329	1328	21.504914779151	0.25
11329	1613	21.710268173494	0.875
11329	1704	21.807220228981	0.25
11329	2018	22.013361433784	0.75
11329	2537	22.413361433784	0.625
11329	3427	23.216358951786	0.125
11329	4080	23.725007708231	0.5
11329	4683	24.229438086219	0.5
11329	5347	24.736645975871	0.375
11329	5890	25.136645975871	0.625
11329	6210	25.350169623377	0.625
11329	6415	25.553413111785	0.875
11329	7288	26.361840176173	0
11329	8467	27.361881840567	0.375
11329	9461	28.267513121457	0
11329	9606	28.37219540049	0.875
11329	10096	28.77219540049	0.625
11329	10336	28.978913050665	0.875
11329	11138	29.56242014717	0.75
11329	11767	29.96252015717	0.5
11329	12358	30.46252015717	0.5
11329	12871	30.90524669413	0.625
11329	12891	30.90534670413	1
11329	13284	31.20534670413	0.75
11329	13536	31.411520961811	0.875
11329	13663	31.513857203884	0.875
11329	14231	32.05854423675	0.625
11329	15064	32.665312287686	0.375
11329	15401	32.890654481873	0.5
11329	15535	32.990754491873	0.875
11329	16346	33.590754491873	0.25
11329	16571	33.792370675187	0.875
11329	17248	34.397913378744	0.375
11329	17544	34.693281441111	0.625
11329	18058	35.09396377662	0.375
11329	18315	35.29396377662	0.875
11329	19160	35.953198188591	0.5
11329	19418	36.203852435793	-0.125
11329	19495	36.27053016407	0
11329	19728	36.506865534191	0.75
11329	19744	36.506965544191	1
11329	20170	37.006965544191	0.5
11329	20680	37.409356835048	0.5
11329	21253	37.909456845048	0.375
11329	22026	38.566455026514	0.875
11329	22501	38.874921550343	0.5
11329	23964	40.15200570762	0.5
11329	24447	40.552973292663	0.75
11329	24660	40.752973292663	0.875
11329	25410	41.354564918011	0.375
11329	25526	41.445517531856	0.375
11329	25760	41.661130502986	0.75
11329	25990	41.864354882906	0.375
11329	26080	41.94895149594	0.5
11329	26765	42.554920431282	0.25
11329	27865	43.454920431282	0
11329	28230	43.721377391154	0.875
11329	28328	43.811994445527	-0.125
11329	28488	43.957039627849	0.375
11329	28679	44.126648398721	0.625
11329	29110	44.534516411679	0.5
11329	29848	45.134516411679	0.25
11329	29971	45.240618981171	0.875
11329	30293	45.541934138519	0.75
11329	31401	46.444786887488	-0.25
11329	31994	46.944786887488	0.375
11329	32244	47.144886897488	0.75
11329	32767	47.544886897488	0.625
11329	33506	48.148633823893	0.375
11329	34083	48.648733833893	0.375
11329	34327	48.848733833893	0.875
11329	34707	49.149884273423	0.75
11329	34934	49.366760809639	0.875
11329	36900	51.171023069336	-1.375
11329	37232	51.471023069336	0.75
11329	38359	52.475495721076	-0.25
11329	39187	53.093178070472	0.5
11329	39396	53.281563698393	0.125
11329	39719	53.601409209457	0.5
11329	39893	53.783709847361	0.5
11329	40084	53.893509617691	0.875
11329	40335	54.093509617691	0.88888888806105
11329	41573	55.019747290414	-0.125
11329	42356	55.823379054134	0.25
11329	42376	55.828863731679	-0.125
11329	42658	56.130597967518	0.75
11329	42668	56.133745249572	0.75
11329	43231	56.633845259572	0.25
11329	43697	57.033845259572	0.625
11329	45125	58.233945269572	-0.625
11329	45735	58.833945269572	0.375
11329	45858	58.951455072034	0.375
11329	45955	59.03586978173	0.75
11329	46679	59.654468021404	0.125
11329	47057	59.937282397024	-0.25
11329	47129	59.974092844614	-0.25
11329	47231	60.063160073518	0.625
11329	47395	60.170370265907	0.875
11329	48124	60.782180761191	0.5
11329	48219	60.870370265907	0.25
11329	48322	60.983808798334	0.875
11329	48737	61.393284009075	0.5
11329	49268	61.993284009075	0.25
11329	49508	62.196304051931	0.875
11329	49865	62.504888380534	0.75
11329	50131	62.71245913934	0.75
11329	50785	63.21245913934	0.375
11329	51435	63.725402477859	0.5
11329	51712	64.012296057178	0.5
11329	51992	64.318117657317	0.625
11329	52549	64.918117657317	0.375
11329	53171	65.503856573688	0.625
11329	53224	65.51853517721	0.375
11329	53519	65.723631632926	0.75
11329	54197	66.323631632926	0.375
11329	54445	66.527209352852	0.875
11329	54858	66.833094797247	0.625
11329	55705	67.433094797247	0.375
11329	56090	67.734401385857	0.75
11329	56385	67.935722754186	0.875
11329	56646	68.135646199115	0.375
11329	57337	68.644251883058	0.125
11329	57629	68.937081713107	0
11329	58226	69.346752271869	0.375
11329	59024	69.946752271869	0.375
11329	59539	70.449706664895	0.5
11329	60387	71.149806674895	0
11329	61429	71.949806674895	-0.125
11329	61735	72.159648792453	0.875
11329	62554	72.869077298324	0.125
11329	63805	74.069077298324	-0.5
11329	64400	74.577824694024	0.5
11329	65057	75.104198688023	0.625
11329	65441	75.406495171842	0.625
11329	65905	75.806495171842	0.625
11329	66557	76.314672149248	0.625
11329	67038	76.718034838226	0.5
11329	67067	76.719949059248	1
11329	67424	77.019949059248	0.75
11329	68043	77.529601159912	0.5
11329	68062	77.529701169912	1
11329	68370	77.829701169912	0.75
11329	68593	78.035200190691	0.875
11329	69536	78.835300200691	-0.25
11329	70935	80.135300200691	-0.5
11329	71878	80.844706669398	0.25
11329	72060	80.957457446374	0.25
11329	72536	81.294267847087	0.875
11329	73386	81.900762138375	0.625
11329	73820	82.28663470224	0.75
11329	74019	82.48663470224	0.875
11329	74855	83.090311523263	0.25
11329	74860	83.092741951502	0.25
11329	75243	83.392841961502	0.625
11329	76579	84.492841961502	-0.25
11329	77261	84.993420918727	0.5
11329	77745	85.388200248424	0.75
11329	77879	85.474263192055	0.375
11329	78415	85.892697391219	0.375
11329	78719	86.092797401219	0.75
11329	79216	86.492797401219	0.625
11329	79759	86.992897411219	0.25
11329	80171	87.392897411219	0.625
11329	80373	87.594706174446	0.875
11329	81170	88.300017406489	0.125
11329	81708	88.718552374111	0.25
11329	81847	88.833913249946	0.5
11329	81906	88.906913162351	0.375
11329	82469	89.307013172351	0.5
11329	83339	90.007013172351	0.25
11329	83894	90.413729413936	0.625
11329	84153	90.56308641539	0.625
11329	84464	90.86406364592	0.75
11329	84497	90.918251124186	0.375
11329	85300	91.518772401123	0.25
11329	85951	92.051237514041	0.625
11329	86071	92.149734998556	0.75
11329	86730	92.64987925422	0.375
11329	86998	92.84987925422	0.875
11329	88277	93.854536483924	-0.375
11329	88610	94.165194175049	0.75
11329	89316	94.667168983948	0.5
11329	90997	95.87138700261	-0.75
11329	91383	96.27138700261	0.5
11329	92713	97.380038476784	-0.375
11329	93547	98.081655016962	0.25
11329	94231	98.624592558844	0.5
11329	94300	98.68342105694	0.25
11329	94972	99.183606498484	0.375
11329	95891	99.883606498484	0.25
11329	96788	100.683827687488	0.125
11329	97085	100.952697889258	0
11329	97320	101.189624842039	0.375
11329	98113	101.833349756764	0.625
11329	98770	102.333449766764	0.375
11329	99028	102.533449766764	0.875
11329	99496	102.945237785174	0.5
11329	100369	103.745237785174	0.125
11329	101201	104.450937275603	0.125
11329	101620	104.850937275603	0.625
11329	102210	105.358097243658	0.5
11329	102699	105.765577372279	0.625
11329	102926	105.968799389427	0.75
11329	103111	106.102567311997	0.375
11329	103189	106.184275004372	0.625
11329	103320	106.2903442946	0.875
11329	103650	106.5903442946	0.75
11329	103857	106.799429747501	0.875
11329	104063	106.999924364545	0.75
11329	104382	107.299924364545	0.75
11329	105403	108.212016460346	-0.25
11329	105410	108.214513985189	-0.25
11329	105969	108.715352223946	0.5
11329	105975	108.717295881311	0.5
11329	106274	108.92565452773	0.875
11329	106287	108.931040614919	0.875
11329	107314	109.732304047342	-0.25
11329	107497	109.932304047342	0.875
11329	108009	110.332738409592	0.5
11329	108306	110.597753629468	0.375
11329	108507	110.735940730741	0.625
11329	108908	111.037161916649	0.625
11329	109090	111.237161916649	0.875
11329	109452	111.550488744543	0.75
11329	109789	111.850588754543	0.625
11329	110204	112.250588754543	0.625
11329	110618	112.657204287411	0.75
11329	111375	113.162368261208	0.25
11329	112845	114.462368261208	-0.75
11329	113075	114.676711146346	0.875
11329	113536	115.080045174207	0.5
11329	114334	115.680045174207	0.25
11329	114714	116.073358827577	0.5
11329	114980	116.290275011152	0.75
11329	115052	116.381070819972	0.125
11329	115111	116.426152197466	0.375
11329	115125	116.43832271601	0.375
11329	115276	116.546554192883	0.875
11329	115660	116.846554192883	0.75
11329	116292	117.346654202883	0.375
11329	116686	117.646654202883	0.75
11329	116911	117.849022027622	0.875
11329	117285	118.250979268208	0.625
11329	117359	118.305000856986	0.5
11329	117671	118.612528097079	0.75
11329	117743	118.652098570549	0.33333331346512
11329	117874	118.759254757852	0.375
11329	117976	118.852198570549	0.875
11329	117993	118.859428800776	0.875
11329	118960	119.759528810776	-0.125
11329	119419	120.159528810776	0.625
11329	119794	120.439928576419	0.875
11329	120050	120.657843872962	0.875
11329	120054	120.662418021613	0.375
11329	120885	121.376794046837	0.25
11329	120887	121.377315428525	0.25
11329	121126	121.585304652317	0.875
11329	121251	121.685404662317	0.875
11329	121659	121.985404662317	0.625
11329	121871	122.187017574384	0.875
11329	122485	122.685792749824	0.625
11329	123113	123.19318639777	0.25
11329	123607	123.599949140905	0.625
11329	124393	124.200049150905	0.125
11329	124957	124.700049150905	0.5
11329	125493	125.205964488331	0.5
11329	125837	125.513129370133	0.75
11329	127115	126.613493092827	-0.75
11329	128358	127.594397474041	0.375
11329	128597	127.795982088395	0.875
11329	128615	127.815025296789	-0.375
11329	128950	128.119348647294	0.75
11329	129075	128.220268487948	0.875
11329	129259	128.401056961384	0.375
11329	129505	128.606684006775	0.875
11329	130266	129.206784016775	0.25
11329	131215	130.006784016775	0.125
11329	131650	130.316005263557	0.75
11329	131995	130.621264657317	0.75
11329	132133	130.723870265138	0.875
11329	132784	131.323870265138	0.375
11329	133438	131.832936607961	0.5
11329	133663	132.033036617961	0.625
11329	134131	132.433036617961	0.625
11329	135092	133.145730877067	0.25
11329	135195	133.236377675935	0.625
11329	135310	133.326418453559	0.375
11329	135377	133.354609944326	0.875
11329	135597	133.540794653006	0.75
11329	135795	133.731684247289	0.625
11330	137	20.10000001	0.1
11330	397	20.50000001	0.4
11330	870	21.101700690532	0.6
11330	1328	21.504914779151	0.5
11330	1613	21.710268173494	0.2
11330	1704	21.807220228981	0.7
11330	2018	22.013361433784	0.2
11330	2537	22.413361433784	0.4
11330	3427	23.216358951786	0.8
11330	4080	23.725007708231	0.5
11330	4683	24.229438086219	0.5
11330	5347	24.736645975871	0.5
11330	5890	25.136645975871	0.4
11330	6210	25.350169623377	0.4
11330	6415	25.553413111785	0.2
11330	7288	26.361840176173	0.8
11330	8467	27.361881840567	0.4
11330	9461	28.267513121457	0.9
11330	9606	28.37219540049	0.1
11330	10096	28.77219540049	0.4
11330	10336	28.978913050665	0.2
11330	11138	29.56242014717	0.3
11330	11767	29.96252015717	0.4
11330	12358	30.46252015717	0.5
11330	12871	30.90524669413	0.4
11330	12891	30.90534670413	0
11330	13284	31.20534670413	0.3
11330	13536	31.411520961811	0.2
11330	13663	31.513857203884	0.1
11330	14231	32.05854423675	0.4
11330	15064	32.665312287686	0.6
11330	15401	32.890654481873	0.5
11330	15535	32.990754491873	0.1
11330	16346	33.590754491873	0.6
11330	16571	33.792370675187	0.2
11330	17248	34.397913378744	0.6
11330	17544	34.693281441111	0.4
11330	18058	35.09396377662	0.4
11330	18315	35.29396377662	0.2
11330	19160	35.953198188591	0.5
11330	19418	36.203852435793	0.9
11330	19495	36.27053016407	0.8
11330	19728	36.506865534191	0.3
11330	19744	36.506965544191	0
11330	20170	37.006965544191	0.5
11330	20680	37.409356835048	0.4
11330	21253	37.909456845048	0.5
11330	22026	38.566455026514	0.2
11330	22501	38.874921550343	0.3
11330	23964	40.15200570762	0.4
11330	24447	40.552973292663	0.1
11330	24660	40.752973292663	0.2
11330	25410	41.354564918011	0.6
11330	25526	41.445517531856	0.6
11330	25760	41.661130502986	0.3
11330	25990	41.864354882906	0.6
11330	26080	41.94895149594	0.5
11330	26765	42.554920431282	0.6
11330	27865	43.454920431282	0.9
11330	28230	43.721377391154	0.2
11330	28328	43.811994445527	1
11330	28488	43.957039627849	0.5
11330	28679	44.126648398721	0.4
11330	29110	44.534516411679	0.4
11330	29848	45.134516411679	0.6
11330	29971	45.240618981171	0.1
11330	30293	45.541934138519	0.3
11330	31401	46.444786887488	0.9
11330	31994	46.944786887488	0.5
11330	32244	47.144886897488	0.2
11330	32767	47.544886897488	0.4
11330	33506	48.148633823893	0.6
11330	34083	48.648733833893	0.5
11330	34327	48.848733833893	0.2
11330	34707	49.149884273423	0.3
11330	34934	49.366760809639	0.2
11330	36900	51.171023069336	1.8
11330	37232	51.471023069336	0.3
11330	38359	52.475495721076	1
11330	39187	53.093178070472	0.5
11330	39396	53.281563698393	0.8
11330	39719	53.601409209457	0.5
11330	39893	53.783709847361	0.5
11330	40084	53.893509617691	0.1
11330	40335	54.093509617691	0.2
11330	41573	55.019747290414	0.9
11330	42356	55.823379054134	0.6
11330	42376	55.828863731679	0.8
11330	42658	56.130597967518	0.3
11330	42668	56.133745249572	0.3
11330	43231	56.633845259572	0.5
11330	43697	57.033845259572	0.4
11330	45125	58.233945269572	1.2
11330	45735	58.833945269572	0.6
11330	45858	58.951455072034	0.6
11330	45955	59.03586978173	0.2
11330	46679	59.654468021404	0.7
11330	47057	59.937282397024	0.9
11330	47129	59.974092844614	0.9
11330	47231	60.063160073518	0.4
11330	47395	60.170370265907	0.1
11330	48124	60.782180761191	0.5
11330	48219	60.870370265907	0.7
11330	48322	60.983808798334	0.2
11330	48737	61.393284009075	0.4
11330	49268	61.993284009075	0.6
11330	49508	62.196304051931	0.2
11330	49865	62.504888380534	0.3
11330	50131	62.71245913934	0.2
11330	50785	63.21245913934	0.5
11330	51435	63.725402477859	0.5
11330	51712	64.012296057178	0.5
11330	51992	64.318117657317	0.3
11330	52549	64.918117657317	0.6
11330	53171	65.503856573688	0.4
11330	53224	65.51853517721	0.6
11330	53519	65.723631632926	0.2
11330	54197	66.323631632926	0.6
11330	54445	66.527209352852	0.2
11330	54858	66.833094797247	0.3
11330	55705	67.433094797247	0.6
11330	56090	67.734401385857	0.3
11330	56385	67.935722754186	0.2
11330	56646	68.135646199115	0.5
11330	57337	68.644251883058	0.7
11330	57629	68.937081713107	0.8
11330	58226	69.346752271869	0.4
11330	59024	69.946752271869	0.6
11330	59539	70.449706664895	0.5
11330	60387	71.149806674895	0.7
11330	61429	71.949806674895	0.8
11330	61735	72.159648792453	0.2
11330	62554	72.869077298324	0.7
11330	63805	74.069077298324	1.2
11330	64400	74.577824694024	0.5
11330	65057	75.104198688023	0.4
11330	65441	75.406495171842	0.3
11330	65905	75.806495171842	0.4
11330	66557	76.314672149248	0.3
11330	67038	76.718034838226	0.4
11330	67067	76.719949059248	0
11330	67424	77.019949059248	0.3
11330	68043	77.529601159912	0.5
11330	68062	77.529701169912	0
11330	68370	77.829701169912	0.3
11330	68593	78.035200190691	0.2