version 2
run Stability-norelink-108-20130525-23:21:13-22103
attr configname Stability-norelink
attr datetime 20130525-23:21:13
attr experiment Stability
attr inifile omnetpp.ini
attr iterationvars $0=1e-4
attr iterationvars2 "$0=1e-4, $repetition=8"
attr measurement $0=1e-4
attr network Network
attr processid 22103
attr repetition 8
attr replication #8
attr resultdir results
attr runnumber 108
attr seedset 108

vector 10371  Network.dyn_peer[1]  lookupHopsSig:vector  ETV
vector 10372  Network.dyn_peer[1]  lookupStabilitySig:vector  ETV
vector 10373  Network.dyn_peer[1]  lookupTimeSig:vector  ETV
vector 10395  Network.dyn_peer[9]  lookupHopsSig:vector  ETV
vector 10396  Network.dyn_peer[9]  lookupStabilitySig:vector  ETV
vector 10397  Network.dyn_peer[9]  lookupTimeSig:vector  ETV
vector 10401  Network.dyn_peer[11]  lookupHopsSig:vector  ETV
vector 10402  Network.dyn_peer[11]  lookupStabilitySig:vector  ETV
vector 10403  Network.dyn_peer[11]  lookupTimeSig:vector  ETV
vector 10413  Network.dyn_peer[15]  lookupHopsSig:vector  ETV
vector 10414  Network.dyn_peer[15]  lookupStabilitySig:vector  ETV
vector 10415  Network.dyn_peer[15]  lookupTimeSig:vector  ETV
vector 10419  Network.dyn_peer[17]  lookupHopsSig:vector  ETV
vector 10420  Network.dyn_peer[17]  lookupStabilitySig:vector  ETV
vector 10421  Network.dyn_peer[17]  lookupTimeSig:vector  ETV
vector 10446  Network.dyn_peer[26]  lookupHopsSig:vector  ETV
vector 10447  Network.dyn_peer[26]  lookupStabilitySig:vector  ETV
vector 10448  Network.dyn_peer[26]  lookupTimeSig:vector  ETV
vector 10452  Network.dyn_peer[28]  lookupHopsSig:vector  ETV
vector 10453  Network.dyn_peer[28]  lookupStabilitySig:vector  ETV
vector 10454  Network.dyn_peer[28]  lookupTimeSig:vector  ETV
vector 10374  Network.dyn_peer[2]  lookupHopsSig:vector  ETV
vector 10375  Network.dyn_peer[2]  lookupStabilitySig:vector  ETV
vector 10376  Network.dyn_peer[2]  lookupTimeSig:vector  ETV
vector 10386  Network.dyn_peer[6]  lookupHopsSig:vector  ETV
vector 10387  Network.dyn_peer[6]  lookupStabilitySig:vector  ETV
vector 10388  Network.dyn_peer[6]  lookupTimeSig:vector  ETV
vector 10392  Network.dyn_peer[8]  lookupHopsSig:vector  ETV
vector 10393  Network.dyn_peer[8]  lookupStabilitySig:vector  ETV
vector 10394  Network.dyn_peer[8]  lookupTimeSig:vector  ETV
vector 10404  Network.dyn_peer[12]  lookupHopsSig:vector  ETV
vector 10405  Network.dyn_peer[12]  lookupStabilitySig:vector  ETV
vector 10406  Network.dyn_peer[12]  lookupTimeSig:vector  ETV
vector 10416  Network.dyn_peer[16]  lookupHopsSig:vector  ETV
vector 10417  Network.dyn_peer[16]  lookupStabilitySig:vector  ETV
vector 10418  Network.dyn_peer[16]  lookupTimeSig:vector  ETV
vector 10368  Network.dyn_peer[0]  lookupHopsSig:vector  ETV
vector 10369  Network.dyn_peer[0]  lookupStabilitySig:vector  ETV
vector 10370  Network.dyn_peer[0]  lookupTimeSig:vector  ETV
vector 10377  Network.dyn_peer[3]  lookupHopsSig:vector  ETV
vector 10378  Network.dyn_peer[3]  lookupStabilitySig:vector  ETV
vector 10379  Network.dyn_peer[3]  lookupTimeSig:vector  ETV
vector 10389  Network.dyn_peer[7]  lookupHopsSig:vector  ETV
vector 10390  Network.dyn_peer[7]  lookupStabilitySig:vector  ETV
vector 10391  Network.dyn_peer[7]  lookupTimeSig:vector  ETV
vector 10398  Network.dyn_peer[10]  lookupHopsSig:vector  ETV
vector 10399  Network.dyn_peer[10]  lookupStabilitySig:vector  ETV
vector 10400  Network.dyn_peer[10]  lookupTimeSig:vector  ETV
vector 10407  Network.dyn_peer[13]  lookupHopsSig:vector  ETV
vector 10408  Network.dyn_peer[13]  lookupStabilitySig:vector  ETV
vector 10409  Network.dyn_peer[13]  lookupTimeSig:vector  ETV
vector 10431  Network.dyn_peer[21]  lookupHopsSig:vector  ETV
vector 10432  Network.dyn_peer[21]  lookupStabilitySig:vector  ETV
vector 10433  Network.dyn_peer[21]  lookupTimeSig:vector  ETV
vector 10434  Network.dyn_peer[22]  lookupHopsSig:vector  ETV
vector 10435  Network.dyn_peer[22]  lookupStabilitySig:vector  ETV
vector 10436  Network.dyn_peer[22]  lookupTimeSig:vector  ETV
vector 10440  Network.dyn_peer[24]  lookupHopsSig:vector  ETV
vector 10441  Network.dyn_peer[24]  lookupStabilitySig:vector  ETV
vector 10442  Network.dyn_peer[24]  lookupTimeSig:vector  ETV
vector 10458  Network.dyn_peer[30]  lookupHopsSig:vector  ETV
vector 10459  Network.dyn_peer[30]  lookupStabilitySig:vector  ETV
vector 10460  Network.dyn_peer[30]  lookupTimeSig:vector  ETV
vector 10380  Network.dyn_peer[4]  lookupHopsSig:vector  ETV
vector 10381  Network.dyn_peer[4]  lookupStabilitySig:vector  ETV
vector 10382  Network.dyn_peer[4]  lookupTimeSig:vector  ETV
vector 10383  Network.dyn_peer[5]  lookupHopsSig:vector  ETV
vector 10384  Network.dyn_peer[5]  lookupStabilitySig:vector  ETV
vector 10385  Network.dyn_peer[5]  lookupTimeSig:vector  ETV
vector 10422  Network.dyn_peer[18]  lookupHopsSig:vector  ETV
vector 10423  Network.dyn_peer[18]  lookupStabilitySig:vector  ETV
vector 10424  Network.dyn_peer[18]  lookupTimeSig:vector  ETV
vector 10425  Network.dyn_peer[19]  lookupHopsSig:vector  ETV
vector 10426  Network.dyn_peer[19]  lookupStabilitySig:vector  ETV
vector 10427  Network.dyn_peer[19]  lookupTimeSig:vector  ETV
vector 10443  Network.dyn_peer[25]  lookupHopsSig:vector  ETV
vector 10444  Network.dyn_peer[25]  lookupStabilitySig:vector  ETV
vector 10445  Network.dyn_peer[25]  lookupTimeSig:vector  ETV
vector 10449  Network.dyn_peer[27]  lookupHopsSig:vector  ETV
vector 10450  Network.dyn_peer[27]  lookupStabilitySig:vector  ETV
vector 10451  Network.dyn_peer[27]  lookupTimeSig:vector  ETV
vector 10455  Network.dyn_peer[29]  lookupHopsSig:vector  ETV
vector 10456  Network.dyn_peer[29]  lookupStabilitySig:vector  ETV
vector 10457  Network.dyn_peer[29]  lookupTimeSig:vector  ETV
vector 10410  Network.dyn_peer[14]  lookupHopsSig:vector  ETV
vector 10411  Network.dyn_peer[14]  lookupStabilitySig:vector  ETV
vector 10412  Network.dyn_peer[14]  lookupTimeSig:vector  ETV
vector 10428  Network.dyn_peer[20]  lookupHopsSig:vector  ETV
vector 10429  Network.dyn_peer[20]  lookupStabilitySig:vector  ETV
vector 10430  Network.dyn_peer[20]  lookupTimeSig:vector  ETV
vector 10437  Network.dyn_peer[23]  lookupHopsSig:vector  ETV
vector 10438  Network.dyn_peer[23]  lookupStabilitySig:vector  ETV
vector 10439  Network.dyn_peer[23]  lookupTimeSig:vector  ETV
vector 10461  Network.dyn_peer[31]  lookupHopsSig:vector  ETV
vector 10462  Network.dyn_peer[31]  lookupStabilitySig:vector  ETV
vector 10463  Network.dyn_peer[31]  lookupTimeSig:vector  ETV
10368	210	20.2000001	2
10368	815	21.2000001	9
10368	1293	21.606172498378	3
10368	1307	21.608633186804	3
10368	1419	21.701801346658	3
10368	1933	22.102131725868	5
10368	2258	22.302131725868	1
10368	3286	23.011845920173	7
10368	3635	23.320463432218	2
10368	3937	23.529468071318	1
10368	4047	23.629697682853	1
10368	4165	23.727499661988	4
10368	4188	23.731440527179	1
10368	4442	23.94434611954	2
10368	4576	24.048490733014	1
10368	5563	24.943006335249	4
10368	6298	25.543006335249	6
10368	7178	26.155301913817	5
10368	7440	26.338394785281	7
10368	7580	26.457468682443	3
10368	7680	26.538622526249	2
10368	8024	26.844161532326	3
10368	8336	27.144161532326	2
10368	9377	28.044261632326	9
10368	9759	28.344261632326	2
10368	10500	28.952041778843	6
10368	10806	29.152380452578	3
10368	11191	29.457303261331	2
10368	11885	30.0666926269	5
10368	12235	30.368307351893	2
10368	12251	30.372114581124	0
10368	13244	31.19815862157	4
10368	13819	31.69815862157	4
10368	14047	31.902935417912	1
10368	14355	32.208893695702	2
10368	14699	32.515204877254	3
10368	15110	32.915204877254	3
10368	15328	33.119669409413	2
10368	15829	33.519669409413	3
10368	16474	34.129620783524	5
10368	16959	34.531765974361	3
10368	18216	35.532962272289	10
10368	18669	35.939112762576	3
10368	18721	35.949725245017	6
10368	18972	36.151424826768	2
10368	19153	36.351424826768	1
10368	19503	36.654620739449	2
10368	20325	37.363189348186	7
10368	20722	37.673164168217	2
10368	20991	37.88304827052	1
10368	21579	38.398832622795	4
10368	21840	38.600187255205	1
10368	22460	39.022941549368	3
10368	22631	39.169733498701	3
10368	22783	39.279011040664	12
10368	23423	39.787124555733	4
10368	23570	39.926859886985	8
10368	23691	40.032258029417	1
10368	24012	40.332258029417	2
10368	25000	41.241581625407	9
10368	25353	41.494603128899	8
10368	25474	41.594703228899	1
10368	25743	41.794703228899	1
10368	26733	42.71113550338	6
10368	27048	43.01123560338	3
10368	27671	43.589804469753	1
10368	28340	44.093429153289	5
10368	28873	44.493429153289	3
10368	29382	44.895338440551	3
10368	29815	45.305315331788	3
10368	30236	45.708809639417	3
10368	30907	46.315840849239	7
10368	30928	46.325792099326	5
10368	30945	46.330402107327	12
10368	31852	47.134607371977	8
10368	32515	47.734607371977	5
10368	32930	48.044046697086	3
10368	33275	48.328290988976	4
10368	33539	48.532295678335	1
10368	33801	48.73823755447	2
10368	33820	48.746612781831	5
10368	34982	49.847198899368	12
10368	35599	50.447198899368	5
10368	36188	50.84892132099	3
10368	36329	50.959376761527	3
10368	36444	51.057427423235	1
10368	36876	51.362127976775	3
10368	36891	51.367146801123	2
10368	37247	51.667468164324	2
10368	37488	51.867568264324	2
10368	38094	52.367568264324	4
10368	38771	52.868419990855	5
10368	39030	53.106101147774	3
10368	39318	53.368697388443	4
10368	39848	53.770509036839	4
10368	41320	54.970509036839	12
10368	41790	55.375866340134	3
10368	42419	55.98296824005	6
10368	43287	56.683826910569	6
10368	43416	56.783916503489	7
10368	43556	56.89254498209	1
10368	44056	57.286553307876	6
10368	44332	57.486892613817	1
10368	44746	57.789627089121	3
10368	45149	58.189627089121	3
10368	45302	58.395507183617	1
10368	45431	58.497538396733	1
10368	45779	58.797538396733	2
10368	46068	59.046990623826	0
10368	46959	59.725615109292	5
10368	47493	60.125715209292	4
10368	47693	60.325715209292	1
10368	47963	60.534769761452	1
10368	48478	60.938509301612	3
10368	48500	60.945427521396	2
10368	49045	61.454447495165	4
10368	49048	61.455276029752	4
10368	49152	61.561717537453	1
10368	49548	61.961717537453	3
10368	50101	62.468414979195	4
10368	50312	62.66131367195	3
10368	50349	62.676654793906	1
10368	51167	63.278920138693	7
10368	51450	63.478920138693	1
10368	51683	63.679020238693	2
10368	52454	64.344319535469	3
10368	52610	64.479020238693	7
10368	52831	64.653454721547	3
10368	52848	64.666330088979	3
10368	54515	66.170431193099	16
10368	55764	67.370431193099	12
10368	56356	67.878209547367	4
10368	56545	68.080521768223	1
10368	56994	68.490402398293	4
10368	57409	68.890402398293	3
10368	58130	69.491945507779	5
10368	59677	70.897477206216	15
10368	60135	71.416335723037	3
10368	60236	71.502141198202	5
10368	60455	71.717827577341	2
10368	60466	71.720224797984	1
10368	60477	71.730759217189	1
10368	60739	71.936654360476	2
10368	61026	72.236654360476	2
10368	61311	72.443333362094	1
10368	61917	72.954789557608	5
10368	62249	73.238119833881	6
10368	62851	73.748061516653	5
10368	63430	74.348061516653	5
10368	64180	74.951876443568	5
10368	64413	75.194980279058	4
10368	64681	75.452383316817	4
10368	64740	75.504818140161	3
10368	65416	76.106354521899	5
10368	65438	76.127522743651	8
10368	65941	76.536877881673	4
10368	66738	77.236877881673	6
10368	67128	77.542810565375	3
10368	67503	77.846105278838	3
10368	68173	78.446105278838	7
10368	68433	78.651800700892	1
10368	68968	79.096120127668	1
10368	69342	79.400797948246	2
10368	69770	79.710552005191	3
10368	70044	79.910552005191	1
10368	70753	80.412593295861	5
10368	71157	80.716767924775	2
10368	71360	80.901501063363	2
10368	71660	81.204118911666	2
10368	71816	81.329486766776	6
10368	71980	81.509922321952	2
10368	73011	82.414390721661	10
10368	74670	83.98627134733	9
10368	74942	84.214390721661	18
10368	75433	84.62112984697	4
10368	75667	84.82112984697	1
10368	76162	85.230497807253	4
10368	76285	85.33759724918	1
10368	77103	86.03759724918	6
10368	77278	86.174190429898	3
10368	77728	86.477566217313	3
10368	78190	86.877566217313	3
10368	78485	87.182458559617	2
10368	79013	87.785656840717	5
10368	79214	87.98296124979	3
10368	79361	88.094388910752	2
10368	79646	88.299005538332	2
10368	80276	88.799005538332	5
10368	81043	89.402048069561	8
10368	81189	89.502148169561	1
10368	82028	90.202148169561	6
10368	82290	90.403771120526	1
10368	82519	90.608685579013	1
10368	82808	90.809401997053	2
10368	83081	91.009401997053	1
10368	83877	91.601690507212	2
10368	84202	91.805556663983	2
10368	84752	92.308252654939	4
10368	84864	92.411873482837	0
10368	85203	92.720108423257	2
10368	86315	93.53435117244	7
10368	86543	93.724258891184	10
10368	86552	93.732702882777	14
10368	87072	94.141876556246	4
10368	88436	95.297723619905	6
10368	89835	96.497723619905	11
10368	90294	96.897939581332	3
10368	90345	96.954946582379	3
10368	90554	97.104919857213	1
10368	90599	97.15739695072	3
10368	90959	97.462887068901	4
10368	91286	97.714013801969	5
10368	91882	98.123510642334	5
10368	93122	99.023510642334	8
10368	93524	99.381376786647	2
10368	93585	99.425339288761	4
10368	93901	99.686638633465	2
10368	94038	99.786738733465	1
10368	94561	100.186738733465	4
10368	94579	100.189315657875	0
10368	95474	100.777405842169	3
10368	97729	102.600847278535	2
10368	98241	103.000847278535	4
10368	98771	103.417530671122	3
10368	99374	103.923822266778	4
10368	99380	103.926316808435	4
10368	99632	104.131539217988	1
10368	99969	104.432062104813	3
10368	100405	104.732062104813	2
10368	100917	105.137511602685	3
10368	101190	105.341228372507	2
10368	101457	105.541228372507	1
10368	102128	106.048725764965	5
10368	102573	106.448725764965	4
10368	102868	106.648998104337	1
10368	104296	107.852079311044	12
10368	104318	107.85766063718	0
10368	104747	108.158154280941	2
10368	105275	108.559312510745	3
10368	105380	108.665323797582	3
10368	105751	108.9728287218	3
10368	106087	109.2728287218	2
10368	106480	109.581636264409	2
10368	106746	109.831486995652	2
10368	106766	109.851171074753	2
10368	107258	110.260851604841	5
10368	107493	110.460851604841	1
10368	107759	110.670735845754	1
10368	107954	110.874497590341	1
10368	108034	110.953346416075	0
10368	108587	111.476942215187	5
10368	108598	111.482614695726	5
10368	108747	111.582714795726	1
10368	109331	112.082714795726	5
10368	109589	112.289950030515	1
10368	110152	112.693858134959	3
10368	111347	113.700242128639	4
10368	111821	114.102891029775	15
10368	111902	114.200588034024	4
10368	112161	114.401802406154	3
10368	112169	114.404466301817	1
10368	112171	114.404555564998	2
10368	112667	114.804655664998	5
10368	114851	116.504655664998	20
10368	115318	116.823963609629	2
10368	115748	117.229368635029	3
10368	116019	117.436234029662	2
10368	116812	118.036234029662	5
10368	117572	118.643630925589	5
10368	117921	118.945610909321	3
10368	118505	119.445610909321	4
10368	118795	119.652817439681	1
10368	119103	119.855401365439	1
10368	120383	120.860066385747	11
10368	120406	120.879483144788	6
10368	121102	121.483297179256	7
10368	121736	121.983297179256	4
10368	122019	122.217898438866	3
10368	122373	122.52718569998	3
10368	123493	123.42718569998	10
10368	123859	123.630621416647	2
10368	125103	124.630621416647	9
10368	126263	125.731527979994	12
10368	126476	125.933060278928	1
10368	126857	126.33606964946	3
10368	127495	126.943244470171	6
10368	127835	127.262426042429	2
10368	128539	127.768963913019	4
10368	129707	128.678434895024	11
10368	130104	128.978434895024	2
10368	130788	129.450070969449	2
10368	131732	130.306219727489	5
10368	132070	130.706219727489	3
10368	133675	132.107703138108	14
10368	134106	132.512146262815	3
10368	134361	132.718950464417	1
10368	134759	133.05911457007	6
10368	135848	133.8659740502	10
10368	135980	133.9659740502	1
10368	136340	134.255091479238	0
10368	137005	134.855091479238	5
10368	137210	135.064249608508	1
10368	137233	135.083947350601	1
10368	137433	135.266464172204	1
10368	137502	135.299774057543	0
10369	210	20.2000001	0.75
10369	815	21.2000001	-0.125
10369	1293	21.606172498378	0.625
10369	1307	21.608633186804	0.625
10369	1419	21.701801346658	0.625
10369	1933	22.102131725868	0.375
10369	2258	22.302131725868	0.875
10369	3286	23.011845920173	0.125
10369	3635	23.320463432218	0.75
10369	3937	23.529468071318	0.875
10369	4047	23.629697682853	0.875
10369	4165	23.727499661988	0.5
10369	4188	23.731440527179	0.875
10369	4442	23.94434611954	0.75
10369	4576	24.048490733014	0.875
10369	5563	24.943006335249	0.5
10369	6298	25.543006335249	0.25
10369	7178	26.155301913817	0.375
10369	7440	26.338394785281	0.125
10369	7580	26.457468682443	0.625
10369	7680	26.538622526249	0.75
10369	8024	26.844161532326	0.625
10369	8336	27.144161532326	0.75
10369	9377	28.044261632326	-0.125
10369	9759	28.344261632326	0.75
10369	10500	28.952041778843	0.25
10369	10806	29.152380452578	0.625
10369	11191	29.457303261331	0.75
10369	11885	30.0666926269	0.375
10369	12235	30.368307351893	0.75
10369	12251	30.372114581124	1
10369	13244	31.19815862157	0.5
10369	13819	31.69815862157	0.5
10369	14047	31.902935417912	0.875
10369	14355	32.208893695702	0.75
10369	14699	32.515204877254	0.625
10369	15110	32.915204877254	0.625
10369	15328	33.119669409413	0.75
10369	15829	33.519669409413	0.625
10369	16474	34.129620783524	0.375
10369	16959	34.531765974361	0.625
10369	18216	35.532962272289	-0.25
10369	18669	35.939112762576	0.625
10369	18721	35.949725245017	0.25
10369	18972	36.151424826768	0.75
10369	19153	36.351424826768	0.875
10369	19503	36.654620739449	0.75
10369	20325	37.363189348186	0.125
10369	20722	37.673164168217	0.75
10369	20991	37.88304827052	0.875
10369	21579	38.398832622795	0.5
10369	21840	38.600187255205	0.875
10369	22460	39.022941549368	0.625
10369	22631	39.169733498701	0.625
10369	22783	39.279011040664	-0.5
10369	23423	39.787124555733	0.5
10369	23570	39.926859886985	0
10369	23691	40.032258029417	0.875
10369	24012	40.332258029417	0.75
10369	25000	41.241581625407	-0.125
10369	25353	41.494603128899	0
10369	25474	41.594703228899	0.875
10369	25743	41.794703228899	0.875
10369	26733	42.71113550338	0.25
10369	27048	43.01123560338	0.625
10369	27671	43.589804469753	0.875
10369	28340	44.093429153289	0.375
10369	28873	44.493429153289	0.625
10369	29382	44.895338440551	0.625
10369	29815	45.305315331788	0.625
10369	30236	45.708809639417	0.625
10369	30907	46.315840849239	0.125
10369	30928	46.325792099326	0.375
10369	30945	46.330402107327	-0.5
10369	31852	47.134607371977	0
10369	32515	47.734607371977	0.375
10369	32930	48.044046697086	0.625
10369	33275	48.328290988976	0.5
10369	33539	48.532295678335	0.875
10369	33801	48.73823755447	0.75
10369	33820	48.746612781831	0.375
10369	34982	49.847198899368	-0.5
10369	35599	50.447198899368	0.375
10369	36188	50.84892132099	0.625
10369	36329	50.959376761527	0.625
10369	36444	51.057427423235	0.875
10369	36876	51.362127976775	0.625
10369	36891	51.367146801123	0.75
10369	37247	51.667468164324	0.75
10369	37488	51.867568264324	0.75
10369	38094	52.367568264324	0.5
10369	38771	52.868419990855	0.375
10369	39030	53.106101147774	0.625
10369	39318	53.368697388443	0.5
10369	39848	53.770509036839	0.5
10369	41320	54.970509036839	-0.5
10369	41790	55.375866340134	0.625
10369	42419	55.98296824005	0.25
10369	43287	56.683826910569	0.25
10369	43416	56.783916503489	0.125
10369	43556	56.89254498209	0.875
10369	44056	57.286553307876	0.25
10369	44332	57.486892613817	0.875
10369	44746	57.789627089121	0.625
10369	45149	58.189627089121	0.625
10369	45302	58.395507183617	0.875
10369	45431	58.497538396733	0.875
10369	45779	58.797538396733	0.75
10369	46068	59.046990623826	1
10369	46959	59.725615109292	0.375
10369	47493	60.125715209292	0.5
10369	47693	60.325715209292	0.875
10369	47963	60.534769761452	0.875
10369	48478	60.938509301612	0.625
10369	48500	60.945427521396	0.75
10369	49045	61.454447495165	0.5
10369	49048	61.455276029752	0.5
10369	49152	61.561717537453	0.875
10369	49548	61.961717537453	0.625
10369	50101	62.468414979195	0.5
10369	50312	62.66131367195	0.625
10369	50349	62.676654793906	0.875
10369	51167	63.278920138693	0.125
10369	51450	63.478920138693	0.875
10369	51683	63.679020238693	0.75
10369	52454	64.344319535469	0.625
10369	52610	64.479020238693	0.125
10369	52831	64.653454721547	0.625
10369	52848	64.666330088979	0.625
10369	54515	66.170431193099	-1
10369	55764	67.370431193099	-0.5
10369	56356	67.878209547367	0.5
10369	56545	68.080521768223	0.875
10369	56994	68.490402398293	0.5
10369	57409	68.890402398293	0.625
10369	58130	69.491945507779	0.375
10369	59677	70.897477206216	-0.875
10369	60135	71.416335723037	0.625
10369	60236	71.502141198202	0.375
10369	60455	71.717827577341	0.75
10369	60466	71.720224797984	0.875
10369	60477	71.730759217189	0.875
10369	60739	71.936654360476	0.75
10369	61026	72.236654360476	0.75
10369	61311	72.443333362094	0.875
10369	61917	72.954789557608	0.375
10369	62249	73.238119833881	0.25
10369	62851	73.748061516653	0.375
10369	63430	74.348061516653	0.375
10369	64180	74.951876443568	0.375
10369	64413	75.194980279058	0.5
10369	64681	75.452383316817	0.5
10369	64740	75.504818140161	0.625
10369	65416	76.106354521899	0.375
10369	65438	76.127522743651	0
10369	65941	76.536877881673	0.5
10369	66738	77.236877881673	0.25
10369	67128	77.542810565375	0.625
10369	67503	77.846105278838	0.625
10369	68173	78.446105278838	0.125
10369	68433	78.651800700892	0.875
10369	68968	79.096120127668	0.875
10369	69342	79.400797948246	0.75
10369	69770	79.710552005191	0.625
10369	70044	79.910552005191	0.875
10369	70753	80.412593295861	0.375
10369	71157	80.716767924775	0.75
10369	71360	80.901501063363	0.75
10369	71660	81.204118911666	0.75
10369	71816	81.329486766776	0.25
10369	71980	81.509922321952	0.75
10369	73011	82.414390721661	-0.25
10369	74670	83.98627134733	-0.125
10369	74942	84.214390721661	-1.25
10369	75433	84.62112984697	0.5
10369	75667	84.82112984697	0.875
10369	76162	85.230497807253	0.5
10369	76285	85.33759724918	0.875
10369	77103	86.03759724918	0.25
10369	77278	86.174190429898	0.625
10369	77728	86.477566217313	0.625
10369	78190	86.877566217313	0.625
10369	78485	87.182458559617	0.75
10369	79013	87.785656840717	0.375
10369	79214	87.98296124979	0.625
10369	79361	88.094388910752	0.75
10369	79646	88.299005538332	0.75
10369	80276	88.799005538332	0.375
10369	81043	89.402048069561	0
10369	81189	89.502148169561	0.875
10369	82028	90.202148169561	0.25
10369	82290	90.403771120526	0.875
10369	82519	90.608685579013	0.875
10369	82808	90.809401997053	0.75
10369	83081	91.009401997053	0.875
10369	83877	91.601690507212	0.75
10369	84202	91.805556663983	0.75
10369	84752	92.308252654939	0.5
10369	84864	92.411873482837	1
10369	85203	92.720108423257	0.75
10369	86315	93.53435117244	0.125
10369	86543	93.724258891184	-0.25
10369	86552	93.732702882777	-0.75
10369	87072	94.141876556246	0.5
10369	88436	95.297723619905	0.25
10369	89835	96.497723619905	-0.375
10369	90294	96.897939581332	0.625
10369	90345	96.954946582379	0.625
10369	90554	97.104919857213	0.875
10369	90599	97.15739695072	0.625
10369	90959	97.462887068901	0.5
10369	91286	97.714013801969	0.44444441795349
10369	91882	98.123510642334	0.375
10369	93122	99.023510642334	0
10369	93524	99.381376786647	0.75
10369	93585	99.425339288761	0.5
10369	93901	99.686638633465	0.75
10369	94038	99.786738733465	0.875
10369	94561	100.186738733465	0.5
10369	94579	100.189315657875	1
10369	95474	100.777405842169	0.625
10369	97729	102.600847278535	0.75
10369	98241	103.000847278535	0.5
10369	98771	103.417530671122	0.625
10369	99374	103.923822266778	0.5
10369	99380	103.926316808435	0.5
10369	99632	104.131539217988	0.875
10369	99969	104.432062104813	0.625
10369	100405	104.732062104813	0.75
10369	100917	105.137511602685	0.625
10369	101190	105.341228372507	0.75
10369	101457	105.541228372507	0.875
10369	102128	106.048725764965	0.375
10369	102573	106.448725764965	0.5
10369	102868	106.648998104337	0.875
10369	104296	107.852079311044	-0.5
10369	104318	107.85766063718	1
10369	104747	108.158154280941	0.75
10369	105275	108.559312510745	0.625
10369	105380	108.665323797582	0.625
10369	105751	108.9728287218	0.625
10369	106087	109.2728287218	0.75
10369	106480	109.581636264409	0.75
10369	106746	109.831486995652	0.75
10369	106766	109.851171074753	0.75
10369	107258	110.260851604841	0.375
10369	107493	110.460851604841	0.875
10369	107759	110.670735845754	0.875
10369	107954	110.874497590341	0.875
10369	108034	110.953346416075	1
10369	108587	111.476942215187	0.375
10369	108598	111.482614695726	0.375
10369	108747	111.582714795726	0.875
10369	109331	112.082714795726	0.375
10369	109589	112.289950030515	0.875
10369	110152	112.693858134959	0.625
10369	111347	113.700242128639	0.5
10369	111821	114.102891029775	-0.875
10369	111902	114.200588034024	0.5
10369	112161	114.401802406154	0.625
10369	112169	114.404466301817	0.875
10369	112171	114.404555564998	0.75
10369	112667	114.804655664998	0.375
10369	114851	116.504655664998	-1.5
10369	115318	116.823963609629	0.75
10369	115748	117.229368635029	0.625
10369	116019	117.436234029662	0.75
10369	116812	118.036234029662	0.375
10369	117572	118.643630925589	0.375
10369	117921	118.945610909321	0.625
10369	118505	119.445610909321	0.5
10369	118795	119.652817439681	0.875
10369	119103	119.855401365439	0.875
10369	120383	120.860066385747	-0.375
10369	120406	120.879483144788	0.25
10369	121102	121.483297179256	0.125
10369	121736	121.983297179256	0.5
10369	122019	122.217898438866	0.625
10369	122373	122.52718569998	0.625
10369	123493	123.42718569998	-0.25
10369	123859	123.630621416647	0.75
10369	125103	124.630621416647	-0.125
10369	126263	125.731527979994	-0.5
10369	126476	125.933060278928	0.875
10369	126857	126.33606964946	0.625
10369	127495	126.943244470171	0.25
10369	127835	127.262426042429	0.75
10369	128539	127.768963913019	0.5
10369	129707	128.678434895024	-0.375
10369	130104	128.978434895024	0.75
10369	130788	129.450070969449	0.75
10369	131732	130.306219727489	0.375
10369	132070	130.706219727489	0.625
10369	133675	132.107703138108	-0.75
10369	134106	132.512146262815	0.625
10369	134361	132.718950464417	0.875
10369	134759	133.05911457007	0.25
10369	135848	133.8659740502	-0.25
10369	135980	133.9659740502	0.875
10369	136340	134.255091479238	1
10369	137005	134.855091479238	0.375
10369	137210	135.064249608508	0.875
10369	137233	135.083947350601	0.875
10369	137433	135.266464172204	0.875
10369	137502	135.299774057543	1
10370	210	20.2000001	0.2
10370	815	21.2000001	1
10370	1293	21.606172498378	0.4
10370	1307	21.608633186804	0.4
10370	1419	21.701801346658	0.4
10370	1933	22.102131725868	0.4
10370	2258	22.302131725868	0.2
10370	3286	23.011845920173	0.7
10370	3635	23.320463432218	0.3
10370	3937	23.529468071318	0.2
10370	4047	23.629697682853	0.2
10370	4165	23.727499661988	0.4
10370	4188	23.731440527179	0.2
10370	4442	23.94434611954	0.3
10370	4576	24.048490733014	0.1
10370	5563	24.943006335249	0.4
10370	6298	25.543006335249	0.6
10370	7178	26.155301913817	0.6
10370	7440	26.338394785281	0.7
10370	7580	26.457468682443	0.3
10370	7680	26.538622526249	0.2
10370	8024	26.844161532326	0.3
10370	8336	27.144161532326	0.3
10370	9377	28.044261632326	0.9
10370	9759	28.344261632326	0.3
10370	10500	28.952041778843	0.6
10370	10806	29.152380452578	0.2
10370	11191	29.457303261331	0.3
10370	11885	30.0666926269	0.6
10370	12235	30.368307351893	0.3
10370	12251	30.372114581124	0
10370	13244	31.19815862157	0.4
10370	13819	31.69815862157	0.5
10370	14047	31.902935417912	0.2
10370	14355	32.208893695702	0.3
10370	14699	32.515204877254	0.3
10370	15110	32.915204877254	0.4
10370	15328	33.119669409413	0.2
10370	15829	33.519669409413	0.4
10370	16474	34.129620783524	0.6
10370	16959	34.531765974361	0.4
10370	18216	35.532962272289	1
10370	18669	35.939112762576	0.4
10370	18721	35.949725245017	0.7
10370	18972	36.151424826768	0.2
10370	19153	36.351424826768	0.2
10370	19503	36.654620739449	0.3
10370	20325	37.363189348186	0.7
10370	20722	37.673164168217	0.3
10370	20991	37.88304827052	0.2
10370	21579	38.398832622795	0.5
10370	21840	38.600187255205	0.2
10370	22460	39.022941549368	0.4
10370	22631	39.169733498701	0.3
10370	22783	39.279011040664	1.2
10370	23423	39.787124555733	0.5
10370	23570	39.926859886985	0.9
10370	23691	40.032258029417	0.1
10370	24012	40.332258029417	0.3
10370	25000	41.241581625407	0.9
10370	25353	41.494603128899	0.8
10370	25474	41.594703228899	0.1
10370	25743	41.794703228899	0.2
10370	26733	42.71113550338	0.7
10370	27048	43.01123560338	0.3
10370	27671	43.589804469753	0.2
10370	28340	44.093429153289	0.5
10370	28873	44.493429153289	0.4
10370	29382	44.895338440551	0.4
10370	29815	45.305315331788	0.4
10370	30236	45.708809639417	0.4
10370	30907	46.315840849239	0.6
10370	30928	46.325792099326	0.6
10370	30945	46.330402107327	1.2
10370	31852	47.134607371977	0.8
10370	32515	47.734607371977	0.6
10370	32930	48.044046697086	0.3
10370	33275	48.328290988976	0.5
10370	33539	48.532295678335	0.2
10370	33801	48.73823755447	0.3
10370	33820	48.746612781831	0.6
10370	34982	49.847198899368	1.1
10370	35599	50.447198899368	0.6
10370	36188	50.84892132099	0.4
10370	36329	50.959376761527	0.4
10370	36444	51.057427423235	0.2
10370	36876	51.362127976775	0.3
10370	36891	51.367146801123	0.3
10370	37247	51.667468164324	0.3
10370	37488	51.867568264324	0.2
10370	38094	52.367568264324	0.5
10370	38771	52.868419990855	0.5
10370	39030	53.106101147774	0.4
10370	39318	53.368697388443	0.5
10370	39848	53.770509036839	0.4
10370	41320	54.970509036839	1.2
10370	41790	55.375866340134	0.4
10370	42419	55.98296824005	0.6
10370	43287	56.683826910569	0.7
10370	43416	56.783916503489	0.8
10370	43556	56.89254498209	0.2
10370	44056	57.286553307876	0.5
10370	44332	57.486892613817	0.2
10370	44746	57.789627089121	0.3
10370	45149	58.189627089121	0.4
10370	45302	58.395507183617	0.2
10370	45431	58.497538396733	0.1
10370	45779	58.797538396733	0.3
10370	46068	59.046990623826	0
10370	46959	59.725615109292	0.6
10370	47493	60.125715209292	0.4
10370	47693	60.325715209292	0.2
10370	47963	60.534769761452	0.2
10370	48478	60.938509301612	0.4
10370	48500	60.945427521396	0.3
10370	49045	61.454447495165	0.5
10370	49048	61.455276029752	0.5
10370	49152	61.561717537453	0.1
10370	49548	61.961717537453	0.4
10370	50101	62.468414979195	0.5
10370	50312	62.66131367195	0.4
10370	50349	62.676654793906	0.2
10370	51167	63.278920138693	0.6
10370	51450	63.478920138693	0.2
10370	51683	63.679020238693	0.2