file 724180 1369516617                                          
version 2
run Stability-norelink-43-20130525-23:16:54-22103
attr configname Stability-norelink
attr datetime 20130525-23:16:54
attr experiment Stability
attr inifile omnetpp.ini
attr iterationvars $0=1e2
attr iterationvars2 "$0=1e2, $repetition=3"
attr measurement $0=1e2
attr network Network
attr processid 22103
attr repetition 3
attr replication #3
attr resultdir results
attr runnumber 43
attr seedset 43

vector 4128  Network.dyn_peer[0]  lookupHopsSig:vector  ETV
vector 4129  Network.dyn_peer[0]  lookupStabilitySig:vector  ETV
vector 4130  Network.dyn_peer[0]  lookupTimeSig:vector  ETV
vector 4131  Network.dyn_peer[1]  lookupHopsSig:vector  ETV
vector 4132  Network.dyn_peer[1]  lookupStabilitySig:vector  ETV
vector 4133  Network.dyn_peer[1]  lookupTimeSig:vector  ETV
vector 4134  Network.dyn_peer[2]  lookupHopsSig:vector  ETV
vector 4135  Network.dyn_peer[2]  lookupStabilitySig:vector  ETV
vector 4136  Network.dyn_peer[2]  lookupTimeSig:vector  ETV
vector 4137  Network.dyn_peer[3]  lookupHopsSig:vector  ETV
vector 4138  Network.dyn_peer[3]  lookupStabilitySig:vector  ETV
vector 4139  Network.dyn_peer[3]  lookupTimeSig:vector  ETV
vector 4140  Network.dyn_peer[4]  lookupHopsSig:vector  ETV
vector 4141  Network.dyn_peer[4]  lookupStabilitySig:vector  ETV
vector 4142  Network.dyn_peer[4]  lookupTimeSig:vector  ETV
vector 4143  Network.dyn_peer[5]  lookupHopsSig:vector  ETV
vector 4144  Network.dyn_peer[5]  lookupStabilitySig:vector  ETV
vector 4145  Network.dyn_peer[5]  lookupTimeSig:vector  ETV
vector 4146  Network.dyn_peer[6]  lookupHopsSig:vector  ETV
vector 4147  Network.dyn_peer[6]  lookupStabilitySig:vector  ETV
vector 4148  Network.dyn_peer[6]  lookupTimeSig:vector  ETV
vector 4149  Network.dyn_peer[7]  lookupHopsSig:vector  ETV
vector 4150  Network.dyn_peer[7]  lookupStabilitySig:vector  ETV
vector 4151  Network.dyn_peer[7]  lookupTimeSig:vector  ETV
vector 4152  Network.dyn_peer[8]  lookupHopsSig:vector  ETV
vector 4153  Network.dyn_peer[8]  lookupStabilitySig:vector  ETV
vector 4154  Network.dyn_peer[8]  lookupTimeSig:vector  ETV
vector 4155  Network.dyn_peer[9]  lookupHopsSig:vector  ETV
vector 4156  Network.dyn_peer[9]  lookupStabilitySig:vector  ETV
vector 4157  Network.dyn_peer[9]  lookupTimeSig:vector  ETV
vector 4158  Network.dyn_peer[10]  lookupHopsSig:vector  ETV
vector 4159  Network.dyn_peer[10]  lookupStabilitySig:vector  ETV
vector 4160  Network.dyn_peer[10]  lookupTimeSig:vector  ETV
vector 4164  Network.dyn_peer[12]  lookupHopsSig:vector  ETV
vector 4165  Network.dyn_peer[12]  lookupStabilitySig:vector  ETV
vector 4166  Network.dyn_peer[12]  lookupTimeSig:vector  ETV
vector 4161  Network.dyn_peer[11]  lookupHopsSig:vector  ETV
vector 4162  Network.dyn_peer[11]  lookupStabilitySig:vector  ETV
vector 4163  Network.dyn_peer[11]  lookupTimeSig:vector  ETV
vector 4167  Network.dyn_peer[13]  lookupHopsSig:vector  ETV
vector 4168  Network.dyn_peer[13]  lookupStabilitySig:vector  ETV
vector 4169  Network.dyn_peer[13]  lookupTimeSig:vector  ETV
vector 4170  Network.dyn_peer[14]  lookupHopsSig:vector  ETV
vector 4171  Network.dyn_peer[14]  lookupStabilitySig:vector  ETV
vector 4172  Network.dyn_peer[14]  lookupTimeSig:vector  ETV
vector 4182  Network.dyn_peer[18]  lookupHopsSig:vector  ETV
vector 4183  Network.dyn_peer[18]  lookupStabilitySig:vector  ETV
vector 4184  Network.dyn_peer[18]  lookupTimeSig:vector  ETV
vector 4176  Network.dyn_peer[16]  lookupHopsSig:vector  ETV
vector 4177  Network.dyn_peer[16]  lookupStabilitySig:vector  ETV
vector 4178  Network.dyn_peer[16]  lookupTimeSig:vector  ETV
vector 4185  Network.dyn_peer[19]  lookupHopsSig:vector  ETV
vector 4186  Network.dyn_peer[19]  lookupStabilitySig:vector  ETV
vector 4187  Network.dyn_peer[19]  lookupTimeSig:vector  ETV
vector 4188  Network.dyn_peer[20]  lookupHopsSig:vector  ETV
vector 4189  Network.dyn_peer[20]  lookupStabilitySig:vector  ETV
vector 4190  Network.dyn_peer[20]  lookupTimeSig:vector  ETV
vector 4179  Network.dyn_peer[17]  lookupHopsSig:vector  ETV
vector 4180  Network.dyn_peer[17]  lookupStabilitySig:vector  ETV
vector 4181  Network.dyn_peer[17]  lookupTimeSig:vector  ETV
vector 4191  Network.dyn_peer[21]  lookupHopsSig:vector  ETV
vector 4192  Network.dyn_peer[21]  lookupStabilitySig:vector  ETV
vector 4193  Network.dyn_peer[21]  lookupTimeSig:vector  ETV
vector 4173  Network.dyn_peer[15]  lookupHopsSig:vector  ETV
vector 4174  Network.dyn_peer[15]  lookupStabilitySig:vector  ETV
vector 4175  Network.dyn_peer[15]  lookupTimeSig:vector  ETV
vector 4200  Network.dyn_peer[24]  lookupHopsSig:vector  ETV
vector 4201  Network.dyn_peer[24]  lookupStabilitySig:vector  ETV
vector 4202  Network.dyn_peer[24]  lookupTimeSig:vector  ETV
vector 4203  Network.dyn_peer[25]  lookupHopsSig:vector  ETV
vector 4204  Network.dyn_peer[25]  lookupStabilitySig:vector  ETV
vector 4205  Network.dyn_peer[25]  lookupTimeSig:vector  ETV
vector 4194  Network.dyn_peer[22]  lookupHopsSig:vector  ETV
vector 4195  Network.dyn_peer[22]  lookupStabilitySig:vector  ETV
vector 4196  Network.dyn_peer[22]  lookupTimeSig:vector  ETV
vector 4206  Network.dyn_peer[26]  lookupHopsSig:vector  ETV
vector 4207  Network.dyn_peer[26]  lookupStabilitySig:vector  ETV
vector 4208  Network.dyn_peer[26]  lookupTimeSig:vector  ETV
vector 4212  Network.dyn_peer[28]  lookupHopsSig:vector  ETV
vector 4213  Network.dyn_peer[28]  lookupStabilitySig:vector  ETV
vector 4214  Network.dyn_peer[28]  lookupTimeSig:vector  ETV
vector 4197  Network.dyn_peer[23]  lookupHopsSig:vector  ETV
vector 4198  Network.dyn_peer[23]  lookupStabilitySig:vector  ETV
vector 4199  Network.dyn_peer[23]  lookupTimeSig:vector  ETV
vector 4209  Network.dyn_peer[27]  lookupHopsSig:vector  ETV
vector 4210  Network.dyn_peer[27]  lookupStabilitySig:vector  ETV
vector 4211  Network.dyn_peer[27]  lookupTimeSig:vector  ETV
vector 4215  Network.dyn_peer[29]  lookupHopsSig:vector  ETV
vector 4216  Network.dyn_peer[29]  lookupStabilitySig:vector  ETV
vector 4217  Network.dyn_peer[29]  lookupTimeSig:vector  ETV
vector 4218  Network.dyn_peer[30]  lookupHopsSig:vector  ETV
vector 4219  Network.dyn_peer[30]  lookupStabilitySig:vector  ETV
vector 4220  Network.dyn_peer[30]  lookupTimeSig:vector  ETV
vector 4221  Network.dyn_peer[31]  lookupHopsSig:vector  ETV
vector 4222  Network.dyn_peer[31]  lookupStabilitySig:vector  ETV
vector 4223  Network.dyn_peer[31]  lookupTimeSig:vector  ETV
4128	6396 7144 32 97020 20.2 223.711085153796 288 0 13 806 3326
4129	13540 8117 32 97020 20.2 223.711085153796 288 -0.625 1 187.30555555224 138.52739197163
4130	21657 7705 32 97020 20.2 223.711085153796 288 0 1.3 96.7 41.37
4131	29362 6948 48 98044 20.4 226.166156340156 282 0 12 800 3488
4132	36310 7913 48 98044 20.4 226.166156340156 282 -0.5 1 182.04166665673 136.5538194312
4133	44223 7495 48 98044 20.4 226.166156340156 282 0 1.1 95.9 42.75
4134	51718 7864 59 98082 20.5 226.325011797764 313 0 13 881 3689
4135	59582 8904 59 98082 20.5 226.325011797764 313 -0.625 1 202.875 150.390625
4136	68486 8474 59 98082 20.5 226.325011797764 313 0 1.2 107.3 47.01
4137	76960 7143 63 97394 20.5 224.352696607062 288 0 12 772 3062
4138	84103 8106 63 97394 20.5 224.352696607062 288 -0.5 1 191.63888886571 142.95100306949
4139	92209 7705 63 97394 20.5 224.352696607062 288 0 1.1 95 40.04
4140	99914 7061 89 96915 20.7 223.519492358688 286 0 12 743 2807
4141	106975 7998 89 96915 20.7 223.519492358688 286 -0.5 1 193.125 144.109375
4142	114973 7620 89 96915 20.7 223.519492358688 286 0 1.1 91.7 36.69
4143	122593 6793 93 97113 20.7 223.815731337741 274 0 12 771 3173
4144	129386 7766 93 97113 20.7 223.815731337741 274 -0.5 1 177.72222221643 130.97993826241
4145	137152 7336 93 97113 20.7 223.815731337741 274 0 1.2 94 40.88
4146	144488 6707 122 97930 20.9 225.63274613108 275 0 10 764 3044
4147	151195 7662 122 97930 20.9 225.63274613108 275 -0.25 1 179.54166666418 131.62943672435
4148	158857 7248 122 97930 20.9 225.63274613108 275 0 0.9 92.8 38.38
4149	166105 7119 150 98069 21 226.312355004643 288 0 11 810 3348
4150	173224 8080 150 98069 21 226.312355004643 288 -0.375 1 186.75 137.8125
4151	181304 7681 150 98069 21 226.312355004643 288 0 1 98.1 42.59
4152	188985 6665 154 97627 21 224.80318658119 270 0 13 798 3468
4153	195650 7603 154 97627 21 224.80318658119 270 -0.625 1 170.29166666418 124.75443672435
4154	203253 7198 154 97627 21 224.80318658119 270 0 1.2 94.1 41.27
4155	210451 7171 191 97432 21.2 224.409199171756 287 0 17 838 3788
4156	217622 8138 191 97432 21.2 224.409199171756 287 -1.125 1 182.30555554479 136.76581788652
4157	225760 7721 191 97432 21.2 224.409199171756 287 0 1.4 100.3 45.59
4158	233481 6837 237 96762 21.3 223.308328991757 277 0 9 749 2899
4159	240318 7781 237 96762 21.3 223.308328991757 277 -0.125 1 183.40277777612 135.08931326903
4160	248099 7383 237 96762 21.3 223.308328991757 277 0 1 90.9 36.97
4161	255482 6653 301 97727 21.5 225.00328658119 273 0 12 745 3269
4162	262135 7611 301 97727 21.5 225.00328658119 273 -0.5 1 179.95833330601 137.90952929597
4163	269746 7176 301 97727 21.5 225.00328658119 273 0 1.1 89.7 39.31
4164	276922 6826 276 98100 21.4 226.422620437263 277 0 11 764 3100
4165	283748 7746 276 98100 21.4 226.422620437263 277 -0.375 1 181.5 134.4375
4166	291494 7373 276 98100 21.4 226.422620437263 277 0 1.1 92.7 39.19
4167	298867 6966 305 97242 21.5 224.030379053617 282 0 14 782 3268
4168	305833 7893 305 97242 21.5 224.030379053617 282 -0.75 1 184.31944441795 137.61940584065
4169	313726 7518 305 97242 21.5 224.030379053617 282 0 1.3 94 40.1
4170	321244 7110 386 97005 21.7 223.7 286 0 17 794 3454
4171	328354 8083 386 97005 21.7 223.7 286 -1.125 1 186.75 141.46875
4172	336437 7673 386 97005 21.7 223.7 286 0 1.4 95.6 41.66
4173	344110 6885 740 96812 22.5 223.4001 277 0 15 815 3631
4174	350995 7838 740 96812 22.5 223.4001 277 -0.875 1 175.34722217917 130.12056323923
4175	358833 7429 740 96812 22.5 223.4001 277 0 1.2 96.2 41.82
4176	366262 7178 611 97419 22.2 224.4 290 0 12 857 3629
4177	373440 8154 611 97419 22.2 224.4 290 -0.5 1 182.875 132.453125
4178	381594 7738 611 97419 22.2 224.4 290 0 1 102.1 44.71
4179	389332 7161 657 97914 22.3 225.608294504845 289 0 13 816 3338
4180	396493 8161 657 97914 22.3 225.608294504845 289 -0.625 1 187.06944443285 137.25906634184
4181	404654 7722 657 97914 22.3 225.608294504845 289 0 1.2 99.1 42.83
4182	412376 7298 511 97321 22 224.206730563668 294 0 9 766 2818
4183	419674 8289 511 97321 22 224.206730563668 294 -0.125 1 198.30555554479 146.60956788652
4184	427963 7872 511 97321 22 224.206730563668 294 0 0.9 93.6 36.9
4185	435835 7423 616 97841 22.2 225.309755176393 299 0 11 772 3044
4186	443258 8433 616 97841 22.2 225.309755176393 299 -0.375 1 202.58333330601 153.64390429597
4187	451691 7988 616 97841 22.2 225.309755176393 299 0 1 96 39.82
4188	459679 7034 620 97645 22.2 224.815452532379 285 0 14 779 3367
4189	466713 7999 620 97645 22.2 224.815452532379 285 -0.75 1 187.66666665673 142.9131944312
4190	474712 7592 620 97645 22.2 224.815452532379 285 0 1.3 93.7 39.99
4191	482304 7148 688 97074 22.4 223.8 288 0 12 841 3531
4192	489452 8135 688 97074 22.4 223.8 288 -0.5 1 182.90277777612 132.97087191064
4193	497587 7709 688 97074 22.4 223.8 288 0 1.1 100.8 44.4
4194	505296 7002 841 97436 22.8 224.411911314915 282 0 12 783 3239
4195	512298 7952 841 97436 22.8 224.411911314915 282 -0.5 1 184.13888888806 136.88387345532
4196	520250 7557 841 97436 22.8 224.411911314915 282 0 1.1 95.4 40.48
4197	527807 6528 960 97802 23.1 225.214990383523 265 0 11 726 2860
4198	534335 7414 960 97802 23.1 225.214990383523 265 -0.375 1 174.27777777612 128.22993826903
4199	541749 7047 960 97802 23.1 225.214990383523 265 0 0.9 87.4 35.2
4200	548796 6782 802 97528 22.7 224.610924552293 277 0 10 744 2874
4201	555578 7758 802 97528 22.7 224.610924552293 277 -0.25 1 184.06944443285 136.00250770023
4202	563336 7329 802 97528 22.7 224.610924552293 277 0 0.9 90.2 36.42
4203	570665 6638 806 97199 22.7 224.005984607195 268 0 17 785 3613
4204	577303 7549 806 97199 22.7 224.005984607195 268 -1.125 1 169.90277777612 128.24556326903
4205	584852 7163 806 97199 22.7 224.005984607195 268 0 1.6 94 43.94
4206	592015 7096 848 98005 22.8 225.90626255934 288 0 9 832 3266
4207	599111 8038 848 98005 22.8 225.90626255934 288 -0.125 1 184 131.03125
4208	607149 7658 848 98005 22.8 225.90626255934 288 0 0.8 100.4 42.88
4209	614807 7190 964 97991 23.1 225.9 290 0 11 776 3128
4210	621997 8195 964 97991 23.1 225.9 290 -0.375 1 193.02777777612 144.91743826903
4211	630192 7756 964 97991 23.1 225.9 290 0 1.1 94.8 39.3
4212	637948 6419 879 96845 22.9 223.429239410111 261 0 14 809 3725
4213	644367 7292 879 96845 22.9 223.429239410111 261 -0.75 1 159.88888888806 116.97762345532
4214	651659 6922 879 96845 22.9 223.429239410111 261 0 1.4 95.4 44.92
4215	658581 6957 1086 97676 23.4 224.902670339888 280 0 10 800 3156
4216	665538 7895 1086 97676 23.4 224.902670339888 280 -0.25 1 180.02777777612 129.35493826903
4217	673433 7514 1086 97676 23.4 224.902670339888 280 0 0.9 95.8 39.46
4218	680947 6674 1090 96843 23.4 223.428985138131 273 0 11 719 2839
4219	687621 7565 1090 96843 23.4 223.428985138131 273 -0.375 1 183.125 137.609375
4220	695186 7194 1090 96843 23.4 223.428985138131 273 0 1 87.6 36.22
4221	702380 6774 1094 97036 23.4 223.720402860524 277 0 14 699 2713
4222	709154 7719 1094 97036 23.4 223.720402860524 277 -0.75 1 189.69444443285 144.73688270023
4223	716873 7307 1094 97036 23.4 223.720402860524 277 0 1.5 87 35.46
