version 2
run Stability-norelink-31-20130525-23:16:16-22103
attr configname Stability-norelink
attr datetime 20130525-23:16:16
attr experiment Stability
attr inifile omnetpp.ini
attr iterationvars $0=1e3
attr iterationvars2 "$0=1e3, $repetition=1"
attr measurement $0=1e3
attr network Network
attr processid 22103
attr repetition 1
attr replication #1
attr resultdir results
attr runnumber 31
attr seedset 31

vector 2976  Network.dyn_peer[0]  lookupHopsSig:vector  ETV
vector 2977  Network.dyn_peer[0]  lookupStabilitySig:vector  ETV
vector 2978  Network.dyn_peer[0]  lookupTimeSig:vector  ETV
vector 2979  Network.dyn_peer[1]  lookupHopsSig:vector  ETV
vector 2980  Network.dyn_peer[1]  lookupStabilitySig:vector  ETV
vector 2981  Network.dyn_peer[1]  lookupTimeSig:vector  ETV
vector 2982  Network.dyn_peer[2]  lookupHopsSig:vector  ETV
vector 2983  Network.dyn_peer[2]  lookupStabilitySig:vector  ETV
vector 2984  Network.dyn_peer[2]  lookupTimeSig:vector  ETV
vector 2985  Network.dyn_peer[3]  lookupHopsSig:vector  ETV
vector 2986  Network.dyn_peer[3]  lookupStabilitySig:vector  ETV
vector 2987  Network.dyn_peer[3]  lookupTimeSig:vector  ETV
vector 2988  Network.dyn_peer[4]  lookupHopsSig:vector  ETV
vector 2989  Network.dyn_peer[4]  lookupStabilitySig:vector  ETV
vector 2990  Network.dyn_peer[4]  lookupTimeSig:vector  ETV
vector 2991  Network.dyn_peer[5]  lookupHopsSig:vector  ETV
vector 2992  Network.dyn_peer[5]  lookupStabilitySig:vector  ETV
vector 2993  Network.dyn_peer[5]  lookupTimeSig:vector  ETV
vector 2994  Network.dyn_peer[6]  lookupHopsSig:vector  ETV
vector 2995  Network.dyn_peer[6]  lookupStabilitySig:vector  ETV
vector 2996  Network.dyn_peer[6]  lookupTimeSig:vector  ETV
vector 2997  Network.dyn_peer[7]  lookupHopsSig:vector  ETV
vector 2998  Network.dyn_peer[7]  lookupStabilitySig:vector  ETV
vector 2999  Network.dyn_peer[7]  lookupTimeSig:vector  ETV
vector 3000  Network.dyn_peer[8]  lookupHopsSig:vector  ETV
vector 3001  Network.dyn_peer[8]  lookupStabilitySig:vector  ETV
vector 3002  Network.dyn_peer[8]  lookupTimeSig:vector  ETV
vector 3003  Network.dyn_peer[9]  lookupHopsSig:vector  ETV
vector 3004  Network.dyn_peer[9]  lookupStabilitySig:vector  ETV
vector 3005  Network.dyn_peer[9]  lookupTimeSig:vector  ETV
vector 3006  Network.dyn_peer[10]  lookupHopsSig:vector  ETV
vector 3007  Network.dyn_peer[10]  lookupStabilitySig:vector  ETV
vector 3008  Network.dyn_peer[10]  lookupTimeSig:vector  ETV
vector 3009  Network.dyn_peer[11]  lookupHopsSig:vector  ETV
vector 3010  Network.dyn_peer[11]  lookupStabilitySig:vector  ETV
vector 3011  Network.dyn_peer[11]  lookupTimeSig:vector  ETV
vector 3012  Network.dyn_peer[12]  lookupHopsSig:vector  ETV
vector 3013  Network.dyn_peer[12]  lookupStabilitySig:vector  ETV
vector 3014  Network.dyn_peer[12]  lookupTimeSig:vector  ETV
vector 3015  Network.dyn_peer[13]  lookupHopsSig:vector  ETV
vector 3016  Network.dyn_peer[13]  lookupStabilitySig:vector  ETV
vector 3017  Network.dyn_peer[13]  lookupTimeSig:vector  ETV
vector 3018  Network.dyn_peer[14]  lookupHopsSig:vector  ETV
vector 3019  Network.dyn_peer[14]  lookupStabilitySig:vector  ETV
vector 3020  Network.dyn_peer[14]  lookupTimeSig:vector  ETV
vector 3021  Network.dyn_peer[15]  lookupHopsSig:vector  ETV
vector 3022  Network.dyn_peer[15]  lookupStabilitySig:vector  ETV
vector 3023  Network.dyn_peer[15]  lookupTimeSig:vector  ETV
vector 3024  Network.dyn_peer[16]  lookupHopsSig:vector  ETV
vector 3025  Network.dyn_peer[16]  lookupStabilitySig:vector  ETV
vector 3026  Network.dyn_peer[16]  lookupTimeSig:vector  ETV
vector 3027  Network.dyn_peer[17]  lookupHopsSig:vector  ETV
vector 3028  Network.dyn_peer[17]  lookupStabilitySig:vector  ETV
vector 3029  Network.dyn_peer[17]  lookupTimeSig:vector  ETV
vector 3030  Network.dyn_peer[18]  lookupHopsSig:vector  ETV
vector 3031  Network.dyn_peer[18]  lookupStabilitySig:vector  ETV
vector 3032  Network.dyn_peer[18]  lookupTimeSig:vector  ETV
vector 3033  Network.dyn_peer[19]  lookupHopsSig:vector  ETV
vector 3034  Network.dyn_peer[19]  lookupStabilitySig:vector  ETV
vector 3035  Network.dyn_peer[19]  lookupTimeSig:vector  ETV
vector 3036  Network.dyn_peer[20]  lookupHopsSig:vector  ETV
vector 3037  Network.dyn_peer[20]  lookupStabilitySig:vector  ETV
vector 3038  Network.dyn_peer[20]  lookupTimeSig:vector  ETV
vector 3039  Network.dyn_peer[21]  lookupHopsSig:vector  ETV
vector 3040  Network.dyn_peer[21]  lookupStabilitySig:vector  ETV
vector 3041  Network.dyn_peer[21]  lookupTimeSig:vector  ETV
vector 3042  Network.dyn_peer[22]  lookupHopsSig:vector  ETV
vector 3043  Network.dyn_peer[22]  lookupStabilitySig:vector  ETV
vector 3044  Network.dyn_peer[22]  lookupTimeSig:vector  ETV
vector 3045  Network.dyn_peer[23]  lookupHopsSig:vector  ETV
vector 3046  Network.dyn_peer[23]  lookupStabilitySig:vector  ETV
vector 3047  Network.dyn_peer[23]  lookupTimeSig:vector  ETV
vector 3048  Network.dyn_peer[24]  lookupHopsSig:vector  ETV
vector 3049  Network.dyn_peer[24]  lookupStabilitySig:vector  ETV
vector 3050  Network.dyn_peer[24]  lookupTimeSig:vector  ETV
vector 3051  Network.dyn_peer[25]  lookupHopsSig:vector  ETV
vector 3052  Network.dyn_peer[25]  lookupStabilitySig:vector  ETV
vector 3053  Network.dyn_peer[25]  lookupTimeSig:vector  ETV
vector 3054  Network.dyn_peer[26]  lookupHopsSig:vector  ETV
vector 3055  Network.dyn_peer[26]  lookupStabilitySig:vector  ETV
vector 3056  Network.dyn_peer[26]  lookupTimeSig:vector  ETV
vector 3057  Network.dyn_peer[27]  lookupHopsSig:vector  ETV
vector 3058  Network.dyn_peer[27]  lookupStabilitySig:vector  ETV
vector 3059  Network.dyn_peer[27]  lookupTimeSig:vector  ETV
vector 3060  Network.dyn_peer[28]  lookupHopsSig:vector  ETV
vector 3061  Network.dyn_peer[28]  lookupStabilitySig:vector  ETV
vector 3062  Network.dyn_peer[28]  lookupTimeSig:vector  ETV
vector 3063  Network.dyn_peer[29]  lookupHopsSig:vector  ETV
vector 3064  Network.dyn_peer[29]  lookupStabilitySig:vector  ETV
vector 3065  Network.dyn_peer[29]  lookupTimeSig:vector  ETV
vector 3066  Network.dyn_peer[30]  lookupHopsSig:vector  ETV
vector 3067  Network.dyn_peer[30]  lookupStabilitySig:vector  ETV
vector 3068  Network.dyn_peer[30]  lookupTimeSig:vector  ETV
vector 3069  Network.dyn_peer[31]  lookupHopsSig:vector  ETV
vector 3070  Network.dyn_peer[31]  lookupStabilitySig:vector  ETV
vector 3071  Network.dyn_peer[31]  lookupTimeSig:vector  ETV
2976	29	21.1	1
2976	33	21.4	2
2976	39	21.619110379858	1
2976	46	21.932071459051	2
2976	1051	53	0
2976	1054	53.2	1
2976	1059	53.503242986409	2
2976	1067	53.728845020895	1
2976	2076	85.1	1
2976	2079	85.3	1
2976	2083	85.503171933828	1
2976	2097	85.753550253079	1
2976	3106	117.1	1
2976	3110	117.4	2
2976	3115	117.709378853575	2
2976	3119	117.917430960035	1
2976	4179	149.1	1
2976	4183	149.304353922388	1
2976	4187	149.510438517258	1
2976	4191	149.715959899588	1
2976	5249	181.2	2
2976	5252	181.4	1
2976	5258	181.613419797347	1
2976	5267	181.839596446245	1
2976	6274	213.1	1
2976	6278	213.4	2
2976	6282	213.609260254339	1
2976	6286	213.817395523229	1
2976	7275	245.1	1
2976	7278	245.3	1
2976	7282	245.504337418039	1
2976	7289	245.726837157701	1
2976	8291	277.1	1
2976	8294	277.3	1
2976	8298	277.505866300056	1
2976	8306	277.724165333445	1
2976	9325	309.2	2
2976	9330	309.503996231444	2
2976	9334	309.707279757663	1
2976	9338	309.911898501672	1
2976	10422	341.1	1
2976	10426	341.4	2
2976	10431	341.706012936669	2
2976	10438	341.93399971033	1
2976	11487	373.1	1
2976	11490	373.3	1
2976	11495	373.608686437604	2
2976	11500	373.908975961426	2
2976	12529	405.1	1
2976	12533	405.308677398499	1
2976	12538	405.613007045322	2
2976	12545	405.934372631611	2
2976	13552	437.1	1
2976	13555	437.3	1
2976	13561	437.606526014196	2
2976	13565	437.810651953235	1
2976	14588	469.1	1
2976	14593	469.305462187028	1
2976	14600	469.522064325994	1
2976	14605	469.822954932384	2
2976	15635	501.2	2
2976	15638	501.4	1
2976	15644	501.616727532423	1
2976	15648	501.818371758116	1
2976	16661	533.1	1
2976	16665	533.4	2
2976	16670	533.704739049924	2
2976	16674	533.91255764421	1
2976	17691	565.2	2
2976	17695	565.5	2
2976	17700	565.805418363828	2
2976	17713	566.015203399471	1
2976	18736	597.1	1
2976	18740	597.308488293052	1
2976	18744	597.513458109697	1
2976	18748	597.72059974562	1
2976	19737	629.2	2
2976	19740	629.4	1
2976	19744	629.605004822453	1
2976	19748	629.809682712214	1
2976	20760	661.2	2
2976	20764	661.5	2
2976	20769	661.80669151474	2
2976	20776	662.013415890428	1
2976	21799	693.2	2
2976	21803	693.5	2
2976	21809	693.809561293036	2
2976	21816	694.013025025149	1
2976	22808	725.1	1
2976	22812	725.4	2
2976	22816	725.602868498722	1
2976	22822	725.814267664212	1
2976	23842	757.1	1
2976	23846	757.4	2
2976	23851	757.705115788045	2
2976	23860	758.012061374866	2
2976	24897	789	0
2976	24902	789.309404272176	2
2976	24912	789.539232392533	1
2976	24916	789.744929298677	1
2976	25941	821.1	1
2976	25946	821.401537041747	2
2976	25950	821.605429978844	1
2976	25955	821.908243776711	2
2976	26975	853.1	1
2976	26978	853.3	1
2976	26983	853.600908014078	2
2976	26987	853.809809922766	1
2976	28026	885.2	2
2976	28029	885.4	1
2976	28034	885.701892102628	2
2976	28038	885.905842636704	1
2976	29072	917.1	1
2976	29075	917.3	1
2976	29080	917.510472695177	1
2976	29087	917.743611153992	1
2976	30147	949	0
2976	30151	949.3	2
2976	30156	949.606405399416	2
2976	30162	949.909865251666	2
2976	31154	981.1	1
2976	31158	981.4	2
2976	31163	981.700253372299	2
2976	31167	981.906103535044	1
2976	32185	1013.1	1
2976	32189	1013.4	2
2976	32195	1013.706579498394	2
2976	32199	1013.915711123402	1
2976	33222	1045	0
2976	33226	1045.3	2
2976	33247	1045.701861765939	2
2976	33260	1046.038468276734	2
2976	34259	1077.1	1
2976	34262	1077.3	1
2976	34268	1077.504485520693	1
2976	34273	1077.809825461304	2
2976	35326	1109.2	2
2976	35329	1109.4	1
2976	35335	1109.709166826626	2
2976	35342	1109.933402393365	1
2976	36354	1141.1	1
2976	36358	1141.4	2
2976	36364	1141.71061677484	2
2976	36369	1141.918711354635	1
2976	37398	1173.1	1
2976	37402	1173.4	2
2976	37407	1173.707107178568	2
2976	37417	1173.940028537068	1
2976	38437	1205.1	1
2976	38442	1205.310906093743	1
2976	38449	1205.530876891295	1
2976	38455	1205.747024633635	1
2976	39462	1237.2	2
2976	39467	1237.50150702388	2
2976	39474	1237.718035085164	1
2976	39479	1237.929829867484	1
2976	40487	1269.2	2
2976	40490	1269.4	1
2976	40494	1269.609381511772	1
2976	40499	1269.812336862917	1
2976	41524	1301.2	2
2976	41527	1301.4	1
2976	41531	1301.602381352572	1
2976	41536	1301.82080377312	1
2976	42535	1333.1	1
2976	42539	1333.4	2
2976	42545	1333.610488058518	1
2976	42549	1333.814362171684	1
2976	43558	1365.2	2
2976	43561	1365.4	1
2976	43565	1365.601742685243	1
2976	43569	1365.810768920834	1
2976	44594	1397	0
2976	44598	1397.3	2
2976	44602	1397.509378265675	1
2976	44606	1397.709880337751	1
2976	45609	1429.1	1
2976	45614	1429.313551202785	1
2976	45621	1429.536141603616	1
2976	45626	1429.842625407691	2
2976	46633	1461.1	1
2976	46636	1461.3	1
2976	46642	1461.61658243206	2
2976	46647	1461.829422350076	1
2976	47686	1493.1	1
2976	47697	1493.43301862271	2
2976	47706	1493.656485781564	1
2976	47720	1493.917314983842	1
2976	48717	1525.1	1
2976	48720	1525.3	1
2976	48729	1525.522676630252	1
2976	48735	1525.737272433739	1
2976	49764	1557.1	1
2976	49767	1557.3	1
2976	49772	1557.608931649359	2
2976	49776	1557.811011997369	1
2976	50811	1589.1	1
2976	50815	1589.4	2
2976	50820	1589.703531035301	2
2976	50828	1590.010023286693	2
2976	51867	1621.2	2
2976	51872	1621.6	3
2976	51876	1621.809642394126	1
2976	51890	1622.11648549876	2
2976	52907	1653	0
2976	52913	1653.310185785139	2
2976	52917	1653.515515804864	1
2976	52921	1653.719389608602	1
2976	53915	1685.1	1
2976	53918	1685.3	1
2976	53924	1685.515297438462	1
2976	53929	1685.725874454019	1
2976	54947	1717.1	1
2976	54952	1717.5	3
2976	54957	1717.707786691225	1
2976	54961	1717.911944505708	1
2976	56012	1749.4	5
2976	56015	1749.6	1
2976	56020	1749.806504138188	1
2976	56028	1750.016117313984	1
2976	57043	1781.1	1
2976	57047	1781.4	2
2976	57052	1781.70729973443	2
2976	57057	1781.912528319253	1
2976	58108	1813.2	2
2976	58111	1813.4	1
2976	58116	1813.702854954709	2
2976	58122	1813.917215160623	1
2976	59152	1845.1	1
2976	59156	1845.4	2
2976	59161	1845.706804062274	2
2976	59170	1845.930435947599	1
2976	60167	1877.1	1
2976	60171	1877.4	2
2976	60175	1877.605229524031	1
2976	60180	1877.809850063243	1
2976	61278	1909.2	2
2976	61281	1909.4	1
2976	61287	1909.619220962046	1
2976	61291	1909.820675001676	1
2976	62348	1941	0
2976	62352	1941.205754226101	1
2976	62358	1941.417483493846	1
2976	62364	1941.626716980331	1
2976	63403	1973.2	2
2976	63407	1973.5	2
2976	63411	1973.703533490544	1
2976	63415	1973.908748316508	1
2976	64444	2005.1	1
2976	64448	2005.306781341861	1
2976	64456	2005.620587304866	2
2976	64461	2005.926255263207	2
2976	65521	2037.1	1
2976	65525	2037.4	2
2976	65530	2037.702990814442	2
2976	65541	2038.028048839301	2
2977	29	21.1	0.875
2977	33	21.4	0.75
2977	39	21.619110379858	0.875
2977	46	21.932071459051	0.75
2977	1051	53	1
2977	1054	53.2	0.875
2977	1059	53.503242986409	0.75
2977	1067	53.728845020895	0.875
2977	2076	85.1	0.875
2977	2079	85.3	0.875
2977	2083	85.503171933828	0.875
2977	2097	85.753550253079	0.875
2977	3106	117.1	0.875
2977	3110	117.4	0.75
2977	3115	117.709378853575	0.75
2977	3119	117.917430960035	0.875
2977	4179	149.1	0.875
2977	4183	149.304353922388	0.875
2977	4187	149.510438517258	0.875
2977	4191	149.715959899588	0.875
2977	5249	181.2	0.75
2977	5252	181.4	0.875
2977	5258	181.613419797347	0.875
2977	5267	181.839596446245	0.875
2977	6274	213.1	0.875
2977	6278	213.4	0.75
2977	6282	213.609260254339	0.875
2977	6286	213.817395523229	0.875
2977	7275	245.1	0.875
2977	7278	245.3	0.875
2977	7282	245.504337418039	0.875
2977	7289	245.726837157701	0.875
2977	8291	277.1	0.875
2977	8294	277.3	0.875
2977	8298	277.505866300056	0.875
2977	8306	277.724165333445	0.875
2977	9325	309.2	0.75
2977	9330	309.503996231444	0.75
2977	9334	309.707279757663	0.875
2977	9338	309.911898501672	0.875
2977	10422	341.1	0.875
2977	10426	341.4	0.75
2977	10431	341.706012936669	0.75
2977	10438	341.93399971033	0.875
2977	11487	373.1	0.875
2977	11490	373.3	0.875
2977	11495	373.608686437604	0.75
2977	11500	373.908975961426	0.75
2977	12529	405.1	0.875
2977	12533	405.308677398499	0.875
2977	12538	405.613007045322	0.75
2977	12545	405.934372631611	0.75
2977	13552	437.1	0.875
2977	13555	437.3	0.875
2977	13561	437.606526014196	0.75
2977	13565	437.810651953235	0.875
2977	14588	469.1	0.875
2977	14593	469.305462187028	0.875
2977	14600	469.522064325994	0.875
2977	14605	469.822954932384	0.75
2977	15635	501.2	0.75
2977	15638	501.4	0.875
2977	15644	501.616727532423	0.875
2977	15648	501.818371758116	0.875
2977	16661	533.1	0.875
2977	16665	533.4	0.75
2977	16670	533.704739049924	0.75
2977	16674	533.91255764421	0.875
2977	17691	565.2	0.75
2977	17695	565.5	0.75
2977	17700	565.805418363828	0.75
2977	17713	566.015203399471	0.875
2977	18736	597.1	0.875
2977	18740	597.308488293052	0.875
2977	18744	597.513458109697	0.875
2977	18748	597.72059974562	0.875
2977	19737	629.2	0.75
2977	19740	629.4	0.875
2977	19744	629.605004822453	0.875
2977	19748	629.809682712214	0.875
2977	20760	661.2	0.75
2977	20764	661.5	0.75
2977	20769	661.80669151474	0.75
2977	20776	662.013415890428	0.875
2977	21799	693.2	0.75
2977	21803	693.5	0.75
2977	21809	693.809561293036	0.75
2977	21816	694.013025025149	0.875
2977	22808	725.1	0.875
2977	22812	725.4	0.75
2977	22816	725.602868498722	0.875
2977	22822	725.814267664212	0.875
2977	23842	757.1	0.875
2977	23846	757.4	0.75
2977	23851	757.705115788045	0.75
2977	23860	758.012061374866	0.75
2977	24897	789	1
2977	24902	789.309404272176	0.75
2977	24912	789.539232392533	0.875
2977	24916	789.744929298677	0.875
2977	25941	821.1	0.875
2977	25946	821.401537041747	0.75
2977	25950	821.605429978844	0.875
2977	25955	821.908243776711	0.75
2977	26975	853.1	0.875
2977	26978	853.3	0.875
2977	26983	853.600908014078	0.75
2977	26987	853.809809922766	0.875
2977	28026	885.2	0.75
2977	28029	885.4	0.875
2977	28034	885.701892102628	0.75
2977	28038	885.905842636704	0.875
2977	29072	917.1	0.875
2977	29075	917.3	0.875
2977	29080	917.510472695177	0.875
2977	29087	917.743611153992	0.875
2977	30147	949	1
2977	30151	949.3	0.75
2977	30156	949.606405399416	0.75
2977	30162	949.909865251666	0.75
2977	31154	981.1	0.875
2977	31158	981.4	0.75
2977	31163	981.700253372299	0.75
2977	31167	981.906103535044	0.875
2977	32185	1013.1	0.875
2977	32189	1013.4	0.75
2977	32195	1013.706579498394	0.75
2977	32199	1013.915711123402	0.875
2977	33222	1045	1
2977	33226	1045.3	0.75
2977	33247	1045.701861765939	0.75
2977	33260	1046.038468276734	0.75
2977	34259	1077.1	0.875
2977	34262	1077.3	0.875
2977	34268	1077.504485520693	0.875
2977	34273	1077.809825461304	0.75
2977	35326	1109.2	0.75
2977	35329	1109.4	0.875
2977	35335	1109.709166826626	0.75
2977	35342	1109.933402393365	0.875
2977	36354	1141.1	0.875
2977	36358	1141.4	0.75
2977	36364	1141.71061677484	0.75
2977	36369	1141.918711354635	0.875
2977	37398	1173.1	0.875
2977	37402	1173.4	0.75
2977	37407	1173.707107178568	0.75
2977	37417	1173.940028537068	0.875
2977	38437	1205.1	0.875
2977	38442	1205.310906093743	0.875
2977	38449	1205.530876891295	0.875
2977	38455	1205.747024633635	0.875
2977	39462	1237.2	0.75
2977	39467	1237.50150702388	0.75
2977	39474	1237.718035085164	0.875
2977	39479	1237.929829867484	0.875
2977	40487	1269.2	0.75
2977	40490	1269.4	0.875
2977	40494	1269.609381511772	0.875
2977	40499	1269.812336862917	0.875
2977	41524	1301.2	0.75
2977	41527	1301.4	0.875
2977	41531	1301.602381352572	0.875
2977	41536	1301.82080377312	0.875
2977	42535	1333.1	0.875
2977	42539	1333.4	0.75
2977	42545	1333.610488058518	0.875
2977	42549	1333.814362171684	0.875
2977	43558	1365.2	0.75
2977	43561	1365.4	0.875
2977	43565	1365.601742685243	0.875
2977	43569	1365.810768920834	0.875
2977	44594	1397	1
2977	44598	1397.3	0.75
2977	44602	1397.509378265675	0.875
2977	44606	1397.709880337751	0.875
2977	45609	1429.1	0.875
2977	45614	1429.313551202785	0.875
2977	45621	1429.536141603616	0.875
2977	45626	1429.842625407691	0.75
2977	46633	1461.1	0.875
2977	46636	1461.3	0.875
2977	46642	1461.61658243206	0.75
2977	46647	1461.829422350076	0.875
2977	47686	1493.1	0.875
2977	47697	1493.43301862271	0.75
2977	47706	1493.656485781564	0.875
2977	47720	1493.917314983842	0.875
2977	48717	1525.1	0.875
2977	48720	1525.3	0.875
2977	48729	1525.522676630252	0.875
2977	48735	1525.737272433739	0.875
2977	49764	1557.1	0.875
2977	49767	1557.3	0.875
2977	49772	1557.608931649359	0.75
2977	49776	1557.811011997369	0.875
2977	50811	1589.1	0.875
2977	50815	1589.4	0.75
2977	50820	1589.703531035301	0.75
2977	50828	1590.010023286693	0.75
2977	51867	1621.2	0.75
2977	51872	1621.6	0.625
2977	51876	1621.809642394126	0.875
2977	51890	1622.11648549876	0.75
2977	52907	1653	1
2977	52913	1653.310185785139	0.75
2977	52917	1653.515515804864	0.875
2977	52921	1653.719389608602	0.875
2977	53915	1685.1	0.875
2977	53918	1685.3	0.875
2977	53924	1685.515297438462	0.875
2977	53929	1685.725874454019	0.875
2977	54947	1717.1	0.875
2977	54952	1717.5	0.625
2977	54957	1717.707786691225	0.875
2977	54961	1717.911944505708	0.875
2977	56012	1749.4	0.375
2977	56015	1749.6	0.875
2977	56020	1749.806504138188	0.875
2977	56028	1750.016117313984	0.875
2977	57043	1781.1	0.875
2977	57047	1781.4	0.75
2977	57052	1781.70729973443	0.75
2977	57057	1781.912528319253	0.875
2977	58108	1813.2	0.75
2977	58111	1813.4	0.875
2977	58116	1813.702854954709	0.75
2977	58122	1813.917215160623	0.875
2977	59152	1845.1	0.875
2977	59156	1845.4	0.75
2977	59161	1845.706804062274	0.75
2977	59170	1845.930435947599	0.875
2977	60167	1877.1	0.875
2977	60171	1877.4	0.75
2977	60175	1877.605229524031	0.875
2977	60180	1877.809850063243	0.875
2977	61278	1909.2	0.75
2977	61281	1909.4	0.875
2977	61287	1909.619220962046	0.875
2977	61291	1909.820675001676	0.875
2977	62348	1941	1
2977	62352	1941.205754226101	0.875
2977	62358	1941.417483493846	0.875
2977	62364	1941.626716980331	0.875
2977	63403	1973.2	0.75
2977	63407	1973.5	0.75
2977	63411	1973.703533490544	0.875
2977	63415	1973.908748316508	0.875
2977	64444	2005.1	0.875
2977	64448	2005.306781341861	0.875
2977	64456	2005.620587304866	0.75
2977	64461	2005.926255263207	0.75
2977	65521	2037.1	0.875
2977	65525	2037.4	0.75
2977	65530	2037.702990814442	0.75
2977	65541	2038.028048839301	0.75
2978	29	21.1	0.1
2978	33	21.4	0.3
2978	39	21.619110379858	0.2
2978	46	21.932071459051	0.3
2978	1051	53	0
2978	1054	53.2	0.2
2978	1059	53.503242986409	0.3
2978	1067	53.728845020895	0.2
2978	2076	85.1	0.1
2978	2079	85.3	0.2
2978	2083	85.503171933828	0.2
2978	2097	85.753550253079	0.2
2978	3106	117.1	0.1
2978	3110	117.4	0.3
2978	3115	117.709378853575	0.3
2978	3119	117.917430960035	0.2
2978	4179	149.1	0.1
2978	4183	149.304353922388	0.2
2978	4187	149.510438517258	0.2
2978	4191	149.715959899588	0.2
2978	5249	181.2	0.2
2978	5252	181.4	0.2
2978	5258	181.613419797347	0.2
2978	5267	181.839596446245	0.2
2978	6274	213.1	0.1
2978	6278	213.4	0.3
2978	6282	213.609260254339	0.2
2978	6286	213.817395523229	0.2
2978	7275	245.1	0.1
2978	7278	245.3	0.2
2978	7282	245.504337418039	0.2
2978	7289	245.726837157701	0.2
2978	8291	277.1	0.1
2978	8294	277.3	0.2
2978	8298	277.505866300056	0.2
2978	8306	277.724165333445	0.2
2978	9325	309.2	0.2
2978	9330	309.503996231444	0.3
2978	9334	309.707279757663	0.2
2978	9338	309.911898501672	0.2
2978	10422	341.1	0.1
2978	10426	341.4	0.3
2978	10431	341.706012936669	0.3
2978	10438	341.93399971033	0.2
2978	11487	373.1	0.1
2978	11490	373.3	0.2
2978	11495	373.608686437604	0.3
2978	11500	373.908975961426	0.3
2978	12529	405.1	0.1
2978	12533	405.308677398499	0.2
2978	12538	405.613007045322	0.3
2978	12545	405.934372631611	0.3
2978	13552	437.1	0.1
2978	13555	437.3	0.2
2978	13561	437.606526014196	0.3
2978	13565	437.810651953235	0.2
2978	14588	469.1	0.1
2978	14593	469.305462187028	0.2
2978	14600	469.522064325994	0.2
2978	14605	469.822954932384	0.3
2978	15635	501.2	0.2
2978	15638	501.4	0.2
2978	15644	501.616727532423	0.2
2978	15648	501.818371758116	0.2
2978	16661	533.1	0.1
2978	16665	533.4	0.3
2978	16670	533.704739049924	0.3
2978	16674	533.91255764421	0.2
2978	17691	565.2	0.2
2978	17695	565.5	0.3
2978	17700	565.805418363828	0.3
2978	17713	566.015203399471	0.2
2978	18736	597.1	0.1
2978	18740	597.308488293052	0.2
2978	18744	597.513458109697	0.2
2978	18748	597.72059974562	0.2
2978	19737	629.2	0.2
2978	19740	629.4	0.2
2978	19744	629.605004822453	0.2
2978	19748	629.809682712214	0.2
2978	20760	661.2	0.2
2978	20764	661.5	0.3
2978	20769	661.80669151474	0.3
2978	20776	662.013415890428	0.2
2978	21799	693.2	0.2
2978	21803	693.5	0.3
2978	21809	693.809561293036	0.3
2978	21816	694.013025025149	0.2
2978	22808	725.1	0.1
2978	22812	725.4	0.3
2978	22816	725.602868498722	0.2
2978	22822	725.814267664212	0.2
2978	23842	757.1	0.1
2978	23846	757.4	0.3
2978	23851	757.705115788045	0.3
2978	23860	758.012061374866	0.3
2978	24897	789	0
2978	24902	789.309404272176	0.3
2978	24912	789.539232392533	0.2
2978	24916	789.744929298677	0.2
2978	25941	821.1	0.1
2978	25946	821.401537041747	0.3
2978	25950	821.605429978844	0.2
2978	25955	821.908243776711	0.3
2978	26975	853.1	0.1
2978	26978	853.3	0.2
2978	26983	853.600908014078	0.3
2978	26987	853.809809922766	0.2
2978	28026	885.2	0.2
2978	28029	885.4	0.2
2978	28034	885.701892102628	0.3
2978	28038	885.905842636704	0.2
2978	29072	917.1	0.1
2978	29075	917.3	0.2
2978	29080	917.510472695177	0.2
2978	29087	917.743611153992	0.2
2978	30147	949	0
2978	30151	949.3	0.3
2978	30156	949.606405399416	0.3
2978	30162	949.909865251666	0.3
2978	31154	981.1	0.1
2978	31158	981.4	0.3
2978	31163	981.700253372299	0.3
2978	31167	981.906103535044	0.2
2978	32185	1013.1	0.1
2978	32189	1013.4	0.3
2978	32195	1013.706579498394	0.3
2978	32199	1013.915711123402	0.2
2978	33222	1045	0
2978	33226	1045.3	0.3
2978	33247	1045.701861765939	0.3
2978	33260	1046.038468276734	0.3
2978	34259	1077.1	0.1
2978	34262	1077.3	0.2
2978	34268	1077.504485520693	0.2
2978	34273	1077.809825461304	0.3
2978	35326	1109.2	0.2
2978	35329	1109.4	0.2
2978	35335	1109.709166826626	0.3
2978	35342	1109.933402393365	0.2
2978	36354	1141.1	0.1
2978	36358	1141.4	0.3
2978	36364	1141.71061677484	0.3
2978	36369	1141.918711354635	0.2
2978	37398	1173.1	0.1
2978	37402	1173.4	0.3
2978	37407	1173.707107178568	0.3
2978	37417	1173.940028537068	0.2
2978	38437	1205.1	0.1
2978	38442	1205.310906093743	0.2
2978	38449	1205.530876891295	0.2
2978	38455	1205.747024633635	0.2
2978	39462	1237.2	0.2
2978	39467	1237.50150702388	0.3
2978	39474	1237.718035085164	0.2
2978	39479	1237.929829867484	0.2
2978	40487	1269.2	0.2
2978	40490	1269.4	0.2
2978	40494	1269.609381511772	0.2
2978	40499	1269.812336862917	0.2
2978	41524	1301.2	0.2
2978	41527	1301.4	0.2
2978	41531	1301.602381352572	0.2
2978	41536	1301.82080377312	0.2
2978	42535	1333.1	0.1
2978	42539	1333.4	0.3
2978	42545	1333.610488058518	0.2
2978	42549	1333.814362171684	0.2
2978	43558	1365.2	0.2
2978	43561	1365.4	0.2
2978	43565	1365.601742685243	0.2
2978	43569	1365.810768920834	0.2
2978	44594	1397	0
2978	44598	1397.3	0.3
2978	44602	1397.509378265675	0.2
2978	44606	1397.709880337751	0.2
2978	45609	1429.1	0.1
2978	45614	1429.313551202785	0.2
2978	45621	1429.536141603616	0.2
2978	45626	1429.842625407691	0.3
2978	46633	1461.1	0.1
2978	46636	1461.3	0.2
2978	46642	1461.61658243206	0.3
2978	46647	1461.829422350076	0.2
2978	47686	1493.1	0.1
2978	47697	1493.43301862271	0.3
2978	47706	1493.656485781564	0.2
2978	47720	1493.917314983842	0.2
2978	48717	1525.1	0.1
2978	48720	1525.3	0.2
2978	48729	1525.522676630252	0.2
2978	48735	1525.737272433739	0.2
2978	49764	1557.1	0.1
2978	49767	1557.3	0.2
2978	49772	1557.608931649359	0.3
2978	49776	1557.811011997369	0.2
2978	50811	1589.1	0.1
2978	50815	1589.4	0.3
2978	50820	1589.703531035301	0.3
2978	50828	1590.010023286693	0.3
2978	51867	1621.2	0.2
2978	51872	1621.6	0.4
2978	51876	1621.809642394126	0.2
2978	51890	1622.11648549876	0.3
2978	52907	1653	0
2978	52913	1653.310185785139	0.3
2978	52917	1653.515515804864	0.2
2978	52921	1653.719389608602	0.2
2978	53915	1685.1	0.1
2978	53918	1685.3	0.2
2978	53924	1685.515297438462	0.2
2978	53929	1685.725874454019	0.2
2978	54947	1717.1	0.1
2978	54952	1717.5	0.4
2978	54957	1717.707786691225	0.2
2978	54961	1717.911944505708	0.2
2978	56012	1749.4	0.4
2978	56015	1749.6	0.2
2978	56020	1749.806504138188	0.2
2978	56028	1750.016117313984	0.2
2978	57043	1781.1	0.1
2978	57047	1781.4	0.3
2978	57052	1781.70729973443	0.3
2978	57057	1781.912528319253	0.2
2978	58108	1813.2	0.2
2978	58111	1813.4	0.2
2978	58116	1813.702854954709	0.3
2978	58122	1813.917215160623	0.2
2978	59152	1845.1	0.1
2978	59156	1845.4	0.3
2978	59161	1845.706804062274	0.3
2978	59170	1845.930435947599	0.2
2978	60167	1877.1	0.1
2978	60171	1877.4	0.3
2978	60175	1877.605229524031	0.2
2978	60180	1877.809850063243	0.2
2978	61278	1909.2	0.2
2978	61281	1909.4	0.2
2978	61287	1909.619220962046	0.2
2978	61291	1909.820675001676	0.2
2978	62348	1941	0
2978	62352	1941.205754226101	0.2
2978	62358	1941.417483493846	0.2
2978	62364	1941.626716980331	0.2
2978	63403	1973.2	0.2
2978	63407	1973.5	0.3
2978	63411	1973.703533490544	0.2
2978	63415	1973.908748316508	0.2
2978	64444	2005.1	0.1
2978	64448	2005.306781341861	0.2
2978	64456	2005.620587304866	0.3
2978	64461	2005.926255263207	0.3
2978	65521	2037.1	0.1
2978	65525	2037.4	0.3
2978	65530	2037.702990814442	0.3
2978	65541	2038.028048839301	0.3
2979	63	22.1	1
2979	67	22.4	2
2979	71	22.603612569847	1
2979	76	22.907451922587	2
2979	1084	54.1	1
2979	1087	54.3	1
2979	1092	54.607728500205	2
2979	1097	54.812077910291	1
2979	2116	86.3	3
2979	2120	86.501610299898	1
2979	2124	86.70658212474	1
2979	2129	86.917697860014	1
2979	3137	118.2	2
2979	3142	118.412229619581	1
2979	3147	118.717134867371	2
2979	3184	119.079977326844	1
2979	4209	150.2	2
2979	4213	150.5	2
2979	4218	150.705889921793	1
2979	4226	151.007582200997	2
2979	5285	182.2	2
2979	5290	182.6	3
2979	5296	182.827509474385	1
2979	5303	183.029141898088	1
2979	6304	214.2	2
2979	6307	214.4	1
2979	6312	214.703868586628	2
2979	6316	214.910452328766	1
2979	7307	246.2	2
2979	7311	246.5	2
2979	7315	246.709849184707	1
2979	7321	246.918897300649	1
2979	8323	278.1	1
2979	8326	278.3	1
2979	8331	278.608426049808	2
2979	8338	278.926709465963	2
2979	9356	310.2	2
2979	9359	310.4	1
2979	9363	310.609356616518	1
2979	9367	310.811934698146	1
2979	10455	342.1	1
2979	10458	342.3	1
2979	10463	342.51597594394	1
2979	10467	342.723539886235	1
2979	11519	374.3	3
2979	11523	374.6	2
2979	11528	374.903973680294	2
2979	11542	375.116357378925	1
2979	12562	406.1	1
2979	12565	406.3	1
2979	12569	406.505532625615	1
2979	12574	406.718874880406	1
2979	13582	438.1	1
2979	13585	438.3	1
2979	13589	438.501458761915	1
2979	13594	438.705195154595	1
2979	14623	470.2	2
2979	14626	470.4	1
2979	14630	470.60616647104	1
2979	14635	470.909798949022	2
2979	15665	502.1	1
2979	15669	502.306546609445	1
2979	15675	502.519417522766	1
2979	15680	502.731571017484	1
2979	16692	534.2	2
2979	16699	534.515787908858	2
2979	16704	534.718716579846	1
2979	16713	535.033756562361	2
2979	17711	566	0
2979	17725	566.2	1
2979	17731	566.409130511258	1
2979	17738	566.731281323816	2
2979	18764	598	0
2979	18767	598.2	1
2979	18771	598.404853342352	1
2979	18775	598.607525315014	1
2979	19765	630.1	1
2979	19768	630.3	1
2979	19772	630.504993732855	1
2979	19776	630.705078009508	1
2979	20791	662.2	2
2979	20795	662.5	2
2979	20799	662.70160141316	1
2979	20806	662.924787522248	1
2979	21830	694.1	1
2979	21834	694.309982649357	1
2979	21840	694.527200934698	1
2979	21844	694.732954871151	1
2979	22839	726.1	1
2979	22842	726.3	1
2979	22846	726.502262465446	1
2979	22852	726.728721620883	1
2979	23874	758.1	1
2979	23878	758.4	2
2979	23882	758.606786914204	1
2979	23886	758.808212358736	1
2979	24934	790.2	2
2979	24937	790.4	1
2979	24941	790.605931604721	1
2979	24946	790.909568770443	2
2979	25971	822	0
2979	25975	822.203944376071	1
2979	25980	822.415685799837	1
2979	25989	822.741535005894	2
2979	27005	854.2	2
2979	27008	854.4	1
2979	27012	854.605868686176	1
2979	27017	854.910168777277	2
2979	28055	886.1	1
2979	28058	886.3	1
2979	28065	886.526469913037	1
2979	28071	886.737595638583	1
2979	29104	918.1	1
2979	29107	918.3	1