version 2
run Stability-norelink-124-20130525-23:22:19-22103
attr configname Stability-norelink
attr datetime 20130525-23:22:19
attr experiment Stability
attr inifile omnetpp.ini
attr iterationvars $0=1e-6
attr iterationvars2 "$0=1e-6, $repetition=4"
attr measurement $0=1e-6
attr network Network
attr processid 22103
attr repetition 4
attr replication #4
attr resultdir results
attr runnumber 124
attr seedset 124

vector 11907  Network.dyn_peer[1]  lookupHopsSig:vector  ETV
vector 11908  Network.dyn_peer[1]  lookupStabilitySig:vector  ETV
vector 11909  Network.dyn_peer[1]  lookupTimeSig:vector  ETV
vector 11934  Network.dyn_peer[10]  lookupHopsSig:vector  ETV
vector 11935  Network.dyn_peer[10]  lookupStabilitySig:vector  ETV
vector 11936  Network.dyn_peer[10]  lookupTimeSig:vector  ETV
vector 11937  Network.dyn_peer[11]  lookupHopsSig:vector  ETV
vector 11938  Network.dyn_peer[11]  lookupStabilitySig:vector  ETV
vector 11939  Network.dyn_peer[11]  lookupTimeSig:vector  ETV
vector 11952  Network.dyn_peer[16]  lookupHopsSig:vector  ETV
vector 11953  Network.dyn_peer[16]  lookupStabilitySig:vector  ETV
vector 11954  Network.dyn_peer[16]  lookupTimeSig:vector  ETV
vector 11979  Network.dyn_peer[25]  lookupHopsSig:vector  ETV
vector 11980  Network.dyn_peer[25]  lookupStabilitySig:vector  ETV
vector 11981  Network.dyn_peer[25]  lookupTimeSig:vector  ETV
vector 11904  Network.dyn_peer[0]  lookupHopsSig:vector  ETV
vector 11905  Network.dyn_peer[0]  lookupStabilitySig:vector  ETV
vector 11906  Network.dyn_peer[0]  lookupTimeSig:vector  ETV
vector 11910  Network.dyn_peer[2]  lookupHopsSig:vector  ETV
vector 11911  Network.dyn_peer[2]  lookupStabilitySig:vector  ETV
vector 11912  Network.dyn_peer[2]  lookupTimeSig:vector  ETV
vector 11913  Network.dyn_peer[3]  lookupHopsSig:vector  ETV
vector 11914  Network.dyn_peer[3]  lookupStabilitySig:vector  ETV
vector 11915  Network.dyn_peer[3]  lookupTimeSig:vector  ETV
vector 11919  Network.dyn_peer[5]  lookupHopsSig:vector  ETV
vector 11920  Network.dyn_peer[5]  lookupStabilitySig:vector  ETV
vector 11921  Network.dyn_peer[5]  lookupTimeSig:vector  ETV
vector 11922  Network.dyn_peer[6]  lookupHopsSig:vector  ETV
vector 11923  Network.dyn_peer[6]  lookupStabilitySig:vector  ETV
vector 11924  Network.dyn_peer[6]  lookupTimeSig:vector  ETV
vector 11925  Network.dyn_peer[7]  lookupHopsSig:vector  ETV
vector 11926  Network.dyn_peer[7]  lookupStabilitySig:vector  ETV
vector 11927  Network.dyn_peer[7]  lookupTimeSig:vector  ETV
vector 11931  Network.dyn_peer[9]  lookupHopsSig:vector  ETV
vector 11932  Network.dyn_peer[9]  lookupStabilitySig:vector  ETV
vector 11933  Network.dyn_peer[9]  lookupTimeSig:vector  ETV
vector 11985  Network.dyn_peer[27]  lookupHopsSig:vector  ETV
vector 11986  Network.dyn_peer[27]  lookupStabilitySig:vector  ETV
vector 11987  Network.dyn_peer[27]  lookupTimeSig:vector  ETV
vector 11994  Network.dyn_peer[30]  lookupHopsSig:vector  ETV
vector 11995  Network.dyn_peer[30]  lookupStabilitySig:vector  ETV
vector 11996  Network.dyn_peer[30]  lookupTimeSig:vector  ETV
vector 11916  Network.dyn_peer[4]  lookupHopsSig:vector  ETV
vector 11917  Network.dyn_peer[4]  lookupStabilitySig:vector  ETV
vector 11918  Network.dyn_peer[4]  lookupTimeSig:vector  ETV
vector 11928  Network.dyn_peer[8]  lookupHopsSig:vector  ETV
vector 11929  Network.dyn_peer[8]  lookupStabilitySig:vector  ETV
vector 11930  Network.dyn_peer[8]  lookupTimeSig:vector  ETV
vector 11958  Network.dyn_peer[18]  lookupHopsSig:vector  ETV
vector 11959  Network.dyn_peer[18]  lookupStabilitySig:vector  ETV
vector 11960  Network.dyn_peer[18]  lookupTimeSig:vector  ETV
vector 11973  Network.dyn_peer[23]  lookupHopsSig:vector  ETV
vector 11974  Network.dyn_peer[23]  lookupStabilitySig:vector  ETV
vector 11975  Network.dyn_peer[23]  lookupTimeSig:vector  ETV
vector 11991  Network.dyn_peer[29]  lookupHopsSig:vector  ETV
vector 11992  Network.dyn_peer[29]  lookupStabilitySig:vector  ETV
vector 11993  Network.dyn_peer[29]  lookupTimeSig:vector  ETV
vector 11940  Network.dyn_peer[12]  lookupHopsSig:vector  ETV
vector 11941  Network.dyn_peer[12]  lookupStabilitySig:vector  ETV
vector 11942  Network.dyn_peer[12]  lookupTimeSig:vector  ETV
vector 11949  Network.dyn_peer[15]  lookupHopsSig:vector  ETV
vector 11950  Network.dyn_peer[15]  lookupStabilitySig:vector  ETV
vector 11951  Network.dyn_peer[15]  lookupTimeSig:vector  ETV
vector 11955  Network.dyn_peer[17]  lookupHopsSig:vector  ETV
vector 11956  Network.dyn_peer[17]  lookupStabilitySig:vector  ETV
vector 11957  Network.dyn_peer[17]  lookupTimeSig:vector  ETV
vector 11961  Network.dyn_peer[19]  lookupHopsSig:vector  ETV
vector 11962  Network.dyn_peer[19]  lookupStabilitySig:vector  ETV
vector 11963  Network.dyn_peer[19]  lookupTimeSig:vector  ETV
vector 11967  Network.dyn_peer[21]  lookupHopsSig:vector  ETV
vector 11968  Network.dyn_peer[21]  lookupStabilitySig:vector  ETV
vector 11969  Network.dyn_peer[21]  lookupTimeSig:vector  ETV
vector 11970  Network.dyn_peer[22]  lookupHopsSig:vector  ETV
vector 11971  Network.dyn_peer[22]  lookupStabilitySig:vector  ETV
vector 11972  Network.dyn_peer[22]  lookupTimeSig:vector  ETV
vector 11976  Network.dyn_peer[24]  lookupHopsSig:vector  ETV
vector 11977  Network.dyn_peer[24]  lookupStabilitySig:vector  ETV
vector 11978  Network.dyn_peer[24]  lookupTimeSig:vector  ETV
vector 11997  Network.dyn_peer[31]  lookupHopsSig:vector  ETV
vector 11998  Network.dyn_peer[31]  lookupStabilitySig:vector  ETV
vector 11999  Network.dyn_peer[31]  lookupTimeSig:vector  ETV
vector 11943  Network.dyn_peer[13]  lookupHopsSig:vector  ETV
vector 11944  Network.dyn_peer[13]  lookupStabilitySig:vector  ETV
vector 11945  Network.dyn_peer[13]  lookupTimeSig:vector  ETV
vector 11964  Network.dyn_peer[20]  lookupHopsSig:vector  ETV
vector 11965  Network.dyn_peer[20]  lookupStabilitySig:vector  ETV
vector 11966  Network.dyn_peer[20]  lookupTimeSig:vector  ETV
vector 11982  Network.dyn_peer[26]  lookupHopsSig:vector  ETV
vector 11983  Network.dyn_peer[26]  lookupStabilitySig:vector  ETV
vector 11984  Network.dyn_peer[26]  lookupTimeSig:vector  ETV
vector 11988  Network.dyn_peer[28]  lookupHopsSig:vector  ETV
vector 11989  Network.dyn_peer[28]  lookupStabilitySig:vector  ETV
vector 11990  Network.dyn_peer[28]  lookupTimeSig:vector  ETV
vector 11946  Network.dyn_peer[14]  lookupHopsSig:vector  ETV
vector 11947  Network.dyn_peer[14]  lookupStabilitySig:vector  ETV
vector 11948  Network.dyn_peer[14]  lookupTimeSig:vector  ETV
11904	145	20.100000001	1
11904	352	20.400000001	2
11904	858	21.108629976742	6
11904	1167	21.409260483047	2
11904	1439	21.61069924443	1
11904	2180	22.114357695408	6
11904	2627	22.414357695408	4
11904	3585	23.217257504862	7
11904	3714	23.322228071806	3
11904	4263	23.722057162041	5
11904	4444	23.830337269352	4
11904	4540	23.922422576411	6
11904	4716	24.024788558692	0
11904	4732	24.025910030164	0
11904	5145	24.328012041411	2
11904	5909	24.928112042411	6
11904	6174	25.128112042411	2
11904	7117	25.745273208832	4
11904	7399	25.950450414972	1
11904	7440	25.959952344293	0
11904	8210	26.559952344293	5
11904	8293	26.648965397462	3
11904	8582	26.860687893835	2
11904	8811	27.056000815572	3
11904	9281	27.441360668212	3
11904	9773	27.941360668212	4
11904	10390	28.448856944886	5
11904	10854	28.852958152604	4
11904	11844	29.763489686276	2
11904	12797	30.606363224471	5
11904	13379	31.106363224471	4
11904	14183	31.798216520611	2
11904	14203	31.812438483359	8
11904	14524	32.109062466863	2
11904	14558	32.169689814052	9
11904	15451	32.775631393602	8
11904	15796	33.083379087578	3
11904	16074	33.385049767314	2
11904	16284	33.586232901216	1
11904	16531	33.794505345977	1
11904	16844	34.095184624696	4
11904	17145	34.395184624696	2
11904	17427	34.697008083893	2
11904	18636	35.700466940816	9
11904	19295	36.306400244402	5
11904	19774	36.646778810584	6
11904	19832	36.715794874323	4
11904	20178	37.024581882695	2
11904	20303	37.094911751802	4
11904	20410	37.157649213912	6
11904	20643	37.35797624491	2
11904	21190	37.85797624491	5
11904	21441	38.158699414505	2
11904	21838	38.566706869656	3
11904	22086	38.770358941601	1
11904	22330	38.981438220001	7
11904	22530	39.171600029361	3
11904	22541	39.179864846576	3
11904	23360	39.887725122207	7
11904	24554	40.881764412107	8
11904	26254	42.281764412107	14
11904	26905	42.715476898345	3
11904	26964	42.784233740178	5
11904	27339	43.126933384301	3
11904	27674	43.436036202037	2
11904	27921	43.644663881057	2
11904	28537	44.144663881057	4
11904	29301	44.750110283168	6
11904	30040	45.254904421943	6
11904	31057	46.054904421943	10
11904	31534	46.357385001371	3
11904	31561	46.420775933274	3
11904	31909	46.663690816268	2
11904	32668	47.273020474531	6
11904	33318	47.773020474531	5
11904	33950	48.274252764081	6
11904	34454	48.679347949238	3
11904	34464	48.681275213681	3
11904	34734	48.882569380481	2
11904	34901	49.082569380481	1
11904	35167	49.389352891847	2
11904	35505	49.695564735207	2
11904	35523	49.719724262873	2
11904	35696	49.898455655268	1
11904	35846	50.029321407968	2
11904	36010	50.197248617157	2
11904	36030	50.201811786471	2
11904	37300	51.304371084935	11
11904	37768	51.704371084935	4
11904	38729	52.506947894807	7
11904	39024	52.80788539317	2
11904	39173	52.973546612248	6
11904	39810	53.582692541498	6
11904	40163	53.882692541498	2
11904	40710	54.28920294758	3
11904	41263	54.68930294858	4
11904	42031	55.18930294858	4
11904	42425	55.396905497492	2
11904	42862	55.696905497492	2
11904	43298	56.0971208484	3
11904	44420	57.003106181401	8
11904	44605	57.111066902841	0
11904	45019	57.418374136853	2
11904	45869	58.123818839104	7
11904	46144	58.423818839104	2
11904	46611	58.82688465395	3
11904	47266	59.327460643426	5
11904	47590	59.533050592741	1
11904	47931	59.831824487684	3
11904	47947	59.837917777998	3
11904	47972	59.841536010123	2
11904	48205	60.048409413708	1
11904	48207	60.048587755978	1
11904	48222	60.052576918885	1
11904	48314	60.129179141897	2
11904	48454	60.232557151567	4
11904	48594	60.359261204433	2
11904	48900	60.559361205433	2
11904	50060	61.559361205433	9
11904	50463	61.866733277182	2
11904	50729	62.040339388997	2
11904	50967	62.206502240009	8
11904	51494	62.607159085358	4
11904	51873	62.907159085358	2
11904	52099	63.113800935512	1
11904	52478	63.416570794583	3
11904	53232	64.016570794583	6
11904	53312	64.080682960336	5
11904	53730	64.321050527664	2
11904	53988	64.510342398161	2
11904	54008	64.523225477249	1
11904	54578	64.933239906032	4
11904	54885	65.133239906032	1
11904	55426	65.537164834106	3
11904	56011	65.945002555561	5
11904	56650	66.450582277737	4
11904	57008	66.760083334701	2
11904	57611	67.361610816788	5
11904	58122	67.839613345022	8
11904	58251	67.935576782442	1
11904	58581	68.143595877839	2
11904	58831	68.343595877839	1
11904	59532	68.850833029793	4
11904	59979	69.254759989017	3
11904	61668	70.775038987606	6
11904	62903	71.775038987606	9
11904	63495	72.276181810158	4
11904	63710	72.4825494277	1
11904	63887	72.592024565751	1
11904	64397	73.092024565751	4
11904	65031	73.693504541732	5
11904	65689	74.301794418805	7
11904	65701	74.313649843509	3
11904	65980	74.510800717601	1
11904	66485	74.915430270773	3
11904	66643	75.01925733568	7
11904	66980	75.326465658739	2
11904	67096	75.416316552892	4
11904	67764	76.024338758531	7
11904	68548	76.624338758531	6
11904	69245	77.181500196671	7
11904	69639	77.488771345992	2
11904	69814	77.630860038871	11
11904	70040	77.836756617687	2
11904	70303	78.036756617687	1
11904	70827	78.459764414704	3
11904	71741	79.166038460767	7
11904	72208	79.566038460767	3
11904	72780	79.97021398864	4
11904	73188	80.291996327415	6
11904	73396	80.501734499048	1
11904	73894	80.986535173196	2
11904	73993	81.0776935348	10
11904	74932	81.978183049503	9
11904	75948	82.778183049503	7
11904	76343	83.079199601655	2
11904	76825	83.479299602655	4
11904	78119	84.479299602655	10
11904	78272	84.596784033721	4
11904	79220	85.306727269258	8
11904	79493	85.51241686515	2
11904	80135	86.01241686515	4
11904	80338	86.219143009585	1
11904	80384	86.23349407618	1
11904	80898	86.637226206568	4
11904	81261	86.937226206568	2
11904	81897	87.437548998259	4
11904	82344	87.84079997142	3
11904	82355	87.842741237781	4
11904	82601	88.04442895399	1
11904	82603	88.04509221334	1
11904	82898	88.24519221434	3
11904	83297	88.54519221434	2
11904	83680	88.846993378662	3
11904	84201	89.251521493252	3
11904	84437	89.451868823261	1
11904	84995	89.857484396563	4
11904	85795	90.557484396563	8
11904	86406	91.070484776603	4
11904	86823	91.373266466481	1
11904	87700	92.073366467481	7
11904	88043	92.373366467481	2
11904	88785	93.077070997353	7
11904	89536	93.714033067128	3
11904	89749	93.887926739463	7
11904	90402	94.321920060852	5
11904	90606	94.490588382491	5
11904	90627	94.496972869773	5
11904	91895	95.403252612978	10
11904	92573	96.003252612978	5
11904	92990	96.315095897545	2
11904	93057	96.394517104423	6
11904	93251	96.541501088481	4
11904	93467	96.716204145406	3
11904	94408	97.51870215375	8
11904	95078	98.11870215375	5
11904	95866	98.740076858773	3
11904	96042	98.928253292683	8
11904	96389	99.255359137115	4
11904	96563	99.430424314452	5
11904	96704	99.537643190565	2
11904	96832	99.644935810461	2
11904	98331	100.947833838209	14
11904	99203	101.647833838209	6
11904	99628	101.955487557159	3
11904	99968	102.255487557159	2
11904	100332	102.559293005995	2
11904	100504	102.678409943455	1
11904	101012	103.083384219639	4
11904	101215	103.283384219639	1
11904	101550	103.588071323328	3
11904	101912	103.894505214181	2
11904	102109	104.098809618868	1
11904	102371	104.36247488709	2
11904	102423	104.403341220838	4
11904	102729	104.701411058939	5
11904	102732	104.704149885011	2
11904	102903	104.866943907444	4
11904	103579	105.375345507865	6
11904	104716	106.375345507865	10
11904	105463	106.797885933746	2
11904	106318	107.497885933746	7
11904	106702	107.804155714624	3
11904	107305	108.304155714624	4
11904	108613	109.41365371732	12
11904	109168	109.9184928166	4
11904	109438	110.125881136573	1
11904	109666	110.325981137573	2
11904	110221	110.725981137573	4
11904	110451	110.930247634276	1
11904	111285	111.644833310475	7
11904	111385	111.739970364944	8
11904	111577	111.8539741879	1
11904	112001	112.163939596592	3
11904	112868	112.863939596592	7
11904	113547	113.464039597592	7
11904	114465	114.164039597592	6
11904	114841	114.470886310363	2
11904	115388	114.978549513162	6
11904	115870	115.478549513162	4
11904	116357	115.880171710042	3
11904	116877	116.281729394912	4
11904	118000	117.181729394912	9
11904	118491	117.587699544541	3
11904	118599	117.697842119019	2
11904	118999	118.094551525329	4
11904	119540	118.600010167415	8
11904	119544	118.6003987444	8
11904	119821	118.8004987454	2
11904	120237	119.200522823855	4
11904	120642	119.496276183004	2
11904	121332	120.096376184004	6
11904	121714	120.396376184004	3
11904	122100	120.805526119067	3
11904	122368	121.11357048706	2
11904	123094	121.813519503845	5
11904	123101	121.818161897362	8
11904	123336	122.016567181288	1
11904	123342	122.020548968073	1
11904	123361	122.033705318167	1
11904	123496	122.134217552881	1
11904	123761	122.334217552881	1
11904	124349	122.744034660542	5
11904	124941	123.144181238504	4
11904	125628	123.644181238504	4
11904	126310	124.144281239504	5
11904	126895	124.544281239504	3
11904	127664	125.152816377944	5
11904	127880	125.364788710931	4
11904	128816	126.169253831548	9
11904	129139	126.469253831548	2
11904	129402	126.671270517632	1
11904	130360	127.47636821201	7
11904	130599	127.617893598993	8
11904	131110	127.985165397193	4
11904	132076	128.890565126349	9
11904	132606	129.390565126349	4
11904	132822	129.603967717665	1
11904	132846	129.610215414214	0
11904	133647	130.310215414214	6
11904	134330	130.811523542432	10
11904	134746	131.112633479828	3
11904	135331	131.615045125234	5
11905	145	20.100000001	0.875
11905	352	20.400000001	0.75
11905	858	21.108629976742	0.25
11905	1167	21.409260483047	0.75
11905	1439	21.61069924443	0.875
11905	2180	22.114357695408	0.25
11905	2627	22.414357695408	0.5
11905	3585	23.217257504862	0.125
11905	3714	23.322228071806	0.625
11905	4263	23.722057162041	0.375
11905	4444	23.830337269352	0.5
11905	4540	23.922422576411	0.25
11905	4716	24.024788558692	1
11905	4732	24.025910030164	1
11905	5145	24.328012041411	0.75
11905	5909	24.928112042411	0.25
11905	6174	25.128112042411	0.75
11905	7117	25.745273208832	0.5
11905	7399	25.950450414972	0.875
11905	7440	25.959952344293	1
11905	8210	26.559952344293	0.375
11905	8293	26.648965397462	0.625
11905	8582	26.860687893835	0.75
11905	8811	27.056000815572	0.625
11905	9281	27.441360668212	0.625
11905	9773	27.941360668212	0.5
11905	10390	28.448856944886	0.375
11905	10854	28.852958152604	0.5
11905	11844	29.763489686276	0.75
11905	12797	30.606363224471	0.375
11905	13379	31.106363224471	0.5
11905	14183	31.798216520611	0.75
11905	14203	31.812438483359	0
11905	14524	32.109062466863	0.75
11905	14558	32.169689814052	-0.125
11905	15451	32.775631393602	0
11905	15796	33.083379087578	0.625
11905	16074	33.385049767314	0.75
11905	16284	33.586232901216	0.875
11905	16531	33.794505345977	0.875
11905	16844	34.095184624696	0.5
11905	17145	34.395184624696	0.75
11905	17427	34.697008083893	0.75
11905	18636	35.700466940816	-0.125
11905	19295	36.306400244402	0.375
11905	19774	36.646778810584	0.25
11905	19832	36.715794874323	0.5
11905	20178	37.024581882695	0.75
11905	20303	37.094911751802	0.5
11905	20410	37.157649213912	0.25
11905	20643	37.35797624491	0.75
11905	21190	37.85797624491	0.375
11905	21441	38.158699414505	0.75
11905	21838	38.566706869656	0.625
11905	22086	38.770358941601	0.875
11905	22330	38.981438220001	0.125
11905	22530	39.171600029361	0.625
11905	22541	39.179864846576	0.625
11905	23360	39.887725122207	0.125
11905	24554	40.881764412107	0
11905	26254	42.281764412107	-0.75
11905	26905	42.715476898345	0.625
11905	26964	42.784233740178	0.375
11905	27339	43.126933384301	0.625
11905	27674	43.436036202037	0.75
11905	27921	43.644663881057	0.75
11905	28537	44.144663881057	0.5
11905	29301	44.750110283168	0.25
11905	30040	45.254904421943	0.25
11905	31057	46.054904421943	-0.25
11905	31534	46.357385001371	0.625
11905	31561	46.420775933274	0.625
11905	31909	46.663690816268	0.75
11905	32668	47.273020474531	0.25
11905	33318	47.773020474531	0.375
11905	33950	48.274252764081	0.25
11905	34454	48.679347949238	0.625
11905	34464	48.681275213681	0.625
11905	34734	48.882569380481	0.75
11905	34901	49.082569380481	0.875
11905	35167	49.389352891847	0.75
11905	35505	49.695564735207	0.75
11905	35523	49.719724262873	0.75
11905	35696	49.898455655268	0.875
11905	35846	50.029321407968	0.75
11905	36010	50.197248617157	0.75
11905	36030	50.201811786471	0.75
11905	37300	51.304371084935	-0.375
11905	37768	51.704371084935	0.5
11905	38729	52.506947894807	0.125
11905	39024	52.80788539317	0.75
11905	39173	52.973546612248	0.25
11905	39810	53.582692541498	0.25
11905	40163	53.882692541498	0.75
11905	40710	54.28920294758	0.625
11905	41263	54.68930294858	0.5
11905	42031	55.18930294858	0.5
11905	42425	55.396905497492	0.75
11905	42862	55.696905497492	0.75
11905	43298	56.0971208484	0.625
11905	44420	57.003106181401	0
11905	44605	57.111066902841	1
11905	45019	57.418374136853	0.75
11905	45869	58.123818839104	0.125
11905	46144	58.423818839104	0.75
11905	46611	58.82688465395	0.625
11905	47266	59.327460643426	0.375
11905	47590	59.533050592741	0.875
11905	47931	59.831824487684	0.625
11905	47947	59.837917777998	0.625
11905	47972	59.841536010123	0.75
11905	48205	60.048409413708	0.875
11905	48207	60.048587755978	0.875
11905	48222	60.052576918885	0.875
11905	48314	60.129179141897	0.75
11905	48454	60.232557151567	0.5
11905	48594	60.359261204433	0.75
11905	48900	60.559361205433	0.75
11905	50060	61.559361205433	-0.125
11905	50463	61.866733277182	0.75
11905	50729	62.040339388997	0.75
11905	50967	62.206502240009	0
11905	51494	62.607159085358	0.5
11905	51873	62.907159085358	0.75
11905	52099	63.113800935512	0.875
11905	52478	63.416570794583	0.625
11905	53232	64.016570794583	0.25
11905	53312	64.080682960336	0.375
11905	53730	64.321050527664	0.75
11905	53988	64.510342398161	0.75
11905	54008	64.523225477249	0.875
11905	54578	64.933239906032	0.55555555224419
11905	54885	65.133239906032	0.875
11905	55426	65.537164834106	0.625
11905	56011	65.945002555561	0.375
11905	56650	66.450582277737	0.5
11905	57008	66.760083334701	0.75
11905	57611	67.361610816788	0.375
11905	58122	67.839613345022	0
11905	58251	67.935576782442	0.875
11905	58581	68.143595877839	0.75
11905	58831	68.343595877839	0.875
11905	59532	68.850833029793	0.5
11905	59979	69.254759989017	0.625
11905	61668	70.775038987606	0.25
11905	62903	71.775038987606	-0.125
11905	63495	72.276181810158	0.5
11905	63710	72.4825494277	0.875
11905	63887	72.592024565751	0.875
11905	64397	73.092024565751	0.5
11905	65031	73.693504541732	0.375
11905	65689	74.301794418805	0.125
11905	65701	74.313649843509	0.625
11905	65980	74.510800717601	0.875
11905	66485	74.915430270773	0.625
11905	66643	75.01925733568	0.125
11905	66980	75.326465658739	0.75
11905	67096	75.416316552892	0.5
11905	67764	76.024338758531	0.125
11905	68548	76.624338758531	0.25
11905	69245	77.181500196671	0.125
11905	69639	77.488771345992	0.75
11905	69814	77.630860038871	-0.375
11905	70040	77.836756617687	0.75
11905	70303	78.036756617687	0.875
11905	70827	78.459764414704	0.625
11905	71741	79.166038460767	0.125
11905	72208	79.566038460767	0.625
11905	72780	79.97021398864	0.5
11905	73188	80.291996327415	0.25
11905	73396	80.501734499048	0.875
11905	73894	80.986535173196	0.75
11905	73993	81.0776935348	-0.25
11905	74932	81.978183049503	-0.125
11905	75948	82.778183049503	0.125
11905	76343	83.079199601655	0.75
11905	76825	83.479299602655	0.5
11905	78119	84.479299602655	-0.25
11905	78272	84.596784033721	0.5
11905	79220	85.306727269258	0
11905	79493	85.51241686515	0.75
11905	80135	86.01241686515	0.5
11905	80338	86.219143009585	0.875
11905	80384	86.23349407618	0.875
11905	80898	86.637226206568	0.5
11905	81261	86.937226206568	0.75
11905	81897	87.437548998259	0.5
11905	82344	87.84079997142	0.625
11905	82355	87.842741237781	0.5
11905	82601	88.04442895399	0.875
11905	82603	88.04509221334	0.875
11905	82898	88.24519221434	0.625
11905	83297	88.54519221434	0.75
11905	83680	88.846993378662	0.625
11905	84201	89.251521493252	0.625
11905	84437	89.451868823261	0.875
11905	84995	89.857484396563	0.5
11905	85795	90.557484396563	0
11905	86406	91.070484776603	0.5
11905	86823	91.373266466481	0.875
11905	87700	92.073366467481	0.125
11905	88043	92.373366467481	0.75
11905	88785	93.077070997353	0.125
11905	89536	93.714033067128	0.625
11905	89749	93.887926739463	0.125
11905	90402	94.321920060852	0.375
11905	90606	94.490588382491	0.375
11905	90627	94.496972869773	0.375
11905	91895	95.403252612978	-0.25
11905	92573	96.003252612978	0.375
11905	92990	96.315095897545	0.75
11905	93057	96.394517104423	0.25
11905	93251	96.541501088481	0.5
11905	93467	96.716204145406	0.625
11905	94408	97.51870215375	0
11905	95078	98.11870215375	0.375
11905	95866	98.740076858773	0.625
11905	96042	98.928253292683	0
11905	96389	99.255359137115	0.5
11905	96563	99.430424314452	0.375
11905	96704	99.537643190565	0.75
11905	96832	99.644935810461	0.75
11905	98331	100.947833838209	-0.75
11905	99203	101.647833838209	0.25
11905	99628	101.955487557159	0.625
11905	99968	102.255487557159	0.75
11905	100332	102.559293005995	0.75
11905	100504	102.678409943455	0.875
11905	101012	103.083384219639	0.5
11905	101215	103.283384219639	0.875
11905	101550	103.588071323328	0.625
11905	101912	103.894505214181	0.75
11905	102109	104.098809618868	0.875
11905	102371	104.36247488709	0.75
11905	102423	104.403341220838	0.5
11905	102729	104.701411058939	0.375
11905	102732	104.704149885011	0.75
11905	102903	104.866943907444	0.5
11905	103579	105.375345507865	0.25
11905	104716	106.375345507865	-0.25
11905	105463	106.797885933746	0.75
11905	106318	107.497885933746	0.125
11905	106702	107.804155714624	0.625
11905	107305	108.304155714624	0.5
11905	108613	109.41365371732	-0.5
11905	109168	109.9184928166	0.5
11905	109438	110.125881136573	0.875
11905	109666	110.325981137573	0.75
11905	110221	110.725981137573	0.5
11905	110451	110.930247634276	0.875
11905	111285	111.644833310475	0.125
11905	111385	111.739970364944	0
11905	111577	111.8539741879	0.875
11905	112001	112.163939596592	0.625
11905	112868	112.863939596592	0.125
11905	113547	113.464039597592	0.125
11905	114465	114.164039597592	0.25
11905	114841	114.470886310363	0.75
11905	115388	114.978549513162	0.25
11905	115870	115.478549513162	0.5
11905	116357	115.880171710042	0.625
11905	116877	116.281729394912	0.5
11905	118000	117.181729394912	-0.125
11905	118491	117.587699544541	0.625
11905	118599	117.697842119019	0.75
11905	118999	118.094551525329	0.5
11905	119540	118.600010167415	0
11905	119544	118.6003987444	0
11905	119821	118.8004987454	0.75
11905	120237	119.200522823855	0.5
11905	120642	119.496276183004	0.75
11905	121332	120.096376184004	0.25
11905	121714	120.396376184004	0.625
11905	122100	120.805526119067	0.625
11905	122368	121.11357048706	0.75
11905	123094	121.813519503845	0.375
11905	123101	121.818161897362	0
11905	123336	122.016567181288	0.875
11905	123342	122.020548968073	0.875
11905	123361	122.033705318167	0.875
11905	123496	122.134217552881	0.875
11905	123761	122.334217552881	0.875
11905	124349	122.744034660542	0.375
11905	124941	123.144181238504	0.5
11905	125628	123.644181238504	0.5
11905	126310	124.144281239504	0.375
11905	126895	124.544281239504	0.625
11905	127664	125.152816377944	0.375
11905	127880	125.364788710931	0.5
11905	128816	126.169253831548	-0.125
11905	129139	126.469253831548	0.75
11905	129402	126.671270517632	0.875
11905	130360	127.47636821201	0.125
11905	130599	127.617893598993	0
11905	131110	127.985165397193	0.5
11905	132076	128.890565126349	-0.125
11905	132606	129.390565126349	0.5
11905	132822	129.603967717665	0.875
11905	132846	129.610215414214	1
11905	133647	130.310215414214	0.25
11905	134330	130.811523542432	-0.25
11905	134746	131.112633479828	0.625
11905	135331	131.615045125234	0.375
11906	145	20.100000001	0.1
11906	352	20.400000001	0.3
11906	858	21.108629976742	0.7
11906	1167	21.409260483047	0.3
11906	1439	21.61069924443	0.2
11906	2180	22.114357695408	0.5
11906	2627	22.414357695408	0.3
11906	3585	23.217257504862	0.8
11906	3714	23.322228071806	0.4
11906	4263	23.722057162041	0.5
11906	4444	23.830337269352	0.5
11906	4540	23.922422576411	0.6
11906	4716	24.024788558692	0.1
11906	4732	24.025910030164	0.1
11906	5145	24.328012041411	0.3
11906	5909	24.928112042411	0.6
11906	6174	25.128112042411	0.2
11906	7117	25.745273208832	0.3
11906	7399	25.950450414972	0.2
11906	7440	25.959952344293	0
11906	8210	26.559952344293	0.6
11906	8293	26.648965397462	0.4
11906	8582	26.860687893835	0.3
11906	8811	27.056000815572	0.4
11906	9281	27.441360668212	0.3
11906	9773	27.941360668212	0.5
11906	10390	28.448856944886	0.5
11906	10854	28.852958152604	0.4
11906	11844	29.763489686276	0.2
11906	12797	30.606363224471	0.5
11906	13379	31.106363224471	0.5
11906	14183	31.798216520611	0.3
11906	14203	31.812438483359	0.7
11906	14524	32.109062466863	0.3
11906	14558	32.169689814052	0.8
11906	15451	32.775631393602	0.6
11906	15796	33.083379087578	0.3
11906	16074	33.385049767314	0.3
11906	16284	33.586232901216	0.2
11906	16531	33.794505345977	0.2
11906	16844	34.095184624696	0.3
11906	17145	34.395184624696	0.3
11906	17427	34.697008083893	0.3
11906	18636	35.700466940816	1
11906	19295	36.306400244402	0.6
11906	19774	36.646778810584	0.7
11906	19832	36.715794874323	0.4
11906	20178	37.024581882695	0.3
11906	20303	37.094911751802	0.4
11906	20410	37.157649213912	0.5
11906	20643	37.35797624491	0.2
11906	21190	37.85797624491	0.5
11906	21441	38.158699414505	0.3
11906	21838	38.566706869656	0.4
11906	22086	38.770358941601	0.2
11906	22330	38.981438220001	0.7
11906	22530	39.171600029361	0.4
11906	22541	39.179864846576	0.4
11906	23360	39.887725122207	0.7
11906	24554	40.881764412107	0.8
11906	26254	42.281764412107	1.4
11906	26905	42.715476898345	0.4
11906	26964	42.784233740178	0.5
11906	27339	43.126933384301	0.4
11906	27674	43.436036202037	0.3
11906	27921	43.644663881057	0.2
11906	28537	44.144663881057	0.5
11906	29301	44.750110283168	0.6
11906	30040	45.254904421943	0.5
11906	31057	46.054904421943	0.8
11906	31534	46.357385001371	0.3
11906	31561	46.420775933274	0.3
11906	31909	46.663690816268	0.3
11906	32668	47.273020474531	0.6
11906	33318	47.773020474531	0.5
11906	33950	48.274252764081	0.5
11906	34454	48.679347949238	0.4
11906	34464	48.681275213681	0.4
11906	34734	48.882569380481	0.2
11906	34901	49.082569380481	0.2
11906	35167	49.389352891847	0.3
11906	35505	49.695564735207	0.3
11906	35523	49.719724262873	0.3
11906	35696	49.898455655268	0.2
11906	35846	50.029321407968	0.3
11906	36010	50.197248617157	0.3
11906	36030	50.201811786471	0.3
11906	37300	51.304371084935	1.1
11906	37768	51.704371084935	0.4
11906	38729	52.506947894807	0.8
11906	39024	52.80788539317	0.3
11906	39173	52.973546612248	0.7
11906	39810	53.582692541498	0.6
11906	40163	53.882692541498	0.3
11906	40710	54.28920294758	0.4
11906	41263	54.68930294858	0.4
11906	42031	55.18930294858	0.5
11906	42425	55.396905497492	0.2
11906	42862	55.696905497492	0.3
11906	43298	56.0971208484	0.4
11906	44420	57.003106181401	0.9
11906	44605	57.111066902841	0.1
11906	45019	57.418374136853	0.3
11906	45869	58.123818839104	0.7
11906	46144	58.423818839104	0.3
11906	46611	58.82688465395	0.4
11906	47266	59.327460643426	0.5
11906	47590	59.533050592741	0.2
11906	47931	59.831824487684	0.4
11906	47947	59.837917777998	0.4
11906	47972	59.841536010123	0.3
11906	48205	60.048409413708	0.2
11906	48207	60.048587755978	0.2
11906	48222	60.052576918885	0.2
11906	48314	60.129179141897	0.3
11906	48454	60.232557151567	0.4
11906	48594	60.359261204433	0.3
11906	48900	60.559361205433	0.2
11906	50060	61.559361205433	1
11906	50463	61.866733277182	0.3
11906	50729	62.040339388997	0.3
11906	50967	62.206502240009	0.9
11906	51494	62.607159085358	0.4
11906	51873	62.907159085358	0.3
11906	52099	63.113800935512	0.2
11906	52478	63.416570794583	0.3
11906	53232	64.016570794583	0.6
11906	53312	64.080682960336	0.5
11906	53730	64.321050527664	0.3
11906	53988	64.510342398161	0.2
11906	54008	64.523225477249	0.2