version 2
run Stability-norelink-145-20130525-23:23:43-22103
attr configname Stability-norelink
attr datetime 20130525-23:23:43
attr experiment Stability
attr inifile omnetpp.ini
attr iterationvars $0=1e-8
attr iterationvars2 "$0=1e-8, $repetition=5"
attr measurement $0=1e-8
attr network Network
attr processid 22103
attr repetition 5
attr replication #5
attr resultdir results
attr runnumber 145
attr seedset 145

vector 13929  Network.dyn_peer[3]  lookupHopsSig:vector  ETV
vector 13930  Network.dyn_peer[3]  lookupStabilitySig:vector  ETV
vector 13931  Network.dyn_peer[3]  lookupTimeSig:vector  ETV
vector 13941  Network.dyn_peer[7]  lookupHopsSig:vector  ETV
vector 13942  Network.dyn_peer[7]  lookupStabilitySig:vector  ETV
vector 13943  Network.dyn_peer[7]  lookupTimeSig:vector  ETV
vector 13974  Network.dyn_peer[18]  lookupHopsSig:vector  ETV
vector 13975  Network.dyn_peer[18]  lookupStabilitySig:vector  ETV
vector 13976  Network.dyn_peer[18]  lookupTimeSig:vector  ETV
vector 13980  Network.dyn_peer[20]  lookupHopsSig:vector  ETV
vector 13981  Network.dyn_peer[20]  lookupStabilitySig:vector  ETV
vector 13982  Network.dyn_peer[20]  lookupTimeSig:vector  ETV
vector 13989  Network.dyn_peer[23]  lookupHopsSig:vector  ETV
vector 13990  Network.dyn_peer[23]  lookupStabilitySig:vector  ETV
vector 13991  Network.dyn_peer[23]  lookupTimeSig:vector  ETV
vector 13998  Network.dyn_peer[26]  lookupHopsSig:vector  ETV
vector 13999  Network.dyn_peer[26]  lookupStabilitySig:vector  ETV
vector 14000  Network.dyn_peer[26]  lookupTimeSig:vector  ETV
vector 13920  Network.dyn_peer[0]  lookupHopsSig:vector  ETV
vector 13921  Network.dyn_peer[0]  lookupStabilitySig:vector  ETV
vector 13922  Network.dyn_peer[0]  lookupTimeSig:vector  ETV
vector 13932  Network.dyn_peer[4]  lookupHopsSig:vector  ETV
vector 13933  Network.dyn_peer[4]  lookupStabilitySig:vector  ETV
vector 13934  Network.dyn_peer[4]  lookupTimeSig:vector  ETV
vector 13944  Network.dyn_peer[8]  lookupHopsSig:vector  ETV
vector 13945  Network.dyn_peer[8]  lookupStabilitySig:vector  ETV
vector 13946  Network.dyn_peer[8]  lookupTimeSig:vector  ETV
vector 13950  Network.dyn_peer[10]  lookupHopsSig:vector  ETV
vector 13951  Network.dyn_peer[10]  lookupStabilitySig:vector  ETV
vector 13952  Network.dyn_peer[10]  lookupTimeSig:vector  ETV
vector 13953  Network.dyn_peer[11]  lookupHopsSig:vector  ETV
vector 13954  Network.dyn_peer[11]  lookupStabilitySig:vector  ETV
vector 13955  Network.dyn_peer[11]  lookupTimeSig:vector  ETV
vector 13965  Network.dyn_peer[15]  lookupHopsSig:vector  ETV
vector 13966  Network.dyn_peer[15]  lookupStabilitySig:vector  ETV
vector 13967  Network.dyn_peer[15]  lookupTimeSig:vector  ETV
vector 13971  Network.dyn_peer[17]  lookupHopsSig:vector  ETV
vector 13972  Network.dyn_peer[17]  lookupStabilitySig:vector  ETV
vector 13973  Network.dyn_peer[17]  lookupTimeSig:vector  ETV
vector 14007  Network.dyn_peer[29]  lookupHopsSig:vector  ETV
vector 14008  Network.dyn_peer[29]  lookupStabilitySig:vector  ETV
vector 14009  Network.dyn_peer[29]  lookupTimeSig:vector  ETV
vector 14010  Network.dyn_peer[30]  lookupHopsSig:vector  ETV
vector 14011  Network.dyn_peer[30]  lookupStabilitySig:vector  ETV
vector 14012  Network.dyn_peer[30]  lookupTimeSig:vector  ETV
vector 13923  Network.dyn_peer[1]  lookupHopsSig:vector  ETV
vector 13924  Network.dyn_peer[1]  lookupStabilitySig:vector  ETV
vector 13925  Network.dyn_peer[1]  lookupTimeSig:vector  ETV
vector 13926  Network.dyn_peer[2]  lookupHopsSig:vector  ETV
vector 13927  Network.dyn_peer[2]  lookupStabilitySig:vector  ETV
vector 13928  Network.dyn_peer[2]  lookupTimeSig:vector  ETV
vector 13935  Network.dyn_peer[5]  lookupHopsSig:vector  ETV
vector 13936  Network.dyn_peer[5]  lookupStabilitySig:vector  ETV
vector 13937  Network.dyn_peer[5]  lookupTimeSig:vector  ETV
vector 13938  Network.dyn_peer[6]  lookupHopsSig:vector  ETV
vector 13939  Network.dyn_peer[6]  lookupStabilitySig:vector  ETV
vector 13940  Network.dyn_peer[6]  lookupTimeSig:vector  ETV
vector 13956  Network.dyn_peer[12]  lookupHopsSig:vector  ETV
vector 13957  Network.dyn_peer[12]  lookupStabilitySig:vector  ETV
vector 13958  Network.dyn_peer[12]  lookupTimeSig:vector  ETV
vector 13962  Network.dyn_peer[14]  lookupHopsSig:vector  ETV
vector 13963  Network.dyn_peer[14]  lookupStabilitySig:vector  ETV
vector 13964  Network.dyn_peer[14]  lookupTimeSig:vector  ETV
vector 13968  Network.dyn_peer[16]  lookupHopsSig:vector  ETV
vector 13969  Network.dyn_peer[16]  lookupStabilitySig:vector  ETV
vector 13970  Network.dyn_peer[16]  lookupTimeSig:vector  ETV
vector 13977  Network.dyn_peer[19]  lookupHopsSig:vector  ETV
vector 13978  Network.dyn_peer[19]  lookupStabilitySig:vector  ETV
vector 13979  Network.dyn_peer[19]  lookupTimeSig:vector  ETV
vector 13983  Network.dyn_peer[21]  lookupHopsSig:vector  ETV
vector 13984  Network.dyn_peer[21]  lookupStabilitySig:vector  ETV
vector 13985  Network.dyn_peer[21]  lookupTimeSig:vector  ETV
vector 13986  Network.dyn_peer[22]  lookupHopsSig:vector  ETV
vector 13987  Network.dyn_peer[22]  lookupStabilitySig:vector  ETV
vector 13988  Network.dyn_peer[22]  lookupTimeSig:vector  ETV
vector 14001  Network.dyn_peer[27]  lookupHopsSig:vector  ETV
vector 14002  Network.dyn_peer[27]  lookupStabilitySig:vector  ETV
vector 14003  Network.dyn_peer[27]  lookupTimeSig:vector  ETV
vector 14013  Network.dyn_peer[31]  lookupHopsSig:vector  ETV
vector 14014  Network.dyn_peer[31]  lookupStabilitySig:vector  ETV
vector 14015  Network.dyn_peer[31]  lookupTimeSig:vector  ETV
vector 13947  Network.dyn_peer[9]  lookupHopsSig:vector  ETV
vector 13948  Network.dyn_peer[9]  lookupStabilitySig:vector  ETV
vector 13949  Network.dyn_peer[9]  lookupTimeSig:vector  ETV
vector 13959  Network.dyn_peer[13]  lookupHopsSig:vector  ETV
vector 13960  Network.dyn_peer[13]  lookupStabilitySig:vector  ETV
vector 13961  Network.dyn_peer[13]  lookupTimeSig:vector  ETV
vector 13992  Network.dyn_peer[24]  lookupHopsSig:vector  ETV
vector 13993  Network.dyn_peer[24]  lookupStabilitySig:vector  ETV
vector 13994  Network.dyn_peer[24]  lookupTimeSig:vector  ETV
vector 13995  Network.dyn_peer[25]  lookupHopsSig:vector  ETV
vector 13996  Network.dyn_peer[25]  lookupStabilitySig:vector  ETV
vector 13997  Network.dyn_peer[25]  lookupTimeSig:vector  ETV
vector 14004  Network.dyn_peer[28]  lookupHopsSig:vector  ETV
vector 14005  Network.dyn_peer[28]  lookupStabilitySig:vector  ETV
vector 14006  Network.dyn_peer[28]  lookupTimeSig:vector  ETV
13920	149	20.10000000001	1
13920	425	20.50000000001	3
13920	1035	21.30010000002	4
13920	1053	21.302967452011	8
13920	1527	21.709053120153	3
13920	2493	22.409153120163	8
13920	2841	22.709153120163	2
13920	3236	23.011320312986	2
13920	3292	23.031830196652	2
13920	3470	23.220113010952	1
13920	3634	23.327597196496	1
13920	3954	23.627597196496	2
13920	4557	24.140127715345	4
13920	4781	24.342238855345	1
13920	5049	24.628109585938	4
13920	5229	24.740846553539	2
13920	5310	24.833557447769	2
13920	5331	24.836572262339	2
13920	6163	25.638557807432	9
13920	6597	25.949987827012	1
13920	6599	25.950249282316	1
13920	6656	26.038557807432	3
13920	7134	26.442331213149	4
13920	7328	26.642331213149	1
13920	7676	26.942431213159	3
13920	8474	27.542431213159	5
13920	8731	27.749951659035	3
13920	9108	28.051367517685	2
13920	9658	28.451467517695	5
13920	9906	28.656111809095	1
13920	10410	29.061926794511	3
13920	10780	29.363991040203	2
13920	10861	29.38519983542	2
13920	10880	29.401553718221	2
13920	11048	29.569348432472	1
13920	12293	30.576722032141	10
13920	12593	30.776722032141	1
13920	12901	30.976822032151	2
13920	13716	31.576822032151	6
13920	14140	31.884443499399	2
13920	14640	32.286847543751	4
13920	14972	32.586847543751	2
13920	15312	32.887019774838	2
13920	15808	33.313803695458	6
13920	15843	33.390626367607	4
13920	15866	33.395686915834	4
13920	16115	33.601399453953	1
13920	16376	33.791293439179	4
13920	16682	33.997747794845	2
13920	18356	35.397747794845	16
13920	18660	35.698509880224	2
13920	18737	35.727161856998	8
13920	19063	36.034072714882	2
13920	19699	36.548386547742	4
13920	20500	37.242367520383	2
13920	20814	37.542367520383	2
13920	21855	38.448153214798	8
13920	21858	38.448389501546	3
13920	21886	38.449309074237	0
13920	22783	39.14692522314	1
13920	23084	39.442767804679	4
13920	23110	39.449309074237	11
13920	23330	39.649960876151	2
13920	23945	40.149960876151	4
13920	24385	40.459690844856	2
13920	25158	41.068731291389	7
13920	25389	41.268731291389	1
13920	25976	41.775064626039	5
13920	26192	41.990425966184	1
13920	27787	43.290525966194	13
13920	28162	43.690525966194	3
13920	28634	44.091791305419	3
13920	29332	44.700566226375	6
13920	30257	45.487494791008	2
13920	30280	45.500566226375	7
13920	30712	45.801385377006	3
13920	32075	46.901385377006	11
13920	32460	47.205122646168	2
13920	32526	47.221699711735	1
13920	32901	47.523291451568	3
13920	32926	47.527501694342	2
13920	32931	47.527985597129	2
13920	33420	47.938024428144	4
13920	33840	48.346072563584	3
13920	34086	48.561799226078	1
13920	34355	48.767419765627	3
13920	34974	49.267419765627	4
13920	35392	49.673774912113	5
13920	35648	49.944235618478	5
13920	36043	50.283488156346	6
13920	36127	50.352995145485	2
13920	36511	50.644578052389	7
13920	36936	51.050289036026	4
13920	38488	52.511075395736	10
13920	39227	53.211075395736	6
13920	39578	53.513385829405	3
13920	39840	53.71922240869	1
13920	40464	54.197970093294	6
13920	40909	54.578841154668	7
13920	41397	54.888031319554	3
13920	41632	55.088031319554	1
13920	42130	55.490460444718	3
13920	42317	55.627314860943	4
13920	42552	55.837314175191	1
13920	43010	56.227408116931	2
13920	43086	56.294524459151	2
13920	43090	56.299636391311	8
13920	43873	56.899831451777	6
13920	45253	57.999831451777	10
13920	45849	58.502797109376	4
13920	46272	58.912435912481	3
13920	46446	59.052373027163	3
13920	46668	59.219327584365	2
13920	48193	60.424966983741	14
13920	48625	60.824966983741	3
13920	48971	61.128883466263	3
13920	49528	61.510759656923	7
13920	49707	61.633045591524	4
13920	49750	61.674651695631	4
13920	49871	61.77523126823	1
13920	50462	62.27523126823	4
13920	50942	62.680437962181	3
13920	51952	63.480537962191	9
13920	52421	63.780537962191	2
13920	52709	63.987616608787	1
13920	53121	64.288615818004	2
13920	53266	64.397484777657	1
13920	53878	64.907415263439	4
13920	54094	65.1229716343	2
13920	54472	65.534355431243	3
13920	54600	65.645990779967	2
13920	54753	65.747070563553	1
13920	55086	66.047070563553	2
13920	55693	66.541892082697	1
13920	56326	67.046040088565	4
13920	56559	67.25601208816	1
13920	57024	67.648883763231	16
13920	57227	67.863944557897	5
13920	59131	69.464044557907	18
13920	59740	69.971430723917	4
13920	59859	70.071530723927	1
13920	60990	71.071530723927	10
13920	61384	71.37742219349	3
13920	62710	72.516785308058	7
13920	63095	72.816785308058	2
13920	63653	73.242545568452	2
13920	63734	73.324853402693	4
13920	64104	73.625517539661	2
13920	64399	73.842979017558	5
13920	64423	73.852293467708	5
13920	64445	73.866984525245	5
13920	64774	74.173878150898	3
13920	65237	74.573878150898	3
13920	65460	74.773978150908	2
13920	66353	75.573978150908	7
13920	67268	76.280189751418	6
13920	67559	76.485224304438	3
13920	67701	76.585411927178	2
13920	68829	77.395229633275	8
13920	69520	77.895229633275	4
13920	70222	78.397009527093	5
13920	71290	79.197009527093	7
13920	71858	79.605247572479	4
13920	72229	79.899209138278	6
13920	72343	80.008648160356	3
13920	72633	80.24804959745	0
13920	72710	80.307030626907	3
13920	72912	80.508798360276	1
13920	72928	80.510385100104	0
13920	73130	80.710385100104	1
13920	73840	81.480463087436	5
13920	74157	81.780563087446	4
13920	74963	82.480563087446	6
13920	75369	82.787234182012	2
13920	75463	82.857740148687	2
13920	76376	83.564765267136	8
13920	76923	84.064765267136	4
13920	77344	84.374515580623	2
13920	77922	84.777605356527	4
13920	78557	85.277605356527	4
13920	79223	85.777705356537	5
13920	79579	86.077705356537	2
13920	80784	87.084004575286	6
13920	81797	87.884004575286	8
13920	82187	88.19263649339	2
13920	84008	89.704837085125	3
13920	84520	90.112671585804	4
13920	84772	90.369457365548	2
13920	84928	90.500786716664	25
13920	85248	90.769894310232	4
13920	85787	91.169994310242	5
13920	86784	91.869994310242	6
13920	86912	91.959716085525	3
13920	87169	92.168964864026	1
13920	87709	92.575119333522	4
13920	87930	92.776708349784	1
13920	88168	92.97972515808	1
13920	88172	92.980204369369	1
13920	89283	93.980304369379	10
13920	89767	94.380304369379	4
13920	90120	94.690287534936	2
13920	90472	94.996221760734	4
13920	91156	95.596221760734	6
13920	91412	95.805168186332	1
13920	91966	96.311535471425	4
13920	92467	96.811906624302	4
13920	92805	97.109512755864	8
13920	93498	97.715819264518	6
13920	94943	98.906725952361	6
13920	94955	98.915819264518	12
13920	95070	99.011159139302	3
13920	95200	99.11706509475	1
13920	95838	99.61706509475	5
13920	96520	100.21716509476	6
13920	96880	100.51716509476	2
13920	96977	100.626518172905	2
13920	97664	101.233254125017	5
13920	97897	101.460368758566	6
13920	98759	102.224250907047	17
13920	98777	102.235087018605	10
13920	98805	102.244695675788	0
13920	99394	102.744695675788	5
13920	99839	103.144795675798	4
13920	101271	104.344795675798	12
13920	101493	104.554511940566	1
13920	102236	105.157226595786	6
13920	102919	105.757226595786	5
13920	103905	106.660664081448	10
13920	104799	107.39955654871	8
13920	105868	108.29965654872	10
13920	106039	108.49965654872	1
13920	106253	108.709516286085	1
13920	107029	109.416855459594	7
13920	107489	109.816855459594	3
13920	108188	110.317731469025	5
13920	108961	110.881854622352	3
13920	109037	110.92700186251	7
13920	109215	111.090697856181	1
13920	109489	111.343297474029	4
13920	109998	111.743397474039	4
13920	111032	112.643397474039	11
13920	111212	112.843884852273	1
13920	111815	113.447116802256	5
13920	112263	113.819841339258	4
13920	112299	113.859568444238	3
13920	112482	113.96482698142	1
13920	113094	114.36482698142	3
13920	113356	114.567713949714	2
13920	113604	114.772188629425	1
13920	114511	115.573332151946	8
13920	114931	115.973332151946	3
13920	115532	116.482584236024	4
13920	116070	117.015128674719	1
13920	116304	117.188852594461	7
13920	117056	117.894573143547	7
13920	117545	118.294573143547	4
13920	117861	118.605642468755	2
13920	118311	119.015613080843	4
13920	118722	119.316884620469	4
13920	119210	119.716884620469	3
13920	119492	120.019370522682	2
13920	120652	120.984078609591	4
13920	121111	121.384078609591	3
13920	121828	121.992768924698	6
13920	123512	123.504190154666	16
13920	123832	123.711886929195	1
13920	124148	123.905189416188	1
13920	124462	124.111547584692	1
13920	124740	124.316901231639	2
13920	126405	125.893209733076	15
13920	128210	127.393209733076	14
13920	128788	127.800749721163	3
13920	129237	128.120511880107	12
13920	129610	128.426540380688	3
13920	130624	129.326540380688	9
13920	131203	129.929783835755	5
13920	131487	130.23362550741	7
13920	131744	130.441137414271	1
13920	131890	130.557344559895	5
13920	132080	130.751867168597	2
13920	132438	131.052702687076	3
13920	132849	131.452702687076	3
13920	133565	132.058772320879	2
13920	134244	132.565852126694	4
13920	134372	132.652930026257	11
13920	134633	132.860873965506	7
13920	134790	132.966187468753	3
13920	135081	133.161497516946	5
13920	135092	133.168375798935	1
13920	135332	133.373533332582	2
13920	135827	133.873533332582	4
13920	136007	134.077288919777	1
13920	136096	134.180148166417	1
13920	136189	134.28521737211	2
13921	149	20.10000000001	0.875
13921	425	20.50000000001	0.625
13921	1035	21.30010000002	0.5
13921	1053	21.302967452011	0
13921	1527	21.709053120153	0.625
13921	2493	22.409153120163	0
13921	2841	22.709153120163	0.75
13921	3236	23.011320312986	0.75
13921	3292	23.031830196652	0.75
13921	3470	23.220113010952	0.875
13921	3634	23.327597196496	0.875
13921	3954	23.627597196496	0.75
13921	4557	24.140127715345	0.5
13921	4781	24.342238855345	0.875
13921	5049	24.628109585938	0.5
13921	5229	24.740846553539	0.75
13921	5310	24.833557447769	0.75
13921	5331	24.836572262339	0.75
13921	6163	25.638557807432	-0.125
13921	6597	25.949987827012	0.875
13921	6599	25.950249282316	0.875
13921	6656	26.038557807432	0.625
13921	7134	26.442331213149	0.5
13921	7328	26.642331213149	0.875
13921	7676	26.942431213159	0.625
13921	8474	27.542431213159	0.375
13921	8731	27.749951659035	0.625
13921	9108	28.051367517685	0.75
13921	9658	28.451467517695	0.375
13921	9906	28.656111809095	0.875
13921	10410	29.061926794511	0.625
13921	10780	29.363991040203	0.75
13921	10861	29.38519983542	0.75
13921	10880	29.401553718221	0.75
13921	11048	29.569348432472	0.875
13921	12293	30.576722032141	-0.25
13921	12593	30.776722032141	0.875
13921	12901	30.976822032151	0.75
13921	13716	31.576822032151	0.25
13921	14140	31.884443499399	0.75
13921	14640	32.286847543751	0.5
13921	14972	32.586847543751	0.75
13921	15312	32.887019774838	0.75
13921	15808	33.313803695458	0.25
13921	15843	33.390626367607	0.5
13921	15866	33.395686915834	0.5
13921	16115	33.601399453953	0.875
13921	16376	33.791293439179	0.5
13921	16682	33.997747794845	0.75
13921	18356	35.397747794845	-1
13921	18660	35.698509880224	0.75
13921	18737	35.727161856998	0
13921	19063	36.034072714882	0.75
13921	19699	36.548386547742	0.5
13921	20500	37.242367520383	0.75
13921	20814	37.542367520383	0.75
13921	21855	38.448153214798	0
13921	21858	38.448389501546	0.625
13921	21886	38.449309074237	1
13921	22783	39.14692522314	0.875
13921	23084	39.442767804679	0.5
13921	23110	39.449309074237	-0.375
13921	23330	39.649960876151	0.75
13921	23945	40.149960876151	0.5
13921	24385	40.459690844856	0.75
13921	25158	41.068731291389	0.125
13921	25389	41.268731291389	0.875
13921	25976	41.775064626039	0.375
13921	26192	41.990425966184	0.875
13921	27787	43.290525966194	-0.625
13921	28162	43.690525966194	0.625
13921	28634	44.091791305419	0.625
13921	29332	44.700566226375	0.25
13921	30257	45.487494791008	0.75
13921	30280	45.500566226375	0.125
13921	30712	45.801385377006	0.625
13921	32075	46.901385377006	-0.375
13921	32460	47.205122646168	0.75
13921	32526	47.221699711735	0.875
13921	32901	47.523291451568	0.625
13921	32926	47.527501694342	0.75
13921	32931	47.527985597129	0.75
13921	33420	47.938024428144	0.5
13921	33840	48.346072563584	0.625
13921	34086	48.561799226078	0.875
13921	34355	48.767419765627	0.625
13921	34974	49.267419765627	0.5
13921	35392	49.673774912113	0.375
13921	35648	49.944235618478	0.375
13921	36043	50.283488156346	0.25
13921	36127	50.352995145485	0.75
13921	36511	50.644578052389	0.125
13921	36936	51.050289036026	0.5
13921	38488	52.511075395736	-0.25
13921	39227	53.211075395736	0.25
13921	39578	53.513385829405	0.625
13921	39840	53.71922240869	0.875
13921	40464	54.197970093294	0.25
13921	40909	54.578841154668	0.125
13921	41397	54.888031319554	0.625
13921	41632	55.088031319554	0.875
13921	42130	55.490460444718	0.625
13921	42317	55.627314860943	0.5
13921	42552	55.837314175191	0.875
13921	43010	56.227408116931	0.75
13921	43086	56.294524459151	0.75
13921	43090	56.299636391311	0
13921	43873	56.899831451777	0.25
13921	45253	57.999831451777	-0.25
13921	45849	58.502797109376	0.5
13921	46272	58.912435912481	0.625
13921	46446	59.052373027163	0.625
13921	46668	59.219327584365	0.75
13921	48193	60.424966983741	-0.75
13921	48625	60.824966983741	0.625
13921	48971	61.128883466263	0.625
13921	49528	61.510759656923	0.125
13921	49707	61.633045591524	0.5
13921	49750	61.674651695631	0.5
13921	49871	61.77523126823	0.875
13921	50462	62.27523126823	0.5
13921	50942	62.680437962181	0.625
13921	51952	63.480537962191	-0.125
13921	52421	63.780537962191	0.75
13921	52709	63.987616608787	0.875
13921	53121	64.288615818004	0.75
13921	53266	64.397484777657	0.875
13921	53878	64.907415263439	0.5
13921	54094	65.1229716343	0.75
13921	54472	65.534355431243	0.625
13921	54600	65.645990779967	0.75
13921	54753	65.747070563553	0.875
13921	55086	66.047070563553	0.75
13921	55693	66.541892082697	0.875
13921	56326	67.046040088565	0.5
13921	56559	67.25601208816	0.875
13921	57024	67.648883763231	-1
13921	57227	67.863944557897	0.375
13921	59131	69.464044557907	-1.25
13921	59740	69.971430723917	0.5
13921	59859	70.071530723927	0.875
13921	60990	71.071530723927	-0.25
13921	61384	71.37742219349	0.625
13921	62710	72.516785308058	0.125
13921	63095	72.816785308058	0.75
13921	63653	73.242545568452	0.75
13921	63734	73.324853402693	0.5
13921	64104	73.625517539661	0.75
13921	64399	73.842979017558	0.375
13921	64423	73.852293467708	0.375
13921	64445	73.866984525245	0.375
13921	64774	74.173878150898	0.625
13921	65237	74.573878150898	0.625
13921	65460	74.773978150908	0.75
13921	66353	75.573978150908	0.125
13921	67268	76.280189751418	0.25
13921	67559	76.485224304438	0.625
13921	67701	76.585411927178	0.75
13921	68829	77.395229633275	0
13921	69520	77.895229633275	0.5
13921	70222	78.397009527093	0.375
13921	71290	79.197009527093	0.125
13921	71858	79.605247572479	0.5
13921	72229	79.899209138278	0.25
13921	72343	80.008648160356	0.625
13921	72633	80.24804959745	1
13921	72710	80.307030626907	0.625
13921	72912	80.508798360276	0.875
13921	72928	80.510385100104	1
13921	73130	80.710385100104	0.875
13921	73840	81.480463087436	0.375
13921	74157	81.780563087446	0.5
13921	74963	82.480563087446	0.25
13921	75369	82.787234182012	0.75
13921	75463	82.857740148687	0.75
13921	76376	83.564765267136	0
13921	76923	84.064765267136	0.5
13921	77344	84.374515580623	0.75
13921	77922	84.777605356527	0.5
13921	78557	85.277605356527	0.5
13921	79223	85.777705356537	0.375
13921	79579	86.077705356537	0.75
13921	80784	87.084004575286	0.25
13921	81797	87.884004575286	0
13921	82187	88.19263649339	0.75
13921	84008	89.704837085125	0.625
13921	84520	90.112671585804	0.5
13921	84772	90.369457365548	0.75
13921	84928	90.500786716664	-2.125
13921	85248	90.769894310232	0.5
13921	85787	91.169994310242	0.375
13921	86784	91.869994310242	0.25
13921	86912	91.959716085525	0.625
13921	87169	92.168964864026	0.875
13921	87709	92.575119333522	0.5
13921	87930	92.776708349784	0.875
13921	88168	92.97972515808	0.875
13921	88172	92.980204369369	0.875
13921	89283	93.980304369379	-0.25
13921	89767	94.380304369379	0.5
13921	90120	94.690287534936	0.75
13921	90472	94.996221760734	0.5
13921	91156	95.596221760734	0.25
13921	91412	95.805168186332	0.875
13921	91966	96.311535471425	0.5
13921	92467	96.811906624302	0.5
13921	92805	97.109512755864	0
13921	93498	97.715819264518	0.25
13921	94943	98.906725952361	0.25
13921	94955	98.915819264518	-0.5
13921	95070	99.011159139302	0.625
13921	95200	99.11706509475	0.875
13921	95838	99.61706509475	0.375
13921	96520	100.21716509476	0.25
13921	96880	100.51716509476	0.75
13921	96977	100.626518172905	0.75
13921	97664	101.233254125017	0.375
13921	97897	101.460368758566	0.25
13921	98759	102.224250907047	-1.125
13921	98777	102.235087018605	-0.25
13921	98805	102.244695675788	1
13921	99394	102.744695675788	0.375
13921	99839	103.144795675798	0.5
13921	101271	104.344795675798	-0.5
13921	101493	104.554511940566	0.875
13921	102236	105.157226595786	0.25
13921	102919	105.757226595786	0.375
13921	103905	106.660664081448	-0.25
13921	104799	107.39955654871	0
13921	105868	108.29965654872	-0.25
13921	106039	108.49965654872	0.875
13921	106253	108.709516286085	0.875
13921	107029	109.416855459594	0.125
13921	107489	109.816855459594	0.625
13921	108188	110.317731469025	0.375
13921	108961	110.881854622352	0.625
13921	109037	110.92700186251	0.125
13921	109215	111.090697856181	0.875
13921	109489	111.343297474029	0.5
13921	109998	111.743397474039	0.5
13921	111032	112.643397474039	-0.375
13921	111212	112.843884852273	0.875
13921	111815	113.447116802256	0.375
13921	112263	113.819841339258	0.5
13921	112299	113.859568444238	0.625
13921	112482	113.96482698142	0.875
13921	113094	114.36482698142	0.625
13921	113356	114.567713949714	0.75
13921	113604	114.772188629425	0.875
13921	114511	115.573332151946	0
13921	114931	115.973332151946	0.625
13921	115532	116.482584236024	0.5
13921	116070	117.015128674719	0.875
13921	116304	117.188852594461	0.125
13921	117056	117.894573143547	0.125
13921	117545	118.294573143547	0.5
13921	117861	118.605642468755	0.75
13921	118311	119.015613080843	0.5
13921	118722	119.316884620469	0.5
13921	119210	119.716884620469	0.625
13921	119492	120.019370522682	0.75
13921	120652	120.984078609591	0.5
13921	121111	121.384078609591	0.66666665673256
13921	121828	121.992768924698	0.25
13921	123512	123.504190154666	-1
13921	123832	123.711886929195	0.875
13921	124148	123.905189416188	0.875
13921	124462	124.111547584692	0.875
13921	124740	124.316901231639	0.75
13921	126405	125.893209733076	-0.875
13921	128210	127.393209733076	-0.75
13921	128788	127.800749721163	0.625
13921	129237	128.120511880107	-0.5
13921	129610	128.426540380688	0.625
13921	130624	129.326540380688	-0.125
13921	131203	129.929783835755	0.375
13921	131487	130.23362550741	0.125
13921	131744	130.441137414271	0.875
13921	131890	130.557344559895	0.375
13921	132080	130.751867168597	0.75
13921	132438	131.052702687076	0.625
13921	132849	131.452702687076	0.625
13921	133565	132.058772320879	0.75
13921	134244	132.565852126694	0.5
13921	134372	132.652930026257	-0.375
13921	134633	132.860873965506	0.125
13921	134790	132.966187468753	0.625
13921	135081	133.161497516946	0.375
13921	135092	133.168375798935	0.875
13921	135332	133.373533332582	0.75
13921	135827	133.873533332582	0.5
13921	136007	134.077288919777	0.875
13921	136096	134.180148166417	0.875
13921	136189	134.28521737211	0.75
13922	149	20.10000000001	0.1
13922	425	20.50000000001	0.4
13922	1035	21.30010000002	0.5
13922	1053	21.302967452011	0.8
13922	1527	21.709053120153	0.4
13922	2493	22.409153120163	0.7
13922	2841	22.709153120163	0.3
13922	3236	23.011320312986	0.3
13922	3292	23.031830196652	0.3
13922	3470	23.220113010952	0.2
13922	3634	23.327597196496	0.1
13922	3954	23.627597196496	0.3
13922	4557	24.140127715345	0.5
13922	4781	24.342238855345	0.2
13922	5049	24.628109585938	0.5
13922	5229	24.740846553539	0.3
13922	5310	24.833557447769	0.2
13922	5331	24.836572262339	0.2
13922	6163	25.638557807432	0.8
13922	6597	25.949987827012	0.2
13922	6599	25.950249282316	0.2
13922	6656	26.038557807432	0.4
13922	7134	26.442331213149	0.4
13922	7328	26.642331213149	0.2
13922	7676	26.942431213159	0.3
13922	8474	27.542431213159	0.6
13922	8731	27.749951659035	0.2
13922	9108	28.051367517685	0.3
13922	9658	28.451467517695	0.4
13922	9906	28.656111809095	0.2
13922	10410	29.061926794511	0.4
13922	10780	29.363991040203	0.3
13922	10861	29.38519983542	0.3
13922	10880	29.401553718221	0.3
13922	11048	29.569348432472	0.2
13922	12293	30.576722032141	1
13922	12593	30.776722032141	0.2
13922	12901	30.976822032151	0.2
13922	13716	31.576822032151	0.6
13922	14140	31.884443499399	0.3
13922	14640	32.286847543751	0.4
13922	14972	32.586847543751	0.3
13922	15312	32.887019774838	0.3
13922	15808	33.313803695458	0.7
13922	15843	33.390626367607	0.5
13922	15866	33.395686915834	0.5
13922	16115	33.601399453953	0.2
13922	16376	33.791293439179	0.4
13922	16682	33.997747794845	0.2
13922	18356	35.397747794845	1.4
13922	18660	35.698509880224	0.3
13922	18737	35.727161856998	0.9
13922	19063	36.034072714882	0.3
13922	19699	36.548386547742	0.5
13922	20500	37.242367520383	0.2
13922	20814	37.542367520383	0.3
13922	21855	38.448153214798	0.9
13922	21858	38.448389501546	0.4
13922	21886	38.449309074237	0
13922	22783	39.14692522314	0.2
13922	23084	39.442767804679	0.4
13922	23110	39.449309074237	1
13922	23330	39.649960876151	0.2
13922	23945	40.149960876151	0.5
13922	24385	40.459690844856	0.3
13922	25158	41.068731291389	0.6
13922	25389	41.268731291389	0.2
13922	25976	41.775064626039	0.5
13922	26192	41.990425966184	0.2
13922	27787	43.290525966194	1.3
13922	28162	43.690525966194	0.4
13922	28634	44.091791305419	0.4
13922	29332	44.700566226375	0.6
13922	30257	45.487494791008	0.3
13922	30280	45.500566226375	0.8
13922	30712	45.801385377006	0.3
13922	32075	46.901385377006	1.1
13922	32460	47.205122646168	0.3
13922	32526	47.221699711735	0.2
13922	32901	47.523291451568	0.3
13922	32926	47.527501694342	0.3
13922	32931	47.527985597129	0.3
13922	33420	47.938024428144	0.4
13922	33840	48.346072563584	0.4
13922	34086	48.561799226078	0.2
13922	34355	48.767419765627	0.2
13922	34974	49.267419765627	0.5
13922	35392	49.673774912113	0.4
13922	35648	49.944235618478	0.6
13922	36043	50.283488156346	0.6
13922	36127	50.352995145485	0.3
13922	36511	50.644578052389	0.7
13922	36936	51.050289036026	0.4
13922	38488	52.511075395736	1
13922	39227	53.211075395736	0.7
13922	39578	53.513385829405	0.3
13922	39840	53.71922240869	0.2
13922	40464	54.197970093294	0.7
13922	40909	54.578841154668	0.8
13922	41397	54.888031319554	0.3
13922	41632	55.088031319554	0.2
13922	42130	55.490460444718	0.4
13922	42317	55.627314860943	0.5
13922	42552	55.837314175191	0.2
13922	43010	56.227408116931	0.3
13922	43086	56.294524459151	0.3
13922	43090	56.299636391311	0.8
13922	43873	56.899831451777	0.6
13922	45253	57.999831451777	1.1
13922	45849	58.502797109376	0.5
13922	46272	58.912435912481	0.4
13922	46446	59.052373027163	0.4
13922	46668	59.219327584365	0.3
13922	48193	60.424966983741	1.2
13922	48625	60.824966983741	0.4
13922	48971	61.128883466263	0.3
13922	49528	61.510759656923	0.6
13922	49707	61.633045591524	0.5
13922	49750	61.674651695631	0.5
13922	49871	61.77523126823	0.1
13922	50462	62.27523126823	0.5
13922	50942	62.680437962181	0.4
13922	51952	63.480537962191	0.8
13922	52421	63.780537962191	0.3
13922	52709	63.987616608787	0.2
13922	53121	64.288615818004	0.3
13922	53266	64.397484777657	0.1
13922	53878	64.907415263439	0.5
13922	54094	65.1229716343	0.2
13922	54472	65.534355431243	0.4
13922	54600	65.645990779967	0.3
13922	54753	65.747070563553	0.1
13922	55086	66.047070563553	0.3
13922	55693	66.541892082697	0.2
13922	56326	67.046040088565	0.5
13922	56559	67.25601208816	0.2
13922	57024	67.648883763231	1.6
13922	57227	67.863944557897	0.6
13922	59131	69.464044557907	1.6
13922	59740	69.971430723917	0.5
13922	59859	70.071530723927	0.1
13922	60990	71.071530723927	1
13922	61384	71.37742219349	0.3
13922	62710	72.516785308058	0.6
13922	63095	72.816785308058	0.3
13922	63653	73.242545568452	0.3
13922	63734	73.324853402693	0.5
13922	64104	73.625517539661	0.3