version 2
run Stability-norelink-128-20130525-23:22:35-22103
attr configname Stability-norelink
attr datetime 20130525-23:22:35
attr experiment Stability
attr inifile omnetpp.ini
attr iterationvars $0=1e-6
attr iterationvars2 "$0=1e-6, $repetition=8"
attr measurement $0=1e-6
attr network Network
attr processid 22103
attr repetition 8
attr replication #8
attr resultdir results
attr runnumber 128
attr seedset 128

vector 12309  Network.dyn_peer[7]  lookupHopsSig:vector  ETV
vector 12310  Network.dyn_peer[7]  lookupStabilitySig:vector  ETV
vector 12311  Network.dyn_peer[7]  lookupTimeSig:vector  ETV
vector 12330  Network.dyn_peer[14]  lookupHopsSig:vector  ETV
vector 12331  Network.dyn_peer[14]  lookupStabilitySig:vector  ETV
vector 12332  Network.dyn_peer[14]  lookupTimeSig:vector  ETV
vector 12288  Network.dyn_peer[0]  lookupHopsSig:vector  ETV
vector 12289  Network.dyn_peer[0]  lookupStabilitySig:vector  ETV
vector 12290  Network.dyn_peer[0]  lookupTimeSig:vector  ETV
vector 12303  Network.dyn_peer[5]  lookupHopsSig:vector  ETV
vector 12304  Network.dyn_peer[5]  lookupStabilitySig:vector  ETV
vector 12305  Network.dyn_peer[5]  lookupTimeSig:vector  ETV
vector 12315  Network.dyn_peer[9]  lookupHopsSig:vector  ETV
vector 12316  Network.dyn_peer[9]  lookupStabilitySig:vector  ETV
vector 12317  Network.dyn_peer[9]  lookupTimeSig:vector  ETV
vector 12318  Network.dyn_peer[10]  lookupHopsSig:vector  ETV
vector 12319  Network.dyn_peer[10]  lookupStabilitySig:vector  ETV
vector 12320  Network.dyn_peer[10]  lookupTimeSig:vector  ETV
vector 12324  Network.dyn_peer[12]  lookupHopsSig:vector  ETV
vector 12325  Network.dyn_peer[12]  lookupStabilitySig:vector  ETV
vector 12326  Network.dyn_peer[12]  lookupTimeSig:vector  ETV
vector 12336  Network.dyn_peer[16]  lookupHopsSig:vector  ETV
vector 12337  Network.dyn_peer[16]  lookupStabilitySig:vector  ETV
vector 12338  Network.dyn_peer[16]  lookupTimeSig:vector  ETV
vector 12348  Network.dyn_peer[20]  lookupHopsSig:vector  ETV
vector 12349  Network.dyn_peer[20]  lookupStabilitySig:vector  ETV
vector 12350  Network.dyn_peer[20]  lookupTimeSig:vector  ETV
vector 12354  Network.dyn_peer[22]  lookupHopsSig:vector  ETV
vector 12355  Network.dyn_peer[22]  lookupStabilitySig:vector  ETV
vector 12356  Network.dyn_peer[22]  lookupTimeSig:vector  ETV
vector 12360  Network.dyn_peer[24]  lookupHopsSig:vector  ETV
vector 12361  Network.dyn_peer[24]  lookupStabilitySig:vector  ETV
vector 12362  Network.dyn_peer[24]  lookupTimeSig:vector  ETV
vector 12294  Network.dyn_peer[2]  lookupHopsSig:vector  ETV
vector 12295  Network.dyn_peer[2]  lookupStabilitySig:vector  ETV
vector 12296  Network.dyn_peer[2]  lookupTimeSig:vector  ETV
vector 12297  Network.dyn_peer[3]  lookupHopsSig:vector  ETV
vector 12298  Network.dyn_peer[3]  lookupStabilitySig:vector  ETV
vector 12299  Network.dyn_peer[3]  lookupTimeSig:vector  ETV
vector 12300  Network.dyn_peer[4]  lookupHopsSig:vector  ETV
vector 12301  Network.dyn_peer[4]  lookupStabilitySig:vector  ETV
vector 12302  Network.dyn_peer[4]  lookupTimeSig:vector  ETV
vector 12321  Network.dyn_peer[11]  lookupHopsSig:vector  ETV
vector 12322  Network.dyn_peer[11]  lookupStabilitySig:vector  ETV
vector 12323  Network.dyn_peer[11]  lookupTimeSig:vector  ETV
vector 12333  Network.dyn_peer[15]  lookupHopsSig:vector  ETV
vector 12334  Network.dyn_peer[15]  lookupStabilitySig:vector  ETV
vector 12335  Network.dyn_peer[15]  lookupTimeSig:vector  ETV
vector 12342  Network.dyn_peer[18]  lookupHopsSig:vector  ETV
vector 12343  Network.dyn_peer[18]  lookupStabilitySig:vector  ETV
vector 12344  Network.dyn_peer[18]  lookupTimeSig:vector  ETV
vector 12363  Network.dyn_peer[25]  lookupHopsSig:vector  ETV
vector 12364  Network.dyn_peer[25]  lookupStabilitySig:vector  ETV
vector 12365  Network.dyn_peer[25]  lookupTimeSig:vector  ETV
vector 12369  Network.dyn_peer[27]  lookupHopsSig:vector  ETV
vector 12370  Network.dyn_peer[27]  lookupStabilitySig:vector  ETV
vector 12371  Network.dyn_peer[27]  lookupTimeSig:vector  ETV
vector 12372  Network.dyn_peer[28]  lookupHopsSig:vector  ETV
vector 12373  Network.dyn_peer[28]  lookupStabilitySig:vector  ETV
vector 12374  Network.dyn_peer[28]  lookupTimeSig:vector  ETV
vector 12291  Network.dyn_peer[1]  lookupHopsSig:vector  ETV
vector 12292  Network.dyn_peer[1]  lookupStabilitySig:vector  ETV
vector 12293  Network.dyn_peer[1]  lookupTimeSig:vector  ETV
vector 12306  Network.dyn_peer[6]  lookupHopsSig:vector  ETV
vector 12307  Network.dyn_peer[6]  lookupStabilitySig:vector  ETV
vector 12308  Network.dyn_peer[6]  lookupTimeSig:vector  ETV
vector 12327  Network.dyn_peer[13]  lookupHopsSig:vector  ETV
vector 12328  Network.dyn_peer[13]  lookupStabilitySig:vector  ETV
vector 12329  Network.dyn_peer[13]  lookupTimeSig:vector  ETV
vector 12351  Network.dyn_peer[21]  lookupHopsSig:vector  ETV
vector 12352  Network.dyn_peer[21]  lookupStabilitySig:vector  ETV
vector 12353  Network.dyn_peer[21]  lookupTimeSig:vector  ETV
vector 12357  Network.dyn_peer[23]  lookupHopsSig:vector  ETV
vector 12358  Network.dyn_peer[23]  lookupStabilitySig:vector  ETV
vector 12359  Network.dyn_peer[23]  lookupTimeSig:vector  ETV
vector 12375  Network.dyn_peer[29]  lookupHopsSig:vector  ETV
vector 12376  Network.dyn_peer[29]  lookupStabilitySig:vector  ETV
vector 12377  Network.dyn_peer[29]  lookupTimeSig:vector  ETV
vector 12312  Network.dyn_peer[8]  lookupHopsSig:vector  ETV
vector 12313  Network.dyn_peer[8]  lookupStabilitySig:vector  ETV
vector 12314  Network.dyn_peer[8]  lookupTimeSig:vector  ETV
vector 12345  Network.dyn_peer[19]  lookupHopsSig:vector  ETV
vector 12346  Network.dyn_peer[19]  lookupStabilitySig:vector  ETV
vector 12347  Network.dyn_peer[19]  lookupTimeSig:vector  ETV
vector 12366  Network.dyn_peer[26]  lookupHopsSig:vector  ETV
vector 12367  Network.dyn_peer[26]  lookupStabilitySig:vector  ETV
vector 12368  Network.dyn_peer[26]  lookupTimeSig:vector  ETV
vector 12378  Network.dyn_peer[30]  lookupHopsSig:vector  ETV
vector 12379  Network.dyn_peer[30]  lookupStabilitySig:vector  ETV
vector 12380  Network.dyn_peer[30]  lookupTimeSig:vector  ETV
vector 12339  Network.dyn_peer[17]  lookupHopsSig:vector  ETV
vector 12340  Network.dyn_peer[17]  lookupStabilitySig:vector  ETV
vector 12341  Network.dyn_peer[17]  lookupTimeSig:vector  ETV
vector 12381  Network.dyn_peer[31]  lookupHopsSig:vector  ETV
vector 12382  Network.dyn_peer[31]  lookupStabilitySig:vector  ETV
vector 12383  Network.dyn_peer[31]  lookupTimeSig:vector  ETV
12288	132	20.100000001	1
12288	397	20.500000001	3
12288	675	20.916381074949	3
12288	843	21.116481075949	2
12288	1412	21.616481075949	5
12288	2774	22.718853989721	10
12288	3025	22.921217463819	1
12288	3360	23.12591075517	2
12288	4214	23.82591075517	7
12288	4463	24.030027122241	1
12288	5157	24.71675486314	4
12288	5454	24.93570429352	10
12288	5617	25.045090776285	4
12288	6138	25.53643808503	5
12288	6151	25.540118965333	5
12288	6337	25.643653736553	2
12288	7491	26.543653736553	9
12288	8264	27.144711636364	6
12288	8750	27.544711636364	3
12288	9789	28.353298002636	8
12288	10172	28.665815313786	2
12288	10188	28.668727800844	0
12288	10793	29.168727800844	4
12288	11115	29.438461305118	2
12288	11527	29.738561306118	3
12288	11897	30.038561306118	2
12288	12438	30.440570982561	3
12288	12575	30.564593757874	6
12288	12801	30.771469998386	1
12288	13014	30.974841788845	2
12288	13827	31.683916627269	7
12288	14076	31.886681084109	1
12288	14116	31.916927490946	1
12288	14556	32.286749246229	4
12288	14597	32.318081087583	4
12288	14950	32.622895047195	2
12288	15097	32.787636521527	4
12288	15547	33.187736522527	5
12288	16214	33.787736522527	5
12288	16819	34.289039859296	4
12288	17461	34.807051263551	5
12288	18025	35.212849802056	4
12288	18741	35.812849802056	5
12288	20720	37.515809143087	17
12288	21348	38.021954451346	4
12288	21465	38.118382405978	4
12288	21731	38.327855861591	2
12288	21752	38.331922087676	3
12288	23591	39.935398633068	17
12288	24284	40.435398633068	4
12288	24616	40.745311118764	2
12288	24630	40.745411119764	0
12288	25093	41.145411119764	3
12288	26160	42.075269092714	3
12288	26794	42.675269092714	7
12288	27168	43.079319484142	3
12288	27342	43.189185672954	1
12288	27583	43.389185672954	2
12288	28231	43.897222705697	5
12288	28768	44.302763970202	3
12288	29146	44.612107008876	1
12288	29985	45.480433018881	7
12288	30039	45.519436839353	9
12288	30222	45.681094331872	1
12288	30253	45.710470973501	15
12288	30887	46.216600718032	5
12288	31163	46.416600718032	1
12288	31681	46.82237775094	3
12288	32027	47.132169732617	3
12288	33784	48.535569780656	16
12288	34262	49.035569780656	4
12288	35526	50.044286086688	9
12288	35965	50.4512581583	3
12288	37230	51.558424476671	11
12288	37325	51.632109561848	10
12288	37464	51.759449009522	1
12288	38165	52.33591119187	6
12288	39120	53.140677877091	8
12288	39450	53.440677877091	2
12288	39729	53.648199010949	1
12288	39891	53.782285192321	1
12288	40159	53.982626848516	2
12288	41419	54.982626848516	11
12288	41805	55.27566452291	5
12288	42196	55.592498679847	5
12288	42282	55.675733478797	3
12288	42528	55.879361927661	1
12288	42793	56.095922764715	4
12288	43494	56.699083749185	7
12288	44607	57.699083749185	9
12288	44855	57.90580023353	1
12288	45173	58.210140089246	2
12288	45193	58.217634970944	0
12288	45825	58.717634970944	4
12288	46146	58.962367236818	1
12288	47257	59.962637437209	11
12288	48248	60.662637437209	7
12288	48907	61.162949956336	4
12288	48924	61.170452206641	4
12288	49136	61.374198788603	1
12288	49150	61.376794482502	1
12288	49282	61.480817159587	1
12288	49587	61.780817159587	2
12288	49725	61.887824165086	1
12288	49912	62.087824165086	1
12288	50146	62.292603992014	1
12288	50655	62.792751403222	5
12288	50933	62.996255626196	2
12288	51340	63.296255626196	2
12288	51794	63.70002525204	3
12288	52213	64.10012525304	4
12288	53286	65.10012525304	10
12288	53806	65.606530562641	5
12288	54252	65.938974760701	5
12288	54309	66.014130277912	3
12288	54345	66.027967268056	3
12288	54520	66.128974784919	0
12288	55161	66.730579633162	5
12288	55272	66.823325389564	7
12288	55539	67.045589065784	12
12288	56556	67.954120251976	9
12288	57034	68.354120251976	3
12288	57406	68.655607543024	2
12288	57411	68.659452977426	2
12288	57765	68.865854758396	1
12288	57795	68.87419691427	1
12288	58064	69.079589013082	2
12288	58709	69.651794396284	1
12288	58838	69.779589013082	7
12288	59067	70.053529543177	4
12288	59373	70.35650302408	3
12288	59800	70.75650302408	3
12288	61427	72.164939779658	12
12288	61442	72.172774845716	13
12288	61965	72.574144298651	4
12288	63111	73.474144298651	8
12288	63642	73.878319643098	4
12288	63813	74.015566065106	4
12288	63831	74.027295920079	4
12288	63974	74.130014742479	1
12288	64325	74.433323056761	2
12288	64503	74.610191680841	2
12288	64861	74.918871789117	3
12288	65660	75.618871789117	6
12288	66153	76.018971790117	4
12288	66628	76.418971790117	4
12288	67250	76.85344736223	3
12288	67518	77.058830150774	2
12288	67576	77.122736542022	8
12288	67810	77.32671534124	1
12288	67883	77.364614912544	2
12288	68104	77.568102537089	2
12288	68448	77.868102537089	2
12288	68686	78.069835750218	1
12288	69483	78.774674747594	6
12288	69500	78.781456230741	6
12288	69801	79.089828840025	2
12288	69803	79.090067720697	2
12288	70165	79.390167721697	3
12288	70926	80.090167721697	6
12288	71668	80.62533786218	4
12288	71839	80.731681150164	1
12288	72080	80.931681150164	1
12288	72230	81.036398325082	1
12288	72673	81.440145306719	3
12288	73484	82.144720091864	9
12288	73487	82.145035151526	7
12288	74202	82.75359889812	6
12288	74833	83.25359889812	4
12288	75331	83.65942141084	4
12288	75894	84.05942141084	3
12288	76313	84.463725409705	3
12288	76324	84.469392074041	3
12288	76561	84.670985412357	2
12288	76572	84.678366938766	2
12288	76760	84.853871936311	2
12288	76798	84.879483520843	1
12288	76810	84.887798381673	1
12288	76948	84.987898382673	1
12288	77192	85.187898382673	1
12288	77588	85.508630498544	2
12288	78421	86.108630498544	5
12288	78884	86.518315835933	3
12288	78933	86.569990263143	3
12288	79098	86.708380173881	9
12288	79485	87.012258973037	3
12288	79900	87.412258973037	4
12288	80633	88.018179956263	5
12288	81008	88.325720967273	2
12288	81136	88.41106207125	5
12288	81274	88.512696236723	1
12288	82196	89.212696236723	6
12288	83156	90.018397968422	8
12288	83608	90.323293458798	3
12288	83990	90.623293458798	3
12288	84788	91.227356085995	5
12288	85061	91.462694315562	9
12288	85212	91.581931724174	10
12288	85345	91.685732339536	1
12288	86067	92.285732339536	5
12288	86880	92.987769615642	7
12288	87061	93.184861727586	6
12288	87492	93.496330728115	5
12288	87585	93.584961727586	5
12288	88442	94.28658633032	8
12288	89378	95.08658633032	8
12288	89876	95.491860252422	3
12288	90317	95.895695865338	4
12288	90931	96.395695865338	4
12288	91065	96.498470432107	1
12288	91322	96.698470432107	1
12288	92281	97.499919385001	5
12288	92383	97.598648781504	9
12288	92479	97.712376788129	2
12288	92585	97.813962223541	1
12288	92768	98.013962223541	1
12288	93236	98.414062224541	5
12288	93497	98.614062224541	1
12288	93790	98.8144780881	1
12288	93864	98.845711017906	1
12288	94061	99.001205058663	1
12288	94198	99.101382999583	1
12288	94833	99.601382999583	4
12288	95271	100.012713002492	3
12288	95468	100.160788651502	3
12288	95665	100.369422566876	1
12288	96111	100.778487982262	3
12288	96215	100.913848896838	8
12288	96603	101.215155222343	4
12288	97344	101.915155222343	6
12288	97915	102.416751601439	4
12288	98174	102.674124873482	5
12288	99164	103.567186196769	7
12288	99663	103.967186196769	3
12288	100292	104.51205516933	2
12288	100805	104.91215517033	4
12288	101203	105.21215517033	2
12288	101456	105.417133969274	1
12288	102094	105.926474802941	4
12288	102151	105.992647552165	5
12288	102650	106.331904518466	3
12288	102713	106.393762619379	4
12288	103384	106.90140459244	7
12288	104038	107.439800087374	1
12288	104090	107.495292868834	1
12288	104226	107.605374653205	7
12288	105453	108.713613156631	13
12288	105682	108.913613156631	1
12288	106223	109.315495503818	3
12288	106333	109.405243553974	2
12288	106930	109.923739119966	5
12288	107082	110.029251599713	1
12288	107474	110.330458390252	2
12288	107901	110.630558391252	3
12288	108833	111.350319193765	5
12288	108933	111.430558391252	7
12288	109065	111.532595401087	1
12288	109938	112.232595401087	6
12288	110697	112.932695402087	7
12288	111494	113.632695402087	6
12288	111524	113.642733359785	0
12288	111773	113.842733359785	1
12288	112058	114.050642567167	2
12288	112987	114.850642567167	7
12288	113268	115.06237161424	1
12288	113965	115.676504449334	5
12288	115091	116.878173348089	12
12288	115555	117.278173348089	3
12288	115700	117.384557938779	1
12288	116170	117.784557938779	3
12288	116408	117.990621397878	2
12288	117430	118.895929169211	9
12288	117864	119.253605969674	3
12288	118578	119.853705970674	7
12288	119531	120.653705970674	7
12288	120212	121.163558103941	4
12288	120527	121.398202299836	1
12288	120913	121.707023525665	3
12288	121032	121.80693411992	3
12288	121358	122.10703412092	3
12288	121639	122.40703412092	2
12288	121881	122.607354322147	1
12288	122093	122.811657473299	2
12288	122297	123.010002550388	3
12288	122588	123.311860555865	2
12288	122627	123.367338054824	11
12288	123280	123.873291154082	6
12288	123664	124.173291154082	2
12288	124084	124.575160168958	3
12288	124834	125.175260169958	6
12288	125394	125.675260169958	4
12288	125863	126.075749719706	3
12288	125884	126.092380813447	3
12288	126071	126.292480814447	2
12288	126280	126.492480814447	1
12288	126403	126.593433347127	1
12288	126783	126.996969006021	3
12288	126875	127.049102977421	4
12288	127137	127.249372634185	2
12288	127355	127.449372634185	1
12288	127918	127.8569820215	3
12288	127921	127.857146086056	3
12288	128010	127.969469555944	2
12288	128438	128.271586186651	3
12288	129044	128.771586186651	5
12288	129986	129.422883845164	7
12288	130417	129.722883845164	2
12288	130802	130.026423715349	2
12288	130952	130.14853159374	4
12288	131181	130.335469836425	2
12288	131504	130.64212208566	2
12288	132185	131.24222208666	7
12288	132680	131.64222208666	3
12288	133040	131.946818150799	3
12288	133366	132.156333660078	1
12288	133643	132.381402159412	4
12288	133784	132.519421181711	4
12288	133853	132.565264309924	4
12288	134261	132.868634728869	3
12288	134801	133.368634728869	4
12288	136307	134.577107072883	12
12288	136918	135.277107072883	7
12288	137055	135.582901080693	2
12288	137151	135.888935377411	2
12289	132	20.100000001	0.875
12289	397	20.500000001	0.625
12289	675	20.916381074949	0.625
12289	843	21.116481075949	0.75
12289	1412	21.616481075949	0.375
12289	2774	22.718853989721	-0.25
12289	3025	22.921217463819	0.875
12289	3360	23.12591075517	0.75
12289	4214	23.82591075517	0.125
12289	4463	24.030027122241	0.875
12289	5157	24.71675486314	0.5
12289	5454	24.93570429352	-0.25
12289	5617	25.045090776285	0.5
12289	6138	25.53643808503	0.375
12289	6151	25.540118965333	0.375
12289	6337	25.643653736553	0.75
12289	7491	26.543653736553	-0.125
12289	8264	27.144711636364	0.25
12289	8750	27.544711636364	0.625
12289	9789	28.353298002636	0
12289	10172	28.665815313786	0.75
12289	10188	28.668727800844	1
12289	10793	29.168727800844	0.5
12289	11115	29.438461305118	0.75
12289	11527	29.738561306118	0.625
12289	11897	30.038561306118	0.75
12289	12438	30.440570982561	0.625
12289	12575	30.564593757874	0.25
12289	12801	30.771469998386	0.875
12289	13014	30.974841788845	0.75
12289	13827	31.683916627269	0.125
12289	14076	31.886681084109	0.875
12289	14116	31.916927490946	0.875
12289	14556	32.286749246229	0.5
12289	14597	32.318081087583	0.5
12289	14950	32.622895047195	0.75
12289	15097	32.787636521527	0.5
12289	15547	33.187736522527	0.375
12289	16214	33.787736522527	0.375
12289	16819	34.289039859296	0.5
12289	17461	34.807051263551	0.375
12289	18025	35.212849802056	0.5
12289	18741	35.812849802056	0.375
12289	20720	37.515809143087	-1.125
12289	21348	38.021954451346	0.5
12289	21465	38.118382405978	0.5
12289	21731	38.327855861591	0.75
12289	21752	38.331922087676	0.625
12289	23591	39.935398633068	-1.125
12289	24284	40.435398633068	0.5
12289	24616	40.745311118764	0.75
12289	24630	40.745411119764	1
12289	25093	41.145411119764	0.625
12289	26160	42.075269092714	0.625
12289	26794	42.675269092714	0.125
12289	27168	43.079319484142	0.625
12289	27342	43.189185672954	0.875
12289	27583	43.389185672954	0.75
12289	28231	43.897222705697	0.375
12289	28768	44.302763970202	0.625
12289	29146	44.612107008876	0.875
12289	29985	45.480433018881	0.125
12289	30039	45.519436839353	-0.125
12289	30222	45.681094331872	0.875
12289	30253	45.710470973501	-0.875
12289	30887	46.216600718032	0.375
12289	31163	46.416600718032	0.875
12289	31681	46.82237775094	0.625
12289	32027	47.132169732617	0.625
12289	33784	48.535569780656	-1
12289	34262	49.035569780656	0.5
12289	35526	50.044286086688	-0.125
12289	35965	50.4512581583	0.625
12289	37230	51.558424476671	-0.375
12289	37325	51.632109561848	-0.25
12289	37464	51.759449009522	0.875
12289	38165	52.33591119187	0.25
12289	39120	53.140677877091	0
12289	39450	53.440677877091	0.75
12289	39729	53.648199010949	0.875
12289	39891	53.782285192321	0.875
12289	40159	53.982626848516	0.75
12289	41419	54.982626848516	-0.375
12289	41805	55.27566452291	0.375
12289	42196	55.592498679847	0.375
12289	42282	55.675733478797	0.625
12289	42528	55.879361927661	0.875
12289	42793	56.095922764715	0.5
12289	43494	56.699083749185	0.125
12289	44607	57.699083749185	-0.125
12289	44855	57.90580023353	0.875
12289	45173	58.210140089246	0.75
12289	45193	58.217634970944	1
12289	45825	58.717634970944	0.5
12289	46146	58.962367236818	0.875
12289	47257	59.962637437209	-0.375
12289	48248	60.662637437209	0.125
12289	48907	61.162949956336	0.5
12289	48924	61.170452206641	0.5
12289	49136	61.374198788603	0.875
12289	49150	61.376794482502	0.875
12289	49282	61.480817159587	0.875
12289	49587	61.780817159587	0.75
12289	49725	61.887824165086	0.875
12289	49912	62.087824165086	0.875
12289	50146	62.292603992014	0.875
12289	50655	62.792751403222	0.375
12289	50933	62.996255626196	0.75
12289	51340	63.296255626196	0.75
12289	51794	63.70002525204	0.625
12289	52213	64.10012525304	0.5
12289	53286	65.10012525304	-0.25
12289	53806	65.606530562641	0.375
12289	54252	65.938974760701	0.375
12289	54309	66.014130277912	0.625
12289	54345	66.027967268056	0.625
12289	54520	66.128974784919	1
12289	55161	66.730579633162	0.375
12289	55272	66.823325389564	0.125
12289	55539	67.045589065784	-0.5
12289	56556	67.954120251976	-0.125
12289	57034	68.354120251976	0.625
12289	57406	68.655607543024	0.75
12289	57411	68.659452977426	0.75
12289	57765	68.865854758396	0.875
12289	57795	68.87419691427	0.875
12289	58064	69.079589013082	0.75
12289	58709	69.651794396284	0.875
12289	58838	69.779589013082	0.125
12289	59067	70.053529543177	0.5
12289	59373	70.35650302408	0.625
12289	59800	70.75650302408	0.625
12289	61427	72.164939779658	-0.5
12289	61442	72.172774845716	-0.625
12289	61965	72.574144298651	0.5
12289	63111	73.474144298651	0
12289	63642	73.878319643098	0.5
12289	63813	74.015566065106	0.5
12289	63831	74.027295920079	0.5
12289	63974	74.130014742479	0.875
12289	64325	74.433323056761	0.75
12289	64503	74.610191680841	0.75
12289	64861	74.918871789117	0.625
12289	65660	75.618871789117	0.25
12289	66153	76.018971790117	0.5
12289	66628	76.418971790117	0.5
12289	67250	76.85344736223	0.625
12289	67518	77.058830150774	0.75
12289	67576	77.122736542022	0
12289	67810	77.32671534124	0.875
12289	67883	77.364614912544	0.75
12289	68104	77.568102537089	0.75
12289	68448	77.868102537089	0.75
12289	68686	78.069835750218	0.875
12289	69483	78.774674747594	0.25
12289	69500	78.781456230741	0.25
12289	69801	79.089828840025	0.75
12289	69803	79.090067720697	0.75
12289	70165	79.390167721697	0.625
12289	70926	80.090167721697	0.25
12289	71668	80.62533786218	0.5
12289	71839	80.731681150164	0.875
12289	72080	80.931681150164	0.875
12289	72230	81.036398325082	0.875
12289	72673	81.440145306719	0.625
12289	73484	82.144720091864	-0.125
12289	73487	82.145035151526	0.125
12289	74202	82.75359889812	0.25
12289	74833	83.25359889812	0.5
12289	75331	83.65942141084	0.5
12289	75894	84.05942141084	0.625
12289	76313	84.463725409705	0.625
12289	76324	84.469392074041	0.625
12289	76561	84.670985412357	0.75
12289	76572	84.678366938766	0.75
12289	76760	84.853871936311	0.75
12289	76798	84.879483520843	0.875
12289	76810	84.887798381673	0.875
12289	76948	84.987898382673	0.875
12289	77192	85.187898382673	0.875
12289	77588	85.508630498544	0.75
12289	78421	86.108630498544	0.375
12289	78884	86.518315835933	0.625
12289	78933	86.569990263143	0.625
12289	79098	86.708380173881	-0.125
12289	79485	87.012258973037	0.625
12289	79900	87.412258973037	0.5
12289	80633	88.018179956263	0.375
12289	81008	88.325720967273	0.75
12289	81136	88.41106207125	0.375
12289	81274	88.512696236723	0.875
12289	82196	89.212696236723	0.25
12289	83156	90.018397968422	0
12289	83608	90.323293458798	0.625
12289	83990	90.623293458798	0.625
12289	84788	91.227356085995	0.375
12289	85061	91.462694315562	-0.125
12289	85212	91.581931724174	-0.25
12289	85345	91.685732339536	0.875
12289	86067	92.285732339536	0.375
12289	86880	92.987769615642	0.125
12289	87061	93.184861727586	0.25
12289	87492	93.496330728115	0.375
12289	87585	93.584961727586	0.375
12289	88442	94.28658633032	0
12289	89378	95.08658633032	0
12289	89876	95.491860252422	0.625
12289	90317	95.895695865338	0.5
12289	90931	96.395695865338	0.5
12289	91065	96.498470432107	0.875
12289	91322	96.698470432107	0.875
12289	92281	97.499919385001	0.375
12289	92383	97.598648781504	-0.125
12289	92479	97.712376788129	0.75
12289	92585	97.813962223541	0.875
12289	92768	98.013962223541	0.875
12289	93236	98.414062224541	0.375
12289	93497	98.614062224541	0.875
12289	93790	98.8144780881	0.875
12289	93864	98.845711017906	0.875
12289	94061	99.001205058663	0.875
12289	94198	99.101382999583	0.875
12289	94833	99.601382999583	0.5
12289	95271	100.012713002492	0.625
12289	95468	100.160788651502	0.625
12289	95665	100.369422566876	0.875
12289	96111	100.778487982262	0.625
12289	96215	100.913848896838	0
12289	96603	101.215155222343	0.5
12289	97344	101.915155222343	0.25
12289	97915	102.416751601439	0.5
12289	98174	102.674124873482	0.375
12289	99164	103.567186196769	0.125
12289	99663	103.967186196769	0.625
12289	100292	104.51205516933	0.75
12289	100805	104.91215517033	0.5
12289	101203	105.21215517033	0.75
12289	101456	105.417133969274	0.875
12289	102094	105.926474802941	0.5
12289	102151	105.992647552165	0.375
12289	102650	106.331904518466	0.625
12289	102713	106.393762619379	0.5
12289	103384	106.90140459244	0.125
12289	104038	107.439800087374	0.875
12289	104090	107.495292868834	0.875
12289	104226	107.605374653205	0.125
12289	105453	108.713613156631	-0.625
12289	105682	108.913613156631	0.875
12289	106223	109.315495503818	0.625
12289	106333	109.405243553974	0.75
12289	106930	109.923739119966	0.375
12289	107082	110.029251599713	0.875
12289	107474	110.330458390252	0.75
12289	107901	110.630558391252	0.625
12289	108833	111.350319193765	0.375
12289	108933	111.430558391252	0.125
12289	109065	111.532595401087	0.875
12289	109938	112.232595401087	0.25
12289	110697	112.932695402087	0.125
12289	111494	113.632695402087	0.25
12289	111524	113.642733359785	1
12289	111773	113.842733359785	0.875
12289	112058	114.050642567167	0.75
12289	112987	114.850642567167	0.125
12289	113268	115.06237161424	0.875
12289	113965	115.676504449334	0.375
12289	115091	116.878173348089	-0.5
12289	115555	117.278173348089	0.625
12289	115700	117.384557938779	0.875
12289	116170	117.784557938779	0.625
12289	116408	117.990621397878	0.75
12289	117430	118.895929169211	-0.125
12289	117864	119.253605969674	0.625
12289	118578	119.853705970674	0.125
12289	119531	120.653705970674	0.125
12289	120212	121.163558103941	0.5
12289	120527	121.398202299836	0.875
12289	120913	121.707023525665	0.625
12289	121032	121.80693411992	0.625
12289	121358	122.10703412092	0.625
12289	121639	122.40703412092	0.75
12289	121881	122.607354322147	0.875
12289	122093	122.811657473299	0.75
12289	122297	123.010002550388	0.625
12289	122588	123.311860555865	0.75
12289	122627	123.367338054824	-0.375
12289	123280	123.873291154082	0.25
12289	123664	124.173291154082	0.75
12289	124084	124.575160168958	0.625
12289	124834	125.175260169958	0.25
12289	125394	125.675260169958	0.5
12289	125863	126.075749719706	0.625
12289	125884	126.092380813447	0.625
12289	126071	126.292480814447	0.75
12289	126280	126.492480814447	0.875
12289	126403	126.593433347127	0.875
12289	126783	126.996969006021	0.625
12289	126875	127.049102977421	0.5
12289	127137	127.249372634185	0.75
12289	127355	127.449372634185	0.875
12289	127918	127.8569820215	0.625
12289	127921	127.857146086056	0.625
12289	128010	127.969469555944	0.75
12289	128438	128.271586186651	0.625
12289	129044	128.771586186651	0.375
12289	129986	129.422883845164	0.125
12289	130417	129.722883845164	0.75
12289	130802	130.026423715349	0.75
12289	130952	130.14853159374	0.5
12289	131181	130.335469836425	0.75
12289	131504	130.64212208566	0.75
12289	132185	131.24222208666	0.125
12289	132680	131.64222208666	0.625
12289	133040	131.946818150799	0.625
12289	133366	132.156333660078	0.875
12289	133643	132.381402159412	0.5
12289	133784	132.519421181711	0.5
12289	133853	132.565264309924	0.5
12289	134261	132.868634728869	0.625
12289	134801	133.368634728869	0.5
12289	136307	134.577107072883	-0.5
12289	136918	135.277107072883	0.125
12289	137055	135.582901080693	0.75
12289	137151	135.888935377411	0.75
12290	132	20.100000001	0.1
12290	397	20.500000001	0.4
12290	675	20.916381074949	0.4
12290	843	21.116481075949	0.2
12290	1412	21.616481075949	0.5
12290	2774	22.718853989721	1.1
12290	3025	22.921217463819	0.2
12290	3360	23.12591075517	0.2
12290	4214	23.82591075517	0.7
12290	4463	24.030027122241	0.2
12290	5157	24.71675486314	0.5
12290	5454	24.93570429352	0.9
12290	5617	25.045090776285	0.5
12290	6138	25.53643808503	0.6
12290	6151	25.540118965333	0.6
12290	6337	25.643653736553	0.1
12290	7491	26.543653736553	0.9
12290	8264	27.144711636364	0.6
12290	8750	27.544711636364	0.4
12290	9789	28.353298002636	0.8
12290	10172	28.665815313786	0.3
12290	10188	28.668727800844	0
12290	10793	29.168727800844	0.5
12290	11115	29.438461305118	0.3
12290	11527	29.738561306118	0.3
12290	11897	30.038561306118	0.3
12290	12438	30.440570982561	0.4
12290	12575	30.564593757874	0.6
12290	12801	30.771469998386	0.2
12290	13014	30.974841788845	0.2
12290	13827	31.683916627269	0.7
12290	14076	31.886681084109	0.2
12290	14116	31.916927490946	0.2
12290	14556	32.286749246229	0.4
12290	14597	32.318081087583	0.4
12290	14950	32.622895047195	0.3
12290	15097	32.787636521527	0.5
12290	15547	33.187736522527	0.4
12290	16214	33.787736522527	0.6
12290	16819	34.289039859296	0.5
12290	17461	34.807051263551	0.5
12290	18025	35.212849802056	0.4
12290	18741	35.812849802056	0.6
12290	20720	37.515809143087	1.7
12290	21348	38.021954451346	0.5
12290	21465	38.118382405978	0.5
12290	21731	38.327855861591	0.2
12290	21752	38.331922087676	0.3
12290	23591	39.935398633068	1.6
12290	24284	40.435398633068	0.5
12290	24616	40.745311118764	0.3
12290	24630	40.745411119764	0
12290	25093	41.145411119764	0.4
12290	26160	42.075269092714	0.3
12290	26794	42.675269092714	0.6
12290	27168	43.079319484142	0.4
12290	27342	43.189185672954	0.1
12290	27583	43.389185672954	0.2
12290	28231	43.897222705697	0.5
12290	28768	44.302763970202	0.4
12290	29146	44.612107008876	0.2
12290	29985	45.480433018881	0.8
12290	30039	45.519436839353	0.9
12290	30222	45.681094331872	0.2
12290	30253	45.710470973501	1.4
12290	30887	46.216600718032	0.5
12290	31163	46.416600718032	0.2
12290	31681	46.82237775094	0.4
12290	32027	47.132169732617	0.3
12290	33784	48.535569780656	1.4
12290	34262	49.035569780656	0.5
12290	35526	50.044286086688	1
12290	35965	50.4512581583	0.4
12290	37230	51.558424476671	1.1
12290	37325	51.632109561848	1
12290	37464	51.759449009522	0.2
12290	38165	52.33591119187	0.7
12290	39120	53.140677877091	0.8
12290	39450	53.440677877091	0.3
12290	39729	53.648199010949	0.2
12290	39891	53.782285192321	0.2
12290	40159	53.982626848516	0.2
12290	41419	54.982626848516	1
12290	41805	55.27566452291	0.6
12290	42196	55.592498679847	0.6
12290	42282	55.675733478797	0.4