file 929280 1369674155                                          
version 2
run Stability-norelink-105-20130525-23:21:01-22103
attr configname Stability-norelink
attr datetime 20130525-23:21:01
attr experiment Stability
attr inifile omnetpp.ini
attr iterationvars $0=1e-4
attr iterationvars2 "$0=1e-4, $repetition=5"
attr measurement $0=1e-4
attr network Network
attr processid 22103
attr repetition 5
attr replication #5
attr resultdir results
attr runnumber 105
attr seedset 105
vector 10089  Network.dyn_peer[3]  lookupHopsSig:vector  ETV
10089	93860 10173 39 138450 20.0000004 134.405560670123 335 0 21 1318 8500
vector 10090  Network.dyn_peer[3]  lookupStabilitySig:vector  ETV
10090	104033 11261 39 138450 20.0000004 134.405560670123 335 -1.625 1 170.26388888806 138.33699845532
vector 10091  Network.dyn_peer[3]  lookupTimeSig:vector  ETV
10091	115294 10792 39 138450 20.0000004 134.405560670123 335 0 1.9 149.4 93.56
vector 10095  Network.dyn_peer[5]  lookupHopsSig:vector  ETV
10095	154160 9478 49 137521 20.0000006 133.418568723574 312 0 15 1219 7213
vector 10096  Network.dyn_peer[5]  lookupStabilitySig:vector  ETV
10096	163638 10499 49 137521 20.0000006 133.418568723574 312 -0.875 1 159.65277777612 119.99556326903
vector 10097  Network.dyn_peer[5]  lookupTimeSig:vector  ETV
10097	174137 10068 49 137521 20.0000006 133.418568723574 312 0 1.4 137.8 81.24
vector 10119  Network.dyn_peer[13]  lookupHopsSig:vector  ETV
10119	384251 8972 77 138596 20.0000014 134.630734557558 295 0 21 1261 8453
vector 10120  Network.dyn_peer[13]  lookupStabilitySig:vector  ETV
10120	393223 9935 77 138596 20.0000014 134.630734557558 295 -1.625 1 137.375 111.828125
vector 10121  Network.dyn_peer[13]  lookupTimeSig:vector  ETV
10121	403158 9524 77 138596 20.0000014 134.630734557558 295 0 1.8 139.1 89.29
vector 10128  Network.dyn_peer[16]  lookupHopsSig:vector  ETV
10128	469246 9380 90 138001 20.0000017 133.917001406405 309 0 30 1342 9632
vector 10129  Network.dyn_peer[16]  lookupStabilitySig:vector  ETV
10129	478626 10350 90 138001 20.0000017 133.917001406405 309 -2.75 1 141.25 124
vector 10130  Network.dyn_peer[16]  lookupTimeSig:vector  ETV
10130	488976 9950 90 138001 20.0000017 133.917001406405 309 0 2.8 148.4 102.44
vector 10152  Network.dyn_peer[24]  lookupHopsSig:vector  ETV
10152	696703 8990 118 138345 20.0000025 134.24295956025 296 0 15 1172 7272
vector 10153  Network.dyn_peer[24]  lookupStabilitySig:vector  ETV
10153	705693 9942 118 138345 20.0000025 134.24295956025 296 -0.875 1 149.5 116.625
vector 10154  Network.dyn_peer[24]  lookupTimeSig:vector  ETV
10154	715635 9527 118 138345 20.0000025 134.24295956025 296 0 1.4 132.2 80.44
vector 10164  Network.dyn_peer[28]  lookupHopsSig:vector  ETV
10164	811180 8895 134 138495 20.0000029 134.429598520852 292 0 23 1263 8715
vector 10165  Network.dyn_peer[28]  lookupStabilitySig:vector  ETV
10165	820075 9850 134 138495 20.0000029 134.429598520852 292 -1.875 1 134.18055555224 112.48051697163
vector 10166  Network.dyn_peer[28]  lookupTimeSig:vector  ETV
10166	829925 9441 134 138495 20.0000029 134.429598520852 292 0 2.1 139 92.84
vector 10080  Network.dyn_peer[0]  lookupHopsSig:vector  ETV
10080	6498 9521 150 137280 20.1000001 133.232305032216 313 0 22 1202 7292
vector 10081  Network.dyn_peer[0]  lookupStabilitySig:vector  ETV
10081	16019 10572 150 137280 20.1000001 133.232305032216 313 -1.75 1 162.8749999851 126.59239967186
vector 10082  Network.dyn_peer[0]  lookupTimeSig:vector  ETV
10082	26591 10123 150 137280 20.1000001 133.232305032216 313 0 2 136.5 81.23
vector 10086  Network.dyn_peer[2]  lookupHopsSig:vector  ETV
10086	67457 8333 156 138687 20.1000003 135.188091771381 274 0 22 1160 8078
vector 10087  Network.dyn_peer[2]  lookupStabilitySig:vector  ETV
10087	75790 9234 156 138687 20.1000003 135.188091771381 274 -1.75 1 129.04166665673 110.2725694312
vector 10088  Network.dyn_peer[2]  lookupTimeSig:vector  ETV
10088	85024 8836 156 138687 20.1000003 135.188091771381 274 0 2 128.4 84.02
vector 10101  Network.dyn_peer[7]  lookupHopsSig:vector  ETV
10101	216800 8385 164 137355 20.1000008 133.309751226319 275 0 22 1262 8956
vector 10102  Network.dyn_peer[7]  lookupStabilitySig:vector  ETV
10102	225185 9243 164 137355 20.1000008 133.309751226319 275 -1.75 1 117.25 99.4375
vector 10103  Network.dyn_peer[7]  lookupTimeSig:vector  ETV
10103	234428 8893 164 137355 20.1000008 133.309751226319 275 0 1.9 137.7 93.13
vector 10104  Network.dyn_peer[8]  lookupHopsSig:vector  ETV
10104	243321 9100 169 138306 20.1000009 134.222275062446 298 0 17 1286 8820
vector 10105  Network.dyn_peer[8]  lookupStabilitySig:vector  ETV
10105	252421 10121 169 138306 20.1000009 134.222275062446 298 -1.125 1 137.34722220898 114.42496140283
vector 10106  Network.dyn_peer[8]  lookupTimeSig:vector  ETV
10106	262542 9653 169 138306 20.1000009 134.222275062446 298 0 1.6 141.5 93.13
vector 10107  Network.dyn_peer[9]  lookupHopsSig:vector  ETV
10107	272195 8278 174 137373 20.100001 133.312466549397 271 0 26 1375 10629
vector 10108  Network.dyn_peer[9]  lookupStabilitySig:vector  ETV
10108	280473 9162 174 137373 20.100001 133.312466549397 271 -2.25 1 99.166666664183 93.395061724348
vector 10109  Network.dyn_peer[9]  lookupTimeSig:vector  ETV
10109	289635 8764 174 137373 20.100001 133.312466549397 271 0 2.3 148.6 109.5
vector 10113  Network.dyn_peer[11]  lookupHopsSig:vector  ETV
10113	325897 9249 180 137066 20.1000012 133.025851103637 304 0 16 1231 7475
vector 10114  Network.dyn_peer[11]  lookupStabilitySig:vector  ETV
10114	335146 10274 180 137066 20.1000012 133.025851103637 304 -1 1 150.23611109704 113.10513116548
vector 10115  Network.dyn_peer[11]  lookupTimeSig:vector  ETV
10115	345420 9832 180 137066 20.1000012 133.025851103637 304 0 1.5 138.4 83.46
vector 10140  Network.dyn_peer[20]  lookupHopsSig:vector  ETV
10140	584104 8295 193 138397 20.1000021 134.318335380549 273 0 25 1258 9602
vector 10141  Network.dyn_peer[20]  lookupStabilitySig:vector  ETV
10141	592399 9223 193 138397 20.1000021 134.318335380549 273 -2.125 1 116.08333328366 108.73881167468
vector 10142  Network.dyn_peer[20]  lookupTimeSig:vector  ETV
10142	601622 8781 193 138397 20.1000021 134.318335380549 273 0 2.3 138.5 100.95
vector 10146  Network.dyn_peer[22]  lookupHopsSig:vector  ETV
10146	638765 8461 199 137367 20.1000023 133.311407986477 278 0 20 1252 8528
vector 10147  Network.dyn_peer[22]  lookupStabilitySig:vector  ETV
10147	647226 9389 199 137367 20.1000023 133.311407986477 278 -1.5 1 121.58333330601 98.331404295968
vector 10148  Network.dyn_peer[22]  lookupTimeSig:vector  ETV
10148	656615 8977 199 137367 20.1000023 133.311407986477 278 0 1.9 136.6 90.3
vector 10092  Network.dyn_peer[4]  lookupHopsSig:vector  ETV
10092	126086 8856 220 138152 20.2000005 134.047833717318 291 0 25 1291 8945
vector 10093  Network.dyn_peer[4]  lookupStabilitySig:vector  ETV
10093	134942 9820 220 138152 20.2000005 134.047833717318 291 -2.125 1 129.68055555224 108.07426697163
vector 10094  Network.dyn_peer[4]  lookupTimeSig:vector  ETV
10094	144762 9398 220 138152 20.2000005 134.047833717318 291 0 2.3 143.3 96.71
vector 10110  Network.dyn_peer[10]  lookupHopsSig:vector  ETV
10110	298399 8688 230 138115 20.2000011 134.028347856607 286 0 21 1208 8768
vector 10111  Network.dyn_peer[10]  lookupStabilitySig:vector  ETV
10111	307087 9602 230 138115 20.2000011 134.028347856607 286 -1.625 1 135 121
vector 10112  Network.dyn_peer[10]  lookupTimeSig:vector  ETV
10112	316689 9208 230 138115 20.2000011 134.028347856607 286 0 1.9 133.1 91.57
vector 10116  Network.dyn_peer[12]  lookupHopsSig:vector  ETV
10116	355252 9141 236 137437 20.2000013 133.350848390702 301 0 28 1286 9078
vector 10117  Network.dyn_peer[12]  lookupStabilitySig:vector  ETV
10117	364393 10169 236 137437 20.2000013 133.350848390702 301 -2.5 1 140.45833327621 121.54070210825
vector 10118  Network.dyn_peer[12]  lookupTimeSig:vector  ETV
10118	374562 9689 236 137437 20.2000013 133.350848390702 301 0 2.5 143.1 96.55
vector 10122  Network.dyn_peer[14]  lookupHopsSig:vector  ETV
10122	412682 9159 242 137327 20.2000015 133.301081980979 301 0 23 1272 8494
vector 10123  Network.dyn_peer[14]  lookupStabilitySig:vector  ETV
10123	421841 10138 242 137327 20.2000015 133.301081980979 301 -1.875 1 142 115.71875
vector 10124  Network.dyn_peer[14]  lookupTimeSig:vector  ETV
10124	431979 9731 242 137327 20.2000015 133.301081980979 301 0 2.2 142.9 93.99
vector 10131  Network.dyn_peer[17]  lookupHopsSig:vector  ETV
10131	498926 9302 249 138358 20.2000018 134.247933717318 306 0 26 1284 8524
vector 10132  Network.dyn_peer[17]  lookupStabilitySig:vector  ETV
10132	508228 10288 249 138358 20.2000018 134.247933717318 306 -2.25 1 145.5 118.1875
vector 10133  Network.dyn_peer[17]  lookupTimeSig:vector  ETV
10133	518516 9884 249 138358 20.2000018 134.247933717318 306 0 2.2 144.5 93.19
vector 10149  Network.dyn_peer[23]  lookupHopsSig:vector  ETV
10149	665592 9805 259 137108 20.2000024 133.067195906402 323 0 21 1278 7920
vector 10150  Network.dyn_peer[23]  lookupStabilitySig:vector  ETV
10150	675397 10891 259 137108 20.2000024 133.067195906402 323 -1.625 1 163.29166665673 127.3038194312
vector 10151  Network.dyn_peer[23]  lookupTimeSig:vector  ETV
10151	686288 10415 259 137108 20.2000024 133.067195906402 323 0 1.8 144.5 87.11
vector 10170  Network.dyn_peer[30]  lookupHopsSig:vector  ETV
10170	868722 9544 269 138657 20.2000031 134.884405837199 314 0 17 1251 7615
vector 10171  Network.dyn_peer[30]  lookupStabilitySig:vector  ETV
10171	878266 10591 269 138657 20.2000031 134.884405837199 314 -1.125 1 157.69444441795 120.29128084065
vector 10172  Network.dyn_peer[30]  lookupTimeSig:vector  ETV
10172	888857 10133 269 138657 20.2000031 134.884405837199 314 0 1.5 140.6 84.4
vector 10083  Network.dyn_peer[1]  lookupHopsSig:vector  ETV
10083	36714 9705 284 138175 20.3000002 134.105419833808 318 0 19 1312 8626
vector 10084  Network.dyn_peer[1]  lookupStabilitySig:vector  ETV
10084	46419 10747 284 138175 20.3000002 134.105419833808 318 -1.375 1 154 124.78125
vector 10085  Network.dyn_peer[1]  lookupTimeSig:vector  ETV
10085	57166 10291 284 138175 20.3000002 134.105419833808 318 0 1.8 147.1 95.11
vector 10098  Network.dyn_peer[6]  lookupHopsSig:vector  ETV
10098	184205 10268 293 138253 20.3000007 134.141017953 338 0 16 1264 6910
vector 10099  Network.dyn_peer[6]  lookupStabilitySig:vector  ETV
10099	194473 11416 293 138253 20.3000007 134.141017953 338 -1 1 180.29166661203 130.21431322267
vector 10100  Network.dyn_peer[6]  lookupTimeSig:vector  ETV
10100	205889 10911 293 138253 20.3000007 134.141017953 338 0 1.5 144.7 80.93
vector 10125  Network.dyn_peer[15]  lookupHopsSig:vector  ETV
10125	441710 8691 307 137741 20.3000016 133.624007897014 285 0 21 1212 8412
vector 10126  Network.dyn_peer[15]  lookupStabilitySig:vector  ETV
10126	450401 9633 307 137741 20.3000016 133.624007897014 285 -1.625 1 133.5 113.4375
vector 10127  Network.dyn_peer[15]  lookupTimeSig:vector  ETV
10127	460034 9212 307 137741 20.3000016 133.624007897014 285 0 1.7 134.2 88.92
vector 10134  Network.dyn_peer[18]  lookupHopsSig:vector  ETV
10134	528400 8612 314 138138 20.3000019 134.042419067756 283 0 19 1193 7951
vector 10135  Network.dyn_peer[18]  lookupStabilitySig:vector  ETV
10135	537012 9556 314 138138 20.3000019 134.042419067756 283 -1.375 1 133.94444441795 109.04128084065
vector 10136  Network.dyn_peer[18]  lookupTimeSig:vector  ETV
10136	546568 9141 314 138138 20.3000019 134.042419067756 283 0 1.7 132.9 85.53
vector 10143  Network.dyn_peer[21]  lookupHopsSig:vector  ETV
10143	610403 8944 321 138671 20.3000022 135.032138869005 294 0 16 1302 8956
vector 10144  Network.dyn_peer[21]  lookupStabilitySig:vector  ETV
10144	619347 9916 321 138671 20.3000022 135.032138869005 294 -1 1 131.33333331347 108.48611109787
vector 10145  Network.dyn_peer[21]  lookupTimeSig:vector  ETV
10145	629263 9502 321 138671 20.3000022 135.032138869005 294 0 1.4 144.7 96.15
vector 10155  Network.dyn_peer[25]  lookupHopsSig:vector  ETV
10155	725162 9766 327 137528 20.3000026 133.421215599568 320 0 24 1312 8806
vector 10156  Network.dyn_peer[25]  lookupStabilitySig:vector  ETV
10156	734928 10810 327 137528 20.3000026 133.421215599568 320 -2 1 156.1249999702 129.70929781228
vector 10157  Network.dyn_peer[25]  lookupTimeSig:vector  ETV
10157	745738 10361 327 137528 20.3000026 133.421215599568 320 0 2.2 146.6 94.62
vector 10173  Network.dyn_peer[31]  lookupHopsSig:vector  ETV
10173	898990 9548 338 138228 20.3000032 134.128347856607 314 0 21 1235 7749
vector 10174  Network.dyn_peer[31]  lookupStabilitySig:vector  ETV
10174	908538 10609 338 138228 20.3000032 134.128347856607 314 -1.625 1 159.76388885826 126.49440583403
vector 10175  Network.dyn_peer[31]  lookupTimeSig:vector  ETV
10175	919147 10133 338 138228 20.3000032 134.128347856607 314 0 1.8 138.7 83.91
vector 10137  Network.dyn_peer[19]  lookupHopsSig:vector  ETV
10137	555709 8958 375 137981 20.400002 133.905319833808 295 0 22 1193 7687
vector 10138  Network.dyn_peer[19]  lookupStabilitySig:vector  ETV
10138	564667 9929 375 137981 20.400002 133.905319833808 295 -1.75 1 145.875 116.859375
vector 10139  Network.dyn_peer[19]  lookupTimeSig:vector  ETV
10139	574596 9508 375 137981 20.400002 133.905319833808 295 0 1.9 132.9 81.45
vector 10158  Network.dyn_peer[26]  lookupHopsSig:vector  ETV
10158	756099 8613 385 137050 20.4000027 133.019613263862 284 0 23 1296 9106
vector 10159  Network.dyn_peer[26]  lookupStabilitySig:vector  ETV
10159	764712 9557 385 137050 20.4000027 133.019613263862 284 -1.875 1 122.16666664183 102.41126541039
vector 10160  Network.dyn_peer[26]  lookupTimeSig:vector  ETV
10160	774269 9136 385 137050 20.4000027 133.019613263862 284 0 2 143 96.64
vector 10167  Network.dyn_peer[29]  lookupHopsSig:vector  ETV
10167	839366 9272 391 138492 20.400003 134.428447856607 304 0 20 1284 8644
vector 10168  Network.dyn_peer[29]  lookupStabilitySig:vector  ETV
10168	848638 10245 391 138492 20.400003 134.428447856607 304 -1.5 1 143.5 118.0625
vector 10169  Network.dyn_peer[29]  lookupTimeSig:vector  ETV
10169	858883 9839 391 138492 20.400003 134.428447856607 304 0 1.7 144.2 93.96
vector 10161  Network.dyn_peer[27]  lookupHopsSig:vector  ETV
10161	783405 8755 434 137889 20.5000028 133.810944512563 288 0 21 1225 7889
vector 10162  Network.dyn_peer[27]  lookupStabilitySig:vector  ETV
10162	792160 9719 434 137889 20.5000028 133.810944512563 288 -1.625 1 134.95833332837 105.11670524066
vector 10163  Network.dyn_peer[27]  lookupTimeSig:vector  ETV
10163	801879 9301 434 137889 20.5000028 133.810944512563 288 0 1.9 136.7 85.91
