version 2
run Stability-norelink-82-20130525-23:19:28-22103
attr configname Stability-norelink
attr datetime 20130525-23:19:28
attr experiment Stability
attr inifile omnetpp.ini
attr iterationvars $0=1e-2
attr iterationvars2 "$0=1e-2, $repetition=2"
attr measurement $0=1e-2
attr network Network
attr processid 22103
attr repetition 2
attr replication #2
attr resultdir results
attr runnumber 82
attr seedset 82

vector 7899  Network.dyn_peer[9]  lookupHopsSig:vector  ETV
vector 7900  Network.dyn_peer[9]  lookupStabilitySig:vector  ETV
vector 7901  Network.dyn_peer[9]  lookupTimeSig:vector  ETV
vector 7950  Network.dyn_peer[26]  lookupHopsSig:vector  ETV
vector 7951  Network.dyn_peer[26]  lookupStabilitySig:vector  ETV
vector 7952  Network.dyn_peer[26]  lookupTimeSig:vector  ETV
vector 7872  Network.dyn_peer[0]  lookupHopsSig:vector  ETV
vector 7873  Network.dyn_peer[0]  lookupStabilitySig:vector  ETV
vector 7874  Network.dyn_peer[0]  lookupTimeSig:vector  ETV
vector 7881  Network.dyn_peer[3]  lookupHopsSig:vector  ETV
vector 7882  Network.dyn_peer[3]  lookupStabilitySig:vector  ETV
vector 7883  Network.dyn_peer[3]  lookupTimeSig:vector  ETV
vector 7884  Network.dyn_peer[4]  lookupHopsSig:vector  ETV
vector 7885  Network.dyn_peer[4]  lookupStabilitySig:vector  ETV
vector 7886  Network.dyn_peer[4]  lookupTimeSig:vector  ETV
vector 7902  Network.dyn_peer[10]  lookupHopsSig:vector  ETV
vector 7903  Network.dyn_peer[10]  lookupStabilitySig:vector  ETV
vector 7904  Network.dyn_peer[10]  lookupTimeSig:vector  ETV
vector 7908  Network.dyn_peer[12]  lookupHopsSig:vector  ETV
vector 7909  Network.dyn_peer[12]  lookupStabilitySig:vector  ETV
vector 7910  Network.dyn_peer[12]  lookupTimeSig:vector  ETV
vector 7914  Network.dyn_peer[14]  lookupHopsSig:vector  ETV
vector 7915  Network.dyn_peer[14]  lookupStabilitySig:vector  ETV
vector 7916  Network.dyn_peer[14]  lookupTimeSig:vector  ETV
vector 7920  Network.dyn_peer[16]  lookupHopsSig:vector  ETV
vector 7921  Network.dyn_peer[16]  lookupStabilitySig:vector  ETV
vector 7922  Network.dyn_peer[16]  lookupTimeSig:vector  ETV
vector 7923  Network.dyn_peer[17]  lookupHopsSig:vector  ETV
vector 7924  Network.dyn_peer[17]  lookupStabilitySig:vector  ETV
vector 7925  Network.dyn_peer[17]  lookupTimeSig:vector  ETV
vector 7935  Network.dyn_peer[21]  lookupHopsSig:vector  ETV
vector 7936  Network.dyn_peer[21]  lookupStabilitySig:vector  ETV
vector 7937  Network.dyn_peer[21]  lookupTimeSig:vector  ETV
vector 7941  Network.dyn_peer[23]  lookupHopsSig:vector  ETV
vector 7942  Network.dyn_peer[23]  lookupStabilitySig:vector  ETV
vector 7943  Network.dyn_peer[23]  lookupTimeSig:vector  ETV
vector 7944  Network.dyn_peer[24]  lookupHopsSig:vector  ETV
vector 7945  Network.dyn_peer[24]  lookupStabilitySig:vector  ETV
vector 7946  Network.dyn_peer[24]  lookupTimeSig:vector  ETV
vector 7962  Network.dyn_peer[30]  lookupHopsSig:vector  ETV
vector 7963  Network.dyn_peer[30]  lookupStabilitySig:vector  ETV
vector 7964  Network.dyn_peer[30]  lookupTimeSig:vector  ETV
vector 7965  Network.dyn_peer[31]  lookupHopsSig:vector  ETV
vector 7966  Network.dyn_peer[31]  lookupStabilitySig:vector  ETV
vector 7967  Network.dyn_peer[31]  lookupTimeSig:vector  ETV
vector 7875  Network.dyn_peer[1]  lookupHopsSig:vector  ETV
vector 7876  Network.dyn_peer[1]  lookupStabilitySig:vector  ETV
vector 7877  Network.dyn_peer[1]  lookupTimeSig:vector  ETV
vector 7911  Network.dyn_peer[13]  lookupHopsSig:vector  ETV
vector 7912  Network.dyn_peer[13]  lookupStabilitySig:vector  ETV
vector 7913  Network.dyn_peer[13]  lookupTimeSig:vector  ETV
vector 7917  Network.dyn_peer[15]  lookupHopsSig:vector  ETV
vector 7918  Network.dyn_peer[15]  lookupStabilitySig:vector  ETV
vector 7919  Network.dyn_peer[15]  lookupTimeSig:vector  ETV
vector 7929  Network.dyn_peer[19]  lookupHopsSig:vector  ETV
vector 7930  Network.dyn_peer[19]  lookupStabilitySig:vector  ETV
vector 7931  Network.dyn_peer[19]  lookupTimeSig:vector  ETV
vector 7938  Network.dyn_peer[22]  lookupHopsSig:vector  ETV
vector 7939  Network.dyn_peer[22]  lookupStabilitySig:vector  ETV
vector 7940  Network.dyn_peer[22]  lookupTimeSig:vector  ETV
vector 7956  Network.dyn_peer[28]  lookupHopsSig:vector  ETV
vector 7957  Network.dyn_peer[28]  lookupStabilitySig:vector  ETV
vector 7958  Network.dyn_peer[28]  lookupTimeSig:vector  ETV
vector 7878  Network.dyn_peer[2]  lookupHopsSig:vector  ETV
vector 7879  Network.dyn_peer[2]  lookupStabilitySig:vector  ETV
vector 7880  Network.dyn_peer[2]  lookupTimeSig:vector  ETV
vector 7887  Network.dyn_peer[5]  lookupHopsSig:vector  ETV
vector 7888  Network.dyn_peer[5]  lookupStabilitySig:vector  ETV
vector 7889  Network.dyn_peer[5]  lookupTimeSig:vector  ETV
vector 7896  Network.dyn_peer[8]  lookupHopsSig:vector  ETV
vector 7897  Network.dyn_peer[8]  lookupStabilitySig:vector  ETV
vector 7898  Network.dyn_peer[8]  lookupTimeSig:vector  ETV
vector 7926  Network.dyn_peer[18]  lookupHopsSig:vector  ETV
vector 7927  Network.dyn_peer[18]  lookupStabilitySig:vector  ETV
vector 7928  Network.dyn_peer[18]  lookupTimeSig:vector  ETV
vector 7932  Network.dyn_peer[20]  lookupHopsSig:vector  ETV
vector 7933  Network.dyn_peer[20]  lookupStabilitySig:vector  ETV
vector 7934  Network.dyn_peer[20]  lookupTimeSig:vector  ETV
vector 7947  Network.dyn_peer[25]  lookupHopsSig:vector  ETV
vector 7948  Network.dyn_peer[25]  lookupStabilitySig:vector  ETV
vector 7949  Network.dyn_peer[25]  lookupTimeSig:vector  ETV
vector 7959  Network.dyn_peer[29]  lookupHopsSig:vector  ETV
vector 7960  Network.dyn_peer[29]  lookupStabilitySig:vector  ETV
vector 7961  Network.dyn_peer[29]  lookupTimeSig:vector  ETV
vector 7890  Network.dyn_peer[6]  lookupHopsSig:vector  ETV
vector 7891  Network.dyn_peer[6]  lookupStabilitySig:vector  ETV
vector 7892  Network.dyn_peer[6]  lookupTimeSig:vector  ETV
vector 7893  Network.dyn_peer[7]  lookupHopsSig:vector  ETV
vector 7894  Network.dyn_peer[7]  lookupStabilitySig:vector  ETV
vector 7895  Network.dyn_peer[7]  lookupTimeSig:vector  ETV
vector 7953  Network.dyn_peer[27]  lookupHopsSig:vector  ETV
vector 7954  Network.dyn_peer[27]  lookupStabilitySig:vector  ETV
vector 7955  Network.dyn_peer[27]  lookupTimeSig:vector  ETV
vector 7905  Network.dyn_peer[11]  lookupHopsSig:vector  ETV
vector 7906  Network.dyn_peer[11]  lookupStabilitySig:vector  ETV
vector 7907  Network.dyn_peer[11]  lookupTimeSig:vector  ETV
7872	132	20.10001	1
7872	463	20.60001	4
7872	1066	21.310422634078	5
7872	1451	21.612286155669	6
7872	1464	21.614882437981	2
7872	1704	21.814992437981	2
7872	2469	22.414992437981	6
7872	2826	22.739657456468	2
7872	3546	23.468259904909	7
7872	4044	23.879505197091	3
7872	4582	24.286996415341	4
7872	4939	24.586996415341	2
7872	5284	24.794701463462	2
7872	5571	25.033518111818	3
7872	5849	25.233690430375	1
7872	5932	25.256603030847	1
7872	6568	25.757545937787	5
7872	6853	25.957545937787	1
7872	7414	26.381746045191	3
7872	7999	26.851060420931	2
7872	8610	27.356485940063	5
7872	8761	27.45830880086	3
7872	8960	27.565210839985	2
7872	9183	27.755571865399	2
7872	9206	27.762427607176	2
7872	9307	27.80737441885	16
7872	9350	27.866445953119	3
7872	9764	28.167242056268	3
7872	10165	28.477723385579	3
7872	10596	28.78193161269	2
7872	11696	29.589384774336	9
7872	12791	30.489384774336	8
7872	14025	31.476472712109	6
7872	14061	31.493627086031	10
7872	14302	31.683515403937	1
7872	14427	31.803150533736	2
7872	14620	32.004502561423	1
7872	14654	32.008850095873	1
7872	14676	32.011468036766	0
7872	15018	32.324434730414	3
7872	15170	32.489908544151	1
7872	15294	32.590018544151	1
7872	15585	32.890018544151	2
7872	16286	33.497779181998	5
7872	16954	34.11616512685	5
7872	17496	34.554222925942	2
7872	18941	35.662108970823	11
7872	18945	35.662869749598	11
7872	19180	35.865308181334	1
7872	19187	35.871635214621	1
7872	19770	36.398509222306	5
7872	20328	36.8733516738	9
7872	20330	36.874322704533	9
7872	21009	37.476512097762	6
7872	21306	37.776512097762	2
7872	21816	38.193672198761	3
7872	22040	38.393873663885	1
7872	22507	38.693983663885	3
7872	22852	38.993983663885	2
7872	23200	39.294457615121	2
7872	23686	39.703599857153	3
7872	24227	40.108297676826	4
7872	24306	40.187264252654	2
7872	25517	41.194466662842	11
7872	25725	41.394466662842	2
7872	26197	41.897661866182	4
7872	26766	42.400024353458	4
7872	27211	42.77382903145	4
7872	27257	42.806300555648	3
7872	29020	44.210227286475	15
7872	29774	44.813165755036	6
7872	30018	45.016804757054	1
7872	30284	45.225973001296	2
7872	30652	45.53432263732	2
7872	31093	45.93702557168	3
7872	31331	46.146205948763	2
7872	31552	46.342876552278	4
7872	31782	46.55500549425	3
7872	31996	46.764669765936	2
7872	32944	47.59981002031	2
7872	33132	47.764669765936	9
7872	33149	47.765495706025	0
7872	33409	47.971353855376	1
7872	34705	49.146782466703	8
7872	34933	49.446782466703	2
7872	35355	49.852104410348	3
7872	35679	50.155797890476	2
7872	36534	50.95832509753	7
7872	37180	51.463735172158	4
7872	37501	51.695701764603	3
7872	37793	51.89764694744	2
7872	38599	52.49764694744	5
7872	38749	52.603794514678	1
7872	39011	52.803904514678	2
7872	39369	53.103904514678	2
7872	39473	53.204014514678	1
7872	40030	53.604014514678	3
7872	40355	53.843202263031	1
7872	40603	54.047989048329	1
7872	41577	54.953445491856	9
7872	41976	55.253445491856	2
7872	42703	55.856321332999	6
7872	43087	56.160351871598	2
7872	43181	56.222292140382	2
7872	43454	56.424503237793	1
7872	44209	57.036118120042	5
7872	44258	57.068646030485	8
7872	45105	57.773137295356	7
7872	45553	58.173137295356	3
7872	45976	58.4752647309	2
7872	47245	59.782852460464	14
7872	48253	60.582852460464	7
7872	48955	61.086842931345	4
7872	49601	61.687651486218	5
7872	49905	61.894209497199	2
7872	50996	62.794209497199	9
7872	51663	63.439156680305	4
7872	51711	63.507766753756	6
7872	51868	63.610795905292	2
7872	52069	63.810795905292	1
7872	52328	64.014042032572	1
7872	52724	64.323585668581	4
7872	53448	64.930504766987	6
7872	53946	65.430504766987	4
7872	54076	65.540385449115	1
7872	54458	65.940385449115	4
7872	54773	66.245862289816	2
7872	55598	66.954119766091	7
7872	56017	67.362738328496	3
7872	56285	67.571723533568	2
7872	56734	67.971723533568	3
7872	57328	68.467357051602	1
7872	57602	68.668220581136	1
7872	57935	68.878042289397	3
7872	58462	69.378042289397	4
7872	59129	69.979064368937	5
7872	59540	70.283181247376	2
7872	59918	70.575086490541	7
7872	60765	71.175196490541	7
7872	61517	71.775196490541	5
7872	61951	72.135196153382	1
7872	62775	72.735196153382	6
7872	63385	73.345110557174	5
7872	63706	73.648802567528	2
7872	64061	73.95085725447	2
7872	65244	74.960421682964	11
7872	65823	75.462390894701	5
7872	66076	75.662390894701	1
7872	66354	75.871940917304	1
7872	66883	76.27766187955	4
7872	66912	76.32441710752	4
7872	67363	76.632615296683	3
7872	67624	76.832615296683	1
7872	68420	77.639440710989	7
7872	68655	77.843921978287	2
7872	69009	78.243921978287	3
7872	69429	78.644052158666	4
7872	70476	79.444052158666	7
7872	71052	79.949322406302	4
7872	71413	80.351299694748	5
7872	71609	80.551299694748	1
7872	72001	80.856844799832	2
7872	72833	81.565627318052	7
7872	73288	81.965627318052	3
7872	73880	82.570430048021	6
7872	74584	83.179027780489	5
7872	75126	83.590216707473	4
7872	75857	84.177856451417	9
7872	76132	84.391313165747	7
7872	76467	84.595739842799	2
7872	76702	84.795739842799	1
7872	76914	84.998059772305	1
7872	77319	85.306044989561	2
7872	77374	85.331076445747	2
7872	78023	85.838187952256	5
7872	78673	86.338187952256	4
7872	79055	86.638870394586	3
7872	79436	86.9448120895	2
7872	79693	87.219958827582	9
7872	80138	87.629383566177	4
7872	80350	87.829383566177	1
7872	80729	88.230817299454	3
7872	81057	88.531889099829	2
7872	81439	88.833838982089	3
7872	81640	89.042385068145	1
7872	82122	89.443031150136	4
7872	82856	90.048988135632	6
7872	83208	90.35223285173	2
7872	83624	90.753699698512	3
7872	83650	90.762787520561	4
7872	84144	91.169959892602	4
7872	85013	91.876169977764	7
7872	85402	92.183658986355	2
7872	85423	92.186727793212	2
7872	85700	92.386837793212	2
7872	86138	92.786837793212	3
7872	87140	93.493938452071	6
7872	87429	93.702377716135	1
7872	87652	93.906136725416	1
7872	87873	94.115452513379	1
7872	88078	94.318707917938	1
7872	88662	94.821867699488	5
7872	89417	95.421867699488	5
7872	89992	95.901956316116	4
7872	90499	96.302066316116	4
7872	90911	96.613930064451	2
7872	91365	97.013930064451	3
7872	92499	98.021885116165	10
7872	92552	98.038462100464	8
7872	93703	99.04121347215	11
7872	94953	99.93408735556	4
7872	95210	100.13408735556	1
7872	95846	100.641016359086	4
7872	96606	101.346422944263	7
7872	97049	101.755630412998	3
7872	97214	101.848368722037	1
7872	97233	101.855270217319	0
7872	98374	102.699270664084	2
7872	98617	102.899270664084	1
7872	99539	103.699510369506	7
7872	100067	104.20851209387	5
7872	100564	104.60851209387	3
7872	101223	105.131563262565	4
7872	101288	105.210460014681	6
7872	101491	105.359180597915	4
7872	101602	105.435848716589	3
7872	101877	105.636633907904	1
7872	101971	105.735619428698	7
7872	102876	106.538093462715	8
7872	103562	107.138093462715	5
7872	104094	107.540550616645	4
7872	104632	107.943390921186	3
7872	104654	107.945799669065	9
7872	104673	107.948665736427	3
7872	105189	108.347829726039	3
7872	105445	108.548898899285	5
7872	105450	108.549475313401	5
7872	106195	109.251966326311	7
7872	106577	109.551966326311	2
7872	107168	110.15371511172	5
7872	107829	110.759106303934	5
7872	108491	111.359106303934	5
7872	108717	111.565216045205	1
7872	109152	111.971510498011	3
7872	109686	112.478665306737	4
7872	109983	112.773105497722	7
7872	110451	113.181093410075	4
7872	111087	113.688231336281	3
7872	111257	113.781093410075	7
7872	111874	114.188143210452	5
7872	112326	114.588143210452	3
7872	112556	114.798907274916	1
7872	113136	115.305475587959	5
7872	113578	115.705475587959	4
7872	114726	116.813200381193	11
7872	115155	117.216628820888	3
7872	115244	117.304598461013	2
7872	115269	117.313585006134	4
7872	115708	117.715299854081	3
7872	115805	117.807005547739	4
7872	115848	117.823911376615	5
7872	116286	118.224772731737	4
7872	116979	118.824772731737	5
7872	117186	119.033843745399	1
7872	117425	119.238783987037	2
7872	117706	119.538783987037	2
7872	118303	120.039810417518	4
7872	118333	120.048144389316	4
7872	118576	120.249278483526	2
7872	119176	120.749278483526	4
7872	119498	121.053055753633	2
7872	119934	121.46183722163	3
7872	119961	121.466608972114	3
7872	120359	121.77037945306	3
7872	120369	121.771817256626	3
7872	120614	121.976888784187	1
7872	120625	121.981740949476	1
7872	120673	122.05900420473	1
7872	120697	122.06610623329	1
7872	120859	122.190986940353	1
7872	120930	122.265297114568	7
7872	121958	123.173541678745	9
7872	122898	124.079477960363	9
7872	123243	124.382208514884	2
7872	123542	124.626940298978	4
7872	124078	125.028645435335	4
7872	124763	125.628645435335	5
7872	125117	125.930393126577	3
7872	125791	126.435517426228	4
7872	126011	126.623603689972	9
7872	126191	126.743944464653	3
7872	126880	127.344054464653	7
7872	128460	128.644054464653	14
7872	128819	128.892524366974	1
7872	129156	129.157548434716	5
7872	129488	129.508596457549	5
7872	129762	129.759162392108	5
7872	130026	129.96661278953	1
7872	130091	130.013853025972	5
7872	130097	130.015596623171	2
7872	130618	130.416444198289	5
7872	131297	130.916444198289	4
7872	131570	131.12452631806	1
7872	131964	131.396710746991	3
7872	131995	131.42924897642	3
7872	132521	131.809379428142	4
7872	132889	132.105648822947	5
7872	132895	132.116288762985	5
7872	132905	132.119623197138	3
7872	132952	132.135593596958	6
7872	132989	132.157724126428	6
7872	134941	133.659134023078	16
7872	135741	134.459134023078	7
7872	135989	134.767648858034	2
7872	136123	134.970619019187	1
7873	132	20.10001	0.875
7873	463	20.60001	0.5
7873	1066	21.310422634078	0.375
7873	1451	21.612286155669	0.25
7873	1464	21.614882437981	0.75
7873	1704	21.814992437981	0.75
7873	2469	22.414992437981	0.33333331346512
7873	2826	22.739657456468	0.75
7873	3546	23.468259904909	0.125
7873	4044	23.879505197091	0.625
7873	4582	24.286996415341	0.5
7873	4939	24.586996415341	0.75
7873	5284	24.794701463462	0.75
7873	5571	25.033518111818	0.625
7873	5849	25.233690430375	0.875
7873	5932	25.256603030847	0.875
7873	6568	25.757545937787	0.375
7873	6853	25.957545937787	0.875
7873	7414	26.381746045191	0.625
7873	7999	26.851060420931	0.75
7873	8610	27.356485940063	0.375
7873	8761	27.45830880086	0.625
7873	8960	27.565210839985	0.75
7873	9183	27.755571865399	0.75
7873	9206	27.762427607176	0.75
7873	9307	27.80737441885	-1
7873	9350	27.866445953119	0.625
7873	9764	28.167242056268	0.625
7873	10165	28.477723385579	0.625
7873	10596	28.78193161269	0.75
7873	11696	29.589384774336	-0.125
7873	12791	30.489384774336	0
7873	14025	31.476472712109	0.25
7873	14061	31.493627086031	-0.25
7873	14302	31.683515403937	0.875
7873	14427	31.803150533736	0.75
7873	14620	32.004502561423	0.875
7873	14654	32.008850095873	0.875
7873	14676	32.011468036766	1
7873	15018	32.324434730414	0.625
7873	15170	32.489908544151	0.875
7873	15294	32.590018544151	0.875
7873	15585	32.890018544151	0.75
7873	16286	33.497779181998	0.375
7873	16954	34.11616512685	0.375
7873	17496	34.554222925942	0.75
7873	18941	35.662108970823	-0.375
7873	18945	35.662869749598	-0.375
7873	19180	35.865308181334	0.875
7873	19187	35.871635214621	0.875
7873	19770	36.398509222306	0.375
7873	20328	36.8733516738	-0.125
7873	20330	36.874322704533	-0.125
7873	21009	37.476512097762	0.25
7873	21306	37.776512097762	0.75
7873	21816	38.193672198761	0.625
7873	22040	38.393873663885	0.875
7873	22507	38.693983663885	0.625
7873	22852	38.993983663885	0.75
7873	23200	39.294457615121	0.75
7873	23686	39.703599857153	0.625
7873	24227	40.108297676826	0.5
7873	24306	40.187264252654	0.75
7873	25517	41.194466662842	-0.375
7873	25725	41.394466662842	0.75
7873	26197	41.897661866182	0.5
7873	26766	42.400024353458	0.5
7873	27211	42.77382903145	0.5
7873	27257	42.806300555648	0.625
7873	29020	44.210227286475	-0.875
7873	29774	44.813165755036	0.25
7873	30018	45.016804757054	0.875
7873	30284	45.225973001296	0.75
7873	30652	45.53432263732	0.75
7873	31093	45.93702557168	0.625
7873	31331	46.146205948763	0.75
7873	31552	46.342876552278	0.5
7873	31782	46.55500549425	0.625
7873	31996	46.764669765936	0.75
7873	32944	47.59981002031	0.75
7873	33132	47.764669765936	-0.125
7873	33149	47.765495706025	1
7873	33409	47.971353855376	0.875
7873	34705	49.146782466703	0
7873	34933	49.446782466703	0.75
7873	35355	49.852104410348	0.625
7873	35679	50.155797890476	0.75
7873	36534	50.95832509753	0.125
7873	37180	51.463735172158	0.5
7873	37501	51.695701764603	0.625
7873	37793	51.89764694744	0.75
7873	38599	52.49764694744	0.375
7873	38749	52.603794514678	0.875
7873	39011	52.803904514678	0.75
7873	39369	53.103904514678	0.75
7873	39473	53.204014514678	0.875
7873	40030	53.604014514678	0.625
7873	40355	53.843202263031	0.875
7873	40603	54.047989048329	0.875
7873	41577	54.953445491856	-0.125
7873	41976	55.253445491856	0.75
7873	42703	55.856321332999	0.25
7873	43087	56.160351871598	0.75
7873	43181	56.222292140382	0.75
7873	43454	56.424503237793	0.875
7873	44209	57.036118120042	0.375
7873	44258	57.068646030485	0
7873	45105	57.773137295356	0.125
7873	45553	58.173137295356	0.625
7873	45976	58.4752647309	0.75
7873	47245	59.782852460464	-0.75
7873	48253	60.582852460464	0.125
7873	48955	61.086842931345	0.5
7873	49601	61.687651486218	0.375
7873	49905	61.894209497199	0.75
7873	50996	62.794209497199	-0.125
7873	51663	63.439156680305	0.5
7873	51711	63.507766753756	0.25
7873	51868	63.610795905292	0.75
7873	52069	63.810795905292	0.875
7873	52328	64.014042032572	0.875
7873	52724	64.323585668581	0.5
7873	53448	64.930504766987	0.25
7873	53946	65.430504766987	0.5
7873	54076	65.540385449115	0.875
7873	54458	65.940385449115	0.5
7873	54773	66.245862289816	0.75
7873	55598	66.954119766091	0.125
7873	56017	67.362738328496	0.625
7873	56285	67.571723533568	0.75
7873	56734	67.971723533568	0.625
7873	57328	68.467357051602	0.875
7873	57602	68.668220581136	0.875
7873	57935	68.878042289397	0.625
7873	58462	69.378042289397	0.5
7873	59129	69.979064368937	0.375
7873	59540	70.283181247376	0.75
7873	59918	70.575086490541	0.125
7873	60765	71.175196490541	0.125
7873	61517	71.775196490541	0.375
7873	61951	72.135196153382	0.875
7873	62775	72.735196153382	0.25
7873	63385	73.345110557174	0.375
7873	63706	73.648802567528	0.75
7873	64061	73.95085725447	0.75
7873	65244	74.960421682964	-0.375
7873	65823	75.462390894701	0.375
7873	66076	75.662390894701	0.875
7873	66354	75.871940917304	0.875
7873	66883	76.27766187955	0.5
7873	66912	76.32441710752	0.5
7873	67363	76.632615296683	0.625
7873	67624	76.832615296683	0.875
7873	68420	77.639440710989	0.125
7873	68655	77.843921978287	0.75
7873	69009	78.243921978287	0.625
7873	69429	78.644052158666	0.5
7873	70476	79.444052158666	0.125
7873	71052	79.949322406302	0.5
7873	71413	80.351299694748	0.375
7873	71609	80.551299694748	0.875
7873	72001	80.856844799832	0.75
7873	72833	81.565627318052	0.125
7873	73288	81.965627318052	0.625
7873	73880	82.570430048021	0.25
7873	74584	83.179027780489	0.375
7873	75126	83.590216707473	0.5
7873	75857	84.177856451417	-0.125
7873	76132	84.391313165747	0.125
7873	76467	84.595739842799	0.75
7873	76702	84.795739842799	0.875
7873	76914	84.998059772305	0.875
7873	77319	85.306044989561	0.75
7873	77374	85.331076445747	0.75
7873	78023	85.838187952256	0.375
7873	78673	86.338187952256	0.5
7873	79055	86.638870394586	0.625
7873	79436	86.9448120895	0.75
7873	79693	87.219958827582	-0.125
7873	80138	87.629383566177	0.5
7873	80350	87.829383566177	0.875
7873	80729	88.230817299454	0.625
7873	81057	88.531889099829	0.75
7873	81439	88.833838982089	0.625
7873	81640	89.042385068145	0.875
7873	82122	89.443031150136	0.5
7873	82856	90.048988135632	0.25
7873	83208	90.35223285173	0.75
7873	83624	90.753699698512	0.625
7873	83650	90.762787520561	0.5
7873	84144	91.169959892602	0.5
7873	85013	91.876169977764	0.125
7873	85402	92.183658986355	0.75
7873	85423	92.186727793212	0.75
7873	85700	92.386837793212	0.75
7873	86138	92.786837793212	0.66666665673256
7873	87140	93.493938452071	0.33333331346512
7873	87429	93.702377716135	0.875
7873	87652	93.906136725416	0.875
7873	87873	94.115452513379	0.875
7873	88078	94.318707917938	0.875
7873	88662	94.821867699488	0.375
7873	89417	95.421867699488	0.375
7873	89992	95.901956316116	0.5
7873	90499	96.302066316116	0.5
7873	90911	96.613930064451	0.75
7873	91365	97.013930064451	0.625
7873	92499	98.021885116165	-0.25
7873	92552	98.038462100464	0
7873	93703	99.04121347215	-0.375
7873	94953	99.93408735556	0.5
7873	95210	100.13408735556	0.875
7873	95846	100.641016359086	0.5
7873	96606	101.346422944263	0.125
7873	97049	101.755630412998	0.625
7873	97214	101.848368722037	0.875
7873	97233	101.855270217319	1
7873	98374	102.699270664084	0.75
7873	98617	102.899270664084	0.875
7873	99539	103.699510369506	0.125
7873	100067	104.20851209387	0.375
7873	100564	104.60851209387	0.625
7873	101223	105.131563262565	0.5
7873	101288	105.210460014681	0.25
7873	101491	105.359180597915	0.5
7873	101602	105.435848716589	0.625
7873	101877	105.636633907904	0.875
7873	101971	105.735619428698	0.125
7873	102876	106.538093462715	0
7873	103562	107.138093462715	0.375
7873	104094	107.540550616645	0.5
7873	104632	107.943390921186	0.625
7873	104654	107.945799669065	-0.125
7873	104673	107.948665736427	0.625
7873	105189	108.347829726039	0.625
7873	105445	108.548898899285	0.375
7873	105450	108.549475313401	0.375
7873	106195	109.251966326311	0.125
7873	106577	109.551966326311	0.75
7873	107168	110.15371511172	0.375
7873	107829	110.759106303934	0.375
7873	108491	111.359106303934	0.375
7873	108717	111.565216045205	0.875
7873	109152	111.971510498011	0.625
7873	109686	112.478665306737	0.5
7873	109983	112.773105497722	0.125
7873	110451	113.181093410075	0.5
7873	111087	113.688231336281	0.625
7873	111257	113.781093410075	0.125
7873	111874	114.188143210452	0.375
7873	112326	114.588143210452	0.625
7873	112556	114.798907274916	0.875
7873	113136	115.305475587959	0.375
7873	113578	115.705475587959	0.5
7873	114726	116.813200381193	-0.375
7873	115155	117.216628820888	0.625
7873	115244	117.304598461013	0.75
7873	115269	117.313585006134	0.5
7873	115708	117.715299854081	0.625
7873	115805	117.807005547739	0.5
7873	115848	117.823911376615	0.375
7873	116286	118.224772731737	0.5
7873	116979	118.824772731737	0.375
7873	117186	119.033843745399	0.875
7873	117425	119.238783987037	0.75
7873	117706	119.538783987037	0.75
7873	118303	120.039810417518	0.5
7873	118333	120.048144389316	0.5
7873	118576	120.249278483526	0.75
7873	119176	120.749278483526	0.5
7873	119498	121.053055753633	0.75
7873	119934	121.46183722163	0.625
7873	119961	121.466608972114	0.625
7873	120359	121.77037945306	0.625
7873	120369	121.771817256626	0.625
7873	120614	121.976888784187	0.875
7873	120625	121.981740949476	0.875
7873	120673	122.05900420473	0.875
7873	120697	122.06610623329	0.875
7873	120859	122.190986940353	0.875
7873	120930	122.265297114568	0.125
7873	121958	123.173541678745	-0.125
7873	122898	124.079477960363	-0.125
7873	123243	124.382208514884	0.75
7873	123542	124.626940298978	0.5
7873	124078	125.028645435335	0.5
7873	124763	125.628645435335	0.375
7873	125117	125.930393126577	0.625
7873	125791	126.435517426228	0.5
7873	126011	126.623603689972	-0.125
7873	126191	126.743944464653	0.625
7873	126880	127.344054464653	0.125
7873	128460	128.644054464653	-0.75
7873	128819	128.892524366974	0.875
7873	129156	129.157548434716	0.375
7873	129488	129.508596457549	0.375
7873	129762	129.759162392108	0.375
7873	130026	129.96661278953	0.875
7873	130091	130.013853025972	0.375
7873	130097	130.015596623171	0.75
7873	130618	130.416444198289	0.375
7873	131297	130.916444198289	0.5
7873	131570	131.12452631806	0.875
7873	131964	131.396710746991	0.625
7873	131995	131.42924897642	0.625
7873	132521	131.809379428142	0.5
7873	132889	132.105648822947	0.375
7873	132895	132.116288762985	0.375
7873	132905	132.119623197138	0.625
7873	132952	132.135593596958	0.25
7873	132989	132.157724126428	0.25
7873	134941	133.659134023078	-1
7873	135741	134.459134023078	0.125
7873	135989	134.767648858034	0.75
7873	136123	134.970619019187	0.875
7874	132	20.10001	0.1
7874	463	20.60001	0.5
7874	1066	21.310422634078	0.6
7874	1451	21.612286155669	0.7
7874	1464	21.614882437981	0.3
7874	1704	21.814992437981	0.2
7874	2469	22.414992437981	0.6
7874	2826	22.739657456468	0.3
7874	3546	23.468259904909	0.7
7874	4044	23.879505197091	0.4
7874	4582	24.286996415341	0.4
7874	4939	24.586996415341	0.3
7874	5284	24.794701463462	0.2
7874	5571	25.033518111818	0.4
7874	5849	25.233690430375	0.2
7874	5932	25.256603030847	0.2
7874	6568	25.757545937787	0.5
7874	6853	25.957545937787	0.2
7874	7414	26.381746045191	0.4
7874	7999	26.851060420931	0.3
7874	8610	27.356485940063	0.5
7874	8761	27.45830880086	0.4
7874	8960	27.565210839985	0.2
7874	9183	27.755571865399	0.2
7874	9206	27.762427607176	0.3
7874	9307	27.80737441885	1.4
7874	9350	27.866445953119	0.3
7874	9764	28.167242056268	0.3
7874	10165	28.477723385579	0.3
7874	10596	28.78193161269	0.3
7874	11696	29.589384774336	0.8
7874	12791	30.489384774336	0.9
7874	14025	31.476472712109	0.7
7874	14061	31.493627086031	1
7874	14302	31.683515403937	0.2
7874	14427	31.803150533736	0.3
7874	14620	32.004502561423	0.2
7874	14654	32.008850095873	0.2
7874	14676	32.011468036766	0
7874	15018	32.324434730414	0.3
7874	15170	32.489908544151	0.2
7874	15294	32.590018544151	0.1
7874	15585	32.890018544151	0.3
7874	16286	33.497779181998	0.6
7874	16954	34.11616512685	0.6
7874	17496	34.554222925942	0.3
7874	18941	35.662108970823	1.1
7874	18945	35.662869749598	1.1
7874	19180	35.865308181334	0.2
7874	19187	35.871635214621	0.2
7874	19770	36.398509222306	0.6
7874	20328	36.8733516738	1
7874	20330	36.874322704533	1
7874	21009	37.476512097762	0.6
7874	21306	37.776512097762	0.3
7874	21816	38.193672198761	0.4
7874	22040	38.393873663885	0.2
7874	22507	38.693983663885	0.3
7874	22852	38.993983663885	0.3
7874	23200	39.294457615121	0.3
7874	23686	39.703599857153	0.4
7874	24227	40.108297676826	0.4
7874	24306	40.187264252654	0.3
7874	25517	41.194466662842	1
7874	25725	41.394466662842	0.2
7874	26197	41.897661866182	0.5
7874	26766	42.400024353458	0.5
7874	27211	42.77382903145	0.5
7874	27257	42.806300555648	0.4
7874	29020	44.210227286475	1.4
7874	29774	44.813165755036	0.6
7874	30018	45.016804757054	0.2
7874	30284	45.225973001296	0.2
7874	30652	45.53432263732	0.3
7874	31093	45.93702557168	0.4
7874	31331	46.146205948763	0.3
7874	31552	46.342876552278	0.4
7874	31782	46.55500549425	0.4
7874	31996	46.764669765936	0.2
7874	32944	47.59981002031	0.3
7874	33132	47.764669765936	1
7874	33149	47.765495706025	0
7874	33409	47.971353855376	0.2
7874	34705	49.146782466703	0.7
7874	34933	49.446782466703	0.3
7874	35355	49.852104410348	0.4
7874	35679	50.155797890476	0.3
7874	36534	50.95832509753	0.8
7874	37180	51.463735172158	0.5
7874	37501	51.695701764603	0.4
7874	37793	51.89764694744	0.2
7874	38599	52.49764694744	0.6
7874	38749	52.603794514678	0.1
7874	39011	52.803904514678	0.2
7874	39369	53.103904514678	0.3
7874	39473	53.204014514678	0.1
7874	40030	53.604014514678	0.4
7874	40355	53.843202263031	0.2
7874	40603	54.047989048329	0.2
7874	41577	54.953445491856	0.9
7874	41976	55.253445491856	0.3
7874	42703	55.856321332999	0.6
7874	43087	56.160351871598	0.3
7874	43181	56.222292140382	0.3
7874	43454	56.424503237793	0.2
7874	44209	57.036118120042	0.6
7874	44258	57.068646030485	0.9
7874	45105	57.773137295356	0.7
7874	45553	58.173137295356	0.4
7874	45976	58.4752647309	0.3
7874	47245	59.782852460464	1.3
7874	48253	60.582852460464	0.8
7874	48955	61.086842931345	0.5
7874	49601	61.687651486218	0.6
7874	49905	61.894209497199	0.2
7874	50996	62.794209497199	0.9
7874	51663	63.439156680305	0.5
7874	51711	63.507766753756	0.7
7874	51868	63.610795905292	0.1
7874	52069	63.810795905292	0.2
7874	52328	64.014042032572	0.2
7874	52724	64.323585668581	0.4
7874	53448	64.930504766987	0.6
7874	53946	65.430504766987	0.5
7874	54076	65.540385449115	0.1
7874	54458	65.940385449115	0.4
7874	54773	66.245862289816	0.3
7874	55598	66.954119766091	0.7
7874	56017	67.362738328496	0.4
7874	56285	67.571723533568	0.2