version 2
run Stability-norelink-27-20130525-23:16:03-22103
attr configname Stability-norelink
attr datetime 20130525-23:16:03
attr experiment Stability
attr inifile omnetpp.ini
attr iterationvars $0=1e4
attr iterationvars2 "$0=1e4, $repetition=7"
attr measurement $0=1e4
attr network Network
attr processid 22103
attr repetition 7
attr replication #7
attr resultdir results
attr runnumber 27
attr seedset 27

vector 2592  Network.dyn_peer[0]  lookupHopsSig:vector  ETV
vector 2593  Network.dyn_peer[0]  lookupStabilitySig:vector  ETV
vector 2594  Network.dyn_peer[0]  lookupTimeSig:vector  ETV
vector 2595  Network.dyn_peer[1]  lookupHopsSig:vector  ETV
vector 2596  Network.dyn_peer[1]  lookupStabilitySig:vector  ETV
vector 2597  Network.dyn_peer[1]  lookupTimeSig:vector  ETV
vector 2598  Network.dyn_peer[2]  lookupHopsSig:vector  ETV
vector 2599  Network.dyn_peer[2]  lookupStabilitySig:vector  ETV
vector 2600  Network.dyn_peer[2]  lookupTimeSig:vector  ETV
vector 2601  Network.dyn_peer[3]  lookupHopsSig:vector  ETV
vector 2602  Network.dyn_peer[3]  lookupStabilitySig:vector  ETV
vector 2603  Network.dyn_peer[3]  lookupTimeSig:vector  ETV
vector 2604  Network.dyn_peer[4]  lookupHopsSig:vector  ETV
vector 2605  Network.dyn_peer[4]  lookupStabilitySig:vector  ETV
vector 2606  Network.dyn_peer[4]  lookupTimeSig:vector  ETV
vector 2607  Network.dyn_peer[5]  lookupHopsSig:vector  ETV
vector 2608  Network.dyn_peer[5]  lookupStabilitySig:vector  ETV
vector 2609  Network.dyn_peer[5]  lookupTimeSig:vector  ETV
vector 2610  Network.dyn_peer[6]  lookupHopsSig:vector  ETV
vector 2611  Network.dyn_peer[6]  lookupStabilitySig:vector  ETV
vector 2612  Network.dyn_peer[6]  lookupTimeSig:vector  ETV
vector 2613  Network.dyn_peer[7]  lookupHopsSig:vector  ETV
vector 2614  Network.dyn_peer[7]  lookupStabilitySig:vector  ETV
vector 2615  Network.dyn_peer[7]  lookupTimeSig:vector  ETV
vector 2616  Network.dyn_peer[8]  lookupHopsSig:vector  ETV
vector 2617  Network.dyn_peer[8]  lookupStabilitySig:vector  ETV
vector 2618  Network.dyn_peer[8]  lookupTimeSig:vector  ETV
vector 2619  Network.dyn_peer[9]  lookupHopsSig:vector  ETV
vector 2620  Network.dyn_peer[9]  lookupStabilitySig:vector  ETV
vector 2621  Network.dyn_peer[9]  lookupTimeSig:vector  ETV
vector 2622  Network.dyn_peer[10]  lookupHopsSig:vector  ETV
vector 2623  Network.dyn_peer[10]  lookupStabilitySig:vector  ETV
vector 2624  Network.dyn_peer[10]  lookupTimeSig:vector  ETV
vector 2625  Network.dyn_peer[11]  lookupHopsSig:vector  ETV
vector 2626  Network.dyn_peer[11]  lookupStabilitySig:vector  ETV
vector 2627  Network.dyn_peer[11]  lookupTimeSig:vector  ETV
vector 2628  Network.dyn_peer[12]  lookupHopsSig:vector  ETV
vector 2629  Network.dyn_peer[12]  lookupStabilitySig:vector  ETV
vector 2630  Network.dyn_peer[12]  lookupTimeSig:vector  ETV
vector 2631  Network.dyn_peer[13]  lookupHopsSig:vector  ETV
vector 2632  Network.dyn_peer[13]  lookupStabilitySig:vector  ETV
vector 2633  Network.dyn_peer[13]  lookupTimeSig:vector  ETV
vector 2634  Network.dyn_peer[14]  lookupHopsSig:vector  ETV
vector 2635  Network.dyn_peer[14]  lookupStabilitySig:vector  ETV
vector 2636  Network.dyn_peer[14]  lookupTimeSig:vector  ETV
vector 2637  Network.dyn_peer[15]  lookupHopsSig:vector  ETV
vector 2638  Network.dyn_peer[15]  lookupStabilitySig:vector  ETV
vector 2639  Network.dyn_peer[15]  lookupTimeSig:vector  ETV
vector 2640  Network.dyn_peer[16]  lookupHopsSig:vector  ETV
vector 2641  Network.dyn_peer[16]  lookupStabilitySig:vector  ETV
vector 2642  Network.dyn_peer[16]  lookupTimeSig:vector  ETV
vector 2643  Network.dyn_peer[17]  lookupHopsSig:vector  ETV
vector 2644  Network.dyn_peer[17]  lookupStabilitySig:vector  ETV
vector 2645  Network.dyn_peer[17]  lookupTimeSig:vector  ETV
vector 2646  Network.dyn_peer[18]  lookupHopsSig:vector  ETV
vector 2647  Network.dyn_peer[18]  lookupStabilitySig:vector  ETV
vector 2648  Network.dyn_peer[18]  lookupTimeSig:vector  ETV
vector 2649  Network.dyn_peer[19]  lookupHopsSig:vector  ETV
vector 2650  Network.dyn_peer[19]  lookupStabilitySig:vector  ETV
vector 2651  Network.dyn_peer[19]  lookupTimeSig:vector  ETV
vector 2652  Network.dyn_peer[20]  lookupHopsSig:vector  ETV
vector 2653  Network.dyn_peer[20]  lookupStabilitySig:vector  ETV
vector 2654  Network.dyn_peer[20]  lookupTimeSig:vector  ETV
vector 2655  Network.dyn_peer[21]  lookupHopsSig:vector  ETV
vector 2656  Network.dyn_peer[21]  lookupStabilitySig:vector  ETV
vector 2657  Network.dyn_peer[21]  lookupTimeSig:vector  ETV
vector 2658  Network.dyn_peer[22]  lookupHopsSig:vector  ETV
vector 2659  Network.dyn_peer[22]  lookupStabilitySig:vector  ETV
vector 2660  Network.dyn_peer[22]  lookupTimeSig:vector  ETV
vector 2661  Network.dyn_peer[23]  lookupHopsSig:vector  ETV
vector 2662  Network.dyn_peer[23]  lookupStabilitySig:vector  ETV
vector 2663  Network.dyn_peer[23]  lookupTimeSig:vector  ETV
vector 2664  Network.dyn_peer[24]  lookupHopsSig:vector  ETV
vector 2665  Network.dyn_peer[24]  lookupStabilitySig:vector  ETV
vector 2666  Network.dyn_peer[24]  lookupTimeSig:vector  ETV
vector 2667  Network.dyn_peer[25]  lookupHopsSig:vector  ETV
vector 2668  Network.dyn_peer[25]  lookupStabilitySig:vector  ETV
vector 2669  Network.dyn_peer[25]  lookupTimeSig:vector  ETV
vector 2670  Network.dyn_peer[26]  lookupHopsSig:vector  ETV
vector 2671  Network.dyn_peer[26]  lookupStabilitySig:vector  ETV
vector 2672  Network.dyn_peer[26]  lookupTimeSig:vector  ETV
vector 2673  Network.dyn_peer[27]  lookupHopsSig:vector  ETV
vector 2674  Network.dyn_peer[27]  lookupStabilitySig:vector  ETV
vector 2675  Network.dyn_peer[27]  lookupTimeSig:vector  ETV
vector 2676  Network.dyn_peer[28]  lookupHopsSig:vector  ETV
vector 2677  Network.dyn_peer[28]  lookupStabilitySig:vector  ETV
vector 2678  Network.dyn_peer[28]  lookupTimeSig:vector  ETV
vector 2679  Network.dyn_peer[29]  lookupHopsSig:vector  ETV
vector 2680  Network.dyn_peer[29]  lookupStabilitySig:vector  ETV
vector 2681  Network.dyn_peer[29]  lookupTimeSig:vector  ETV
vector 2682  Network.dyn_peer[30]  lookupHopsSig:vector  ETV
vector 2683  Network.dyn_peer[30]  lookupStabilitySig:vector  ETV
vector 2684  Network.dyn_peer[30]  lookupTimeSig:vector  ETV
vector 2685  Network.dyn_peer[31]  lookupHopsSig:vector  ETV
vector 2686  Network.dyn_peer[31]  lookupStabilitySig:vector  ETV
vector 2687  Network.dyn_peer[31]  lookupTimeSig:vector  ETV
2592	33	30.2	2
2592	37	30.5	2
2592	41	30.704152636453	1
2592	49	30.923006180008	1
2592	1047	350.3	3
2592	1051	350.6	2
2592	1057	350.815636394922	1
2592	1063	351.132188321469	2
2592	2071	670.2	2
2592	2076	670.505560254238	2
2592	2080	670.714127099011	1
2592	2085	671.022751113481	2
2592	3147	990.1	1
2592	3150	990.3	1
2592	3155	990.50365914066	1
2592	3159	990.710329274748	1
2592	4230	1310.1	1
2592	4234	1310.4	2
2592	4239	1310.708297925367	2
2592	4248	1310.939146800868	1
2592	5298	1630	0
2592	5301	1630.2	1
2592	5306	1630.505328605754	2
2592	5310	1630.706379059147	1
2592	6326	1950.2	2
2592	6330	1950.5	2
2592	6335	1950.806706823513	2
2592	6340	1951.021402770417	1
2592	7393	2270.1	1
2592	7397	2270.306445940276	1
2592	7402	2270.518105253094	1
2592	7406	2270.722793906597	1
2592	8439	2590	0
2592	8442	2590.2	1
2592	8447	2590.503154697834	2
2592	8453	2590.721654009616	1
2592	9492	2910.2	2
2592	9497	2910.502560847958	2
2592	9502	2910.80406892382	2
2592	9507	2911.014775898804	1
2592	10543	3230.1	1
2592	10547	3230.4	2
2592	10552	3230.701060321291	2
2592	10562	3230.931970073667	1
2592	11594	3550.1	1
2592	11601	3550.316016580624	1
2592	11607	3550.625700808377	2
2592	11616	3550.854294030084	1
2592	12652	3870	0
2592	12656	3870.3	2
2592	12660	3870.508594089669	1
2592	12664	3870.714962524864	1
2592	13674	4190.2	2
2592	13678	4190.5	2
2592	13683	4190.805955709002	2
2592	13688	4191.11138229303	2
2592	14710	4510.3	3
2592	14713	4510.5	1
2592	14717	4510.709083917322	1
2592	14723	4511.015797016792	2
2592	15762	4830.1	1
2592	15766	4830.30640599868	1
2592	15771	4830.610595915079	2
2592	15776	4830.818461621835	1
2592	16771	5150.2	2
2592	16775	5150.407684249719	1
2592	16779	5150.616491562837	1
2592	16783	5150.823905667952	1
2592	17800	5470.1	1
2592	17804	5470.30015566894	1
2592	17808	5470.501038311632	1
2592	17816	5470.730286901049	1
2592	18879	5790.1	1
2592	18883	5790.4	2
2592	18888	5790.705291165176	2
2592	18893	5791.015171861694	2
2592	19938	6110.1	1
2592	19942	6110.4	2
2592	19946	6110.608891836756	1
2592	19951	6110.816789499574	1
2592	20962	6430.1	1
2592	20966	6430.307778331516	1
2592	20970	6430.51319095466	1
2592	20977	6430.825971370545	2
2592	22024	6750.2	2
2592	22027	6750.4	1
2592	22032	6750.607987733466	1
2592	22036	6750.815340616068	1
2592	23044	7070.3	3
2592	23047	7070.5	1
2592	23053	7070.708658652104	1
2592	23057	7070.909677594763	1
2592	24080	7390	0
2592	24083	7390.2	1
2592	24088	7390.409577753795	1
2592	24092	7390.615792741048	1
2592	25102	7710.3	3
2592	25106	7710.6	2
2592	25112	7710.813379996275	1
2592	25117	7711.027391008634	1
2592	26154	8030	0
2592	26158	8030.3	2
2592	26162	8030.509964516395	1
2592	26169	8030.827497665163	2
2592	27142	8350.2	2
2592	27146	8350.5	2
2592	27151	8350.803733314576	2
2592	27155	8351.005933851597	1
2592	28179	8670.1	1
2592	28184	8670.405007902663	2
2592	28188	8670.614833705029	1
2592	28207	8670.887197946269	1
2592	29250	8990.2	2
2592	29254	8990.5	2
2592	29259	8990.709707227178	1
2592	29264	8990.923723286206	1
2592	30309	9310.1	1
2592	30314	9310.403574812533	2
2592	30319	9310.710276646657	2
2592	30323	9310.917802353576	1
2592	31352	9630.3	3
2592	31355	9630.5	1
2592	31362	9630.722153888655	1
2592	31368	9630.937475034084	1
2592	32405	9950.2	2
2592	32410	9950.504062964098	2
2592	32417	9950.726845164217	1
2592	32425	9951.053506137671	2
2592	33455	10270.3	3
2592	33460	10270.609928636241	2
2592	33464	10270.817713720348	1
2592	33468	10271.024688047786	1
2592	34513	10590.1	1
2592	34518	10590.408722320857	2
2592	34522	10590.618379184674	1
2592	34526	10590.821765674679	1
2592	35556	10910.1	1
2592	35560	10910.4	2
2592	35565	10910.704417236673	2
2592	35576	10910.94936593789	1
2592	36600	11230.2	2
2592	36608	11230.423511872984	1
2592	36612	11230.630072219554	1
2592	36617	11230.933887857392	2
2592	37646	11550.2	2
2592	37649	11550.4	1
2592	37654	11550.707724999724	2
2592	37659	11550.92652519977	1
2592	38697	11870.2	2
2592	38700	11870.4	1
2592	38704	11870.605542684802	1
2592	38710	11870.917689858217	2
2592	39749	12190	0
2592	39753	12190.3	2
2592	39757	12190.500530186712	1
2592	39762	12190.707771453491	1
2592	40797	12510.1	1
2592	40800	12510.3	1
2592	40805	12510.514829966562	1
2592	40809	12510.718039749943	1
2592	41835	12830.2	2
2592	41838	12830.4	1
2592	41842	12830.60363144617	1
2592	41847	12830.911803800775	2
2592	42842	13150.1	1
2592	42846	13150.4	2
2592	42851	13150.707476618285	2
2592	42861	13151.055920413005	2
2592	43908	13470.2	2
2592	43912	13470.405061781101	1
2592	43918	13470.711300400541	2
2592	43925	13471.02528692506	2
2592	44961	13790.1	1
2592	44966	13790.403121806296	2
2592	44972	13790.625553813626	1
2592	44985	13790.981103304005	2
2592	46015	14110.2	2
2592	46019	14110.5	2
2592	46025	14110.812448835472	2
2592	46031	14111.016961791182	1
2592	47073	14430.3	3
2592	47076	14430.5	1
2592	47083	14430.724468635673	1
2592	47093	14430.965202748298	1
2592	48116	14750.1	1
2592	48119	14750.3	1
2592	48123	14750.505393885045	1
2592	48128	14750.709766096956	1
2592	49160	15070.1	1
2592	49164	15070.4	2
2592	49168	15070.604123530993	1
2592	49173	15070.822545103095	1
2592	50247	15390.1	1
2592	50252	15390.313235828824	1
2592	50258	15390.537251713918	1
2592	50265	15390.850598698936	2
2592	51324	15710.1	1
2592	51327	15710.3	1
2592	51332	15710.609929276041	2
2592	51337	15710.826484477144	1
2592	52354	16030.1	1
2592	52359	16030.305488325957	1
2592	52365	16030.52574280387	1
2592	52369	16030.732282703611	1
2592	53388	16350.1	1
2592	53391	16350.3	1
2592	53397	16350.60780077798	2
2592	53402	16350.822312531735	1
2592	54452	16670.1	1
2592	54456	16670.4	2
2592	54460	16670.603419364418	1
2592	54465	16670.810430040132	1
2592	55488	16990.1	1
2592	55491	16990.3	1
2592	55495	16990.501780215909	1
2592	55499	16990.704053885438	1
2592	56566	17310.3	3
2592	56571	17310.609517134532	2
2592	56577	17310.918129409196	2
2592	56582	17311.12392837597	1
2592	57620	17630.2	2
2592	57624	17630.5	2
2592	57628	17630.708541616266	1
2592	57632	17630.914250392056	1
2592	58651	17950.1	1
2592	58654	17950.3	1
2592	58660	17950.611724846737	2
2592	58677	17950.990999570605	2
2592	59686	18270.1	1
2592	59690	18270.4	2
2592	59694	18270.608421495889	1
2592	59700	18270.924566726899	2
2592	60701	18590.1	1
2592	60705	18590.4	2
2592	60713	18590.717730317202	2
2592	60718	18590.928364443445	1
2592	61716	18910.1	1
2592	61721	18910.409952013415	2
2592	61727	18910.721886221746	2
2592	61731	18910.931335808784	1
2592	62760	19230.1	1
2592	62764	19230.300921596407	1
2592	62769	19230.603473041108	2
2592	62773	19230.805348596872	1
2592	63769	19550.2	2
2592	63773	19550.5	2
2592	63778	19550.808813021166	2
2592	63782	19551.01668044398	1
2592	64790	19870.1	1
2592	64793	19870.3	1
2592	64797	19870.509723402203	1
2592	64805	19870.735180709317	1
2592	65804	20190.2	2
2592	65807	20190.4	1
2592	65813	20190.706697407374	2
2592	65834	20190.997492181712	1
2593	33	30.2	0.75
2593	37	30.5	0.75
2593	41	30.704152636453	0.875
2593	49	30.923006180008	0.875
2593	1047	350.3	0.625
2593	1051	350.6	0.75
2593	1057	350.815636394922	0.875
2593	1063	351.132188321469	0.75
2593	2071	670.2	0.75
2593	2076	670.505560254238	0.75
2593	2080	670.714127099011	0.875
2593	2085	671.022751113481	0.75
2593	3147	990.1	0.875
2593	3150	990.3	0.875
2593	3155	990.50365914066	0.875
2593	3159	990.710329274748	0.875
2593	4230	1310.1	0.875
2593	4234	1310.4	0.75
2593	4239	1310.708297925367	0.75
2593	4248	1310.939146800868	0.875
2593	5298	1630	1
2593	5301	1630.2	0.875
2593	5306	1630.505328605754	0.75
2593	5310	1630.706379059147	0.875
2593	6326	1950.2	0.75
2593	6330	1950.5	0.75
2593	6335	1950.806706823513	0.75
2593	6340	1951.021402770417	0.875
2593	7393	2270.1	0.875
2593	7397	2270.306445940276	0.875
2593	7402	2270.518105253094	0.875
2593	7406	2270.722793906597	0.875
2593	8439	2590	1
2593	8442	2590.2	0.875
2593	8447	2590.503154697834	0.75
2593	8453	2590.721654009616	0.875
2593	9492	2910.2	0.75
2593	9497	2910.502560847958	0.75
2593	9502	2910.80406892382	0.75
2593	9507	2911.014775898804	0.875
2593	10543	3230.1	0.875
2593	10547	3230.4	0.75
2593	10552	3230.701060321291	0.75
2593	10562	3230.931970073667	0.875
2593	11594	3550.1	0.875
2593	11601	3550.316016580624	0.875
2593	11607	3550.625700808377	0.75
2593	11616	3550.854294030084	0.875
2593	12652	3870	1
2593	12656	3870.3	0.75
2593	12660	3870.508594089669	0.875
2593	12664	3870.714962524864	0.875
2593	13674	4190.2	0.75
2593	13678	4190.5	0.75
2593	13683	4190.805955709002	0.75
2593	13688	4191.11138229303	0.75
2593	14710	4510.3	0.625
2593	14713	4510.5	0.875
2593	14717	4510.709083917322	0.875
2593	14723	4511.015797016792	0.75
2593	15762	4830.1	0.875
2593	15766	4830.30640599868	0.875
2593	15771	4830.610595915079	0.75
2593	15776	4830.818461621835	0.875
2593	16771	5150.2	0.75
2593	16775	5150.407684249719	0.875
2593	16779	5150.616491562837	0.875
2593	16783	5150.823905667952	0.875
2593	17800	5470.1	0.875
2593	17804	5470.30015566894	0.875
2593	17808	5470.501038311632	0.875
2593	17816	5470.730286901049	0.875
2593	18879	5790.1	0.875
2593	18883	5790.4	0.75
2593	18888	5790.705291165176	0.75
2593	18893	5791.015171861694	0.75
2593	19938	6110.1	0.875
2593	19942	6110.4	0.75
2593	19946	6110.608891836756	0.875
2593	19951	6110.816789499574	0.875
2593	20962	6430.1	0.875
2593	20966	6430.307778331516	0.875
2593	20970	6430.51319095466	0.875
2593	20977	6430.825971370545	0.75
2593	22024	6750.2	0.75
2593	22027	6750.4	0.875
2593	22032	6750.607987733466	0.875
2593	22036	6750.815340616068	0.875
2593	23044	7070.3	0.625
2593	23047	7070.5	0.875
2593	23053	7070.708658652104	0.875
2593	23057	7070.909677594763	0.875
2593	24080	7390	1
2593	24083	7390.2	0.875
2593	24088	7390.409577753795	0.875
2593	24092	7390.615792741048	0.875
2593	25102	7710.3	0.625
2593	25106	7710.6	0.75
2593	25112	7710.813379996275	0.875
2593	25117	7711.027391008634	0.875
2593	26154	8030	1
2593	26158	8030.3	0.75
2593	26162	8030.509964516395	0.875
2593	26169	8030.827497665163	0.75
2593	27142	8350.2	0.75
2593	27146	8350.5	0.75
2593	27151	8350.803733314576	0.75
2593	27155	8351.005933851597	0.875
2593	28179	8670.1	0.875
2593	28184	8670.405007902663	0.75
2593	28188	8670.614833705029	0.875
2593	28207	8670.887197946269	0.875
2593	29250	8990.2	0.75
2593	29254	8990.5	0.75
2593	29259	8990.709707227178	0.875
2593	29264	8990.923723286206	0.875
2593	30309	9310.1	0.875
2593	30314	9310.403574812533	0.75
2593	30319	9310.710276646657	0.75
2593	30323	9310.917802353576	0.875
2593	31352	9630.3	0.625
2593	31355	9630.5	0.875
2593	31362	9630.722153888655	0.875
2593	31368	9630.937475034084	0.875
2593	32405	9950.2	0.75
2593	32410	9950.504062964098	0.75
2593	32417	9950.726845164217	0.875
2593	32425	9951.053506137671	0.75
2593	33455	10270.3	0.625
2593	33460	10270.609928636241	0.75
2593	33464	10270.817713720348	0.875
2593	33468	10271.024688047786	0.875
2593	34513	10590.1	0.875
2593	34518	10590.408722320857	0.75
2593	34522	10590.618379184674	0.875
2593	34526	10590.821765674679	0.875
2593	35556	10910.1	0.875
2593	35560	10910.4	0.75
2593	35565	10910.704417236673	0.75
2593	35576	10910.94936593789	0.875
2593	36600	11230.2	0.75
2593	36608	11230.423511872984	0.875
2593	36612	11230.630072219554	0.875
2593	36617	11230.933887857392	0.75
2593	37646	11550.2	0.75
2593	37649	11550.4	0.875
2593	37654	11550.707724999724	0.75
2593	37659	11550.92652519977	0.875
2593	38697	11870.2	0.75
2593	38700	11870.4	0.875
2593	38704	11870.605542684802	0.875
2593	38710	11870.917689858217	0.75
2593	39749	12190	1
2593	39753	12190.3	0.75
2593	39757	12190.500530186712	0.875
2593	39762	12190.707771453491	0.875
2593	40797	12510.1	0.875
2593	40800	12510.3	0.875
2593	40805	12510.514829966562	0.875
2593	40809	12510.718039749943	0.875
2593	41835	12830.2	0.75
2593	41838	12830.4	0.875
2593	41842	12830.60363144617	0.875
2593	41847	12830.911803800775	0.75
2593	42842	13150.1	0.875
2593	42846	13150.4	0.75
2593	42851	13150.707476618285	0.75
2593	42861	13151.055920413005	0.75
2593	43908	13470.2	0.75
2593	43912	13470.405061781101	0.875
2593	43918	13470.711300400541	0.75
2593	43925	13471.02528692506	0.75
2593	44961	13790.1	0.875
2593	44966	13790.403121806296	0.75
2593	44972	13790.625553813626	0.875
2593	44985	13790.981103304005	0.75
2593	46015	14110.2	0.75
2593	46019	14110.5	0.75
2593	46025	14110.812448835472	0.75
2593	46031	14111.016961791182	0.875
2593	47073	14430.3	0.625
2593	47076	14430.5	0.875
2593	47083	14430.724468635673	0.875
2593	47093	14430.965202748298	0.875
2593	48116	14750.1	0.875
2593	48119	14750.3	0.875
2593	48123	14750.505393885045	0.875
2593	48128	14750.709766096956	0.875
2593	49160	15070.1	0.875
2593	49164	15070.4	0.75
2593	49168	15070.604123530993	0.875
2593	49173	15070.822545103095	0.875
2593	50247	15390.1	0.875
2593	50252	15390.313235828824	0.875
2593	50258	15390.537251713918	0.875
2593	50265	15390.850598698936	0.75
2593	51324	15710.1	0.875
2593	51327	15710.3	0.875
2593	51332	15710.609929276041	0.75
2593	51337	15710.826484477144	0.875
2593	52354	16030.1	0.875
2593	52359	16030.305488325957	0.875
2593	52365	16030.52574280387	0.875
2593	52369	16030.732282703611	0.875
2593	53388	16350.1	0.875
2593	53391	16350.3	0.875
2593	53397	16350.60780077798	0.75
2593	53402	16350.822312531735	0.875
2593	54452	16670.1	0.875
2593	54456	16670.4	0.75
2593	54460	16670.603419364418	0.875
2593	54465	16670.810430040132	0.875
2593	55488	16990.1	0.875
2593	55491	16990.3	0.875
2593	55495	16990.501780215909	0.875
2593	55499	16990.704053885438	0.875
2593	56566	17310.3	0.625
2593	56571	17310.609517134532	0.75
2593	56577	17310.918129409196	0.75
2593	56582	17311.12392837597	0.875
2593	57620	17630.2	0.75
2593	57624	17630.5	0.75
2593	57628	17630.708541616266	0.875
2593	57632	17630.914250392056	0.875
2593	58651	17950.1	0.875
2593	58654	17950.3	0.875
2593	58660	17950.611724846737	0.75
2593	58677	17950.990999570605	0.75
2593	59686	18270.1	0.875
2593	59690	18270.4	0.75
2593	59694	18270.608421495889	0.875
2593	59700	18270.924566726899	0.75
2593	60701	18590.1	0.875
2593	60705	18590.4	0.75
2593	60713	18590.717730317202	0.75
2593	60718	18590.928364443445	0.875
2593	61716	18910.1	0.875
2593	61721	18910.409952013415	0.75
2593	61727	18910.721886221746	0.75
2593	61731	18910.931335808784	0.875
2593	62760	19230.1	0.875
2593	62764	19230.300921596407	0.875
2593	62769	19230.603473041108	0.75
2593	62773	19230.805348596872	0.875
2593	63769	19550.2	0.75
2593	63773	19550.5	0.75
2593	63778	19550.808813021166	0.75
2593	63782	19551.01668044398	0.875
2593	64790	19870.1	0.875
2593	64793	19870.3	0.875
2593	64797	19870.509723402203	0.875
2593	64805	19870.735180709317	0.875
2593	65804	20190.2	0.75
2593	65807	20190.4	0.875
2593	65813	20190.706697407374	0.75
2593	65834	20190.997492181712	0.875
2594	33	30.2	0.2
2594	37	30.5	0.3
2594	41	30.704152636453	0.2
2594	49	30.923006180008	0.2
2594	1047	350.3	0.3
2594	1051	350.6	0.3
2594	1057	350.815636394922	0.2
2594	1063	351.132188321469	0.3
2594	2071	670.2	0.2
2594	2076	670.505560254238	0.3
2594	2080	670.714127099011	0.2
2594	2085	671.022751113481	0.3
2594	3147	990.1	0.1
2594	3150	990.3	0.2
2594	3155	990.50365914066	0.2
2594	3159	990.710329274748	0.2
2594	4230	1310.1	0.1
2594	4234	1310.4	0.3
2594	4239	1310.708297925367	0.3
2594	4248	1310.939146800868	0.2
2594	5298	1630	0
2594	5301	1630.2	0.2
2594	5306	1630.505328605754	0.3
2594	5310	1630.706379059147	0.2
2594	6326	1950.2	0.2
2594	6330	1950.5	0.3
2594	6335	1950.806706823513	0.3
2594	6340	1951.021402770417	0.2
2594	7393	2270.1	0.1
2594	7397	2270.306445940276	0.2
2594	7402	2270.518105253094	0.2
2594	7406	2270.722793906597	0.2
2594	8439	2590	0
2594	8442	2590.2	0.2
2594	8447	2590.503154697834	0.3
2594	8453	2590.721654009616	0.2
2594	9492	2910.2	0.2
2594	9497	2910.502560847958	0.3
2594	9502	2910.80406892382	0.3
2594	9507	2911.014775898804	0.2
2594	10543	3230.1	0.1
2594	10547	3230.4	0.3
2594	10552	3230.701060321291	0.3
2594	10562	3230.931970073667	0.2
2594	11594	3550.1	0.1
2594	11601	3550.316016580624	0.2
2594	11607	3550.625700808377	0.3
2594	11616	3550.854294030084	0.2
2594	12652	3870	0
2594	12656	3870.3	0.3
2594	12660	3870.508594089669	0.2
2594	12664	3870.714962524864	0.2
2594	13674	4190.2	0.2
2594	13678	4190.5	0.3
2594	13683	4190.805955709002	0.3
2594	13688	4191.11138229303	0.3
2594	14710	4510.3	0.3
2594	14713	4510.5	0.2
2594	14717	4510.709083917322	0.2
2594	14723	4511.015797016792	0.3
2594	15762	4830.1	0.1
2594	15766	4830.30640599868	0.2
2594	15771	4830.610595915079	0.3
2594	15776	4830.818461621835	0.2
2594	16771	5150.2	0.2
2594	16775	5150.407684249719	0.2
2594	16779	5150.616491562837	0.2
2594	16783	5150.823905667952	0.2
2594	17800	5470.1	0.1
2594	17804	5470.30015566894	0.2
2594	17808	5470.501038311632	0.2
2594	17816	5470.730286901049	0.2
2594	18879	5790.1	0.1
2594	18883	5790.4	0.3
2594	18888	5790.705291165176	0.3
2594	18893	5791.015171861694	0.3
2594	19938	6110.1	0.1
2594	19942	6110.4	0.3
2594	19946	6110.608891836756	0.2
2594	19951	6110.816789499574	0.2
2594	20962	6430.1	0.1
2594	20966	6430.307778331516	0.2
2594	20970	6430.51319095466	0.2
2594	20977	6430.825971370545	0.3
2594	22024	6750.2	0.2
2594	22027	6750.4	0.2
2594	22032	6750.607987733466	0.2
2594	22036	6750.815340616068	0.2
2594	23044	7070.3	0.3
2594	23047	7070.5	0.2
2594	23053	7070.708658652104	0.2
2594	23057	7070.909677594763	0.2
2594	24080	7390	0
2594	24083	7390.2	0.2
2594	24088	7390.409577753795	0.2
2594	24092	7390.615792741048	0.2
2594	25102	7710.3	0.3
2594	25106	7710.6	0.3
2594	25112	7710.813379996275	0.2
2594	25117	7711.027391008634	0.2
2594	26154	8030	0
2594	26158	8030.3	0.3
2594	26162	8030.509964516395	0.2
2594	26169	8030.827497665163	0.3
2594	27142	8350.2	0.2
2594	27146	8350.5	0.3
2594	27151	8350.803733314576	0.3
2594	27155	8351.005933851597	0.2
2594	28179	8670.1	0.1
2594	28184	8670.405007902663	0.3
2594	28188	8670.614833705029	0.2
2594	28207	8670.887197946269	0.2
2594	29250	8990.2	0.2
2594	29254	8990.5	0.3
2594	29259	8990.709707227178	0.2
2594	29264	8990.923723286206	0.2
2594	30309	9310.1	0.1
2594	30314	9310.403574812533	0.3
2594	30319	9310.710276646657	0.3
2594	30323	9310.917802353576	0.2
2594	31352	9630.3	0.3
2594	31355	9630.5	0.2
2594	31362	9630.722153888655	0.2
2594	31368	9630.937475034084	0.2
2594	32405	9950.2	0.2
2594	32410	9950.504062964098	0.3
2594	32417	9950.726845164217	0.2
2594	32425	9951.053506137671	0.3
2594	33455	10270.3	0.3
2594	33460	10270.609928636241	0.3
2594	33464	10270.817713720348	0.2
2594	33468	10271.024688047786	0.2
2594	34513	10590.1	0.1
2594	34518	10590.408722320857	0.3
2594	34522	10590.618379184674	0.2
2594	34526	10590.821765674679	0.2
2594	35556	10910.1	0.1
2594	35560	10910.4	0.3
2594	35565	10910.704417236673	0.3
2594	35576	10910.94936593789	0.2
2594	36600	11230.2	0.2
2594	36608	11230.423511872984	0.2
2594	36612	11230.630072219554	0.2
2594	36617	11230.933887857392	0.3
2594	37646	11550.2	0.2
2594	37649	11550.4	0.2
2594	37654	11550.707724999724	0.3
2594	37659	11550.92652519977	0.2
2594	38697	11870.2	0.2
2594	38700	11870.4	0.2
2594	38704	11870.605542684802	0.2
2594	38710	11870.917689858217	0.3
2594	39749	12190	0
2594	39753	12190.3	0.3
2594	39757	12190.500530186712	0.2
2594	39762	12190.707771453491	0.2
2594	40797	12510.1	0.1
2594	40800	12510.3	0.2
2594	40805	12510.514829966562	0.2
2594	40809	12510.718039749943	0.2
2594	41835	12830.2	0.2
2594	41838	12830.4	0.2
2594	41842	12830.60363144617	0.2
2594	41847	12830.911803800775	0.3
2594	42842	13150.1	0.1
2594	42846	13150.4	0.3
2594	42851	13150.707476618285	0.3
2594	42861	13151.055920413005	0.3
2594	43908	13470.2	0.2
2594	43912	13470.405061781101	0.2
2594	43918	13470.711300400541	0.3
2594	43925	13471.02528692506	0.3
2594	44961	13790.1	0.1
2594	44966	13790.403121806296	0.3
2594	44972	13790.625553813626	0.2
2594	44985	13790.981103304005	0.3
2594	46015	14110.2	0.2
2594	46019	14110.5	0.3
2594	46025	14110.812448835472	0.3
2594	46031	14111.016961791182	0.2
2594	47073	14430.3	0.3
2594	47076	14430.5	0.2
2594	47083	14430.724468635673	0.2
2594	47093	14430.965202748298	0.2
2594	48116	14750.1	0.1
2594	48119	14750.3	0.2
2594	48123	14750.505393885045	0.2
2594	48128	14750.709766096956	0.2
2594	49160	15070.1	0.1
2594	49164	15070.4	0.3
2594	49168	15070.604123530993	0.2
2594	49173	15070.822545103095	0.2
2594	50247	15390.1	0.1
2594	50252	15390.313235828824	0.2
2594	50258	15390.537251713918	0.2
2594	50265	15390.850598698936	0.3
2594	51324	15710.1	0.1
2594	51327	15710.3	0.2
2594	51332	15710.609929276041	0.3
2594	51337	15710.826484477144	0.2
2594	52354	16030.1	0.1
2594	52359	16030.305488325957	0.2
2594	52365	16030.52574280387	0.2
2594	52369	16030.732282703611	0.2
2594	53388	16350.1	0.1
2594	53391	16350.3	0.2
2594	53397	16350.60780077798	0.3
2594	53402	16350.822312531735	0.2
2594	54452	16670.1	0.1
2594	54456	16670.4	0.3
2594	54460	16670.603419364418	0.2
2594	54465	16670.810430040132	0.2
2594	55488	16990.1	0.1
2594	55491	16990.3	0.2
2594	55495	16990.501780215909	0.2
2594	55499	16990.704053885438	0.2
2594	56566	17310.3	0.3
2594	56571	17310.609517134532	0.3
2594	56577	17310.918129409196	0.3
2594	56582	17311.12392837597	0.2
2594	57620	17630.2	0.2
2594	57624	17630.5	0.3
2594	57628	17630.708541616266	0.2
2594	57632	17630.914250392056	0.2
2594	58651	17950.1	0.1
2594	58654	17950.3	0.2
2594	58660	17950.611724846737	0.3
2594	58677	17950.990999570605	0.3
2594	59686	18270.1	0.1
2594	59690	18270.4	0.3
2594	59694	18270.608421495889	0.2
2594	59700	18270.924566726899	0.3
2594	60701	18590.1	0.1
2594	60705	18590.4	0.3
2594	60713	18590.717730317202	0.3
2594	60718	18590.928364443445	0.2
2594	61716	18910.1	0.1
2594	61721	18910.409952013415	0.3
2594	61727	18910.721886221746	0.3
2594	61731	18910.931335808784	0.2
2594	62760	19230.1	0.1
2594	62764	19230.300921596407	0.2
2594	62769	19230.603473041108	0.3
2594	62773	19230.805348596872	0.2
2594	63769	19550.2	0.2
2594	63773	19550.5	0.3
2594	63778	19550.808813021166	0.3
2594	63782	19551.01668044398	0.2
2594	64790	19870.1	0.1
2594	64793	19870.3	0.2
2594	64797	19870.509723402203	0.2
2594	64805	19870.735180709317	0.2
2594	65804	20190.2	0.2
2594	65807	20190.4	0.2
2594	65813	20190.706697407374	0.3
2594	65834	20190.997492181712	0.2
2595	65	40	0
2595	69	40.3	2
2595	73	40.508494349436	1
2595	77	40.716953365585	1
2595	1080	360.1	1
2595	1084	360.301132343402	1
2595	1089	360.605811883446	2
2595	1101	360.842567403713	1
2595	2103	680.2	2
2595	2108	680.409767073809	1
2595	2116	680.631330522296	1
2595	2120	680.836291266567	1
2595	3177	1000.2	2
2595	3180	1000.4	1
2595	3184	1000.604485723997	1
2595	3188	1000.806504373284	1
2595	4265	1320.1	1
2595	4269	1320.4	2
2595	4274	1320.707504425039	2
2595	4279	1320.918219421286	1
2595	5327	1640.1	1
2595	5330	1640.3	1
2595	5335	1640.605587023114	2
2595	5339	1640.806900724115	1
2595	6357	1960.1	1
2595	6361	1960.4	2
2595	6365	1960.607695044556	1
2595	6369	1960.811677179802	1
2595	7423	2280.1	1
2595	7427	2280.305592296388	1
2595	7432	2280.613930013532	2
2595	7442	2280.853520345877	1
2595	8469	2600	0
2595	8473	2600.20023912894	1
2595	8482	2600.518459274128	2
2595	8492	2600.754612567917	1
2595	9524	2920.1	1
2595	9528	2920.4	2
2595	9532	2920.608784372089	1
2595	9542	2920.941302709134	2
2595	10579	3240.1	1
2595	10584	3240.400746169057	2
2595	10591	3240.623323519656	1
2595	10595	3240.833089303395	1
2595	11634	3560.2	2
2595	11639	3560.505465974898	2
2595	11644	3560.718881901829	1
2595	11650	3561.031575845338	2
2595	12681	3880.1	1
2595	12684	3880.3	1
2595	12690	3880.609549223463	2
2595	12697	3880.828741300635	1
2595	13704	4200	0
2595	13709	4200.308117428848	2
2595	13715	4200.524224560112	1
2595	13720	4200.735041045353	1
2595	14741	4520.2	2
2595	14748	4520.430171433141	1
2595	14753	4520.737148070368	2
2595	14761	4520.965188322623	1
2595	15792	4840	0
2595	15796	4840.3	2
2595	15801	4840.600821143866	2
2595	15806	4840.816267475824	1
2595	16801	5160.2	2
2595	16804	5160.4	1
2595	16808	5160.609062061004	1
2595	16812	5160.810933007659	1
2595	17833	5480.1	1
2595	17836	5480.3	1
2595	17844	5480.623119389558	2