file 936515 1369516906                                          
version 2
run Stability-norelink-115-20130525-23:21:42-22103
attr configname Stability-norelink
attr datetime 20130525-23:21:42
attr experiment Stability
attr inifile omnetpp.ini
attr iterationvars $0=1e-5
attr iterationvars2 "$0=1e-5, $repetition=5"
attr measurement $0=1e-5
attr network Network
attr processid 22103
attr repetition 5
attr replication #5
attr resultdir results
attr runnumber 115
attr seedset 115

vector 11079  Network.dyn_peer[13]  lookupHopsSig:vector  ETV
vector 11080  Network.dyn_peer[13]  lookupStabilitySig:vector  ETV
vector 11081  Network.dyn_peer[13]  lookupTimeSig:vector  ETV
vector 11049  Network.dyn_peer[3]  lookupHopsSig:vector  ETV
vector 11050  Network.dyn_peer[3]  lookupStabilitySig:vector  ETV
vector 11051  Network.dyn_peer[3]  lookupTimeSig:vector  ETV
vector 11067  Network.dyn_peer[9]  lookupHopsSig:vector  ETV
vector 11068  Network.dyn_peer[9]  lookupStabilitySig:vector  ETV
vector 11069  Network.dyn_peer[9]  lookupTimeSig:vector  ETV
vector 11070  Network.dyn_peer[10]  lookupHopsSig:vector  ETV
vector 11071  Network.dyn_peer[10]  lookupStabilitySig:vector  ETV
vector 11072  Network.dyn_peer[10]  lookupTimeSig:vector  ETV
vector 11073  Network.dyn_peer[11]  lookupHopsSig:vector  ETV
vector 11074  Network.dyn_peer[11]  lookupStabilitySig:vector  ETV
vector 11075  Network.dyn_peer[11]  lookupTimeSig:vector  ETV
vector 11082  Network.dyn_peer[14]  lookupHopsSig:vector  ETV
vector 11083  Network.dyn_peer[14]  lookupStabilitySig:vector  ETV
vector 11084  Network.dyn_peer[14]  lookupTimeSig:vector  ETV
vector 11088  Network.dyn_peer[16]  lookupHopsSig:vector  ETV
vector 11089  Network.dyn_peer[16]  lookupStabilitySig:vector  ETV
vector 11090  Network.dyn_peer[16]  lookupTimeSig:vector  ETV
vector 11091  Network.dyn_peer[17]  lookupHopsSig:vector  ETV
vector 11092  Network.dyn_peer[17]  lookupStabilitySig:vector  ETV
vector 11093  Network.dyn_peer[17]  lookupTimeSig:vector  ETV
vector 11094  Network.dyn_peer[18]  lookupHopsSig:vector  ETV
vector 11095  Network.dyn_peer[18]  lookupStabilitySig:vector  ETV
vector 11096  Network.dyn_peer[18]  lookupTimeSig:vector  ETV
vector 11097  Network.dyn_peer[19]  lookupHopsSig:vector  ETV
vector 11098  Network.dyn_peer[19]  lookupStabilitySig:vector  ETV
vector 11099  Network.dyn_peer[19]  lookupTimeSig:vector  ETV
vector 11103  Network.dyn_peer[21]  lookupHopsSig:vector  ETV
vector 11104  Network.dyn_peer[21]  lookupStabilitySig:vector  ETV
vector 11105  Network.dyn_peer[21]  lookupTimeSig:vector  ETV
vector 11052  Network.dyn_peer[4]  lookupHopsSig:vector  ETV
vector 11053  Network.dyn_peer[4]  lookupStabilitySig:vector  ETV
vector 11054  Network.dyn_peer[4]  lookupTimeSig:vector  ETV
vector 11058  Network.dyn_peer[6]  lookupHopsSig:vector  ETV
vector 11059  Network.dyn_peer[6]  lookupStabilitySig:vector  ETV
vector 11060  Network.dyn_peer[6]  lookupTimeSig:vector  ETV
vector 11064  Network.dyn_peer[8]  lookupHopsSig:vector  ETV
vector 11065  Network.dyn_peer[8]  lookupStabilitySig:vector  ETV
vector 11066  Network.dyn_peer[8]  lookupTimeSig:vector  ETV
vector 11076  Network.dyn_peer[12]  lookupHopsSig:vector  ETV
vector 11077  Network.dyn_peer[12]  lookupStabilitySig:vector  ETV
vector 11078  Network.dyn_peer[12]  lookupTimeSig:vector  ETV
vector 11085  Network.dyn_peer[15]  lookupHopsSig:vector  ETV
vector 11086  Network.dyn_peer[15]  lookupStabilitySig:vector  ETV
vector 11087  Network.dyn_peer[15]  lookupTimeSig:vector  ETV
vector 11118  Network.dyn_peer[26]  lookupHopsSig:vector  ETV
vector 11119  Network.dyn_peer[26]  lookupStabilitySig:vector  ETV
vector 11120  Network.dyn_peer[26]  lookupTimeSig:vector  ETV
vector 11130  Network.dyn_peer[30]  lookupHopsSig:vector  ETV
vector 11131  Network.dyn_peer[30]  lookupStabilitySig:vector  ETV
vector 11132  Network.dyn_peer[30]  lookupTimeSig:vector  ETV
vector 11133  Network.dyn_peer[31]  lookupHopsSig:vector  ETV
vector 11134  Network.dyn_peer[31]  lookupStabilitySig:vector  ETV
vector 11135  Network.dyn_peer[31]  lookupTimeSig:vector  ETV
vector 11043  Network.dyn_peer[1]  lookupHopsSig:vector  ETV
vector 11044  Network.dyn_peer[1]  lookupStabilitySig:vector  ETV
vector 11045  Network.dyn_peer[1]  lookupTimeSig:vector  ETV
vector 11106  Network.dyn_peer[22]  lookupHopsSig:vector  ETV
vector 11107  Network.dyn_peer[22]  lookupStabilitySig:vector  ETV
vector 11108  Network.dyn_peer[22]  lookupTimeSig:vector  ETV
vector 11109  Network.dyn_peer[23]  lookupHopsSig:vector  ETV
vector 11110  Network.dyn_peer[23]  lookupStabilitySig:vector  ETV
vector 11111  Network.dyn_peer[23]  lookupTimeSig:vector  ETV
vector 11112  Network.dyn_peer[24]  lookupHopsSig:vector  ETV
vector 11113  Network.dyn_peer[24]  lookupStabilitySig:vector  ETV
vector 11114  Network.dyn_peer[24]  lookupTimeSig:vector  ETV
vector 11121  Network.dyn_peer[27]  lookupHopsSig:vector  ETV
vector 11122  Network.dyn_peer[27]  lookupStabilitySig:vector  ETV
vector 11123  Network.dyn_peer[27]  lookupTimeSig:vector  ETV
vector 11124  Network.dyn_peer[28]  lookupHopsSig:vector  ETV
vector 11125  Network.dyn_peer[28]  lookupStabilitySig:vector  ETV
vector 11126  Network.dyn_peer[28]  lookupTimeSig:vector  ETV
vector 11127  Network.dyn_peer[29]  lookupHopsSig:vector  ETV
vector 11128  Network.dyn_peer[29]  lookupStabilitySig:vector  ETV
vector 11129  Network.dyn_peer[29]  lookupTimeSig:vector  ETV
vector 11040  Network.dyn_peer[0]  lookupHopsSig:vector  ETV
vector 11041  Network.dyn_peer[0]  lookupStabilitySig:vector  ETV
vector 11042  Network.dyn_peer[0]  lookupTimeSig:vector  ETV
vector 11100  Network.dyn_peer[20]  lookupHopsSig:vector  ETV
vector 11101  Network.dyn_peer[20]  lookupStabilitySig:vector  ETV
vector 11102  Network.dyn_peer[20]  lookupTimeSig:vector  ETV
vector 11055  Network.dyn_peer[5]  lookupHopsSig:vector  ETV
vector 11056  Network.dyn_peer[5]  lookupStabilitySig:vector  ETV
vector 11057  Network.dyn_peer[5]  lookupTimeSig:vector  ETV
vector 11061  Network.dyn_peer[7]  lookupHopsSig:vector  ETV
vector 11062  Network.dyn_peer[7]  lookupStabilitySig:vector  ETV
vector 11063  Network.dyn_peer[7]  lookupTimeSig:vector  ETV
vector 11115  Network.dyn_peer[25]  lookupHopsSig:vector  ETV
vector 11116  Network.dyn_peer[25]  lookupStabilitySig:vector  ETV
vector 11117  Network.dyn_peer[25]  lookupTimeSig:vector  ETV
vector 11046  Network.dyn_peer[2]  lookupHopsSig:vector  ETV
vector 11047  Network.dyn_peer[2]  lookupStabilitySig:vector  ETV
vector 11048  Network.dyn_peer[2]  lookupTimeSig:vector  ETV
11040	6498 8910 338 137281 20.40000001 134.871459301257 292 0 21 1306 9002
11041	15408 9876 338 137281 20.40000001 134.871459301257 292 -1.625 1 128.98611107469 105.95621143594
11042	25284 9438 338 137281 20.40000001 134.871459301257 292 0 1.9 143.8 95.7
11043	34722 9368 269 137512 20.30000002 135.083335483587 308 0 15 1301 8555
11044	44090 10419 269 137512 20.30000002 135.083335483587 308 -0.875 1 145.41666665673 116.4756944312
11045	54509 9942 269 137512 20.30000002 135.083335483587 308 0 1.5 144.4 92.44
11046	64451 9354 440 137168 20.60000003 134.775649400931 307 0 22 1298 8880
11047	73805 10383 440 137168 20.60000003 134.775649400931 307 -1.75 1 144.83333332837 121.35108024066
11048	84188 9934 440 137168 20.60000003 134.775649400931 307 0 2.1 145.2 97.42
11049	94122 9179 131 137375 20.10000004 134.940854576925 302 0 18 1236 8022
11050	103301 10159 131 137375 20.10000004 134.940854576925 302 -1.25 1 147.58333331347 118.39236109787
11051	113460 9744 131 137375 20.10000004 134.940854576925 302 0 1.6 136.8 85.2
11052	123204 8715 204 137209 20.20000005 134.796408292435 287 1 16 1237 7821
11053	131919 9629 204 137209 20.20000005 134.796408292435 287 -1 0.875 132.375 99.953125
11054	141548 9261 204 137209 20.20000005 134.796408292435 287 0.1 1.5 139.7 88.69
11055	150809 8443 394 137440 20.50000006 134.99726674726 277 0 22 1201 8031
11056	159252 9312 394 137440 20.50000006 134.99726674726 277 -1.75 1 126.88888888806 102.25887345532
11057	168564 8957 394 137440 20.50000006 134.99726674726 277 0 1.8 133.6 86.78
11058	177521 9136 210 137804 20.20000007 135.399695733162 300 0 21 1266 8594
11059	186657 10135 210 137804 20.20000007 135.399695733162 300 -1.625 1 141.86111107469 117.89197527185
11060	196792 9696 210 137804 20.20000007 135.399695733162 300 0 2 140.1 91.63
11061	206488 9712 400 136998 20.50000008 134.596956919475 319 0 18 1258 7934
11062	216200 10810 400 136998 20.50000008 134.596956919475 319 -1.25 1 161.98611109704 128.72781634184
11063	227010 10323 400 136998 20.50000008 134.596956919475 319 0 1.7 142.9 88.79
11064	237333 9094 216 137464 20.20000009 135.008837013847 298 0 23 1230 8148
11065	246427 10110 216 137464 20.20000009 135.008837013847 298 -1.875 1 144.41666662693 117.90316355081
11066	256537 9657 216 137464 20.20000009 135.008837013847 298 0 2.1 138.3 88.11
11067	266194 8939 141 137200 20.1000001 134.793535120777 294 0 18 1201 7411
11068	275133 9941 141 137200 20.1000001 134.793535120777 294 -1.25 1 143.95833331347 109.59548609787
11069	285074 9496 141 137200 20.1000001 134.793535120777 294 0 1.7 134.8 82.02
11070	294570 9337 146 137402 20.10000011 134.979357516632 307 0 17 1313 8411
11071	303907 10355 146 137402 20.10000011 134.979357516632 307 -1.125 1 142.91666665673 110.2256944312
11072	314262 9902 146 137402 20.10000011 134.979357516632 307 0 1.7 148.4 95.64
11073	324164 10170 151 137066 20.10000012 134.664517191378 335 0 22 1323 8001
11074	334334 11278 151 137066 20.10000012 134.664517191378 335 -1.75 1 169.65277777612 129.30806326903
11075	345612 10805 151 137066 20.10000012 134.664517191378 335 0 1.8 146.8 85.74
11076	356417 9191 224 136849 20.20000013 134.456834750698 302 0 20 1352 9368
11077	365608 10183 224 136849 20.20000013 134.456834750698 302 -1.5 1 133.02777777612 110.41743826903
11078	375791 9739 224 136849 20.20000013 134.456834750698 302 0 1.9 149.3 99.65
11079	385530 8799 68 138159 20.00000014 135.989645210225 289 0 17 1271 8399
11080	394329 9796 68 138159 20.00000014 135.989645210225 289 -1.125 1 130.20833331347 102.5920138624
11081	404125 9334 68 138159 20.00000014 135.989645210225 289 0 1.6 140.3 91.51
11082	413459 9121 157 138008 20.10000015 135.603286751748 299 0 23 1205 7757
11083	422580 10139 157 138008 20.10000015 135.603286751748 299 -1.875 1 148.54166664183 119.18807866949
11084	432719 9682 157 138008 20.10000015 135.603286751748 299 0 2.2 135.3 85.81
11085	442401 9844 230 137710 20.20000016 135.303086751748 324 0 19 1257 7833
11086	452245 10944 230 137710 20.20000016 135.303086751748 324 -1.375 1 167.08333329856 132.32445984159
11087	463189 10457 230 137710 20.20000016 135.303086751748 324 0 1.8 141.3 86.21
11088	473646 9773 163 137799 20.10000017 135.398229394017 321 0 17 1246 7312
11089	483419 10858 163 137799 20.10000017 135.398229394017 321 -1.125 1 165.40277773142 123.91454470305
11090	494277 10377 163 137799 20.10000017 135.398229394017 321 0 1.5 142.7 84.25
11091	504654 9067 168 137883 20.10000018 135.447966754231 298 0 18 1260 8792
11092	513721 10050 168 137883 20.10000018 135.447966754231 298 -1.25 1 140.5 120.375
11093	523771 9616 168 137883 20.10000018 135.447966754231 298 0 1.8 139.1 91.51
11094	533387 9172 173 137937 20.10000019 135.50399602296 302 0 22 1275 8675
11095	542559 10213 173 137937 20.10000019 135.50399602296 302 -1.75 1 142.73611107469 118.90760027185
11096	552772 9742 173 137937 20.10000019 135.50399602296 302 0 2.1 141.8 92.42
11097	562514 8376 178 137040 20.1000002 134.615645070065 275 0 27 1322 9686
11098	570890 9237 178 137040 20.1000002 134.615645070065 275 -2.375 1 109.90277779102 95.752507710163
11099	580127 8876 178 137040 20.1000002 134.615645070065 275 0 2.4 145.4 104.8
11100	589003 9588 361 137131 20.40000021 134.714640250275 315 0 15 1259 7279
11101	598591 10651 361 137131 20.40000021 134.714640250275 315 -0.875 1 157.72222220153 114.05748455318
11102	609242 10190 361 137131 20.40000021 134.714640250275 315 0 1.4 141.3 82.57
11103	619432 8776 184 137320 20.10000022 134.895327306564 288 0 22 1234 8360
11104	628208 9746 184 137320 20.10000022 134.895327306564 288 -1.75 1 133.79166665673 110.1788194312
11105	637954 9308 184 137320 20.10000022 134.895327306564 288 0 1.9 138 91.54
11106	647262 9135 295 137469 20.30000023 135.011895398486 300 0 18 1238 8124
11107	656397 10156 295 137469 20.30000023 135.011895398486 300 -1.25 1 145.29166665673 117.4913194312
11108	666553 9704 295 137469 20.30000023 135.011895398486 300 0 1.6 138.9 87.69
11109	676257 8779 300 138139 20.30000024 135.897780385421 289 0 23 1283 8929
11110	685036 9717 300 138139 20.30000024 135.897780385421 289 -1.875 1 128.65277777612 107.80806326903
11111	694753 9324 300 138139 20.30000024 135.897780385421 289 0 2 142.4 96.26
11112	704077 9582 305 138055 20.30000025 135.668114368124 315 0 28 1339 9401
11113	713659 10618 305 138055 20.30000025 135.668114368124 315 -2.5 1 147.66666665673 127.1944444312
11114	724277 10173 305 138055 20.30000025 135.668114368124 315 0 2.5 148.1 100.09
11115	734450 8816 417 137810 20.50000026 135.401328613455 290 0 18 1244 8368
11116	743266 9803 417 137810 20.50000026 135.401328613455 290 -1.25 1 134.59722220153 109.82310955318
11117	753069 9359 417 137810 20.50000026 135.401328613455 290 0 1.6 138.7 90.25
11118	762428 9240 245 137869 20.20000027 135.42383476065 303 0 18 1379 9741
11119	771668 10265 245 137869 20.20000027 135.42383476065 303 -1.25 1 130.72222220153 110.58526231772
11120	781933 9794 245 137869 20.20000027 135.42383476065 303 0 1.6 153.5 105.93
11121	791727 9648 312 138174 20.30000028 136.055539216123 317 0 19 1278 7962
11122	801375 10674 312 138174 20.30000028 136.055539216123 317 -1.375 1 157.25 121.90625
11123	812049 10252 312 138174 20.30000028 136.055539216123 317 0 1.8 144 88.42
11124	822301 9078 317 138040 20.30000029 135.648066754231 298 0 17 1217 7919
11125	831379 10037 317 138040 20.30000029 135.648066754231 298 -1.125 1 145.875 117.484375
11126	841416 9631 317 138040 20.30000029 135.648066754231 298 0 1.6 136.7 85.77
11127	851047 9695 322 138009 20.3000003 135.603286751748 319 0 16 1237 7173
11128	860742 10759 322 138009 20.3000003 135.603286751748 319 -1 1 164.45833332837 121.92920524066
11129	871501 10316 322 138009 20.3000003 135.603286751748 319 0 1.5 139.5 80.37
11130	881817 9250 253 137002 20.20000031 134.59726674726 303 0 18 1182 6904
11131	891067 10265 253 137002 20.20000031 134.59726674726 303 -1.25 1 155.38888888061 115.42978394657
11132	901332 9833 253 137002 20.20000031 134.59726674726 303 0 1.8 135.1 79.51
11133	911165 7993 258 136690 20.20000032 134.290411185728 263 0 34 1215 9507
11134	919158 8879 258 136690 20.20000032 134.290411185728 263 -3.25 1 111.34722220898 107.76253855081
11135	928037 8478 258 136690 20.20000032 134.290411185728 263 0 3 132.2 95.82
