file 930567 1369516971                                          
version 2
run Stability-norelink-131-20130525-23:22:47-22103
attr configname Stability-norelink
attr datetime 20130525-23:22:47
attr experiment Stability
attr inifile omnetpp.ini
attr iterationvars $0=1e-7
attr iterationvars2 "$0=1e-7, $repetition=1"
attr measurement $0=1e-7
attr network Network
attr processid 22103
attr repetition 1
attr replication #1
attr resultdir results
attr runnumber 131
attr seedset 131

vector 12579  Network.dyn_peer[1]  lookupHopsSig:vector  ETV
vector 12580  Network.dyn_peer[1]  lookupStabilitySig:vector  ETV
vector 12581  Network.dyn_peer[1]  lookupTimeSig:vector  ETV
vector 12582  Network.dyn_peer[2]  lookupHopsSig:vector  ETV
vector 12583  Network.dyn_peer[2]  lookupStabilitySig:vector  ETV
vector 12584  Network.dyn_peer[2]  lookupTimeSig:vector  ETV
vector 12606  Network.dyn_peer[10]  lookupHopsSig:vector  ETV
vector 12607  Network.dyn_peer[10]  lookupStabilitySig:vector  ETV
vector 12608  Network.dyn_peer[10]  lookupTimeSig:vector  ETV
vector 12609  Network.dyn_peer[11]  lookupHopsSig:vector  ETV
vector 12610  Network.dyn_peer[11]  lookupStabilitySig:vector  ETV
vector 12611  Network.dyn_peer[11]  lookupTimeSig:vector  ETV
vector 12639  Network.dyn_peer[21]  lookupHopsSig:vector  ETV
vector 12640  Network.dyn_peer[21]  lookupStabilitySig:vector  ETV
vector 12641  Network.dyn_peer[21]  lookupTimeSig:vector  ETV
vector 12591  Network.dyn_peer[5]  lookupHopsSig:vector  ETV
vector 12592  Network.dyn_peer[5]  lookupStabilitySig:vector  ETV
vector 12593  Network.dyn_peer[5]  lookupTimeSig:vector  ETV
vector 12618  Network.dyn_peer[14]  lookupHopsSig:vector  ETV
vector 12619  Network.dyn_peer[14]  lookupStabilitySig:vector  ETV
vector 12620  Network.dyn_peer[14]  lookupTimeSig:vector  ETV
vector 12576  Network.dyn_peer[0]  lookupHopsSig:vector  ETV
vector 12577  Network.dyn_peer[0]  lookupStabilitySig:vector  ETV
vector 12578  Network.dyn_peer[0]  lookupTimeSig:vector  ETV
vector 12585  Network.dyn_peer[3]  lookupHopsSig:vector  ETV
vector 12586  Network.dyn_peer[3]  lookupStabilitySig:vector  ETV
vector 12587  Network.dyn_peer[3]  lookupTimeSig:vector  ETV
vector 12594  Network.dyn_peer[6]  lookupHopsSig:vector  ETV
vector 12595  Network.dyn_peer[6]  lookupStabilitySig:vector  ETV
vector 12596  Network.dyn_peer[6]  lookupTimeSig:vector  ETV
vector 12600  Network.dyn_peer[8]  lookupHopsSig:vector  ETV
vector 12601  Network.dyn_peer[8]  lookupStabilitySig:vector  ETV
vector 12602  Network.dyn_peer[8]  lookupTimeSig:vector  ETV
vector 12603  Network.dyn_peer[9]  lookupHopsSig:vector  ETV
vector 12604  Network.dyn_peer[9]  lookupStabilitySig:vector  ETV
vector 12605  Network.dyn_peer[9]  lookupTimeSig:vector  ETV
vector 12612  Network.dyn_peer[12]  lookupHopsSig:vector  ETV
vector 12613  Network.dyn_peer[12]  lookupStabilitySig:vector  ETV
vector 12614  Network.dyn_peer[12]  lookupTimeSig:vector  ETV
vector 12615  Network.dyn_peer[13]  lookupHopsSig:vector  ETV
vector 12616  Network.dyn_peer[13]  lookupStabilitySig:vector  ETV
vector 12617  Network.dyn_peer[13]  lookupTimeSig:vector  ETV
vector 12621  Network.dyn_peer[15]  lookupHopsSig:vector  ETV
vector 12622  Network.dyn_peer[15]  lookupStabilitySig:vector  ETV
vector 12623  Network.dyn_peer[15]  lookupTimeSig:vector  ETV
vector 12624  Network.dyn_peer[16]  lookupHopsSig:vector  ETV
vector 12625  Network.dyn_peer[16]  lookupStabilitySig:vector  ETV
vector 12626  Network.dyn_peer[16]  lookupTimeSig:vector  ETV
vector 12642  Network.dyn_peer[22]  lookupHopsSig:vector  ETV
vector 12643  Network.dyn_peer[22]  lookupStabilitySig:vector  ETV
vector 12644  Network.dyn_peer[22]  lookupTimeSig:vector  ETV
vector 12645  Network.dyn_peer[23]  lookupHopsSig:vector  ETV
vector 12646  Network.dyn_peer[23]  lookupStabilitySig:vector  ETV
vector 12647  Network.dyn_peer[23]  lookupTimeSig:vector  ETV
vector 12651  Network.dyn_peer[25]  lookupHopsSig:vector  ETV
vector 12652  Network.dyn_peer[25]  lookupStabilitySig:vector  ETV
vector 12653  Network.dyn_peer[25]  lookupTimeSig:vector  ETV
vector 12663  Network.dyn_peer[29]  lookupHopsSig:vector  ETV
vector 12664  Network.dyn_peer[29]  lookupStabilitySig:vector  ETV
vector 12665  Network.dyn_peer[29]  lookupTimeSig:vector  ETV
vector 12666  Network.dyn_peer[30]  lookupHopsSig:vector  ETV
vector 12667  Network.dyn_peer[30]  lookupStabilitySig:vector  ETV
vector 12668  Network.dyn_peer[30]  lookupTimeSig:vector  ETV
vector 12588  Network.dyn_peer[4]  lookupHopsSig:vector  ETV
vector 12589  Network.dyn_peer[4]  lookupStabilitySig:vector  ETV
vector 12590  Network.dyn_peer[4]  lookupTimeSig:vector  ETV
vector 12597  Network.dyn_peer[7]  lookupHopsSig:vector  ETV
vector 12598  Network.dyn_peer[7]  lookupStabilitySig:vector  ETV
vector 12599  Network.dyn_peer[7]  lookupTimeSig:vector  ETV
vector 12633  Network.dyn_peer[19]  lookupHopsSig:vector  ETV
vector 12634  Network.dyn_peer[19]  lookupStabilitySig:vector  ETV
vector 12635  Network.dyn_peer[19]  lookupTimeSig:vector  ETV
vector 12648  Network.dyn_peer[24]  lookupHopsSig:vector  ETV
vector 12649  Network.dyn_peer[24]  lookupStabilitySig:vector  ETV
vector 12650  Network.dyn_peer[24]  lookupTimeSig:vector  ETV
vector 12660  Network.dyn_peer[28]  lookupHopsSig:vector  ETV
vector 12661  Network.dyn_peer[28]  lookupStabilitySig:vector  ETV
vector 12662  Network.dyn_peer[28]  lookupTimeSig:vector  ETV
vector 12630  Network.dyn_peer[18]  lookupHopsSig:vector  ETV
vector 12631  Network.dyn_peer[18]  lookupStabilitySig:vector  ETV
vector 12632  Network.dyn_peer[18]  lookupTimeSig:vector  ETV
vector 12657  Network.dyn_peer[27]  lookupHopsSig:vector  ETV
vector 12658  Network.dyn_peer[27]  lookupStabilitySig:vector  ETV
vector 12659  Network.dyn_peer[27]  lookupTimeSig:vector  ETV
vector 12654  Network.dyn_peer[26]  lookupHopsSig:vector  ETV
vector 12655  Network.dyn_peer[26]  lookupStabilitySig:vector  ETV
vector 12656  Network.dyn_peer[26]  lookupTimeSig:vector  ETV
vector 12669  Network.dyn_peer[31]  lookupHopsSig:vector  ETV
vector 12670  Network.dyn_peer[31]  lookupStabilitySig:vector  ETV
vector 12671  Network.dyn_peer[31]  lookupTimeSig:vector  ETV
vector 12636  Network.dyn_peer[20]  lookupHopsSig:vector  ETV
vector 12637  Network.dyn_peer[20]  lookupStabilitySig:vector  ETV
vector 12638  Network.dyn_peer[20]  lookupTimeSig:vector  ETV
vector 12627  Network.dyn_peer[17]  lookupHopsSig:vector  ETV
vector 12628  Network.dyn_peer[17]  lookupStabilitySig:vector  ETV
vector 12629  Network.dyn_peer[17]  lookupTimeSig:vector  ETV
12576	6498 9044 182 137671 20.2000000001 137.345587046629 297 0 26 1206 7758
12577	15542 10056 182 137671 20.2000000001 137.345587046629 297 -2.25 1 146.52777773142 116.90046292102
12578	25598 9599 182 137671 20.2000000001 137.345587046629 297 0 2.2 134 83.18
12579	35197 8561 31 136963 20.0000000002 136.420369862115 281 0 15 1179 7513
12580	43758 9497 31 136963 20.0000000002 136.420369862115 281 -0.875 1 133.625 103.640625
12581	53255 9078 31 136963 20.0000000002 136.420369862115 281 0 1.5 132.4 83.7
12582	62333 9379 38 137662 20.0000000003 137.344916611228 308 0 24 1320 8844
12583	71712 10356 38 137662 20.0000000003 137.344916611228 308 -2 1 143 116.1875
12584	82068 9957 38 137662 20.0000000003 137.344916611228 308 0 2 147.7 96.35
12585	92025 9712 189 136793 20.2000000004 136.217159186747 319 0 16 1394 8762
12586	101737 10783 189 136793 20.2000000004 136.217159186747 319 -1 1 144.84722220898 107.51871140283
12587	112520 10302 189 136793 20.2000000004 136.217159186747 319 0 1.4 154.8 96.1
12588	122822 8588 279 137456 20.3000000005 137.058959831941 282 0 29 1286 9708
12589	131410 9540 279 137456 20.3000000005 137.058959831941 282 -2.625 1 121.38888888061 112.34722221229
12590	140950 9098 279 137456 20.3000000005 137.058959831941 282 0 2.5 141.3 101.27
12591	150048 8677 147 135441 20.1000000006 135.120777820599 285 0 17 1235 7695
12592	158725 9636 147 135441 20.1000000006 135.120777820599 285 -1.125 1 130.72222220898 96.518132710163
12593	168361 9219 147 135441 20.1000000006 135.120777820599 285 0 1.6 137.9 86.13
12594	177580 9406 196 136553 20.2000000007 135.963878410545 309 0 19 1311 8859
12595	186986 10426 196 136553 20.2000000007 135.963878410545 309 -1.375 1 145.125 119.671875
12596	197412 9987 196 136553 20.2000000007 135.963878410545 309 0 1.8 146.9 96.29
12597	207399 8915 287 137771 20.3000000008 138.155946103587 292 0 17 1275 8623
12598	216314 9902 287 137771 20.3000000008 138.155946103587 292 -1.125 1 132.73611109704 108.12133485815
12599	226216 9466 287 137771 20.3000000008 138.155946103587 292 0.1 1.7 142.3 94.07
12600	235682 9402 202 136125 20.2000000009 135.618042721125 309 0 18 1359 9095
12601	245084 10384 202 136125 20.2000000009 135.618042721125 309 -1.25 1 139.13888888806 111.38387345532
12602	255468 9977 202 136125 20.2000000009 135.618042721125 309 0 1.7 150.5 98.83
12603	265445 9803 207 137701 20.200000001 137.418743950251 323 0 21 1344 8872
12604	275248 10884 207 137701 20.200000001 137.418743950251 323 -1.625 1 155.27777769417 125.71489195838
12605	286132 10420 207 137701 20.200000001 137.418743950251 323 0 1.7 150.6 96.18
12606	296552 9386 66 137567 20.0000000011 137.231797085827 308 0 18 1332 8750
12607	305938 10427 66 137567 20.0000000011 137.231797085827 308 -1.25 1 141.69444438815 111.87808636971
12608	316365 9957 66 137567 20.0000000011 137.231797085827 308 0 1.7 147.7 94.69
12609	326322 8477 73 137642 20.0000000012 137.337877616558 277 0 27 1240 9112
12610	334799 9392 73 137642 20.0000000012 137.337877616558 277 -2.375 1 122.11111108959 109.52507713143
12611	344191 8995 73 137642 20.0000000012 137.337877616558 277 0 2.5 135.3 93.11
12612	353186 9452 214 136543 20.2000000013 135.960960341636 310 0 33 1313 9673
12613	362638 10491 214 136543 20.2000000013 135.960960341636 310 -3.125 1 145.97222219408 132.98996910968
12614	373129 10025 214 136543 20.2000000013 135.960960341636 310 0 3 146.5 100.97
12615	383154 8717 219 136529 20.2000000014 135.940913350782 286 0 18 1260 8646
12616	391871 9608 219 136529 20.2000000014 135.940913350782 286 -1.25 1 128.5 106.09375
12617	401479 9250 219 136529 20.2000000014 135.940913350782 286 0 1.7 138.7 91.55
12618	410729 9433 160 137203 20.1000000015 136.718739485302 309 0 16 1326 8670
12619	420162 10405 160 137203 20.1000000015 136.718739485302 309 -1 1 143.29166665673 113.0225694312
12620	430567 10015 160 137203 20.1000000015 136.718739485302 309 0 1.6 147.7 95.25
12621	440582 9382 225 137113 20.2000000016 136.564601663788 308 0 14 1249 7609
12622	449964 10412 225 137113 20.2000000016 136.564601663788 308 -0.75 1 151.93055555224 114.69926697163
12623	460376 9967 225 137113 20.2000000016 136.564601663788 308 0 1.4 140.7 85.13
12624	470343 8872 230 136155 20.2000000017 135.625005324148 291 1 17 1264 7960
12625	479215 9857 230 136155 20.2000000017 135.625005324148 291 -1.125 0.875 133 99.375
12626	489072 9420 230 136155 20.2000000017 135.625005324148 291 0.1 1.4 140.7 86.75
12627	498492 9723 972 137346 21.3000000018 136.864701663788 319 0 21 1340 9480
12628	508215 10784 972 137346 21.3000000018 136.864701663788 319 -1.625 1 151.61111107469 132.23572527185
12629	518999 10317 972 137346 21.3000000018 136.864701663788 319 0 1.7 149.1 99.21
12630	529316 9068 357 137620 20.4000000019 137.291088359273 297 0 17 1315 8983
12631	538384 10052 357 137620 20.4000000019 137.291088359273 297 -1.125 1 132.66666665673 108.6631944312
12632	548436 9609 357 137620 20.4000000019 137.291088359273 297 0 1.7 143.9 94.79
12633	558045 9567 304 136468 20.300000002 135.92283792903 314 0 19 1284 8368
12634	567612 10593 304 136468 20.300000002 135.92283792903 314 -1.375 1 153.59722220898 123.78375771016
12635	578205 10138 304 136468 20.300000002 135.92283792903 314 0 1.7 144 91
12636	588343 8873 590 136947 20.8000000021 136.402338766334 291 0 29 1293 9425
12637	597216 9820 590 136947 20.8000000021 136.402338766334 291 -2.625 1 129.41666665673 115.0694444312
12638	607036 9402 590 136947 20.8000000021 136.402338766334 291 0 2.5 142.1 98.03
12639	616438 9475 107 136087 20.0000000022 135.590049942282 311 0 17 1287 8091
12640	625913 10569 107 136087 20.0000000022 135.590049942282 311 -1.125 1 150.48611104488 116.0071372846
12641	636482 10057 107 136087 20.0000000022 135.590049942282 311 0 1.6 145.2 91.18
12642	646539 7974 240 137537 20.2000000023 137.174304071871 261 0 25 1240 9736
12643	654513 8854 240 137537 20.2000000023 137.174304071871 261 -2.125 1 106.09722220898 103.23746140283
12644	663367 8457 240 137537 20.2000000023 137.174304071871 261 0.1 2.3 134.9 99.39
12645	671824 8385 245 137090 20.2000000024 136.541516608777 276 0 18 1201 8763
12646	680209 9294 245 137090 20.2000000024 136.541516608777 276 -1.25 1 125.875 112.671875
12647	689503 8888 245 137090 20.2000000024 136.541516608777 276 0 1.6 132.9 92.39
12648	698391 8854 313 137607 20.3000000025 137.259059831941 290 0 23 1259 8429
12649	707245 9774 313 137607 20.3000000025 137.259059831941 290 -1.875 1 132.625 106.953125
12650	717019 9398 313 137607 20.3000000025 137.259059831941 290 0 2.3 138.2 89.12
12651	726417 8960 251 136219 20.2000000026 135.653846626802 294 0 15 1225 7577
12652	735377 9956 251 136219 20.2000000026 135.653846626802 294 -0.875 1 141.06944441795 106.26060953994
12653	745333 9518 251 136219 20.2000000026 135.653846626802 294 0 1.4 138.3 85.43
12654	754851 9128 427 137485 20.5000000027 137.111477434063 299 0 16 1218 7722
12655	763979 10156 427 137485 20.5000000027 137.111477434063 299 -1 1 146.80555555224 115.24768517967
12656	774135 9696 427 137485 20.5000000027 137.111477434063 299 0 1.5 136.9 84.31
12657	783831 9379 370 137022 20.4000000028 136.479871926987 308 0 18 1300 8436
12658	793210 10419 370 137022 20.4000000028 136.479871926987 308 -1.25 1 145.63888883591 114.76234569079
12659	803629 9946 370 137022 20.4000000028 136.479871926987 308 0 1.5 144.4 88.88
12660	813575 8958 321 136970 20.3000000029 136.422730336536 294 0 25 1232 8294
12661	822533 9937 321 136970 20.3000000029 136.422730336536 294 -2.125 1 140.06944441795 115.65065584065
12662	832470 9508 321 136970 20.3000000029 136.422730336536 294 0 2.2 137.7 88.59
12663	841978 9085 259 137283 20.200000003 136.802438766334 298 0 18 1275 8101
12664	851063 10103 259 137283 20.200000003 136.802438766334 298 -1.25 1 138.69444443285 105.93094134184
12665	861166 9645 259 137283 20.200000003 136.802438766334 298 0 1.7 143.5 90.75
12666	870811 9745 264 136701 20.2000000031 136.121335784929 320 0 20 1297 8795
12667	880556 10751 264 136701 20.2000000031 136.121335784929 320 -1.5 1 157.875 133.171875
12668	891307 10323 264 136701 20.2000000031 136.121335784929 320 0 1.8 145.7 95.49
12669	901630 9131 486 135526 20.6000000032 135.200718046804 300 0 24 1250 8540
12670	910761 10115 486 135526 20.6000000032 135.200718046804 300 -2 1 143.77777777612 120.97993826903
12671	920876 9691 486 135526 20.6000000032 135.200718046804 300 0 2.1 140.6 92.56
