version 2
run Stability-norelink-54-20130525-23:17:35-22103
attr configname Stability-norelink
attr datetime 20130525-23:17:35
attr experiment Stability
attr inifile omnetpp.ini
attr iterationvars $0=1e1
attr iterationvars2 "$0=1e1, $repetition=4"
attr measurement $0=1e1
attr network Network
attr processid 22103
attr repetition 4
attr replication #4
attr resultdir results
attr runnumber 54
attr seedset 54

vector 5211  Network.dyn_peer[9]  lookupHopsSig:vector  ETV
vector 5212  Network.dyn_peer[9]  lookupStabilitySig:vector  ETV
vector 5213  Network.dyn_peer[9]  lookupTimeSig:vector  ETV
vector 5184  Network.dyn_peer[0]  lookupHopsSig:vector  ETV
vector 5185  Network.dyn_peer[0]  lookupStabilitySig:vector  ETV
vector 5186  Network.dyn_peer[0]  lookupTimeSig:vector  ETV
vector 5190  Network.dyn_peer[2]  lookupHopsSig:vector  ETV
vector 5191  Network.dyn_peer[2]  lookupStabilitySig:vector  ETV
vector 5192  Network.dyn_peer[2]  lookupTimeSig:vector  ETV
vector 5199  Network.dyn_peer[5]  lookupHopsSig:vector  ETV
vector 5200  Network.dyn_peer[5]  lookupStabilitySig:vector  ETV
vector 5201  Network.dyn_peer[5]  lookupTimeSig:vector  ETV
vector 5208  Network.dyn_peer[8]  lookupHopsSig:vector  ETV
vector 5209  Network.dyn_peer[8]  lookupStabilitySig:vector  ETV
vector 5210  Network.dyn_peer[8]  lookupTimeSig:vector  ETV
vector 5187  Network.dyn_peer[1]  lookupHopsSig:vector  ETV
vector 5188  Network.dyn_peer[1]  lookupStabilitySig:vector  ETV
vector 5189  Network.dyn_peer[1]  lookupTimeSig:vector  ETV
vector 5196  Network.dyn_peer[4]  lookupHopsSig:vector  ETV
vector 5197  Network.dyn_peer[4]  lookupStabilitySig:vector  ETV
vector 5198  Network.dyn_peer[4]  lookupTimeSig:vector  ETV
vector 5256  Network.dyn_peer[24]  lookupHopsSig:vector  ETV
vector 5257  Network.dyn_peer[24]  lookupStabilitySig:vector  ETV
vector 5258  Network.dyn_peer[24]  lookupTimeSig:vector  ETV
vector 5202  Network.dyn_peer[6]  lookupHopsSig:vector  ETV
vector 5203  Network.dyn_peer[6]  lookupStabilitySig:vector  ETV
vector 5204  Network.dyn_peer[6]  lookupTimeSig:vector  ETV
vector 5205  Network.dyn_peer[7]  lookupHopsSig:vector  ETV
vector 5206  Network.dyn_peer[7]  lookupStabilitySig:vector  ETV
vector 5207  Network.dyn_peer[7]  lookupTimeSig:vector  ETV
vector 5214  Network.dyn_peer[10]  lookupHopsSig:vector  ETV
vector 5215  Network.dyn_peer[10]  lookupStabilitySig:vector  ETV
vector 5216  Network.dyn_peer[10]  lookupTimeSig:vector  ETV
vector 5217  Network.dyn_peer[11]  lookupHopsSig:vector  ETV
vector 5218  Network.dyn_peer[11]  lookupStabilitySig:vector  ETV
vector 5219  Network.dyn_peer[11]  lookupTimeSig:vector  ETV
vector 5247  Network.dyn_peer[21]  lookupHopsSig:vector  ETV
vector 5248  Network.dyn_peer[21]  lookupStabilitySig:vector  ETV
vector 5249  Network.dyn_peer[21]  lookupTimeSig:vector  ETV
vector 5220  Network.dyn_peer[12]  lookupHopsSig:vector  ETV
vector 5221  Network.dyn_peer[12]  lookupStabilitySig:vector  ETV
vector 5222  Network.dyn_peer[12]  lookupTimeSig:vector  ETV
vector 5250  Network.dyn_peer[22]  lookupHopsSig:vector  ETV
vector 5251  Network.dyn_peer[22]  lookupStabilitySig:vector  ETV
vector 5252  Network.dyn_peer[22]  lookupTimeSig:vector  ETV
vector 5223  Network.dyn_peer[13]  lookupHopsSig:vector  ETV
vector 5224  Network.dyn_peer[13]  lookupStabilitySig:vector  ETV
vector 5225  Network.dyn_peer[13]  lookupTimeSig:vector  ETV
vector 5226  Network.dyn_peer[14]  lookupHopsSig:vector  ETV
vector 5227  Network.dyn_peer[14]  lookupStabilitySig:vector  ETV
vector 5228  Network.dyn_peer[14]  lookupTimeSig:vector  ETV
vector 5229  Network.dyn_peer[15]  lookupHopsSig:vector  ETV
vector 5230  Network.dyn_peer[15]  lookupStabilitySig:vector  ETV
vector 5231  Network.dyn_peer[15]  lookupTimeSig:vector  ETV
vector 5232  Network.dyn_peer[16]  lookupHopsSig:vector  ETV
vector 5233  Network.dyn_peer[16]  lookupStabilitySig:vector  ETV
vector 5234  Network.dyn_peer[16]  lookupTimeSig:vector  ETV
vector 5235  Network.dyn_peer[17]  lookupHopsSig:vector  ETV
vector 5236  Network.dyn_peer[17]  lookupStabilitySig:vector  ETV
vector 5237  Network.dyn_peer[17]  lookupTimeSig:vector  ETV
vector 5241  Network.dyn_peer[19]  lookupHopsSig:vector  ETV
vector 5242  Network.dyn_peer[19]  lookupStabilitySig:vector  ETV
vector 5243  Network.dyn_peer[19]  lookupTimeSig:vector  ETV
vector 5271  Network.dyn_peer[29]  lookupHopsSig:vector  ETV
vector 5272  Network.dyn_peer[29]  lookupStabilitySig:vector  ETV
vector 5273  Network.dyn_peer[29]  lookupTimeSig:vector  ETV
vector 5193  Network.dyn_peer[3]  lookupHopsSig:vector  ETV
vector 5194  Network.dyn_peer[3]  lookupStabilitySig:vector  ETV
vector 5195  Network.dyn_peer[3]  lookupTimeSig:vector  ETV
vector 5259  Network.dyn_peer[25]  lookupHopsSig:vector  ETV
vector 5260  Network.dyn_peer[25]  lookupStabilitySig:vector  ETV
vector 5261  Network.dyn_peer[25]  lookupTimeSig:vector  ETV
vector 5262  Network.dyn_peer[26]  lookupHopsSig:vector  ETV
vector 5263  Network.dyn_peer[26]  lookupStabilitySig:vector  ETV
vector 5264  Network.dyn_peer[26]  lookupTimeSig:vector  ETV
vector 5238  Network.dyn_peer[18]  lookupHopsSig:vector  ETV
vector 5239  Network.dyn_peer[18]  lookupStabilitySig:vector  ETV
vector 5240  Network.dyn_peer[18]  lookupTimeSig:vector  ETV
vector 5244  Network.dyn_peer[20]  lookupHopsSig:vector  ETV
vector 5245  Network.dyn_peer[20]  lookupStabilitySig:vector  ETV
vector 5246  Network.dyn_peer[20]  lookupTimeSig:vector  ETV
vector 5277  Network.dyn_peer[31]  lookupHopsSig:vector  ETV
vector 5278  Network.dyn_peer[31]  lookupStabilitySig:vector  ETV
vector 5279  Network.dyn_peer[31]  lookupTimeSig:vector  ETV
vector 5265  Network.dyn_peer[27]  lookupHopsSig:vector  ETV
vector 5266  Network.dyn_peer[27]  lookupStabilitySig:vector  ETV
vector 5267  Network.dyn_peer[27]  lookupTimeSig:vector  ETV
vector 5253  Network.dyn_peer[23]  lookupHopsSig:vector  ETV
vector 5254  Network.dyn_peer[23]  lookupStabilitySig:vector  ETV
vector 5255  Network.dyn_peer[23]  lookupTimeSig:vector  ETV
vector 5274  Network.dyn_peer[30]  lookupHopsSig:vector  ETV
vector 5275  Network.dyn_peer[30]  lookupStabilitySig:vector  ETV
vector 5276  Network.dyn_peer[30]  lookupTimeSig:vector  ETV
vector 5268  Network.dyn_peer[28]  lookupHopsSig:vector  ETV
vector 5269  Network.dyn_peer[28]  lookupStabilitySig:vector  ETV
vector 5270  Network.dyn_peer[28]  lookupTimeSig:vector  ETV
5184	63	20.11	1
5184	386	20.61	4
5184	649	21.017827487117	3
5184	984	21.418181332989	3
5184	1110	21.529983589325	2
5184	1653	21.942758705433	4
5184	1916	22.142758705433	1
5184	2315	22.444909745835	2
5184	2498	22.549689944741	1
5184	2742	22.705248876752	2
5184	2993	22.918570073812	1
5184	3485	23.331663735235	4
5184	3887	23.631663735235	2
5184	4363	24.039280204126	3
5184	5812	25.255932826861	12
5184	7101	26.355932826861	10
5184	7386	26.56583914701	1
5184	7577	26.771368463543	1
5184	8186	27.285117851931	6
5184	9060	28.185117851931	9
5184	9378	28.51712921916	2
5184	9697	28.819007219962	2
5184	10372	29.437012578571	6
5184	10776	29.737012578571	2
5184	12362	31.04160889664	13
5184	12593	31.249442113316	1
5184	13073	31.651580597869	3
5184	13992	32.351307047486	7
5184	13997	32.352931471987	6
5184	14226	32.560103709715	1
5184	14228	32.560123879432	1
5184	14646	32.870223879432	3
5184	15134	33.193382512172	0
5184	15594	33.570223879432	6
5184	16154	34.080323879432	5
5184	16937	34.780323879432	7
5184	17279	35.086586345117	2
5184	17559	35.296686345117	2
5184	17747	35.496686345117	1
5184	19259	36.802628022971	13
5184	20543	37.813234911314	10
5184	20954	38.134371876815	1
5184	21207	38.3453549029	1
5184	21876	38.8554549029	5
5184	22802	39.662630373217	5
5184	23195	39.974439675501	3
5184	23571	40.274439675501	2
5184	23678	40.383506277482	0
5184	23808	40.506016386726	0
5184	25461	42.006016386726	14
5184	25715	42.208319762937	2
5184	25963	42.418877781947	2
5184	26718	43.018877781947	5
5184	26846	43.128512599238	5
5184	27144	43.34661122767	2
5184	27544	43.64661122767	2
5184	28165	44.148133317376	4
5184	28423	44.37068770403	1
5184	28701	44.58078770403	2
5184	29199	44.98078770403	3
5184	29510	45.184688215869	2
5184	29785	45.392517189635	1
5184	30374	45.89831679451	4
5184	30399	45.909385439983	1
5184	30470	45.99498383897	8
5184	30750	46.208282744424	2
5184	31473	46.808282744424	5
5184	32008	47.215636548607	3
5184	32447	47.533292802755	3
5184	33881	48.733292802755	13
5184	34666	49.344400891513	6
5184	34723	49.385102800011	6
5184	35064	49.648438693185	2
5184	35721	50.165990339921	5
5184	36171	50.565990339921	3
5184	36444	50.776102066088	1
5184	36556	50.884650456284	1
5184	36931	51.184503838521	1
5184	37073	51.278261989763	4
5184	37320	51.493239166718	6
5184	37555	51.688024318852	4
5184	39413	53.099858372745	16
5184	40158	53.899858372745	7
5184	40852	54.614430664987	6
5184	41228	54.916373656361	2
5184	41520	55.120297141165	2
5184	42150	55.622106826171	5
5184	42323	55.776991698209	3
5184	42924	56.224603753807	5
5184	43343	56.534703753807	4
5184	43571	56.734703753807	1
5184	43945	57.044803753807	3
5184	44518	57.544803753807	5
5184	44799	57.747857409391	2
5184	45046	57.954235587715	1
5184	45346	58.212255224541	1
5184	45586	58.423650391571	1
5184	45639	58.468902965994	1
5184	45724	58.526504504588	1
5184	45802	58.62186776345	10
5184	46329	59.036849145061	5
5184	47496	60.036849145061	10
5184	48013	60.445113271894	3
5184	48391	60.758638591922	4
5184	48475	60.852192935657	3
5184	48632	60.968259231031	1
5184	49265	61.468992294463	4
5184	49823	61.856621273808	11
5184	49826	61.857617210643	11
5184	50281	62.173273099971	3
5184	50713	62.573273099971	5
5184	50969	62.775817462378	1
5184	51328	63.077069462323	2
5184	51847	63.487169462323	4
5184	52185	63.787169462323	2
5184	52439	63.995085211146	2
5184	52815	64.319056599583	3
5184	53832	65.131046923336	8
5184	55162	66.431046923336	13
5184	55459	66.748523460302	2
5184	55498	66.775344732101	2
5184	55774	67.005477453464	0
5184	56147	67.376304713629	7
5184	56366	67.511241610933	4
5184	56600	67.714621539893	1
5184	56625	67.751878314692	10
5184	56651	67.768571789519	0
5184	58000	68.868571789519	10
5184	59175	69.770615644464	10
5184	59437	69.961652871895	9
5184	59807	70.272577839623	5
5184	60626	70.987595146397	8
5184	61217	71.496022516303	4
5184	61764	71.916230694619	3
5184	62022	72.116230694619	1
5184	62957	72.826330694619	8
5184	63357	73.231056458842	3
5184	65303	74.641156458842	15
5184	65798	75.141156458842	4
5184	66331	75.644409994644	4
5184	66571	75.888293362399	5
5184	66929	76.198393362399	3
5184	69030	77.998393362399	18
5184	69417	78.302350074864	2
5184	70407	79.073449828396	8
5184	70708	79.29123750711	2
5184	71020	79.49123750711	1
5184	71310	79.743825042716	2
5184	72359	80.665204999127	9
5184	72748	81.056652765007	1
5184	73701	81.866752765007	9
5184	74187	82.266752765007	3
5184	75296	83.180856650702	3
5184	76476	84.080856650702	9
5184	76823	84.389588931617	2
5184	77149	84.690916794263	2
5184	77324	84.841388134241	2
5184	77362	84.881310546777	2
5184	77374	84.899232531917	1
5184	77795	85.210889859276	3
5184	78187	85.510889859276	2
5184	78695	85.919074152439	3
5184	79009	86.229018792678	2
5184	79195	86.398347872088	2
5184	79240	86.471261524177	5
5184	79453	86.674837369267	1
5184	79620	86.872587237902	1
5184	80644	87.884321574786	10
5184	81351	88.484321574786	5
5184	81946	88.994421574786	5
5184	82918	89.894421574786	8
5184	83125	90.10131623188	1
5184	83881	90.71141623188	8
5184	84661	91.51141623188	7
5184	85084	91.910260126436	1
5184	85414	92.214802561147	2
5184	85416	92.216308303716	6
5184	86817	93.326408303716	13
5184	87435	93.826408303716	4
5184	87762	94.134086699151	2
5184	87794	94.174760603934	4
5184	88308	94.594734129876	4
5184	88839	95.094734129876	4
5184	89174	95.397204805419	2
5184	89802	96.007304805419	6
5184	90017	96.207304805419	1
5184	90577	96.708473620998	4
5184	90602	96.730686884413	4
5184	90995	97.017376848863	2
5184	91176	97.135713259268	3
5184	91633	97.450000941457	3
5184	92697	98.350000941457	9
5184	93029	98.650729134801	2
5184	93682	99.155566539225	4
5184	94796	100.057418346317	8
5184	95253	100.3641344056	2
5184	95622	100.668370176833	2
5184	96006	100.973188261927	2
5184	96261	101.185901251304	3
5184	96929	101.705347135075	5
5184	97714	102.505347135075	7
5184	97972	102.709752051938	1
5184	98302	103.009819182241	2
5184	98704	103.351491964299	3
5184	98915	103.522225727144	4
5184	98971	103.555625455773	1
5184	98975	103.556277889581	1
5184	98987	103.559809946368	1
5184	99333	103.849540712831	2
5184	99957	104.368693768004	5
5184	100189	104.568693768004	2
5184	100233	104.582839991576	0
5184	100519	104.882839991576	2
5184	101091	105.392663268372	4
5184	101391	105.664366753194	5
5184	101461	105.701905550995	2
5184	101465	105.705055763698	2
5184	101595	105.819375345953	4
5184	102143	106.236510882495	4
5184	102566	106.627580973205	1
5184	102691	106.737680973205	1
5184	103370	107.337680973205	6
5184	103730	107.638018700984	2
5184	103847	107.747954398375	0
5184	104508	108.351919243815	5
5184	105379	109.068534112741	7
5184	106177	109.768534112741	6
5184	106403	109.978374374886	1
5184	106914	110.385604240747	4
5184	107188	110.593374550081	1
5184	108083	111.391726944541	3
5184	108226	111.501011395112	9
5184	108459	111.718865135989	2
5184	109257	112.418865135989	6
5184	109698	112.819476199677	3
5184	110176	113.229012654917	3
5184	110972	113.914555853033	10
5184	111022	113.93874615265	6
5184	111089	114.007705581432	6
5184	111364	114.245659153095	2
5184	111695	114.512859621443	5
5184	111701	114.516963678098	5
5184	111708	114.523027084054	5
5184	112417	115.135402567409	7
5184	113291	115.935402567409	7
5184	113664	116.241469780557	2
5184	114750	117.059144109381	9
5184	115448	117.559144109381	4
5184	115932	117.964839040891	3
5184	115961	118.003039645751	2
5184	116200	118.201469866074	3
5184	116656	118.619550791018	5
5184	117411	119.224371221122	6
5184	117814	119.534471221122	3
5184	118514	120.134471221122	5
5184	119030	120.574151809796	4
5184	119213	120.743119391249	5
5184	119431	120.951724966014	1
5184	119452	120.976640744691	3
5184	119482	120.988543470174	1
5184	119518	121.009326469169	0
5184	119992	121.509326469169	4
5184	120389	121.912632216992	3
5184	121046	122.424595860158	5
5184	121273	122.624595860158	1
5184	121787	122.93781997132	1
5184	123261	124.23781997132	12
5184	123517	124.442333229986	2
5184	123569	124.509665376524	1
5184	123727	124.647593802672	1
5184	123805	124.711395292189	1
5184	125359	125.932415097458	13
5184	126241	126.837835044753	8
5184	126508	127.047935044753	3
5184	127091	127.547935044753	5
5184	127805	128.14962808315	7
5184	128294	128.554592679953	11
5184	128305	128.558453913417	3
5184	128989	129.16160705927	5
5184	128997	129.16743754558	5
5184	129178	129.334551796553	5
5184	129424	129.570157549704	3
5184	129426	129.571318713375	3
5184	130145	130.185293318113	6
5184	130796	130.785293318113	5
5184	131862	131.600871881193	7
5184	132420	132.100871881193	4
5184	133164	132.702076372043	5
5184	133450	132.917176242074	4
5184	133828	133.232507903067	2
5184	133902	133.303636625651	5
5184	134112	133.440397329275	1
5184	134602	133.858769111028	4
5184	134811	134.058769111028	1
5184	135169	134.46581555718	3
5184	135333	134.675162497273	1
5185	63	20.11	0.875
5185	386	20.61	0.5
5185	649	21.017827487117	0.625
5185	984	21.418181332989	0.625
5185	1110	21.529983589325	0.75
5185	1653	21.942758705433	0.5
5185	1916	22.142758705433	0.875
5185	2315	22.444909745835	0.75
5185	2498	22.549689944741	0.875
5185	2742	22.705248876752	0.75
5185	2993	22.918570073812	0.875
5185	3485	23.331663735235	0.5
5185	3887	23.631663735235	0.75
5185	4363	24.039280204126	0.625
5185	5812	25.255932826861	-0.5
5185	7101	26.355932826861	-0.25
5185	7386	26.56583914701	0.875
5185	7577	26.771368463543	0.875
5185	8186	27.285117851931	0.25
5185	9060	28.185117851931	-0.125
5185	9378	28.51712921916	0.75
5185	9697	28.819007219962	0.75
5185	10372	29.437012578571	0.33333331346512
5185	10776	29.737012578571	0.75
5185	12362	31.04160889664	-0.625
5185	12593	31.249442113316	0.875
5185	13073	31.651580597869	0.625
5185	13992	32.351307047486	0.125
5185	13997	32.352931471987	0.25
5185	14226	32.560103709715	0.875
5185	14228	32.560123879432	0.875
5185	14646	32.870223879432	0.625
5185	15134	33.193382512172	1
5185	15594	33.570223879432	0.25
5185	16154	34.080323879432	0.375
5185	16937	34.780323879432	0.125
5185	17279	35.086586345117	0.75
5185	17559	35.296686345117	0.75
5185	17747	35.496686345117	0.875
5185	19259	36.802628022971	-0.625
5185	20543	37.813234911314	-0.25
5185	20954	38.134371876815	0.875
5185	21207	38.3453549029	0.875
5185	21876	38.8554549029	0.375
5185	22802	39.662630373217	0.375
5185	23195	39.974439675501	0.625
5185	23571	40.274439675501	0.75
5185	23678	40.383506277482	1
5185	23808	40.506016386726	1
5185	25461	42.006016386726	-0.75
5185	25715	42.208319762937	0.75
5185	25963	42.418877781947	0.75
5185	26718	43.018877781947	0.375
5185	26846	43.128512599238	0.375
5185	27144	43.34661122767	0.75
5185	27544	43.64661122767	0.75
5185	28165	44.148133317376	0.5
5185	28423	44.37068770403	0.875
5185	28701	44.58078770403	0.75
5185	29199	44.98078770403	0.625
5185	29510	45.184688215869	0.75
5185	29785	45.392517189635	0.875
5185	30374	45.89831679451	0.5
5185	30399	45.909385439983	0.875
5185	30470	45.99498383897	0
5185	30750	46.208282744424	0.75
5185	31473	46.808282744424	0.375
5185	32008	47.215636548607	0.625
5185	32447	47.533292802755	0.625
5185	33881	48.733292802755	-0.625
5185	34666	49.344400891513	0.25
5185	34723	49.385102800011	0.25
5185	35064	49.648438693185	0.75
5185	35721	50.165990339921	0.375
5185	36171	50.565990339921	0.625
5185	36444	50.776102066088	0.875
5185	36556	50.884650456284	0.875
5185	36931	51.184503838521	0.875
5185	37073	51.278261989763	0.5
5185	37320	51.493239166718	0.25
5185	37555	51.688024318852	0.5
5185	39413	53.099858372745	-1
5185	40158	53.899858372745	0.125
5185	40852	54.614430664987	0.25
5185	41228	54.916373656361	0.75
5185	41520	55.120297141165	0.75
5185	42150	55.622106826171	0.375
5185	42323	55.776991698209	0.625
5185	42924	56.224603753807	0.375
5185	43343	56.534703753807	0.5
5185	43571	56.734703753807	0.875
5185	43945	57.044803753807	0.625
5185	44518	57.544803753807	0.375
5185	44799	57.747857409391	0.75
5185	45046	57.954235587715	0.875
5185	45346	58.212255224541	0.875
5185	45586	58.423650391571	0.875
5185	45639	58.468902965994	0.875
5185	45724	58.526504504588	0.875
5185	45802	58.62186776345	-0.25
5185	46329	59.036849145061	0.375
5185	47496	60.036849145061	-0.25
5185	48013	60.445113271894	0.625
5185	48391	60.758638591922	0.5
5185	48475	60.852192935657	0.625
5185	48632	60.968259231031	0.875
5185	49265	61.468992294463	0.5
5185	49823	61.856621273808	-0.375
5185	49826	61.857617210643	-0.375
5185	50281	62.173273099971	0.625
5185	50713	62.573273099971	0.375
5185	50969	62.775817462378	0.875
5185	51328	63.077069462323	0.75
5185	51847	63.487169462323	0.5
5185	52185	63.787169462323	0.75
5185	52439	63.995085211146	0.75
5185	52815	64.319056599583	0.625
5185	53832	65.131046923336	0
5185	55162	66.431046923336	-0.625
5185	55459	66.748523460302	0.75
5185	55498	66.775344732101	0.75
5185	55774	67.005477453464	1
5185	56147	67.376304713629	0.125
5185	56366	67.511241610933	0.5
5185	56600	67.714621539893	0.875
5185	56625	67.751878314692	-0.25
5185	56651	67.768571789519	1
5185	58000	68.868571789519	-0.25
5185	59175	69.770615644464	-0.25
5185	59437	69.961652871895	-0.125
5185	59807	70.272577839623	0.375
5185	60626	70.987595146397	0
5185	61217	71.496022516303	0.5
5185	61764	71.916230694619	0.625
5185	62022	72.116230694619	0.875
5185	62957	72.826330694619	0
5185	63357	73.231056458842	0.625
5185	65303	74.641156458842	-0.875
5185	65798	75.141156458842	0.5
5185	66331	75.644409994644	0.5
5185	66571	75.888293362399	0.375
5185	66929	76.198393362399	0.625
5185	69030	77.998393362399	-1.25
5185	69417	78.302350074864	0.75
5185	70407	79.073449828396	0
5185	70708	79.29123750711	0.75
5185	71020	79.49123750711	0.875
5185	71310	79.743825042716	0.75
5185	72359	80.665204999127	-0.125
5185	72748	81.056652765007	0.875
5185	73701	81.866752765007	-0.125
5185	74187	82.266752765007	0.625
5185	75296	83.180856650702	0.625
5185	76476	84.080856650702	-0.125
5185	76823	84.389588931617	0.75
5185	77149	84.690916794263	0.75
5185	77324	84.841388134241	0.75
5185	77362	84.881310546777	0.75
5185	77374	84.899232531917	0.875
5185	77795	85.210889859276	0.625
5185	78187	85.510889859276	0.75
5185	78695	85.919074152439	0.625
5185	79009	86.229018792678	0.75
5185	79195	86.398347872088	0.75
5185	79240	86.471261524177	0.375
5185	79453	86.674837369267	0.875
5185	79620	86.872587237902	0.875
5185	80644	87.884321574786	-0.25
5185	81351	88.484321574786	0.375
5185	81946	88.994421574786	0.375
5185	82918	89.894421574786	0
5185	83125	90.10131623188	0.875
5185	83881	90.71141623188	0
5185	84661	91.51141623188	0.125
5185	85084	91.910260126436	0.875
5185	85414	92.214802561147	0.75
5185	85416	92.216308303716	0.25
5185	86817	93.326408303716	-0.625
5185	87435	93.826408303716	0.5
5185	87762	94.134086699151	0.75
5185	87794	94.174760603934	0.5
5185	88308	94.594734129876	0.5
5185	88839	95.094734129876	0.5
5185	89174	95.397204805419	0.75
5185	89802	96.007304805419	0.25
5185	90017	96.207304805419	0.875
5185	90577	96.708473620998	0.5
5185	90602	96.730686884413	0.5
5185	90995	97.017376848863	0.75
5185	91176	97.135713259268	0.625
5185	91633	97.450000941457	0.625
5185	92697	98.350000941457	-0.125
5185	93029	98.650729134801	0.75
5185	93682	99.155566539225	0.5
5185	94796	100.057418346317	0
5185	95253	100.3641344056	0.75
5185	95622	100.668370176833	0.75
5185	96006	100.973188261927	0.75
5185	96261	101.185901251304	0.625
5185	96929	101.705347135075	0.375
5185	97714	102.505347135075	0.125
5185	97972	102.709752051938	0.875
5185	98302	103.009819182241	0.75
5185	98704	103.351491964299	0.625
5185	98915	103.522225727144	0.5
5185	98971	103.555625455773	0.875
5185	98975	103.556277889581	0.875
5185	98987	103.559809946368	0.875
5185	99333	103.849540712831	0.75
5185	99957	104.368693768004	0.375
5185	100189	104.568693768004	0.75
5185	100233	104.582839991576	1
5185	100519	104.882839991576	0.75
5185	101091	105.392663268372	0.5
5185	101391	105.664366753194	0.375
5185	101461	105.701905550995	0.75
5185	101465	105.705055763698	0.75
5185	101595	105.819375345953	0.5
5185	102143	106.236510882495	0.5
5185	102566	106.627580973205	0.875
5185	102691	106.737680973205	0.875
5185	103370	107.337680973205	0.25
5185	103730	107.638018700984	0.75
5185	103847	107.747954398375	1
5185	104508	108.351919243815	0.375
5185	105379	109.068534112741	0.125
5185	106177	109.768534112741	0.25
5185	106403	109.978374374886	0.875
5185	106914	110.385604240747	0.5
5185	107188	110.593374550081	0.875
5185	108083	111.391726944541	0.625
5185	108226	111.501011395112	-0.125
5185	108459	111.718865135989	0.75
5185	109257	112.418865135989	0.25
5185	109698	112.819476199677	0.625
5185	110176	113.229012654917	0.625
5185	110972	113.914555853033	-0.25
5185	111022	113.93874615265	0.25
5185	111089	114.007705581432	0.25
5185	111364	114.245659153095	0.75
5185	111695	114.512859621443	0.375
5185	111701	114.516963678098	0.375
5185	111708	114.523027084054	0.375
5185	112417	115.135402567409	0.125
5185	113291	115.935402567409	0.125
5185	113664	116.241469780557	0.75
5185	114750	117.059144109381	-0.125
5185	115448	117.559144109381	0.5
5185	115932	117.964839040891	0.625
5185	115961	118.003039645751	0.77777777612209
5185	116200	118.201469866074	0.625
5185	116656	118.619550791018	0.375
5185	117411	119.224371221122	0.25
5185	117814	119.534471221122	0.625
5185	118514	120.134471221122	0.375
5185	119030	120.574151809796	0.5
5185	119213	120.743119391249	0.375
5185	119431	120.951724966014	0.875
5185	119452	120.976640744691	0.625
5185	119482	120.988543470174	0.875
5185	119518	121.009326469169	1
5185	119992	121.509326469169	0.5
5185	120389	121.912632216992	0.625
5185	121046	122.424595860158	0.375
5185	121273	122.624595860158	0.875
5185	121787	122.93781997132	0.875
5185	123261	124.23781997132	-0.5
5185	123517	124.442333229986	0.75
5185	123569	124.509665376524	0.875
5185	123727	124.647593802672	0.875
5185	123805	124.711395292189	0.875
5185	125359	125.932415097458	-0.625
5185	126241	126.837835044753	0
5185	126508	127.047935044753	0.625
5185	127091	127.547935044753	0.375
5185	127805	128.14962808315	0.125
5185	128294	128.554592679953	-0.375
5185	128305	128.558453913417	0.625
5185	128989	129.16160705927	0.375
5185	128997	129.16743754558	0.375
5185	129178	129.334551796553	0.375
5185	129424	129.570157549704	0.625
5185	129426	129.571318713375	0.625
5185	130145	130.185293318113	0.25
5185	130796	130.785293318113	0.375
5185	131862	131.600871881193	0.125
5185	132420	132.100871881193	0.5
5185	133164	132.702076372043	0.375
5185	133450	132.917176242074	0.5
5185	133828	133.232507903067	0.75
5185	133902	133.303636625651	0.375
5185	134112	133.440397329275	0.875
5185	134602	133.858769111028	0.5
5185	134811	134.058769111028	0.875
5185	135169	134.46581555718	0.625
5185	135333	134.675162497273	0.875
5186	63	20.11	0.1
5186	386	20.61	0.5
5186	649	21.017827487117	0.4
5186	984	21.418181332989	0.4
5186	1110	21.529983589325	0.3
5186	1653	21.942758705433	0.4
5186	1916	22.142758705433	0.2
5186	2315	22.444909745835	0.3
5186	2498	22.549689944741	0.1
5186	2742	22.705248876752	0.2
5186	2993	22.918570073812	0.2
5186	3485	23.331663735235	0.4
5186	3887	23.631663735235	0.3
5186	4363	24.039280204126	0.4
5186	5812	25.255932826861	1.2
5186	7101	26.355932826861	1.1
5186	7386	26.56583914701	0.2
5186	7577	26.771368463543	0.2
5186	8186	27.285117851931	0.5
5186	9060	28.185117851931	0.9
5186	9378	28.51712921916	0.3
5186	9697	28.819007219962	0.3
5186	10372	29.437012578571	0.6
5186	10776	29.737012578571	0.3
5186	12362	31.04160889664	1.3
5186	12593	31.249442113316	0.2
5186	13073	31.651580597869	0.4
5186	13992	32.351307047486	0.7
5186	13997	32.352931471987	0.7
5186	14226	32.560103709715	0.2
5186	14228	32.560123879432	0.2
5186	14646	32.870223879432	0.3
5186	15134	33.193382512172	0.1
5186	15594	33.570223879432	0.7
5186	16154	34.080323879432	0.5
5186	16937	34.780323879432	0.7
5186	17279	35.086586345117	0.3
5186	17559	35.296686345117	0.2
5186	17747	35.496686345117	0.2
5186	19259	36.802628022971	1.3
5186	20543	37.813234911314	1
5186	20954	38.134371876815	0.2
5186	21207	38.3453549029	0.2
5186	21876	38.8554549029	0.5
5186	22802	39.662630373217	0.6
5186	23195	39.974439675501	0.3
5186	23571	40.274439675501	0.3
5186	23678	40.383506277482	0.1
5186	23808	40.506016386726	0
5186	25461	42.006016386726	1.5
5186	25715	42.208319762937	0.2
5186	25963	42.418877781947	0.2
5186	26718	43.018877781947	0.6
5186	26846	43.128512599238	0.5
5186	27144	43.34661122767	0.2
5186	27544	43.64661122767	0.3
5186	28165	44.148133317376	0.5
5186	28423	44.37068770403	0.2
5186	28701	44.58078770403	0.2
5186	29199	44.98078770403	0.4
5186	29510	45.184688215869	0.2
5186	29785	45.392517189635	0.2
5186	30374	45.89831679451	0.5
5186	30399	45.909385439983	0.2
5186	30470	45.99498383897	0.9
5186	30750	46.208282744424	0.2
5186	31473	46.808282744424	0.6
5186	32008	47.215636548607	0.4
5186	32447	47.533292802755	0.3
5186	33881	48.733292802755	1.2
5186	34666	49.344400891513	0.6
5186	34723	49.385102800011	0.6
5186	35064	49.648438693185	0.3
5186	35721	50.165990339921	0.5
5186	36171	50.565990339921	0.4
5186	36444	50.776102066088	0.2
5186	36556	50.884650456284	0.2
5186	36931	51.184503838521	0.2
5186	37073	51.278261989763	0.5
5186	37320	51.493239166718	0.6
5186	37555	51.688024318852	0.5
5186	39413	53.099858372745	1.4
5186	40158	53.899858372745	0.8
5186	40852	54.614430664987	0.7
5186	41228	54.916373656361	0.3
5186	41520	55.120297141165	0.2
5186	42150	55.622106826171	0.5
5186	42323	55.776991698209	0.4
5186	42924	56.224603753807	0.6
5186	43343	56.534703753807	0.3
5186	43571	56.734703753807	0.2
5186	43945	57.044803753807	0.3
5186	44518	57.544803753807	0.5
5186	44799	57.747857409391	0.2
5186	45046	57.954235587715	0.2
5186	45346	58.212255224541	0.2
5186	45586	58.423650391571	0.2
5186	45639	58.468902965994	0.2
5186	45724	58.526504504588	0.1
5186	45802	58.62186776345	1
5186	46329	59.036849145061	0.4
5186	47496	60.036849145061	1
5186	48013	60.445113271894	0.4
5186	48391	60.758638591922	0.5
5186	48475	60.852192935657	0.4
5186	48632	60.968259231031	0.2
5186	49265	61.468992294463	0.5
5186	49823	61.856621273808	1
5186	49826	61.857617210643	1
5186	50281	62.173273099971	0.3
5186	50713	62.573273099971	0.4
5186	50969	62.775817462378	0.2
5186	51328	63.077069462323	0.3
5186	51847	63.487169462323	0.4
5186	52185	63.787169462323	0.3
5186	52439	63.995085211146	0.2
5186	52815	64.319056599583	0.4
5186	53832	65.131046923336	0.8
5186	55162	66.431046923336	1.3
5186	55459	66.748523460302	0.3
5186	55498	66.775344732101	0.3
5186	55774	67.005477453464	0.1
5186	56147	67.376304713629	0.6
5186	56366	67.511241610933	0.5
5186	56600	67.714621539893	0.2
5186	56625	67.751878314692	1
5186	56651	67.768571789519	0
5186	58000	68.868571789519	1.1
5186	59175	69.770615644464	0.9
5186	59437	69.961652871895	1
5186	59807	70.272577839623	0.5
5186	60626	70.987595146397	0.7
5186	61217	71.496022516303	0.5
5186	61764	71.916230694619	0.3
5186	62022	72.116230694619	0.2
5186	62957	72.826330694619	0.7
5186	63357	73.231056458842	0.4
5186	65303	74.641156458842	1.4
5186	65798	75.141156458842	0.5
5186	66331	75.644409994644	0.5
5186	66571	75.888293362399	0.6
5186	66929	76.198393362399	0.3
5186	69030	77.998393362399	1.8
5186	69417	78.302350074864	0.3
5186	70407	79.073449828396	0.8
5186	70708	79.29123750711	0.2
5186	71020	79.49123750711	0.2
5186	71310	79.743825042716	0.3
5186	72359	80.665204999127	0.8
5186	72748	81.056652765007	0.2
5186	73701	81.866752765007	0.8
5186	74187	82.266752765007	0.4
5186	75296	83.180856650702	0.3
5186	76476	84.080856650702	0.9
5186	76823	84.389588931617	0.3
5186	77149	84.690916794263	0.3
5186	77324	84.841388134241	0.3
5186	77362	84.881310546777	0.3
5186	77374	84.899232531917	0.2
5186	77795	85.210889859276	0.3
5186	78187	85.510889859276	0.3
5186	78695	85.919074152439	0.4
5186	79009	86.229018792678	0.3
5186	79195	86.398347872088	0.3
5186	79240	86.471261524177	0.6
5186	79453	86.674837369267	0.2
5186	79620	86.872587237902	0.2
5186	80644	87.884321574786	1
5186	81351	88.484321574786	0.6