version 2
run Stability-norelink-132-20130525-23:22:51-22103
attr configname Stability-norelink
attr datetime 20130525-23:22:51
attr experiment Stability
attr inifile omnetpp.ini
attr iterationvars $0=1e-7
attr iterationvars2 "$0=1e-7, $repetition=2"
attr measurement $0=1e-7
attr network Network
attr processid 22103
attr repetition 2
attr replication #2
attr resultdir results
attr runnumber 132
attr seedset 132

vector 12702  Network.dyn_peer[10]  lookupHopsSig:vector  ETV
vector 12703  Network.dyn_peer[10]  lookupStabilitySig:vector  ETV
vector 12704  Network.dyn_peer[10]  lookupTimeSig:vector  ETV
vector 12720  Network.dyn_peer[16]  lookupHopsSig:vector  ETV
vector 12721  Network.dyn_peer[16]  lookupStabilitySig:vector  ETV
vector 12722  Network.dyn_peer[16]  lookupTimeSig:vector  ETV
vector 12723  Network.dyn_peer[17]  lookupHopsSig:vector  ETV
vector 12724  Network.dyn_peer[17]  lookupStabilitySig:vector  ETV
vector 12725  Network.dyn_peer[17]  lookupTimeSig:vector  ETV
vector 12753  Network.dyn_peer[27]  lookupHopsSig:vector  ETV
vector 12754  Network.dyn_peer[27]  lookupStabilitySig:vector  ETV
vector 12755  Network.dyn_peer[27]  lookupTimeSig:vector  ETV
vector 12756  Network.dyn_peer[28]  lookupHopsSig:vector  ETV
vector 12757  Network.dyn_peer[28]  lookupStabilitySig:vector  ETV
vector 12758  Network.dyn_peer[28]  lookupTimeSig:vector  ETV
vector 12672  Network.dyn_peer[0]  lookupHopsSig:vector  ETV
vector 12673  Network.dyn_peer[0]  lookupStabilitySig:vector  ETV
vector 12674  Network.dyn_peer[0]  lookupTimeSig:vector  ETV
vector 12675  Network.dyn_peer[1]  lookupHopsSig:vector  ETV
vector 12676  Network.dyn_peer[1]  lookupStabilitySig:vector  ETV
vector 12677  Network.dyn_peer[1]  lookupTimeSig:vector  ETV
vector 12678  Network.dyn_peer[2]  lookupHopsSig:vector  ETV
vector 12679  Network.dyn_peer[2]  lookupStabilitySig:vector  ETV
vector 12680  Network.dyn_peer[2]  lookupTimeSig:vector  ETV
vector 12690  Network.dyn_peer[6]  lookupHopsSig:vector  ETV
vector 12691  Network.dyn_peer[6]  lookupStabilitySig:vector  ETV
vector 12692  Network.dyn_peer[6]  lookupTimeSig:vector  ETV
vector 12699  Network.dyn_peer[9]  lookupHopsSig:vector  ETV
vector 12700  Network.dyn_peer[9]  lookupStabilitySig:vector  ETV
vector 12701  Network.dyn_peer[9]  lookupTimeSig:vector  ETV
vector 12708  Network.dyn_peer[12]  lookupHopsSig:vector  ETV
vector 12709  Network.dyn_peer[12]  lookupStabilitySig:vector  ETV
vector 12710  Network.dyn_peer[12]  lookupTimeSig:vector  ETV
vector 12741  Network.dyn_peer[23]  lookupHopsSig:vector  ETV
vector 12742  Network.dyn_peer[23]  lookupStabilitySig:vector  ETV
vector 12743  Network.dyn_peer[23]  lookupTimeSig:vector  ETV
vector 12744  Network.dyn_peer[24]  lookupHopsSig:vector  ETV
vector 12745  Network.dyn_peer[24]  lookupStabilitySig:vector  ETV
vector 12746  Network.dyn_peer[24]  lookupTimeSig:vector  ETV
vector 12750  Network.dyn_peer[26]  lookupHopsSig:vector  ETV
vector 12751  Network.dyn_peer[26]  lookupStabilitySig:vector  ETV
vector 12752  Network.dyn_peer[26]  lookupTimeSig:vector  ETV
vector 12681  Network.dyn_peer[3]  lookupHopsSig:vector  ETV
vector 12682  Network.dyn_peer[3]  lookupStabilitySig:vector  ETV
vector 12683  Network.dyn_peer[3]  lookupTimeSig:vector  ETV
vector 12684  Network.dyn_peer[4]  lookupHopsSig:vector  ETV
vector 12685  Network.dyn_peer[4]  lookupStabilitySig:vector  ETV
vector 12686  Network.dyn_peer[4]  lookupTimeSig:vector  ETV
vector 12687  Network.dyn_peer[5]  lookupHopsSig:vector  ETV
vector 12688  Network.dyn_peer[5]  lookupStabilitySig:vector  ETV
vector 12689  Network.dyn_peer[5]  lookupTimeSig:vector  ETV
vector 12711  Network.dyn_peer[13]  lookupHopsSig:vector  ETV
vector 12712  Network.dyn_peer[13]  lookupStabilitySig:vector  ETV
vector 12713  Network.dyn_peer[13]  lookupTimeSig:vector  ETV
vector 12714  Network.dyn_peer[14]  lookupHopsSig:vector  ETV
vector 12715  Network.dyn_peer[14]  lookupStabilitySig:vector  ETV
vector 12716  Network.dyn_peer[14]  lookupTimeSig:vector  ETV
vector 12738  Network.dyn_peer[22]  lookupHopsSig:vector  ETV
vector 12739  Network.dyn_peer[22]  lookupStabilitySig:vector  ETV
vector 12740  Network.dyn_peer[22]  lookupTimeSig:vector  ETV
vector 12765  Network.dyn_peer[31]  lookupHopsSig:vector  ETV
vector 12766  Network.dyn_peer[31]  lookupStabilitySig:vector  ETV
vector 12767  Network.dyn_peer[31]  lookupTimeSig:vector  ETV
vector 12693  Network.dyn_peer[7]  lookupHopsSig:vector  ETV
vector 12694  Network.dyn_peer[7]  lookupStabilitySig:vector  ETV
vector 12695  Network.dyn_peer[7]  lookupTimeSig:vector  ETV
vector 12696  Network.dyn_peer[8]  lookupHopsSig:vector  ETV
vector 12697  Network.dyn_peer[8]  lookupStabilitySig:vector  ETV
vector 12698  Network.dyn_peer[8]  lookupTimeSig:vector  ETV
vector 12705  Network.dyn_peer[11]  lookupHopsSig:vector  ETV
vector 12706  Network.dyn_peer[11]  lookupStabilitySig:vector  ETV
vector 12707  Network.dyn_peer[11]  lookupTimeSig:vector  ETV
vector 12729  Network.dyn_peer[19]  lookupHopsSig:vector  ETV
vector 12730  Network.dyn_peer[19]  lookupStabilitySig:vector  ETV
vector 12731  Network.dyn_peer[19]  lookupTimeSig:vector  ETV
vector 12732  Network.dyn_peer[20]  lookupHopsSig:vector  ETV
vector 12733  Network.dyn_peer[20]  lookupStabilitySig:vector  ETV
vector 12734  Network.dyn_peer[20]  lookupTimeSig:vector  ETV
vector 12735  Network.dyn_peer[21]  lookupHopsSig:vector  ETV
vector 12736  Network.dyn_peer[21]  lookupStabilitySig:vector  ETV
vector 12737  Network.dyn_peer[21]  lookupTimeSig:vector  ETV
vector 12747  Network.dyn_peer[25]  lookupHopsSig:vector  ETV
vector 12748  Network.dyn_peer[25]  lookupStabilitySig:vector  ETV
vector 12749  Network.dyn_peer[25]  lookupTimeSig:vector  ETV
vector 12759  Network.dyn_peer[29]  lookupHopsSig:vector  ETV
vector 12760  Network.dyn_peer[29]  lookupStabilitySig:vector  ETV
vector 12761  Network.dyn_peer[29]  lookupTimeSig:vector  ETV
vector 12717  Network.dyn_peer[15]  lookupHopsSig:vector  ETV
vector 12718  Network.dyn_peer[15]  lookupStabilitySig:vector  ETV
vector 12719  Network.dyn_peer[15]  lookupTimeSig:vector  ETV
vector 12726  Network.dyn_peer[18]  lookupHopsSig:vector  ETV
vector 12727  Network.dyn_peer[18]  lookupStabilitySig:vector  ETV
vector 12728  Network.dyn_peer[18]  lookupTimeSig:vector  ETV
vector 12762  Network.dyn_peer[30]  lookupHopsSig:vector  ETV
vector 12763  Network.dyn_peer[30]  lookupStabilitySig:vector  ETV
vector 12764  Network.dyn_peer[30]  lookupTimeSig:vector  ETV
12672	149	20.1000000001	1
12672	400	20.5000000001	3
12672	1200	21.404761300621	6
12672	1408	21.539714745979	5
12672	1429	21.602892925026	5
12672	1471	21.609349636575	11
12672	1709	21.806306743001	3
12672	2009	22.013529174233	1
12672	2035	22.016036820919	1
12672	3446	23.116136821019	13
12672	3939	23.516136821019	3
12672	4497	24.021245203839	4
12672	4983	24.421345203939	4
12672	5222	24.621345203939	1
12672	6569	25.739133598198	10
12672	6933	26.039133598198	2
12672	7312	26.340262556454	2
12672	7994	26.849009659323	2
12672	8104	26.944710009478	5
12672	8236	27.054796776522	2
12672	9263	27.864128789665	9
12672	10144	28.664128789665	7
12672	11353	29.671783983046	11
12672	11977	30.171783983046	4
12672	12235	30.379964377747	1
12672	13091	31.180064377847	8
12672	13352	31.480064377847	2
12672	14165	32.187190841056	7
12672	14182	32.187290841156	0
12672	14649	32.587290841156	3
12672	15024	32.89545595015	2
12672	15753	33.507720512606	6
12672	15805	33.524436367461	4
12672	16008	33.7221850815	1
12672	16149	33.8222850816	2
12672	16636	34.142815222803	1
12672	16866	34.346379256704	2
12672	17188	34.652970995697	2
12672	17981	35.326994245886	8
12672	18224	35.534739805646	1
12672	19070	36.237375701732	7
12672	19577	36.637375701732	3
12672	21722	38.446687500845	20
12672	22746	39.246687500845	8
12672	23125	39.547633928819	2
12672	24041	40.252671593429	7
12672	24044	40.253824401586	7
12672	24830	40.858776321678	5
12672	24833	40.85982782197	5
12672	25448	41.46190064248	5
12672	25451	41.467163568828	5
12672	25855	41.769863837031	2
12672	25872	41.773936435335	2
12672	25882	41.77624156914	2
12672	26045	41.87953983701	2
12672	26705	42.382079482796	3
12672	27340	42.882079482796	4
12672	28239	43.585739341082	7
12672	28543	43.890209863939	2
12672	28943	44.292821193184	4
12672	29213	44.592821193184	2
12672	29753	45.096921466356	4
12672	30615	45.805147656271	6
12672	31492	46.410528526584	5
12672	31677	46.52160425257	4
12672	31905	46.723847318122	1
12672	31911	46.727829732446	13
12672	32412	47.229363138224	5
12672	33071	47.829363138224	6
12672	33141	47.912611752401	4
12672	33695	48.332372742476	5
12672	33769	48.419834303077	4
12672	34210	48.72620450368	3
12672	34235	48.736381657378	3
12672	34416	48.914984424795	3
12672	34596	49.051391189319	2
12672	35595	49.851583378898	11
12672	36044	50.251583378898	3
12672	36242	50.451659972028	2
12672	36683	50.957130969022	4
12672	36696	50.96803347443	4
12672	37860	52.075177975985	11
12672	39123	53.046201429416	8
12672	39519	53.346201429416	2
12672	39792	53.551973407575	2
12672	40669	54.197613705633	2
12672	41085	54.497613705633	2
12672	41815	55.100294028747	5
12672	41950	55.205435682049	0
12672	42297	55.511722645042	2
12672	42581	55.716086522776	3
12672	42883	55.971171344328	3
12672	43394	56.379122783949	4
12672	44164	57.065498955908	5
12672	44945	57.665498955908	5
12672	45220	57.86829046226	1
12672	45256	57.914795050029	1
12672	46187	58.71889440738	8
12672	47491	59.81889440738	11
12672	47774	60.02768715747	1
12672	48260	60.435252174295	4
12672	48536	60.65605609404	1
12672	48613	60.739599551255	7
12672	48770	60.863519578162	1
12672	48777	60.870518007452	1
12672	49035	61.079066843645	3
12672	49526	61.579066843645	4
12672	50972	62.59686797457	12
12672	51669	63.20423177364	5
12672	51887	63.419324029461	2
12672	52198	63.706450820688	4
12672	52790	64.208841274656	9
12672	52817	64.21277054266	4
12672	52935	64.327890106332	12
12672	53194	64.534578242366	2
12672	53919	65.134578242366	5
12672	54539	65.541211521751	3
12672	55059	65.974303340902	6
12672	55675	66.384227657818	4
12672	55751	66.448606036831	8
12672	55963	66.588593445081	1
12672	56163	66.757809754402	3
12672	56492	66.964296992378	2
12672	57119	67.464296992378	4
12672	57368	67.666234133326	1
12672	57805	67.979587046121	3
12672	58196	68.281869785141	2
12672	59531	69.487757214303	15
12672	60438	70.361150998325	3
12672	60834	70.668700581356	2
12672	61301	70.992360539411	1
12672	61694	71.292360539411	2
12672	62509	71.998622057524	6
12672	63366	72.606292402991	5
12672	63411	72.664207358548	5
12672	63941	73.11442508182	5
12672	64111	73.266351377287	5
12672	64126	73.273356406514	5
12672	64730	73.779446323024	5
12672	65107	74.079446323024	3
12672	65707	74.585794298948	4
12672	66669	75.489251180988	10
12672	67264	75.989251180988	4
12672	67500	76.155281067897	1
12672	67679	76.255381067997	1
12672	68131	76.555381067997	3
12672	69813	77.960839570631	13
12672	70650	78.565731582525	7
12672	70950	78.766640719927	1
12672	71645	79.3672797	5
12672	71951	79.636772713137	1
12672	72027	79.674079166512	3
12672	72201	79.840561146616	5
12672	72328	79.940479428455	2
12672	73020	80.444416866198	5
12672	73584	80.84870742701	3
12672	74605	81.655861572013	9
12672	76168	83.155861572013	14
12672	77002	83.858192446005	8
12672	77583	84.217271138131	6
12672	77622	84.254577911268	8
12672	77731	84.326571906492	3
12672	77782	84.361259035306	6
12672	78431	84.870278359016	5
12672	78816	85.279577065936	3
12672	78991	85.481929698082	1
12672	80102	86.282029698182	9
12672	80712	86.782029698182	4
12672	81090	87.18446083593	3
12672	81136	87.234781233361	3
12672	81316	87.434881233461	1
12672	81329	87.443566989123	1
12672	81566	87.698202621741	5
12672	81569	87.698417489181	5
12672	81752	87.851144626857	3
12672	81778	87.881261050645	2
12672	81957	88.04119147194	5
12672	82251	88.242736054089	2
12672	83133	88.98818592052	4
12672	84363	89.98818592052	10
12672	84378	89.98828592062	0
12672	84619	90.18828592062	1
12672	84895	90.390133284283	2
12672	85172	90.591281671069	2
12672	85357	90.792902267627	1
12672	86145	91.495566573186	6
12672	86389	91.698989791712	2
12672	86718	91.998989791712	2
12672	86960	92.207419405793	1
12672	87497	92.614062408953	3
12672	88072	93.114192795144	4
12672	89276	94.119503194424	10
12672	89572	94.319503194424	1
12672	89993	94.619603194524	4
12672	90674	95.119603194524	5
12672	90933	95.319703194624	2
12672	92225	96.565277845505	2
12672	92604	96.870182716773	2
12672	92610	96.870546974692	2
12672	92681	96.919703194624	19
12672	93307	97.429414550395	5
12672	94006	97.929414550395	4
12672	95009	98.639019599147	6
12672	96362	99.74404940576	10
12672	96498	99.845854256622	0
12672	96852	100.1501440812	2
12672	96874	100.188580531504	14
12672	97047	100.297679479934	1
12672	97523	100.697679479934	3
12672	97903	101.005360822821	2
12672	98489	101.5108624057	3
12672	99063	102.1108624057	5
12672	99311	102.319098582688	1
12672	100097	103.019591585955	7
12672	100577	103.419591585955	3
12672	101277	104.035260581943	4
12672	101496	104.226091167534	7
12672	101641	104.311541796899	7
12672	102507	104.911641796999	7
12672	102801	105.111641796999	1
12672	103953	105.920735818663	5
12672	104320	106.220735818663	2
12672	104532	106.442765718612	1
12672	106030	107.671341449723	13
12672	107276	108.577595026865	11
12672	107926	109.077595026865	5
12672	108384	109.483820918604	3
12672	108754	109.790021840311	3
12672	109626	110.590021840311	7
12672	110219	110.990121840411	5
12672	110454	111.190121840411	1
12672	111123	111.892598236973	6
12672	111397	112.20081244323	2
12672	111833	112.609673879077	3
12672	112033	112.815488023066	1
12672	112192	112.922177853389	3
12672	112195	112.922492695955	5
12672	112412	113.126565705128	1
12672	112428	113.130356832769	1
12672	112638	113.334003810586	1
12672	112641	113.339980964959	1
12672	113277	113.940134105999	7
12672	113480	114.140134105999	1
12672	115208	115.555268026008	13
12672	115603	115.759783432744	1
12672	115927	115.962014386583	2
12672	116648	116.462014386583	4
12672	117943	117.368069185178	9
12672	118216	117.572682716137	1
12672	118512	117.778253974717	1
12672	118737	117.968986076126	9
12672	119002	118.169910913724	2
12672	119688	118.769910913724	5
12672	120319	119.479331077017	6
12672	120850	119.981808174779	4
12672	121208	120.291472399756	2
12672	121362	120.398383460593	1
12672	121517	120.498383460593	0
12672	121791	120.69990379951	1
12672	122430	121.108128189781	4
12672	122690	121.313066587218	1
12672	123350	121.913166587318	6
12672	124239	122.613166587318	6
12672	124750	123.032236041512	2
12672	124850	123.117774797081	5
12672	125339	123.434642654959	3
12672	125767	123.749052076256	2
12672	125786	123.798111176877	4
12672	126676	124.40545144515	7
12672	126924	124.60545144515	1
12672	127287	124.907509813787	2
12672	128481	125.807609813887	10
12672	129314	126.507609813887	6
12672	130066	127.110668133686	5
12672	130089	127.126317175078	4
12672	130360	127.335049517211	1
12672	131721	128.335149517311	10
12672	133036	129.358967725481	5
12672	133546	129.758967725481	3
12672	133788	129.961118031928	2
12672	134315	130.440682989865	5
12672	134383	130.462882068074	4
12672	134458	130.553225268479	4
12672	134745	130.762463774312	2
12672	135057	131.063037133241	2
12672	135645	131.465249321852	4
12672	136401	132.065249321852	6
12672	136651	132.371232456502	2
12672	136900	132.987043906032	6
12672	136918	133.203543733365	1
12673	149	20.1000000001	0.875
12673	400	20.5000000001	0.625
12673	1200	21.404761300621	0.25
12673	1408	21.539714745979	0.375
12673	1429	21.602892925026	0.375
12673	1471	21.609349636575	-0.375
12673	1709	21.806306743001	0.625
12673	2009	22.013529174233	0.875
12673	2035	22.016036820919	0.875
12673	3446	23.116136821019	-0.625
12673	3939	23.516136821019	0.625
12673	4497	24.021245203839	0.5
12673	4983	24.421345203939	0.5
12673	5222	24.621345203939	0.875
12673	6569	25.739133598198	-0.25
12673	6933	26.039133598198	0.75
12673	7312	26.340262556454	0.75
12673	7994	26.849009659323	0.75
12673	8104	26.944710009478	0.375
12673	8236	27.054796776522	0.75
12673	9263	27.864128789665	-0.125
12673	10144	28.664128789665	0.125
12673	11353	29.671783983046	-0.375
12673	11977	30.171783983046	0.5
12673	12235	30.379964377747	0.875
12673	13091	31.180064377847	0
12673	13352	31.480064377847	0.75
12673	14165	32.187190841056	0.125
12673	14182	32.187290841156	1
12673	14649	32.587290841156	0.625
12673	15024	32.89545595015	0.75
12673	15753	33.507720512606	0.25
12673	15805	33.524436367461	0.5
12673	16008	33.7221850815	0.875
12673	16149	33.8222850816	0.75
12673	16636	34.142815222803	0.875
12673	16866	34.346379256704	0.75
12673	17188	34.652970995697	0.75
12673	17981	35.326994245886	0
12673	18224	35.534739805646	0.875
12673	19070	36.237375701732	0.125
12673	19577	36.637375701732	0.625
12673	21722	38.446687500845	-1.5
12673	22746	39.246687500845	0
12673	23125	39.547633928819	0.75
12673	24041	40.252671593429	0.125
12673	24044	40.253824401586	0.125
12673	24830	40.858776321678	0.375
12673	24833	40.85982782197	0.375
12673	25448	41.46190064248	0.375
12673	25451	41.467163568828	0.375
12673	25855	41.769863837031	0.75
12673	25872	41.773936435335	0.75
12673	25882	41.77624156914	0.75
12673	26045	41.87953983701	0.75
12673	26705	42.382079482796	0.625
12673	27340	42.882079482796	0.5
12673	28239	43.585739341082	0.125
12673	28543	43.890209863939	0.75
12673	28943	44.292821193184	0.5
12673	29213	44.592821193184	0.75
12673	29753	45.096921466356	0.5
12673	30615	45.805147656271	0.25
12673	31492	46.410528526584	0.375
12673	31677	46.52160425257	0.5
12673	31905	46.723847318122	0.875
12673	31911	46.727829732446	-0.625
12673	32412	47.229363138224	0.375
12673	33071	47.829363138224	0.25
12673	33141	47.912611752401	0.5
12673	33695	48.332372742476	0.375
12673	33769	48.419834303077	0.5
12673	34210	48.72620450368	0.625
12673	34235	48.736381657378	0.625
12673	34416	48.914984424795	0.625
12673	34596	49.051391189319	0.75
12673	35595	49.851583378898	-0.375
12673	36044	50.251583378898	0.625
12673	36242	50.451659972028	0.75
12673	36683	50.957130969022	0.5
12673	36696	50.96803347443	0.5
12673	37860	52.075177975985	-0.375
12673	39123	53.046201429416	0
12673	39519	53.346201429416	0.75
12673	39792	53.551973407575	0.75
12673	40669	54.197613705633	0.75
12673	41085	54.497613705633	0.75
12673	41815	55.100294028747	0.375
12673	41950	55.205435682049	1
12673	42297	55.511722645042	0.75
12673	42581	55.716086522776	0.625
12673	42883	55.971171344328	0.625
12673	43394	56.379122783949	0.5
12673	44164	57.065498955908	0.375
12673	44945	57.665498955908	0.375
12673	45220	57.86829046226	0.875
12673	45256	57.914795050029	0.875
12673	46187	58.71889440738	0
12673	47491	59.81889440738	-0.375
12673	47774	60.02768715747	0.875
12673	48260	60.435252174295	0.5
12673	48536	60.65605609404	0.875
12673	48613	60.739599551255	0.125
12673	48770	60.863519578162	0.875
12673	48777	60.870518007452	0.875
12673	49035	61.079066843645	0.625
12673	49526	61.579066843645	0.5
12673	50972	62.59686797457	-0.5
12673	51669	63.20423177364	0.375
12673	51887	63.419324029461	0.75
12673	52198	63.706450820688	0.5
12673	52790	64.208841274656	-0.125
12673	52817	64.21277054266	0.5
12673	52935	64.327890106332	-0.5
12673	53194	64.534578242366	0.75
12673	53919	65.134578242366	0.375
12673	54539	65.541211521751	0.625
12673	55059	65.974303340902	0.25
12673	55675	66.384227657818	0.5
12673	55751	66.448606036831	0
12673	55963	66.588593445081	0.875
12673	56163	66.757809754402	0.625
12673	56492	66.964296992378	0.75
12673	57119	67.464296992378	0.5
12673	57368	67.666234133326	0.875
12673	57805	67.979587046121	0.625
12673	58196	68.281869785141	0.75
12673	59531	69.487757214303	-0.875
12673	60438	70.361150998325	0.625
12673	60834	70.668700581356	0.75
12673	61301	70.992360539411	0.875
12673	61694	71.292360539411	0.75
12673	62509	71.998622057524	0.25
12673	63366	72.606292402991	0.375
12673	63411	72.664207358548	0.375
12673	63941	73.11442508182	0.375
12673	64111	73.266351377287	0.375
12673	64126	73.273356406514	0.375
12673	64730	73.779446323024	0.375
12673	65107	74.079446323024	0.625
12673	65707	74.585794298948	0.5
12673	66669	75.489251180988	-0.25
12673	67264	75.989251180988	0.5
12673	67500	76.155281067897	0.875
12673	67679	76.255381067997	0.875
12673	68131	76.555381067997	0.625
12673	69813	77.960839570631	-0.625
12673	70650	78.565731582525	0.125
12673	70950	78.766640719927	0.875
12673	71645	79.3672797	0.375
12673	71951	79.636772713137	0.875
12673	72027	79.674079166512	0.625
12673	72201	79.840561146616	0.375
12673	72328	79.940479428455	0.75
12673	73020	80.444416866198	0.375
12673	73584	80.84870742701	0.625
12673	74605	81.655861572013	-0.125
12673	76168	83.155861572013	-0.75
12673	77002	83.858192446005	0
12673	77583	84.217271138131	0.25
12673	77622	84.254577911268	0
12673	77731	84.326571906492	0.625
12673	77782	84.361259035306	0.25
12673	78431	84.870278359016	0.375
12673	78816	85.279577065936	0.625
12673	78991	85.481929698082	0.875
12673	80102	86.282029698182	-0.125
12673	80712	86.782029698182	0.5
12673	81090	87.18446083593	0.625
12673	81136	87.234781233361	0.625
12673	81316	87.434881233461	0.875
12673	81329	87.443566989123	0.875
12673	81566	87.698202621741	0.375
12673	81569	87.698417489181	0.375
12673	81752	87.851144626857	0.625
12673	81778	87.881261050645	0.75
12673	81957	88.04119147194	0.375
12673	82251	88.242736054089	0.75
12673	83133	88.98818592052	0.5
12673	84363	89.98818592052	-0.25
12673	84378	89.98828592062	1
12673	84619	90.18828592062	0.875
12673	84895	90.390133284283	0.75
12673	85172	90.591281671069	0.75
12673	85357	90.792902267627	0.875
12673	86145	91.495566573186	0.25
12673	86389	91.698989791712	0.75
12673	86718	91.998989791712	0.75
12673	86960	92.207419405793	0.875
12673	87497	92.614062408953	0.625
12673	88072	93.114192795144	0.5
12673	89276	94.119503194424	-0.25
12673	89572	94.319503194424	0.875
12673	89993	94.619603194524	0.5
12673	90674	95.119603194524	0.375
12673	90933	95.319703194624	0.75
12673	92225	96.565277845505	0.75
12673	92604	96.870182716773	0.75
12673	92610	96.870546974692	0.75
12673	92681	96.919703194624	-1.375
12673	93307	97.429414550395	0.375
12673	94006	97.929414550395	0.5
12673	95009	98.639019599147	0.25
12673	96362	99.74404940576	-0.25
12673	96498	99.845854256622	1
12673	96852	100.1501440812	0.75
12673	96874	100.188580531504	-0.75
12673	97047	100.297679479934	0.875
12673	97523	100.697679479934	0.625
12673	97903	101.005360822821	0.75
12673	98489	101.5108624057	0.625
12673	99063	102.1108624057	0.375
12673	99311	102.319098582688	0.875
12673	100097	103.019591585955	0.125
12673	100577	103.419591585955	0.625
12673	101277	104.035260581943	0.5
12673	101496	104.226091167534	0.125
12673	101641	104.311541796899	0.125
12673	102507	104.911641796999	0.125
12673	102801	105.111641796999	0.875
12673	103953	105.920735818663	0.375
12673	104320	106.220735818663	0.75
12673	104532	106.442765718612	0.875
12673	106030	107.671341449723	-0.625
12673	107276	108.577595026865	-0.375
12673	107926	109.077595026865	0.375
12673	108384	109.483820918604	0.625
12673	108754	109.790021840311	0.625
12673	109626	110.590021840311	0.125
12673	110219	110.990121840411	0.375
12673	110454	111.190121840411	0.875
12673	111123	111.892598236973	0.25
12673	111397	112.20081244323	0.75
12673	111833	112.609673879077	0.625
12673	112033	112.815488023066	0.875
12673	112192	112.922177853389	0.625
12673	112195	112.922492695955	0.375
12673	112412	113.126565705128	0.875
12673	112428	113.130356832769	0.875
12673	112638	113.334003810586	0.875
12673	112641	113.339980964959	0.875
12673	113277	113.940134105999	0.125
12673	113480	114.140134105999	0.875
12673	115208	115.555268026008	-0.625
12673	115603	115.759783432744	0.875
12673	115927	115.962014386583	0.75
12673	116648	116.462014386583	0.5
12673	117943	117.368069185178	-0.125
12673	118216	117.572682716137	0.875
12673	118512	117.778253974717	0.875
12673	118737	117.968986076126	-0.125
12673	119002	118.169910913724	0.75
12673	119688	118.769910913724	0.375
12673	120319	119.479331077017	0.25
12673	120850	119.981808174779	0.5
12673	121208	120.291472399756	0.75
12673	121362	120.398383460593	0.875
12673	121517	120.498383460593	1
12673	121791	120.69990379951	0.875
12673	122430	121.108128189781	0.5
12673	122690	121.313066587218	0.875
12673	123350	121.913166587318	0.25
12673	124239	122.613166587318	0.25
12673	124750	123.032236041512	0.75
12673	124850	123.117774797081	0.375
12673	125339	123.434642654959	0.625
12673	125767	123.749052076256	0.75
12673	125786	123.798111176877	0.5
12673	126676	124.40545144515	0.125
12673	126924	124.60545144515	0.875
12673	127287	124.907509813787	0.75
12673	128481	125.807609813887	-0.25
12673	129314	126.507609813887	0.25
12673	130066	127.110668133686	0.375
12673	130089	127.126317175078	0.5
12673	130360	127.335049517211	0.875
12673	131721	128.335149517311	-0.25
12673	133036	129.358967725481	0.375
12673	133546	129.758967725481	0.625
12673	133788	129.961118031928	0.75
12673	134315	130.440682989865	0.375
12673	134383	130.462882068074	0.5
12673	134458	130.553225268479	0.5
12673	134745	130.762463774312	0.75
12673	135057	131.063037133241	0.75
12673	135645	131.465249321852	0.5
12673	136401	132.065249321852	0.25
12673	136651	132.371232456502	0.75
12673	136900	132.987043906032	0.25
12673	136918	133.203543733365	0.875
12674	149	20.1000000001	0.1
12674	400	20.5000000001	0.4
12674	1200	21.404761300621	0.6
12674	1408	21.539714745979	0.6
12674	1429	21.602892925026	0.6
12674	1471	21.609349636575	1.1
12674	1709	21.806306743001	0.4
12674	2009	22.013529174233	0.2
12674	2035	22.016036820919	0.2
12674	3446	23.116136821019	1.1
12674	3939	23.516136821019	0.4
12674	4497	24.021245203839	0.5
12674	4983	24.421345203939	0.4
12674	5222	24.621345203939	0.2
12674	6569	25.739133598198	0.9
12674	6933	26.039133598198	0.3
12674	7312	26.340262556454	0.3
12674	7994	26.849009659323	0.3
12674	8104	26.944710009478	0.6
12674	8236	27.054796776522	0.2
12674	9263	27.864128789665	0.8
12674	10144	28.664128789665	0.8
12674	11353	29.671783983046	1
12674	11977	30.171783983046	0.5
12674	12235	30.379964377747	0.2
12674	13091	31.180064377847	0.8
12674	13352	31.480064377847	0.3
12674	14165	32.187190841056	0.7
12674	14182	32.187290841156	0
12674	14649	32.587290841156	0.4
12674	15024	32.89545595015	0.3
12674	15753	33.507720512606	0.6
12674	15805	33.524436367461	0.5
12674	16008	33.7221850815	0.2
12674	16149	33.8222850816	0.1
12674	16636	34.142815222803	0.2
12674	16866	34.346379256704	0.2
12674	17188	34.652970995697	0.3
12674	17981	35.326994245886	0.7
12674	18224	35.534739805646	0.2
12674	19070	36.237375701732	0.7
12674	19577	36.637375701732	0.4
12674	21722	38.446687500845	1.8
12674	22746	39.246687500845	0.8
12674	23125	39.547633928819	0.3
12674	24041	40.252671593429	0.7
12674	24044	40.253824401586	0.7
12674	24830	40.858776321678	0.6
12674	24833	40.85982782197	0.6
12674	25448	41.46190064248	0.6
12674	25451	41.467163568828	0.6
12674	25855	41.769863837031	0.3
12674	25872	41.773936435335	0.3
12674	25882	41.77624156914	0.3
12674	26045	41.87953983701	0.1
12674	26705	42.382079482796	0.3
12674	27340	42.882079482796	0.5
12674	28239	43.585739341082	0.7
12674	28543	43.890209863939	0.3
12674	28943	44.292821193184	0.4
12674	29213	44.592821193184	0.3
12674	29753	45.096921466356	0.5
12674	30615	45.805147656271	0.7
12674	31492	46.410528526584	0.6
12674	31677	46.52160425257	0.4
12674	31905	46.723847318122	0.2
12674	31911	46.727829732446	1.3
12674	32412	47.229363138224	0.5
12674	33071	47.829363138224	0.6
12674	33141	47.912611752401	0.5
12674	33695	48.332372742476	0.5
12674	33769	48.419834303077	0.5
12674	34210	48.72620450368	0.3
12674	34235	48.736381657378	0.4
12674	34416	48.914984424795	0.4
12674	34596	49.051391189319	0.3
12674	35595	49.851583378898	0.8
12674	36044	50.251583378898	0.4
12674	36242	50.451659972028	0.2
12674	36683	50.957130969022	0.5
12674	36696	50.96803347443	0.5
12674	37860	52.075177975985	1.1
12674	39123	53.046201429416	0.8
12674	39519	53.346201429416	0.3
12674	39792	53.551973407575	0.2
12674	40669	54.197613705633	0.2
12674	41085	54.497613705633	0.3
12674	41815	55.100294028747	0.6
12674	41950	55.205435682049	0.1
12674	42297	55.511722645042	0.3
12674	42581	55.716086522776	0.4
12674	42883	55.971171344328	0.4
12674	43394	56.379122783949	0.4
12674	44164	57.065498955908	0.4
12674	44945	57.665498955908	0.6
12674	45220	57.86829046226	0.2
12674	45256	57.914795050029	0.2
12674	46187	58.71889440738	0.8
12674	47491	59.81889440738	1.1
12674	47774	60.02768715747	0.2
12674	48260	60.435252174295	0.5
12674	48536	60.65605609404	0.2
12674	48613	60.739599551255	0.7
12674	48770	60.863519578162	0.2
12674	48777	60.870518007452	0.2
12674	49035	61.079066843645	0.2
12674	49526	61.579066843645	0.5
12674	50972	62.59686797457	1
12674	51669	63.20423177364	0.6
12674	51887	63.419324029461	0.3
12674	52198	63.706450820688	0.5
12674	52790	64.208841274656	0.8
12674	52817	64.21277054266	0.5
12674	52935	64.327890106332	0.9
12674	53194	64.534578242366	0.2
12674	53919	65.134578242366	0.6
12674	54539	65.541211521751	0.4
12674	55059	65.974303340902	0.7
12674	55675	66.384227657818	0.4
12674	55751	66.448606036831	0.9
12674	55963	66.588593445081	0.2
12674	56163	66.757809754402	0.3
12674	56492	66.964296992378	0.2
12674	57119	67.464296992378	0.5
12674	57368	67.666234133326	0.2
12674	57805	67.979587046121	0.4
12674	58196	68.281869785141	0.3
12674	59531	69.487757214303	1.2
12674	60438	70.361150998325	0.3
12674	60834	70.668700581356	0.3
12674	61301	70.992360539411	0.1
12674	61694	71.292360539411	0.3
12674	62509	71.998622057524	0.7
12674	63366	72.606292402991	0.6
12674	63411	72.664207358548	0.5
12674	63941	73.11442508182	0.5
12674	64111	73.266351377287	0.6
12674	64126	73.273356406514	0.6
12674	64730	73.779446323024	0.5
12674	65107	74.079446323024	0.3
12674	65707	74.585794298948	0.5
12674	66669	75.489251180988	0.9
12674	67264	75.989251180988	0.5
12674	67500	76.155281067897	0.2
12674	67679	76.255381067997	0.1
12674	68131	76.555381067997	0.3
12674	69813	77.960839570631	1.4
12674	70650	78.565731582525	0.6
12674	70950	78.766640719927	0.2
12674	71645	79.3672797	0.6
12674	71951	79.636772713137	0.2
12674	72027	79.674079166512	0.3
12674	72201	79.840561146616	0.6
12674	72328	79.940479428455	0.3
12674	73020	80.444416866198	0.5