file 901192 1369516736                                          
version 2
run Stability-norelink-73-20130525-23:18:52-22103
attr configname Stability-norelink
attr datetime 20130525-23:18:52
attr experiment Stability
attr inifile omnetpp.ini
attr iterationvars $0=1e-1
attr iterationvars2 "$0=1e-1, $repetition=3"
attr measurement $0=1e-1
attr network Network
attr processid 22103
attr repetition 3
attr replication #3
attr resultdir results
attr runnumber 73
attr seedset 73

vector 7017  Network.dyn_peer[3]  lookupHopsSig:vector  ETV
vector 7018  Network.dyn_peer[3]  lookupStabilitySig:vector  ETV
vector 7019  Network.dyn_peer[3]  lookupTimeSig:vector  ETV
vector 7023  Network.dyn_peer[5]  lookupHopsSig:vector  ETV
vector 7024  Network.dyn_peer[5]  lookupStabilitySig:vector  ETV
vector 7025  Network.dyn_peer[5]  lookupTimeSig:vector  ETV
vector 7092  Network.dyn_peer[28]  lookupHopsSig:vector  ETV
vector 7093  Network.dyn_peer[28]  lookupStabilitySig:vector  ETV
vector 7094  Network.dyn_peer[28]  lookupTimeSig:vector  ETV
vector 7011  Network.dyn_peer[1]  lookupHopsSig:vector  ETV
vector 7012  Network.dyn_peer[1]  lookupStabilitySig:vector  ETV
vector 7013  Network.dyn_peer[1]  lookupTimeSig:vector  ETV
vector 7014  Network.dyn_peer[2]  lookupHopsSig:vector  ETV
vector 7015  Network.dyn_peer[2]  lookupStabilitySig:vector  ETV
vector 7016  Network.dyn_peer[2]  lookupTimeSig:vector  ETV
vector 7026  Network.dyn_peer[6]  lookupHopsSig:vector  ETV
vector 7027  Network.dyn_peer[6]  lookupStabilitySig:vector  ETV
vector 7028  Network.dyn_peer[6]  lookupTimeSig:vector  ETV
vector 7035  Network.dyn_peer[9]  lookupHopsSig:vector  ETV
vector 7036  Network.dyn_peer[9]  lookupStabilitySig:vector  ETV
vector 7037  Network.dyn_peer[9]  lookupTimeSig:vector  ETV
vector 7044  Network.dyn_peer[12]  lookupHopsSig:vector  ETV
vector 7045  Network.dyn_peer[12]  lookupStabilitySig:vector  ETV
vector 7046  Network.dyn_peer[12]  lookupTimeSig:vector  ETV
vector 7056  Network.dyn_peer[16]  lookupHopsSig:vector  ETV
vector 7057  Network.dyn_peer[16]  lookupStabilitySig:vector  ETV
vector 7058  Network.dyn_peer[16]  lookupTimeSig:vector  ETV
vector 7062  Network.dyn_peer[18]  lookupHopsSig:vector  ETV
vector 7063  Network.dyn_peer[18]  lookupStabilitySig:vector  ETV
vector 7064  Network.dyn_peer[18]  lookupTimeSig:vector  ETV
vector 7077  Network.dyn_peer[23]  lookupHopsSig:vector  ETV
vector 7078  Network.dyn_peer[23]  lookupStabilitySig:vector  ETV
vector 7079  Network.dyn_peer[23]  lookupTimeSig:vector  ETV
vector 7080  Network.dyn_peer[24]  lookupHopsSig:vector  ETV
vector 7081  Network.dyn_peer[24]  lookupStabilitySig:vector  ETV
vector 7082  Network.dyn_peer[24]  lookupTimeSig:vector  ETV
vector 7101  Network.dyn_peer[31]  lookupHopsSig:vector  ETV
vector 7102  Network.dyn_peer[31]  lookupStabilitySig:vector  ETV
vector 7103  Network.dyn_peer[31]  lookupTimeSig:vector  ETV
vector 7008  Network.dyn_peer[0]  lookupHopsSig:vector  ETV
vector 7009  Network.dyn_peer[0]  lookupStabilitySig:vector  ETV
vector 7010  Network.dyn_peer[0]  lookupTimeSig:vector  ETV
vector 7020  Network.dyn_peer[4]  lookupHopsSig:vector  ETV
vector 7021  Network.dyn_peer[4]  lookupStabilitySig:vector  ETV
vector 7022  Network.dyn_peer[4]  lookupTimeSig:vector  ETV
vector 7038  Network.dyn_peer[10]  lookupHopsSig:vector  ETV
vector 7039  Network.dyn_peer[10]  lookupStabilitySig:vector  ETV
vector 7040  Network.dyn_peer[10]  lookupTimeSig:vector  ETV
vector 7050  Network.dyn_peer[14]  lookupHopsSig:vector  ETV
vector 7051  Network.dyn_peer[14]  lookupStabilitySig:vector  ETV
vector 7052  Network.dyn_peer[14]  lookupTimeSig:vector  ETV
vector 7053  Network.dyn_peer[15]  lookupHopsSig:vector  ETV
vector 7054  Network.dyn_peer[15]  lookupStabilitySig:vector  ETV
vector 7055  Network.dyn_peer[15]  lookupTimeSig:vector  ETV
vector 7068  Network.dyn_peer[20]  lookupHopsSig:vector  ETV
vector 7069  Network.dyn_peer[20]  lookupStabilitySig:vector  ETV
vector 7070  Network.dyn_peer[20]  lookupTimeSig:vector  ETV
vector 7074  Network.dyn_peer[22]  lookupHopsSig:vector  ETV
vector 7075  Network.dyn_peer[22]  lookupStabilitySig:vector  ETV
vector 7076  Network.dyn_peer[22]  lookupTimeSig:vector  ETV
vector 7086  Network.dyn_peer[26]  lookupHopsSig:vector  ETV
vector 7087  Network.dyn_peer[26]  lookupStabilitySig:vector  ETV
vector 7088  Network.dyn_peer[26]  lookupTimeSig:vector  ETV
vector 7041  Network.dyn_peer[11]  lookupHopsSig:vector  ETV
vector 7042  Network.dyn_peer[11]  lookupStabilitySig:vector  ETV
vector 7043  Network.dyn_peer[11]  lookupTimeSig:vector  ETV
vector 7059  Network.dyn_peer[17]  lookupHopsSig:vector  ETV
vector 7060  Network.dyn_peer[17]  lookupStabilitySig:vector  ETV
vector 7061  Network.dyn_peer[17]  lookupTimeSig:vector  ETV
vector 7065  Network.dyn_peer[19]  lookupHopsSig:vector  ETV
vector 7066  Network.dyn_peer[19]  lookupStabilitySig:vector  ETV
vector 7067  Network.dyn_peer[19]  lookupTimeSig:vector  ETV
vector 7089  Network.dyn_peer[27]  lookupHopsSig:vector  ETV
vector 7090  Network.dyn_peer[27]  lookupStabilitySig:vector  ETV
vector 7091  Network.dyn_peer[27]  lookupTimeSig:vector  ETV
vector 7098  Network.dyn_peer[30]  lookupHopsSig:vector  ETV
vector 7099  Network.dyn_peer[30]  lookupStabilitySig:vector  ETV
vector 7100  Network.dyn_peer[30]  lookupTimeSig:vector  ETV
vector 7029  Network.dyn_peer[7]  lookupHopsSig:vector  ETV
vector 7030  Network.dyn_peer[7]  lookupStabilitySig:vector  ETV
vector 7031  Network.dyn_peer[7]  lookupTimeSig:vector  ETV
vector 7071  Network.dyn_peer[21]  lookupHopsSig:vector  ETV
vector 7072  Network.dyn_peer[21]  lookupStabilitySig:vector  ETV
vector 7073  Network.dyn_peer[21]  lookupTimeSig:vector  ETV
vector 7032  Network.dyn_peer[8]  lookupHopsSig:vector  ETV
vector 7033  Network.dyn_peer[8]  lookupStabilitySig:vector  ETV
vector 7034  Network.dyn_peer[8]  lookupTimeSig:vector  ETV
vector 7047  Network.dyn_peer[13]  lookupHopsSig:vector  ETV
vector 7048  Network.dyn_peer[13]  lookupStabilitySig:vector  ETV
vector 7049  Network.dyn_peer[13]  lookupTimeSig:vector  ETV
vector 7095  Network.dyn_peer[29]  lookupHopsSig:vector  ETV
vector 7096  Network.dyn_peer[29]  lookupStabilitySig:vector  ETV
vector 7097  Network.dyn_peer[29]  lookupTimeSig:vector  ETV
vector 7083  Network.dyn_peer[25]  lookupHopsSig:vector  ETV
vector 7084  Network.dyn_peer[25]  lookupStabilitySig:vector  ETV
vector 7085  Network.dyn_peer[25]  lookupTimeSig:vector  ETV
7008	6399 8799 213 137626 20.2001 137.647915114385 299 0 22 1277 9101
7009	15198 9805 213 137626 20.2001 137.647915114385 299 -1.75 1 139.43055555224 122.01176697163
7010	25003 9355 213 137626 20.2001 137.647915114385 299 0 2.1 141.3 95.41
7011	34358 9156 138 137256 20.1002 136.968473251796 311 0 23 1223 8143
7012	43514 10141 138 137256 20.1002 136.968473251796 311 -1.875 1 158.23611110449 132.49672067754
7013	53655 9730 138 137256 20.1002 136.968473251796 311 0 2.1 136.1 86.37
7014	63385 8633 143 137603 20.1003 137.593280568416 294 0 20 1265 8343
7015	72018 9573 143 137603 20.1003 137.593280568416 294 -1.5 1 135.875 108.109375
7016	81591 9166 143 137603 20.1003 137.593280568416 294 0 1.7 141.2 90.98
7017	90757 8997 39 136954 20.0004 136.558922404853 307 0 17 1232 7940
7018	99754 10019 39 136954 20.0004 136.558922404853 307 -1.125 1 153.04166665673 123.1163194312
7019	109773 9571 39 136954 20.0004 136.558922404853 307 0 1.6 138.9 87.19
7020	119344 8648 221 136873 20.2005 136.4605637442 293 0 21 1291 9081
7021	127992 9623 221 136873 20.2005 136.4605637442 293 -1.625 1 131.65277777612 112.18306326903
7022	137615 9193 221 136873 20.2005 136.4605637442 293 0 1.9 142.1 95.97
7023	146808 8419 49 136630 20.0006 136.250399307647 287 0 23 1210 8464
7024	155227 9385 49 136630 20.0006 136.250399307647 287 -1.875 1 135.75 116.75
7025	164612 8959 49 136630 20.0006 136.250399307647 287 0 2 135.5 91.01
7026	173571 7875 151 136540 20.1007 136.158822404853 268 0 24 1214 8956
7027	181446 8741 151 136540 20.1007 136.158822404853 268 -2 1 116.26388888806 104.46199845532
7028	190187 8372 151 136540 20.1007 136.158822404853 268 0 2.1 134.2 94.26
7029	198559 8389 346 137505 20.4008 137.431698769238 285 0 29 1234 8592
7030	206948 9313 346 137505 20.4008 137.431698769238 285 -2.625 1 130.875 110.734375
7031	216261 8910 346 137505 20.4008 137.431698769238 285 0 2.6 136.7 90.71
7032	225171 8677 444 137358 20.6009 137.168389625312 295 0 19 1275 8331
7033	233848 9687 444 137358 20.6009 137.168389625312 295 -1.375 1 135.81944441795 106.48283177541
7034	243535 9223 444 137358 20.6009 137.168389625312 295 0 1.8 142.1 90.91
7035	252758 8604 158 136506 20.101 136.131966993703 293 0 23 1255 8405
7036	261362 9550 158 136506 20.101 136.131966993703 293 -1.875 1 136.19444441795 110.63503084065
7037	270912 9150 158 136506 20.101 136.131966993703 293 0 2.1 139.9 90.75
7038	280062 9023 230 136838 20.2011 136.446507528682 306 0 24 1309 8851
7039	289085 10010 230 136838 20.2011 136.446507528682 306 -2 1 142.40277777612 117.08931326903
7040	299095 9598 230 136838 20.2011 136.446507528682 306 0 2.3 146.9 98.91
7041	308693 8213 289 137691 20.3012 137.787680210119 279 0 30 1206 9340
7042	316906 9121 289 137691 20.3012 137.787680210119 279 -2.75 1 128.25 123.4375
7043	326027 8736 289 137691 20.3012 137.787680210119 279 0 2.5 132.7 93.61
7044	334763 8371 165 137562 20.1013 137.500304792901 286 0 23 1219 8617
7045	343134 9326 165 137562 20.1013 137.500304792901 286 -1.875 1 133.625 115.890625
7046	352460 8903 165 137562 20.1013 137.500304792901 286 0 2.1 135.7 90.99
7047	361363 8808 454 136665 20.6014 136.258922404853 300 0 25 1323 9323
7048	370171 9776 454 136665 20.6014 136.258922404853 300 -2.125 1 134.86111111939 114.93171295082
7049	379947 9358 454 136665 20.6014 136.258922404853 300 0 2.2 147.6 100.68
7050	389305 8711 238 137677 20.2015 137.776570228625 296 0 16 1225 7991
7051	398016 9681 238 137677 20.2015 137.776570228625 296 -1 1 142.9999999702 114.72492281228
7052	407697 9263 238 137677 20.2015 137.776570228625 296 0 1.5 137.6 86.8
7053	416960 9091 243 137736 20.2016 138.018458076947 309 0 19 1268 7766
7054	426051 10136 243 137736 20.2016 138.018458076947 309 -1.375 1 150.51388888806 113.36824845532
7055	436187 9673 243 137736 20.2016 138.018458076947 309 0 1.8 142.9 87.25
7056	445860 9186 173 137208 20.1017 136.892746944826 312 0 20 1361 9373
7057	455046 10194 173 137208 20.1017 136.892746944826 312 -1.5 1 141.875 118.203125
7058	465240 9763 173 137208 20.1017 136.892746944826 312 0 1.9 150.9 101.85
7059	475003 9244 299 137063 20.3018 136.668289625312 314 0 33 1294 9338
7060	484247 10306 299 137063 20.3018 136.668289625312 314 -3.125 1 152.29166665673 136.4600694312
7061	494553 9831 299 137063 20.3018 136.668289625312 314 0 3.1 143.6 98.32
7062	504384 8820 179 136750 20.1019 136.358922404853 300 0 17 1310 8804
7063	513204 9803 179 136750 20.1019 136.358922404853 300 -1.125 1 136.30555555224 110.12114197163
7064	523007 9388 179 136750 20.1019 136.358922404853 300 0 1.7 146.7 97.17
7065	532395 8591 304 137133 20.302 136.768211904496 292 0 17 1234 7890
7066	540986 9558 304 137133 20.302 136.768211904496 292 -1.125 1 137.77777777612 106.82368826903
7067	550544 9139 304 137133 20.302 136.768211904496 292 0 1.6 138.1 86.55
7068	559683 8203 252 136923 20.2021 136.532097409838 279 0 19 1305 9127
7069	567886 9121 252 136923 20.2021 136.532097409838 279 -1.375 1 115.98611107469 95.470100271849
7070	577007 8728 252 136923 20.2021 136.532097409838 279 0 1.8 142.2 96.34
7071	585735 9452 368 137539 20.4022 137.470580088523 322 0 19 1283 8263
7072	595187 10495 368 137539 20.4022 137.470580088523 322 -1.375 1 161.65277777612 130.40181326903
7073	605682 10062 368 137539 20.4022 137.470580088523 322 0 1.9 143.1 88.45
7074	615744 8901 258 137033 20.2023 136.657918421679 302 0 22 1347 9523
7075	624645 9906 258 137033 20.2023 136.657918421679 302 -1.75 1 133.84722217917 114.19618052244
7076	634551 9459 258 137033 20.2023 136.657918421679 302 0.1 2.2 148.5 100.91
7077	644010 8577 189 136764 20.1024 136.361014661378 292 0 18 1235 7935
7078	652587 9500 189 136764 20.1024 136.361014661378 292 -1.25 1 137.65277777612 107.27681326903
7079	662087 9126 189 136764 20.1024 136.361014661378 292 0 1.6 137.2 85.62
7080	671213 8316 194 136704 20.1025 136.314817444879 282 0 32 1208 8644
7081	679529 9255 194 136704 20.1025 136.314817444879 282 -3 1 131.02777777612 115.10493826903
7082	688784 8841 194 136704 20.1025 136.314817444879 282 0 2.9 134.9 92.27
7083	697625 8942 515 136971 20.7026 136.567679919801 305 1 21 1321 8753
7084	706567 9944 515 136971 20.7026 136.567679919801 305 -1.625 0.875 139.875 111.515625
7085	716511 9523 515 136971 20.7026 136.567679919801 305 0.1 2 148.7 98.07
7086	726034 9246 266 137451 20.2027 137.327504266979 314 0 18 1270 8148
7087	735280 10251 266 137451 20.2027 137.327504266979 314 -1.25 1 155.25 123.8125
7088	745531 9844 266 137451 20.2027 137.327504266979 314 0 1.7 142.5 88.61
7089	755375 9599 317 137415 20.3028 137.26134725992 326 0 18 1287 8437
7090	764974 10663 317 137415 20.3028 137.26134725992 326 -1.25 1 165.2499999851 136.23302467186
7091	775637 10194 317 137415 20.3028 137.26134725992 326 0 1.6 145 91.42
7092	785831 8737 122 137637 20.0029 137.658018421679 297 0 23 1339 8853
7093	794568 9712 122 137637 20.0029 137.658018421679 297 -1.875 1 129.625 100.578125
7094	804280 9295 122 137637 20.0029 137.658018421679 297 0 2.1 148.3 96.91
7095	813575 9795 471 137518 20.603 137.447815114385 334 0 23 1325 8147
7096	823370 10904 471 137518 20.603 137.447815114385 334 -1.875 1 168.43055555224 130.13175153806
7097	834274 10421 471 137518 20.603 137.447815114385 334 0 1.9 148.6 89.24
7098	844695 8483 323 137375 20.3031 137.182105341645 288 0 15 1232 7610
7099	853178 9385 323 137375 20.3031 137.182105341645 288 -0.875 1 134.09722220898 99.018711402828
7100	862563 9019 323 137375 20.3031 137.182105341645 288 0 1.5 138.4 86.66
7101	871582 9334 205 136957 20.1032 136.559022404853 318 0 19 1314 8574
7102	880916 10356 205 136957 20.1032 136.559022404853 318 -1.375 1 153.75 123.46875
7103	891272 9920 205 136957 20.1032 136.559022404853 318 0 1.8 147.7 93.57
