version 2
run Stability-norelink-52-20130525-23:17:27-22103
attr configname Stability-norelink
attr datetime 20130525-23:17:27
attr experiment Stability
attr inifile omnetpp.ini
attr iterationvars $0=1e1
attr iterationvars2 "$0=1e1, $repetition=2"
attr measurement $0=1e1
attr network Network
attr processid 22103
attr repetition 2
attr replication #2
attr resultdir results
attr runnumber 52
attr seedset 52

vector 4995  Network.dyn_peer[1]  lookupHopsSig:vector  ETV
vector 4996  Network.dyn_peer[1]  lookupStabilitySig:vector  ETV
vector 4997  Network.dyn_peer[1]  lookupTimeSig:vector  ETV
vector 5025  Network.dyn_peer[11]  lookupHopsSig:vector  ETV
vector 5026  Network.dyn_peer[11]  lookupStabilitySig:vector  ETV
vector 5027  Network.dyn_peer[11]  lookupTimeSig:vector  ETV
vector 5004  Network.dyn_peer[4]  lookupHopsSig:vector  ETV
vector 5005  Network.dyn_peer[4]  lookupStabilitySig:vector  ETV
vector 5006  Network.dyn_peer[4]  lookupTimeSig:vector  ETV
vector 4998  Network.dyn_peer[2]  lookupHopsSig:vector  ETV
vector 4999  Network.dyn_peer[2]  lookupStabilitySig:vector  ETV
vector 5000  Network.dyn_peer[2]  lookupTimeSig:vector  ETV
vector 5001  Network.dyn_peer[3]  lookupHopsSig:vector  ETV
vector 5002  Network.dyn_peer[3]  lookupStabilitySig:vector  ETV
vector 5003  Network.dyn_peer[3]  lookupTimeSig:vector  ETV
vector 5031  Network.dyn_peer[13]  lookupHopsSig:vector  ETV
vector 5032  Network.dyn_peer[13]  lookupStabilitySig:vector  ETV
vector 5033  Network.dyn_peer[13]  lookupTimeSig:vector  ETV
vector 5034  Network.dyn_peer[14]  lookupHopsSig:vector  ETV
vector 5035  Network.dyn_peer[14]  lookupStabilitySig:vector  ETV
vector 5036  Network.dyn_peer[14]  lookupTimeSig:vector  ETV
vector 5007  Network.dyn_peer[5]  lookupHopsSig:vector  ETV
vector 5008  Network.dyn_peer[5]  lookupStabilitySig:vector  ETV
vector 5009  Network.dyn_peer[5]  lookupTimeSig:vector  ETV
vector 5037  Network.dyn_peer[15]  lookupHopsSig:vector  ETV
vector 5038  Network.dyn_peer[15]  lookupStabilitySig:vector  ETV
vector 5039  Network.dyn_peer[15]  lookupTimeSig:vector  ETV
vector 5040  Network.dyn_peer[16]  lookupHopsSig:vector  ETV
vector 5041  Network.dyn_peer[16]  lookupStabilitySig:vector  ETV
vector 5042  Network.dyn_peer[16]  lookupTimeSig:vector  ETV
vector 5013  Network.dyn_peer[7]  lookupHopsSig:vector  ETV
vector 5014  Network.dyn_peer[7]  lookupStabilitySig:vector  ETV
vector 5015  Network.dyn_peer[7]  lookupTimeSig:vector  ETV
vector 5043  Network.dyn_peer[17]  lookupHopsSig:vector  ETV
vector 5044  Network.dyn_peer[17]  lookupStabilitySig:vector  ETV
vector 5045  Network.dyn_peer[17]  lookupTimeSig:vector  ETV
vector 5016  Network.dyn_peer[8]  lookupHopsSig:vector  ETV
vector 5017  Network.dyn_peer[8]  lookupStabilitySig:vector  ETV
vector 5018  Network.dyn_peer[8]  lookupTimeSig:vector  ETV
vector 4992  Network.dyn_peer[0]  lookupHopsSig:vector  ETV
vector 4993  Network.dyn_peer[0]  lookupStabilitySig:vector  ETV
vector 4994  Network.dyn_peer[0]  lookupTimeSig:vector  ETV
vector 5052  Network.dyn_peer[20]  lookupHopsSig:vector  ETV
vector 5053  Network.dyn_peer[20]  lookupStabilitySig:vector  ETV
vector 5054  Network.dyn_peer[20]  lookupTimeSig:vector  ETV
vector 5082  Network.dyn_peer[30]  lookupHopsSig:vector  ETV
vector 5083  Network.dyn_peer[30]  lookupStabilitySig:vector  ETV
vector 5084  Network.dyn_peer[30]  lookupTimeSig:vector  ETV
vector 5028  Network.dyn_peer[12]  lookupHopsSig:vector  ETV
vector 5029  Network.dyn_peer[12]  lookupStabilitySig:vector  ETV
vector 5030  Network.dyn_peer[12]  lookupTimeSig:vector  ETV
vector 5010  Network.dyn_peer[6]  lookupHopsSig:vector  ETV
vector 5011  Network.dyn_peer[6]  lookupStabilitySig:vector  ETV
vector 5012  Network.dyn_peer[6]  lookupTimeSig:vector  ETV
vector 5076  Network.dyn_peer[28]  lookupHopsSig:vector  ETV
vector 5077  Network.dyn_peer[28]  lookupStabilitySig:vector  ETV
vector 5078  Network.dyn_peer[28]  lookupTimeSig:vector  ETV
vector 5022  Network.dyn_peer[10]  lookupHopsSig:vector  ETV
vector 5023  Network.dyn_peer[10]  lookupStabilitySig:vector  ETV
vector 5024  Network.dyn_peer[10]  lookupTimeSig:vector  ETV
vector 5061  Network.dyn_peer[23]  lookupHopsSig:vector  ETV
vector 5062  Network.dyn_peer[23]  lookupStabilitySig:vector  ETV
vector 5063  Network.dyn_peer[23]  lookupTimeSig:vector  ETV
vector 5064  Network.dyn_peer[24]  lookupHopsSig:vector  ETV
vector 5065  Network.dyn_peer[24]  lookupStabilitySig:vector  ETV
vector 5066  Network.dyn_peer[24]  lookupTimeSig:vector  ETV
vector 5073  Network.dyn_peer[27]  lookupHopsSig:vector  ETV
vector 5074  Network.dyn_peer[27]  lookupStabilitySig:vector  ETV
vector 5075  Network.dyn_peer[27]  lookupTimeSig:vector  ETV
vector 5019  Network.dyn_peer[9]  lookupHopsSig:vector  ETV
vector 5020  Network.dyn_peer[9]  lookupStabilitySig:vector  ETV
vector 5021  Network.dyn_peer[9]  lookupTimeSig:vector  ETV
vector 5055  Network.dyn_peer[21]  lookupHopsSig:vector  ETV
vector 5056  Network.dyn_peer[21]  lookupStabilitySig:vector  ETV
vector 5057  Network.dyn_peer[21]  lookupTimeSig:vector  ETV
vector 5070  Network.dyn_peer[26]  lookupHopsSig:vector  ETV
vector 5071  Network.dyn_peer[26]  lookupStabilitySig:vector  ETV
vector 5072  Network.dyn_peer[26]  lookupTimeSig:vector  ETV
vector 5046  Network.dyn_peer[18]  lookupHopsSig:vector  ETV
vector 5047  Network.dyn_peer[18]  lookupStabilitySig:vector  ETV
vector 5048  Network.dyn_peer[18]  lookupTimeSig:vector  ETV
vector 5049  Network.dyn_peer[19]  lookupHopsSig:vector  ETV
vector 5050  Network.dyn_peer[19]  lookupStabilitySig:vector  ETV
vector 5051  Network.dyn_peer[19]  lookupTimeSig:vector  ETV
vector 5067  Network.dyn_peer[25]  lookupHopsSig:vector  ETV
vector 5068  Network.dyn_peer[25]  lookupStabilitySig:vector  ETV
vector 5069  Network.dyn_peer[25]  lookupTimeSig:vector  ETV
vector 5058  Network.dyn_peer[22]  lookupHopsSig:vector  ETV
vector 5059  Network.dyn_peer[22]  lookupStabilitySig:vector  ETV
vector 5060  Network.dyn_peer[22]  lookupTimeSig:vector  ETV
vector 5085  Network.dyn_peer[31]  lookupHopsSig:vector  ETV
vector 5086  Network.dyn_peer[31]  lookupStabilitySig:vector  ETV
vector 5087  Network.dyn_peer[31]  lookupTimeSig:vector  ETV
vector 5079  Network.dyn_peer[29]  lookupHopsSig:vector  ETV
vector 5080  Network.dyn_peer[29]  lookupStabilitySig:vector  ETV
vector 5081  Network.dyn_peer[29]  lookupTimeSig:vector  ETV
4992	205	20.31	3
4992	611	21.01	6
4992	828	21.318780568614	2
4992	899	21.432961025407	2
4992	1236	21.826406121146	4
4992	1700	22.24206415725	7
4992	1983	22.431064530784	5
4992	1999	22.451141007878	1
4992	2003	22.453391643406	1
4992	2158	22.566966956052	4
4992	2503	22.856029263068	3
4992	2505	22.860641897613	3
4992	2636	22.967153534171	4
4992	2638	22.967708142468	4
4992	2693	22.977808142468	0
4992	3241	23.377808142468	3
4992	3565	23.682240632589	2
4992	4032	24.08831271759	4
4992	4345	24.409094819937	2
4992	4660	24.709870341893	2
4992	5259	25.227213478831	6
4992	6581	26.527213478831	12
4992	7048	26.931448611463	3
4992	8624	28.341548611463	15
4992	9218	28.841548611463	4
4992	10431	30.144470400446	13
4992	10667	30.344905949515	1
4992	10895	30.556237773502	2
4992	11368	30.956237773502	3
4992	12033	31.637882421193	6
4992	12442	32.047982421193	4
4992	12885	32.447982421193	3
4992	13113	32.652008413727	1
4992	13292	32.858468562437	1
4992	13825	33.375329988487	5
4992	14899	34.297521684557	6
4992	15288	34.597521684557	2
4992	15777	35.02078543063	4
4992	16544	35.72078543063	6
4992	17352	36.524580556351	8
4992	17665	36.834079717634	2
4992	17723	36.892894075252	2
4992	18009	37.138596835272	2
4992	19645	38.456955682659	14
4992	20726	39.356955682659	8
4992	20794	39.414142319341	7
4992	21430	39.959802963349	6
4992	22121	40.461691798706	4
4992	22327	40.619844239896	13
4992	22351	40.630561886718	0
4992	23108	41.230561886718	5
4992	23370	41.43905490965	1
4992	23592	41.640858427555	2
4992	23876	41.848817404484	1
4992	24468	42.361051118363	5
4992	24959	42.789667568369	3
4992	25176	42.99946793483	1
4992	25360	43.120788315383	1
4992	25634	43.325096075378	1
4992	26307	43.935028619353	6
4992	27360	44.83583068254	8
4992	27975	45.346455338288	5
4992	28489	45.746455338288	3
4992	29275	46.463544297943	8
4992	30085	47.063544297943	5
4992	30330	47.268007691789	1
4992	30949	47.782921866345	4
4992	31036	47.86497893482	4
4992	31380	48.18506062917	3
4992	31480	48.29516062917	1
4992	31922	48.69516062917	3
4992	32370	49.101362519215	3
4992	32467	49.192505862306	3
4992	32736	49.396838105368	1
4992	32781	49.410123128951	3
4992	32835	49.488134793657	3
4992	33090	49.700488164397	1
4992	33282	49.808696858721	4
4992	33865	50.222508879907	5
4992	34762	51.022508879907	7
4992	35552	51.72016428004	7
4992	35871	52.023723134496	10
4992	35879	52.027148491539	2
4992	36879	52.738153344965	7
4992	37890	53.638153344965	8
4992	38381	54.144516355561	4
4992	38463	54.220878361275	2
4992	38560	54.331259302114	14
4992	38858	54.629887859751	3
4992	38876	54.640222068029	2
4992	39104	54.890308974826	2
4992	40398	56.005498636009	11
4992	40777	56.305498636009	2
4992	41262	56.705934805793	4
4992	41453	56.830487826827	4
4992	41808	57.131641150442	2
4992	42421	57.541533065246	4
4992	42444	57.551633065246	0
4992	42998	58.051633065246	4
4992	43499	58.457543234856	4
4992	43544	58.474990858583	3
4992	43752	58.609649093629	2
4992	44928	59.520374535329	9
4992	45577	60.020374535329	4
4992	46296	60.628899270938	5
4992	46601	60.932135728035	2
4992	46755	61.049396588081	1
4992	47311	61.549396588081	4
4992	47910	62.066473773361	5
4992	49506	63.436042406743	2
4992	49807	63.666473773361	16
4992	49977	63.840871010907	3
4992	50266	64.144649468676	2
4992	50420	64.308999231086	6
4992	50816	64.716808727139	3
4992	51084	64.928418876721	2
4992	52912	66.528952262036	11
4992	53265	66.828952262036	2
4992	54172	67.641324281775	7
4992	54601	67.955575112577	3
4992	55369	68.655575112577	6
4992	55722	68.967169169478	2
4992	56389	69.579507512922	7
4992	56821	69.979507512922	3
4992	57344	70.379870548715	4
4992	57997	70.883110520822	5
4992	58326	71.103893366544	2
4992	58737	71.403893366544	3
4992	59228	71.826967261877	3
4992	59431	72.01114350737	6
4992	59917	72.421976470769	3
4992	60057	72.53688265862	7
4992	60075	72.545341232649	2
4992	60460	72.92389783863	4
4992	60728	73.145396028011	5
4992	60732	73.148009941271	5
4992	61236	73.563310689346	4
4992	61571	73.863310689346	2
4992	62817	74.768914501356	9
4992	63683	75.448731988958	2
4992	63739	75.475249794489	6
4992	63889	75.592558580637	1
4992	65070	76.592558580637	11
4992	65482	76.992982720334	3
4992	65764	77.200376837418	1
4992	65771	77.206622308945	1
4992	65790	77.223659522138	1
4992	65809	77.236217010328	0
4992	66502	77.836217010328	5
4992	66735	78.045652680266	1
4992	67058	78.298715092494	2
4992	67367	78.552207204859	4
4992	68099	79.164934667994	8
4992	68855	79.866661909034	1
4992	69163	80.078574583174	2
4992	69678	80.478574583174	3
4992	70764	81.393427462216	9
4992	71347	81.893427462216	4
4992	71730	82.203538989341	2
4992	72072	82.518490289018	3
4992	72670	83.018490289018	4
4992	73060	83.319473178006	2
4992	73109	83.365948589127	2
4992	73800	83.87861410167	6
4992	74439	84.400444213244	2
4992	74976	84.810544213244	4
4992	75824	85.510544213244	6
4992	77726	87.117492198016	16
4992	78171	87.620708833205	4
4992	78473	87.923654546738	3
4992	78794	88.147205731035	2
4992	80007	89.147205731035	10
4992	80541	89.654738413509	4
4992	80784	89.858610555756	1
4992	80927	89.969005354763	5
4992	81302	90.286389803915	3
4992	82153	90.986389803915	7
4992	83206	91.794014119588	8
4992	84673	92.975936461725	9
4992	84951	93.175961408394	1
4992	85196	93.384290126753	1
4992	85410	93.591718229583	1
4992	85568	93.701818229583	1
4992	85775	93.901818229583	1
4992	86389	94.404319805127	4
4992	86493	94.513214555845	5
4992	86767	94.719300543066	2
4992	87094	95.013145106866	5
4992	87146	95.052278970676	4
4992	87875	95.565266140315	7
4992	88156	95.765266140315	1
4992	88531	96.069418634304	2
4992	88542	96.073113467816	2
4992	88906	96.371240342983	2
4992	89056	96.474650836493	3
4992	90009	97.184750836493	9
4992	90792	97.784750836493	5
4992	91102	98.012897434657	1
4992	91198	98.096561936793	3
4992	91389	98.218477287337	1
4992	92091	98.837067866679	6
4992	92784	99.44568303602	5
4992	92818	99.460220644783	0
4992	93300	99.860220644783	3
4992	93672	100.165006740919	2
4992	93827	100.2786066316	3
4992	93949	100.373190163934	1
4992	94048	100.47241108124	1
4992	94059	100.480420998393	1
4992	94382	100.779476598727	2
4992	95771	101.996185884307	14
4992	96243	102.403155829113	3
4992	96608	102.71956361453	3
4992	97446	103.51956361453	7
4992	97663	103.727023382686	1
4992	99249	105.030502812279	13
4992	99251	105.030584204712	13
4992	99582	105.231870091283	1
4992	99584	105.232958511315	1
4992	100767	106.143058511315	9
4992	101352	106.643058511315	4
4992	101630	106.850097522561	1
4992	101977	107.156416624495	2
4992	102260	107.425933313836	3
4992	102529	107.644032989379	2
4992	102989	108.045215241927	4
4992	104136	108.902811314513	6
4992	104856	109.402811314513	4
4992	105958	110.406326434514	11
4992	106193	110.60928273986	1
4992	106813	111.227934024959	6
4992	107306	111.627934024959	4
4992	108052	112.207774373496	4
4992	110083	113.707774373496	15
4992	110590	114.113431995059	3
4992	112863	115.928611328841	21
4992	113435	116.428611328841	4
4992	114534	117.432644447555	11
4992	114676	117.563945331855	8
4992	115128	117.93773753316	5
4992	115176	117.9677339124	3
4992	115544	118.277513406015	2
4992	115664	118.373820784982	2
4992	116379	118.984440046547	7
4992	116609	119.184440046547	1
4992	117129	119.587666664661	3
4992	117391	119.79212613593	1
4992	117495	119.895010576936	1
4992	117835	120.216044366458	3
4992	118429	120.816044366458	5
4992	118807	121.218685727136	3
4992	119439	121.720254492585	4
4992	119656	121.89193355265	5
4992	119710	121.925647705267	2
4992	119732	121.938439112214	2
4992	120612	122.55629691684	6
4992	120816	122.75629691684	1
4992	121637	123.4937346864	7
4992	122057	123.897315813863	3
4992	122406	124.216934732514	4
4992	122886	124.616934732514	3
4992	123285	124.928528391788	2
4992	123491	125.13735999927	2
4992	123623	125.248515729841	5
4992	123897	125.443454085661	3
4992	124181	125.672055033351	6
4992	124475	125.958738394927	6
4992	124477	125.958838394927	6
4992	124482	125.962707416617	6
4992	124500	125.978220451824	2
4992	126115	127.303831411043	14
4992	126849	128.003831411043	6
4992	127204	128.312154366599	2
4992	127579	128.614303731852	2
4992	128165	129.22127658299	5
4992	129135	130.031099366606	7
4992	129724	130.443225834646	4
4992	130169	130.750262770349	2
4992	130474	130.962668379991	2
4992	131621	131.854226735765	6
4992	132071	132.254226735765	4
4992	132647	132.787188368256	1
4992	132907	133.005879498019	2
4992	133496	133.505879498019	5
4992	133946	133.914271349105	3
4992	134307	134.220335208348	2
4992	134530	134.431305826731	1
4992	135025	134.842394060821	4
4992	135879	135.642394060821	7
4992	136340	136.047957071499	3
4992	136733	136.377960674044	3
4992	137103	136.688060674044	3
4992	137408	136.988060674044	2
4992	138030	137.695160906655	7
4992	138167	137.896675456643	1
4993	205	20.31	0.625
4993	611	21.01	0.25
4993	828	21.318780568614	0.75
4993	899	21.432961025407	0.75
4993	1236	21.826406121146	0.5
4993	1700	22.24206415725	0.125
4993	1983	22.431064530784	0.375
4993	1999	22.451141007878	0.875
4993	2003	22.453391643406	0.875
4993	2158	22.566966956052	0.5
4993	2503	22.856029263068	0.625
4993	2505	22.860641897613	0.625
4993	2636	22.967153534171	0.5
4993	2638	22.967708142468	0.5
4993	2693	22.977808142468	1
4993	3241	23.377808142468	0.625
4993	3565	23.682240632589	0.75
4993	4032	24.08831271759	0.5
4993	4345	24.409094819937	0.75
4993	4660	24.709870341893	0.75
4993	5259	25.227213478831	0.25
4993	6581	26.527213478831	-0.5
4993	7048	26.931448611463	0.625
4993	8624	28.341548611463	-0.875
4993	9218	28.841548611463	0.5
4993	10431	30.144470400446	-0.625
4993	10667	30.344905949515	0.875
4993	10895	30.556237773502	0.75
4993	11368	30.956237773502	0.625
4993	12033	31.637882421193	0.25
4993	12442	32.047982421193	0.5
4993	12885	32.447982421193	0.625
4993	13113	32.652008413727	0.875
4993	13292	32.858468562437	0.875
4993	13825	33.375329988487	0.375
4993	14899	34.297521684557	0.25
4993	15288	34.597521684557	0.75
4993	15777	35.02078543063	0.5
4993	16544	35.72078543063	0.25
4993	17352	36.524580556351	0
4993	17665	36.834079717634	0.75
4993	17723	36.892894075252	0.75
4993	18009	37.138596835272	0.75
4993	19645	38.456955682659	-0.75
4993	20726	39.356955682659	0
4993	20794	39.414142319341	0.125
4993	21430	39.959802963349	0.25
4993	22121	40.461691798706	0.5
4993	22327	40.619844239896	-0.625
4993	22351	40.630561886718	1
4993	23108	41.230561886718	0.375
4993	23370	41.43905490965	0.875
4993	23592	41.640858427555	0.75
4993	23876	41.848817404484	0.875
4993	24468	42.361051118363	0.375
4993	24959	42.789667568369	0.625
4993	25176	42.99946793483	0.875
4993	25360	43.120788315383	0.875
4993	25634	43.325096075378	0.875
4993	26307	43.935028619353	0.25
4993	27360	44.83583068254	0
4993	27975	45.346455338288	0.375
4993	28489	45.746455338288	0.625
4993	29275	46.463544297943	0
4993	30085	47.063544297943	0.375
4993	30330	47.268007691789	0.875
4993	30949	47.782921866345	0.5
4993	31036	47.86497893482	0.5
4993	31380	48.18506062917	0.625
4993	31480	48.29516062917	0.875
4993	31922	48.69516062917	0.625
4993	32370	49.101362519215	0.625
4993	32467	49.192505862306	0.625
4993	32736	49.396838105368	0.875
4993	32781	49.410123128951	0.625
4993	32835	49.488134793657	0.625
4993	33090	49.700488164397	0.875
4993	33282	49.808696858721	0.5
4993	33865	50.222508879907	0.375
4993	34762	51.022508879907	0.125
4993	35552	51.72016428004	0.125
4993	35871	52.023723134496	-0.25
4993	35879	52.027148491539	0.75
4993	36879	52.738153344965	0.125
4993	37890	53.638153344965	0
4993	38381	54.144516355561	0.5
4993	38463	54.220878361275	0.75
4993	38560	54.331259302114	-0.75
4993	38858	54.629887859751	0.625
4993	38876	54.640222068029	0.75
4993	39104	54.890308974826	0.75
4993	40398	56.005498636009	-0.375
4993	40777	56.305498636009	0.75
4993	41262	56.705934805793	0.5
4993	41453	56.830487826827	0.5
4993	41808	57.131641150442	0.75
4993	42421	57.541533065246	0.5
4993	42444	57.551633065246	1
4993	42998	58.051633065246	0.5
4993	43499	58.457543234856	0.5
4993	43544	58.474990858583	0.625
4993	43752	58.609649093629	0.75
4993	44928	59.520374535329	-0.125
4993	45577	60.020374535329	0.5
4993	46296	60.628899270938	0.375
4993	46601	60.932135728035	0.75
4993	46755	61.049396588081	0.875
4993	47311	61.549396588081	0.5
4993	47910	62.066473773361	0.375
4993	49506	63.436042406743	0.75
4993	49807	63.666473773361	-1
4993	49977	63.840871010907	0.625
4993	50266	64.144649468676	0.75
4993	50420	64.308999231086	0.25
4993	50816	64.716808727139	0.625
4993	51084	64.928418876721	0.75
4993	52912	66.528952262036	-0.375
4993	53265	66.828952262036	0.75
4993	54172	67.641324281775	0.125
4993	54601	67.955575112577	0.625
4993	55369	68.655575112577	0.25
4993	55722	68.967169169478	0.75
4993	56389	69.579507512922	0.125
4993	56821	69.979507512922	0.625
4993	57344	70.379870548715	0.5
4993	57997	70.883110520822	0.375
4993	58326	71.103893366544	0.75
4993	58737	71.403893366544	0.625
4993	59228	71.826967261877	0.625
4993	59431	72.01114350737	0.25
4993	59917	72.421976470769	0.625
4993	60057	72.53688265862	0.125
4993	60075	72.545341232649	0.75
4993	60460	72.92389783863	0.5
4993	60728	73.145396028011	0.375
4993	60732	73.148009941271	0.375
4993	61236	73.563310689346	0.5
4993	61571	73.863310689346	0.75
4993	62817	74.768914501356	-0.125
4993	63683	75.448731988958	0.75
4993	63739	75.475249794489	0.25
4993	63889	75.592558580637	0.875
4993	65070	76.592558580637	-0.375
4993	65482	76.992982720334	0.625
4993	65764	77.200376837418	0.875
4993	65771	77.206622308945	0.875
4993	65790	77.223659522138	0.875
4993	65809	77.236217010328	1
4993	66502	77.836217010328	0.375
4993	66735	78.045652680266	0.875
4993	67058	78.298715092494	0.75
4993	67367	78.552207204859	0.5
4993	68099	79.164934667994	0
4993	68855	79.866661909034	0.875
4993	69163	80.078574583174	0.75
4993	69678	80.478574583174	0.625
4993	70764	81.393427462216	0
4993	71347	81.893427462216	0.5
4993	71730	82.203538989341	0.75
4993	72072	82.518490289018	0.625
4993	72670	83.018490289018	0.5
4993	73060	83.319473178006	0.75
4993	73109	83.365948589127	0.75
4993	73800	83.87861410167	0.25
4993	74439	84.400444213244	0.75
4993	74976	84.810544213244	0.5
4993	75824	85.510544213244	0.25
4993	77726	87.117492198016	-1
4993	78171	87.620708833205	0.5
4993	78473	87.923654546738	0.625
4993	78794	88.147205731035	0.75
4993	80007	89.147205731035	-0.25
4993	80541	89.654738413509	0.5
4993	80784	89.858610555756	0.875
4993	80927	89.969005354763	0.375
4993	81302	90.286389803915	0.625
4993	82153	90.986389803915	0.125
4993	83206	91.794014119588	0
4993	84673	92.975936461725	-0.125
4993	84951	93.175961408394	0.875
4993	85196	93.384290126753	0.875
4993	85410	93.591718229583	0.875
4993	85568	93.701818229583	0.875
4993	85775	93.901818229583	0.875
4993	86389	94.404319805127	0.5
4993	86493	94.513214555845	0.375
4993	86767	94.719300543066	0.75
4993	87094	95.013145106866	0.375
4993	87146	95.052278970676	0.5
4993	87875	95.565266140315	0.125
4993	88156	95.765266140315	0.875
4993	88531	96.069418634304	0.75
4993	88542	96.073113467816	0.75
4993	88906	96.371240342983	0.75
4993	89056	96.474650836493	0.625
4993	90009	97.184750836493	-0.125
4993	90792	97.784750836493	0.375
4993	91102	98.012897434657	0.875
4993	91198	98.096561936793	0.625
4993	91389	98.218477287337	0.875
4993	92091	98.837067866679	0.25
4993	92784	99.44568303602	0.375
4993	92818	99.460220644783	1
4993	93300	99.860220644783	0.625
4993	93672	100.165006740919	0.75
4993	93827	100.2786066316	0.625
4993	93949	100.373190163934	0.875
4993	94048	100.47241108124	0.875
4993	94059	100.480420998393	0.875
4993	94382	100.779476598727	0.75
4993	95771	101.996185884307	-0.75
4993	96243	102.403155829113	0.625
4993	96608	102.71956361453	0.625
4993	97446	103.51956361453	0.125
4993	97663	103.727023382686	0.875
4993	99249	105.030502812279	-0.625
4993	99251	105.030584204712	-0.625
4993	99582	105.231870091283	0.875
4993	99584	105.232958511315	0.875
4993	100767	106.143058511315	-0.125
4993	101352	106.643058511315	0.5
4993	101630	106.850097522561	0.875
4993	101977	107.156416624495	0.75
4993	102260	107.425933313836	0.625
4993	102529	107.644032989379	0.75
4993	102989	108.045215241927	0.5
4993	104136	108.902811314513	0.25
4993	104856	109.402811314513	0.5
4993	105958	110.406326434514	-0.375
4993	106193	110.60928273986	0.875
4993	106813	111.227934024959	0.25
4993	107306	111.627934024959	0.5
4993	108052	112.207774373496	0.5
4993	110083	113.707774373496	-0.875
4993	110590	114.113431995059	0.625
4993	112863	115.928611328841	-1.625
4993	113435	116.428611328841	0.5
4993	114534	117.432644447555	-0.375
4993	114676	117.563945331855	0
4993	115128	117.93773753316	0.375
4993	115176	117.9677339124	0.625
4993	115544	118.277513406015	0.75
4993	115664	118.373820784982	0.75
4993	116379	118.984440046547	0.125
4993	116609	119.184440046547	0.875
4993	117129	119.587666664661	0.625
4993	117391	119.79212613593	0.875
4993	117495	119.895010576936	0.875
4993	117835	120.216044366458	0.625
4993	118429	120.816044366458	0.375
4993	118807	121.218685727136	0.625
4993	119439	121.720254492585	0.5
4993	119656	121.89193355265	0.375
4993	119710	121.925647705267	0.75
4993	119732	121.938439112214	0.75
4993	120612	122.55629691684	0.25
4993	120816	122.75629691684	0.875
4993	121637	123.4937346864	0.125
4993	122057	123.897315813863	0.625
4993	122406	124.216934732514	0.5
4993	122886	124.616934732514	0.625
4993	123285	124.928528391788	0.75
4993	123491	125.13735999927	0.75
4993	123623	125.248515729841	0.375
4993	123897	125.443454085661	0.625
4993	124181	125.672055033351	0.25
4993	124475	125.958738394927	0.25
4993	124477	125.958838394927	0.25
4993	124482	125.962707416617	0.25
4993	124500	125.978220451824	0.75
4993	126115	127.303831411043	-0.75
4993	126849	128.003831411043	0.25
4993	127204	128.312154366599	0.75
4993	127579	128.614303731852	0.75
4993	128165	129.22127658299	0.375
4993	129135	130.031099366606	0.125
4993	129724	130.443225834646	0.5
4993	130169	130.750262770349	0.75
4993	130474	130.962668379991	0.75
4993	131621	131.854226735765	0.25
4993	132071	132.254226735765	0.5
4993	132647	132.787188368256	0.875
4993	132907	133.005879498019	0.75
4993	133496	133.505879498019	0.375
4993	133946	133.914271349105	0.625
4993	134307	134.220335208348	0.75
4993	134530	134.431305826731	0.875
4993	135025	134.842394060821	0.5
4993	135879	135.642394060821	0.125
4993	136340	136.047957071499	0.625
4993	136733	136.377960674044	0.625
4993	137103	136.688060674044	0.625
4993	137408	136.988060674044	0.75
4993	138030	137.695160906655	0.125
4993	138167	137.896675456643	0.875
4994	205	20.31	0.3
4994	611	21.01	0.7
4994	828	21.318780568614	0.3
4994	899	21.432961025407	0.3
4994	1236	21.826406121146	0.5
4994	1700	22.24206415725	0.8
4994	1983	22.431064530784	0.6
4994	1999	22.451141007878	0.2
4994	2003	22.453391643406	0.2
4994	2158	22.566966956052	0.5
4994	2503	22.856029263068	0.4
4994	2505	22.860641897613	0.4
4994	2636	22.967153534171	0.4
4994	2638	22.967708142468	0.4
4994	2693	22.977808142468	0
4994	3241	23.377808142468	0.4
4994	3565	23.682240632589	0.3
4994	4032	24.08831271759	0.4
4994	4345	24.409094819937	0.3
4994	4660	24.709870341893	0.3
4994	5259	25.227213478831	0.5
4994	6581	26.527213478831	1.3
4994	7048	26.931448611463	0.4
4994	8624	28.341548611463	1.4
4994	9218	28.841548611463	0.5
4994	10431	30.144470400446	1.3
4994	10667	30.344905949515	0.2
4994	10895	30.556237773502	0.2
4994	11368	30.956237773502	0.4
4994	12033	31.637882421193	0.7
4994	12442	32.047982421193	0.4
4994	12885	32.447982421193	0.4
4994	13113	32.652008413727	0.2
4994	13292	32.858468562437	0.2
4994	13825	33.375329988487	0.5
4994	14899	34.297521684557	0.6
4994	15288	34.597521684557	0.3
4994	15777	35.02078543063	0.4
4994	16544	35.72078543063	0.7
4994	17352	36.524580556351	0.8
4994	17665	36.834079717634	0.3
4994	17723	36.892894075252	0.3
4994	18009	37.138596835272	0.3
4994	19645	38.456955682659	1.3
4994	20726	39.356955682659	0.9
4994	20794	39.414142319341	0.7
4994	21430	39.959802963349	0.6
4994	22121	40.461691798706	0.5
4994	22327	40.619844239896	1.2
4994	22351	40.630561886718	0
4994	23108	41.230561886718	0.6
4994	23370	41.43905490965	0.2
4994	23592	41.640858427555	0.2
4994	23876	41.848817404484	0.2
4994	24468	42.361051118363	0.5
4994	24959	42.789667568369	0.4
4994	25176	42.99946793483	0.2
4994	25360	43.120788315383	0.1
4994	25634	43.325096075378	0.2
4994	26307	43.935028619353	0.6
4994	27360	44.83583068254	0.9
4994	27975	45.346455338288	0.5
4994	28489	45.746455338288	0.4
4994	29275	46.463544297943	0.7
4994	30085	47.063544297943	0.6
4994	30330	47.268007691789	0.2
4994	30949	47.782921866345	0.5
4994	31036	47.86497893482	0.5
4994	31380	48.18506062917	0.4
4994	31480	48.29516062917	0.1
4994	31922	48.69516062917	0.4
4994	32370	49.101362519215	0.4
4994	32467	49.192505862306	0.4
4994	32736	49.396838105368	0.2
4994	32781	49.410123128951	0.3
4994	32835	49.488134793657	0.3
4994	33090	49.700488164397	0.2
4994	33282	49.808696858721	0.5
4994	33865	50.222508879907	0.4
4994	34762	51.022508879907	0.8
4994	35552	51.72016428004	0.8
4994	35871	52.023723134496	1
4994	35879	52.027148491539	0.3
4994	36879	52.738153344965	0.7
4994	37890	53.638153344965	0.9
4994	38381	54.144516355561	0.5
4994	38463	54.220878361275	0.2
4994	38560	54.331259302114	1.4
4994	38858	54.629887859751	0.4
4994	38876	54.640222068029	0.3
4994	39104	54.890308974826	0.3
4994	40398	56.005498636009	1.1
4994	40777	56.305498636009	0.3
4994	41262	56.705934805793	0.4
4994	41453	56.830487826827	0.5
4994	41808	57.131641150442	0.3
4994	42421	57.541533065246	0.4
4994	42444	57.551633065246	0
4994	42998	58.051633065246	0.5
4994	43499	58.457543234856	0.4
4994	43544	58.474990858583	0.4
4994	43752	58.609649093629	0.3
4994	44928	59.520374535329	0.9
4994	45577	60.020374535329	0.5
4994	46296	60.628899270938	0.6
4994	46601	60.932135728035	0.3
4994	46755	61.049396588081	0.1
4994	47311	61.549396588081	0.5
4994	47910	62.066473773361	0.5
4994	49506	63.436042406743	0.3
4994	49807	63.666473773361	1.6
4994	49977	63.840871010907	0.4
4994	50266	64.144649468676	0.3
4994	50420	64.308999231086	0.6
4994	50816	64.716808727139	0.4
4994	51084	64.928418876721	0.2
4994	52912	66.528952262036	1.1
4994	53265	66.828952262036	0.3
4994	54172	67.641324281775	0.8
4994	54601	67.955575112577	0.3
4994	55369	68.655575112577	0.7
4994	55722	68.967169169478	0.3
4994	56389	69.579507512922	0.6
4994	56821	69.979507512922	0.4
4994	57344	70.379870548715	0.4
4994	57997	70.883110520822	0.5
4994	58326	71.103893366544	0.2
4994	58737	71.403893366544	0.3
4994	59228	71.826967261877	0.4
4994	59431	72.01114350737	0.6
4994	59917	72.421976470769	0.4
4994	60057	72.53688265862	0.7
4994	60075	72.545341232649	0.3
4994	60460	72.92389783863	0.5
4994	60728	73.145396028011	0.6
4994	60732	73.148009941271	0.6
4994	61236	73.563310689346	0.4
4994	61571	73.863310689346	0.3
4994	62817	74.768914501356	0.9
4994	63683	75.448731988958	0.3
4994	63739	75.475249794489	0.7
4994	63889	75.592558580637	0.1
4994	65070	76.592558580637	1
4994	65482	76.992982720334	0.4
4994	65764	77.200376837418	0.2
4994	65771	77.206622308945	0.2
4994	65790	77.223659522138	0.2
4994	65809	77.236217010328	0
4994	66502	77.836217010328	0.6
4994	66735	78.045652680266	0.2
4994	67058	78.298715092494	0.3
4994	67367	78.552207204859	0.5
4994	68099	79.164934667994	0.6
4994	68855	79.866661909034	0.2
4994	69163	80.078574583174	0.2
4994	69678	80.478574583174	0.4
4994	70764	81.393427462216	0.9
4994	71347	81.893427462216	0.5
4994	71730	82.203538989341	0.3
4994	72072	82.518490289018	0.3
4994	72670	83.018490289018	0.5
4994	73060	83.319473178006	0.3
4994	73109	83.365948589127	0.3
4994	73800	83.87861410167	0.5
4994	74439	84.400444213244	0.3
4994	74976	84.810544213244	0.4
4994	75824	85.510544213244	0.7
4994	77726	87.117492198016	1.6
4994	78171	87.620708833205	0.5
4994	78473	87.923654546738	0.3
4994	78794	88.147205731035	0.2
4994	80007	89.147205731035	1
4994	80541	89.654738413509	0.5
4994	80784	89.858610555756	0.2