file 675239 1369674157                                          
version 2
run Stability-norelink-38-20130525-23:16:37-22103
attr configname Stability-norelink
attr datetime 20130525-23:16:37
attr experiment Stability
attr inifile omnetpp.ini
attr iterationvars $0=1e3
attr iterationvars2 "$0=1e3, $repetition=8"
attr measurement $0=1e3
attr network Network
attr processid 22103
attr repetition 8
attr replication #8
attr resultdir results
attr runnumber 38
attr seedset 38
vector 3648  Network.dyn_peer[0]  lookupHopsSig:vector  ETV
3648	6396 6479 31 65748 21.1 2037.835290090368 256 0 2 337 517
vector 3649  Network.dyn_peer[0]  lookupStabilitySig:vector  ETV
3649	12875 7377 31 65748 21.1 2037.835290090368 256 0.75 1 213.875 179.828125
vector 3650  Network.dyn_peer[0]  lookupTimeSig:vector  ETV
3650	20252 6973 31 65748 21.1 2037.835290090368 256 0 0.3 52.9 12.25
vector 3651  Network.dyn_peer[1]  lookupHopsSig:vector  ETV
3651	27225 6489 64 65781 22.1 2038.828746874043 256 0 3 356 574
vector 3652  Network.dyn_peer[1]  lookupStabilitySig:vector  ETV
3652	33714 7396 64 65781 22.1 2038.828746874043 256 0.625 1 211.5 175.96875
vector 3653  Network.dyn_peer[1]  lookupTimeSig:vector  ETV
3653	41110 6991 64 65781 22.1 2038.828746874043 256 0 0.3 54.8 12.86
vector 3654  Network.dyn_peer[2]  lookupHopsSig:vector  ETV
3654	48101 6514 94 65811 23.2 2039.806270056114 256 0 3 339 513
vector 3655  Network.dyn_peer[2]  lookupStabilitySig:vector  ETV
3655	54615 7442 94 65811 23.2 2039.806270056114 256 0.625 1 213.625 179.265625
vector 3656  Network.dyn_peer[2]  lookupTimeSig:vector  ETV
3656	62057 7020 94 65811 23.2 2039.806270056114 256 0 0.3 53 12.04
vector 3657  Network.dyn_peer[3]  lookupHopsSig:vector  ETV
3657	69077 6419 130 65842 24.3 2040.918229033722 256 0 3 343 541
vector 3658  Network.dyn_peer[3]  lookupStabilitySig:vector  ETV
3658	75496 7331 130 65842 24.3 2040.918229033722 256 0.625 1 213.125 178.703125
vector 3659  Network.dyn_peer[3]  lookupTimeSig:vector  ETV
3659	82827 6917 130 65842 24.3 2040.918229033722 256 0 0.4 53.5 12.41
vector 3660  Network.dyn_peer[4]  lookupHopsSig:vector  ETV
3660	89744 6511 161 65876 25.1 2041.835334254929 256 0 3 365 611
vector 3661  Network.dyn_peer[4]  lookupStabilitySig:vector  ETV
3661	96255 7391 161 65876 25.1 2041.835334254929 256 0.625 1 210.375 174.296875
vector 3662  Network.dyn_peer[4]  lookupTimeSig:vector  ETV
3662	103646 7005 161 65876 25.1 2041.835334254929 256 0 0.4 55.7 13.49
vector 3663  Network.dyn_peer[5]  lookupHopsSig:vector  ETV
3663	110651 6519 190 65908 26.1 2042.922148208593 256 0 2 349 545
vector 3664  Network.dyn_peer[5]  lookupStabilitySig:vector  ETV
3664	117170 7425 190 65908 26.1 2042.922148208593 256 0.75 1 212.375 177.265625
vector 3665  Network.dyn_peer[5]  lookupTimeSig:vector  ETV
3665	124595 7021 190 65908 26.1 2042.922148208593 256 0 0.3 54 12.62
vector 3666  Network.dyn_peer[6]  lookupHopsSig:vector  ETV
3666	131616 6470 219 65937 27.1 2043.713258487025 256 0 3 356 570
vector 3667  Network.dyn_peer[6]  lookupStabilitySig:vector  ETV
3667	138086 7380 219 65937 27.1 2043.713258487025 256 0.625 1 211.5 175.90625
vector 3668  Network.dyn_peer[6]  lookupTimeSig:vector  ETV
3668	145466 6974 219 65937 27.1 2043.713258487025 256 0 0.4 54.8 12.94
vector 3669  Network.dyn_peer[7]  lookupHopsSig:vector  ETV
3669	152440 6500 249 65967 28.1 2044.90369243933 256 0 5 336 544
vector 3670  Network.dyn_peer[7]  lookupStabilitySig:vector  ETV
3670	158940 7388 249 65967 28.1 2044.90369243933 256 0.375 1 214 180.5
vector 3671  Network.dyn_peer[7]  lookupTimeSig:vector  ETV
3671	166328 6986 249 65967 28.1 2044.90369243933 256 0 0.4 52.6 12.32
vector 3672  Network.dyn_peer[8]  lookupHopsSig:vector  ETV
3672	173314 6489 282 65999 29.2 2045.726168810444 256 0 3 350 550
vector 3673  Network.dyn_peer[8]  lookupStabilitySig:vector  ETV
3673	179803 7410 282 65999 29.2 2045.726168810444 256 0.625 1 212.25 177.09375
vector 3674  Network.dyn_peer[8]  lookupTimeSig:vector  ETV
3674	187213 6995 282 65999 29.2 2045.726168810444 256 0 0.3 54.1 12.53
vector 3675  Network.dyn_peer[9]  lookupHopsSig:vector  ETV
3675	194208 6526 314 66037 30.2 2047.026770860328 256 0 4 361 595
vector 3676  Network.dyn_peer[9]  lookupStabilitySig:vector  ETV
3676	200734 7417 314 66037 30.2 2047.026770860328 256 0.5 1 210.875 175.046875
vector 3677  Network.dyn_peer[9]  lookupTimeSig:vector  ETV
3677	208151 7026 314 66037 30.2 2047.026770860328 256 0 0.3 55.1 13.15
vector 3678  Network.dyn_peer[10]  lookupHopsSig:vector  ETV
3678	215177 6454 345 66067 31.2 2047.924510705766 256 0 3 338 516
vector 3679  Network.dyn_peer[10]  lookupStabilitySig:vector  ETV
3679	221631 7368 345 66067 31.2 2047.924510705766 256 0.625 1 213.75 179.5625
vector 3680  Network.dyn_peer[10]  lookupTimeSig:vector  ETV
3680	228999 6954 345 66067 31.2 2047.924510705766 256 0 0.4 53 12.16
vector 3681  Network.dyn_peer[11]  lookupHopsSig:vector  ETV
3681	235953 6506 376 66099 32.2 2048.833569108571 256 0 3 355 577
vector 3682  Network.dyn_peer[11]  lookupStabilitySig:vector  ETV
3682	242459 7413 376 66099 32.2 2048.833569108571 256 0.625 1 211.625 176.265625
vector 3683  Network.dyn_peer[11]  lookupTimeSig:vector  ETV
3683	249872 7006 376 66099 32.2 2048.833569108571 256 0 0.3 54.6 12.86
vector 3684  Network.dyn_peer[12]  lookupHopsSig:vector  ETV
3684	256878 6484 408 66129 33.1 2049.808963116061 256 0 2 338 510
vector 3685  Network.dyn_peer[12]  lookupStabilitySig:vector  ETV
3685	263362 7406 408 66129 33.1 2049.808963116061 256 0.75 1 213.75 179.46875
vector 3686  Network.dyn_peer[12]  lookupTimeSig:vector  ETV
3686	270768 6988 408 66129 33.1 2049.808963116061 256 0 0.3 53 12.14
vector 3687  Network.dyn_peer[13]  lookupHopsSig:vector  ETV
3687	277756 6568 446 66161 34.2 2050.926556106738 256 0 2 344 532
vector 3688  Network.dyn_peer[13]  lookupStabilitySig:vector  ETV
3688	284324 7474 446 66161 34.2 2050.926556106738 256 0.75 1 213 178.3125
vector 3689  Network.dyn_peer[13]  lookupTimeSig:vector  ETV
3689	291798 7068 446 66161 34.2 2050.926556106738 256 0 0.3 53.6 12.6
vector 3690  Network.dyn_peer[14]  lookupHopsSig:vector  ETV
3690	298866 6458 476 66195 35.1 2051.920407479744 256 0 3 358 586
vector 3691  Network.dyn_peer[14]  lookupStabilitySig:vector  ETV
3691	305324 7369 476 66195 35.1 2051.920407479744 256 0.625 1 211.25 175.65625
vector 3692  Network.dyn_peer[14]  lookupTimeSig:vector  ETV
3692	312693 6960 476 66195 35.1 2051.920407479744 256 0 0.4 55 13.08
vector 3693  Network.dyn_peer[15]  lookupHopsSig:vector  ETV
3693	319653 6436 507 66229 36.1 2052.745473806887 256 0 3 334 522
vector 3694  Network.dyn_peer[15]  lookupStabilitySig:vector  ETV
3694	326089 7344 507 66229 36.1 2052.745473806887 256 0.625 1 214.25 180.65625
vector 3695  Network.dyn_peer[15]  lookupTimeSig:vector  ETV
3695	333433 6928 507 66229 36.1 2052.745473806887 256 0 0.4 52.6 12.22
vector 3696  Network.dyn_peer[16]  lookupHopsSig:vector  ETV
3696	340361 6514 544 66259 37.2 2053.916843562314 256 0 3 364 596
vector 3697  Network.dyn_peer[16]  lookupStabilitySig:vector  ETV
3697	346875 7411 544 66259 37.2 2053.916843562314 256 0.625 1 210.5 174.3125
vector 3698  Network.dyn_peer[16]  lookupTimeSig:vector  ETV
3698	354286 7016 544 66259 37.2 2053.916843562314 256 0 0.3 55.6 13.14
vector 3699  Network.dyn_peer[17]  lookupHopsSig:vector  ETV
3699	361302 6462 574 66293 38.2 2054.840157193067 256 0 4 343 541
vector 3700  Network.dyn_peer[17]  lookupStabilitySig:vector  ETV
3700	367764 7362 574 66293 38.2 2054.840157193067 256 0.5 1 213.125 178.703125
vector 3701  Network.dyn_peer[17]  lookupTimeSig:vector  ETV
3701	375126 6958 574 66293 38.2 2054.840157193067 256 0 0.4 53.3 12.39
vector 3702  Network.dyn_peer[18]  lookupHopsSig:vector  ETV
3702	382084 6581 605 66335 39.2 2056.057631075417 256 0 3 362 584
vector 3703  Network.dyn_peer[18]  lookupStabilitySig:vector  ETV
3703	388665 7502 605 66335 39.2 2056.057631075417 256 0.625 1 210.75 174.625
vector 3704  Network.dyn_peer[18]  lookupTimeSig:vector  ETV
3704	396167 7091 605 66335 39.2 2056.057631075417 256 0 0.3 55.3 13.01
vector 3705  Network.dyn_peer[19]  lookupHopsSig:vector  ETV
3705	403258 6455 644 66367 40.1 2057.021026611007 256 0 3 349 561
vector 3706  Network.dyn_peer[19]  lookupStabilitySig:vector  ETV
3706	409713 7363 644 66367 40.1 2057.021026611007 256 0.625 1 212.375 177.515625
vector 3707  Network.dyn_peer[19]  lookupTimeSig:vector  ETV
3707	417076 6953 644 66367 40.1 2057.021026611007 256 0 0.3 54 12.52
vector 3708  Network.dyn_peer[20]  lookupHopsSig:vector  ETV
3708	424029 6548 680 66402 41 2057.85244922796 256 0 5 350 576
vector 3709  Network.dyn_peer[20]  lookupStabilitySig:vector  ETV
3709	430577 7440 680 66402 41 2057.85244922796 256 0.375 1 212.25 177.5
vector 3710  Network.dyn_peer[20]  lookupTimeSig:vector  ETV
3710	438017 7042 680 66402 41 2057.85244922796 256 0 0.4 54 12.86
vector 3711  Network.dyn_peer[21]  lookupHopsSig:vector  ETV
3711	445059 6524 710 66433 42.2 2058.825319163269 256 0 3 350 548
vector 3712  Network.dyn_peer[21]  lookupStabilitySig:vector  ETV
3712	451583 7436 710 66433 42.2 2058.825319163269 256 0.625 1 212.25 177.0625
vector 3713  Network.dyn_peer[21]  lookupTimeSig:vector  ETV
3713	459019 7028 710 66433 42.2 2058.825319163269 256 0 0.4 54.2 12.66
vector 3714  Network.dyn_peer[22]  lookupHopsSig:vector  ETV
3714	466047 6458 741 66461 43.1 2059.711898383406 256 0 2 339 529
vector 3715  Network.dyn_peer[22]  lookupStabilitySig:vector  ETV
3715	472505 7339 741 66461 43.1 2059.711898383406 256 0.75 1 213.625 179.515625
vector 3716  Network.dyn_peer[22]  lookupTimeSig:vector  ETV
3716	479844 6946 741 66461 43.1 2059.711898383406 256 0 0.3 53.1 12.43
vector 3717  Network.dyn_peer[23]  lookupHopsSig:vector  ETV
3717	486790 6505 782 66491 44 2060.820080601905 256 0 3 352 574
vector 3718  Network.dyn_peer[23]  lookupStabilitySig:vector  ETV
3718	493295 7386 782 66491 44 2060.820080601905 256 0.625 1 212 176.96875
vector 3719  Network.dyn_peer[23]  lookupTimeSig:vector  ETV
3719	500681 6995 782 66491 44 2060.820080601905 256 0 0.3 54.4 12.96
vector 3720  Network.dyn_peer[24]  lookupHopsSig:vector  ETV
3720	507676 6584 813 66524 45.2 2061.913983719024 256 0 4 336 514
vector 3721  Network.dyn_peer[24]  lookupStabilitySig:vector  ETV
3721	514260 7499 813 66524 45.2 2061.913983719024 256 0.5 1 214 180.03125
vector 3722  Network.dyn_peer[24]  lookupTimeSig:vector  ETV
3722	521759 7084 813 66524 45.2 2061.913983719024 256 0 0.3 52.7 12.05
vector 3723  Network.dyn_peer[25]  lookupHopsSig:vector  ETV
3723	528843 6513 845 66555 46.2 2062.827651426423 256 0 3 319 477
vector 3724  Network.dyn_peer[25]  lookupStabilitySig:vector  ETV
3724	535356 7401 845 66555 46.2 2062.827651426423 256 0.625 1 216.125 183.703125
vector 3725  Network.dyn_peer[25]  lookupTimeSig:vector  ETV
3725	542757 6995 845 66555 46.2 2062.827651426423 256 0 0.4 51.1 11.75
vector 3726  Network.dyn_peer[26]  lookupHopsSig:vector  ETV
3726	549752 6450 868 66587 47.1 2063.835903120972 256 0 2 332 494
vector 3727  Network.dyn_peer[26]  lookupStabilitySig:vector  ETV
3727	556202 7373 868 66587 47.1 2063.835903120972 256 0.75 1 214.5 180.71875
vector 3728  Network.dyn_peer[26]  lookupTimeSig:vector  ETV
3728	563575 6952 868 66587 47.1 2063.835903120972 256 0 0.3 52.4 12.02
vector 3729  Network.dyn_peer[27]  lookupHopsSig:vector  ETV
3729	570527 6487 909 66618 48 2064.822423841704 256 0 4 355 583
vector 3730  Network.dyn_peer[27]  lookupStabilitySig:vector  ETV
3730	577014 7390 909 66618 48 2064.822423841704 256 0.5 1 211.625 176.359375
vector 3731  Network.dyn_peer[27]  lookupTimeSig:vector  ETV
3731	584404 6987 909 66618 48 2064.822423841704 256 0 0.4 54.5 12.89
vector 3732  Network.dyn_peer[28]  lookupHopsSig:vector  ETV
3732	591391 6561 944 66651 49.1 2065.828536957148 256 0 5 358 588
vector 3733  Network.dyn_peer[28]  lookupStabilitySig:vector  ETV
3733	597952 7487 944 66651 49.1 2065.828536957148 256 0.375 1 211.25 175.6875
vector 3734  Network.dyn_peer[28]  lookupTimeSig:vector  ETV
3734	605439 7069 944 66651 49.1 2065.828536957148 256 0 0.4 54.9 12.89
vector 3735  Network.dyn_peer[29]  lookupHopsSig:vector  ETV
3735	612508 6492 975 66691 50.2 2066.958103680069 256 0 5 372 632
vector 3736  Network.dyn_peer[29]  lookupStabilitySig:vector  ETV
3736	619000 7413 975 66691 50.2 2066.958103680069 256 0.375 1 209.5 172.875
vector 3737  Network.dyn_peer[29]  lookupTimeSig:vector  ETV
3737	626413 7002 975 66691 50.2 2066.958103680069 256 0 0.4 56.3 13.59
vector 3738  Network.dyn_peer[30]  lookupHopsSig:vector  ETV
3738	633415 6453 1007 66725 51.1 2067.631729176637 256 0 3 348 558
vector 3739  Network.dyn_peer[30]  lookupStabilitySig:vector  ETV
3739	639868 7334 1007 66725 51.1 2067.631729176637 256 0.625 1 212.5 177.71875
vector 3740  Network.dyn_peer[30]  lookupTimeSig:vector  ETV
3740	647202 6943 1007 66725 51.1 2067.631729176637 256 0 0.4 54 12.9
vector 3741  Network.dyn_peer[31]  lookupHopsSig:vector  ETV
3741	654145 6567 1036 66758 52.1 2068.919806680626 256 0 3 340 530
vector 3742  Network.dyn_peer[31]  lookupStabilitySig:vector  ETV
3742	660712 7466 1036 66758 52.1 2068.919806680626 256 0.625 1 213.5 179.28125
vector 3743  Network.dyn_peer[31]  lookupTimeSig:vector  ETV
3743	668178 7061 1036 66758 52.1 2068.919806680626 256 0 0.4 53.1 12.35
