version 2
run Stability-norelink-140-20130525-23:23:23-22103
attr configname Stability-norelink
attr datetime 20130525-23:23:23
attr experiment Stability
attr inifile omnetpp.ini
attr iterationvars $0=1e-8
attr iterationvars2 "$0=1e-8, $repetition=0"
attr measurement $0=1e-8
attr network Network
attr processid 22103
attr repetition 0
attr replication #0
attr resultdir results
attr runnumber 140
attr seedset 140

vector 13485  Network.dyn_peer[15]  lookupHopsSig:vector  ETV
vector 13486  Network.dyn_peer[15]  lookupStabilitySig:vector  ETV
vector 13487  Network.dyn_peer[15]  lookupTimeSig:vector  ETV
vector 13488  Network.dyn_peer[16]  lookupHopsSig:vector  ETV
vector 13489  Network.dyn_peer[16]  lookupStabilitySig:vector  ETV
vector 13490  Network.dyn_peer[16]  lookupTimeSig:vector  ETV
vector 13497  Network.dyn_peer[19]  lookupHopsSig:vector  ETV
vector 13498  Network.dyn_peer[19]  lookupStabilitySig:vector  ETV
vector 13499  Network.dyn_peer[19]  lookupTimeSig:vector  ETV
vector 13440  Network.dyn_peer[0]  lookupHopsSig:vector  ETV
vector 13441  Network.dyn_peer[0]  lookupStabilitySig:vector  ETV
vector 13442  Network.dyn_peer[0]  lookupTimeSig:vector  ETV
vector 13443  Network.dyn_peer[1]  lookupHopsSig:vector  ETV
vector 13444  Network.dyn_peer[1]  lookupStabilitySig:vector  ETV
vector 13445  Network.dyn_peer[1]  lookupTimeSig:vector  ETV
vector 13449  Network.dyn_peer[3]  lookupHopsSig:vector  ETV
vector 13450  Network.dyn_peer[3]  lookupStabilitySig:vector  ETV
vector 13451  Network.dyn_peer[3]  lookupTimeSig:vector  ETV
vector 13452  Network.dyn_peer[4]  lookupHopsSig:vector  ETV
vector 13453  Network.dyn_peer[4]  lookupStabilitySig:vector  ETV
vector 13454  Network.dyn_peer[4]  lookupTimeSig:vector  ETV
vector 13455  Network.dyn_peer[5]  lookupHopsSig:vector  ETV
vector 13456  Network.dyn_peer[5]  lookupStabilitySig:vector  ETV
vector 13457  Network.dyn_peer[5]  lookupTimeSig:vector  ETV
vector 13500  Network.dyn_peer[20]  lookupHopsSig:vector  ETV
vector 13501  Network.dyn_peer[20]  lookupStabilitySig:vector  ETV
vector 13502  Network.dyn_peer[20]  lookupTimeSig:vector  ETV
vector 13530  Network.dyn_peer[30]  lookupHopsSig:vector  ETV
vector 13531  Network.dyn_peer[30]  lookupStabilitySig:vector  ETV
vector 13532  Network.dyn_peer[30]  lookupTimeSig:vector  ETV
vector 13446  Network.dyn_peer[2]  lookupHopsSig:vector  ETV
vector 13447  Network.dyn_peer[2]  lookupStabilitySig:vector  ETV
vector 13448  Network.dyn_peer[2]  lookupTimeSig:vector  ETV
vector 13458  Network.dyn_peer[6]  lookupHopsSig:vector  ETV
vector 13459  Network.dyn_peer[6]  lookupStabilitySig:vector  ETV
vector 13460  Network.dyn_peer[6]  lookupTimeSig:vector  ETV
vector 13461  Network.dyn_peer[7]  lookupHopsSig:vector  ETV
vector 13462  Network.dyn_peer[7]  lookupStabilitySig:vector  ETV
vector 13463  Network.dyn_peer[7]  lookupTimeSig:vector  ETV
vector 13476  Network.dyn_peer[12]  lookupHopsSig:vector  ETV
vector 13477  Network.dyn_peer[12]  lookupStabilitySig:vector  ETV
vector 13478  Network.dyn_peer[12]  lookupTimeSig:vector  ETV
vector 13506  Network.dyn_peer[22]  lookupHopsSig:vector  ETV
vector 13507  Network.dyn_peer[22]  lookupStabilitySig:vector  ETV
vector 13508  Network.dyn_peer[22]  lookupTimeSig:vector  ETV
vector 13524  Network.dyn_peer[28]  lookupHopsSig:vector  ETV
vector 13525  Network.dyn_peer[28]  lookupStabilitySig:vector  ETV
vector 13526  Network.dyn_peer[28]  lookupTimeSig:vector  ETV
vector 13527  Network.dyn_peer[29]  lookupHopsSig:vector  ETV
vector 13528  Network.dyn_peer[29]  lookupStabilitySig:vector  ETV
vector 13529  Network.dyn_peer[29]  lookupTimeSig:vector  ETV
vector 13533  Network.dyn_peer[31]  lookupHopsSig:vector  ETV
vector 13534  Network.dyn_peer[31]  lookupStabilitySig:vector  ETV
vector 13535  Network.dyn_peer[31]  lookupTimeSig:vector  ETV
vector 13464  Network.dyn_peer[8]  lookupHopsSig:vector  ETV
vector 13465  Network.dyn_peer[8]  lookupStabilitySig:vector  ETV
vector 13466  Network.dyn_peer[8]  lookupTimeSig:vector  ETV
vector 13467  Network.dyn_peer[9]  lookupHopsSig:vector  ETV
vector 13468  Network.dyn_peer[9]  lookupStabilitySig:vector  ETV
vector 13469  Network.dyn_peer[9]  lookupTimeSig:vector  ETV
vector 13470  Network.dyn_peer[10]  lookupHopsSig:vector  ETV
vector 13471  Network.dyn_peer[10]  lookupStabilitySig:vector  ETV
vector 13472  Network.dyn_peer[10]  lookupTimeSig:vector  ETV
vector 13479  Network.dyn_peer[13]  lookupHopsSig:vector  ETV
vector 13480  Network.dyn_peer[13]  lookupStabilitySig:vector  ETV
vector 13481  Network.dyn_peer[13]  lookupTimeSig:vector  ETV
vector 13482  Network.dyn_peer[14]  lookupHopsSig:vector  ETV
vector 13483  Network.dyn_peer[14]  lookupStabilitySig:vector  ETV
vector 13484  Network.dyn_peer[14]  lookupTimeSig:vector  ETV
vector 13494  Network.dyn_peer[18]  lookupHopsSig:vector  ETV
vector 13495  Network.dyn_peer[18]  lookupStabilitySig:vector  ETV
vector 13496  Network.dyn_peer[18]  lookupTimeSig:vector  ETV
vector 13503  Network.dyn_peer[21]  lookupHopsSig:vector  ETV
vector 13504  Network.dyn_peer[21]  lookupStabilitySig:vector  ETV
vector 13505  Network.dyn_peer[21]  lookupTimeSig:vector  ETV
vector 13509  Network.dyn_peer[23]  lookupHopsSig:vector  ETV
vector 13510  Network.dyn_peer[23]  lookupStabilitySig:vector  ETV
vector 13511  Network.dyn_peer[23]  lookupTimeSig:vector  ETV
vector 13521  Network.dyn_peer[27]  lookupHopsSig:vector  ETV
vector 13522  Network.dyn_peer[27]  lookupStabilitySig:vector  ETV
vector 13523  Network.dyn_peer[27]  lookupTimeSig:vector  ETV
vector 13473  Network.dyn_peer[11]  lookupHopsSig:vector  ETV
vector 13474  Network.dyn_peer[11]  lookupStabilitySig:vector  ETV
vector 13475  Network.dyn_peer[11]  lookupTimeSig:vector  ETV
vector 13491  Network.dyn_peer[17]  lookupHopsSig:vector  ETV
vector 13492  Network.dyn_peer[17]  lookupStabilitySig:vector  ETV
vector 13493  Network.dyn_peer[17]  lookupTimeSig:vector  ETV
vector 13515  Network.dyn_peer[25]  lookupHopsSig:vector  ETV
vector 13516  Network.dyn_peer[25]  lookupStabilitySig:vector  ETV
vector 13517  Network.dyn_peer[25]  lookupTimeSig:vector  ETV
vector 13518  Network.dyn_peer[26]  lookupHopsSig:vector  ETV
vector 13519  Network.dyn_peer[26]  lookupStabilitySig:vector  ETV
vector 13520  Network.dyn_peer[26]  lookupTimeSig:vector  ETV
vector 13512  Network.dyn_peer[24]  lookupHopsSig:vector  ETV
vector 13513  Network.dyn_peer[24]  lookupStabilitySig:vector  ETV
vector 13514  Network.dyn_peer[24]  lookupTimeSig:vector  ETV
13440	136	20.10000000001	1
13440	517	20.70000000001	5
13440	842	21.00785114772	1
13440	1524	21.612178271106	6
13440	1906	21.912178271106	2
13440	2331	22.220707490137	2
13440	2615	22.424547557482	2
13440	2799	22.528904284963	3
13440	2811	22.534058559193	2
13440	3422	23.037563179748	5
13440	4200	23.837563179748	8
13440	4517	24.140258604782	2
13440	4563	24.233142334257	2
13440	5035	24.733792232873	5
13440	5809	25.433792232873	7
13440	5927	25.537577479378	1
13440	6558	26.15231301224	5
13440	6742	26.343057903136	8
13440	6923	26.457799935235	2
13440	7038	26.568301849632	1
13440	8579	27.775950334383	13
13440	8888	28.075950334383	2
13440	9244	28.383801289446	2
13440	9473	28.605145644982	2
13440	10706	29.715125667873	11
13440	11215	30.115125667873	3
13440	12001	30.751327176394	4
13440	12380	31.064842463665	2
13440	12467	31.125440336028	2
13440	12705	31.315321668746	12
13440	12730	31.325340336018	12
13440	12860	31.429886484835	2
13440	13157	31.630204510935	3
13440	13504	31.930204510935	2
13440	13962	32.23199017214	2
13440	14493	32.739844036468	4
13440	15053	33.231444492212	5
13440	15090	33.246261192823	4
13440	15608	33.647317799951	3
13440	15892	33.853197086318	2
13440	16741	34.553197086318	6
13440	17930	35.755167871185	11
13440	18384	36.158882723642	4
13440	18735	36.458882723642	2
13440	19562	37.072324403785	5
13440	19818	37.2921235388	1
13440	20261	37.610394098543	2
13440	20491	37.795242635404	2
13440	20744	38.018919736874	3
13440	20976	38.204605918683	4
13440	20984	38.221938651551	1
13440	21728	38.822808321719	7
13440	22410	39.422808321719	5
13440	22858	39.822823188868	3
13440	23588	40.424948382789	5
13440	24509	41.236499236124	7
13440	24771	41.441001472537	1
13440	24794	41.445746499854	1
13440	25012	41.649232571533	1
13440	26383	42.649332571543	12
13440	26889	43.149332571543	4
13440	27348	43.559376528774	4
13440	28218	44.259376528774	6
13440	28978	45.009603112074	2
13440	29061	45.059775147292	7
13440	29237	45.216285227166	7
13440	29523	45.466396444086	3
13440	29785	45.715308691879	7
13440	29804	45.726735473461	6
13440	29836	45.76575988277	8
13440	30417	46.2668062561	5
13440	30711	46.4668062561	1
13440	31240	46.868358578457	3
13440	31690	47.275560820556	3
13440	32196	47.696723498127	2
13440	32268	47.778945675046	4
13440	32603	48.003885095452	2
13440	33088	48.409262721011	3
13440	33397	48.681799243666	8
13440	33699	48.923471507088	4
13440	34032	49.290966276019	6
13440	34051	49.303554724709	4
13440	34393	49.606066150454	4
13440	34673	49.806066150454	1
13440	34921	50.009066041741	1
13440	34975	50.038328514523	1
13440	35406	50.34040859659	3
13440	36011	50.74040859659	3
13440	36136	50.841066006599	1
13440	37007	51.541066006599	6
13440	37192	51.741461056962	1
13440	37585	52.041561056972	3
13440	37895	52.341561056972	2
13440	38822	53.142945267155	7
13440	39023	53.279262961777	8
13440	39762	53.882867957451	6
13440	40231	54.282867957451	3
13440	40698	54.688553488319	4
13440	40934	54.896465493968	1
13440	41065	54.997509576614	1
13440	41423	55.297509576614	2
13440	41952	55.807228812073	5
13440	42709	56.507228812073	7
13440	43201	56.911999549684	3
13440	43631	57.212151753099	2
13440	44038	57.49307077753	3
13440	44187	57.598696630233	1
13440	44888	58.098696630233	4
13440	45289	58.404791966992	2
13440	45831	58.896391632205	8
13440	45947	59.014108075314	5
13440	46193	59.222317203586	1
13440	46412	59.430065497824	3
13440	46493	59.533728609137	2
13440	46526	59.606183605808	6
13440	46747	59.810299809593	2
13440	47003	60.116837666285	2
13440	47250	60.316937666295	2
13440	47488	60.526633376862	1
13440	48129	61.017281036354	3
13440	49244	62.032303179968	4
13440	49359	62.117281036354	11
13440	49763	62.439497846879	3
13440	49778	62.452443810979	3
13440	49978	62.623018620515	4
13440	51744	63.923592863856	16
13440	52520	64.459744263642	2
13440	53143	64.959744263642	4
13440	53388	65.167660653145	1
13440	54191	65.974240300514	7
13440	54414	66.178319647699	2
13440	54755	66.48255957772	2
13440	55566	67.171818380798	4
13440	57063	68.471818380798	13
13440	57516	68.874177871662	3
13440	57965	69.284102749392	3
13440	58325	69.58319735769	15
13440	58493	69.688886646359	1
13440	58852	69.988886646359	2
13440	59091	70.190744010003	1
13440	59323	70.397547135078	1
13440	59547	70.602619714547	1
13440	60265	71.304012301245	6
13440	60270	71.305139266188	6
13440	60288	71.30735127347	0
13440	60618	71.60735127347	2
13440	60623	71.609797547287	2
13440	60844	71.81833104401	1
13440	61145	72.028645719188	2
13440	61643	72.428645719188	3
13440	62008	72.732543931559	2
13440	62172	72.847082913099	2
13440	62191	72.853015673009	0
13440	62523	73.153015673009	2
13440	62809	73.360588905999	1
13440	64430	74.660688906009	16
13440	65543	75.560688906009	9
13440	65967	75.877500288993	9
13440	66252	76.080634825131	2
13440	66477	76.280634825131	1
13440	67095	76.785799567842	5
13440	67256	76.906293480226	4
13440	67553	77.187943274268	3
13440	67561	77.191159274371	3
13440	67798	77.393830892861	1
13440	67952	77.493930892871	1
13440	68819	78.293930892871	7
13440	69550	78.914714598764	6
13440	69761	79.115123659061	1
13440	70380	79.61622267646	4
13440	70753	79.923594642076	2
13440	70927	80.086337209132	1
13440	70993	80.130880613549	1
13440	71303	80.377376429316	6
13440	71639	80.678768034664	3
13440	72878	81.793177787519	2
13440	73207	82.044049459374	4
13440	73447	82.278768034664	17
13440	74310	82.985893574623	8
13440	75174	83.690773995579	3
13440	75372	83.885893574623	8
13440	75449	83.91620862395	2
13440	75832	84.223906500707	2
13440	76650	84.931327563014	7
13440	77018	85.231327563014	2
13440	77559	85.636038184945	3
13440	77985	85.926291510113	3
13440	78308	86.143430621418	4
13440	78674	86.432328538621	5
13440	78874	86.552800507167	3
13440	79969	87.453667860242	10
13440	81073	88.353667860242	9
13440	81641	88.859492003632	4
13440	81882	89.089930046725	2
13440	82064	89.269080247157	3
13440	82192	89.399098679153	3
13440	82375	89.619337814528	1
13440	82717	89.8816396766	5
13440	82957	90.092330413176	1
13440	83041	90.151722294511	3
13440	83227	90.296036882534	1
13440	83240	90.320656540709	7
13440	83904	90.822347876933	5
13440	84731	91.422347876933	5
13440	84945	91.626973782473	1
13440	84964	91.635164158929	0
13440	85397	92.035164158929	3
13440	85803	92.435958942578	3
13440	86651	93.134991874784	3
13440	86665	93.14394024742	6
13440	86843	93.249080701491	1
13440	87693	93.949080701491	6
13440	87933	94.154372724588	2
13440	88708	94.862905551101	7
13440	89143	95.163005551111	3
13440	90343	96.083464433705	6
13440	91175	96.783464433705	6
13440	91870	97.370409696775	2
13440	92289	97.677258420253	2
13440	92295	97.684436259393	8
13440	93115	98.386297383682	6
13440	94084	99.28973262336	10
13440	94934	99.98973262336	6
13440	95553	100.497084815352	4
13440	95732	100.641820894731	3
13440	96445	101.246117815226	6
13440	96503	101.301402944998	7
13440	96985	101.702409768087	4
13440	97646	102.202409768087	5
13440	98385	102.811134704063	5
13440	98839	103.312441655248	4
13440	99288	103.716418159478	4
13440	99867	104.216418159478	4
13440	100655	104.824560774359	5
13440	100658	104.826062419884	4
13440	101127	105.227616860577	4
13440	101575	105.627616860577	3
13440	102273	106.228754000453	5
13440	102526	106.436437520505	2
13440	102855	106.736437520505	2
13440	103328	107.125306385385	2
13440	104550	108.02966708665	4
13440	104677	108.12966708665	0
13440	104971	108.334288539071	1
13440	105965	109.167497677034	6
13440	106877	109.867497677034	6
13440	107244	110.139698193334	7
13440	107619	110.4508372186	2
13440	107986	110.753177043845	2
13440	108694	111.353277043855	6
13440	109343	111.853277043855	4
13440	110152	112.58059247949	2
13440	110176	112.587716579173	0
13440	110373	112.787716579173	1
13440	110936	113.290204838804	4
13440	111144	113.490304838814	2
13440	111511	113.790304838814	2
13440	112209	114.391494932814	7
13440	112458	114.597515805519	2
13440	113715	115.597515805519	12
13440	113919	115.807081988073	1
13440	114456	116.407878790072	5
13440	115308	117.216727975416	9
13440	115554	117.416727975416	1
13440	115781	117.617676015354	2
13440	116450	118.220210063082	5
13440	116489	118.271694466151	7
13440	116771	118.521591488916	2
13440	117251	118.925418217021	5
13440	118020	119.625418217021	7
13440	118424	119.96576419477	4
13440	118533	120.029571598371	3
13440	118580	120.081197077069	3
13440	119136	120.57329897157	5
13440	119166	120.582532484836	4
13440	119245	120.639292855715	5
13440	119425	120.742642478478	1
13440	120050	121.252348154745	4
13440	120300	121.455962625766	1
13440	121013	122.056062625776	6
13440	121241	122.256062625776	1
13440	121596	122.564859201681	2
13440	121868	122.821199947286	3
13440	121936	122.867623913519	3
13440	122270	123.173583763719	2
13440	122330	123.229491872378	1
13440	124002	124.538729967298	13
13440	124674	125.038729967298	4
13440	125290	125.575844624396	3
13440	125328	125.640794356146	5
13440	125632	125.880659970228	2
13440	125915	126.186983527866	3
13440	127007	127.086983527866	11
13440	127385	127.392619447729	2
13440	127404	127.413980561504	2
13440	128049	127.896053418395	4
13440	128169	127.996153418405	1
13440	128592	128.296153418405	2
13440	130111	129.498859707687	12
13440	130497	129.798859707687	2
13440	130844	130.107858328986	2
13440	131434	130.607958328996	6
13440	131834	131.016730787907	3
13440	132968	132.021645684453	9
13440	133210	132.263304344159	4
13440	133433	132.423977014779	7
13440	133690	132.670958274152	3
13440	134576	133.479289804009	8
13440	134791	133.679289804009	1
13440	135551	134.282082001214	5
13440	135969	134.683149197097	3
13440	135993	134.690534826338	8
13441	136	20.10000000001	0.875
13441	517	20.70000000001	0.375
13441	842	21.00785114772	0.875
13441	1524	21.612178271106	0.25
13441	1906	21.912178271106	0.75
13441	2331	22.220707490137	0.75
13441	2615	22.424547557482	0.75
13441	2799	22.528904284963	0.625
13441	2811	22.534058559193	0.75
13441	3422	23.037563179748	0.375
13441	4200	23.837563179748	0
13441	4517	24.140258604782	0.75
13441	4563	24.233142334257	0.75
13441	5035	24.733792232873	0.375
13441	5809	25.433792232873	0.125
13441	5927	25.537577479378	0.875
13441	6558	26.15231301224	0.375
13441	6742	26.343057903136	0
13441	6923	26.457799935235	0.75
13441	7038	26.568301849632	0.875
13441	8579	27.775950334383	-0.625
13441	8888	28.075950334383	0.75
13441	9244	28.383801289446	0.75
13441	9473	28.605145644982	0.75
13441	10706	29.715125667873	-0.375
13441	11215	30.115125667873	0.625
13441	12001	30.751327176394	0.5
13441	12380	31.064842463665	0.75
13441	12467	31.125440336028	0.75
13441	12705	31.315321668746	-0.5
13441	12730	31.325340336018	-0.5
13441	12860	31.429886484835	0.75
13441	13157	31.630204510935	0.625
13441	13504	31.930204510935	0.75
13441	13962	32.23199017214	0.75
13441	14493	32.739844036468	0.5
13441	15053	33.231444492212	0.375
13441	15090	33.246261192823	0.5
13441	15608	33.647317799951	0.625
13441	15892	33.853197086318	0.75
13441	16741	34.553197086318	0.25
13441	17930	35.755167871185	-0.375
13441	18384	36.158882723642	0.5
13441	18735	36.458882723642	0.75
13441	19562	37.072324403785	0.375
13441	19818	37.2921235388	0.875
13441	20261	37.610394098543	0.75
13441	20491	37.795242635404	0.75
13441	20744	38.018919736874	0.625
13441	20976	38.204605918683	0.5
13441	20984	38.221938651551	0.875
13441	21728	38.822808321719	0.125
13441	22410	39.422808321719	0.375
13441	22858	39.822823188868	0.625
13441	23588	40.424948382789	0.375
13441	24509	41.236499236124	0.125
13441	24771	41.441001472537	0.875
13441	24794	41.445746499854	0.875
13441	25012	41.649232571533	0.875
13441	26383	42.649332571543	-0.5
13441	26889	43.149332571543	0.5
13441	27348	43.559376528774	0.5
13441	28218	44.259376528774	0.25
13441	28978	45.009603112074	0.75
13441	29061	45.059775147292	0.125
13441	29237	45.216285227166	0.125
13441	29523	45.466396444086	0.625
13441	29785	45.715308691879	0.125
13441	29804	45.726735473461	0.25
13441	29836	45.76575988277	0
13441	30417	46.2668062561	0.375
13441	30711	46.4668062561	0.875
13441	31240	46.868358578457	0.625
13441	31690	47.275560820556	0.625
13441	32196	47.696723498127	0.75
13441	32268	47.778945675046	0.5
13441	32603	48.003885095452	0.75
13441	33088	48.409262721011	0.625
13441	33397	48.681799243666	0
13441	33699	48.923471507088	0.5
13441	34032	49.290966276019	0.25
13441	34051	49.303554724709	0.5
13441	34393	49.606066150454	0.5
13441	34673	49.806066150454	0.875
13441	34921	50.009066041741	0.875
13441	34975	50.038328514523	0.875
13441	35406	50.34040859659	0.625
13441	36011	50.74040859659	0.625
13441	36136	50.841066006599	0.875
13441	37007	51.541066006599	0.25
13441	37192	51.741461056962	0.875
13441	37585	52.041561056972	0.625
13441	37895	52.341561056972	0.75
13441	38822	53.142945267155	0.125
13441	39023	53.279262961777	0
13441	39762	53.882867957451	0.25
13441	40231	54.282867957451	0.625
13441	40698	54.688553488319	0.5
13441	40934	54.896465493968	0.875
13441	41065	54.997509576614	0.875
13441	41423	55.297509576614	0.75
13441	41952	55.807228812073	0.375
13441	42709	56.507228812073	0.125
13441	43201	56.911999549684	0.625
13441	43631	57.212151753099	0.75
13441	44038	57.49307077753	0.625
13441	44187	57.598696630233	0.875
13441	44888	58.098696630233	0.5
13441	45289	58.404791966992	0.75
13441	45831	58.896391632205	0
13441	45947	59.014108075314	0.375
13441	46193	59.222317203586	0.875
13441	46412	59.430065497824	0.625
13441	46493	59.533728609137	0.75
13441	46526	59.606183605808	0.25
13441	46747	59.810299809593	0.75
13441	47003	60.116837666285	0.75
13441	47250	60.316937666295	0.75
13441	47488	60.526633376862	0.875
13441	48129	61.017281036354	0.625
13441	49244	62.032303179968	0.5
13441	49359	62.117281036354	-0.375
13441	49763	62.439497846879	0.625
13441	49778	62.452443810979	0.625
13441	49978	62.623018620515	0.5
13441	51744	63.923592863856	-1
13441	52520	64.459744263642	0.75
13441	53143	64.959744263642	0.5
13441	53388	65.167660653145	0.875
13441	54191	65.974240300514	0.125
13441	54414	66.178319647699	0.75
13441	54755	66.48255957772	0.75
13441	55566	67.171818380798	0.5
13441	57063	68.471818380798	-0.625
13441	57516	68.874177871662	0.625
13441	57965	69.284102749392	0.625
13441	58325	69.58319735769	-0.875
13441	58493	69.688886646359	0.875
13441	58852	69.988886646359	0.75
13441	59091	70.190744010003	0.875
13441	59323	70.397547135078	0.875
13441	59547	70.602619714547	0.875
13441	60265	71.304012301245	0.25
13441	60270	71.305139266188	0.25
13441	60288	71.30735127347	1
13441	60618	71.60735127347	0.75
13441	60623	71.609797547287	0.75
13441	60844	71.81833104401	0.875
13441	61145	72.028645719188	0.75
13441	61643	72.428645719188	0.625
13441	62008	72.732543931559	0.75
13441	62172	72.847082913099	0.75
13441	62191	72.853015673009	1
13441	62523	73.153015673009	0.75
13441	62809	73.360588905999	0.875
13441	64430	74.660688906009	-1
13441	65543	75.560688906009	-0.125
13441	65967	75.877500288993	-0.125
13441	66252	76.080634825131	0.75
13441	66477	76.280634825131	0.875
13441	67095	76.785799567842	0.375
13441	67256	76.906293480226	0.5
13441	67553	77.187943274268	0.625
13441	67561	77.191159274371	0.625
13441	67798	77.393830892861	0.875
13441	67952	77.493930892871	0.875
13441	68819	78.293930892871	0.125
13441	69550	78.914714598764	0.25
13441	69761	79.115123659061	0.875
13441	70380	79.61622267646	0.5
13441	70753	79.923594642076	0.75
13441	70927	80.086337209132	0.875
13441	70993	80.130880613549	0.875
13441	71303	80.377376429316	0.25
13441	71639	80.678768034664	0.625
13441	72878	81.793177787519	0.75
13441	73207	82.044049459374	0.5
13441	73447	82.278768034664	-1.125
13441	74310	82.985893574623	0
13441	75174	83.690773995579	0.625
13441	75372	83.885893574623	0
13441	75449	83.91620862395	0.75
13441	75832	84.223906500707	0.75
13441	76650	84.931327563014	0.125
13441	77018	85.231327563014	0.75
13441	77559	85.636038184945	0.625
13441	77985	85.926291510113	0.625
13441	78308	86.143430621418	0.5
13441	78674	86.432328538621	0.375
13441	78874	86.552800507167	0.625
13441	79969	87.453667860242	-0.25
13441	81073	88.353667860242	-0.125
13441	81641	88.859492003632	0.5
13441	81882	89.089930046725	0.75
13441	82064	89.269080247157	0.625
13441	82192	89.399098679153	0.625
13441	82375	89.619337814528	0.875
13441	82717	89.8816396766	0.375
13441	82957	90.092330413176	0.875
13441	83041	90.151722294511	0.625
13441	83227	90.296036882534	0.875
13441	83240	90.320656540709	0.125
13441	83904	90.822347876933	0.375
13441	84731	91.422347876933	0.375
13441	84945	91.626973782473	0.875
13441	84964	91.635164158929	1
13441	85397	92.035164158929	0.625
13441	85803	92.435958942578	0.625
13441	86651	93.134991874784	0.625
13441	86665	93.14394024742	0.25
13441	86843	93.249080701491	0.875
13441	87693	93.949080701491	0.25
13441	87933	94.154372724588	0.75
13441	88708	94.862905551101	0.125
13441	89143	95.163005551111	0.66666665673256
13441	90343	96.083464433705	0.25
13441	91175	96.783464433705	0.25
13441	91870	97.370409696775	0.75
13441	92289	97.677258420253	0.75
13441	92295	97.684436259393	0
13441	93115	98.386297383682	0.25
13441	94084	99.28973262336	-0.25
13441	94934	99.98973262336	0.25
13441	95553	100.497084815352	0.5
13441	95732	100.641820894731	0.625
13441	96445	101.246117815226	0.25
13441	96503	101.301402944998	0.125
13441	96985	101.702409768087	0.5
13441	97646	102.202409768087	0.375
13441	98385	102.811134704063	0.375
13441	98839	103.312441655248	0.5
13441	99288	103.716418159478	0.5
13441	99867	104.216418159478	0.5
13441	100655	104.824560774359	0.375
13441	100658	104.826062419884	0.5
13441	101127	105.227616860577	0.5
13441	101575	105.627616860577	0.625
13441	102273	106.228754000453	0.375
13441	102526	106.436437520505	0.75
13441	102855	106.736437520505	0.75
13441	103328	107.125306385385	0.75
13441	104550	108.02966708665	0.5
13441	104677	108.12966708665	1
13441	104971	108.334288539071	0.875
13441	105965	109.167497677034	0.25
13441	106877	109.867497677034	0.25
13441	107244	110.139698193334	0.125
13441	107619	110.4508372186	0.75
13441	107986	110.753177043845	0.75
13441	108694	111.353277043855	0.25
13441	109343	111.853277043855	0.5
13441	110152	112.58059247949	0.75
13441	110176	112.587716579173	1
13441	110373	112.787716579173	0.875
13441	110936	113.290204838804	0.5
13441	111144	113.490304838814	0.75
13441	111511	113.790304838814	0.75
13441	112209	114.391494932814	0.125
13441	112458	114.597515805519	0.75
13441	113715	115.597515805519	-0.5
13441	113919	115.807081988073	0.875
13441	114456	116.407878790072	0.375
13441	115308	117.216727975416	-0.125
13441	115554	117.416727975416	0.875
13441	115781	117.617676015354	0.75
13441	116450	118.220210063082	0.375
13441	116489	118.271694466151	0.125
13441	116771	118.521591488916	0.75
13441	117251	118.925418217021	0.375
13441	118020	119.625418217021	0.125
13441	118424	119.96576419477	0.5
13441	118533	120.029571598371	0.625
13441	118580	120.081197077069	0.625
13441	119136	120.57329897157	0.375
13441	119166	120.582532484836	0.5
13441	119245	120.639292855715	0.375
13441	119425	120.742642478478	0.875
13441	120050	121.252348154745	0.5
13441	120300	121.455962625766	0.875
13441	121013	122.056062625776	0.25
13441	121241	122.256062625776	0.875
13441	121596	122.564859201681	0.75
13441	121868	122.821199947286	0.625
13441	121936	122.867623913519	0.625
13441	122270	123.173583763719	0.75
13441	122330	123.229491872378	0.875
13441	124002	124.538729967298	-0.625
13441	124674	125.038729967298	0.5
13441	125290	125.575844624396	0.625
13441	125328	125.640794356146	0.375
13441	125632	125.880659970228	0.75
13441	125915	126.186983527866	0.625
13441	127007	127.086983527866	-0.375
13441	127385	127.392619447729	0.75
13441	127404	127.413980561504	0.75
13441	128049	127.896053418395	0.5
13441	128169	127.996153418405	0.875
13441	128592	128.296153418405	0.75
13441	130111	129.498859707687	-0.5
13441	130497	129.798859707687	0.75
13441	130844	130.107858328986	0.75
13441	131434	130.607958328996	0.25
13441	131834	131.016730787907	0.625
13441	132968	132.021645684453	-0.125
13441	133210	132.263304344159	0.5
13441	133433	132.423977014779	0.125
13441	133690	132.670958274152	0.625
13441	134576	133.479289804009	0
13441	134791	133.679289804009	0.875
13441	135551	134.282082001214	0.375
13441	135969	134.683149197097	0.625
13441	135993	134.690534826338	0
13442	136	20.10000000001	0.1
13442	517	20.70000000001	0.6
13442	842	21.00785114772	0.2
13442	1524	21.612178271106	0.6
13442	1906	21.912178271106	0.3
13442	2331	22.220707490137	0.3
13442	2615	22.424547557482	0.3
13442	2799	22.528904284963	0.3
13442	2811	22.534058559193	0.3
13442	3422	23.037563179748	0.5
13442	4200	23.837563179748	0.8
13442	4517	24.140258604782	0.3
13442	4563	24.233142334257	0.3
13442	5035	24.733792232873	0.5
13442	5809	25.433792232873	0.7
13442	5927	25.537577479378	0.1
13442	6558	26.15231301224	0.6
13442	6742	26.343057903136	0.8
13442	6923	26.457799935235	0.3
13442	7038	26.568301849632	0.2
13442	8579	27.775950334383	1.2
13442	8888	28.075950334383	0.3
13442	9244	28.383801289446	0.3
13442	9473	28.605145644982	0.3
13442	10706	29.715125667873	1.1
13442	11215	30.115125667873	0.4
13442	12001	30.751327176394	0.5
13442	12380	31.064842463665	0.3
13442	12467	31.125440336028	0.3
13442	12705	31.315321668746	1.2
13442	12730	31.325340336018	1.2
13442	12860	31.429886484835	0.3
13442	13157	31.630204510935	0.2
13442	13504	31.930204510935	0.3
13442	13962	32.23199017214	0.3
13442	14493	32.739844036468	0.5
13442	15053	33.231444492212	0.6
13442	15090	33.246261192823	0.5
13442	15608	33.647317799951	0.4
13442	15892	33.853197086318	0.2
13442	16741	34.553197086318	0.7
13442	17930	35.755167871185	1.1
13442	18384	36.158882723642	0.4
13442	18735	36.458882723642	0.3
13442	19562	37.072324403785	0.6
13442	19818	37.2921235388	0.2
13442	20261	37.610394098543	0.3
13442	20491	37.795242635404	0.3
13442	20744	38.018919736874	0.4
13442	20976	38.204605918683	0.4
13442	20984	38.221938651551	0.2
13442	21728	38.822808321719	0.6
13442	22410	39.422808321719	0.6
13442	22858	39.822823188868	0.4
13442	23588	40.424948382789	0.6
13442	24509	41.236499236124	0.8
13442	24771	41.441001472537	0.2
13442	24794	41.445746499854	0.2
13442	25012	41.649232571533	0.2
13442	26383	42.649332571543	1
13442	26889	43.149332571543	0.5
13442	27348	43.559376528774	0.4
13442	28218	44.259376528774	0.7
13442	28978	45.009603112074	0.3
13442	29061	45.059775147292	0.8
13442	29237	45.216285227166	0.8
13442	29523	45.466396444086	0.4
13442	29785	45.715308691879	0.7
13442	29804	45.726735473461	0.7
13442	29836	45.76575988277	0.9
13442	30417	46.2668062561	0.5
13442	30711	46.4668062561	0.2
13442	31240	46.868358578457	0.4
13442	31690	47.275560820556	0.4
13442	32196	47.696723498127	0.3
13442	32268	47.778945675046	0.5
13442	32603	48.003885095452	0.3
13442	33088	48.409262721011	0.4
13442	33397	48.681799243666	0.9
13442	33699	48.923471507088	0.5
13442	34032	49.290966276019	0.6
13442	34051	49.303554724709	0.4
13442	34393	49.606066150454	0.3
13442	34673	49.806066150454	0.2
13442	34921	50.009066041741	0.2
13442	34975	50.038328514523	0.2
13442	35406	50.34040859659	0.3
13442	36011	50.74040859659	0.4
13442	36136	50.841066006599	0.1
13442	37007	51.541066006599	0.7
13442	37192	51.741461056962	0.2
13442	37585	52.041561056972	0.3
13442	37895	52.341561056972	0.3
13442	38822	53.142945267155	0.8
13442	39023	53.279262961777	0.9
13442	39762	53.882867957451	0.6
13442	40231	54.282867957451	0.4
13442	40698	54.688553488319	0.4
13442	40934	54.896465493968	0.2
13442	41065	54.997509576614	0.1
13442	41423	55.297509576614	0.3
13442	41952	55.807228812073	0.5
13442	42709	56.507228812073	0.7
13442	43201	56.911999549684	0.4
13442	43631	57.212151753099	0.3
13442	44038	57.49307077753	0.4
13442	44187	57.598696630233	0.1
13442	44888	58.098696630233	0.5
13442	45289	58.404791966992	0.3
13442	45831	58.896391632205	0.9
13442	45947	59.014108075314	0.6