file 723882 1369674158                                          
version 2
run Stability-norelink-7-20130525-23:15:03-22103
attr configname Stability-norelink
attr datetime 20130525-23:15:03
attr experiment Stability
attr inifile omnetpp.ini
attr iterationvars $0=1e6
attr iterationvars2 "$0=1e6, $repetition=7"
attr measurement $0=1e6
attr network Network
attr processid 22103
attr repetition 7
attr replication #7
attr resultdir results
attr runnumber 7
attr seedset 7
vector 672  Network.dyn_peer[0]  lookupHopsSig:vector  ETV
672	6297 6939 32 65590 1020.1 2017020.712749094289 256 0 3 345 541
vector 673  Network.dyn_peer[0]  lookupStabilitySig:vector  ETV
673	13236 7850 32 65590 1020.1 2017020.712749094289 256 0.625 1 212.875 178.203125
vector 674  Network.dyn_peer[0]  lookupTimeSig:vector  ETV
674	21086 7439 32 65590 1020.1 2017020.712749094289 256 0 0.4 53.7 12.47
vector 675  Network.dyn_peer[1]  lookupHopsSig:vector  ETV
675	28525 6924 70 65622 2020.1 2018020.922797140684 256 0 3 343 551
vector 676  Network.dyn_peer[1]  lookupStabilitySig:vector  ETV
676	35449 7832 70 65622 2020.1 2018020.922797140684 256 0.625 1 213.125 178.859375
vector 677  Network.dyn_peer[1]  lookupTimeSig:vector  ETV
677	43281 7418 70 65622 2020.1 2018020.922797140684 256 0 0.4 53.5 12.55
vector 678  Network.dyn_peer[2]  lookupHopsSig:vector  ETV
678	50699 7046 125 65655 3020.2 2019020.73670179158 256 0 3 328 490
vector 679  Network.dyn_peer[2]  lookupStabilitySig:vector  ETV
679	57745 7960 125 65655 3020.2 2019020.73670179158 256 0.625 1 215 181.65625
vector 680  Network.dyn_peer[2]  lookupTimeSig:vector  ETV
680	65705 7542 125 65655 3020.2 2019020.73670179158 256 0 0.4 52 11.72
vector 681  Network.dyn_peer[3]  lookupHopsSig:vector  ETV
681	73247 7009 165 65686 4020.1 2020020.73134340199 256 0 3 334 516
vector 682  Network.dyn_peer[3]  lookupStabilitySig:vector  ETV
682	80256 7904 165 65686 4020.1 2020020.73134340199 256 0.625 1 214.25 180.5625
vector 683  Network.dyn_peer[3]  lookupTimeSig:vector  ETV
683	88160 7499 165 65686 4020.1 2020020.73134340199 256 0 0.4 52.6 12.24
vector 684  Network.dyn_peer[4]  lookupHopsSig:vector  ETV
684	95659 6985 194 65716 5020.2 2021020.812606344305 256 0 3 340 520
vector 685  Network.dyn_peer[4]  lookupStabilitySig:vector  ETV
685	102644 7909 194 65716 5020.2 2021020.812606344305 256 0.625 1 213.5 179.125
vector 686  Network.dyn_peer[4]  lookupTimeSig:vector  ETV
686	110553 7489 194 65716 5020.2 2021020.812606344305 256 0 0.4 53.2 12.24
vector 687  Network.dyn_peer[5]  lookupHopsSig:vector  ETV
687	118042 6958 225 65750 6020.2 2022020.924604513768 256 0 3 349 559
vector 688  Network.dyn_peer[5]  lookupStabilitySig:vector  ETV
688	125000 7885 225 65750 6020.2 2022020.924604513768 256 0.625 1 212.375 177.484375
vector 689  Network.dyn_peer[5]  lookupTimeSig:vector  ETV
689	132885 7462 225 65750 6020.2 2022020.924604513768 256 0 0.4 54.1 12.69
vector 690  Network.dyn_peer[6]  lookupHopsSig:vector  ETV
690	140347 6996 258 65783 7020.2 2023020.733927935419 256 0 3 345 545
vector 691  Network.dyn_peer[6]  lookupStabilitySig:vector  ETV
691	147343 7897 258 65783 7020.2 2023020.733927935419 256 0.625 1 212.875 178.265625
vector 692  Network.dyn_peer[6]  lookupTimeSig:vector  ETV
692	155240 7492 258 65783 7020.2 2023020.733927935419 256 0 0.4 53.7 12.59
vector 693  Network.dyn_peer[7]  lookupHopsSig:vector  ETV
693	162732 7021 294 65811 8020.1 2024020.711349818107 256 0 3 340 524
vector 694  Network.dyn_peer[7]  lookupStabilitySig:vector  ETV
694	169753 7942 294 65811 8020.1 2024020.711349818107 256 0.625 1 213.5 179.1875
vector 695  Network.dyn_peer[7]  lookupTimeSig:vector  ETV
695	177695 7523 294 65811 8020.1 2024020.711349818107 256 0 0.4 53.2 12.32
vector 696  Network.dyn_peer[8]  lookupHopsSig:vector  ETV
696	185218 7045 329 65844 9020.1 2025020.91681150078 256 0 3 334 520
vector 697  Network.dyn_peer[8]  lookupStabilitySig:vector  ETV
697	192263 7930 329 65844 9020.1 2025020.91681150078 256 0.625 1 214.25 180.625
vector 698  Network.dyn_peer[8]  lookupTimeSig:vector  ETV
698	200193 7531 329 65844 9020.1 2025020.91681150078 256 0 0.4 52.6 12.36
vector 699  Network.dyn_peer[9]  lookupHopsSig:vector  ETV
699	207724 7037 359 65878 10020.2 2026020.942362272984 256 0 2 330 492
vector 700  Network.dyn_peer[9]  lookupStabilitySig:vector  ETV
700	214761 7952 359 65878 10020.2 2026020.942362272984 256 0.75 1 214.75 181.1875
vector 701  Network.dyn_peer[9]  lookupTimeSig:vector  ETV
701	222713 7535 359 65878 10020.2 2026020.942362272984 256 0 0.3 52.2 11.96
vector 702  Network.dyn_peer[10]  lookupHopsSig:vector  ETV
702	230248 7031 391 65909 11020 2027020.916117675852 256 0 2 327 495
vector 703  Network.dyn_peer[10]  lookupStabilitySig:vector  ETV
703	237279 7919 391 65909 11020 2027020.916117675852 256 0.75 1 215.125 181.984375
vector 704  Network.dyn_peer[10]  lookupTimeSig:vector  ETV
704	245198 7517 391 65909 11020 2027020.916117675852 256 0 0.3 51.9 11.93
vector 705  Network.dyn_peer[11]  lookupHopsSig:vector  ETV
705	252715 6958 421 65942 12020.2 2028020.927059232248 256 0 3 334 512
vector 706  Network.dyn_peer[11]  lookupStabilitySig:vector  ETV
706	259673 7863 421 65942 12020.2 2028020.927059232248 256 0.625 1 214.25 180.5
vector 707  Network.dyn_peer[11]  lookupTimeSig:vector  ETV
707	267536 7452 421 65942 12020.2 2028020.927059232248 256 0 0.4 52.6 12.08
vector 708  Network.dyn_peer[12]  lookupHopsSig:vector  ETV
708	274988 7052 453 65971 13020 2029020.807682161456 256 0 3 338 520
vector 709  Network.dyn_peer[12]  lookupStabilitySig:vector  ETV
709	282040 7956 453 65971 13020 2029020.807682161456 256 0.625 1 213.75 179.625
vector 710  Network.dyn_peer[12]  lookupTimeSig:vector  ETV
710	289996 7548 453 65971 13020 2029020.807682161456 256 0 0.4 53 12.26
vector 711  Network.dyn_peer[13]  lookupHopsSig:vector  ETV
711	297544 6972 494 66004 14020.2 2030020.923021586991 256 0 3 328 492
vector 712  Network.dyn_peer[13]  lookupStabilitySig:vector  ETV
712	304516 7888 494 66004 14020.2 2030020.923021586991 256 0.625 1 215 181.6875
vector 713  Network.dyn_peer[13]  lookupTimeSig:vector  ETV
713	312404 7468 494 66004 14020.2 2030020.923021586991 256 0 0.4 52 11.78
vector 714  Network.dyn_peer[14]  lookupHopsSig:vector  ETV
714	319872 7070 522 66043 15020 2031021.060326760043 256 0 2 340 514
vector 715  Network.dyn_peer[14]  lookupStabilitySig:vector  ETV
715	326942 7995 522 66043 15020 2031021.060326760043 256 0.75 1 213.5 179.03125
vector 716  Network.dyn_peer[14]  lookupTimeSig:vector  ETV
716	334937 7576 522 66043 15020 2031021.060326760043 256 0 0.3 53.2 12.18
vector 717  Network.dyn_peer[15]  lookupHopsSig:vector  ETV
717	342513 7021 550 66075 16020 2032020.818032842768 256 0 3 324 492
vector 718  Network.dyn_peer[15]  lookupStabilitySig:vector  ETV
718	349534 7932 550 66075 16020 2032020.818032842768 256 0.625 1 215.5 182.6875
vector 719  Network.dyn_peer[15]  lookupTimeSig:vector  ETV
719	357466 7511 550 66075 16020 2032020.818032842768 256 0 0.4 51.6 11.88
vector 720  Network.dyn_peer[16]  lookupHopsSig:vector  ETV
720	364977 6989 577 66106 17020 2033020.920435871771 256 0 3 343 533
vector 721  Network.dyn_peer[16]  lookupStabilitySig:vector  ETV
721	371966 7900 577 66106 17020 2033020.920435871771 256 0.625 1 213.125 178.578125
vector 722  Network.dyn_peer[16]  lookupTimeSig:vector  ETV
722	379866 7489 577 66106 17020 2033020.920435871771 256 0 0.4 53.5 12.39
vector 723  Network.dyn_peer[17]  lookupHopsSig:vector  ETV
723	387355 6958 608 66138 18020.2 2034021.109618048686 256 0 3 340 522
vector 724  Network.dyn_peer[17]  lookupStabilitySig:vector  ETV
724	394313 7884 608 66138 18020.2 2034021.109618048686 256 0.625 1 213.5 179.15625
vector 725  Network.dyn_peer[17]  lookupTimeSig:vector  ETV
725	402197 7462 608 66138 18020.2 2034021.109618048686 256 0 0.4 53.2 12.18
vector 726  Network.dyn_peer[18]  lookupHopsSig:vector  ETV
726	409659 7026 648 66169 19020.1 2035020.722692730249 256 0 3 343 539
vector 727  Network.dyn_peer[18]  lookupStabilitySig:vector  ETV
727	416685 7922 648 66169 19020.1 2035020.722692730249 256 0.625 1 213.125 178.671875
vector 728  Network.dyn_peer[18]  lookupTimeSig:vector  ETV
728	424607 7520 648 66169 19020.1 2035020.722692730249 256 0 0.4 53.5 12.59
vector 729  Network.dyn_peer[19]  lookupHopsSig:vector  ETV
729	432127 6975 676 66211 20020 2036020.88135641739 256 0 3 312 456
vector 730  Network.dyn_peer[19]  lookupStabilitySig:vector  ETV
730	439102 7870 676 66211 20020 2036020.88135641739 256 0.625 1 217 185.125
vector 731  Network.dyn_peer[19]  lookupTimeSig:vector  ETV
731	446972 7457 676 66211 20020 2036020.88135641739 256 0 0.4 50.4 11.24
vector 732  Network.dyn_peer[20]  lookupHopsSig:vector  ETV
732	454429 6971 705 66240 21020.1 2037020.707504274084 256 0 3 347 553
vector 733  Network.dyn_peer[20]  lookupStabilitySig:vector  ETV
733	461400 7872 705 66240 21020.1 2037020.707504274084 256 0.625 1 212.625 177.890625
vector 734  Network.dyn_peer[20]  lookupTimeSig:vector  ETV
734	469272 7467 705 66240 21020.1 2037020.707504274084 256 0 0.4 53.9 12.69
vector 735  Network.dyn_peer[21]  lookupHopsSig:vector  ETV
735	476739 7016 735 66270 22020 2038020.817855554017 256 0 3 352 578
vector 736  Network.dyn_peer[21]  lookupStabilitySig:vector  ETV
736	483755 7908 735 66270 22020 2038020.817855554017 256 0.625 1 212 177.03125
vector 737  Network.dyn_peer[21]  lookupTimeSig:vector  ETV
737	491663 7508 735 66270 22020 2038020.817855554017 256 0 0.4 54.4 13.24
vector 738  Network.dyn_peer[22]  lookupHopsSig:vector  ETV
738	499171 7007 771 66306 23020.1 2039021.038735935447 256 0 3 342 538
vector 739  Network.dyn_peer[22]  lookupStabilitySig:vector  ETV
739	506178 7913 771 66306 23020.1 2039021.038735935447 256 0.625 1 213.25 178.90625
vector 740  Network.dyn_peer[22]  lookupTimeSig:vector  ETV
740	514091 7503 771 66306 23020.1 2039021.038735935447 256 0 0.4 53.4 12.6
vector 741  Network.dyn_peer[23]  lookupHopsSig:vector  ETV
741	521594 6938 800 66338 24020.1 2040020.914980856872 256 0 3 340 528
vector 742  Network.dyn_peer[23]  lookupStabilitySig:vector  ETV
742	528532 7856 800 66338 24020.1 2040020.914980856872 256 0.625 1 213.5 179.25
vector 743  Network.dyn_peer[23]  lookupTimeSig:vector  ETV
743	536388 7438 800 66338 24020.1 2040020.914980856872 256 0 0.4 53.2 12.42
vector 744  Network.dyn_peer[24]  lookupHopsSig:vector  ETV
744	543826 7027 837 66368 25020.2 2041020.717793365469 256 0 3 335 515
vector 745  Network.dyn_peer[24]  lookupStabilitySig:vector  ETV
745	550853 7945 837 66368 25020.2 2041020.717793365469 256 0.625 1 214.125 180.296875
vector 746  Network.dyn_peer[24]  lookupTimeSig:vector  ETV
746	558798 7525 837 66368 25020.2 2041020.717793365469 256 0 0.4 52.7 12.13
vector 747  Network.dyn_peer[25]  lookupHopsSig:vector  ETV
747	566323 7050 876 66400 26020.1 2042020.920732175357 256 0 3 341 543
vector 748  Network.dyn_peer[25]  lookupStabilitySig:vector  ETV
748	573373 7930 876 66400 26020.1 2042020.920732175357 256 0.625 1 213.375 179.234375
vector 749  Network.dyn_peer[25]  lookupTimeSig:vector  ETV
749	581303 7536 876 66400 26020.1 2042020.920732175357 256 0 0.4 53.3 12.69
vector 750  Network.dyn_peer[26]  lookupHopsSig:vector  ETV
750	588839 7123 903 66431 27020 2043020.821435306712 256 0 3 349 565
vector 751  Network.dyn_peer[26]  lookupStabilitySig:vector  ETV
751	595962 8042 903 66431 27020 2043020.821435306712 256 0.625 1 212.375 177.578125
vector 752  Network.dyn_peer[26]  lookupTimeSig:vector  ETV
752	604004 7623 903 66431 27020 2043020.821435306712 256 0 0.4 54.1 12.59
vector 753  Network.dyn_peer[27]  lookupHopsSig:vector  ETV
753	611627 6998 934 66465 28020.1 2044020.927696696373 256 0 3 335 517
vector 754  Network.dyn_peer[27]  lookupStabilitySig:vector  ETV
754	618625 7918 934 66465 28020.1 2044020.927696696373 256 0.625 1 214.125 180.328125
vector 755  Network.dyn_peer[27]  lookupTimeSig:vector  ETV
755	626543 7496 934 66465 28020.1 2044020.927696696373 256 0 0.4 52.7 12.21
vector 756  Network.dyn_peer[28]  lookupHopsSig:vector  ETV
756	634039 7075 964 66499 29020.2 2045021.028867553114 256 0 3 352 562
vector 757  Network.dyn_peer[28]  lookupStabilitySig:vector  ETV
757	641114 7986 964 66499 29020.2 2045021.028867553114 256 0.625 1 212 176.78125
vector 758  Network.dyn_peer[28]  lookupTimeSig:vector  ETV
758	649100 7577 964 66499 29020.2 2045021.028867553114 256 0 0.4 54.4 12.84
vector 759  Network.dyn_peer[29]  lookupHopsSig:vector  ETV
759	656677 6995 995 66528 30020 2046020.810223850858 256 0 3 345 535
vector 760  Network.dyn_peer[29]  lookupStabilitySig:vector  ETV
760	663672 7907 995 66528 30020 2046020.810223850858 256 0.625 1 212.875 178.109375
vector 761  Network.dyn_peer[29]  lookupTimeSig:vector  ETV
761	671579 7497 995 66528 30020 2046020.810223850858 256 0 0.4 53.7 12.37
vector 762  Network.dyn_peer[30]  lookupHopsSig:vector  ETV
762	679076 7019 1025 66558 31020 2047020.720967953745 256 0 3 337 539
vector 763  Network.dyn_peer[30]  lookupStabilitySig:vector  ETV
763	686095 7911 1025 66558 31020 2047020.720967953745 256 0.625 1 213.875 180.171875
vector 764  Network.dyn_peer[30]  lookupTimeSig:vector  ETV
764	694006 7505 1025 66558 31020 2047020.720967953745 256 0 0.4 52.9 12.51
vector 765  Network.dyn_peer[31]  lookupHopsSig:vector  ETV
765	701511 6990 1063 66595 32020.2 2048020.937385649277 256 0 3 352 568
vector 766  Network.dyn_peer[31]  lookupStabilitySig:vector  ETV
766	708501 7893 1063 66595 32020.2 2048020.937385649277 256 0.625 1 212 176.875
vector 767  Network.dyn_peer[31]  lookupTimeSig:vector  ETV
767	716394 7488 1063 66595 32020.2 2048020.937385649277 256 0 0.4 54.4 12.84
