version 2
run Stability-norelink-133-20130525-23:22:55-22103
attr configname Stability-norelink
attr datetime 20130525-23:22:55
attr experiment Stability
attr inifile omnetpp.ini
attr iterationvars $0=1e-7
attr iterationvars2 "$0=1e-7, $repetition=3"
attr measurement $0=1e-7
attr network Network
attr processid 22103
attr repetition 3
attr replication #3
attr resultdir results
attr runnumber 133
attr seedset 133

vector 12774  Network.dyn_peer[2]  lookupHopsSig:vector  ETV
vector 12775  Network.dyn_peer[2]  lookupStabilitySig:vector  ETV
vector 12776  Network.dyn_peer[2]  lookupTimeSig:vector  ETV
vector 12786  Network.dyn_peer[6]  lookupHopsSig:vector  ETV
vector 12787  Network.dyn_peer[6]  lookupStabilitySig:vector  ETV
vector 12788  Network.dyn_peer[6]  lookupTimeSig:vector  ETV
vector 12813  Network.dyn_peer[15]  lookupHopsSig:vector  ETV
vector 12814  Network.dyn_peer[15]  lookupStabilitySig:vector  ETV
vector 12815  Network.dyn_peer[15]  lookupTimeSig:vector  ETV
vector 12828  Network.dyn_peer[20]  lookupHopsSig:vector  ETV
vector 12829  Network.dyn_peer[20]  lookupStabilitySig:vector  ETV
vector 12830  Network.dyn_peer[20]  lookupTimeSig:vector  ETV
vector 12831  Network.dyn_peer[21]  lookupHopsSig:vector  ETV
vector 12832  Network.dyn_peer[21]  lookupStabilitySig:vector  ETV
vector 12833  Network.dyn_peer[21]  lookupTimeSig:vector  ETV
vector 12840  Network.dyn_peer[24]  lookupHopsSig:vector  ETV
vector 12841  Network.dyn_peer[24]  lookupStabilitySig:vector  ETV
vector 12842  Network.dyn_peer[24]  lookupTimeSig:vector  ETV
vector 12768  Network.dyn_peer[0]  lookupHopsSig:vector  ETV
vector 12769  Network.dyn_peer[0]  lookupStabilitySig:vector  ETV
vector 12770  Network.dyn_peer[0]  lookupTimeSig:vector  ETV
vector 12771  Network.dyn_peer[1]  lookupHopsSig:vector  ETV
vector 12772  Network.dyn_peer[1]  lookupStabilitySig:vector  ETV
vector 12773  Network.dyn_peer[1]  lookupTimeSig:vector  ETV
vector 12783  Network.dyn_peer[5]  lookupHopsSig:vector  ETV
vector 12784  Network.dyn_peer[5]  lookupStabilitySig:vector  ETV
vector 12785  Network.dyn_peer[5]  lookupTimeSig:vector  ETV
vector 12789  Network.dyn_peer[7]  lookupHopsSig:vector  ETV
vector 12790  Network.dyn_peer[7]  lookupStabilitySig:vector  ETV
vector 12791  Network.dyn_peer[7]  lookupTimeSig:vector  ETV
vector 12792  Network.dyn_peer[8]  lookupHopsSig:vector  ETV
vector 12793  Network.dyn_peer[8]  lookupStabilitySig:vector  ETV
vector 12794  Network.dyn_peer[8]  lookupTimeSig:vector  ETV
vector 12795  Network.dyn_peer[9]  lookupHopsSig:vector  ETV
vector 12796  Network.dyn_peer[9]  lookupStabilitySig:vector  ETV
vector 12797  Network.dyn_peer[9]  lookupTimeSig:vector  ETV
vector 12798  Network.dyn_peer[10]  lookupHopsSig:vector  ETV
vector 12799  Network.dyn_peer[10]  lookupStabilitySig:vector  ETV
vector 12800  Network.dyn_peer[10]  lookupTimeSig:vector  ETV
vector 12801  Network.dyn_peer[11]  lookupHopsSig:vector  ETV
vector 12802  Network.dyn_peer[11]  lookupStabilitySig:vector  ETV
vector 12803  Network.dyn_peer[11]  lookupTimeSig:vector  ETV
vector 12816  Network.dyn_peer[16]  lookupHopsSig:vector  ETV
vector 12817  Network.dyn_peer[16]  lookupStabilitySig:vector  ETV
vector 12818  Network.dyn_peer[16]  lookupTimeSig:vector  ETV
vector 12837  Network.dyn_peer[23]  lookupHopsSig:vector  ETV
vector 12838  Network.dyn_peer[23]  lookupStabilitySig:vector  ETV
vector 12839  Network.dyn_peer[23]  lookupTimeSig:vector  ETV
vector 12861  Network.dyn_peer[31]  lookupHopsSig:vector  ETV
vector 12862  Network.dyn_peer[31]  lookupStabilitySig:vector  ETV
vector 12863  Network.dyn_peer[31]  lookupTimeSig:vector  ETV
vector 12780  Network.dyn_peer[4]  lookupHopsSig:vector  ETV
vector 12781  Network.dyn_peer[4]  lookupStabilitySig:vector  ETV
vector 12782  Network.dyn_peer[4]  lookupTimeSig:vector  ETV
vector 12819  Network.dyn_peer[17]  lookupHopsSig:vector  ETV
vector 12820  Network.dyn_peer[17]  lookupStabilitySig:vector  ETV
vector 12821  Network.dyn_peer[17]  lookupTimeSig:vector  ETV
vector 12822  Network.dyn_peer[18]  lookupHopsSig:vector  ETV
vector 12823  Network.dyn_peer[18]  lookupStabilitySig:vector  ETV
vector 12824  Network.dyn_peer[18]  lookupTimeSig:vector  ETV
vector 12843  Network.dyn_peer[25]  lookupHopsSig:vector  ETV
vector 12844  Network.dyn_peer[25]  lookupStabilitySig:vector  ETV
vector 12845  Network.dyn_peer[25]  lookupTimeSig:vector  ETV
vector 12849  Network.dyn_peer[27]  lookupHopsSig:vector  ETV
vector 12850  Network.dyn_peer[27]  lookupStabilitySig:vector  ETV
vector 12851  Network.dyn_peer[27]  lookupTimeSig:vector  ETV
vector 12852  Network.dyn_peer[28]  lookupHopsSig:vector  ETV
vector 12853  Network.dyn_peer[28]  lookupStabilitySig:vector  ETV
vector 12854  Network.dyn_peer[28]  lookupTimeSig:vector  ETV
vector 12858  Network.dyn_peer[30]  lookupHopsSig:vector  ETV
vector 12859  Network.dyn_peer[30]  lookupStabilitySig:vector  ETV
vector 12860  Network.dyn_peer[30]  lookupTimeSig:vector  ETV
vector 12804  Network.dyn_peer[12]  lookupHopsSig:vector  ETV
vector 12805  Network.dyn_peer[12]  lookupStabilitySig:vector  ETV
vector 12806  Network.dyn_peer[12]  lookupTimeSig:vector  ETV
vector 12825  Network.dyn_peer[19]  lookupHopsSig:vector  ETV
vector 12826  Network.dyn_peer[19]  lookupStabilitySig:vector  ETV
vector 12827  Network.dyn_peer[19]  lookupTimeSig:vector  ETV
vector 12846  Network.dyn_peer[26]  lookupHopsSig:vector  ETV
vector 12847  Network.dyn_peer[26]  lookupStabilitySig:vector  ETV
vector 12848  Network.dyn_peer[26]  lookupTimeSig:vector  ETV
vector 12855  Network.dyn_peer[29]  lookupHopsSig:vector  ETV
vector 12856  Network.dyn_peer[29]  lookupStabilitySig:vector  ETV
vector 12857  Network.dyn_peer[29]  lookupTimeSig:vector  ETV
vector 12807  Network.dyn_peer[13]  lookupHopsSig:vector  ETV
vector 12808  Network.dyn_peer[13]  lookupStabilitySig:vector  ETV
vector 12809  Network.dyn_peer[13]  lookupTimeSig:vector  ETV
vector 12810  Network.dyn_peer[14]  lookupHopsSig:vector  ETV
vector 12811  Network.dyn_peer[14]  lookupStabilitySig:vector  ETV
vector 12812  Network.dyn_peer[14]  lookupTimeSig:vector  ETV
vector 12834  Network.dyn_peer[22]  lookupHopsSig:vector  ETV
vector 12835  Network.dyn_peer[22]  lookupStabilitySig:vector  ETV
vector 12836  Network.dyn_peer[22]  lookupTimeSig:vector  ETV
vector 12777  Network.dyn_peer[3]  lookupHopsSig:vector  ETV
vector 12778  Network.dyn_peer[3]  lookupStabilitySig:vector  ETV
vector 12779  Network.dyn_peer[3]  lookupTimeSig:vector  ETV
12768	148	20.1000000001	1
12768	1054	21.3000000001	11
12768	2560	22.505423402201	14
12768	2780	22.713528403424	1
12768	2975	22.914921827887	1
12768	3321	23.224835622094	2
12768	3512	23.404913745239	7
12768	3878	23.727953281609	4
12768	4619	24.334216771257	6
12768	5057	24.734216771257	3
12768	5848	25.439971913072	4
12768	6220	25.739971913072	2
12768	7534	26.943084365693	12
12768	7584	26.954690439195	9
12768	8251	27.557416326703	5
12768	8525	27.75397751864	7
12768	8675	27.85407751874	1
12768	9573	28.55407751874	6
12768	10198	29.056821355434	5
12768	10687	29.556829083856	4
12768	11088	29.937850473569	10
12768	11313	30.16281477029	6
12768	11551	30.338146502398	3
12768	11979	30.668362642391	4
12768	12072	30.767593099768	7
12768	12226	30.863950682462	4
12768	13444	31.864549216877	11
12768	14551	32.664549216877	7
12768	14965	32.967796687478	2
12768	15571	33.377249433271	3
12768	15581	33.385862396269	3
12768	16288	33.986070559835	6
12768	17098	34.790794899512	7
12768	17710	35.290894899612	5
12768	18078	35.590894899612	2
12768	18929	36.196802843778	7
12768	19076	36.321011308452	4
12768	19383	36.621111308552	3
12768	19569	36.821111308552	1
12768	19805	37.031287727025	2
12768	20309	37.539524667795	5
12768	20366	37.622216457166	6
12768	20591	37.744311203373	1
12768	20738	37.922316457166	2
12768	20751	37.931189236396	2
12768	21720	38.733039118509	8
12768	22119	39.036799910516	2
12768	22597	39.442154174007	3
12768	22994	39.751201605908	2
12768	23353	40.044152751417	3
12768	23486	40.155939848094	3
12768	24439	40.962799003621	9
12768	25203	41.562799003621	5
12768	26158	42.192039719641	6
12768	26429	42.395322504069	8
12768	27030	42.900996349786	4
12768	27353	43.175080760047	7
12768	27756	43.47696395382	3
12768	28778	44.292979018807	1
12768	30005	45.192979018807	9
12768	30826	45.793079018907	6
12768	32215	46.786325897487	8
12768	33188	47.586325897487	7
12768	34551	48.691810159725	12
12768	34974	49.030461452221	9
12768	35398	49.408998606706	6
12768	35710	49.709098606806	3
12768	36170	50.123617632921	3
12768	37100	50.93084762706	10
12768	38600	52.0378429421	10
12768	39128	52.538960142027	4
12768	39435	52.753174704956	1
12768	39592	52.910418218403	2
12768	39870	53.11980056857	2
12768	40356	53.525743852902	3
12768	41271	54.237283314723	7
12768	41583	54.427085424195	9
12768	41919	54.643904866849	3
12768	42064	54.737339182057	3
12768	42941	55.343221411458	8
12768	43782	56.043221411458	6
12768	44043	56.248540815589	1
12768	46253	58.149702918544	23
12768	46467	58.349702918544	1
12768	46684	58.549808684771	1
12768	47107	58.954753750149	3
12768	47387	59.192116513462	4
12768	47435	59.224766410775	4
12768	47623	59.366178900383	4
12768	47861	59.531319305535	4
12768	47930	59.580418962519	7
12768	48201	59.786562857103	2
12768	49620	60.986562857103	12
12768	50297	61.593904002268	5
12768	50527	61.806204201131	5
12768	50681	61.909310442086	1
12768	51005	62.209310442086	2
12768	51650	62.716647766272	4
12768	52277	63.231991079879	4
12768	52482	63.437856240208	1
12768	54062	64.647148940144	13
12768	54700	65.165721900212	3
12768	55079	65.565721900212	3
12768	56308	66.542131548188	1
12768	57444	67.479183298514	4
12768	58060	68.000124722267	4
12768	58276	68.185799158592	7
12768	58427	68.312545482179	2
12768	59293	69.013614889027	7
12768	60324	70.113614889027	10
12768	60577	70.314537231446	3
12768	61708	71.414537231446	12
12768	62769	72.514874389242	12
12768	63515	73.219137531566	6
12768	63739	73.425973886261	2
12768	65102	74.625973886261	12
12768	65482	75.064728500087	5
12768	65710	75.269841647507	2
12768	65782	75.342548141944	6
12768	65922	75.447431972274	1
12768	66673	76.08813874655	2
12768	66745	76.147431972274	6
12768	66806	76.193200945962	5
12768	67078	76.395820100757	2
12768	67958	77.114479407024	2
12768	68290	77.395820100757	10
12768	68415	77.521671726506	3
12768	69042	78.025776873813	5
12768	70398	79.125776873813	11
12768	70972	79.628188174727	4
12768	71192	79.808343442109	4
12768	71403	80.013385128156	1
12768	71846	80.416805908899	4
12768	73423	81.816805908899	15
12768	73942	82.319439431594	5
12768	74200	82.625594749203	2
12768	75212	83.528625074933	8
12768	75475	83.736591786654	1
12768	75832	84.039312561007	2
12768	75980	84.170182967975	2
12768	76081	84.245621735832	1
12768	76630	84.799983589579	6
12768	77044	85.201973170232	5
12768	77240	85.401973170232	1
12768	78049	86.102073170332	7
12768	78564	86.502073170332	3
12768	79117	86.904542612581	3
12768	79429	87.110692559597	1
12768	80324	87.812222147404	7
12768	80676	88.112222147404	2
12768	81055	88.415121566752	2
12768	81231	88.622008868679	1
12768	82096	89.222733421299	6
12768	82675	89.722812846374	4
12768	82872	89.88607788916	4
12768	82916	89.928069795335	1
12768	82967	89.992597990266	1
12768	83300	90.29512269311	3
12768	83587	90.601448438265	2
12768	84307	91.306170054566	7
12768	84962	92.006170054566	6
12768	85587	92.612686515398	5
12768	86079	93.012786515498	4
12768	86934	93.712786515498	7
12768	87988	94.718952710582	11
12768	89139	95.618952710582	8
12768	89531	96.028746126054	3
12768	89704	96.196214591271	1
12768	90318	96.74019773913	6
12768	91011	97.267343672238	10
12768	91087	97.346011345178	6
12768	91105	97.366432873925	6
12768	91620	97.771672731711	4
12768	92072	98.171672731711	3
12768	92866	98.984472564666	8
12768	93298	99.384674819218	3
12768	94004	99.955984272173	5
12768	94235	100.161900847417	2
12768	94743	100.761900847417	6
12768	95023	101.062915888291	2
12768	95703	101.673182922058	5
12768	95936	101.876027230654	6
12768	95944	101.881216941814	1
12768	96474	102.281316941914	5
12768	97399	102.981316941914	6
12768	97636	103.190132715178	1
12768	98404	103.895640775458	7
12768	98516	104.008348177831	3
12768	98950	104.399103225925	5
12768	99128	104.518420222412	3
12768	99876	105.127458130257	6
12768	100155	105.327458130257	1
12768	100666	105.635886798955	3
12768	100937	105.835886798955	1
12768	101844	106.644369067135	7
12768	101916	106.744196835823	10
12768	102055	106.851551457843	1
12768	102075	106.859836690105	1
12768	102272	107.058441698271	1
12768	102723	107.465762242142	4
12768	102910	107.665762242142	1
12768	103452	108.069822726848	3
12768	103740	108.281205518843	1
12768	104357	108.686960585053	4
12768	105234	109.384083924426	4
12768	105820	109.884083924426	4
12768	106127	110.190667533876	2
12768	106464	110.492952463011	2
12768	107195	111.19881001131	6
12768	107682	111.607854294031	3
12768	108309	112.121183357675	4
12768	109361	113.034258282678	12
12768	110025	113.541044567848	4
12768	110353	113.744020279609	2
12768	110726	114.044020279609	3
12768	111854	115.052111903804	10
12768	112373	115.552769660244	4
12768	112806	115.961014376218	3
12768	112890	116.048566439134	3
12768	113251	116.363992685105	4
12768	113340	116.451750262173	3
12768	113599	116.671542278798	2
12768	114527	117.47414610881	8
12768	115178	117.97414610881	4
12768	115463	118.179380777928	1
12768	115709	118.388548417629	1
12768	116345	118.891130575712	4
12768	116971	119.399920830351	4
12768	117268	119.60797895806	2
12768	118255	120.40797895806	10
12768	118407	120.50807895816	1
12768	119961	121.80807895816	14
12768	120515	122.217327865923	3
12768	120547	122.276513191081	2
12768	120767	122.419915372659	1
12768	121564	123.129258963811	7
12768	122997	124.229258963811	11
12768	123799	124.838460798541	5
12768	124051	125.041761489666	1
12768	124265	125.251273819463	2
12768	124449	125.451273819463	1
12768	125822	126.653248610085	12
12768	126096	126.859835454268	2
12768	126168	126.919532565851	2
12768	126441	127.123534315217	2
12768	126682	127.32665154149	2
12768	127631	128.12665154149	7
12768	127730	128.216935948297	6
12768	128525	128.832655232683	6
12768	128644	128.922247092442	7
12768	130356	130.329668783601	14
12768	130732	130.629668783601	2
12768	131146	130.934623975902	2
12768	131443	131.139066325643	2
12768	131785	131.439066325643	2
12768	132512	132.145331087044	6
12768	132909	132.467036340484	4
12768	133458	132.976006710201	5
12768	133688	133.176006710201	1
12768	134044	133.483511911213	2
12768	134303	133.688930957863	1
12768	135128	134.298883966699	5
12768	135422	134.520121292386	8
12768	135667	134.700595169721	4
12768	135691	134.723513540055	1
12768	135946	134.925560616296	2
12768	136403	135.325560616296	3
12768	136614	135.534706754734	1
12768	137036	135.841017874035	5
12769	148	20.1000000001	0.875
12769	1054	21.3000000001	-0.375
12769	2560	22.505423402201	-0.75
12769	2780	22.713528403424	0.875
12769	2975	22.914921827887	0.875
12769	3321	23.224835622094	0.75
12769	3512	23.404913745239	0.125
12769	3878	23.727953281609	0.5
12769	4619	24.334216771257	0.25
12769	5057	24.734216771257	0.625
12769	5848	25.439971913072	0.5
12769	6220	25.739971913072	0.75
12769	7534	26.943084365693	-0.5
12769	7584	26.954690439195	-0.125
12769	8251	27.557416326703	0.375
12769	8525	27.75397751864	0.125
12769	8675	27.85407751874	0.875
12769	9573	28.55407751874	0.25
12769	10198	29.056821355434	0.375
12769	10687	29.556829083856	0.5
12769	11088	29.937850473569	-0.25
12769	11313	30.16281477029	0.25
12769	11551	30.338146502398	0.625
12769	11979	30.668362642391	0.5
12769	12072	30.767593099768	0.125
12769	12226	30.863950682462	0.5
12769	13444	31.864549216877	-0.375
12769	14551	32.664549216877	0.125
12769	14965	32.967796687478	0.75
12769	15571	33.377249433271	0.625
12769	15581	33.385862396269	0.625
12769	16288	33.986070559835	0.25
12769	17098	34.790794899512	0.125
12769	17710	35.290894899612	0.375
12769	18078	35.590894899612	0.75
12769	18929	36.196802843778	0.125
12769	19076	36.321011308452	0.5
12769	19383	36.621111308552	0.625
12769	19569	36.821111308552	0.875
12769	19805	37.031287727025	0.75
12769	20309	37.539524667795	0.375
12769	20366	37.622216457166	0.25
12769	20591	37.744311203373	0.875
12769	20738	37.922316457166	0.75
12769	20751	37.931189236396	0.75
12769	21720	38.733039118509	0
12769	22119	39.036799910516	0.75
12769	22597	39.442154174007	0.625
12769	22994	39.751201605908	0.75
12769	23353	40.044152751417	0.625
12769	23486	40.155939848094	0.625
12769	24439	40.962799003621	-0.125
12769	25203	41.562799003621	0.375
12769	26158	42.192039719641	0.25
12769	26429	42.395322504069	0
12769	27030	42.900996349786	0.5
12769	27353	43.175080760047	0.125
12769	27756	43.47696395382	0.625
12769	28778	44.292979018807	0.875
12769	30005	45.192979018807	-0.125
12769	30826	45.793079018907	0.25
12769	32215	46.786325897487	0
12769	33188	47.586325897487	0.125
12769	34551	48.691810159725	-0.5
12769	34974	49.030461452221	-0.125
12769	35398	49.408998606706	0.25
12769	35710	49.709098606806	0.625
12769	36170	50.123617632921	0.625
12769	37100	50.93084762706	-0.25
12769	38600	52.0378429421	-0.25
12769	39128	52.538960142027	0.5
12769	39435	52.753174704956	0.875
12769	39592	52.910418218403	0.75
12769	39870	53.11980056857	0.75
12769	40356	53.525743852902	0.625
12769	41271	54.237283314723	0.125
12769	41583	54.427085424195	-0.125
12769	41919	54.643904866849	0.625
12769	42064	54.737339182057	0.625
12769	42941	55.343221411458	0
12769	43782	56.043221411458	0.25
12769	44043	56.248540815589	0.875
12769	46253	58.149702918544	-1.875
12769	46467	58.349702918544	0.875
12769	46684	58.549808684771	0.875
12769	47107	58.954753750149	0.625
12769	47387	59.192116513462	0.5
12769	47435	59.224766410775	0.5
12769	47623	59.366178900383	0.5
12769	47861	59.531319305535	0.5
12769	47930	59.580418962519	0.125
12769	48201	59.786562857103	0.75
12769	49620	60.986562857103	-0.5
12769	50297	61.593904002268	0.375
12769	50527	61.806204201131	0.375
12769	50681	61.909310442086	0.875
12769	51005	62.209310442086	0.75
12769	51650	62.716647766272	0.5
12769	52277	63.231991079879	0.5
12769	52482	63.437856240208	0.875
12769	54062	64.647148940144	-0.625
12769	54700	65.165721900212	0.625
12769	55079	65.565721900212	0.625
12769	56308	66.542131548188	0.875
12769	57444	67.479183298514	0.5
12769	58060	68.000124722267	0.5
12769	58276	68.185799158592	0.125
12769	58427	68.312545482179	0.75
12769	59293	69.013614889027	0.125
12769	60324	70.113614889027	-0.25
12769	60577	70.314537231446	0.625
12769	61708	71.414537231446	-0.5
12769	62769	72.514874389242	-0.5
12769	63515	73.219137531566	0.25
12769	63739	73.425973886261	0.75
12769	65102	74.625973886261	-0.5
12769	65482	75.064728500087	0.375
12769	65710	75.269841647507	0.75
12769	65782	75.342548141944	0.25
12769	65922	75.447431972274	0.875
12769	66673	76.08813874655	0.75
12769	66745	76.147431972274	0.25
12769	66806	76.193200945962	0.375
12769	67078	76.395820100757	0.75
12769	67958	77.114479407024	0.75
12769	68290	77.395820100757	-0.25
12769	68415	77.521671726506	0.625
12769	69042	78.025776873813	0.375
12769	70398	79.125776873813	-0.375
12769	70972	79.628188174727	0.5
12769	71192	79.808343442109	0.5
12769	71403	80.013385128156	0.875
12769	71846	80.416805908899	0.5
12769	73423	81.816805908899	-0.875
12769	73942	82.319439431594	0.375
12769	74200	82.625594749203	0.75
12769	75212	83.528625074933	0
12769	75475	83.736591786654	0.875
12769	75832	84.039312561007	0.75
12769	75980	84.170182967975	0.75
12769	76081	84.245621735832	0.875
12769	76630	84.799983589579	0.25
12769	77044	85.201973170232	0.375
12769	77240	85.401973170232	0.875
12769	78049	86.102073170332	0.125
12769	78564	86.502073170332	0.625
12769	79117	86.904542612581	0.625
12769	79429	87.110692559597	0.875
12769	80324	87.812222147404	0.125
12769	80676	88.112222147404	0.75
12769	81055	88.415121566752	0.75
12769	81231	88.622008868679	0.875
12769	82096	89.222733421299	0.25
12769	82675	89.722812846374	0.5
12769	82872	89.88607788916	0.5
12769	82916	89.928069795335	0.875
12769	82967	89.992597990266	0.875
12769	83300	90.29512269311	0.625
12769	83587	90.601448438265	0.75
12769	84307	91.306170054566	0.125
12769	84962	92.006170054566	0.25
12769	85587	92.612686515398	0.375
12769	86079	93.012786515498	0.5
12769	86934	93.712786515498	0.125
12769	87988	94.718952710582	-0.375
12769	89139	95.618952710582	0
12769	89531	96.028746126054	0.625
12769	89704	96.196214591271	0.875
12769	90318	96.74019773913	0.25
12769	91011	97.267343672238	-0.25
12769	91087	97.346011345178	0.25
12769	91105	97.366432873925	0.25
12769	91620	97.771672731711	0.5
12769	92072	98.171672731711	0.625
12769	92866	98.984472564666	0
12769	93298	99.384674819218	0.625
12769	94004	99.955984272173	0.375
12769	94235	100.161900847417	0.75
12769	94743	100.761900847417	0.25
12769	95023	101.062915888291	0.75
12769	95703	101.673182922058	0.375
12769	95936	101.876027230654	0.25
12769	95944	101.881216941814	0.875
12769	96474	102.281316941914	0.375
12769	97399	102.981316941914	0.25
12769	97636	103.190132715178	0.875
12769	98404	103.895640775458	0.125
12769	98516	104.008348177831	0.66666665673256
12769	98950	104.399103225925	0.375
12769	99128	104.518420222412	0.625
12769	99876	105.127458130257	0.25
12769	100155	105.327458130257	0.875
12769	100666	105.635886798955	0.625
12769	100937	105.835886798955	0.875
12769	101844	106.644369067135	0.125
12769	101916	106.744196835823	-0.25
12769	102055	106.851551457843	0.875
12769	102075	106.859836690105	0.875
12769	102272	107.058441698271	0.875
12769	102723	107.465762242142	0.5
12769	102910	107.665762242142	0.875
12769	103452	108.069822726848	0.625
12769	103740	108.281205518843	0.875
12769	104357	108.686960585053	0.5
12769	105234	109.384083924426	0.5
12769	105820	109.884083924426	0.5
12769	106127	110.190667533876	0.75
12769	106464	110.492952463011	0.75
12769	107195	111.19881001131	0.25
12769	107682	111.607854294031	0.625
12769	108309	112.121183357675	0.5
12769	109361	113.034258282678	-0.5
12769	110025	113.541044567848	0.5
12769	110353	113.744020279609	0.75
12769	110726	114.044020279609	0.625
12769	111854	115.052111903804	-0.25
12769	112373	115.552769660244	0.5
12769	112806	115.961014376218	0.625
12769	112890	116.048566439134	0.625
12769	113251	116.363992685105	0.5
12769	113340	116.451750262173	0.625
12769	113599	116.671542278798	0.75
12769	114527	117.47414610881	0
12769	115178	117.97414610881	0.5
12769	115463	118.179380777928	0.875
12769	115709	118.388548417629	0.875
12769	116345	118.891130575712	0.5
12769	116971	119.399920830351	0.5
12769	117268	119.60797895806	0.75
12769	118255	120.40797895806	-0.25
12769	118407	120.50807895816	0.875
12769	119961	121.80807895816	-0.75
12769	120515	122.217327865923	0.625
12769	120547	122.276513191081	0.75
12769	120767	122.419915372659	0.875
12769	121564	123.129258963811	0.125
12769	122997	124.229258963811	-0.375
12769	123799	124.838460798541	0.375
12769	124051	125.041761489666	0.875
12769	124265	125.251273819463	0.75
12769	124449	125.451273819463	0.875
12769	125822	126.653248610085	-0.5
12769	126096	126.859835454268	0.75
12769	126168	126.919532565851	0.75
12769	126441	127.123534315217	0.75
12769	126682	127.32665154149	0.75
12769	127631	128.12665154149	0.125
12769	127730	128.216935948297	0.25
12769	128525	128.832655232683	0.25
12769	128644	128.922247092442	0.125
12769	130356	130.329668783601	-0.75
12769	130732	130.629668783601	0.75
12769	131146	130.934623975902	0.75
12769	131443	131.139066325643	0.75
12769	131785	131.439066325643	0.75
12769	132512	132.145331087044	0.25
12769	132909	132.467036340484	0.5
12769	133458	132.976006710201	0.375
12769	133688	133.176006710201	0.875
12769	134044	133.483511911213	0.75
12769	134303	133.688930957863	0.875
12769	135128	134.298883966699	0.375
12769	135422	134.520121292386	0
12769	135667	134.700595169721	0.5
12769	135691	134.723513540055	0.875
12769	135946	134.925560616296	0.75
12769	136403	135.325560616296	0.625
12769	136614	135.534706754734	0.875
12769	137036	135.841017874035	0.375
12770	148	20.1000000001	0.1
12770	1054	21.3000000001	1.2
12770	2560	22.505423402201	1.2
12770	2780	22.713528403424	0.2
12770	2975	22.914921827887	0.2
12770	3321	23.224835622094	0.3
12770	3512	23.404913745239	0.7
12770	3878	23.727953281609	0.5
12770	4619	24.334216771257	0.6
12770	5057	24.734216771257	0.4
12770	5848	25.439971913072	0.4
12770	6220	25.739971913072	0.3
12770	7534	26.943084365693	1.2
12770	7584	26.954690439195	0.9
12770	8251	27.557416326703	0.6
12770	8525	27.75397751864	0.8
12770	8675	27.85407751874	0.1
12770	9573	28.55407751874	0.7
12770	10198	29.056821355434	0.5
12770	10687	29.556829083856	0.5
12770	11088	29.937850473569	1
12770	11313	30.16281477029	0.6
12770	11551	30.338146502398	0.4
12770	11979	30.668362642391	0.5
12770	12072	30.767593099768	0.7
12770	12226	30.863950682462	0.5
12770	13444	31.864549216877	1
12770	14551	32.664549216877	0.8
12770	14965	32.967796687478	0.3
12770	15571	33.377249433271	0.4
12770	15581	33.385862396269	0.4
12770	16288	33.986070559835	0.6
12770	17098	34.790794899512	0.8
12770	17710	35.290894899612	0.5
12770	18078	35.590894899612	0.3
12770	18929	36.196802843778	0.6
12770	19076	36.321011308452	0.4
12770	19383	36.621111308552	0.3
12770	19569	36.821111308552	0.2
12770	19805	37.031287727025	0.2
12770	20309	37.539524667795	0.5
12770	20366	37.622216457166	0.7
12770	20591	37.744311203373	0.2
12770	20738	37.922316457166	0.3
12770	20751	37.931189236396	0.3
12770	21720	38.733039118509	0.8
12770	22119	39.036799910516	0.3
12770	22597	39.442154174007	0.4
12770	22994	39.751201605908	0.3
12770	23353	40.044152751417	0.4
12770	23486	40.155939848094	0.4
12770	24439	40.962799003621	0.8
12770	25203	41.562799003621	0.6
12770	26158	42.192039719641	0.6
12770	26429	42.395322504069	0.8
12770	27030	42.900996349786	0.5
12770	27353	43.175080760047	0.7
12770	27756	43.47696395382	0.3
12770	28778	44.292979018807	0.1
12770	30005	45.192979018807	0.9
12770	30826	45.793079018907	0.6
12770	32215	46.786325897487	0.7
12770	33188	47.586325897487	0.8
12770	34551	48.691810159725	1.1
12770	34974	49.030461452221	0.8
12770	35398	49.408998606706	0.7
12770	35710	49.709098606806	0.3
12770	36170	50.123617632921	0.4
12770	37100	50.93084762706	0.8
12770	38600	52.0378429421	0.9
12770	39128	52.538960142027	0.5
12770	39435	52.753174704956	0.2
12770	39592	52.910418218403	0.3
12770	39870	53.11980056857	0.2
12770	40356	53.525743852902	0.4
12770	41271	54.237283314723	0.7
12770	41583	54.427085424195	0.9
12770	41919	54.643904866849	0.4
12770	42064	54.737339182057	0.4
12770	42941	55.343221411458	0.6
12770	43782	56.043221411458	0.7
12770	44043	56.248540815589	0.2
12770	46253	58.149702918544	1.9
12770	46467	58.349702918544	0.2
12770	46684	58.549808684771	0.2
12770	47107	58.954753750149	0.4
12770	47387	59.192116513462	0.5
12770	47435	59.224766410775	0.5
12770	47623	59.366178900383	0.4
12770	47861	59.531319305535	0.3
12770	47930	59.580418962519	0.8
12770	48201	59.786562857103	0.2
12770	49620	60.986562857103	1.2
12770	50297	61.593904002268	0.6
12770	50527	61.806204201131	0.6
12770	50681	61.909310442086	0.1
12770	51005	62.209310442086	0.3
12770	51650	62.716647766272	0.5
12770	52277	63.231991079879	0.5
12770	52482	63.437856240208	0.2
12770	54062	64.647148940144	1.2
12770	54700	65.165721900212	0.3
12770	55079	65.565721900212	0.4
12770	56308	66.542131548188	0.1
12770	57444	67.479183298514	0.5
12770	58060	68.000124722267	0.5
12770	58276	68.185799158592	0.7
12770	58427	68.312545482179	0.3
12770	59293	69.013614889027	0.7
12770	60324	70.113614889027	1.1
12770	60577	70.314537231446	0.2
12770	61708	71.414537231446	1.1
12770	62769	72.514874389242	1.1
12770	63515	73.219137531566	0.7
12770	63739	73.425973886261	0.2
12770	65102	74.625973886261	1.2
12770	65482	75.064728500087	0.6
12770	65710	75.269841647507	0.2
12770	65782	75.342548141944	0.7
12770	65922	75.447431972274	0.1
12770	66673	76.08813874655	0.3
12770	66745	76.147431972274	0.7
12770	66806	76.193200945962	0.5
12770	67078	76.395820100757	0.2
12770	67958	77.114479407024	0.3
12770	68290	77.395820100757	1
12770	68415	77.521671726506	0.4
12770	69042	78.025776873813	0.5
12770	70398	79.125776873813	1.1
12770	70972	79.628188174727	0.5
12770	71192	79.808343442109	0.5
12770	71403	80.013385128156	0.2
12770	71846	80.416805908899	0.4
12770	73423	81.816805908899	1.4
12770	73942	82.319439431594	0.5
12770	74200	82.625594749203	0.3
12770	75212	83.528625074933	0.9
12770	75475	83.736591786654	0.2
12770	75832	84.039312561007	0.3
12770	75980	84.170182967975	0.3
12770	76081	84.245621735832	0.2
12770	76630	84.799983589579	0.6
12770	77044	85.201973170232	0.4
12770	77240	85.401973170232	0.2
12770	78049	86.102073170332	0.7
12770	78564	86.502073170332	0.4
12770	79117	86.904542612581	0.4
12770	79429	87.110692559597	0.2
12770	80324	87.812222147404	0.7
12770	80676	88.112222147404	0.3
12770	81055	88.415121566752	0.3
12770	81231	88.622008868679	0.2
12770	82096	89.222733421299	0.6
12770	82675	89.722812846374	0.5
12770	82872	89.88607788916	0.5
12770	82916	89.928069795335	0.2
12770	82967	89.992597990266	0.2
12770	83300	90.29512269311	0.3
12770	83587	90.601448438265	0.3
12770	84307	91.306170054566	0.7
12770	84962	92.006170054566	0.7
12770	85587	92.612686515398	0.6
12770	86079	93.012786515498	0.4
12770	86934	93.712786515498	0.7
12770	87988	94.718952710582	1
12770	89139	95.618952710582	0.9
12770	89531	96.028746126054	0.4
12770	89704	96.196214591271	0.2
12770	90318	96.74019773913	0.7
12770	91011	97.267343672238	1
12770	91087	97.346011345178	0.6
12770	91105	97.366432873925	0.6
12770	91620	97.771672731711	0.4
12770	92072	98.171672731711	0.4
12770	92866	98.984472564666	0.8
12770	93298	99.384674819218	0.4
12770	94004	99.955984272173	0.5
12770	94235	100.161900847417	0.2
12770	94743	100.761900847417	0.6
12770	95023	101.062915888291	0.3
12770	95703	101.673182922058	0.6
12770	95936	101.876027230654	0.7
12770	95944	101.881216941814	0.2
12770	96474	102.281316941914	0.4
12770	97399	102.981316941914	0.7
12770	97636	103.190132715178	0.2
12770	98404	103.895640775458	0.7
12770	98516	104.008348177831	0.3
12770	98950	104.399103225925	0.6
12770	99128	104.518420222412	0.4
12770	99876	105.127458130257	0.6
12770	100155	105.327458130257	0.2
12770	100666	105.635886798955	0.3