version 2
run Stability-norelink-147-20130525-23:23:51-22103
attr configname Stability-norelink
attr datetime 20130525-23:23:51
attr experiment Stability
attr inifile omnetpp.ini
attr iterationvars $0=1e-8
attr iterationvars2 "$0=1e-8, $repetition=7"
attr measurement $0=1e-8
attr network Network
attr processid 22103
attr repetition 7
attr replication #7
attr resultdir results
attr runnumber 147
attr seedset 147

vector 14148  Network.dyn_peer[12]  lookupHopsSig:vector  ETV
vector 14149  Network.dyn_peer[12]  lookupStabilitySig:vector  ETV
vector 14150  Network.dyn_peer[12]  lookupTimeSig:vector  ETV
vector 14160  Network.dyn_peer[16]  lookupHopsSig:vector  ETV
vector 14161  Network.dyn_peer[16]  lookupStabilitySig:vector  ETV
vector 14162  Network.dyn_peer[16]  lookupTimeSig:vector  ETV
vector 14130  Network.dyn_peer[6]  lookupHopsSig:vector  ETV
vector 14131  Network.dyn_peer[6]  lookupStabilitySig:vector  ETV
vector 14132  Network.dyn_peer[6]  lookupTimeSig:vector  ETV
vector 14139  Network.dyn_peer[9]  lookupHopsSig:vector  ETV
vector 14140  Network.dyn_peer[9]  lookupStabilitySig:vector  ETV
vector 14141  Network.dyn_peer[9]  lookupTimeSig:vector  ETV
vector 14142  Network.dyn_peer[10]  lookupHopsSig:vector  ETV
vector 14143  Network.dyn_peer[10]  lookupStabilitySig:vector  ETV
vector 14144  Network.dyn_peer[10]  lookupTimeSig:vector  ETV
vector 14157  Network.dyn_peer[15]  lookupHopsSig:vector  ETV
vector 14158  Network.dyn_peer[15]  lookupStabilitySig:vector  ETV
vector 14159  Network.dyn_peer[15]  lookupTimeSig:vector  ETV
vector 14163  Network.dyn_peer[17]  lookupHopsSig:vector  ETV
vector 14164  Network.dyn_peer[17]  lookupStabilitySig:vector  ETV
vector 14165  Network.dyn_peer[17]  lookupTimeSig:vector  ETV
vector 14190  Network.dyn_peer[26]  lookupHopsSig:vector  ETV
vector 14191  Network.dyn_peer[26]  lookupStabilitySig:vector  ETV
vector 14192  Network.dyn_peer[26]  lookupTimeSig:vector  ETV
vector 14193  Network.dyn_peer[27]  lookupHopsSig:vector  ETV
vector 14194  Network.dyn_peer[27]  lookupStabilitySig:vector  ETV
vector 14195  Network.dyn_peer[27]  lookupTimeSig:vector  ETV
vector 14199  Network.dyn_peer[29]  lookupHopsSig:vector  ETV
vector 14200  Network.dyn_peer[29]  lookupStabilitySig:vector  ETV
vector 14201  Network.dyn_peer[29]  lookupTimeSig:vector  ETV
vector 14202  Network.dyn_peer[30]  lookupHopsSig:vector  ETV
vector 14203  Network.dyn_peer[30]  lookupStabilitySig:vector  ETV
vector 14204  Network.dyn_peer[30]  lookupTimeSig:vector  ETV
vector 14112  Network.dyn_peer[0]  lookupHopsSig:vector  ETV
vector 14113  Network.dyn_peer[0]  lookupStabilitySig:vector  ETV
vector 14114  Network.dyn_peer[0]  lookupTimeSig:vector  ETV
vector 14115  Network.dyn_peer[1]  lookupHopsSig:vector  ETV
vector 14116  Network.dyn_peer[1]  lookupStabilitySig:vector  ETV
vector 14117  Network.dyn_peer[1]  lookupTimeSig:vector  ETV
vector 14145  Network.dyn_peer[11]  lookupHopsSig:vector  ETV
vector 14146  Network.dyn_peer[11]  lookupStabilitySig:vector  ETV
vector 14147  Network.dyn_peer[11]  lookupTimeSig:vector  ETV
vector 14154  Network.dyn_peer[14]  lookupHopsSig:vector  ETV
vector 14155  Network.dyn_peer[14]  lookupStabilitySig:vector  ETV
vector 14156  Network.dyn_peer[14]  lookupTimeSig:vector  ETV
vector 14175  Network.dyn_peer[21]  lookupHopsSig:vector  ETV
vector 14176  Network.dyn_peer[21]  lookupStabilitySig:vector  ETV
vector 14177  Network.dyn_peer[21]  lookupTimeSig:vector  ETV
vector 14178  Network.dyn_peer[22]  lookupHopsSig:vector  ETV
vector 14179  Network.dyn_peer[22]  lookupStabilitySig:vector  ETV
vector 14180  Network.dyn_peer[22]  lookupTimeSig:vector  ETV
vector 14205  Network.dyn_peer[31]  lookupHopsSig:vector  ETV
vector 14206  Network.dyn_peer[31]  lookupStabilitySig:vector  ETV
vector 14207  Network.dyn_peer[31]  lookupTimeSig:vector  ETV
vector 14124  Network.dyn_peer[4]  lookupHopsSig:vector  ETV
vector 14125  Network.dyn_peer[4]  lookupStabilitySig:vector  ETV
vector 14126  Network.dyn_peer[4]  lookupTimeSig:vector  ETV
vector 14166  Network.dyn_peer[18]  lookupHopsSig:vector  ETV
vector 14167  Network.dyn_peer[18]  lookupStabilitySig:vector  ETV
vector 14168  Network.dyn_peer[18]  lookupTimeSig:vector  ETV
vector 14169  Network.dyn_peer[19]  lookupHopsSig:vector  ETV
vector 14170  Network.dyn_peer[19]  lookupStabilitySig:vector  ETV
vector 14171  Network.dyn_peer[19]  lookupTimeSig:vector  ETV
vector 14172  Network.dyn_peer[20]  lookupHopsSig:vector  ETV
vector 14173  Network.dyn_peer[20]  lookupStabilitySig:vector  ETV
vector 14174  Network.dyn_peer[20]  lookupTimeSig:vector  ETV
vector 14184  Network.dyn_peer[24]  lookupHopsSig:vector  ETV
vector 14185  Network.dyn_peer[24]  lookupStabilitySig:vector  ETV
vector 14186  Network.dyn_peer[24]  lookupTimeSig:vector  ETV
vector 14187  Network.dyn_peer[25]  lookupHopsSig:vector  ETV
vector 14188  Network.dyn_peer[25]  lookupStabilitySig:vector  ETV
vector 14189  Network.dyn_peer[25]  lookupTimeSig:vector  ETV
vector 14118  Network.dyn_peer[2]  lookupHopsSig:vector  ETV
vector 14119  Network.dyn_peer[2]  lookupStabilitySig:vector  ETV
vector 14120  Network.dyn_peer[2]  lookupTimeSig:vector  ETV
vector 14136  Network.dyn_peer[8]  lookupHopsSig:vector  ETV
vector 14137  Network.dyn_peer[8]  lookupStabilitySig:vector  ETV
vector 14138  Network.dyn_peer[8]  lookupTimeSig:vector  ETV
vector 14151  Network.dyn_peer[13]  lookupHopsSig:vector  ETV
vector 14152  Network.dyn_peer[13]  lookupStabilitySig:vector  ETV
vector 14153  Network.dyn_peer[13]  lookupTimeSig:vector  ETV
vector 14181  Network.dyn_peer[23]  lookupHopsSig:vector  ETV
vector 14182  Network.dyn_peer[23]  lookupStabilitySig:vector  ETV
vector 14183  Network.dyn_peer[23]  lookupTimeSig:vector  ETV
vector 14121  Network.dyn_peer[3]  lookupHopsSig:vector  ETV
vector 14122  Network.dyn_peer[3]  lookupStabilitySig:vector  ETV
vector 14123  Network.dyn_peer[3]  lookupTimeSig:vector  ETV
vector 14196  Network.dyn_peer[28]  lookupHopsSig:vector  ETV
vector 14197  Network.dyn_peer[28]  lookupStabilitySig:vector  ETV
vector 14198  Network.dyn_peer[28]  lookupTimeSig:vector  ETV
vector 14127  Network.dyn_peer[5]  lookupHopsSig:vector  ETV
vector 14128  Network.dyn_peer[5]  lookupStabilitySig:vector  ETV
vector 14129  Network.dyn_peer[5]  lookupTimeSig:vector  ETV
vector 14133  Network.dyn_peer[7]  lookupHopsSig:vector  ETV
vector 14134  Network.dyn_peer[7]  lookupStabilitySig:vector  ETV
vector 14135  Network.dyn_peer[7]  lookupTimeSig:vector  ETV
14112	200	20.20000000001	2
14112	326	20.40000000001	1
14112	527	20.706386759733	2
14112	1125	21.406486759743	8
14112	1698	21.82825521636	2
14112	2338	22.32835521637	5
14112	3123	22.92835521637	5
14112	4041	23.547406688757	5
14112	4415	23.918902768696	3
14112	4515	23.955002153791	3
14112	4639	24.061554402339	1
14112	4886	24.261554402339	1
14112	5355	24.668641941626	3
14112	6010	25.26895211748	6
14112	6769	25.86895211748	6
14112	7593	26.581176140941	6
14112	7677	26.654738686292	3
14112	8052	26.960043171797	2
14112	8099	26.988507678072	3
14112	9457	27.991398162251	10
14112	10043	28.491398162251	4
14112	11697	29.899059141607	16
14112	12231	30.299059141607	4
14112	12548	30.57133527722	2
14112	12798	30.77143527723	2
14112	13083	30.97143527723	1
14112	14041	31.779336106051	7
14112	15055	32.600400522441	3
14112	15995	33.300500522451	8
14112	16504	33.700500522451	3
14112	16750	33.907532869656	1
14112	16941	34.015271386972	1
14112	18216	35.015271386972	10
14112	18463	35.220931706153	1
14112	19210	35.721031706163	8
14112	19746	36.121031706163	3
14112	20183	36.426742933406	2
14112	20679	36.828035426003	3
14112	21044	37.144679632983	2
14112	21809	37.846922130876	7
14112	22759	38.546922130876	6
14112	23586	39.157364511493	6
14112	25248	40.457991972543	12
14112	26044	41.120882200581	6
14112	26274	41.322204017085	5
14112	26282	41.323878958833	1
14112	26534	41.530163687558	1
14112	26541	41.533142393964	1
14112	26854	41.742090748864	2
14112	27092	41.942771193472	1
14112	27449	42.243728011342	2
14112	27732	42.443828011352	2
14112	28378	43.043828011352	5
14112	29772	44.455723293854	16
14112	30117	44.761822574618	3
14112	30601	45.161822574618	3
14112	30994	45.465553042292	2
14112	31432	45.811921900817	4
14112	31858	46.118248213374	3
14112	31877	46.120919788793	3
14112	32074	46.269411622717	10
14112	32367	46.47471185911	2
14112	33250	47.206684492134	5
14112	34014	47.906684492134	8
14112	34741	48.508802593172	5
14112	35643	49.309426729028	7
14112	36162	49.815686721048	4
14112	36452	50.125325337749	2
14112	37209	50.749297052776	8
14112	37282	50.82561791423	8
14112	37656	51.153710188209	3
14112	37886	51.357752222994	2
14112	38931	52.257752222994	10
14112	39304	52.557852223004	4
14112	39995	53.057852223004	5
14112	40916	53.658675002004	6
14112	40963	53.678502223531	2
14112	41391	53.959837405576	2
14112	41599	54.089423620958	3
14112	42059	54.498349325115	3
14112	42100	54.516138229441	4
14112	42394	54.723398442109	2
14112	43693	55.723398442109	11
14112	44094	56.125335314023	4
14112	44279	56.280069432505	2
14112	44676	56.581644371277	2
14112	44875	56.726082179114	6
14112	44890	56.732102029373	6
14112	45176	56.932499074845	1
14112	45180	56.932873780043	1
14112	45768	57.432973780053	5
14112	45985	57.632973780053	1
14112	46472	58.142880443267	4
14112	46782	58.445414830595	2
14112	47590	59.12878831183	5
14112	47760	59.253148267005	10
14112	47846	59.333306904796	1
14112	47983	59.436967285769	1
14112	48331	59.736967285769	2
14112	49495	60.644074620181	11
14112	50157	61.244074620181	5
14112	51008	62.04663271995	9
14112	51261	62.251208631023	1
14112	51395	62.366974372613	1
14112	51921	62.856489192607	5
14112	52058	62.979950448083	5
14112	53375	64.083097492067	12
14112	53936	64.583097492067	5
14112	54463	65.100135234795	4
14112	54743	65.31474372433	1
14112	55131	65.61742006643	3
14112	55496	65.91742006643	2
14112	55698	66.11752006644	2
14112	56281	66.71752006644	6
14112	56750	67.122767046264	3
14112	57535	67.92559903888	8
14112	57771	68.132297618672	1
14112	57870	68.237885240718	9
14112	58034	68.434193136516	2
14112	58048	68.441506129495	1
14112	58161	68.542784259709	1
14112	58648	69.042784259709	4
14112	59419	69.765110909634	7
14112	59832	70.142921485322	10
14112	59850	70.149293213564	10
14112	59889	70.168840410744	3
14112	59987	70.25509340363	4
14112	60190	70.460901037155	1
14112	60319	70.565017469165	1
14112	60806	70.965017469165	3
14112	60838	70.973453408939	0
14112	61116	71.173453408939	1
14112	61383	71.384022484177	1
14112	61421	71.449970532118	2
14112	61929	71.766346919295	2
14112	62132	71.893445828014	1
14112	62213	71.972553256508	1
14112	62886	72.572834749764	6
14112	63274	72.972834749764	3
14112	63717	73.37520674699	4
14112	64058	73.67520674699	2
14112	64946	74.480128598555	9
14112	65341	74.790101560658	2
14112	66102	75.505870343694	6
14112	66329	75.716913445635	1
14112	66508	75.824346403674	1
14112	67084	76.324346403674	4
14112	67627	76.732567712041	3
14112	67656	76.78029670827	4
14112	67968	77.039195100828	2
14112	68003	77.096390336629	2
14112	68121	77.202402859485	6
14112	68159	77.224602707112	2
14112	68456	77.503107740083	3
14112	68458	77.503475406133	3
14112	68490	77.531710203378	2
14112	68813	77.834149853072	3
14112	69675	78.634149853072	7
14112	70317	79.240952972226	5
14112	70616	79.441052972236	2
14112	71010	79.741052972236	2
14112	71440	80.143560844073	3
14112	71937	80.550739403359	3
14112	72293	80.825118592431	1
14112	72356	80.85569792084	2
14112	72584	81.0574675617	2
14112	73348	81.696046229999	1
14112	73653	81.899300946288	2
14112	74039	82.199300946288	2
14112	74461	82.50871262167	2
14112	75083	83.009679130573	4
14112	75259	83.140532384373	4
14112	75479	83.31917535865	2
14112	75641	83.463860692961	2
14112	75697	83.523781665412	1
14112	76037	83.770006445429	2
14112	76098	83.833013492325	3
14112	76215	83.95315807595	6
14112	76662	84.357802372559	4
14112	77846	85.257802372559	9
14112	78179	85.482644819458	6
14112	78451	85.688605012979	2
14112	78681	85.888605012979	1
14112	78713	85.89712484453	0
14112	79202	86.29712484453	3
14112	79538	86.498611818085	2
14112	80426	87.198611818085	7
14112	81140	87.804980687097	5
14112	81555	88.112230422675	3
14112	82882	89.292825475663	10
14112	82994	89.405363616306	0
14112	83215	89.608110724054	1
14112	83674	90.008950971157	3
14112	83892	90.209050971167	2
14112	84519	90.709050971167	4
14112	85106	91.113399339872	5
14112	85888	91.713399339872	5
14112	86842	92.46561156943	3
14112	87321	92.86561156943	3
14112	87584	93.075093515254	1
14112	88193	93.682798833648	5
14112	88727	94.192189533287	4
14112	89110	94.502054526196	3
14112	90039	95.302054526196	7
14112	90397	95.593461741411	2
14112	90936	95.998726523282	3
14112	91088	96.104217016694	8
14112	91364	96.31051793398	1
14112	91714	96.587944582475	2
14112	91849	96.705629671843	2
14112	94023	98.611066730582	22
14112	94753	99.211066730582	5
14112	95449	99.721035019106	4
14112	96250	100.426820773575	7
14112	96436	100.529517249839	1
14112	97067	101.129517249839	5
14112	97741	101.651239314832	6
14112	97973	101.853922269797	3
14112	98540	102.352352725124	2
14112	98552	102.353922269797	5
14112	99400	103.079331054973	3
14112	99553	103.187907008747	1
14112	100244	103.793762690247	5
14112	100987	104.394159044377	5
14112	101283	104.658955693842	4
14112	101630	104.967663543956	2
14112	101699	104.998306522784	5
14112	101942	105.207819620901	1
14112	102335	105.507919620911	3
14112	103143	106.107919620911	6
14112	103531	106.430254873509	2
14112	103851	106.730884904685	3
14112	104331	107.115895278364	10
14112	104374	107.172126379881	5
14112	104459	107.237783759737	5
14112	104776	107.447501874834	3
14112	105112	107.747501874834	2
14112	105742	108.347601874844	6
14112	106364	108.847601874844	4
14112	106529	108.99298527205	4
14112	106551	109.016602430001	4
14112	106584	109.054335119475	2
14112	106953	109.325541103358	2
14112	106989	109.363234035493	2
14112	107892	109.966703707261	6
14112	108743	110.566703707261	5
14112	109340	111.045104609181	2
14112	109835	111.504970249117	3
14112	109939	111.546367524995	5
14112	110069	111.675667636163	12
14112	110901	112.375810455828	7
14112	111298	112.675810455828	3
14112	112243	113.474452821077	6
14112	112267	113.48444416785	8
14112	112767	113.884782162137	4
14112	113255	114.284782162137	3
14112	113950	114.797648970853	5
14112	114057	114.897748970863	1
14112	114562	115.297748970863	3
14112	115092	115.798496429148	4
14112	115357	116.004853420852	1
14112	116715	117.21632048625	12
14112	117048	117.523796256929	2
14112	117422	117.833832463831	3
14112	118112	118.333832463831	5
14112	118377	118.538444765812	1
14112	118745	118.845818505923	2
14112	119076	119.150002169651	2
14112	119289	119.330619809158	2
14112	119323	119.354042806047	1
14112	119675	119.648283688785	2
14112	119855	119.775871718067	16
14112	119935	119.848348878457	1
14112	120054	119.958363088326	5
14112	120344	120.159964436426	2
14112	120764	120.559964436426	3
14112	121760	121.366004792641	9
14112	122305	121.769421158799	3
14112	122886	122.173994453859	4
14112	123313	122.475214782548	2
14112	123772	122.821554271544	1
14112	123837	122.888593594847	3
14112	124400	123.392383336861	5
14112	125264	124.092383336861	6
14112	126147	124.823428715995	6
14112	126230	124.902005264375	9
14112	126714	125.310855766889	4
14112	127423	125.910855766889	7
14112	127900	126.302408451735	6
14112	128146	126.519767392147	6
14112	129071	127.224295135319	8
14112	129812	127.724295135319	5
14112	130388	128.338027618573	5
14112	131118	129.138127618583	9
14112	132114	130.038127618583	8
14112	132610	130.446002480603	3
14112	133218	130.948444288956	6
14112	133224	130.950969363383	6
14112	133347	131.058118892426	5
14112	133739	131.358410016871	4
14112	134192	131.758410016871	3
14112	134418	131.972771585179	4
14112	135165	132.678856224439	7
14112	136030	133.378856224439	7
14112	136148	133.525343100327	3
14112	136211	133.582607700173	1
14113	200	20.20000000001	0.75
14113	326	20.40000000001	0.875
14113	527	20.706386759733	0.75
14113	1125	21.406486759743	0
14113	1698	21.82825521636	0.75
14113	2338	22.32835521637	0.375
14113	3123	22.92835521637	0.375
14113	4041	23.547406688757	0.375
14113	4415	23.918902768696	0.625
14113	4515	23.955002153791	0.625
14113	4639	24.061554402339	0.875
14113	4886	24.261554402339	0.875
14113	5355	24.668641941626	0.625
14113	6010	25.26895211748	0.25
14113	6769	25.86895211748	0.25
14113	7593	26.581176140941	0.25
14113	7677	26.654738686292	0.625
14113	8052	26.960043171797	0.75
14113	8099	26.988507678072	0.625
14113	9457	27.991398162251	-0.25
14113	10043	28.491398162251	0.5
14113	11697	29.899059141607	-1
14113	12231	30.299059141607	0.5
14113	12548	30.57133527722	0.75
14113	12798	30.77143527723	0.75
14113	13083	30.97143527723	0.875
14113	14041	31.779336106051	0.125
14113	15055	32.600400522441	0.625
14113	15995	33.300500522451	0.11111110448837
14113	16504	33.700500522451	0.625
14113	16750	33.907532869656	0.875
14113	16941	34.015271386972	0.875
14113	18216	35.015271386972	-0.25
14113	18463	35.220931706153	0.875
14113	19210	35.721031706163	0
14113	19746	36.121031706163	0.625
14113	20183	36.426742933406	0.75
14113	20679	36.828035426003	0.625
14113	21044	37.144679632983	0.75
14113	21809	37.846922130876	0.125
14113	22759	38.546922130876	0.25
14113	23586	39.157364511493	0.25
14113	25248	40.457991972543	-0.5
14113	26044	41.120882200581	0.25
14113	26274	41.322204017085	0.375
14113	26282	41.323878958833	0.875
14113	26534	41.530163687558	0.875
14113	26541	41.533142393964	0.875
14113	26854	41.742090748864	0.75
14113	27092	41.942771193472	0.875
14113	27449	42.243728011342	0.75
14113	27732	42.443828011352	0.75
14113	28378	43.043828011352	0.375
14113	29772	44.455723293854	-1
14113	30117	44.761822574618	0.625
14113	30601	45.161822574618	0.625
14113	30994	45.465553042292	0.75
14113	31432	45.811921900817	0.5
14113	31858	46.118248213374	0.625
14113	31877	46.120919788793	0.625
14113	32074	46.269411622717	-0.25
14113	32367	46.47471185911	0.75
14113	33250	47.206684492134	0.375
14113	34014	47.906684492134	0
14113	34741	48.508802593172	0.375
14113	35643	49.309426729028	0.125
14113	36162	49.815686721048	0.5
14113	36452	50.125325337749	0.75
14113	37209	50.749297052776	0
14113	37282	50.82561791423	0
14113	37656	51.153710188209	0.625
14113	37886	51.357752222994	0.75
14113	38931	52.257752222994	-0.25
14113	39304	52.557852223004	0.5
14113	39995	53.057852223004	0.375
14113	40916	53.658675002004	0.25
14113	40963	53.678502223531	0.75
14113	41391	53.959837405576	0.75
14113	41599	54.089423620958	0.625
14113	42059	54.498349325115	0.625
14113	42100	54.516138229441	0.5
14113	42394	54.723398442109	0.75
14113	43693	55.723398442109	-0.375
14113	44094	56.125335314023	0.5
14113	44279	56.280069432505	0.75
14113	44676	56.581644371277	0.75
14113	44875	56.726082179114	0.25
14113	44890	56.732102029373	0.25
14113	45176	56.932499074845	0.875
14113	45180	56.932873780043	0.875
14113	45768	57.432973780053	0.375
14113	45985	57.632973780053	0.875
14113	46472	58.142880443267	0.5
14113	46782	58.445414830595	0.75
14113	47590	59.12878831183	0.375
14113	47760	59.253148267005	-0.25
14113	47846	59.333306904796	0.875
14113	47983	59.436967285769	0.875
14113	48331	59.736967285769	0.75
14113	49495	60.644074620181	-0.375
14113	50157	61.244074620181	0.375
14113	51008	62.04663271995	-0.125
14113	51261	62.251208631023	0.875
14113	51395	62.366974372613	0.875
14113	51921	62.856489192607	0.375
14113	52058	62.979950448083	0.375
14113	53375	64.083097492067	-0.5
14113	53936	64.583097492067	0.375
14113	54463	65.100135234795	0.5
14113	54743	65.31474372433	0.875
14113	55131	65.61742006643	0.625
14113	55496	65.91742006643	0.75
14113	55698	66.11752006644	0.75
14113	56281	66.71752006644	0.25
14113	56750	67.122767046264	0.625
14113	57535	67.92559903888	0
14113	57771	68.132297618672	0.875
14113	57870	68.237885240718	-0.125
14113	58034	68.434193136516	0.75
14113	58048	68.441506129495	0.875
14113	58161	68.542784259709	0.875
14113	58648	69.042784259709	0.5
14113	59419	69.765110909634	0.125
14113	59832	70.142921485322	-0.25
14113	59850	70.149293213564	-0.25
14113	59889	70.168840410744	0.625
14113	59987	70.25509340363	0.5
14113	60190	70.460901037155	0.875
14113	60319	70.565017469165	0.875
14113	60806	70.965017469165	0.625
14113	60838	70.973453408939	1
14113	61116	71.173453408939	0.875
14113	61383	71.384022484177	0.875
14113	61421	71.449970532118	0.75
14113	61929	71.766346919295	0.75
14113	62132	71.893445828014	0.875
14113	62213	71.972553256508	0.875
14113	62886	72.572834749764	0.25
14113	63274	72.972834749764	0.625
14113	63717	73.37520674699	0.5
14113	64058	73.67520674699	0.75
14113	64946	74.480128598555	-0.125
14113	65341	74.790101560658	0.75
14113	66102	75.505870343694	0.25
14113	66329	75.716913445635	0.875
14113	66508	75.824346403674	0.875
14113	67084	76.324346403674	0.5
14113	67627	76.732567712041	0.625
14113	67656	76.78029670827	0.5
14113	67968	77.039195100828	0.75
14113	68003	77.096390336629	0.75
14113	68121	77.202402859485	0.25
14113	68159	77.224602707112	0.75
14113	68456	77.503107740083	0.625
14113	68458	77.503475406133	0.625
14113	68490	77.531710203378	0.75
14113	68813	77.834149853072	0.625
14113	69675	78.634149853072	0.125
14113	70317	79.240952972226	0.375
14113	70616	79.441052972236	0.75
14113	71010	79.741052972236	0.75
14113	71440	80.143560844073	0.625
14113	71937	80.550739403359	0.625
14113	72293	80.825118592431	0.875
14113	72356	80.85569792084	0.75
14113	72584	81.0574675617	0.75
14113	73348	81.696046229999	0.875
14113	73653	81.899300946288	0.77777777612209
14113	74039	82.199300946288	0.75
14113	74461	82.50871262167	0.75
14113	75083	83.009679130573	0.5
14113	75259	83.140532384373	0.5
14113	75479	83.31917535865	0.75
14113	75641	83.463860692961	0.75
14113	75697	83.523781665412	0.875
14113	76037	83.770006445429	0.75
14113	76098	83.833013492325	0.625
14113	76215	83.95315807595	0.25
14113	76662	84.357802372559	0.5
14113	77846	85.257802372559	-0.125
14113	78179	85.482644819458	0.25
14113	78451	85.688605012979	0.75
14113	78681	85.888605012979	0.875
14113	78713	85.89712484453	1
14113	79202	86.29712484453	0.625
14113	79538	86.498611818085	0.75
14113	80426	87.198611818085	0.125
14113	81140	87.804980687097	0.375
14113	81555	88.112230422675	0.625
14113	82882	89.292825475663	-0.25
14113	82994	89.405363616306	1
14113	83215	89.608110724054	0.875
14113	83674	90.008950971157	0.625
14113	83892	90.209050971167	0.75
14113	84519	90.709050971167	0.5
14113	85106	91.113399339872	0.375
14113	85888	91.713399339872	0.375
14113	86842	92.46561156943	0.625
14113	87321	92.86561156943	0.625
14113	87584	93.075093515254	0.875
14113	88193	93.682798833648	0.375
14113	88727	94.192189533287	0.5
14113	89110	94.502054526196	0.625
14113	90039	95.302054526196	0.125
14113	90397	95.593461741411	0.75
14113	90936	95.998726523282	0.625
14113	91088	96.104217016694	0
14113	91364	96.31051793398	0.875
14113	91714	96.587944582475	0.75
14113	91849	96.705629671843	0.75
14113	94023	98.611066730582	-1.75
14113	94753	99.211066730582	0.375
14113	95449	99.721035019106	0.5
14113	96250	100.426820773575	0.125
14113	96436	100.529517249839	0.875
14113	97067	101.129517249839	0.375
14113	97741	101.651239314832	0.25
14113	97973	101.853922269797	0.625
14113	98540	102.352352725124	0.75
14113	98552	102.353922269797	0.375
14113	99400	103.079331054973	0.625
14113	99553	103.187907008747	0.875
14113	100244	103.793762690247	0.375
14113	100987	104.394159044377	0.375
14113	101283	104.658955693842	0.5
14113	101630	104.967663543956	0.75
14113	101699	104.998306522784	0.375
14113	101942	105.207819620901	0.875
14113	102335	105.507919620911	0.625
14113	103143	106.107919620911	0.25
14113	103531	106.430254873509	0.75
14113	103851	106.730884904685	0.625
14113	104331	107.115895278364	-0.25
14113	104374	107.172126379881	0.375
14113	104459	107.237783759737	0.375
14113	104776	107.447501874834	0.625
14113	105112	107.747501874834	0.75
14113	105742	108.347601874844	0.25
14113	106364	108.847601874844	0.5
14113	106529	108.99298527205	0.5
14113	106551	109.016602430001	0.5
14113	106584	109.054335119475	0.75
14113	106953	109.325541103358	0.75
14113	106989	109.363234035493	0.75
14113	107892	109.966703707261	0.25
14113	108743	110.566703707261	0.375
14113	109340	111.045104609181	0.75
14113	109835	111.504970249117	0.625
14113	109939	111.546367524995	0.375
14113	110069	111.675667636163	-0.5
14113	110901	112.375810455828	0.125
14113	111298	112.675810455828	0.625
14113	112243	113.474452821077	0.25
14113	112267	113.48444416785	0
14113	112767	113.884782162137	0.5
14113	113255	114.284782162137	0.625
14113	113950	114.797648970853	0.375
14113	114057	114.897748970863	0.875
14113	114562	115.297748970863	0.625
14113	115092	115.798496429148	0.5
14113	115357	116.004853420852	0.875
14113	116715	117.21632048625	-0.5
14113	117048	117.523796256929	0.75
14113	117422	117.833832463831	0.625
14113	118112	118.333832463831	0.375
14113	118377	118.538444765812	0.875
14113	118745	118.845818505923	0.75
14113	119076	119.150002169651	0.75
14113	119289	119.330619809158	0.75
14113	119323	119.354042806047	0.875
14113	119675	119.648283688785	0.75
14113	119855	119.775871718067	-1
14113	119935	119.848348878457	0.875
14113	120054	119.958363088326	0.375
14113	120344	120.159964436426	0.75
14113	120764	120.559964436426	0.625
14113	121760	121.366004792641	-0.125
14113	122305	121.769421158799	0.625
14113	122886	122.173994453859	0.5
14113	123313	122.475214782548	0.75
14113	123772	122.821554271544	0.875
14113	123837	122.888593594847	0.625
14113	124400	123.392383336861	0.375
14113	125264	124.092383336861	0.25
14113	126147	124.823428715995	0.25
14113	126230	124.902005264375	-0.125
14113	126714	125.310855766889	0.5
14113	127423	125.910855766889	0.125
14113	127900	126.302408451735	0.25
14113	128146	126.519767392147	0.25
14113	129071	127.224295135319	0
14113	129812	127.724295135319	0.375
14113	130388	128.338027618573	0.375
14113	131118	129.138127618583	-0.125
14113	132114	130.038127618583	0
14113	132610	130.446002480603	0.625
14113	133218	130.948444288956	0.25
14113	133224	130.950969363383	0.25
14113	133347	131.058118892426	0.375
14113	133739	131.358410016871	0.5
14113	134192	131.758410016871	0.625
14113	134418	131.972771585179	0.5
14113	135165	132.678856224439	0.125
14113	136030	133.378856224439	0.125
14113	136148	133.525343100327	0.625
14113	136211	133.582607700173	0.875
14114	200	20.20000000001	0.2
14114	326	20.40000000001	0.2
14114	527	20.706386759733	0.3
14114	1125	21.406486759743	0.7
14114	1698	21.82825521636	0.3
14114	2338	22.32835521637	0.5
14114	3123	22.92835521637	0.6
14114	4041	23.547406688757	0.6
14114	4415	23.918902768696	0.4
14114	4515	23.955002153791	0.4
14114	4639	24.061554402339	0.1
14114	4886	24.261554402339	0.2
14114	5355	24.668641941626	0.4
14114	6010	25.26895211748	0.6
14114	6769	25.86895211748	0.6
14114	7593	26.581176140941	0.7
14114	7677	26.654738686292	0.4
14114	8052	26.960043171797	0.3
14114	8099	26.988507678072	0.4
14114	9457	27.991398162251	1
14114	10043	28.491398162251	0.5
14114	11697	29.899059141607	1.4
14114	12231	30.299059141607	0.4
14114	12548	30.57133527722	0.3
14114	12798	30.77143527723	0.2
14114	13083	30.97143527723	0.2
14114	14041	31.779336106051	0.8
14114	15055	32.600400522441	0.4
14114	15995	33.300500522451	0.7
14114	16504	33.700500522451	0.4
14114	16750	33.907532869656	0.2
14114	16941	34.015271386972	0.1
14114	18216	35.015271386972	1
14114	18463	35.220931706153	0.2
14114	19210	35.721031706163	0.5
14114	19746	36.121031706163	0.4
14114	20183	36.426742933406	0.3
14114	20679	36.828035426003	0.4
14114	21044	37.144679632983	0.3
14114	21809	37.846922130876	0.7
14114	22759	38.546922130876	0.7
14114	23586	39.157364511493	0.6
14114	25248	40.457991972543	1.3
14114	26044	41.120882200581	0.7
14114	26274	41.322204017085	0.6
14114	26282	41.323878958833	0.2
14114	26534	41.530163687558	0.2
14114	26541	41.533142393964	0.2
14114	26854	41.742090748864	0.2
14114	27092	41.942771193472	0.2
14114	27449	42.243728011342	0.3
14114	27732	42.443828011352	0.2
14114	28378	43.043828011352	0.6
14114	29772	44.455723293854	1.4
14114	30117	44.761822574618	0.3
14114	30601	45.161822574618	0.4
14114	30994	45.465553042292	0.3
14114	31432	45.811921900817	0.5
14114	31858	46.118248213374	0.3
14114	31877	46.120919788793	0.3
14114	32074	46.269411622717	0.8
14114	32367	46.47471185911	0.2
14114	33250	47.206684492134	0.5
14114	34014	47.906684492134	0.7
14114	34741	48.508802593172	0.6
14114	35643	49.309426729028	0.8
14114	36162	49.815686721048	0.5
14114	36452	50.125325337749	0.3
14114	37209	50.749297052776	0.8
14114	37282	50.82561791423	0.7
14114	37656	51.153710188209	0.4
14114	37886	51.357752222994	0.2
14114	38931	52.257752222994	0.9
14114	39304	52.557852223004	0.3
14114	39995	53.057852223004	0.5
14114	40916	53.658675002004	0.6
14114	40963	53.678502223531	0.3
14114	41391	53.959837405576	0.3
14114	41599	54.089423620958	0.4
14114	42059	54.498349325115	0.4
14114	42100	54.516138229441	0.5
14114	42394	54.723398442109	0.2
14114	43693	55.723398442109	1
14114	44094	56.125335314023	0.4
14114	44279	56.280069432505	0.3
14114	44676	56.581644371277	0.3
14114	44875	56.726082179114	0.6
14114	44890	56.732102029373	0.6
14114	45176	56.932499074845	0.2
14114	45180	56.932873780043	0.2
14114	45768	57.432973780053	0.5
14114	45985	57.632973780053	0.2
14114	46472	58.142880443267	0.5
14114	46782	58.445414830595	0.3
14114	47590	59.12878831183	0.6
14114	47760	59.253148267005	0.8
14114	47846	59.333306904796	0.2
14114	47983	59.436967285769	0.1
14114	48331	59.736967285769	0.3
14114	49495	60.644074620181	0.9
14114	50157	61.244074620181	0.6
14114	51008	62.04663271995	0.8
14114	51261	62.251208631023	0.2
14114	51395	62.366974372613	0.2
14114	51921	62.856489192607	0.6
14114	52058	62.979950448083	0.6
14114	53375	64.083097492067	1.1
14114	53936	64.583097492067	0.5
14114	54463	65.100135234795	0.5
14114	54743	65.31474372433	0.2
14114	55131	65.61742006643	0.3
14114	55496	65.91742006643	0.3
14114	55698	66.11752006644	0.2
14114	56281	66.71752006644	0.6
14114	56750	67.122767046264	0.4
14114	57535	67.92559903888	0.8
14114	57771	68.132297618672	0.2
14114	57870	68.237885240718	0.9
14114	58034	68.434193136516	0.3
14114	58048	68.441506129495	0.2
14114	58161	68.542784259709	0.1