file 723849 1369516542                                          
version 2
run Stability-norelink-19-20130525-23:15:39-22103
attr configname Stability-norelink
attr datetime 20130525-23:15:39
attr experiment Stability
attr inifile omnetpp.ini
attr iterationvars $0=1e5
attr iterationvars2 "$0=1e5, $repetition=9"
attr measurement $0=1e5
attr network Network
attr processid 22103
attr repetition 9
attr replication #9
attr resultdir results
attr runnumber 19
attr seedset 19

vector 1824  Network.dyn_peer[0]  lookupHopsSig:vector  ETV
vector 1825  Network.dyn_peer[0]  lookupStabilitySig:vector  ETV
vector 1826  Network.dyn_peer[0]  lookupTimeSig:vector  ETV
vector 1827  Network.dyn_peer[1]  lookupHopsSig:vector  ETV
vector 1828  Network.dyn_peer[1]  lookupStabilitySig:vector  ETV
vector 1829  Network.dyn_peer[1]  lookupTimeSig:vector  ETV
vector 1830  Network.dyn_peer[2]  lookupHopsSig:vector  ETV
vector 1831  Network.dyn_peer[2]  lookupStabilitySig:vector  ETV
vector 1832  Network.dyn_peer[2]  lookupTimeSig:vector  ETV
vector 1833  Network.dyn_peer[3]  lookupHopsSig:vector  ETV
vector 1834  Network.dyn_peer[3]  lookupStabilitySig:vector  ETV
vector 1835  Network.dyn_peer[3]  lookupTimeSig:vector  ETV
vector 1836  Network.dyn_peer[4]  lookupHopsSig:vector  ETV
vector 1837  Network.dyn_peer[4]  lookupStabilitySig:vector  ETV
vector 1838  Network.dyn_peer[4]  lookupTimeSig:vector  ETV
vector 1839  Network.dyn_peer[5]  lookupHopsSig:vector  ETV
vector 1840  Network.dyn_peer[5]  lookupStabilitySig:vector  ETV
vector 1841  Network.dyn_peer[5]  lookupTimeSig:vector  ETV
vector 1842  Network.dyn_peer[6]  lookupHopsSig:vector  ETV
vector 1843  Network.dyn_peer[6]  lookupStabilitySig:vector  ETV
vector 1844  Network.dyn_peer[6]  lookupTimeSig:vector  ETV
vector 1845  Network.dyn_peer[7]  lookupHopsSig:vector  ETV
vector 1846  Network.dyn_peer[7]  lookupStabilitySig:vector  ETV
vector 1847  Network.dyn_peer[7]  lookupTimeSig:vector  ETV
vector 1848  Network.dyn_peer[8]  lookupHopsSig:vector  ETV
vector 1849  Network.dyn_peer[8]  lookupStabilitySig:vector  ETV
vector 1850  Network.dyn_peer[8]  lookupTimeSig:vector  ETV
vector 1851  Network.dyn_peer[9]  lookupHopsSig:vector  ETV
vector 1852  Network.dyn_peer[9]  lookupStabilitySig:vector  ETV
vector 1853  Network.dyn_peer[9]  lookupTimeSig:vector  ETV
vector 1854  Network.dyn_peer[10]  lookupHopsSig:vector  ETV
vector 1855  Network.dyn_peer[10]  lookupStabilitySig:vector  ETV
vector 1856  Network.dyn_peer[10]  lookupTimeSig:vector  ETV
vector 1857  Network.dyn_peer[11]  lookupHopsSig:vector  ETV
vector 1858  Network.dyn_peer[11]  lookupStabilitySig:vector  ETV
vector 1859  Network.dyn_peer[11]  lookupTimeSig:vector  ETV
vector 1860  Network.dyn_peer[12]  lookupHopsSig:vector  ETV
vector 1861  Network.dyn_peer[12]  lookupStabilitySig:vector  ETV
vector 1862  Network.dyn_peer[12]  lookupTimeSig:vector  ETV
vector 1863  Network.dyn_peer[13]  lookupHopsSig:vector  ETV
vector 1864  Network.dyn_peer[13]  lookupStabilitySig:vector  ETV
vector 1865  Network.dyn_peer[13]  lookupTimeSig:vector  ETV
vector 1866  Network.dyn_peer[14]  lookupHopsSig:vector  ETV
vector 1867  Network.dyn_peer[14]  lookupStabilitySig:vector  ETV
vector 1868  Network.dyn_peer[14]  lookupTimeSig:vector  ETV
vector 1869  Network.dyn_peer[15]  lookupHopsSig:vector  ETV
vector 1870  Network.dyn_peer[15]  lookupStabilitySig:vector  ETV
vector 1871  Network.dyn_peer[15]  lookupTimeSig:vector  ETV
vector 1872  Network.dyn_peer[16]  lookupHopsSig:vector  ETV
vector 1873  Network.dyn_peer[16]  lookupStabilitySig:vector  ETV
vector 1874  Network.dyn_peer[16]  lookupTimeSig:vector  ETV
vector 1875  Network.dyn_peer[17]  lookupHopsSig:vector  ETV
vector 1876  Network.dyn_peer[17]  lookupStabilitySig:vector  ETV
vector 1877  Network.dyn_peer[17]  lookupTimeSig:vector  ETV
vector 1878  Network.dyn_peer[18]  lookupHopsSig:vector  ETV
vector 1879  Network.dyn_peer[18]  lookupStabilitySig:vector  ETV
vector 1880  Network.dyn_peer[18]  lookupTimeSig:vector  ETV
vector 1881  Network.dyn_peer[19]  lookupHopsSig:vector  ETV
vector 1882  Network.dyn_peer[19]  lookupStabilitySig:vector  ETV
vector 1883  Network.dyn_peer[19]  lookupTimeSig:vector  ETV
vector 1884  Network.dyn_peer[20]  lookupHopsSig:vector  ETV
vector 1885  Network.dyn_peer[20]  lookupStabilitySig:vector  ETV
vector 1886  Network.dyn_peer[20]  lookupTimeSig:vector  ETV
vector 1887  Network.dyn_peer[21]  lookupHopsSig:vector  ETV
vector 1888  Network.dyn_peer[21]  lookupStabilitySig:vector  ETV
vector 1889  Network.dyn_peer[21]  lookupTimeSig:vector  ETV
vector 1890  Network.dyn_peer[22]  lookupHopsSig:vector  ETV
vector 1891  Network.dyn_peer[22]  lookupStabilitySig:vector  ETV
vector 1892  Network.dyn_peer[22]  lookupTimeSig:vector  ETV
vector 1893  Network.dyn_peer[23]  lookupHopsSig:vector  ETV
vector 1894  Network.dyn_peer[23]  lookupStabilitySig:vector  ETV
vector 1895  Network.dyn_peer[23]  lookupTimeSig:vector  ETV
vector 1896  Network.dyn_peer[24]  lookupHopsSig:vector  ETV
vector 1897  Network.dyn_peer[24]  lookupStabilitySig:vector  ETV
vector 1898  Network.dyn_peer[24]  lookupTimeSig:vector  ETV
vector 1899  Network.dyn_peer[25]  lookupHopsSig:vector  ETV
vector 1900  Network.dyn_peer[25]  lookupStabilitySig:vector  ETV
vector 1901  Network.dyn_peer[25]  lookupTimeSig:vector  ETV
vector 1902  Network.dyn_peer[26]  lookupHopsSig:vector  ETV
vector 1903  Network.dyn_peer[26]  lookupStabilitySig:vector  ETV
vector 1904  Network.dyn_peer[26]  lookupTimeSig:vector  ETV
vector 1905  Network.dyn_peer[27]  lookupHopsSig:vector  ETV
vector 1906  Network.dyn_peer[27]  lookupStabilitySig:vector  ETV
vector 1907  Network.dyn_peer[27]  lookupTimeSig:vector  ETV
vector 1908  Network.dyn_peer[28]  lookupHopsSig:vector  ETV
vector 1909  Network.dyn_peer[28]  lookupStabilitySig:vector  ETV
vector 1910  Network.dyn_peer[28]  lookupTimeSig:vector  ETV
vector 1911  Network.dyn_peer[29]  lookupHopsSig:vector  ETV
vector 1912  Network.dyn_peer[29]  lookupStabilitySig:vector  ETV
vector 1913  Network.dyn_peer[29]  lookupTimeSig:vector  ETV
vector 1914  Network.dyn_peer[30]  lookupHopsSig:vector  ETV
vector 1915  Network.dyn_peer[30]  lookupStabilitySig:vector  ETV
vector 1916  Network.dyn_peer[30]  lookupTimeSig:vector  ETV
vector 1917  Network.dyn_peer[31]  lookupHopsSig:vector  ETV
vector 1918  Network.dyn_peer[31]  lookupStabilitySig:vector  ETV
vector 1919  Network.dyn_peer[31]  lookupTimeSig:vector  ETV
1824	6396 6980 32 65397 120.1 201720.605066853043 256 0 2 337 529
1825	13376 7848 32 65397 120.1 201720.605066853043 256 0.75 1 213.875 180.015625
1826	21224 7462 32 65397 120.1 201720.605066853043 256 0 0.3 52.9 12.53
1827	28686 7043 63 65434 220.2 201820.836169856816 256 0 2 341 525
1828	35729 7947 63 65434 220.2 201820.836169856816 256 0.75 1 213.375 178.953125
1829	43676 7541 63 65434 220.2 201820.836169856816 256 0 0.3 53.3 12.21
1830	51217 6974 92 65465 320.1 201920.814480824247 256 0 3 337 515
1831	58191 7884 92 65465 320.1 201920.814480824247 256 0.625 1 213.875 179.796875
1832	66075 7472 92 65465 320.1 201920.814480824247 256 0 0.4 52.9 12.21
1833	73547 6937 123 65496 420.2 202020.905666065394 256 0 2 341 531
1834	80484 7826 123 65496 420.2 202020.905666065394 256 0.75 1 213.375 179.046875
1835	88310 7429 123 65496 420.2 202020.905666065394 256 0 0.3 53.3 12.33
1836	95739 7001 154 65530 520.2 202120.832983497928 256 0 3 325 473
1837	102740 7938 154 65530 520.2 202120.832983497928 256 0.625 1 215.375 182.140625
1838	110678 7505 154 65530 520.2 202120.832983497928 256 0 0.4 51.7 11.57
1839	118183 6979 183 65562 620.2 202220.833373934713 256 0 2 339 527
1840	125162 7865 183 65562 620.2 202220.833373934713 256 0.75 1 213.625 179.484375
1841	133027 7469 183 65562 620.2 202220.833373934713 256 0 0.3 53.1 12.47
1842	140496 7057 211 65596 720 202320.835432717687 256 0 3 344 542
1843	147553 7952 211 65596 720 202320.835432717687 256 0.625 1 213 178.46875
1844	155505 7551 211 65596 720 202320.835432717687 256 0 0.3 53.6 12.52
1845	163056 6999 240 65628 820.2 202420.819861683732 256 0 2 344 532
1846	170055 7905 240 65628 820.2 202420.819861683732 256 0.75 1 213 178.3125
1847	177960 7499 240 65628 820.2 202420.819861683732 256 0 0.3 53.6 12.38
1848	185459 6940 271 65658 920.2 202520.820992089527 256 0 3 335 505
1849	192399 7862 271 65658 920.2 202520.820992089527 256 0.625 1 214.125 180.140625
1850	200261 7442 271 65658 920.2 202520.820992089527 256 0 0.4 52.7 12.11
1851	207703 6953 305 65688 1020.1 202620.909568587326 256 0 2 334 506
1852	214656 7859 305 65688 1020.1 202620.909568587326 256 0.75 1 214.25 180.40625
1853	222515 7449 305 65688 1020.1 202620.909568587326 256 0 0.3 52.6 12.1
1854	229964 7005 343 65723 1120.1 202720.945090652469 256 0 3 323 491
1855	236969 7891 343 65723 1120.1 202720.945090652469 256 0.625 1 215.625 182.921875
1856	244860 7487 343 65723 1120.1 202720.945090652469 256 0 0.4 51.5 11.99
1857	252347 7087 375 65752 1220.2 202820.621691398946 256 0 2 334 508
1858	259434 7988 375 65752 1220.2 202820.621691398946 256 0.75 1 214.25 180.4375
1859	267422 7581 375 65752 1220.2 202820.621691398946 256 0 0.3 52.6 12.02
1860	275003 6987 416 65784 1320.2 202920.931275955461 256 0 3 347 547
1861	281990 7882 416 65784 1320.2 202920.931275955461 256 0.625 1 212.625 177.796875
1862	289872 7483 416 65784 1320.2 202920.931275955461 256 0 0.4 53.9 12.73
1863	297355 7008 455 65818 1420.1 203020.936913379317 256 0 3 331 495
1864	304363 7929 455 65818 1420.1 203020.936913379317 256 0.625 1 214.625 180.984375
1865	312292 7508 455 65818 1420.1 203020.936913379317 256 0 0.4 52.3 11.91
1866	319800 7047 488 65851 1520 203120.731588583581 256 0 2 340 528
1867	326847 7937 488 65851 1520 203120.731588583581 256 0.75 1 213.5 179.25
1868	334784 7539 488 65851 1520 203120.731588583581 256 0 0.3 53.2 12.44
1869	342323 7015 518 65883 1620.1 203220.82593125233 256 0 2 334 508
1870	349338 7916 518 65883 1620.1 203220.82593125233 256 0.75 1 214.25 180.4375
1871	357254 7509 518 65883 1620.1 203220.82593125233 256 0 0.3 52.6 12
1872	364763 7018 556 65911 1720.1 203320.616512584398 256 0 3 326 488
1873	371781 7931 556 65911 1720.1 203320.616512584398 256 0.625 1 215.25 182.125
1874	379712 7512 556 65911 1720.1 203320.616512584398 256 0 0.4 51.8 11.76
1875	387224 7000 587 65941 1820.2 203420.906891525943 256 0 3 357 591
1876	394224 7899 587 65941 1820.2 203420.906891525943 256 0.625 1 211.375 175.984375
1877	402123 7496 587 65941 1820.2 203420.906891525943 256 0 0.4 54.9 13.13
1878	409619 6993 619 65978 1920.2 203520.852521471676 256 0 2 335 511
1879	416612 7893 619 65978 1920.2 203520.852521471676 256 0.75 1 214.125 180.234375
1880	424505 7487 619 65978 1920.2 203520.852521471676 256 0 0.3 52.7 12.21
1881	431992 6935 657 66007 2020.2 203620.618459883904 256 0 3 330 504
1882	438927 7834 657 66007 2020.2 203620.618459883904 256 0.625 1 214.75 181.375
1883	446761 7425 657 66007 2020.2 203620.618459883904 256 0 0.3 52.2 11.86
1884	454186 7027 691 66036 2120.1 203720.719122191627 256 0 2 333 499
1885	461213 7944 691 66036 2120.1 203720.719122191627 256 0.75 1 214.375 180.546875
1886	469157 7527 691 66036 2120.1 203720.719122191627 256 0 0.3 52.5 11.97
1887	476684 6982 719 66072 2220.1 203820.858306501386 256 0 3 351 561
1888	483666 7875 719 66072 2220.1 203820.858306501386 256 0.625 1 212.125 177.015625
1889	491541 7478 719 66072 2220.1 203820.858306501386 256 0 0.4 54.3 12.95
1890	499019 7075 753 66101 2320 203920.807234629517 256 0 3 344 534
1891	506094 7990 753 66101 2320 203920.807234629517 256 0.625 1 213 178.34375
1892	514084 7577 753 66101 2320 203920.807234629517 256 0 0.4 53.6 12.44
1893	521661 7006 785 66135 2420.1 204020.933041222777 256 0 2 335 513
1894	528667 7901 785 66135 2420.1 204020.933041222777 256 0.75 1 214.125 180.265625
1895	536568 7498 785 66135 2420.1 204020.933041222777 256 0 0.3 52.7 12.27
1896	544066 7044 821 66172 2520.2 204121.041012728542 256 0 3 347 545
1897	551110 7951 821 66172 2520.2 204121.041012728542 256 0.625 1 212.625 177.765625
1898	559061 7544 821 66172 2520.2 204121.041012728542 256 0 0.4 53.9 12.59
1899	566605 7039 853 66206 2620.3 204221.017928094884 256 0 3 345 547
1900	573644 7963 853 66206 2620.3 204221.017928094884 256 0.625 1 212.875 178.296875
1901	581607 7541 853 66206 2620.3 204221.017928094884 256 0 0.4 53.7 12.41
1902	589148 7028 882 66235 2720.2 204320.620993177756 256 0 3 353 567
1903	596176 7947 882 66235 2720.2 204320.620993177756 256 0.625 1 211.875 176.609375
1904	604123 7532 882 66235 2720.2 204320.620993177756 256 0 0.3 54.5 12.75
1905	611655 6958 912 66269 2820.1 204420.921544062023 256 0 2 332 500
1906	618613 7866 912 66269 2820.1 204420.921544062023 256 0.75 1 214.5 180.8125
1907	626479 7454 912 66269 2820.1 204420.921544062023 256 0 0.3 52.4 11.92
1908	633933 6988 942 66303 2920.1 204520.936526751394 256 0 3 326 484
1909	640921 7904 942 66303 2920.1 204520.936526751394 256 0.625 1 215.25 182.0625
1910	648825 7484 942 66303 2920.1 204520.936526751394 256 0 0.4 51.8 11.78
1911	656309 7006 971 66337 3020.1 204620.640510476113 256 0 2 324 486
1912	663315 7897 971 66337 3020.1 204620.640510476113 256 0.75 1 215.5 182.59375
1913	671212 7492 971 66337 3020.1 204620.640510476113 256 0 0.3 51.6 11.82
1914	678704 7053 1001 66369 3120.1 204720.720705506192 256 0 3 344 538
1915	685757 7979 1001 66369 3120.1 204720.720705506192 256 0.625 1 213 178.40625
1916	693736 7557 1001 66369 3120.1 204720.720705506192 256 0 0.3 53.6 12.34
1917	701293 7046 1038 66399 3220.2 204820.819108655211 256 0 2 339 515
1918	708339 7962 1038 66399 3220.2 204820.819108655211 256 0.75 1 213.625 179.296875
1919	716301 7548 1038 66399 3220.2 204820.819108655211 256 0 0.3 53.1 12.21
