version 2
run Stability-norelink-43-20130525-23:16:54-22103
attr configname Stability-norelink
attr datetime 20130525-23:16:54
attr experiment Stability
attr inifile omnetpp.ini
attr iterationvars $0=1e2
attr iterationvars2 "$0=1e2, $repetition=3"
attr measurement $0=1e2
attr network Network
attr processid 22103
attr repetition 3
attr replication #3
attr resultdir results
attr runnumber 43
attr seedset 43

vector 4128  Network.dyn_peer[0]  lookupHopsSig:vector  ETV
vector 4129  Network.dyn_peer[0]  lookupStabilitySig:vector  ETV
vector 4130  Network.dyn_peer[0]  lookupTimeSig:vector  ETV
vector 4131  Network.dyn_peer[1]  lookupHopsSig:vector  ETV
vector 4132  Network.dyn_peer[1]  lookupStabilitySig:vector  ETV
vector 4133  Network.dyn_peer[1]  lookupTimeSig:vector  ETV
vector 4134  Network.dyn_peer[2]  lookupHopsSig:vector  ETV
vector 4135  Network.dyn_peer[2]  lookupStabilitySig:vector  ETV
vector 4136  Network.dyn_peer[2]  lookupTimeSig:vector  ETV
vector 4137  Network.dyn_peer[3]  lookupHopsSig:vector  ETV
vector 4138  Network.dyn_peer[3]  lookupStabilitySig:vector  ETV
vector 4139  Network.dyn_peer[3]  lookupTimeSig:vector  ETV
vector 4140  Network.dyn_peer[4]  lookupHopsSig:vector  ETV
vector 4141  Network.dyn_peer[4]  lookupStabilitySig:vector  ETV
vector 4142  Network.dyn_peer[4]  lookupTimeSig:vector  ETV
vector 4143  Network.dyn_peer[5]  lookupHopsSig:vector  ETV
vector 4144  Network.dyn_peer[5]  lookupStabilitySig:vector  ETV
vector 4145  Network.dyn_peer[5]  lookupTimeSig:vector  ETV
vector 4146  Network.dyn_peer[6]  lookupHopsSig:vector  ETV
vector 4147  Network.dyn_peer[6]  lookupStabilitySig:vector  ETV
vector 4148  Network.dyn_peer[6]  lookupTimeSig:vector  ETV
vector 4149  Network.dyn_peer[7]  lookupHopsSig:vector  ETV
vector 4150  Network.dyn_peer[7]  lookupStabilitySig:vector  ETV
vector 4151  Network.dyn_peer[7]  lookupTimeSig:vector  ETV
vector 4152  Network.dyn_peer[8]  lookupHopsSig:vector  ETV
vector 4153  Network.dyn_peer[8]  lookupStabilitySig:vector  ETV
vector 4154  Network.dyn_peer[8]  lookupTimeSig:vector  ETV
vector 4155  Network.dyn_peer[9]  lookupHopsSig:vector  ETV
vector 4156  Network.dyn_peer[9]  lookupStabilitySig:vector  ETV
vector 4157  Network.dyn_peer[9]  lookupTimeSig:vector  ETV
vector 4158  Network.dyn_peer[10]  lookupHopsSig:vector  ETV
vector 4159  Network.dyn_peer[10]  lookupStabilitySig:vector  ETV
vector 4160  Network.dyn_peer[10]  lookupTimeSig:vector  ETV
vector 4164  Network.dyn_peer[12]  lookupHopsSig:vector  ETV
vector 4165  Network.dyn_peer[12]  lookupStabilitySig:vector  ETV
vector 4166  Network.dyn_peer[12]  lookupTimeSig:vector  ETV
vector 4161  Network.dyn_peer[11]  lookupHopsSig:vector  ETV
vector 4162  Network.dyn_peer[11]  lookupStabilitySig:vector  ETV
vector 4163  Network.dyn_peer[11]  lookupTimeSig:vector  ETV
vector 4167  Network.dyn_peer[13]  lookupHopsSig:vector  ETV
vector 4168  Network.dyn_peer[13]  lookupStabilitySig:vector  ETV
vector 4169  Network.dyn_peer[13]  lookupTimeSig:vector  ETV
vector 4170  Network.dyn_peer[14]  lookupHopsSig:vector  ETV
vector 4171  Network.dyn_peer[14]  lookupStabilitySig:vector  ETV
vector 4172  Network.dyn_peer[14]  lookupTimeSig:vector  ETV
vector 4182  Network.dyn_peer[18]  lookupHopsSig:vector  ETV
vector 4183  Network.dyn_peer[18]  lookupStabilitySig:vector  ETV
vector 4184  Network.dyn_peer[18]  lookupTimeSig:vector  ETV
vector 4176  Network.dyn_peer[16]  lookupHopsSig:vector  ETV
vector 4177  Network.dyn_peer[16]  lookupStabilitySig:vector  ETV
vector 4178  Network.dyn_peer[16]  lookupTimeSig:vector  ETV
vector 4185  Network.dyn_peer[19]  lookupHopsSig:vector  ETV
vector 4186  Network.dyn_peer[19]  lookupStabilitySig:vector  ETV
vector 4187  Network.dyn_peer[19]  lookupTimeSig:vector  ETV
vector 4188  Network.dyn_peer[20]  lookupHopsSig:vector  ETV
vector 4189  Network.dyn_peer[20]  lookupStabilitySig:vector  ETV
vector 4190  Network.dyn_peer[20]  lookupTimeSig:vector  ETV
vector 4179  Network.dyn_peer[17]  lookupHopsSig:vector  ETV
vector 4180  Network.dyn_peer[17]  lookupStabilitySig:vector  ETV
vector 4181  Network.dyn_peer[17]  lookupTimeSig:vector  ETV
vector 4191  Network.dyn_peer[21]  lookupHopsSig:vector  ETV
vector 4192  Network.dyn_peer[21]  lookupStabilitySig:vector  ETV
vector 4193  Network.dyn_peer[21]  lookupTimeSig:vector  ETV
vector 4173  Network.dyn_peer[15]  lookupHopsSig:vector  ETV
vector 4174  Network.dyn_peer[15]  lookupStabilitySig:vector  ETV
vector 4175  Network.dyn_peer[15]  lookupTimeSig:vector  ETV
vector 4200  Network.dyn_peer[24]  lookupHopsSig:vector  ETV
vector 4201  Network.dyn_peer[24]  lookupStabilitySig:vector  ETV
vector 4202  Network.dyn_peer[24]  lookupTimeSig:vector  ETV
vector 4203  Network.dyn_peer[25]  lookupHopsSig:vector  ETV
vector 4204  Network.dyn_peer[25]  lookupStabilitySig:vector  ETV
vector 4205  Network.dyn_peer[25]  lookupTimeSig:vector  ETV
vector 4194  Network.dyn_peer[22]  lookupHopsSig:vector  ETV
vector 4195  Network.dyn_peer[22]  lookupStabilitySig:vector  ETV
vector 4196  Network.dyn_peer[22]  lookupTimeSig:vector  ETV
vector 4206  Network.dyn_peer[26]  lookupHopsSig:vector  ETV
vector 4207  Network.dyn_peer[26]  lookupStabilitySig:vector  ETV
vector 4208  Network.dyn_peer[26]  lookupTimeSig:vector  ETV
vector 4212  Network.dyn_peer[28]  lookupHopsSig:vector  ETV
vector 4213  Network.dyn_peer[28]  lookupStabilitySig:vector  ETV
vector 4214  Network.dyn_peer[28]  lookupTimeSig:vector  ETV
vector 4197  Network.dyn_peer[23]  lookupHopsSig:vector  ETV
vector 4198  Network.dyn_peer[23]  lookupStabilitySig:vector  ETV
vector 4199  Network.dyn_peer[23]  lookupTimeSig:vector  ETV
vector 4209  Network.dyn_peer[27]  lookupHopsSig:vector  ETV
vector 4210  Network.dyn_peer[27]  lookupStabilitySig:vector  ETV
vector 4211  Network.dyn_peer[27]  lookupTimeSig:vector  ETV
vector 4215  Network.dyn_peer[29]  lookupHopsSig:vector  ETV
vector 4216  Network.dyn_peer[29]  lookupStabilitySig:vector  ETV
vector 4217  Network.dyn_peer[29]  lookupTimeSig:vector  ETV
vector 4218  Network.dyn_peer[30]  lookupHopsSig:vector  ETV
vector 4219  Network.dyn_peer[30]  lookupStabilitySig:vector  ETV
vector 4220  Network.dyn_peer[30]  lookupTimeSig:vector  ETV
vector 4221  Network.dyn_peer[31]  lookupHopsSig:vector  ETV
vector 4222  Network.dyn_peer[31]  lookupStabilitySig:vector  ETV
vector 4223  Network.dyn_peer[31]  lookupTimeSig:vector  ETV
4128	32	20.2	1
4128	44	20.4	1
4128	76	20.607984921713	1
4128	131	20.922076120163	2
4128	1147	23.5	2
4128	1427	24.004591858745	4
4128	2444	26.3	2
4128	2626	26.709893034419	3
4128	3654	28.9	2
4128	4048	29.7	8
4128	4260	30.107632993604	3
4128	5298	32	1
4128	5625	32.7	6
4128	6027	33.411489268054	8
4128	6029	33.412343906326	8
4128	6164	33.624024283193	1
4128	7172	35.6	5
4128	7335	36	4
4128	7620	36.708641567956	7
4128	7625	36.711190491744	6
4128	8477	38.6	0
4128	8608	38.9	4
4128	8738	39.200794695061	2
4128	9721	41.4	3
4128	11083	44.4	3
4128	11295	44.7	3
4128	11565	45.114671604176	3
4128	11599	45.220061769774	3
4128	12954	48.1	7
4128	13108	48.4	2
4128	13356	48.905340081821	5
4128	13364	48.908237128178	4
4128	13575	49.210707950906	2
4128	13577	49.211462771435	2
4128	13600	49.234111948795	2
4128	13684	49.445865935754	1
4128	14561	51.3	1
4128	14654	51.5	1
4128	14756	51.703251509875	1
4128	15151	52.416824610203	7
4128	15154	52.416855255447	7
4128	15370	52.931837648583	4
4128	15372	52.93356680937	4
4128	16441	55.1	4
4128	16792	55.9	8
4128	17000	56.402622410168	4
4128	17090	56.604158568868	1
4128	17160	56.810456796923	1
4128	18022	58.6	1
4128	18236	59.040786704974	2
4128	18257	59.1	5
4128	18341	59.249240208679	1
4128	19364	61.5	3
4128	19566	62	4
4128	19693	62.306909076399	2
4128	19870	62.714994295972	3
4128	19937	62.82536148103	2
4128	20039	63.030210666954	1
4128	20166	63.222217343059	4
4128	21408	65.6	5
4128	21588	66	3
4128	21732	66.202081599009	1
4128	21885	66.603272141608	3
4128	21998	66.919165167201	2
4128	22828	68.5	0
4128	22918	68.7	1
4128	23040	68.905779625291	1
4128	23110	69.021458115383	1
4128	23269	69.324335567179	2
4128	23415	69.532030974054	1
4128	23464	69.620611037122	1
4128	24492	71.5	3
4128	24847	72.1	6
4128	25044	72.506288478944	3
4128	25170	72.810696920507	2
4128	26161	74.9	1
4128	26295	75.3	3
4128	26439	75.607781395674	4
4128	26497	75.719719502969	1
4128	26600	75.921738214473	2
4128	27673	78.3	3
4128	27875	78.7	3
4128	28746	80.6	1
4128	28913	80.9	2
4128	29020	81.103640675754	1
4128	29217	81.411623841514	3
4128	29280	81.511193283732	3
4128	30288	83.6	2
4128	30373	83.8	1
4128	30629	84.211511685647	3
4128	30870	84.617578621985	4
4128	30982	84.83433919548	1
4128	32110	87.5	5
4128	32245	87.8	2
4128	32451	88.205268529971	3
4128	32610	88.521571349846	3
4128	32686	88.622174698209	3
4128	32772	88.82355031513	1
4128	33832	91.1	3
4128	33962	91.4	2
4128	34188	91.802839464454	4
4128	34462	92.42739545146	6
4128	35564	94.8	3
4128	35725	95.2	3
4128	35852	95.500451838888	3
4128	35990	95.801008138187	2
4128	35998	95.812512709957	2
4128	36015	95.833837718116	6
4128	36952	98.2	2
4128	37199	98.7	5
4128	37340	99.001505309736	2
4128	37442	99.212908969937	2
4128	37478	99.311499840157	2
4128	37634	99.618269855115	2
4128	37645	99.621738556311	2
4128	37726	99.81816793215	5
4128	37733	99.827708037876	1
4128	38913	102.3	6
4128	39120	102.7	4
4128	39288	103.103076522715	3
4128	39408	103.403546707084	2
4128	39626	103.825857516292	3
4128	40577	106	2
4128	40834	106.6	6
4128	40996	106.905950761572	2
4128	41130	107.109153842693	1
4128	41132	107.110182299748	1
4128	41212	107.242629732706	3
4128	42288	109.4	3
4128	42460	109.8	3
4128	42801	110.509718341712	8
4128	42850	110.606762955922	7
4128	42925	110.716082414857	1
4128	43008	110.903046272669	7
4128	43067	111.008550904237	4
4128	44120	112.8	1
4128	44239	113	1
4128	44370	113.211698971196	1
4128	44918	114.009501321562	7
4128	44933	114.018590455735	10
4128	45043	114.212859249535	1
4128	45131	114.427724512362	3
4128	46307	116.7	4
4128	46473	117.1	3
4128	46578	117.400983048786	2
4128	46646	117.601492571995	1
4128	46711	117.722087323713	1
4128	46745	117.826998992272	4
4128	46780	117.90839606837	2
4128	47764	120	1
4128	47901	120.3	2
4128	48160	120.71296706322	3
4128	48370	121.023537277386	2
4128	48419	121.114790992599	2
4128	48498	121.233399401739	1
4128	49495	123.4	1
4128	50743	125.9	1
4128	51069	126.5	5
4128	51295	126.908926415517	3
4128	51511	127.222977447782	3
4128	51514	127.225005846853	3
4128	52599	129.5	1
4128	53836	132.1	3
4128	54109	132.7	5
4128	54296	133.203548969551	4
4128	54380	133.4105539993	1
4128	55503	135.7	3
4128	55643	136	2
4128	55857	136.404269574882	4
4128	55869	136.411876458753	4
4128	55877	136.43698522585	1
4128	57120	139	4
4128	57319	139.4	4
4128	57592	140.001828945502	6
4128	57699	140.305146057411	2
4128	58702	142.7	3
4128	58919	143.208595429661	5
4128	59064	143.513281609602	2
4128	59244	144.013694523698	4
4128	59434	144.319300357714	2
4128	60442	146.4	2
4128	60654	146.9	5
4128	60789	147.104051857229	1
4128	60919	147.326023566416	1
4128	62076	149.9	5
4128	62194	150.1	1
4128	62371	150.501054513452	3
4128	62490	150.810008082245	2
4128	63422	153.1	4
4128	63612	153.5	5
4128	63710	153.704656328996	1
4128	63919	154.112059437215	2
4128	64008	154.321637122448	1
4128	64140	154.608223464788	2
4128	65127	156.4	2
4128	65278	156.7	2
4128	65523	157.207547090207	4
4128	65635	157.417457374896	1
4128	66675	159.5	2
4128	66780	159.8	2
4128	67787	162.1	1
4128	67882	162.3	1
4128	68034	162.601014739784	2
4128	68098	162.708492913464	2
4128	69095	165.2	3
4128	69151	165.4	1
4128	69536	166.310516246105	8
4128	70453	168.3	1
4128	70614	168.607147005556	2
4128	70792	168.910800048356	2
4128	71058	169.420721327101	4
4128	72166	171.5	4
4128	72393	172	4
4128	72526	172.257096816581	3
4128	72546	172.306852538452	2
4128	73570	174.5	3
4128	73694	174.7	1
4128	73843	175.009428861439	3
4128	73953	175.306356993037	4
4128	73991	175.416707149506	3
4128	74063	175.60506484057	3
4128	75191	178.1	4
4128	75422	178.608937005816	4
4128	75522	178.817701164261	1
4128	75568	179.0001	1
4128	75590	179.014206097287	4
4128	76435	181.1	0
4128	76521	181.3	1
4128	76708	181.70327256222	3
4128	76788	181.911704948302	1
4128	76871	182.11007003399	1
4128	77894	184.3	3
4128	78068	184.7	3
4128	78101	184.812631512276	1
4128	78239	185.213957016275	3
4128	79093	187	0
4128	79598	188	10
4128	79762	188.304644385636	3
4128	81011	190.3	3
4128	81178	190.6	3
4128	81198	190.623278652386	1
4128	82169	193	2
4128	82426	193.5	4
4128	82611	193.820172252116	3
4128	82636	193.902987313345	3
4128	83928	196.7	6
4128	84224	197.3	5
4128	84357	197.617957705747	3
4128	84415	197.807010079002	4
4128	85262	199.8	0
4128	85341	200	1
4128	85462	200.309870922013	2
4128	85625	200.716954192538	3
4128	86656	202.6	2
4128	86827	203	3
4128	86918	203.208579793188	1
4128	87078	203.612531443047	4
4128	88299	206.2	6
4128	88464	206.6	3
4128	88561	206.801899902438	1
4128	88729	207.209627118223	3
4128	88812	207.413299643495	1
4128	89956	209.5	2
4128	90017	209.7	1
4128	91315	212.3	3
4128	91583	212.8	4
4128	91722	213.101897375746	2
4128	91833	213.314536227484	1
4128	91906	213.519914091306	1
4128	92952	215.9	4
4128	93103	216.2	2
4128	94134	218.3	1
4128	94757	219.6	13
4128	94918	219.815845405385	6
4128	94939	219.824476111481	1
4128	94986	219.916924327796	1
4128	95051	220.025758734216	1
4128	95053	220.029276328046	1
4128	95058	220.033634409167	1
4128	95105	220.121731873883	1
4128	95265	220.329415357323	1
4128	96177	222.2	1
4128	96331	222.5	3
4128	96502	222.838060081007	2
4128	96667	223.14286868337	2
4128	96794	223.345435251611	1
4128	96898	223.507566199248	1
4128	97020	223.711085153796	1
4129	32	20.2	0.875
4129	44	20.4	0.875
4129	76	20.607984921713	0.875
4129	131	20.922076120163	0.75
4129	1147	23.5	0.75
4129	1427	24.004591858745	0.5
4129	2444	26.3	0.75
4129	2626	26.709893034419	0.625
4129	3654	28.9	0.75
4129	4048	29.7	0
4129	4260	30.107632993604	0.625
4129	5298	32	0.875
4129	5625	32.7	0.25
4129	6027	33.411489268054	0
4129	6029	33.412343906326	0
4129	6164	33.624024283193	0.875
4129	7172	35.6	0.375
4129	7335	36	0.5
4129	7620	36.708641567956	0.125
4129	7625	36.711190491744	0.25
4129	8477	38.6	1
4129	8608	38.9	0.5
4129	8738	39.200794695061	0.75
4129	9721	41.4	0.625
4129	11083	44.4	0.625
4129	11295	44.7	0.625
4129	11565	45.114671604176	0.625
4129	11599	45.220061769774	0.625
4129	12954	48.1	0.125
4129	13108	48.4	0.75
4129	13356	48.905340081821	0.375
4129	13364	48.908237128178	0.5
4129	13575	49.210707950906	0.75
4129	13577	49.211462771435	0.75
4129	13600	49.234111948795	0.75
4129	13684	49.445865935754	0.875
4129	14561	51.3	0.875
4129	14654	51.5	0.875
4129	14756	51.703251509875	0.875
4129	15151	52.416824610203	0.125
4129	15154	52.416855255447	0.125
4129	15370	52.931837648583	0.5
4129	15372	52.93356680937	0.5
4129	16441	55.1	0.5
4129	16792	55.9	0
4129	17000	56.402622410168	0.5
4129	17090	56.604158568868	0.875
4129	17160	56.810456796923	0.875
4129	18022	58.6	0.875
4129	18236	59.040786704974	0.75
4129	18257	59.1	0.375
4129	18341	59.249240208679	0.875
4129	19364	61.5	0.625
4129	19566	62	0.5
4129	19693	62.306909076399	0.75
4129	19870	62.714994295972	0.625
4129	19937	62.82536148103	0.75
4129	20039	63.030210666954	0.875
4129	20166	63.222217343059	0.5
4129	21408	65.6	0.375
4129	21588	66	0.625
4129	21732	66.202081599009	0.875
4129	21885	66.603272141608	0.625
4129	21998	66.919165167201	0.75
4129	22828	68.5	1
4129	22918	68.7	0.875
4129	23040	68.905779625291	0.875
4129	23110	69.021458115383	0.875
4129	23269	69.324335567179	0.75
4129	23415	69.532030974054	0.875
4129	23464	69.620611037122	0.875
4129	24492	71.5	0.625
4129	24847	72.1	0.25
4129	25044	72.506288478944	0.625
4129	25170	72.810696920507	0.75
4129	26161	74.9	0.875
4129	26295	75.3	0.625
4129	26439	75.607781395674	0.5
4129	26497	75.719719502969	0.875
4129	26600	75.921738214473	0.75
4129	27673	78.3	0.625
4129	27875	78.7	0.625
4129	28746	80.6	0.875
4129	28913	80.9	0.75
4129	29020	81.103640675754	0.875
4129	29217	81.411623841514	0.625
4129	29280	81.511193283732	0.625
4129	30288	83.6	0.75
4129	30373	83.8	0.875
4129	30629	84.211511685647	0.625
4129	30870	84.617578621985	0.5
4129	30982	84.83433919548	0.875
4129	32110	87.5	0.375
4129	32245	87.8	0.75
4129	32451	88.205268529971	0.625
4129	32610	88.521571349846	0.625
4129	32686	88.622174698209	0.625
4129	32772	88.82355031513	0.875
4129	33832	91.1	0.625
4129	33962	91.4	0.75
4129	34188	91.802839464454	0.5
4129	34462	92.42739545146	0.25
4129	35564	94.8	0.625
4129	35725	95.2	0.625
4129	35852	95.500451838888	0.625
4129	35990	95.801008138187	0.75
4129	35998	95.812512709957	0.75
4129	36015	95.833837718116	0.25
4129	36952	98.2	0.75
4129	37199	98.7	0.375
4129	37340	99.001505309736	0.75
4129	37442	99.212908969937	0.75
4129	37478	99.311499840157	0.75
4129	37634	99.618269855115	0.75
4129	37645	99.621738556311	0.75
4129	37726	99.81816793215	0.375
4129	37733	99.827708037876	0.875
4129	38913	102.3	0.25
4129	39120	102.7	0.5
4129	39288	103.103076522715	0.625
4129	39408	103.403546707084	0.75
4129	39626	103.825857516292	0.625
4129	40577	106	0.75
4129	40834	106.6	0.25
4129	40996	106.905950761572	0.75
4129	41130	107.109153842693	0.875
4129	41132	107.110182299748	0.875
4129	41212	107.242629732706	0.625
4129	42288	109.4	0.625
4129	42460	109.8	0.625
4129	42801	110.509718341712	0
4129	42850	110.606762955922	0.125
4129	42925	110.716082414857	0.875
4129	43008	110.903046272669	0.125
4129	43067	111.008550904237	0.5
4129	44120	112.8	0.875
4129	44239	113	0.875
4129	44370	113.211698971196	0.875
4129	44918	114.009501321562	0.125
4129	44933	114.018590455735	-0.25
4129	45043	114.212859249535	0.875
4129	45131	114.427724512362	0.625
4129	46307	116.7	0.5
4129	46473	117.1	0.625
4129	46578	117.400983048786	0.75
4129	46646	117.601492571995	0.875
4129	46711	117.722087323713	0.875
4129	46745	117.826998992272	0.5
4129	46780	117.90839606837	0.75
4129	47764	120	0.875
4129	47901	120.3	0.75
4129	48160	120.71296706322	0.625
4129	48370	121.023537277386	0.75
4129	48419	121.114790992599	0.75
4129	48498	121.233399401739	0.875
4129	49495	123.4	0.875
4129	50743	125.9	0.875
4129	51069	126.5	0.375
4129	51295	126.908926415517	0.625
4129	51511	127.222977447782	0.625
4129	51514	127.225005846853	0.625
4129	52599	129.5	0.875
4129	53836	132.1	0.625
4129	54109	132.7	0.375
4129	54296	133.203548969551	0.5
4129	54380	133.4105539993	0.875
4129	55503	135.7	0.625
4129	55643	136	0.75
4129	55857	136.404269574882	0.5
4129	55869	136.411876458753	0.5
4129	55877	136.43698522585	0.875
4129	57120	139	0.5
4129	57319	139.4	0.5
4129	57592	140.001828945502	0.25
4129	57699	140.305146057411	0.75
4129	58702	142.7	0.625
4129	58919	143.208595429661	0.375
4129	59064	143.513281609602	0.75
4129	59244	144.013694523698	0.5
4129	59434	144.319300357714	0.75
4129	60442	146.4	0.75
4129	60654	146.9	0.375
4129	60789	147.104051857229	0.875
4129	60919	147.326023566416	0.875
4129	62076	149.9	0.375
4129	62194	150.1	0.875
4129	62371	150.501054513452	0.625
4129	62490	150.810008082245	0.75
4129	63422	153.1	0.5
4129	63612	153.5	0.375
4129	63710	153.704656328996	0.875
4129	63919	154.112059437215	0.75
4129	64008	154.321637122448	0.875
4129	64140	154.608223464788	0.75
4129	65127	156.4	0.75
4129	65278	156.7	0.75
4129	65523	157.207547090207	0.5
4129	65635	157.417457374896	0.875
4129	66675	159.5	0.75
4129	66780	159.8	0.75
4129	67787	162.1	0.875
4129	67882	162.3	0.875
4129	68034	162.601014739784	0.75
4129	68098	162.708492913464	0.75
4129	69095	165.2	0.625
4129	69151	165.4	0.875
4129	69536	166.310516246105	0
4129	70453	168.3	0.875
4129	70614	168.607147005556	0.75
4129	70792	168.910800048356	0.75
4129	71058	169.420721327101	0.5
4129	72166	171.5	0.5
4129	72393	172	0.5
4129	72526	172.257096816581	0.625
4129	72546	172.306852538452	0.75
4129	73570	174.5	0.625
4129	73694	174.7	0.875
4129	73843	175.009428861439	0.625
4129	73953	175.306356993037	0.5
4129	73991	175.416707149506	0.625
4129	74063	175.60506484057	0.625
4129	75191	178.1	0.5
4129	75422	178.608937005816	0.5
4129	75522	178.817701164261	0.875
4129	75568	179.0001	0.875
4129	75590	179.014206097287	0.55555555224419
4129	76435	181.1	1
4129	76521	181.3	0.875
4129	76708	181.70327256222	0.625
4129	76788	181.911704948302	0.875
4129	76871	182.11007003399	0.875
4129	77894	184.3	0.625
4129	78068	184.7	0.625
4129	78101	184.812631512276	0.875
4129	78239	185.213957016275	0.625
4129	79093	187	1
4129	79598	188	-0.25
4129	79762	188.304644385636	0.625
4129	81011	190.3	0.625
4129	81178	190.6	0.625
4129	81198	190.623278652386	0.875
4129	82169	193	0.75
4129	82426	193.5	0.5
4129	82611	193.820172252116	0.625
4129	82636	193.902987313345	0.625
4129	83928	196.7	0.25
4129	84224	197.3	0.375
4129	84357	197.617957705747	0.625
4129	84415	197.807010079002	0.5
4129	85262	199.8	1
4129	85341	200	0.875
4129	85462	200.309870922013	0.75
4129	85625	200.716954192538	0.625
4129	86656	202.6	0.75
4129	86827	203	0.625
4129	86918	203.208579793188	0.875
4129	87078	203.612531443047	0.5
4129	88299	206.2	0.25
4129	88464	206.6	0.625
4129	88561	206.801899902438	0.875
4129	88729	207.209627118223	0.625
4129	88812	207.413299643495	0.875
4129	89956	209.5	0.75
4129	90017	209.7	0.875
4129	91315	212.3	0.625
4129	91583	212.8	0.5
4129	91722	213.101897375746	0.75
4129	91833	213.314536227484	0.875
4129	91906	213.519914091306	0.875
4129	92952	215.9	0.5
4129	93103	216.2	0.75
4129	94134	218.3	0.875
4129	94757	219.6	-0.625
4129	94918	219.815845405385	0.25
4129	94939	219.824476111481	0.875
4129	94986	219.916924327796	0.875
4129	95051	220.025758734216	0.875
4129	95053	220.029276328046	0.875
4129	95058	220.033634409167	0.875
4129	95105	220.121731873883	0.875
4129	95265	220.329415357323	0.875
4129	96177	222.2	0.875
4129	96331	222.5	0.625
4129	96502	222.838060081007	0.75
4129	96667	223.14286868337	0.75
4129	96794	223.345435251611	0.875
4129	96898	223.507566199248	0.875
4129	97020	223.711085153796	0.875
4130	32	20.2	0.1
4130	44	20.4	0.2
4130	76	20.607984921713	0.2
4130	131	20.922076120163	0.3
4130	1147	23.5	0.2
4130	1427	24.004591858745	0.5
4130	2444	26.3	0.2
4130	2626	26.709893034419	0.4
4130	3654	28.9	0.2
4130	4048	29.7	0.8
4130	4260	30.107632993604	0.4
4130	5298	32	0.1
4130	5625	32.7	0.7
4130	6027	33.411489268054	0.7
4130	6029	33.412343906326	0.7
4130	6164	33.624024283193	0.2
4130	7172	35.6	0.4
4130	7335	36	0.4
4130	7620	36.708641567956	0.7
4130	7625	36.711190491744	0.7
4130	8477	38.6	0
4130	8608	38.9	0.3
4130	8738	39.200794695061	0.3
4130	9721	41.4	0.3
4130	11083	44.4	0.3
4130	11295	44.7	0.3
4130	11565	45.114671604176	0.4
4130	11599	45.220061769774	0.4
4130	12954	48.1	0.7
4130	13108	48.4	0.3
4130	13356	48.905340081821	0.5
4130	13364	48.908237128178	0.5
4130	13575	49.210707950906	0.3
4130	13577	49.211462771435	0.3
4130	13600	49.234111948795	0.2
4130	13684	49.445865935754	0.2
4130	14561	51.3	0.1
4130	14654	51.5	0.2
4130	14756	51.703251509875	0.2
4130	15151	52.416824610203	0.7
4130	15154	52.416855255447	0.7
4130	15370	52.931837648583	0.5
4130	15372	52.93356680937	0.5
4130	16441	55.1	0.4
4130	16792	55.9	0.8
4130	17000	56.402622410168	0.5
4130	17090	56.604158568868	0.2
4130	17160	56.810456796923	0.2
4130	18022	58.6	0.1
4130	18236	59.040786704974	0.3
4130	18257	59.1	0.5
4130	18341	59.249240208679	0.2
4130	19364	61.5	0.3
4130	19566	62	0.5
4130	19693	62.306909076399	0.3
4130	19870	62.714994295972	0.4
4130	19937	62.82536148103	0.3
4130	20039	63.030210666954	0.2
4130	20166	63.222217343059	0.5
4130	21408	65.6	0.5
4130	21588	66	0.4
4130	21732	66.202081599009	0.2
4130	21885	66.603272141608	0.4
4130	21998	66.919165167201	0.3
4130	22828	68.5	0
4130	22918	68.7	0.2
4130	23040	68.905779625291	0.2
4130	23110	69.021458115383	0.2
4130	23269	69.324335567179	0.3
4130	23415	69.532030974054	0.2
4130	23464	69.620611037122	0.2
4130	24492	71.5	0.2
4130	24847	72.1	0.6
4130	25044	72.506288478944	0.4
4130	25170	72.810696920507	0.3
4130	26161	74.9	0.1
4130	26295	75.3	0.4
4130	26439	75.607781395674	0.3
4130	26497	75.719719502969	0.2
4130	26600	75.921738214473	0.3
4130	27673	78.3	0.3
4130	27875	78.7	0.4
4130	28746	80.6	0.1
4130	28913	80.9	0.3
4130	29020	81.103640675754	0.2
4130	29217	81.411623841514	0.3
4130	29280	81.511193283732	0.3
4130	30288	83.6	0.2
4130	30373	83.8	0.2
4130	30629	84.211511685647	0.4
4130	30870	84.617578621985	0.4
4130	30982	84.83433919548	0.2
4130	32110	87.5	0.4
4130	32245	87.8	0.3
4130	32451	88.205268529971	0.4
4130	32610	88.521571349846	0.3
4130	32686	88.622174698209	0.4
4130	32772	88.82355031513	0.2
4130	33832	91.1	0.3
4130	33962	91.4	0.3
4130	34188	91.802839464454	0.4
4130	34462	92.42739545146	0.6
4130	35564	94.8	0.3
4130	35725	95.2	0.4
4130	35852	95.500451838888	0.3
4130	35990	95.801008138187	0.3
4130	35998	95.812512709957	0.3
4130	36015	95.833837718116	0.6
4130	36952	98.2	0.2
4130	37199	98.7	0.5
4130	37340	99.001505309736	0.3
4130	37442	99.212908969937	0.3
4130	37478	99.311499840157	0.3
4130	37634	99.618269855115	0.3
4130	37645	99.621738556311	0.3
4130	37726	99.81816793215	0.6
4130	37733	99.827708037876	0.2
4130	38913	102.3	0.6
4130	39120	102.7	0.4
4130	39288	103.103076522715	0.4
4130	39408	103.403546707084	0.3
4130	39626	103.825857516292	0.4
4130	40577	106	0.2
4130	40834	106.6	0.6
4130	40996	106.905950761572	0.3
4130	41130	107.109153842693	0.2
4130	41132	107.110182299748	0.2
4130	41212	107.242629732706	0.3
4130	42288	109.4	0.3
4130	42460	109.8	0.4
4130	42801	110.509718341712	0.8
4130	42850	110.606762955922	0.8
4130	42925	110.716082414857	0.2
4130	43008	110.903046272669	0.7
4130	43067	111.008550904237	0.4
4130	44120	112.8	0.1
4130	44239	113	0.2
4130	44370	113.211698971196	0.2
4130	44918	114.009501321562	0.7
4130	44933	114.018590455735	0.8
4130	45043	114.212859249535	0.2
4130	45131	114.427724512362	0.4
4130	46307	116.7	0.4
4130	46473	117.1	0.4
4130	46578	117.400983048786	0.3
4130	46646	117.601492571995	0.2
4130	46711	117.722087323713	0.2
4130	46745	117.826998992272	0.4
4130	46780	117.90839606837	0.3
4130	47764	120	0.1
4130	47901	120.3	0.3
4130	48160	120.71296706322	0.4
4130	48370	121.023537277386	0.3
4130	48419	121.114790992599	0.3
4130	48498	121.233399401739	0.2
4130	49495	123.4	0.1
4130	50743	125.9	0.1
4130	51069	126.5	0.6
4130	51295	126.908926415517	0.4
4130	51511	127.222977447782	0.3
4130	51514	127.225005846853	0.3
4130	52599	129.5	0.1
4130	53836	132.1	0.2
4130	54109	132.7	0.6
4130	54296	133.203548969551	0.5
4130	54380	133.4105539993	0.2
4130	55503	135.7	0.3
4130	55643	136	0.3
4130	55857	136.404269574882	0.4
4130	55869	136.411876458753	0.4
4130	55877	136.43698522585	0.2
4130	57120	139	0.4
4130	57319	139.4	0.4
4130	57592	140.001828945502	0.6
4130	57699	140.305146057411	0.3
4130	58702	142.7	0.3
4130	58919	143.208595429661	0.5
4130	59064	143.513281609602	0.3
4130	59244	144.013694523698	0.5
4130	59434	144.319300357714	0.3
4130	60442	146.4	0.2
4130	60654	146.9	0.5
4130	60789	147.104051857229	0.2
4130	60919	147.326023566416	0.2
4130	62076	149.9	0.4
4130	62194	150.1	0.2
4130	62371	150.501054513452	0.4
4130	62490	150.810008082245	0.3
4130	63422	153.1	0.4
4130	63612	153.5	0.4
4130	63710	153.704656328996	0.2
4130	63919	154.112059437215	0.3
4130	64008	154.321637122448	0.2
4130	64140	154.608223464788	0.3
4130	65127	156.4	0.2
4130	65278	156.7	0.3
4130	65523	157.207547090207	0.5
4130	65635	157.417457374896	0.2
4130	66675	159.5	0.2
4130	66780	159.8	0.3
4130	67787	162.1	0.1
4130	67882	162.3	0.2
4130	68034	162.601014739784	0.3
4130	68098	162.708492913464	0.3
4130	69095	165.2	0.3
4130	69151	165.4	0.2
4130	69536	166.310516246105	0.9
4130	70453	168.3	0.1
4130	70614	168.607147005556	0.3
4130	70792	168.910800048356	0.3
4130	71058	169.420721327101	0.5
4130	72166	171.5	0.3
4130	72393	172	0.5
4130	72526	172.257096816581	0.4
4130	72546	172.306852538452	0.3
4130	73570	174.5	0.3
4130	73694	174.7	0.2
4130	73843	175.009428861439	0.3
4130	73953	175.306356993037	0.5
4130	73991	175.416707149506	0.4
4130	74063	175.60506484057	0.4
4130	75191	178.1	0.4
4130	75422	178.608937005816	0.5
4130	75522	178.817701164261	0.2
4130	75568	179.0001	0.2
4130	75590	179.014206097287	0.5
4130	76435	181.1	0
4130	76521	181.3	0.2
4130	76708	181.70327256222	0.4
4130	76788	181.911704948302	0.2
4130	76871	182.11007003399	0.2
4130	77894	184.3	0.3
4130	78068	184.7	0.4
4130	78101	184.812631512276	0.2
4130	78239	185.213957016275	0.4
4130	79093	187	0
4130	79598	188	1
4130	79762	188.304644385636	0.3
4130	81011	190.3	0.3
4130	81178	190.6	0.3
4130	81198	190.623278652386	0.2
4130	82169	193	0.2
4130	82426	193.5	0.5
4130	82611	193.820172252116	0.4
4130	82636	193.902987313345	0.4
4130	83928	196.7	0.6
4130	84224	197.3	0.6
4130	84357	197.617957705747	0.4
4130	84415	197.807010079002	0.5
4130	85262	199.8	0
4130	85341	200	0.2
4130	85462	200.309870922013	0.3
4130	85625	200.716954192538	0.4
4130	86656	202.6	0.2
4130	86827	203	0.4
4130	86918	203.208579793188	0.2
4130	87078	203.612531443047	0.4
4130	88299	206.2	0.5
4130	88464	206.6	0.4
4130	88561	206.801899902438	0.2
4130	88729	207.209627118223	0.4
4130	88812	207.413299643495	0.2
4130	89956	209.5	0.2
4130	90017	209.7	0.2
4130	91315	212.3	0.2
4130	91583	212.8	0.5
4130	91722	213.101897375746	0.3
4130	91833	213.314536227484	0.2
4130	91906	213.519914091306	0.2
4130	92952	215.9	0.4
4130	93103	216.2	0.3
4130	94134	218.3	0.1
4130	94757	219.6	1.3
4130	94918	219.815845405385	0.7
4130	94939	219.824476111481	0.2
4130	94986	219.916924327796	0.2
4130	95051	220.025758734216	0.2
4130	95053	220.029276328046	0.2
4130	95058	220.033634409167	0.2
4130	95105	220.121731873883	0.2
4130	95265	220.329415357323	0.2
4130	96177	222.2	0.1
4130	96331	222.5	0.3
4130	96502	222.838060081007	0.3
4130	96667	223.14286868337	0.3
4130	96794	223.345435251611	0.2
4130	96898	223.507566199248	0.2
4130	97020	223.711085153796	0.2
4131	48	20.4	2
4131	72	20.6	1
4131	125	20.900051295517	2
4131	196	21.208794323624	2
4131	1264	23.7	4
4131	1509	24.2	4
4131	1745	24.800160259194	5
4131	1875	25.108428109904	2
4131	3038	27.6	7
4131	3381	28.3	6
4131	3617	28.806033291615	4
4131	4705	31	2
4131	4836	31.2	1
4131	5219	31.818369219458	3
4131	5456	32.305893247811	11
4131	5654	32.715360335974	3
4131	5736	32.919529946871	11
4131	6781	34.8	5
4131	6980	35.209105603205	3
4131	7062	35.324620765579	3
4131	7068	35.340954641162	3
4131	8245	38.1	8
4131	8387	38.4	2
4131	8479	38.603295475351	1
4131	8612	38.904308674148	2
4131	9506	40.9	1
4131	9678	41.307311158277	4