file 930266 1369674156                                          
version 2
run Stability-norelink-121-20130525-23:22:07-22103
attr configname Stability-norelink
attr datetime 20130525-23:22:07
attr experiment Stability
attr inifile omnetpp.ini
attr iterationvars $0=1e-6
attr iterationvars2 "$0=1e-6, $repetition=1"
attr measurement $0=1e-6
attr network Network
attr processid 22103
attr repetition 1
attr replication #1
attr resultdir results
attr runnumber 121
attr seedset 121
vector 11622  Network.dyn_peer[2]  lookupHopsSig:vector  ETV
11622	60378 9616 36 137300 20.000000003 138.61266566748 315 0 16 1316 8460
vector 11623  Network.dyn_peer[2]  lookupStabilitySig:vector  ETV
11623	69994 10678 36 137300 20.000000003 138.61266566748 315 -1 1 150.79166662693 118.28221448557
vector 11624  Network.dyn_peer[2]  lookupTimeSig:vector  ETV
11624	80672 10210 36 137300 20.000000003 138.61266566748 315 0 1.5 148.3 94.07
vector 11628  Network.dyn_peer[4]  lookupHopsSig:vector  ETV
11628	119760 9483 46 137154 20.000000005 138.247492633714 311 0 21 1363 9695
vector 11629  Network.dyn_peer[4]  lookupStabilitySig:vector  ETV
11629	129243 10515 46 137154 20.000000005 138.247492633714 311 -1.625 1 140.70833332837 121.83545524066
vector 11630  Network.dyn_peer[4]  lookupTimeSig:vector  ETV
11630	139758 10058 46 137154 20.000000005 138.247492633714 311 0 2 150.9 102.35
vector 11685  Network.dyn_peer[23]  lookupHopsSig:vector  ETV
11685	672556 8588 107 136331 20.000000024 137.201491570207 282 0 17 1202 7826
vector 11686  Network.dyn_peer[23]  lookupStabilitySig:vector  ETV
11686	681144 9518 107 136331 20.000000024 137.201491570207 282 -1.125 1 131.86111109704 103.83950616548
vector 11687  Network.dyn_peer[23]  lookupTimeSig:vector  ETV
11687	690662 9118 107 136331 20.000000024 137.201491570207 282 0 1.4 132.4 84.2
vector 11706  Network.dyn_peer[30]  lookupHopsSig:vector  ETV
11706	871939 8913 132 136592 20.000000031 137.446017501427 292 0 18 1291 9307
vector 11707  Network.dyn_peer[30]  lookupStabilitySig:vector  ETV
11707	880852 9849 132 136592 20.000000031 137.446017501427 292 -1.25 1 130.81944441795 114.73283177541
vector 11708  Network.dyn_peer[30]  lookupTimeSig:vector  ETV
11708	890701 9441 132 136592 20.000000031 137.446017501427 292 0 1.7 143.1 98.27
vector 11631  Network.dyn_peer[5]  lookupHopsSig:vector  ETV
11631	149816 9431 149 135900 20.100000006 136.749372426434 310 0 19 1302 8572
vector 11632  Network.dyn_peer[5]  lookupStabilitySig:vector  ETV
11632	159247 10441 149 135900 20.100000006 136.749372426434 310 -1.375 1 147.33333332837 118.53858024066
vector 11633  Network.dyn_peer[5]  lookupTimeSig:vector  ETV
11633	169688 10016 149 135900 20.100000006 136.749372426434 310 0 1.8 146.4 93.94
vector 11634  Network.dyn_peer[6]  lookupHopsSig:vector  ETV
11634	179704 9827 154 136367 20.100000007 137.22377899446 322 0 20 1313 9041
vector 11635  Network.dyn_peer[6]  lookupStabilitySig:vector  ETV
11635	189531 10953 154 136367 20.100000007 137.22377899446 322 -1.5 1 158.26388881356 135.02604166998
vector 11636  Network.dyn_peer[6]  lookupTimeSig:vector  ETV
11636	200484 10433 154 136367 20.100000007 137.22377899446 322 0 1.8 148 97.08
vector 11640  Network.dyn_peer[8]  lookupHopsSig:vector  ETV
11640	241650 9088 160 136634 20.100000009 137.506617510029 298 0 20 1234 7928
vector 11641  Network.dyn_peer[8]  lookupStabilitySig:vector  ETV
11641	250738 10049 160 136634 20.100000009 137.506617510029 298 -1.5 1 143.80555555224 113.43364197163
vector 11642  Network.dyn_peer[8]  lookupTimeSig:vector  ETV
11642	260787 9635 160 136634 20.100000009 137.506617510029 298 0 1.7 137.2 85.68
vector 11643  Network.dyn_peer[9]  lookupHopsSig:vector  ETV
11643	270422 9527 165 136892 20.10000001 137.875967098883 312 0 18 1295 8473
vector 11644  Network.dyn_peer[9]  lookupStabilitySig:vector  ETV
11644	279949 10554 165 136892 20.10000001 137.875967098883 312 -1.25 1 150.23611110449 120.78414350969
vector 11645  Network.dyn_peer[9]  lookupTimeSig:vector  ETV
11645	290503 10117 165 136892 20.10000001 137.875967098883 312 0 1.8 146.3 95.05
vector 11655  Network.dyn_peer[13]  lookupHopsSig:vector  ETV
11655	385766 8782 173 136345 20.100000014 137.209720763158 289 0 17 1254 8484
vector 11656  Network.dyn_peer[13]  lookupStabilitySig:vector  ETV
11656	394548 9706 173 136345 20.100000014 137.209720763158 289 -1.125 1 132.33333332837 108.16358024066
vector 11657  Network.dyn_peer[13]  lookupTimeSig:vector  ETV
11657	404254 9318 173 136345 20.100000014 137.209720763158 289 0 1.6 139.2 90.98
vector 11661  Network.dyn_peer[15]  lookupHopsSig:vector  ETV
11661	441559 9090 179 135996 20.100000016 136.830532863233 298 0 20 1304 9388
vector 11662  Network.dyn_peer[15]  lookupStabilitySig:vector  ETV
11662	450649 10051 179 135996 20.100000016 136.830532863233 298 -1.5 1 135.08333331347 118.73611109787
vector 11663  Network.dyn_peer[15]  lookupTimeSig:vector  ETV
11663	460700 9645 179 135996 20.100000016 136.830532863233 298 0 1.8 144.6 99.12
vector 11679  Network.dyn_peer[21]  lookupHopsSig:vector  ETV
11679	617745 8479 189 136947 20.100000022 137.947407001531 279 0 22 1234 8386
vector 11680  Network.dyn_peer[21]  lookupStabilitySig:vector  ETV
11680	626224 9352 189 136947 20.100000022 137.947407001531 279 -1.75 1 124.75 101.53125
vector 11681  Network.dyn_peer[21]  lookupTimeSig:vector  ETV
11681	635576 8999 189 136947 20.100000022 137.947407001531 279 0 1.9 135.9 88.93
vector 11700  Network.dyn_peer[28]  lookupHopsSig:vector  ETV
11700	815837 9024 199 137312 20.100000029 138.642040069569 296 0 20 1338 9862
vector 11701  Network.dyn_peer[28]  lookupStabilitySig:vector  ETV
11701	824861 10042 199 137312 20.100000029 138.642040069569 296 -1.5 1 128.84722219408 115.69965275129
vector 11702  Network.dyn_peer[28]  lookupTimeSig:vector  ETV
11702	834903 9553 199 137312 20.100000029 138.642040069569 296 0 1.9 146.7 104.21
vector 11709  Network.dyn_peer[31]  lookupHopsSig:vector  ETV
11709	900142 9495 205 137067 20.100000032 138.130176089685 312 0 22 1376 9478
vector 11710  Network.dyn_peer[31]  lookupStabilitySig:vector  ETV
11710	909637 10549 205 137067 20.100000032 138.130176089685 312 -1.75 1 140.36111107469 116.20601848982
vector 11711  Network.dyn_peer[31]  lookupTimeSig:vector  ETV
11711	920186 10080 205 137067 20.100000032 138.130176089685 312 0 1.9 153 101.58
vector 11616  Network.dyn_peer[0]  lookupHopsSig:vector  ETV
11616	6498 8169 217 137335 20.200000001 138.784932975217 269 0 19 1219 8753
vector 11617  Network.dyn_peer[0]  lookupStabilitySig:vector  ETV
11617	14667 9054 217 137335 20.200000001 138.784932975217 269 -1.375 1 116.63888888806 101.04012345532
vector 11618  Network.dyn_peer[0]  lookupTimeSig:vector  ETV
11618	23721 8663 217 137335 20.200000001 138.784932975217 269 0 1.7 134.8 93.86
vector 11619  Network.dyn_peer[1]  lookupHopsSig:vector  ETV
11619	32384 8835 222 136717 20.200000002 137.62367899546 291 0 20 1256 8262
vector 11620  Network.dyn_peer[1]  lookupStabilitySig:vector  ETV
11620	41219 9776 222 136717 20.200000002 137.62367899546 291 -1.5 1 134.1249999851 106.24864967186
vector 11621  Network.dyn_peer[1]  lookupTimeSig:vector  ETV
11621	50995 9383 222 136717 20.200000002 137.62367899546 291 0 1.8 139.7 90.03
vector 11637  Network.dyn_peer[7]  lookupHopsSig:vector  ETV
11637	210917 9684 233 137087 20.200000008 138.143539985613 318 0 21 1322 8576
vector 11638  Network.dyn_peer[7]  lookupStabilitySig:vector  ETV
11638	220601 10771 233 137087 20.200000008 138.143539985613 318 -1.625 1 152.90277773142 121.66454470305
vector 11639  Network.dyn_peer[7]  lookupTimeSig:vector  ETV
11639	231372 10278 233 137087 20.200000008 138.143539985613 318 0 1.9 149.3 94.65
vector 11649  Network.dyn_peer[11]  lookupHopsSig:vector  ETV
11649	329103 8863 241 137279 20.200000012 138.558573754373 291 0 17 1230 7812
vector 11650  Network.dyn_peer[11]  lookupStabilitySig:vector  ETV
11650	337966 9795 241 137279 20.200000012 138.558573754373 291 -1.125 1 137.3749999702 105.67804781228
vector 11651  Network.dyn_peer[11]  lookupTimeSig:vector  ETV
11651	347761 9402 241 137279 20.200000012 138.558573754373 291 0 1.5 137.8 86.56
vector 11652  Network.dyn_peer[12]  lookupHopsSig:vector  ETV
11652	357163 9022 246 136539 20.200000013 137.396075393493 296 0 19 1324 8918
vector 11653  Network.dyn_peer[12]  lookupStabilitySig:vector  ETV
11653	366185 10017 246 136539 20.200000013 137.396075393493 296 -1.375 1 130.58333331347 104.39236109787
vector 11654  Network.dyn_peer[12]  lookupTimeSig:vector  ETV
11654	376202 9564 246 136539 20.200000013 137.396075393493 296 0 1.7 147.1 97.21
vector 11667  Network.dyn_peer[17]  lookupHopsSig:vector  ETV
11667	497350 9318 255 137052 20.200000018 138.126005120768 306 0 21 1337 9231
vector 11668  Network.dyn_peer[17]  lookupStabilitySig:vector  ETV
11668	506668 10349 255 137052 20.200000018 138.126005120768 306 -1.625 1 139.02777776867 116.06365740189
vector 11669  Network.dyn_peer[17]  lookupTimeSig:vector  ETV
11669	517017 9880 255 137052 20.200000018 138.126005120768 306 0 1.8 148.3 99.61
vector 11670  Network.dyn_peer[18]  lookupHopsSig:vector  ETV
11670	526897 9089 260 136733 20.200000019 137.635206390454 300 0 14 1197 7029
vector 11671  Network.dyn_peer[18]  lookupStabilitySig:vector  ETV
11671	535986 10096 260 136733 20.200000019 137.635206390454 300 -0.75 1 150.48611108959 110.72820213143
vector 11672  Network.dyn_peer[18]  lookupTimeSig:vector  ETV
11672	546082 9666 260 136733 20.200000019 137.635206390454 300 0 1.4 134.8 79.66
vector 11688  Network.dyn_peer[24]  lookupHopsSig:vector  ETV
11688	699780 9279 268 137110 20.200000025 138.188122060607 304 0 23 1381 10045
vector 11689  Network.dyn_peer[24]  lookupStabilitySig:vector  ETV
11689	709059 10270 268 137110 20.200000025 138.188122060607 304 -1.875 1 131.41666665673 115.7569444312
vector 11690  Network.dyn_peer[24]  lookupTimeSig:vector  ETV
11690	719329 9834 268 137110 20.200000025 138.188122060607 304 0 2.1 152.9 107.11
vector 11691  Network.dyn_peer[25]  lookupHopsSig:vector  ETV
11691	729163 8600 273 136484 20.200000026 137.34012291704 281 0 27 1313 9775
vector 11692  Network.dyn_peer[25]  lookupStabilitySig:vector  ETV
11692	737763 9511 273 136484 20.200000026 137.34012291704 281 -2.375 1 116.90277777612 105.52681326903
vector 11693  Network.dyn_peer[25]  lookupTimeSig:vector  ETV
11693	747274 9104 273 136484 20.200000026 137.34012291704 281 0 2.3 144.5 102.31
vector 11703  Network.dyn_peer[29]  lookupHopsSig:vector  ETV
11703	844456 8680 281 137232 20.20000003 138.415034259629 285 0 16 1279 8555
vector 11704  Network.dyn_peer[29]  lookupStabilitySig:vector  ETV
11704	853136 9597 281 137232 20.20000003 138.415034259629 285 -1 1 125.43055546284 98.896797818902
vector 11705  Network.dyn_peer[29]  lookupTimeSig:vector  ETV
11705	862733 9206 281 137232 20.20000003 138.415034259629 285 0 1.5 141.2 93.1
vector 11658  Network.dyn_peer[14]  lookupHopsSig:vector  ETV
11658	413572 8832 310 136803 20.300000015 137.733847777977 290 0 27 1289 9557
vector 11659  Network.dyn_peer[14]  lookupStabilitySig:vector  ETV
11659	422404 9797 310 136803 20.300000015 137.733847777977 290 -2.375 1 128.91666665673 117.1319444312
vector 11660  Network.dyn_peer[14]  lookupTimeSig:vector  ETV
11660	432201 9358 310 136803 20.300000015 137.733847777977 290 0 2.5 142.7 99.95
vector 11664  Network.dyn_peer[16]  lookupHopsSig:vector  ETV
11664	470345 8520 316 137156 20.300000017 138.249648697278 280 0 26 1247 9267
vector 11665  Network.dyn_peer[16]  lookupStabilitySig:vector  ETV
11665	478865 9439 316 137156 20.300000017 138.249648697278 280 -2.25 1 124.29166664183 113.19656633852
vector 11666  Network.dyn_peer[16]  lookupTimeSig:vector  ETV
11666	488304 9046 316 137156 20.300000017 138.249648697278 280 0 2.4 138.5 98.67
vector 11673  Network.dyn_peer[19]  lookupHopsSig:vector  ETV
11673	555748 9813 323 135042 20.30000002 136.134474376535 322 0 17 1207 7637
vector 11674  Network.dyn_peer[19]  lookupStabilitySig:vector  ETV
11674	565561 10888 323 135042 20.30000002 136.134474376535 322 -1.125 1 171.18055555224 139.63676697163
vector 11675  Network.dyn_peer[19]  lookupTimeSig:vector  ETV
11675	576449 10410 323 135042 20.30000002 136.134474376535 322 0 1.6 137.5 83.09
vector 11697  Network.dyn_peer[27]  lookupHopsSig:vector  ETV
11697	786075 9387 333 136071 20.300000028 136.895975393493 308 0 20 1335 9811
vector 11698  Network.dyn_peer[27]  lookupStabilitySig:vector  ETV
11698	795462 10415 333 136071 20.300000028 136.895975393493 308 -1.5 1 141.16666666418 127.61381172435
vector 11699  Network.dyn_peer[27]  lookupTimeSig:vector  ETV
11699	805877 9960 333 136071 20.300000028 136.895975393493 308 0 1.7 148.5 103.63
vector 11625  Network.dyn_peer[3]  lookupHopsSig:vector  ETV
11625	90882 9101 357 136520 20.400000004 137.369359796341 299 0 16 1246 8008
vector 11626  Network.dyn_peer[3]  lookupStabilitySig:vector  ETV
11626	99983 10124 357 136520 20.400000004 137.369359796341 299 -1 1 143.38888885826 112.7650462676
vector 11627  Network.dyn_peer[3]  lookupTimeSig:vector  ETV
11627	110107 9653 357 136520 20.400000004 137.369359796341 299 0 1.6 139.7 88.37
vector 11676  Network.dyn_peer[20]  lookupHopsSig:vector  ETV
11676	586859 9745 377 136403 20.400000021 137.242989691878 320 0 22 1308 8564
vector 11677  Network.dyn_peer[20]  lookupStabilitySig:vector  ETV
11677	596604 10803 377 136403 20.400000021 137.242989691878 320 -1.75 1 156.59722220898 126.92496140283
vector 11678  Network.dyn_peer[20]  lookupTimeSig:vector  ETV
11678	607407 10338 377 136403 20.400000021 137.242989691878 320 0 1.9 147 93.64
vector 11682  Network.dyn_peer[22]  lookupHopsSig:vector  ETV
11682	644575 8840 382 136390 20.400000023 137.239479141205 290 0 18 1342 8932
vector 11683  Network.dyn_peer[22]  lookupStabilitySig:vector  ETV
11683	653415 9761 382 136390 20.400000023 137.239479141205 290 -1.25 1 122.34722219408 94.161844109679
vector 11684  Network.dyn_peer[22]  lookupTimeSig:vector  ETV
11684	663176 9380 382 136390 20.400000023 137.239479141205 290 0 1.7 148.5 99.31
vector 11646  Network.dyn_peer[10]  lookupHopsSig:vector  ETV
11646	300620 8981 414 137000 20.500000011 138.029977262275 295 0 24 1307 9997
vector 11647  Network.dyn_peer[10]  lookupStabilitySig:vector  ETV
11647	309601 9982 414 137000 20.500000011 138.029977262275 295 -2 1 131.7499999851 124.52932097919
vector 11648  Network.dyn_peer[10]  lookupTimeSig:vector  ETV
11648	319583 9520 414 137000 20.500000011 138.029977262275 295 0 2.3 146.1 107.41
vector 11694  Network.dyn_peer[26]  lookupHopsSig:vector  ETV
11694	756378 9363 434 136020 20.500000027 136.838065888775 307 0 22 1235 8081
vector 11695  Network.dyn_peer[26]  lookupStabilitySig:vector  ETV
11695	765741 10395 434 136020 20.500000027 136.838065888775 307 -1.75 1 152.66666665673 124.5694444312
vector 11696  Network.dyn_peer[26]  lookupTimeSig:vector  ETV
11696	776136 9939 434 136020 20.500000027 136.838065888775 307 0 2 138.3 86.41
