version 2
run Stability-norelink-69-20130525-23:18:35-22103
attr configname Stability-norelink
attr datetime 20130525-23:18:35
attr experiment Stability
attr inifile omnetpp.ini
attr iterationvars $0=1e0
attr iterationvars2 "$0=1e0, $repetition=9"
attr measurement $0=1e0
attr network Network
attr processid 22103
attr repetition 9
attr replication #9
attr resultdir results
attr runnumber 69
attr seedset 69

vector 6636  Network.dyn_peer[4]  lookupHopsSig:vector  ETV
vector 6637  Network.dyn_peer[4]  lookupStabilitySig:vector  ETV
vector 6638  Network.dyn_peer[4]  lookupTimeSig:vector  ETV
vector 6696  Network.dyn_peer[24]  lookupHopsSig:vector  ETV
vector 6697  Network.dyn_peer[24]  lookupStabilitySig:vector  ETV
vector 6698  Network.dyn_peer[24]  lookupTimeSig:vector  ETV
vector 6705  Network.dyn_peer[27]  lookupHopsSig:vector  ETV
vector 6706  Network.dyn_peer[27]  lookupStabilitySig:vector  ETV
vector 6707  Network.dyn_peer[27]  lookupTimeSig:vector  ETV
vector 6714  Network.dyn_peer[30]  lookupHopsSig:vector  ETV
vector 6715  Network.dyn_peer[30]  lookupStabilitySig:vector  ETV
vector 6716  Network.dyn_peer[30]  lookupTimeSig:vector  ETV
vector 6624  Network.dyn_peer[0]  lookupHopsSig:vector  ETV
vector 6625  Network.dyn_peer[0]  lookupStabilitySig:vector  ETV
vector 6626  Network.dyn_peer[0]  lookupTimeSig:vector  ETV
vector 6627  Network.dyn_peer[1]  lookupHopsSig:vector  ETV
vector 6628  Network.dyn_peer[1]  lookupStabilitySig:vector  ETV
vector 6629  Network.dyn_peer[1]  lookupTimeSig:vector  ETV
vector 6630  Network.dyn_peer[2]  lookupHopsSig:vector  ETV
vector 6631  Network.dyn_peer[2]  lookupStabilitySig:vector  ETV
vector 6632  Network.dyn_peer[2]  lookupTimeSig:vector  ETV
vector 6648  Network.dyn_peer[8]  lookupHopsSig:vector  ETV
vector 6649  Network.dyn_peer[8]  lookupStabilitySig:vector  ETV
vector 6650  Network.dyn_peer[8]  lookupTimeSig:vector  ETV
vector 6663  Network.dyn_peer[13]  lookupHopsSig:vector  ETV
vector 6664  Network.dyn_peer[13]  lookupStabilitySig:vector  ETV
vector 6665  Network.dyn_peer[13]  lookupTimeSig:vector  ETV
vector 6666  Network.dyn_peer[14]  lookupHopsSig:vector  ETV
vector 6667  Network.dyn_peer[14]  lookupStabilitySig:vector  ETV
vector 6668  Network.dyn_peer[14]  lookupTimeSig:vector  ETV
vector 6669  Network.dyn_peer[15]  lookupHopsSig:vector  ETV
vector 6670  Network.dyn_peer[15]  lookupStabilitySig:vector  ETV
vector 6671  Network.dyn_peer[15]  lookupTimeSig:vector  ETV
vector 6699  Network.dyn_peer[25]  lookupHopsSig:vector  ETV
vector 6700  Network.dyn_peer[25]  lookupStabilitySig:vector  ETV
vector 6701  Network.dyn_peer[25]  lookupTimeSig:vector  ETV
vector 6717  Network.dyn_peer[31]  lookupHopsSig:vector  ETV
vector 6718  Network.dyn_peer[31]  lookupStabilitySig:vector  ETV
vector 6719  Network.dyn_peer[31]  lookupTimeSig:vector  ETV
vector 6633  Network.dyn_peer[3]  lookupHopsSig:vector  ETV
vector 6634  Network.dyn_peer[3]  lookupStabilitySig:vector  ETV
vector 6635  Network.dyn_peer[3]  lookupTimeSig:vector  ETV
vector 6651  Network.dyn_peer[9]  lookupHopsSig:vector  ETV
vector 6652  Network.dyn_peer[9]  lookupStabilitySig:vector  ETV
vector 6653  Network.dyn_peer[9]  lookupTimeSig:vector  ETV
vector 6654  Network.dyn_peer[10]  lookupHopsSig:vector  ETV
vector 6655  Network.dyn_peer[10]  lookupStabilitySig:vector  ETV
vector 6656  Network.dyn_peer[10]  lookupTimeSig:vector  ETV
vector 6657  Network.dyn_peer[11]  lookupHopsSig:vector  ETV
vector 6658  Network.dyn_peer[11]  lookupStabilitySig:vector  ETV
vector 6659  Network.dyn_peer[11]  lookupTimeSig:vector  ETV
vector 6660  Network.dyn_peer[12]  lookupHopsSig:vector  ETV
vector 6661  Network.dyn_peer[12]  lookupStabilitySig:vector  ETV
vector 6662  Network.dyn_peer[12]  lookupTimeSig:vector  ETV
vector 6678  Network.dyn_peer[18]  lookupHopsSig:vector  ETV
vector 6679  Network.dyn_peer[18]  lookupStabilitySig:vector  ETV
vector 6680  Network.dyn_peer[18]  lookupTimeSig:vector  ETV
vector 6693  Network.dyn_peer[23]  lookupHopsSig:vector  ETV
vector 6694  Network.dyn_peer[23]  lookupStabilitySig:vector  ETV
vector 6695  Network.dyn_peer[23]  lookupTimeSig:vector  ETV
vector 6708  Network.dyn_peer[28]  lookupHopsSig:vector  ETV
vector 6709  Network.dyn_peer[28]  lookupStabilitySig:vector  ETV
vector 6710  Network.dyn_peer[28]  lookupTimeSig:vector  ETV
vector 6711  Network.dyn_peer[29]  lookupHopsSig:vector  ETV
vector 6712  Network.dyn_peer[29]  lookupStabilitySig:vector  ETV
vector 6713  Network.dyn_peer[29]  lookupTimeSig:vector  ETV
vector 6645  Network.dyn_peer[7]  lookupHopsSig:vector  ETV
vector 6646  Network.dyn_peer[7]  lookupStabilitySig:vector  ETV
vector 6647  Network.dyn_peer[7]  lookupTimeSig:vector  ETV
vector 6672  Network.dyn_peer[16]  lookupHopsSig:vector  ETV
vector 6673  Network.dyn_peer[16]  lookupStabilitySig:vector  ETV
vector 6674  Network.dyn_peer[16]  lookupTimeSig:vector  ETV
vector 6675  Network.dyn_peer[17]  lookupHopsSig:vector  ETV
vector 6676  Network.dyn_peer[17]  lookupStabilitySig:vector  ETV
vector 6677  Network.dyn_peer[17]  lookupTimeSig:vector  ETV
vector 6702  Network.dyn_peer[26]  lookupHopsSig:vector  ETV
vector 6703  Network.dyn_peer[26]  lookupStabilitySig:vector  ETV
vector 6704  Network.dyn_peer[26]  lookupTimeSig:vector  ETV
vector 6639  Network.dyn_peer[5]  lookupHopsSig:vector  ETV
vector 6640  Network.dyn_peer[5]  lookupStabilitySig:vector  ETV
vector 6641  Network.dyn_peer[5]  lookupTimeSig:vector  ETV
vector 6681  Network.dyn_peer[19]  lookupHopsSig:vector  ETV
vector 6682  Network.dyn_peer[19]  lookupStabilitySig:vector  ETV
vector 6683  Network.dyn_peer[19]  lookupTimeSig:vector  ETV
vector 6687  Network.dyn_peer[21]  lookupHopsSig:vector  ETV
vector 6688  Network.dyn_peer[21]  lookupStabilitySig:vector  ETV
vector 6689  Network.dyn_peer[21]  lookupTimeSig:vector  ETV
vector 6690  Network.dyn_peer[22]  lookupHopsSig:vector  ETV
vector 6691  Network.dyn_peer[22]  lookupStabilitySig:vector  ETV
vector 6692  Network.dyn_peer[22]  lookupTimeSig:vector  ETV
vector 6642  Network.dyn_peer[6]  lookupHopsSig:vector  ETV
vector 6643  Network.dyn_peer[6]  lookupStabilitySig:vector  ETV
vector 6644  Network.dyn_peer[6]  lookupTimeSig:vector  ETV
vector 6684  Network.dyn_peer[20]  lookupHopsSig:vector  ETV
vector 6685  Network.dyn_peer[20]  lookupStabilitySig:vector  ETV
vector 6686  Network.dyn_peer[20]  lookupTimeSig:vector  ETV
6624	141	20.101	1
6624	292	20.306697201881	1
6624	419	20.520800571859	1
6624	716	20.927316315859	3
6624	1382	21.633126500752	6
6624	1669	21.838592946113	1
6624	1674	21.838912210657	1
6624	2019	22.140012210657	3
6624	2334	22.440012210657	2
6624	2695	22.748988464337	2
6624	2923	22.953993470421	2
6624	3298	23.261765232583	2
6624	3613	23.538282702456	2
6624	3663	23.546627501716	8
6624	3808	23.652086170096	1
6624	4846	24.552086170096	8
6624	5271	24.953702164943	4
6624	5281	24.954842999217	3
6624	5497	25.157814469118	1
6624	5512	25.161702256112	1
6624	5801	25.468487382298	2
6624	5804	25.469244720897	2
6624	6438	26.070344720897	6
6624	6974	26.470344720897	4
6624	7996	27.371444720897	9
6624	8788	28.000126564776	3
6624	9320	28.403592227872	3
6624	9524	28.571444720897	11
6624	10758	29.577294481303	10
6624	11214	29.977294481303	3
6624	11577	30.317077384292	2
6624	11916	30.584701042035	6
6624	12058	30.720997093451	3
6624	12341	30.989410904135	3
6624	12670	31.225451763994	4
6624	13113	31.593808391381	5
6624	13166	31.631647188572	3
6624	13272	31.729377797985	9
6624	13796	32.131156761778	4
6624	14584	32.731156761778	6
6624	14841	32.932394399411	1
6624	15105	33.140915179925	1
6624	15322	33.344119009789	1
6624	15740	33.746944353475	4
6624	16581	34.446944353475	6
6624	16810	34.649407099745	1
6624	16939	34.759117327286	1
6624	17451	35.159117327286	3
6624	18801	36.563087567908	13
6624	18905	36.645842493242	13
6624	19693	37.280073181165	7
6624	20183	37.686370902568	5
6624	20955	38.286370902568	5
6624	21217	38.49088620354	1
6624	22471	39.590193928897	5
6624	22827	39.899730131668	3
6624	22927	40.000455533233	15
6624	24244	41.011052898791	12
6624	24950	41.611052898791	5
6624	25623	42.101952494975	6
6624	25841	42.224651316121	5
6624	26256	42.527210704099	3
6624	27057	43.127210704099	5
6624	28000	43.929019351055	7
6624	28418	44.246253340755	6
6624	28499	44.332588486576	4
6624	28759	44.533688486576	2
6624	29233	44.933688486576	4
6624	30583	45.97392563931	6
6624	31852	46.93923259916	2
6624	32114	47.1762792605	12
6624	32408	47.477831067041	2
6624	33973	48.777831067041	14
6624	34638	49.377972487184	6
6624	35087	49.79542256782	3
6624	35413	50.099386407385	2
6624	35418	50.101215730138	6
6624	36161	50.702315730138	9
6624	36437	50.902315730138	1
6624	37516	51.806296670748	8
6624	38136	52.324043556606	3
6624	38363	52.555108994952	14
6624	38437	52.614043552832	9
6624	38655	52.818771533944	2
6624	38905	53.018771533944	1
6624	39610	53.634546844189	6
6624	39745	53.749175027161	0
6624	39830	53.811183885017	0
6624	40021	53.966732780133	1
6624	40809	54.621683703131	7
6624	41193	54.922783703131	4
6624	41698	55.335978517005	3
6624	43026	56.742642079003	14
6624	44443	57.850584074274	14
6624	46293	59.450584074274	16
6624	47790	60.656397575707	12
6624	48605	61.357287327823	8
6624	48867	61.559943451717	1
6624	49083	61.761879162228	1
6624	49752	62.264706789506	5
6624	50097	62.564706789506	2
6624	50235	62.673007773477	2
6624	51700	63.88208199092	13
6624	52172	64.28208199092	3
6624	52679	64.703732791079	3
6624	52754	64.782810839303	5
6624	53324	65.292102063425	6
6624	54418	66.297852161527	10
6624	55066	66.798952161527	5
6624	55410	67.098952161527	2
6624	56406	67.963998312553	4
6624	56818	68.399977957456	5
6624	57005	68.534476981459	9
6624	57278	68.772053992196	8
6624	57387	68.861370236573	7
6624	57920	69.368863562092	5
6624	58550	69.968863562092	5
6624	58897	70.277204033029	2
6624	59303	70.578304033029	3
6624	60018	71.178304033029	5
6624	60151	71.283434939337	1
6624	60570	71.683434939337	3
6624	61025	72.086083880987	3
6624	61794	72.790755033863	8
6624	62451	73.298558406241	5
6624	62959	73.701717817241	3
6624	63205	73.904827835268	1
6624	63471	74.111781814902	3
6624	64964	75.311781814902	12
6624	65335	75.613695885751	2
6624	65666	75.922279528948	8
6624	65797	76.017930297178	3
6624	66443	76.525621593387	5
6624	67831	77.525621593387	9
6624	68268	77.834477172246	2
6624	68980	78.380683225371	5
6624	69302	78.643040376595	8
6624	69485	78.818379852999	9
6624	70761	79.821982055609	11
6624	71070	80.121982055609	2
6624	71701	80.725401806973	5
6624	72153	81.056602634695	2
6624	72704	81.464650349274	5
6624	73696	82.215069151527	5
6624	74036	82.520886226873	2
6624	74287	82.727718466118	1
6624	75306	83.528818466118	9
6624	76527	84.628818466118	10
6624	76843	84.930693700548	2
6624	77291	85.243483433937	3
6624	77546	85.43469099624	4
6624	78958	86.642465958935	13
6624	79278	86.942465958935	2
6624	79711	87.263792668529	2
6624	79808	87.348815373971	4
6624	80219	87.674860555866	2
6624	81084	88.374860555866	6
6624	81689	88.881109570768	4
6624	82154	89.289422941194	3
6624	82468	89.590279122009	2
6624	82579	89.690307605655	1
6624	82838	89.936682390008	2
6624	83783	90.637782390008	7
6624	84895	91.537782390008	9
6624	85346	91.857424103373	2
6624	85378	91.874302756522	2
6624	85408	91.888029034637	1
6624	85917	92.288332907446	3
6624	85923	92.290356316448	3
6624	86011	92.362205192001	4
6624	86022	92.373280466637	4
6624	86201	92.478910387814	1
6624	86832	92.878910387814	3
6624	87455	93.235307351171	3
6624	87951	93.636407351171	4
6624	88596	94.236407351171	5
6624	88686	94.31316083246	4
6624	88862	94.436637783438	1
6624	88874	94.44319048136	1
6624	88946	94.517296837033	1
6624	89220	94.722383427998	2
6624	89832	95.222383427998	5
6624	90400	95.623483427998	5
6624	90616	95.823483427998	1
6624	91294	96.428043365992	5
6624	91905	96.941413362842	4
6624	91974	96.986123803005	7
6624	92116	97.090893121065	1
6624	93053	97.890893121065	7
6624	93234	97.991760392621	0
6624	93971	98.650421389238	8
6624	93990	98.655360102575	8
6624	94143	98.756955286224	1
6624	94718	99.156955286224	3
6624	94978	99.362693328872	1
6624	95349	99.672683516047	2
6624	95615	99.888681150581	1
6624	96260	100.39052997126	5
6624	97032	101.094632638473	6
6624	97575	101.604348841203	4
6624	97625	101.641977921738	1
6624	97753	101.749346217311	1
6624	98699	102.494700857444	6
6624	99097	102.894700857444	4
6624	99577	103.302693615255	1
6624	99693	103.403793615255	1
6624	100484	104.108246228956	6
6624	101055	104.514351766293	4
6624	101975	105.31642647348	7
6624	102606	105.81986119579	6
6624	103169	106.31986119579	4
6624	103910	106.920691925989	5
6624	104230	107.225448773825	2
6624	104306	107.267969358313	2
6624	104593	107.531740157027	2
6624	104637	107.570723204183	2
6624	104879	107.777431153673	2
6624	105565	108.477431153673	6
6624	105989	108.88374634053	3
6624	106379	109.288374839126	3
6624	106614	109.493959880736	2
6624	106922	109.793959880736	2
6624	107282	110.092893993384	2
6624	107748	110.593993993384	5
6624	108587	111.493993993384	9
6624	108802	111.702466562344	1
6624	108817	111.703566562344	0
6624	109417	112.303566562344	5
6624	109659	112.506556825047	1
6624	110684	113.29933436422	6
6624	110831	113.41236828228	8
6624	111322	113.817793733355	4
6624	111994	114.417793733355	7
6624	112343	114.718169226845	2
6624	113395	115.525064277604	7
6624	114946	116.722939178349	14
6624	115415	117.131730381541	4
6624	116385	118.031730381541	8
6624	117631	119.032692704381	10
6624	117820	119.18765537638	8
6624	118539	119.789199838684	6
6624	119090	120.204152337944	2
6624	119103	120.222463775255	2
6624	119252	120.331627076892	1
6624	120431	121.531627076892	12
6624	120771	121.837452692771	2
6624	121116	122.140359401245	3
6624	121623	122.540359401245	3
6624	122646	123.45814002053	8
6624	122852	123.663468083114	1
6624	122993	123.765510875443	1
6624	123757	124.365510875443	5
6624	124456	124.965829822742	6
6624	125269	125.706484833598	7
6624	125364	125.77414312573	7
6624	126029	126.31215554138	5
6624	126299	126.482152782176	6
6624	126659	126.782885421051	2
6624	126676	126.812386337461	4
6624	126827	126.914166385824	1
6624	127183	127.214166385824	2
6624	127689	127.616268245237	3
6624	128484	128.217970357179	6
6624	129722	129.117970357179	9
6624	129871	129.221683270829	1
6624	130401	129.678508932109	4
6624	130623	129.88716434719	1
6624	131174	130.293007683687	5
6624	131749	130.793007683687	4
6624	132008	130.994107683687	2
6624	132228	131.195453400392	1
6624	133850	132.525390075753	4
6624	134980	133.425390075753	10
6624	135603	133.93312260512	4
6624	135865	134.137938671508	2
6624	136614	134.837938671508	6
6624	137249	135.343961124115	4
6624	137599	135.652585058247	2
6624	137635	135.704582536614	1
6625	141	20.101	0.875
6625	292	20.306697201881	0.875
6625	419	20.520800571859	0.875
6625	716	20.927316315859	0.625
6625	1382	21.633126500752	0.25
6625	1669	21.838592946113	0.875
6625	1674	21.838912210657	0.875
6625	2019	22.140012210657	0.625
6625	2334	22.440012210657	0.75
6625	2695	22.748988464337	0.75
6625	2923	22.953993470421	0.75
6625	3298	23.261765232583	0.75
6625	3613	23.538282702456	0.75
6625	3663	23.546627501716	0
6625	3808	23.652086170096	0.875
6625	4846	24.552086170096	0
6625	5271	24.953702164943	0.5
6625	5281	24.954842999217	0.625
6625	5497	25.157814469118	0.875
6625	5512	25.161702256112	0.875
6625	5801	25.468487382298	0.75
6625	5804	25.469244720897	0.75
6625	6438	26.070344720897	0.25
6625	6974	26.470344720897	0.5
6625	7996	27.371444720897	-0.125
6625	8788	28.000126564776	0.625
6625	9320	28.403592227872	0.625
6625	9524	28.571444720897	-0.375
6625	10758	29.577294481303	-0.25
6625	11214	29.977294481303	0.625
6625	11577	30.317077384292	0.75
6625	11916	30.584701042035	0.25
6625	12058	30.720997093451	0.625
6625	12341	30.989410904135	0.625
6625	12670	31.225451763994	0.5
6625	13113	31.593808391381	0.375
6625	13166	31.631647188572	0.625
6625	13272	31.729377797985	-0.125
6625	13796	32.131156761778	0.5
6625	14584	32.731156761778	0.25
6625	14841	32.932394399411	0.875
6625	15105	33.140915179925	0.875
6625	15322	33.344119009789	0.875
6625	15740	33.746944353475	0.5
6625	16581	34.446944353475	0.25
6625	16810	34.649407099745	0.875
6625	16939	34.759117327286	0.875
6625	17451	35.159117327286	0.625
6625	18801	36.563087567908	-0.625
6625	18905	36.645842493242	-0.625
6625	19693	37.280073181165	0.125
6625	20183	37.686370902568	0.375
6625	20955	38.286370902568	0.375
6625	21217	38.49088620354	0.875
6625	22471	39.590193928897	0.375
6625	22827	39.899730131668	0.625
6625	22927	40.000455533233	-0.875
6625	24244	41.011052898791	-0.5
6625	24950	41.611052898791	0.375
6625	25623	42.101952494975	0.25
6625	25841	42.224651316121	0.375
6625	26256	42.527210704099	0.625
6625	27057	43.127210704099	0.375
6625	28000	43.929019351055	0.125
6625	28418	44.246253340755	0.25
6625	28499	44.332588486576	0.5
6625	28759	44.533688486576	0.75
6625	29233	44.933688486576	0.5
6625	30583	45.97392563931	0.25
6625	31852	46.93923259916	0.75
6625	32114	47.1762792605	-0.5
6625	32408	47.477831067041	0.75
6625	33973	48.777831067041	-0.75
6625	34638	49.377972487184	0.25
6625	35087	49.79542256782	0.625
6625	35413	50.099386407385	0.75
6625	35418	50.101215730138	0.25
6625	36161	50.702315730138	-0.125
6625	36437	50.902315730138	0.875
6625	37516	51.806296670748	0
6625	38136	52.324043556606	0.625
6625	38363	52.555108994952	-0.75
6625	38437	52.614043552832	-0.125
6625	38655	52.818771533944	0.75
6625	38905	53.018771533944	0.875
6625	39610	53.634546844189	0.25
6625	39745	53.749175027161	1
6625	39830	53.811183885017	1
6625	40021	53.966732780133	0.875
6625	40809	54.621683703131	0.125
6625	41193	54.922783703131	0.5
6625	41698	55.335978517005	0.625
6625	43026	56.742642079003	-0.75
6625	44443	57.850584074274	-0.75
6625	46293	59.450584074274	-1
6625	47790	60.656397575707	-0.5
6625	48605	61.357287327823	0
6625	48867	61.559943451717	0.875
6625	49083	61.761879162228	0.875
6625	49752	62.264706789506	0.375
6625	50097	62.564706789506	0.75
6625	50235	62.673007773477	0.75
6625	51700	63.88208199092	-0.625
6625	52172	64.28208199092	0.625
6625	52679	64.703732791079	0.625
6625	52754	64.782810839303	0.375
6625	53324	65.292102063425	0.25
6625	54418	66.297852161527	-0.25
6625	55066	66.798952161527	0.375
6625	55410	67.098952161527	0.75
6625	56406	67.963998312553	0.5
6625	56818	68.399977957456	0.375
6625	57005	68.534476981459	-0.125
6625	57278	68.772053992196	0
6625	57387	68.861370236573	0.125
6625	57920	69.368863562092	0.375
6625	58550	69.968863562092	0.375
6625	58897	70.277204033029	0.75
6625	59303	70.578304033029	0.625
6625	60018	71.178304033029	0.375
6625	60151	71.283434939337	0.875
6625	60570	71.683434939337	0.625
6625	61025	72.086083880987	0.625
6625	61794	72.790755033863	0
6625	62451	73.298558406241	0.375
6625	62959	73.701717817241	0.625
6625	63205	73.904827835268	0.875
6625	63471	74.111781814902	0.625
6625	64964	75.311781814902	-0.5
6625	65335	75.613695885751	0.75
6625	65666	75.922279528948	0
6625	65797	76.017930297178	0.625
6625	66443	76.525621593387	0.375
6625	67831	77.525621593387	-0.125
6625	68268	77.834477172246	0.75
6625	68980	78.380683225371	0.375
6625	69302	78.643040376595	0
6625	69485	78.818379852999	-0.125
6625	70761	79.821982055609	-0.375
6625	71070	80.121982055609	0.75
6625	71701	80.725401806973	0.375
6625	72153	81.056602634695	0.75
6625	72704	81.464650349274	0.375
6625	73696	82.215069151527	0.375
6625	74036	82.520886226873	0.75
6625	74287	82.727718466118	0.875
6625	75306	83.528818466118	-0.125
6625	76527	84.628818466118	-0.25
6625	76843	84.930693700548	0.75
6625	77291	85.243483433937	0.625
6625	77546	85.43469099624	0.5
6625	78958	86.642465958935	-0.625
6625	79278	86.942465958935	0.75
6625	79711	87.263792668529	0.75
6625	79808	87.348815373971	0.5
6625	80219	87.674860555866	0.75
6625	81084	88.374860555866	0.25
6625	81689	88.881109570768	0.5
6625	82154	89.289422941194	0.625
6625	82468	89.590279122009	0.75
6625	82579	89.690307605655	0.875
6625	82838	89.936682390008	0.75
6625	83783	90.637782390008	0.125
6625	84895	91.537782390008	-0.125
6625	85346	91.857424103373	0.75
6625	85378	91.874302756522	0.75
6625	85408	91.888029034637	0.875
6625	85917	92.288332907446	0.625
6625	85923	92.290356316448	0.625
6625	86011	92.362205192001	0.5
6625	86022	92.373280466637	0.5
6625	86201	92.478910387814	0.875
6625	86832	92.878910387814	0.625
6625	87455	93.235307351171	0.625
6625	87951	93.636407351171	0.5
6625	88596	94.236407351171	0.375
6625	88686	94.31316083246	0.5
6625	88862	94.436637783438	0.875
6625	88874	94.44319048136	0.875
6625	88946	94.517296837033	0.875
6625	89220	94.722383427998	0.75
6625	89832	95.222383427998	0.375
6625	90400	95.623483427998	0.375
6625	90616	95.823483427998	0.875
6625	91294	96.428043365992	0.375
6625	91905	96.941413362842	0.5
6625	91974	96.986123803005	0.125
6625	92116	97.090893121065	0.875
6625	93053	97.890893121065	0.125
6625	93234	97.991760392621	1
6625	93971	98.650421389238	0
6625	93990	98.655360102575	0
6625	94143	98.756955286224	0.875
6625	94718	99.156955286224	0.625
6625	94978	99.362693328872	0.875
6625	95349	99.672683516047	0.75
6625	95615	99.888681150581	0.875
6625	96260	100.39052997126	0.375
6625	97032	101.094632638473	0.25
6625	97575	101.604348841203	0.5
6625	97625	101.641977921738	0.875
6625	97753	101.749346217311	0.875
6625	98699	102.494700857444	0.25
6625	99097	102.894700857444	0.5
6625	99577	103.302693615255	0.875
6625	99693	103.403793615255	0.875
6625	100484	104.108246228956	0.25
6625	101055	104.514351766293	0.5
6625	101975	105.31642647348	0.125
6625	102606	105.81986119579	0.25
6625	103169	106.31986119579	0.5
6625	103910	106.920691925989	0.375
6625	104230	107.225448773825	0.75
6625	104306	107.267969358313	0.75
6625	104593	107.531740157027	0.75
6625	104637	107.570723204183	0.75
6625	104879	107.777431153673	0.75
6625	105565	108.477431153673	0.25
6625	105989	108.88374634053	0.625
6625	106379	109.288374839126	0.625
6625	106614	109.493959880736	0.75
6625	106922	109.793959880736	0.75
6625	107282	110.092893993384	0.75
6625	107748	110.593993993384	0.375
6625	108587	111.493993993384	-0.125
6625	108802	111.702466562344	0.875
6625	108817	111.703566562344	1
6625	109417	112.303566562344	0.375
6625	109659	112.506556825047	0.875
6625	110684	113.29933436422	0.25
6625	110831	113.41236828228	0
6625	111322	113.817793733355	0.5
6625	111994	114.417793733355	0.125
6625	112343	114.718169226845	0.75
6625	113395	115.525064277604	0.125
6625	114946	116.722939178349	-0.75
6625	115415	117.131730381541	0.5
6625	116385	118.031730381541	0
6625	117631	119.032692704381	-0.25
6625	117820	119.18765537638	0
6625	118539	119.789199838684	0.25
6625	119090	120.204152337944	0.75
6625	119103	120.222463775255	0.75
6625	119252	120.331627076892	0.875
6625	120431	121.531627076892	-0.5
6625	120771	121.837452692771	0.75
6625	121116	122.140359401245	0.625
6625	121623	122.540359401245	0.625
6625	122646	123.45814002053	0
6625	122852	123.663468083114	0.875
6625	122993	123.765510875443	0.875
6625	123757	124.365510875443	0.375
6625	124456	124.965829822742	0.25
6625	125269	125.706484833598	0.125
6625	125364	125.77414312573	0.125
6625	126029	126.31215554138	0.375
6625	126299	126.482152782176	0.25
6625	126659	126.782885421051	0.75
6625	126676	126.812386337461	0.5
6625	126827	126.914166385824	0.875
6625	127183	127.214166385824	0.75
6625	127689	127.616268245237	0.625
6625	128484	128.217970357179	0.25
6625	129722	129.117970357179	-0.125
6625	129871	129.221683270829	0.875
6625	130401	129.678508932109	0.5
6625	130623	129.88716434719	0.875
6625	131174	130.293007683687	0.375
6625	131749	130.793007683687	0.5
6625	132008	130.994107683687	0.75
6625	132228	131.195453400392	0.875
6625	133850	132.525390075753	0.5
6625	134980	133.425390075753	-0.25
6625	135603	133.93312260512	0.5
6625	135865	134.137938671508	0.75
6625	136614	134.837938671508	0.25
6625	137249	135.343961124115	0.5
6625	137599	135.652585058247	0.75
6625	137635	135.704582536614	0.875
6626	141	20.101	0.1
6626	292	20.306697201881	0.2
6626	419	20.520800571859	0.2
6626	716	20.927316315859	0.4
6626	1382	21.633126500752	0.7
6626	1669	21.838592946113	0.2
6626	1674	21.838912210657	0.2
6626	2019	22.140012210657	0.3
6626	2334	22.440012210657	0.3
6626	2695	22.748988464337	0.3
6626	2923	22.953993470421	0.2
6626	3298	23.261765232583	0.3
6626	3613	23.538282702456	0.3
6626	3663	23.546627501716	0.7
6626	3808	23.652086170096	0.1
6626	4846	24.552086170096	0.9
6626	5271	24.953702164943	0.4
6626	5281	24.954842999217	0.4
6626	5497	25.157814469118	0.2
6626	5512	25.161702256112	0.2
6626	5801	25.468487382298	0.3
6626	5804	25.469244720897	0.3
6626	6438	26.070344720897	0.6
6626	6974	26.470344720897	0.4
6626	7996	27.371444720897	0.9
6626	8788	28.000126564776	0.3
6626	9320	28.403592227872	0.4
6626	9524	28.571444720897	1.2
6626	10758	29.577294481303	1
6626	11214	29.977294481303	0.4
6626	11577	30.317077384292	0.3
6626	11916	30.584701042035	0.6
6626	12058	30.720997093451	0.4
6626	12341	30.989410904135	0.4
6626	12670	31.225451763994	0.5
6626	13113	31.593808391381	0.6
6626	13166	31.631647188572	0.4
6626	13272	31.729377797985	0.8
6626	13796	32.131156761778	0.4
6626	14584	32.731156761778	0.6
6626	14841	32.932394399411	0.2
6626	15105	33.140915179925	0.2
6626	15322	33.344119009789	0.2
6626	15740	33.746944353475	0.4
6626	16581	34.446944353475	0.7
6626	16810	34.649407099745	0.2
6626	16939	34.759117327286	0.1
6626	17451	35.159117327286	0.4
6626	18801	36.563087567908	1.4
6626	18905	36.645842493242	1.4
6626	19693	37.280073181165	0.7
6626	20183	37.686370902568	0.4
6626	20955	38.286370902568	0.6
6626	21217	38.49088620354	0.2
6626	22471	39.590193928897	0.6
6626	22827	39.899730131668	0.3
6626	22927	40.000455533233	1.5
6626	24244	41.011052898791	1
6626	24950	41.611052898791	0.6
6626	25623	42.101952494975	0.5
6626	25841	42.224651316121	0.6
6626	26256	42.527210704099	0.3
6626	27057	43.127210704099	0.6
6626	28000	43.929019351055	0.8
6626	28418	44.246253340755	0.7
6626	28499	44.332588486576	0.4
6626	28759	44.533688486576	0.2
6626	29233	44.933688486576	0.4
6626	30583	45.97392563931	0.5
6626	31852	46.93923259916	0.3
6626	32114	47.1762792605	1.2
6626	32408	47.477831067041	0.1
6626	33973	48.777831067041	1.3
6626	34638	49.377972487184	0.6
6626	35087	49.79542256782	0.4
6626	35413	50.099386407385	0.3
6626	35418	50.101215730138	0.6
6626	36161	50.702315730138	0.6
6626	36437	50.902315730138	0.2
6626	37516	51.806296670748	0.9
6626	38136	52.324043556606	0.4
6626	38363	52.555108994952	1.4
6626	38437	52.614043552832	0.8
6626	38655	52.818771533944	0.2
6626	38905	53.018771533944	0.2
6626	39610	53.634546844189	0.6
6626	39745	53.749175027161	0.1
6626	39830	53.811183885017	0.1
6626	40021	53.966732780133	0.2
6626	40809	54.621683703131	0.8
6626	41193	54.922783703131	0.3
6626	41698	55.335978517005	0.4
6626	43026	56.742642079003	1.4
6626	44443	57.850584074274	1.1
6626	46293	59.450584074274	1.6
6626	47790	60.656397575707	1.2
6626	48605	61.357287327823	0.7
6626	48867	61.559943451717	0.2
6626	49083	61.761879162228	0.2
6626	49752	62.264706789506	0.5
6626	50097	62.564706789506	0.3
6626	50235	62.673007773477	0.3
6626	51700	63.88208199092	1.2
6626	52172	64.28208199092	0.4
6626	52679	64.703732791079	0.4
6626	52754	64.782810839303	0.5
6626	53324	65.292102063425	0.5
6626	54418	66.297852161527	1
6626	55066	66.798952161527	0.5
6626	55410	67.098952161527	0.3
6626	56406	67.963998312553	0.5
6626	56818	68.399977957456	0.6
6626	57005	68.534476981459	0.9
6626	57278	68.772053992196	0.8
6626	57387	68.861370236573	0.8
6626	57920	69.368863562092	0.5
6626	58550	69.968863562092	0.6
6626	58897	70.277204033029	0.3
6626	59303	70.578304033029	0.3
6626	60018	71.178304033029	0.6
6626	60151	71.283434939337	0.1
6626	60570	71.683434939337	0.4
6626	61025	72.086083880987	0.4
6626	61794	72.790755033863	0.7
6626	62451	73.298558406241	0.5
6626	62959	73.701717817241	0.4
6626	63205	73.904827835268	0.2
6626	63471	74.111781814902	0.2
6626	64964	75.311781814902	1.2
6626	65335	75.613695885751	0.3
6626	65666	75.922279528948	0.9
6626	65797	76.017930297178	0.4
6626	66443	76.525621593387	0.5
6626	67831	77.525621593387	1
6626	68268	77.834477172246	0.3
6626	68980	78.380683225371	0.6
6626	69302	78.643040376595	0.8
6626	69485	78.818379852999	0.9
6626	70761	79.821982055609	1
6626	71070	80.121982055609	0.3
6626	71701	80.725401806973	0.6
6626	72153	81.056602634695	0.3
6626	72704	81.464650349274	0.4
6626	73696	82.215069151527	0.5
6626	74036	82.520886226873	0.3
6626	74287	82.727718466118	0.2
6626	75306	83.528818466118	0.8
6626	76527	84.628818466118	1.1
6626	76843	84.930693700548	0.3
6626	77291	85.243483433937	0.4
6626	77546	85.43469099624	0.5
6626	78958	86.642465958935	1.2
6626	79278	86.942465958935	0.3
6626	79711	87.263792668529	0.3
6626	79808	87.348815373971	0.4
6626	80219	87.674860555866	0.2
6626	81084	88.374860555866	0.7
6626	81689	88.881109570768	0.5
6626	82154	89.289422941194	0.4
6626	82468	89.590279122009	0.3
6626	82579	89.690307605655	0.1
6626	82838	89.936682390008	0.3
6626	83783	90.637782390008	0.7
6626	84895	91.537782390008	0.9
6626	85346	91.857424103373	0.3
6626	85378	91.874302756522	0.2
6626	85408	91.888029034637	0.2
6626	85917	92.288332907446	0.4
6626	85923	92.290356316448	0.4
6626	86011	92.362205192001	0.5
6626	86022	92.373280466637	0.5
6626	86201	92.478910387814	0.1
6626	86832	92.878910387814	0.4
6626	87455	93.235307351171	0.4
6626	87951	93.636407351171	0.4
6626	88596	94.236407351171	0.6
6626	88686	94.31316083246	0.4
6626	88862	94.436637783438	0.2
6626	88874	94.44319048136	0.2
6626	88946	94.517296837033	0.2
6626	89220	94.722383427998	0.2
6626	89832	95.222383427998	0.5
6626	90400	95.623483427998	0.4
6626	90616	95.823483427998	0.2
6626	91294	96.428043365992	0.6
6626	91905	96.941413362842	0.5
6626	91974	96.986123803005	0.8
6626	92116	97.090893121065	0.1
6626	93053	97.890893121065	0.8
6626	93234	97.991760392621	0.1
6626	93971	98.650421389238	0.8
6626	93990	98.655360102575	0.9
6626	94143	98.756955286224	0.1
6626	94718	99.156955286224	0.4
6626	94978	99.362693328872	0.2
6626	95349	99.672683516047	0.3
6626	95615	99.888681150581	0.2
6626	96260	100.39052997126	0.5
6626	97032	101.094632638473	0.7
6626	97575	101.604348841203	0.5
6626	97625	101.641977921738	0.2
6626	97753	101.749346217311	0.1
6626	98699	102.494700857444	0.6
6626	99097	102.894700857444	0.4