file 897066 1369516804                                          
version 2
run Stability-norelink-90-20130525-23:20:00-22103
attr configname Stability-norelink
attr datetime 20130525-23:20:00
attr experiment Stability
attr inifile omnetpp.ini
attr iterationvars $0=1e-3
attr iterationvars2 "$0=1e-3, $repetition=0"
attr measurement $0=1e-3
attr network Network
attr processid 22103
attr repetition 0
attr replication #0
attr resultdir results
attr runnumber 90
attr seedset 90

vector 8664  Network.dyn_peer[8]  lookupHopsSig:vector  ETV
vector 8665  Network.dyn_peer[8]  lookupStabilitySig:vector  ETV
vector 8666  Network.dyn_peer[8]  lookupTimeSig:vector  ETV
vector 8679  Network.dyn_peer[13]  lookupHopsSig:vector  ETV
vector 8680  Network.dyn_peer[13]  lookupStabilitySig:vector  ETV
vector 8681  Network.dyn_peer[13]  lookupTimeSig:vector  ETV
vector 8724  Network.dyn_peer[28]  lookupHopsSig:vector  ETV
vector 8725  Network.dyn_peer[28]  lookupStabilitySig:vector  ETV
vector 8726  Network.dyn_peer[28]  lookupTimeSig:vector  ETV
vector 8649  Network.dyn_peer[3]  lookupHopsSig:vector  ETV
vector 8650  Network.dyn_peer[3]  lookupStabilitySig:vector  ETV
vector 8651  Network.dyn_peer[3]  lookupTimeSig:vector  ETV
vector 8652  Network.dyn_peer[4]  lookupHopsSig:vector  ETV
vector 8653  Network.dyn_peer[4]  lookupStabilitySig:vector  ETV
vector 8654  Network.dyn_peer[4]  lookupTimeSig:vector  ETV
vector 8673  Network.dyn_peer[11]  lookupHopsSig:vector  ETV
vector 8674  Network.dyn_peer[11]  lookupStabilitySig:vector  ETV
vector 8675  Network.dyn_peer[11]  lookupTimeSig:vector  ETV
vector 8676  Network.dyn_peer[12]  lookupHopsSig:vector  ETV
vector 8677  Network.dyn_peer[12]  lookupStabilitySig:vector  ETV
vector 8678  Network.dyn_peer[12]  lookupTimeSig:vector  ETV
vector 8682  Network.dyn_peer[14]  lookupHopsSig:vector  ETV
vector 8683  Network.dyn_peer[14]  lookupStabilitySig:vector  ETV
vector 8684  Network.dyn_peer[14]  lookupTimeSig:vector  ETV
vector 8685  Network.dyn_peer[15]  lookupHopsSig:vector  ETV
vector 8686  Network.dyn_peer[15]  lookupStabilitySig:vector  ETV
vector 8687  Network.dyn_peer[15]  lookupTimeSig:vector  ETV
vector 8694  Network.dyn_peer[18]  lookupHopsSig:vector  ETV
vector 8695  Network.dyn_peer[18]  lookupStabilitySig:vector  ETV
vector 8696  Network.dyn_peer[18]  lookupTimeSig:vector  ETV
vector 8697  Network.dyn_peer[19]  lookupHopsSig:vector  ETV
vector 8698  Network.dyn_peer[19]  lookupStabilitySig:vector  ETV
vector 8699  Network.dyn_peer[19]  lookupTimeSig:vector  ETV
vector 8706  Network.dyn_peer[22]  lookupHopsSig:vector  ETV
vector 8707  Network.dyn_peer[22]  lookupStabilitySig:vector  ETV
vector 8708  Network.dyn_peer[22]  lookupTimeSig:vector  ETV
vector 8715  Network.dyn_peer[25]  lookupHopsSig:vector  ETV
vector 8716  Network.dyn_peer[25]  lookupStabilitySig:vector  ETV
vector 8717  Network.dyn_peer[25]  lookupTimeSig:vector  ETV
vector 8640  Network.dyn_peer[0]  lookupHopsSig:vector  ETV
vector 8641  Network.dyn_peer[0]  lookupStabilitySig:vector  ETV
vector 8642  Network.dyn_peer[0]  lookupTimeSig:vector  ETV
vector 8655  Network.dyn_peer[5]  lookupHopsSig:vector  ETV
vector 8656  Network.dyn_peer[5]  lookupStabilitySig:vector  ETV
vector 8657  Network.dyn_peer[5]  lookupTimeSig:vector  ETV
vector 8661  Network.dyn_peer[7]  lookupHopsSig:vector  ETV
vector 8662  Network.dyn_peer[7]  lookupStabilitySig:vector  ETV
vector 8663  Network.dyn_peer[7]  lookupTimeSig:vector  ETV
vector 8691  Network.dyn_peer[17]  lookupHopsSig:vector  ETV
vector 8692  Network.dyn_peer[17]  lookupStabilitySig:vector  ETV
vector 8693  Network.dyn_peer[17]  lookupTimeSig:vector  ETV
vector 8700  Network.dyn_peer[20]  lookupHopsSig:vector  ETV
vector 8701  Network.dyn_peer[20]  lookupStabilitySig:vector  ETV
vector 8702  Network.dyn_peer[20]  lookupTimeSig:vector  ETV
vector 8730  Network.dyn_peer[30]  lookupHopsSig:vector  ETV
vector 8731  Network.dyn_peer[30]  lookupStabilitySig:vector  ETV
vector 8732  Network.dyn_peer[30]  lookupTimeSig:vector  ETV
vector 8643  Network.dyn_peer[1]  lookupHopsSig:vector  ETV
vector 8644  Network.dyn_peer[1]  lookupStabilitySig:vector  ETV
vector 8645  Network.dyn_peer[1]  lookupTimeSig:vector  ETV
vector 8658  Network.dyn_peer[6]  lookupHopsSig:vector  ETV
vector 8659  Network.dyn_peer[6]  lookupStabilitySig:vector  ETV
vector 8660  Network.dyn_peer[6]  lookupTimeSig:vector  ETV
vector 8670  Network.dyn_peer[10]  lookupHopsSig:vector  ETV
vector 8671  Network.dyn_peer[10]  lookupStabilitySig:vector  ETV
vector 8672  Network.dyn_peer[10]  lookupTimeSig:vector  ETV
vector 8688  Network.dyn_peer[16]  lookupHopsSig:vector  ETV
vector 8689  Network.dyn_peer[16]  lookupStabilitySig:vector  ETV
vector 8690  Network.dyn_peer[16]  lookupTimeSig:vector  ETV
vector 8712  Network.dyn_peer[24]  lookupHopsSig:vector  ETV
vector 8713  Network.dyn_peer[24]  lookupStabilitySig:vector  ETV
vector 8714  Network.dyn_peer[24]  lookupTimeSig:vector  ETV
vector 8718  Network.dyn_peer[26]  lookupHopsSig:vector  ETV
vector 8719  Network.dyn_peer[26]  lookupStabilitySig:vector  ETV
vector 8720  Network.dyn_peer[26]  lookupTimeSig:vector  ETV
vector 8667  Network.dyn_peer[9]  lookupHopsSig:vector  ETV
vector 8668  Network.dyn_peer[9]  lookupStabilitySig:vector  ETV
vector 8669  Network.dyn_peer[9]  lookupTimeSig:vector  ETV
vector 8703  Network.dyn_peer[21]  lookupHopsSig:vector  ETV
vector 8704  Network.dyn_peer[21]  lookupStabilitySig:vector  ETV
vector 8705  Network.dyn_peer[21]  lookupTimeSig:vector  ETV
vector 8709  Network.dyn_peer[23]  lookupHopsSig:vector  ETV
vector 8710  Network.dyn_peer[23]  lookupStabilitySig:vector  ETV
vector 8711  Network.dyn_peer[23]  lookupTimeSig:vector  ETV
vector 8727  Network.dyn_peer[29]  lookupHopsSig:vector  ETV
vector 8728  Network.dyn_peer[29]  lookupStabilitySig:vector  ETV
vector 8729  Network.dyn_peer[29]  lookupTimeSig:vector  ETV
vector 8721  Network.dyn_peer[27]  lookupHopsSig:vector  ETV
vector 8722  Network.dyn_peer[27]  lookupStabilitySig:vector  ETV
vector 8723  Network.dyn_peer[27]  lookupTimeSig:vector  ETV
vector 8646  Network.dyn_peer[2]  lookupHopsSig:vector  ETV
vector 8647  Network.dyn_peer[2]  lookupStabilitySig:vector  ETV
vector 8648  Network.dyn_peer[2]  lookupTimeSig:vector  ETV
vector 8733  Network.dyn_peer[31]  lookupHopsSig:vector  ETV
vector 8734  Network.dyn_peer[31]  lookupStabilitySig:vector  ETV
vector 8735  Network.dyn_peer[31]  lookupTimeSig:vector  ETV
8640	6399 8613 211 135039 20.200001 132.339997552607 293 0 17 1207 7597
8641	15012 9583 211 135039 20.200001 132.339997552607 293 -1.125 1 142.125 109.953125
8642	24595 9156 211 135039 20.200001 132.339997552607 293 0 1.5 135.4 83.88
8643	33751 8911 270 135052 20.300002 132.342807814927 304 0 20 1253 7819
8644	42662 9867 270 135052 20.300002 132.342807814927 304 -1.5 1 147.375 112.921875
8645	52529 9480 270 135052 20.300002 132.342807814927 304 0 1.7 140.8 86.64
8646	62009 9021 469 135618 20.600003 132.847711094807 308 0 21 1268 8212
8647	71030 10030 469 135618 20.600003 132.847711094807 308 -1.625 1 149.65277772397 119.2868441461
8648	81060 9611 469 135618 20.600003 132.847711094807 308 0 1.9 141.3 88.73
8649	90671 8761 141 135478 20.100004 132.740741728394 297 0 20 1301 8917
8650	99432 9729 141 135478 20.100004 132.740741728394 297 -1.5 1 134.41666665673 111.1319444312
8651	109161 9303 141 135478 20.100004 132.740741728394 297 0 1.9 144 95.62
8652	118464 9323 146 134314 20.100005 131.743128741481 318 0 18 1202 6896
8653	127787 10374 146 134314 20.100005 131.743128741481 318 -1.25 1 167.75 125.25
8654	138161 9927 146 134314 20.100005 131.743128741481 318 0 1.9 136.8 79.92
8655	148088 8688 220 135537 20.200006 132.780867917808 296 0 21 1253 8563
8656	156776 9685 220 135537 20.200006 132.780867917808 296 -1.625 1 139.41666665673 116.6006944312
8657	166461 9239 220 135537 20.200006 132.780867917808 296 0 2.1 138.8 91.8
8658	175700 8359 279 135770 20.300007 133.028331949216 285 0 19 1239 8171
8659	184059 9312 279 135770 20.300007 133.028331949216 285 -1.375 1 130.15277777612 102.96431326903
8660	193371 8895 279 135770 20.300007 133.028331949216 285 0 1.8 136.9 87.53
8661	202266 8686 226 134909 20.200008 132.236459396189 295 0 21 1233 8627
8662	210952 9714 226 134909 20.200008 132.236459396189 295 -1.625 1 141.0694444254 121.67997683309
8663	220666 9244 226 134909 20.200008 132.236459396189 295 0 1.7 137.2 90.5
8664	229910 8568 55 134697 20.000009 132.045693540146 292 0 17 1216 8018
8665	238478 9533 55 134697 20.000009 132.045693540146 292 -1.125 1 140.18055552244 113.36361880803
8666	248011 9115 55 134697 20.000009 132.045693540146 292 0 1.6 135.1 87.19
8667	257126 8391 343 134767 20.40001 132.120931365719 286 0 22 1284 8888
8668	265517 9299 343 134767 20.40001 132.120931365719 286 -1.75 1 125.5 103.875
8669	274816 8923 343 134767 20.40001 132.120931365719 286 0.1 2 140.8 93.08
8670	283739 8876 286 135813 20.300011 133.047711094807 303 0 16 1249 8161
8671	292615 9907 286 135813 20.300011 133.047711094807 303 -1 1 146.98611110449 118.40914350969
8672	302522 9424 286 135813 20.300011 133.047711094807 303 0 1.6 139.3 88.57
8673	311946 9137 156 135578 20.100012 132.835098094456 312 0 20 1201 7165
8674	321083 10146 156 135578 20.100012 132.835098094456 312 -1.5 1 161.875 123.703125
8675	331229 9720 156 135578 20.100012 132.835098094456 312 0 1.7 135.8 80.1
8676	340949 8323 161 134533 20.100013 131.925882415779 284 0 19 1159 7255
8677	349272 9258 161 134533 20.100013 131.925882415779 284 -1.375 1 139.125 107.609375
8678	358530 8853 161 134533 20.100013 131.925882415779 284 0 1.7 130.7 80.83
8679	367383 8425 74 135887 20.000014 133.147875171241 287 0 21 1228 7730
8680	375808 9392 74 135887 20.000014 133.147875171241 287 -1.625 1 133.66666664183 100.91126541039
8681	385200 8967 74 135887 20.000014 133.147875171241 287 0 1.9 136.6 85.48
8682	394167 9046 167 134827 20.100015 132.140641728394 307 0 18 1175 7395
8683	403213 10043 167 134827 20.100015 132.140641728394 307 -1.25 1 160.16666666418 128.86381172435
8684	413256 9624 167 134827 20.100015 132.140641728394 307 0 1.6 132.2 80.46
8685	422880 8726 172 135870 20.100016 133.142534787527 297 0 21 1237 7841
8686	431606 9684 172 135870 20.100016 133.142534787527 297 -1.625 1 142.45833331347 110.31423609787
8687	441290 9286 172 135870 20.100016 133.142534787527 297 0 1.8 139.1 86.83
8688	450576 8625 296 134731 20.300017 132.086130069007 294 0 24 1289 8889
8689	459201 9614 296 134731 20.300017 132.086130069007 294 -2 1 132.88888888806 110.66512345532
8690	468815 9178 296 134731 20.300017 132.086130069007 294 0 2 143.1 95.59
8691	477993 8470 238 134942 20.200018 132.249024592943 288 0 46 1189 9461
8692	486463 9434 238 134942 20.200018 132.249024592943 288 -4.75 1 139.44444441795 138.63503084065
8693	495897 9016 238 134942 20.200018 132.249024592943 288 0 4.1 134.2 97.68
8694	504913 8363 179 135367 20.100019 132.641596058474 285 0 19 1199 8071
8695	513276 9319 179 135367 20.100019 132.641596058474 285 -1.375 1 135.20833332837 111.46701388227
8696	522595 8894 179 135367 20.100019 132.641596058474 285 0 1.7 133.3 87.31
8697	531489 8984 184 135510 20.10002 132.750108389784 305 0 14 1266 7684
8698	540473 9959 184 135510 20.10002 132.750108389784 305 -0.75 1 146.75 108.5625
8699	550432 9555 184 135510 20.10002 132.750108389784 305 0 1.4 139.2 83.52
8700	559987 8837 245 133820 20.200021 131.32837191432 302 0 20 1271 8531
8701	568824 9853 245 133820 20.200021 131.32837191432 302 -1.5 1 143.31944444776 117.50945214136
8702	578677 9402 245 133820 20.200021 131.32837191432 302 0 2.1 143 95.6
8703	588079 9019 358 135184 20.400022 132.456183611182 307 0 17 1265 8047
8704	597098 10043 358 135184 20.400022 132.456183611182 307 -1.125 1 148.88888888806 116.50887345532
8705	607141 9591 358 135184 20.400022 132.456183611182 307 0 1.6 141.1 87.91
8706	616732 9006 191 135387 20.100023 132.647611094807 307 0 17 1152 6818
8707	625738 10017 191 135387 20.100023 132.647611094807 307 -1.125 1 163.1249999702 125.64679781228
8708	635755 9582 191 135387 20.100023 132.647611094807 307 0 1.8 130.7 77.53
8709	645337 8695 364 135326 20.400024 132.623705473203 296 0 23 1125 6909
8710	654032 9696 364 135326 20.400024 132.623705473203 296 -1.875 1 155.44444441795 122.76003084065
8711	663728 9255 364 135326 20.400024 132.623705473203 296 0 2 128.8 76.94
8712	672983 9173 309 135960 20.300025 133.288057398732 312 0 34 1205 8119
8713	682156 10224 309 135960 20.300025 133.288057398732 312 -3.25 1 161.47222220898 137.72183640283
8714	692380 9764 309 135960 20.300025 133.288057398732 312 0 3.1 137.9 88.95
8715	702144 9175 198 135671 20.100026 132.930302093107 313 0 22 1257 7769
8716	711319 10250 198 135671 20.100026 132.930302093107 313 -1.75 1 156.13888883591 120.34374995364
8717	721569 9771 198 135671 20.100026 132.930302093107 313 0 1.8 141.1 84.69
8718	731340 9103 315 136022 20.300027 134.051501837926 310 0 17 1330 9124
8719	740443 10111 315 136022 20.300027 134.051501837926 310 -1.125 1 143.80555555224 120.12114197163
8720	750554 9684 315 136022 20.300027 134.051501837926 310 0 1.7 147.2 97.8
8721	760238 8317 415 135711 20.500028 132.943364458607 283 0 17 1224 7848
8722	768555 9224 415 135711 20.500028 132.943364458607 283 -1.125 1 130.04166665673 99.678819431199
8723	777779 8852 415 135711 20.500028 132.943364458607 283 0 1.6 135.3 84.63
8724	786631 8789 123 134668 20.000029 132.036396436633 298 0 32 1265 8877
8725	795420 9774 123 134668 20.000029 132.036396436633 298 -3 1 139.875 120.453125
8726	805194 9347 123 134668 20.000029 132.036396436633 298 0 2.8 141 94.46
8727	814541 8376 374 134396 20.40003 131.827221691574 285 0 24 1206 8576
8728	822917 9302 374 134396 20.40003 131.827221691574 285 -2 1 134.25 117.5
8729	832219 8918 374 134396 20.40003 131.827221691574 285 0 2.2 132.7 88.43
8730	841137 8370 259 135182 20.200031 132.453394153095 285 0 13 1209 7467
8731	849507 9286 259 135182 20.200031 132.453394153095 285 -0.625 1 133.94444441795 99.47878084065
8732	858793 8900 259 135182 20.200031 132.453394153095 285 0 1.2 136.2 85.4
8733	867693 9254 495 134491 20.600032 131.917934736111 315 0 14 1248 7140
8734	876947 10263 495 134491 20.600032 131.917934736111 315 -0.75 1 159 114.5625
8735	887210 9856 495 134491 20.600032 131.917934736111 315 0 1.5 141.7 81.83
