file 927455 1369674155                                          
version 2
run Stability-norelink-112-20130525-23:21:30-22103
attr configname Stability-norelink
attr datetime 20130525-23:21:30
attr experiment Stability
attr inifile omnetpp.ini
attr iterationvars $0=1e-5
attr iterationvars2 "$0=1e-5, $repetition=2"
attr measurement $0=1e-5
attr network Network
attr processid 22103
attr repetition 2
attr replication #2
attr resultdir results
attr runnumber 112
attr seedset 112
vector 10782  Network.dyn_peer[10]  lookupHopsSig:vector  ETV
10782	289215 8818 60 138936 20.00000011 136.197697694743 289 0 17 1238 8638
vector 10783  Network.dyn_peer[10]  lookupStabilitySig:vector  ETV
10783	298033 9756 60 138936 20.00000011 136.197697694743 289 -1.125 1 134.48611104488 114.53105709361
vector 10784  Network.dyn_peer[10]  lookupTimeSig:vector  ETV
10784	307789 9359 60 138936 20.00000011 136.197697694743 289 0 1.6 136.6 90.22
vector 10800  Network.dyn_peer[16]  lookupHopsSig:vector  ETV
10800	464410 9035 82 138034 20.00000017 134.908686290954 296 0 20 1243 8633
vector 10801  Network.dyn_peer[16]  lookupStabilitySig:vector  ETV
10801	473445 9987 82 138034 20.00000017 134.908686290954 296 -1.5 1 140.66666665673 120.1944444312
vector 10802  Network.dyn_peer[16]  lookupTimeSig:vector  ETV
10802	483432 9576 82 138034 20.00000017 134.908686290954 296 0 1.8 139.7 92.27
vector 10752  Network.dyn_peer[0]  lookupHopsSig:vector  ETV
10752	6498 8446 134 138890 20.10000001 136.10479308023 277 0 21 1239 8959
vector 10753  Network.dyn_peer[0]  lookupStabilitySig:vector  ETV
10753	14944 9366 134 138890 20.10000001 136.10479308023 277 -1.625 1 122.25 107.21875
vector 10754  Network.dyn_peer[0]  lookupTimeSig:vector  ETV
10754	24310 8973 134 138890 20.10000001 136.10479308023 277 0 1.9 136.4 93.08
vector 10755  Network.dyn_peer[1]  lookupHopsSig:vector  ETV
10755	33283 8966 139 138949 20.10000002 136.216961848796 295 0 28 1296 9136
vector 10756  Network.dyn_peer[1]  lookupStabilitySig:vector  ETV
10756	42249 9932 139 138949 20.10000002 136.216961848796 295 -2.5 1 133.15277775377 113.86207559668
vector 10757  Network.dyn_peer[1]  lookupTimeSig:vector  ETV
10757	52181 9516 139 138949 20.10000002 136.216961848796 295 0.1 2.5 143.1 94.91
vector 10758  Network.dyn_peer[2]  lookupHopsSig:vector  ETV
10758	61697 9252 144 137378 20.10000003 134.348840686195 304 0 20 1227 7667
vector 10759  Network.dyn_peer[2]  lookupStabilitySig:vector  ETV
10759	70949 10287 144 137378 20.10000003 134.348840686195 304 -1.5 1 150.84722219408 117.23553238202
vector 10760  Network.dyn_peer[2]  lookupTimeSig:vector  ETV
10760	81236 9821 144 137378 20.10000003 134.348840686195 304 0 1.9 138.3 86.03
vector 10764  Network.dyn_peer[4]  lookupHopsSig:vector  ETV
10764	121132 9174 150 138580 20.10000005 135.589391125836 301 0 20 1229 8421
vector 10765  Network.dyn_peer[4]  lookupStabilitySig:vector  ETV
10765	130306 10149 150 138580 20.10000005 135.589391125836 301 -1.5 1 147.40277777612 125.37056326903
vector 10766  Network.dyn_peer[4]  lookupTimeSig:vector  ETV
10766	140455 9733 150 138580 20.10000005 135.589391125836 301 0 1.9 137.5 88.95
vector 10767  Network.dyn_peer[5]  lookupHopsSig:vector  ETV
10767	150188 8805 155 137833 20.10000006 134.706566661056 290 0 25 1254 8158
vector 10768  Network.dyn_peer[5]  lookupStabilitySig:vector  ETV
10768	158993 9785 155 137833 20.10000006 134.706566661056 290 -2.125 1 133.30555554479 104.04706788652
vector 10769  Network.dyn_peer[5]  lookupTimeSig:vector  ETV
10769	168778 9354 155 137833 20.10000006 134.706566661056 290 0 2 139 87
vector 10773  Network.dyn_peer[7]  lookupHopsSig:vector  ETV
10773	204315 8217 161 138828 20.10000008 135.991086230251 270 0 28 1321 10433
vector 10774  Network.dyn_peer[7]  lookupStabilitySig:vector  ETV
10774	212532 9126 161 138828 20.10000008 135.991086230251 270 -2.5 1 104.91666665673 102.8194444312
vector 10775  Network.dyn_peer[7]  lookupTimeSig:vector  ETV
10775	221658 8705 161 138828 20.10000008 135.991086230251 270 0 2.6 140.8 104.16
vector 10788  Network.dyn_peer[12]  lookupHopsSig:vector  ETV
10788	343357 10189 169 138482 20.10000013 135.410876741684 335 0 24 1339 9545
vector 10789  Network.dyn_peer[12]  lookupStabilitySig:vector  ETV
10789	353546 11327 169 138482 20.10000013 135.410876741684 335 -2 1 167.69444444031 149.47376542695
vector 10790  Network.dyn_peer[12]  lookupTimeSig:vector  ETV
10790	364873 10834 169 138482 20.10000013 135.410876741684 335 0.1 2.3 151.8 102.44
vector 10815  Network.dyn_peer[21]  lookupHopsSig:vector  ETV
10815	605828 8562 181 138710 20.10000022 135.792918515623 282 0 24 1257 8569
vector 10816  Network.dyn_peer[21]  lookupStabilitySig:vector  ETV
10816	614390 9518 181 138710 20.10000022 135.792918515623 282 -2 1 124.9999999702 101.74305552906
vector 10817  Network.dyn_peer[21]  lookupTimeSig:vector  ETV
10817	623908 9091 181 138710 20.10000022 135.792918515623 282 0 2.2 137.2 90.24
vector 10824  Network.dyn_peer[24]  lookupHopsSig:vector  ETV
10824	691459 9260 188 137925 20.10000025 134.792732166394 304 0 21 1324 8920
vector 10825  Network.dyn_peer[24]  lookupStabilitySig:vector  ETV
10825	700719 10243 188 137925 20.10000025 134.792732166394 304 -1.625 1 138.54166665673 112.4288194312
vector 10826  Network.dyn_peer[24]  lookupTimeSig:vector  ETV
10826	710962 9822 188 137925 20.10000025 134.792732166394 304 0 1.8 146.2 95.24
vector 10761  Network.dyn_peer[3]  lookupHopsSig:vector  ETV
10761	91057 9501 205 138205 20.20000004 135.093904054581 312 0 15 1320 8656
vector 10762  Network.dyn_peer[3]  lookupStabilitySig:vector  ETV
10762	100558 10502 205 138205 20.20000004 135.093904054581 312 -0.875 1 147 117.25
vector 10763  Network.dyn_peer[3]  lookupTimeSig:vector  ETV
10763	111060 10072 205 138205 20.20000004 135.093904054581 312 0 1.5 145.4 93.68
vector 10770  Network.dyn_peer[6]  lookupHopsSig:vector  ETV
10770	178132 8258 212 138748 20.20000007 135.84487050953 271 0 21 1239 9417
vector 10771  Network.dyn_peer[6]  lookupStabilitySig:vector  ETV
10771	186390 9176 212 138748 20.20000007 135.84487050953 271 -1.625 1 116.19444441795 108.44753084065
vector 10772  Network.dyn_peer[6]  lookupTimeSig:vector  ETV
10772	195566 8749 212 138748 20.20000007 135.84487050953 271 0 2 135.1 95.87
vector 10776  Network.dyn_peer[8]  lookupHopsSig:vector  ETV
10776	230363 8978 218 138841 20.20000009 135.997084215646 295 0 27 1257 8559
vector 10777  Network.dyn_peer[8]  lookupStabilitySig:vector  ETV
10777	239341 9955 218 138841 20.20000009 135.997084215646 295 -2 1 138.34722220153 112.97588731772
vector 10778  Network.dyn_peer[8]  lookupTimeSig:vector  ETV
10778	249296 9527 218 138841 20.20000009 135.997084215646 295 0 2.5 140.2 92.38
vector 10791  Network.dyn_peer[13]  lookupHopsSig:vector  ETV
10791	375707 9545 226 138039 20.20000014 134.909412311593 315 0 19 1306 8456
vector 10792  Network.dyn_peer[13]  lookupStabilitySig:vector  ETV
10792	385252 10604 226 138039 20.20000014 134.909412311593 315 -1.375 1 151.98611108214 120.733217565
vector 10793  Network.dyn_peer[13]  lookupTimeSig:vector  ETV
10793	395856 10137 226 138039 20.20000014 134.909412311593 315 0 1.4 146.9 91.39
vector 10794  Network.dyn_peer[14]  lookupHopsSig:vector  ETV
10794	405993 9283 231 138920 20.20000015 136.174501791866 305 0 25 1353 9997
vector 10795  Network.dyn_peer[14]  lookupStabilitySig:vector  ETV
10795	415276 10309 231 138920 20.20000015 136.174501791866 305 -2.125 1 135.95833331347 123.0607638624
vector 10796  Network.dyn_peer[14]  lookupTimeSig:vector  ETV
10796	425585 9850 231 138920 20.20000015 136.174501791866 305 0 2.2 150.4 106.66
vector 10797  Network.dyn_peer[15]  lookupHopsSig:vector  ETV
10797	435435 9132 236 138076 20.20000016 134.941911764643 300 0 28 1215 8053
vector 10798  Network.dyn_peer[15]  lookupStabilitySig:vector  ETV
10798	444567 10146 236 138076 20.20000016 134.941911764643 300 -2.5 1 148.20833331347 122.12673609787
vector 10799  Network.dyn_peer[15]  lookupTimeSig:vector  ETV
10799	454713 9697 236 138076 20.20000016 134.941911764643 300 0 2.3 135.5 85.73
vector 10803  Network.dyn_peer[17]  lookupHopsSig:vector  ETV
10803	493008 9037 241 138407 20.20000018 135.327338359849 297 0 23 1213 8417
vector 10804  Network.dyn_peer[17]  lookupStabilitySig:vector  ETV
10804	502045 10012 241 138407 20.20000018 135.327338359849 297 -1.875 1 145.375 125.265625
vector 10805  Network.dyn_peer[17]  lookupTimeSig:vector  ETV
10805	512057 9586 241 138407 20.20000018 135.327338359849 297 0 2 134.6 88.16
vector 10806  Network.dyn_peer[18]  lookupHopsSig:vector  ETV
10806	521643 8399 246 137717 20.20000019 134.604935618142 276 0 26 1242 8910
vector 10807  Network.dyn_peer[18]  lookupStabilitySig:vector  ETV
10807	530042 9270 246 137717 20.20000019 134.604935618142 276 -2.25 1 120.75 104.71875
vector 10808  Network.dyn_peer[18]  lookupTimeSig:vector  ETV
10808	539312 8923 246 137717 20.20000019 134.604935618142 276 0 2.5 135.3 91.55
vector 10809  Network.dyn_peer[19]  lookupHopsSig:vector  ETV
10809	548235 8937 251 138229 20.2000002 135.108905902327 293 0 17 1272 8348
vector 10810  Network.dyn_peer[19]  lookupStabilitySig:vector  ETV
10810	557172 9892 251 138229 20.2000002 135.108905902327 293 -1.125 1 134 105.4375
vector 10811  Network.dyn_peer[19]  lookupTimeSig:vector  ETV
10811	567064 9477 251 138229 20.2000002 135.108905902327 293 0 1.6 142.3 92.31
vector 10812  Network.dyn_peer[20]  lookupHopsSig:vector  ETV
10812	576541 9254 256 137822 20.20000021 134.698981531337 304 0 24 1284 9382
vector 10813  Network.dyn_peer[20]  lookupStabilitySig:vector  ETV
10813	585795 10225 256 137822 20.20000021 134.698981531337 304 -2 1 143.5 129.59375
vector 10814  Network.dyn_peer[20]  lookupTimeSig:vector  ETV
10814	596020 9808 256 137822 20.20000021 134.698981531337 304 0 1.9 143.8 100.02
vector 10833  Network.dyn_peer[27]  lookupHopsSig:vector  ETV
10833	778174 9584 267 138792 20.20000028 135.906209848664 315 0 16 1348 9076
vector 10834  Network.dyn_peer[27]  lookupStabilitySig:vector  ETV
10834	787758 10654 267 138792 20.20000028 135.906209848664 315 -1 1 146.58333330601 119.89390429597
vector 10835  Network.dyn_peer[27]  lookupTimeSig:vector  ETV
10835	798412 10162 267 138792 20.20000028 135.906209848664 315 0 1.6 146.9 93.49
vector 10842  Network.dyn_peer[30]  lookupHopsSig:vector  ETV
10842	868622 10172 274 138778 20.20000031 135.904029005707 334 0 15 1322 7768
vector 10843  Network.dyn_peer[30]  lookupStabilitySig:vector  ETV
10843	878794 11286 274 138778 20.20000031 135.904029005707 334 -0.875 1 168.76388888806 124.89949845532
vector 10844  Network.dyn_peer[30]  lookupTimeSig:vector  ETV
10844	890080 10805 274 138778 20.20000031 135.904029005707 334 0 1.4 150.5 88.79
vector 10845  Network.dyn_peer[31]  lookupHopsSig:vector  ETV
10845	900885 8380 279 138485 20.20000032 135.411133619841 274 0 20 1197 8159
vector 10846  Network.dyn_peer[31]  lookupStabilitySig:vector  ETV
10846	909265 9285 279 138485 20.20000032 135.411133619841 274 -1.5 1 124.44444444031 102.31751542695
vector 10847  Network.dyn_peer[31]  lookupTimeSig:vector  ETV
10847	918550 8905 279 138485 20.20000032 135.411133619841 274 0.1 1.7 132.2 86.38
vector 10779  Network.dyn_peer[9]  lookupHopsSig:vector  ETV
10779	258823 9576 306 137979 20.3000001 134.869009399815 315 0 21 1326 8852
vector 10780  Network.dyn_peer[9]  lookupStabilitySig:vector  ETV
10780	268399 10633 306 137979 20.3000001 134.869009399815 315 -1.625 1 149.29166665673 121.8663194312
vector 10781  Network.dyn_peer[9]  lookupTimeSig:vector  ETV
10781	279032 10183 306 137979 20.3000001 134.869009399815 315 0 1.8 148.1 95.51
vector 10818  Network.dyn_peer[22]  lookupHopsSig:vector  ETV
10818	632999 8752 320 138973 20.30000023 136.307888806863 288 0 24 1266 8486
vector 10819  Network.dyn_peer[22]  lookupStabilitySig:vector  ETV
10819	641751 9681 320 138973 20.30000023 136.307888806863 288 -2 1 129.88888886571 104.20100306949
vector 10820  Network.dyn_peer[22]  lookupTimeSig:vector  ETV
10820	651432 9286 320 138973 20.30000023 136.307888806863 288 0 2.3 141.9 94.61
vector 10821  Network.dyn_peer[23]  lookupHopsSig:vector  ETV
10821	660718 9694 325 138335 20.30000024 135.232846072308 318 0 26 1408 9496
vector 10822  Network.dyn_peer[23]  lookupStabilitySig:vector  ETV
10822	670412 10757 325 138335 20.30000024 135.232846072308 318 -2.25 1 142.13888886571 114.48225306949
vector 10823  Network.dyn_peer[23]  lookupTimeSig:vector  ETV
10823	681169 10290 325 138335 20.30000024 135.232846072308 318 0 2.5 154.7 101.83
vector 10827  Network.dyn_peer[25]  lookupHopsSig:vector  ETV
10827	720784 9149 332 138251 20.30000026 135.127031626158 301 0 17 1258 8822
vector 10828  Network.dyn_peer[25]  lookupStabilitySig:vector  ETV
10828	729933 10159 332 138251 20.30000026 135.127031626158 301 -1.125 1 143.84722220153 124.41685955318
vector 10829  Network.dyn_peer[25]  lookupTimeSig:vector  ETV
10829	740092 9697 332 138251 20.30000026 135.127031626158 301 0 1.5 139.2 92.04
vector 10830  Network.dyn_peer[26]  lookupHopsSig:vector  ETV
10830	749789 8943 337 138863 20.30000027 136.034779528068 293 0 18 1231 8405
vector 10831  Network.dyn_peer[26]  lookupStabilitySig:vector  ETV
10831	758732 9951 337 138863 20.30000027 136.034779528068 293 -1.25 1 139.38888882101 116.68287036264
vector 10832  Network.dyn_peer[26]  lookupTimeSig:vector  ETV
10832	768683 9491 337 138863 20.30000027 136.034779528068 293 0 1.6 137.5 90.07
vector 10836  Network.dyn_peer[28]  lookupHopsSig:vector  ETV
10836	808574 9420 343 138093 20.30000029 134.96851547201 309 0 14 1245 7687
vector 10837  Network.dyn_peer[28]  lookupStabilitySig:vector  ETV
10837	817994 10437 343 138093 20.30000029 134.96851547201 309 -0.75 1 153.375 117.859375
vector 10838  Network.dyn_peer[28]  lookupTimeSig:vector  ETV
10838	828431 9999 343 138093 20.30000029 134.96851547201 309 0 1.4 141.1 86.79
vector 10839  Network.dyn_peer[29]  lookupHopsSig:vector  ETV
10839	838430 9518 391 138988 20.4000003 136.36174194455 312 0 20 1339 9513
vector 10840  Network.dyn_peer[29]  lookupStabilitySig:vector  ETV
10840	847948 10585 391 138988 20.4000003 136.36174194455 312 -1.5 1 144.83333329856 126.09413576972
vector 10841  Network.dyn_peer[29]  lookupTimeSig:vector  ETV
10841	858533 10089 391 138988 20.4000003 136.36174194455 312 0 1.7 149.1 100.85
vector 10785  Network.dyn_peer[11]  lookupHopsSig:vector  ETV
10785	317148 8259 516 138347 20.70000012 135.247559408297 271 1 19 1241 8327
vector 10786  Network.dyn_peer[11]  lookupStabilitySig:vector  ETV
10786	325407 9186 516 138347 20.70000012 135.247559408297 271 -1.375 0.875 115.875 90.859375
vector 10787  Network.dyn_peer[11]  lookupTimeSig:vector  ETV
10787	334593 8764 516 138347 20.70000012 135.247559408297 271 0.1 1.6 136.3 88.55
