file 918999 1369674156                                          
version 2
run Stability-norelink-137-20130525-23:23:11-22103
attr configname Stability-norelink
attr datetime 20130525-23:23:11
attr experiment Stability
attr inifile omnetpp.ini
attr iterationvars $0=1e-7
attr iterationvars2 "$0=1e-7, $repetition=7"
attr measurement $0=1e-7
attr network Network
attr processid 22103
attr repetition 7
attr replication #7
attr resultdir results
attr runnumber 137
attr seedset 137
vector 13173  Network.dyn_peer[7]  lookupHopsSig:vector  ETV
13173	202481 9799 50 140356 20.0000000008 136.16713760201 322 0 20 1301 8927
vector 13174  Network.dyn_peer[7]  lookupStabilitySig:vector  ETV
13174	212280 10893 50 140356 20.0000000008 136.16713760201 322 -1.5 1 159.48611110449 136.37789350969
vector 13175  Network.dyn_peer[7]  lookupTimeSig:vector  ETV
13175	223173 10397 50 140356 20.0000000008 136.16713760201 322 0 1.9 147.4 97.1
vector 13200  Network.dyn_peer[16]  lookupHopsSig:vector  ETV
13200	461772 8903 81 140435 20.0000000017 136.260049307121 292 0 22 1316 9794
vector 13201  Network.dyn_peer[16]  lookupStabilitySig:vector  ETV
13201	470675 9870 81 140435 20.0000000017 136.260049307121 292 -1.75 1 127.51388888806 116.05574845532
vector 13202  Network.dyn_peer[16]  lookupTimeSig:vector  ETV
13202	480545 9426 81 140435 20.0000000017 136.260049307121 292 0 2.1 145.7 104.37
vector 13203  Network.dyn_peer[17]  lookupHopsSig:vector  ETV
13203	489971 9027 88 140151 20.0000000018 135.950578170332 296 0 15 1242 7422
vector 13204  Network.dyn_peer[17]  lookupStabilitySig:vector  ETV
13204	498998 9979 88 140151 20.0000000018 135.950578170332 296 -0.875 1 140.79166665673 101.5225694312
vector 13205  Network.dyn_peer[17]  lookupTimeSig:vector  ETV
13205	508977 9579 88 140151 20.0000000018 135.950578170332 296 0 1.5 140.7 85.95
vector 13206  Network.dyn_peer[18]  lookupHopsSig:vector  ETV
13206	518556 9332 95 139135 20.0000000019 134.960387174419 307 0 17 1310 8976
vector 13207  Network.dyn_peer[18]  lookupStabilitySig:vector  ETV
13207	527888 10298 95 139135 20.0000000019 134.960387174419 307 -1.125 1 143.25 119.75
vector 13208  Network.dyn_peer[18]  lookupTimeSig:vector  ETV
13208	538186 9888 95 139135 20.0000000019 134.960387174419 307 0 1.5 146.5 96.35
vector 13236  Network.dyn_peer[28]  lookupHopsSig:vector  ETV
13236	803344 8702 129 139591 20.0000000029 135.372148062204 286 0 18 1198 7532
vector 13237  Network.dyn_peer[28]  lookupStabilitySig:vector  ETV
13237	812046 9627 129 139591 20.0000000029 135.372148062204 286 -1.25 1 136.38888888061 104.24228394657
vector 13238  Network.dyn_peer[28]  lookupTimeSig:vector  ETV
13238	821673 9239 129 139591 20.0000000029 135.372148062204 286 0 1.7 134.8 84.96
vector 13152  Network.dyn_peer[0]  lookupHopsSig:vector  ETV
13152	6498 8645 143 139758 20.1000000001 135.542291126915 284 0 24 1243 8703
vector 13153  Network.dyn_peer[0]  lookupStabilitySig:vector  ETV
13153	15143 9520 143 139758 20.1000000001 135.542291126915 284 -2 1 128.625 109.234375
vector 13154  Network.dyn_peer[0]  lookupTimeSig:vector  ETV
13154	24663 9152 143 139758 20.1000000001 135.542291126915 284 0 2.2 137.7 95.09
vector 13155  Network.dyn_peer[1]  lookupHopsSig:vector  ETV
13155	33815 9033 148 140218 20.1000000002 135.977124400499 297 1 22 1297 8729
vector 13156  Network.dyn_peer[1]  lookupStabilitySig:vector  ETV
13156	42848 10021 148 140218 20.1000000002 135.977124400499 297 -1.75 0.875 135.04166665673 109.1788194312
vector 13157  Network.dyn_peer[1]  lookupTimeSig:vector  ETV
13157	52869 9592 148 140218 20.1000000002 135.977124400499 297 0.1 2 143.6 93.92
vector 13170  Network.dyn_peer[6]  lookupHopsSig:vector  ETV
13170	173913 9007 157 140494 20.1000000007 136.359440838517 296 0 20 1273 8505
vector 13171  Network.dyn_peer[6]  lookupStabilitySig:vector  ETV
13171	182920 9998 157 140494 20.1000000007 136.359440838517 296 -1.5 1 136.90277777612 110.68306326903
vector 13172  Network.dyn_peer[6]  lookupTimeSig:vector  ETV
13172	192918 9563 157 140494 20.1000000007 136.359440838517 296 0 1.7 140.9 91.83
vector 13185  Network.dyn_peer[11]  lookupHopsSig:vector  ETV
13185	318738 8553 166 140164 20.1000000012 135.953434968736 280 0 22 1252 9128
vector 13186  Network.dyn_peer[11]  lookupStabilitySig:vector  ETV
13186	327291 9477 166 140164 20.1000000012 135.953434968736 280 -1.75 1 123.5 109.625
vector 13187  Network.dyn_peer[11]  lookupTimeSig:vector  ETV
13187	336768 9068 166 140164 20.1000000012 135.953434968736 280 0 2 138.9 97.05
vector 13209  Network.dyn_peer[19]  lookupHopsSig:vector  ETV
13209	548074 8950 178 140051 20.100000002 135.829934623933 294 0 21 1215 8019
vector 13210  Network.dyn_peer[19]  lookupStabilitySig:vector  ETV
13210	557024 9912 178 140051 20.100000002 135.829934623933 294 -1.625 1 142.13888888806 115.57137345532
vector 13211  Network.dyn_peer[19]  lookupTimeSig:vector  ETV
13211	566936 9494 178 140051 20.100000002 135.829934623933 294 0 1.7 136.7 86.77
vector 13158  Network.dyn_peer[2]  lookupHopsSig:vector  ETV
13158	62461 8705 197 140138 20.2000000003 135.945564959535 286 1 23 1266 8870
vector 13159  Network.dyn_peer[2]  lookupStabilitySig:vector  ETV
13159	71166 9655 197 140138 20.2000000003 135.945564959535 286 -1.875 0.88888888806105 127.76388888806 108.11824845532
vector 13160  Network.dyn_peer[2]  lookupTimeSig:vector  ETV
13160	80821 9247 197 140138 20.2000000003 135.945564959535 286 0.1 2.1 139.9 94.35
vector 13161  Network.dyn_peer[3]  lookupHopsSig:vector  ETV
13161	90068 8511 202 140472 20.2000000004 136.299849361539 279 0 24 1314 9808
vector 13162  Network.dyn_peer[3]  lookupStabilitySig:vector  ETV
13162	98579 9402 202 140472 20.2000000004 136.299849361539 279 -2 1 114.77777777612 103.79243826903
vector 13163  Network.dyn_peer[3]  lookupTimeSig:vector  ETV
13163	107981 9026 202 140472 20.2000000004 136.299849361539 279 0 2.3 143.9 103.31
vector 13167  Network.dyn_peer[5]  lookupHopsSig:vector  ETV
13167	146334 8695 208 139657 20.2000000006 135.447092902522 285 0 21 1170 8420
vector 13168  Network.dyn_peer[5]  lookupStabilitySig:vector  ETV
13168	155029 9648 208 139657 20.2000000006 135.447092902522 285 -1.625 1 138.79166666418 124.12943672435
vector 13169  Network.dyn_peer[5]  lookupTimeSig:vector  ETV
13169	164677 9236 208 139657 20.2000000006 135.447092902522 285 0 1.8 130.6 87.08
vector 13182  Network.dyn_peer[10]  lookupHopsSig:vector  ETV
13182	289658 9165 217 139818 20.2000000011 135.571087347644 300 0 17 1287 8689
vector 13183  Network.dyn_peer[10]  lookupStabilitySig:vector  ETV
13183	298823 10199 217 139818 20.2000000011 135.571087347644 300 -1.125 1 139.20833332092 114.13638115555
vector 13184  Network.dyn_peer[10]  lookupTimeSig:vector  ETV
13184	309022 9716 217 139818 20.2000000011 135.571087347644 300 0 1.7 142.6 93.62
vector 13188  Network.dyn_peer[12]  lookupHopsSig:vector  ETV
13188	345836 9216 223 139326 20.2000000013 135.126337471384 302 0 20 1346 9720
vector 13189  Network.dyn_peer[12]  lookupStabilitySig:vector  ETV
13189	355052 10228 223 139326 20.2000000013 135.126337471384 302 -1.5 1 133.80555554479 117.45331788652
vector 13190  Network.dyn_peer[12]  lookupTimeSig:vector  ETV
13190	365280 9785 223 139326 20.2000000013 135.126337471384 302 0 2 149.5 103.55
vector 13191  Network.dyn_peer[13]  lookupHopsSig:vector  ETV
13191	375065 9137 228 139304 20.2000000014 135.087399605697 300 0 28 1326 9488
vector 13192  Network.dyn_peer[13]  lookupStabilitySig:vector  ETV
13192	384202 10132 228 139304 20.2000000014 135.087399605697 300 -2.5 1 134.33333330601 116.83140429597
vector 13193  Network.dyn_peer[13]  lookupTimeSig:vector  ETV
13193	394334 9684 228 139304 20.2000000014 135.087399605697 300 0 2.5 146.5 102.01
vector 13197  Network.dyn_peer[15]  lookupHopsSig:vector  ETV
13197	433761 8840 234 139393 20.2000000016 135.165419724702 290 0 23 1383 10189
vector 13198  Network.dyn_peer[15]  lookupStabilitySig:vector  ETV
13198	442601 9802 234 139393 20.2000000016 135.165419724702 290 -1.875 1 117.29166662693 103.60937496026
vector 13199  Network.dyn_peer[15]  lookupTimeSig:vector  ETV
13199	452403 9369 234 139393 20.2000000016 135.165419724702 290 0 2.1 150.8 107.34
vector 13212  Network.dyn_peer[20]  lookupHopsSig:vector  ETV
13212	576430 9123 243 138830 20.2000000021 134.66652002789 300 0 22 1325 9087
vector 13213  Network.dyn_peer[20]  lookupStabilitySig:vector  ETV
13213	585553 10109 243 138830 20.2000000021 134.66652002789 300 -1.75 1 134.40277777612 110.78337191064
vector 13214  Network.dyn_peer[20]  lookupTimeSig:vector  ETV
13214	595662 9688 243 138830 20.2000000021 134.66652002789 300 0 1.9 146.5 96.69
vector 13215  Network.dyn_peer[21]  lookupHopsSig:vector  ETV
13215	605350 9007 248 140085 20.2000000022 135.862079437454 295 0 18 1239 8089
vector 13216  Network.dyn_peer[21]  lookupStabilitySig:vector  ETV
13216	614357 10011 248 140085 20.2000000022 135.862079437454 295 -1.25 1 140.22222220898 111.75308640283
vector 13217  Network.dyn_peer[21]  lookupTimeSig:vector  ETV
13217	624368 9556 248 140085 20.2000000022 135.862079437454 295 0 1.7 137.9 87.39
vector 13218  Network.dyn_peer[22]  lookupHopsSig:vector  ETV
13218	633924 8459 253 138717 20.2000000023 134.564422632434 277 0 19 1296 9472
vector 13219  Network.dyn_peer[22]  lookupStabilitySig:vector  ETV
13219	642383 9370 253 138717 20.2000000023 134.564422632434 277 -1.375 1 115 101
vector 13220  Network.dyn_peer[22]  lookupTimeSig:vector  ETV
13220	651753 8966 253 138717 20.2000000023 134.564422632434 277 0 1.7 139.9 96.37
vector 13224  Network.dyn_peer[24]  lookupHopsSig:vector  ETV
13224	688763 9223 259 140422 20.2000000025 136.254162346593 303 0 19 1323 8983
vector 13225  Network.dyn_peer[24]  lookupStabilitySig:vector  ETV
13225	697986 10267 259 140422 20.2000000025 136.254162346593 303 -1.375 1 137.86111105978 112.79629625104
vector 13226  Network.dyn_peer[24]  lookupTimeSig:vector  ETV
13226	708253 9771 259 140422 20.2000000025 136.254162346593 303 0 1.9 147.6 96.3
vector 13227  Network.dyn_peer[25]  lookupHopsSig:vector  ETV
13227	718024 9393 264 140381 20.2000000026 136.175576979837 307 0 20 1234 7556
vector 13228  Network.dyn_peer[25]  lookupStabilitySig:vector  ETV
13228	727417 10427 264 140381 20.2000000026 136.175576979837 307 -1.5 1 152.94444440305 116.69560181984
vector 13229  Network.dyn_peer[25]  lookupTimeSig:vector  ETV
13229	737844 9981 264 140381 20.2000000026 136.175576979837 307 0 1.8 138.9 82.75
vector 13233  Network.dyn_peer[27]  lookupHopsSig:vector  ETV
13233	775962 8632 270 139987 20.2000000028 135.758455152167 283 0 18 1217 8407
vector 13234  Network.dyn_peer[27]  lookupStabilitySig:vector  ETV
13234	784594 9587 270 139987 20.2000000028 135.758455152167 283 -1.25 1 130.97222220153 110.24151231772
vector 13235  Network.dyn_peer[27]  lookupTimeSig:vector  ETV
13235	794181 9163 270 139987 20.2000000028 135.758455152167 283 0 1.7 135.7 91.45
vector 13242  Network.dyn_peer[30]  lookupHopsSig:vector  ETV
13242	858765 9388 277 139622 20.2000000031 135.394389973578 309 0 19 1319 9071
vector 13243  Network.dyn_peer[30]  lookupStabilitySig:vector  ETV
13243	868153 10386 277 139622 20.2000000031 135.394389973578 309 -1.375 1 144.2499999851 121.06057097919
vector 13244  Network.dyn_peer[30]  lookupTimeSig:vector  ETV
13244	878539 9965 277 139622 20.2000000031 135.394389973578 309 0 1.8 147.5 98.37
vector 13179  Network.dyn_peer[9]  lookupHopsSig:vector  ETV
13179	261990 8741 298 139055 20.300000001 134.873424218454 287 0 17 1348 9322
vector 13180  Network.dyn_peer[9]  lookupStabilitySig:vector  ETV
13180	270731 9664 298 139055 20.300000001 134.873424218454 287 -1.125 1 118.56944441795 95.71315584065
vector 13181  Network.dyn_peer[9]  lookupTimeSig:vector  ETV
13181	280395 9263 298 139055 20.300000001 134.873424218454 287 0 1.5 144.6 95.06
vector 13194  Network.dyn_peer[14]  lookupHopsSig:vector  ETV
13194	404018 9385 307 139698 20.3000000015 135.46662002789 308 0 19 1329 8495
vector 13195  Network.dyn_peer[14]  lookupStabilitySig:vector  ETV
13195	413403 10396 307 139698 20.3000000015 135.46662002789 308 -1.375 1 141.875 108.484375
vector 13196  Network.dyn_peer[14]  lookupTimeSig:vector  ETV
13196	423799 9962 307 139698 20.3000000015 135.46662002789 308 0 1.6 147.7 92.25
vector 13221  Network.dyn_peer[23]  lookupHopsSig:vector  ETV
13221	660719 8852 321 139879 20.3000000024 135.645464959535 290 0 22 1280 8584
vector 13222  Network.dyn_peer[23]  lookupStabilitySig:vector  ETV
13222	669571 9806 321 139879 20.3000000024 135.645464959535 290 -1.75 1 130.01388888806 104.14949845532
vector 13223  Network.dyn_peer[23]  lookupTimeSig:vector  ETV
13223	679377 9386 321 139879 20.3000000024 135.645464959535 290 0 2 141.6 91.62
vector 13230  Network.dyn_peer[26]  lookupHopsSig:vector  ETV
13230	747825 8882 328 139717 20.3000000027 135.474190213707 292 0 28 1315 10285
vector 13231  Network.dyn_peer[26]  lookupStabilitySig:vector  ETV
13231	756707 9830 328 139717 20.3000000027 135.474190213707 292 -2.5 1 127.625 123.953125
vector 13232  Network.dyn_peer[26]  lookupTimeSig:vector  ETV
13232	766537 9425 328 139717 20.3000000027 135.474190213707 292 0 2.2 144.1 102.09
vector 13239  Network.dyn_peer[29]  lookupHopsSig:vector  ETV
13239	830912 8768 335 139978 20.300000003 135.751436036552 289 0 21 1178 7810
vector 13240  Network.dyn_peer[29]  lookupStabilitySig:vector  ETV
13240	839680 9774 335 139978 20.300000003 135.751436036552 289 -1.625 1 141.95833329856 116.74787805294
vector 13241  Network.dyn_peer[29]  lookupTimeSig:vector  ETV
13241	849454 9311 335 139978 20.300000003 135.751436036552 289 0 2.1 132.8 86.44
vector 13245  Network.dyn_peer[31]  lookupHopsSig:vector  ETV
13245	888504 9612 341 139533 20.3000000032 135.335839856952 316 0 22 1297 8073
vector 13246  Network.dyn_peer[31]  lookupStabilitySig:vector  ETV
13246	898116 10666 341 139533 20.3000000032 135.335839856952 316 -1.75 1 153.98611108959 118.04070213143
vector 13247  Network.dyn_peer[31]  lookupTimeSig:vector  ETV
13247	908782 10217 341 139533 20.3000000032 135.335839856952 316 0 2 145 87.66
vector 13176  Network.dyn_peer[8]  lookupHopsSig:vector  ETV
13176	233570 8969 364 139280 20.4000000009 135.070987347644 294 0 18 1255 8375
vector 13177  Network.dyn_peer[8]  lookupStabilitySig:vector  ETV
13177	242539 9946 364 139280 20.4000000009 135.070987347644 294 -1.25 1 137.26388888061 111.26909721229
vector 13178  Network.dyn_peer[8]  lookupTimeSig:vector  ETV
13178	252485 9505 364 139280 20.4000000009 135.070987347644 294 0 1.8 138.4 89.74
vector 13164  Network.dyn_peer[4]  lookupHopsSig:vector  ETV
13164	117007 9251 417 140542 20.5000000005 136.500462997438 303 0 20 1348 9318
vector 13165  Network.dyn_peer[4]  lookupStabilitySig:vector  ETV
13165	126258 10271 417 140542 20.5000000005 136.500462997438 303 -1.5 1 134.6249999851 111.66994597919
vector 13166  Network.dyn_peer[4]  lookupTimeSig:vector  ETV
13166	136529 9805 417 140542 20.5000000005 136.500462997438 303 0 1.8 148.4 98.56
