file 938273 1369674155                                          
version 2
run Stability-norelink-119-20130525-23:21:59-22103
attr configname Stability-norelink
attr datetime 20130525-23:21:59
attr experiment Stability
attr inifile omnetpp.ini
attr iterationvars $0=1e-5
attr iterationvars2 "$0=1e-5, $repetition=9"
attr measurement $0=1e-5
attr network Network
attr processid 22103
attr repetition 9
attr replication #9
attr resultdir results
attr runnumber 119
attr seedset 119
vector 11433  Network.dyn_peer[3]  lookupHopsSig:vector  ETV
11433	94402 9118 37 138238 20.00000004 134.753804678809 300 0 18 1165 7173
vector 11434  Network.dyn_peer[3]  lookupStabilitySig:vector  ETV
11434	103520 10111 37 138238 20.00000004 134.753804678809 300 -1.25 1 154.375 120.828125
vector 11435  Network.dyn_peer[3]  lookupTimeSig:vector  ETV
11435	113631 9692 37 138238 20.00000004 134.753804678809 300 0 1.7 132.3 79.69
vector 11442  Network.dyn_peer[6]  lookupHopsSig:vector  ETV
11442	176991 9769 50 137679 20.00000007 134.329913407834 321 0 21 1352 8936
vector 11443  Network.dyn_peer[6]  lookupStabilitySig:vector  ETV
11443	186760 10832 50 137679 20.00000007 134.329913407834 321 -1.625 1 152.11111110449 122.63734567754
vector 11444  Network.dyn_peer[6]  lookupTimeSig:vector  ETV
11444	197592 10375 50 137679 20.00000007 134.329913407834 321 0 2.1 151.7 99.25
vector 11517  Network.dyn_peer[31]  lookupHopsSig:vector  ETV
11517	908568 9370 129 137564 20.00000032 134.239763560473 308 0 15 1275 8115
vector 11518  Network.dyn_peer[31]  lookupStabilitySig:vector  ETV
11518	917938 10391 129 137564 20.00000032 134.239763560473 308 -0.875 1 148.69444441795 116.10378084065
vector 11519  Network.dyn_peer[31]  lookupTimeSig:vector  ETV
11519	928329 9944 129 137564 20.00000032 134.239763560473 308 0 1.5 144.1 90.71
vector 11424  Network.dyn_peer[0]  lookupHopsSig:vector  ETV
11424	6498 8553 135 137874 20.10000001 134.459638847372 281 0 24 1224 8800
vector 11425  Network.dyn_peer[0]  lookupStabilitySig:vector  ETV
11425	15051 9523 135 137874 20.10000001 134.459638847372 281 -2 1 128.19444440305 112.71180551251
vector 11426  Network.dyn_peer[0]  lookupTimeSig:vector  ETV
11426	24574 9066 135 137874 20.10000001 134.459638847372 281 0 2.1 135 92.04
vector 11427  Network.dyn_peer[1]  lookupHopsSig:vector  ETV
11427	33640 10061 140 138448 20.10000002 134.951215456961 331 0 17 1306 8042
vector 11428  Network.dyn_peer[1]  lookupStabilitySig:vector  ETV
11428	43701 11157 140 138448 20.10000002 134.951215456961 331 -1.125 1 167.75 130.15625
vector 11429  Network.dyn_peer[1]  lookupTimeSig:vector  ETV
11429	54858 10682 140 138448 20.10000002 134.951215456961 331 0 1.7 148.4 91.14
vector 11445  Network.dyn_peer[7]  lookupHopsSig:vector  ETV
11445	207967 9703 149 137917 20.10000008 134.490893069295 319 0 22 1311 8793
vector 11446  Network.dyn_peer[7]  lookupStabilitySig:vector  ETV
11446	217670 10741 149 137917 20.10000008 134.490893069295 319 -1.75 1 155.18055555224 128.69926697163
vector 11447  Network.dyn_peer[7]  lookupTimeSig:vector  ETV
11447	228411 10306 149 137917 20.10000008 134.490893069295 319 0 1.9 147.2 95.16
vector 11448  Network.dyn_peer[8]  lookupHopsSig:vector  ETV
11448	238717 8530 154 138395 20.10000009 134.890398402968 280 1 19 1280 8748
vector 11449  Network.dyn_peer[8]  lookupStabilitySig:vector  ETV
11449	247247 9471 154 138395 20.10000009 134.890398402968 280 -1.375 0.875 120.09722220898 96.721257710163
vector 11450  Network.dyn_peer[8]  lookupTimeSig:vector  ETV
11450	256718 9064 154 138395 20.10000009 134.890398402968 280 0.1 1.8 141 93.16
vector 11451  Network.dyn_peer[9]  lookupHopsSig:vector  ETV
11451	265782 9154 159 138623 20.1000001 135.140617248914 301 0 19 1243 8045
vector 11452  Network.dyn_peer[9]  lookupStabilitySig:vector  ETV
11452	274936 10149 159 138623 20.1000001 135.140617248914 301 -1.375 1 145.66666665673 116.0069444312
vector 11453  Network.dyn_peer[9]  lookupTimeSig:vector  ETV
11453	285085 9718 159 138623 20.1000001 135.140617248914 301 0 1.9 137.7 86.47
vector 11460  Network.dyn_peer[12]  lookupHopsSig:vector  ETV
11460	351023 9014 166 138455 20.10000013 134.958500075156 296 0 26 1313 9863
vector 11461  Network.dyn_peer[12]  lookupStabilitySig:vector  ETV
11461	360037 9979 166 138455 20.10000013 134.958500075156 296 -2.25 1 132.02777776122 121.95177468179
vector 11462  Network.dyn_peer[12]  lookupTimeSig:vector  ETV
11462	370016 9559 166 138455 20.10000013 134.958500075156 296 0 2.3 144.7 104.49
vector 11463  Network.dyn_peer[13]  lookupHopsSig:vector  ETV
11463	379575 9510 171 138585 20.10000014 135.096620883382 312 0 17 1234 7342
vector 11464  Network.dyn_peer[13]  lookupStabilitySig:vector  ETV
11464	389085 10558 171 138585 20.10000014 135.096620883382 312 -1.125 1 157.86111108214 118.342592565
vector 11465  Network.dyn_peer[13]  lookupTimeSig:vector  ETV
11465	399643 10106 171 138585 20.10000014 135.096620883382 312 0 1.7 139.9 83.43
vector 11466  Network.dyn_peer[14]  lookupHopsSig:vector  ETV
11466	409749 9510 176 138046 20.10000015 134.590893069295 312 0 20 1292 8344
vector 11467  Network.dyn_peer[14]  lookupStabilitySig:vector  ETV
11467	419259 10552 176 138046 20.10000015 134.590893069295 312 -1.5 1 150.58333331347 119.42361109787
vector 11468  Network.dyn_peer[14]  lookupTimeSig:vector  ETV
11468	429811 10090 176 138046 20.10000015 134.590893069295 312 0 1.7 144.6 89.76
vector 11472  Network.dyn_peer[16]  lookupHopsSig:vector  ETV
11472	470250 10115 182 138868 20.10000017 135.553373507715 333 0 17 1336 7922
vector 11473  Network.dyn_peer[16]  lookupStabilitySig:vector  ETV
11473	480365 11178 182 138868 20.10000017 135.553373507715 333 -1.125 1 166 122.78125
vector 11474  Network.dyn_peer[16]  lookupTimeSig:vector  ETV
11474	491543 10755 182 138868 20.10000017 135.553373507715 333 0 1.6 152.4 90.82
vector 11484  Network.dyn_peer[20]  lookupHopsSig:vector  ETV
11484	589520 8625 190 137674 20.10000021 134.328207785176 284 1 15 1265 8359
vector 11485  Network.dyn_peer[20]  lookupStabilitySig:vector  ETV
11485	598145 9601 190 137674 20.10000021 134.328207785176 284 -0.875 0.875 125.9999999702 98.474922812279
vector 11486  Network.dyn_peer[20]  lookupTimeSig:vector  ETV
11486	607746 9165 190 137674 20.10000021 134.328207785176 284 0.1 1.4 139.4 90.34
vector 11490  Network.dyn_peer[22]  lookupHopsSig:vector  ETV
11490	648093 10271 196 138922 20.10000023 135.700259759445 337 0 19 1406 8790
vector 11491  Network.dyn_peer[22]  lookupStabilitySig:vector  ETV
11491	658364 11411 196 138922 20.10000023 135.700259759445 337 -1.375 1 161.43055554479 122.93923610449
vector 11492  Network.dyn_peer[22]  lookupTimeSig:vector  ETV
11492	669775 10900 196 138922 20.10000023 135.700259759445 337 0 1.7 156.9 96.21
vector 11493  Network.dyn_peer[23]  lookupHopsSig:vector  ETV
11493	680675 8878 201 138603 20.10000024 135.134934737673 292 0 24 1242 8366
vector 11494  Network.dyn_peer[23]  lookupStabilitySig:vector  ETV
11494	689553 9844 201 138603 20.10000024 135.134934737673 292 -2 1 136.75 112.21875
vector 11495  Network.dyn_peer[23]  lookupTimeSig:vector  ETV
11495	699397 9424 201 138603 20.10000024 135.134934737673 292 0 2.3 139.7 92.51
vector 11496  Network.dyn_peer[24]  lookupHopsSig:vector  ETV
11496	708821 9453 206 138695 20.10000025 135.196620883382 313 0 14 1181 6811
vector 11497  Network.dyn_peer[24]  lookupStabilitySig:vector  ETV
11497	718274 10526 206 138695 20.10000025 135.196620883382 313 -0.75 1 165.54166664183 124.32156633852
vector 11498  Network.dyn_peer[24]  lookupTimeSig:vector  ETV
11498	728800 10050 206 138695 20.10000025 135.196620883382 313 0 1.4 134.3 77.51
vector 11436  Network.dyn_peer[4]  lookupHopsSig:vector  ETV
11436	123323 8401 223 137454 20.20000005 134.162061439211 276 0 27 1294 10058
vector 11437  Network.dyn_peer[4]  lookupStabilitySig:vector  ETV
11437	131724 9322 223 137454 20.20000005 134.162061439211 276 -2.375 1 114.25 109.65625
vector 11438  Network.dyn_peer[4]  lookupTimeSig:vector  ETV
11438	141046 8912 223 137454 20.20000005 134.162061439211 276 0 2.7 141.6 105.46
vector 11454  Network.dyn_peer[10]  lookupHopsSig:vector  ETV
11454	294803 8513 232 138378 20.20000011 134.877455201431 280 0 19 1250 8528
vector 11455  Network.dyn_peer[10]  lookupStabilitySig:vector  ETV
11455	303316 9451 232 138378 20.20000011 134.877455201431 280 -1.375 1 123.80555555224 100.80864197163
vector 11456  Network.dyn_peer[10]  lookupTimeSig:vector  ETV
11456	312767 9041 232 138378 20.20000011 134.877455201431 280 0 1.9 140.3 95.35
vector 11457  Network.dyn_peer[11]  lookupHopsSig:vector  ETV
11457	321808 9225 237 138187 20.20000012 134.734512973005 304 0 17 1235 8157
vector 11458  Network.dyn_peer[11]  lookupStabilitySig:vector  ETV
11458	331033 10189 237 138187 20.20000012 134.734512973005 304 -1.125 1 149.625 122.703125
vector 11459  Network.dyn_peer[11]  lookupTimeSig:vector  ETV
11459	341222 9801 237 138187 20.20000012 134.734512973005 304 0 1.5 139.1 88.13
vector 11475  Network.dyn_peer[17]  lookupHopsSig:vector  ETV
11475	502298 8959 247 138844 20.20000018 135.482843993945 294 0 25 1251 8527
vector 11476  Network.dyn_peer[17]  lookupStabilitySig:vector  ETV
11476	511257 9944 247 138844 20.20000018 135.482843993945 294 -2.125 1 137.66666665673 114.5381944312
vector 11477  Network.dyn_peer[17]  lookupTimeSig:vector  ETV
11477	521201 9511 247 138844 20.20000018 135.482843993945 294 0 2.1 138.6 89.6
vector 11478  Network.dyn_peer[18]  lookupHopsSig:vector  ETV
11478	530712 9087 252 138003 20.20000019 134.562161439211 298 0 19 1282 8350
vector 11479  Network.dyn_peer[18]  lookupStabilitySig:vector  ETV
11479	539799 10036 252 138003 20.20000019 134.562161439211 298 -1.375 1 137.90277779102 107.87750771016
vector 11480  Network.dyn_peer[18]  lookupTimeSig:vector  ETV
11480	549835 9638 252 138003 20.20000019 134.562161439211 298 0 1.8 142.3 91.41
vector 11505  Network.dyn_peer[27]  lookupHopsSig:vector  ETV
11505	797163 8596 265 138936 20.20000028 135.756530427469 283 0 18 1227 8549
vector 11506  Network.dyn_peer[27]  lookupStabilitySig:vector  ETV
11506	805759 9523 265 138936 20.20000028 135.756530427469 283 -1.25 1 129.625 109.828125
vector 11507  Network.dyn_peer[27]  lookupTimeSig:vector  ETV
11507	815282 9125 265 138936 20.20000028 135.756530427469 283 0 1.7 136.4 91.68
vector 11481  Network.dyn_peer[19]  lookupHopsSig:vector  ETV
11481	559473 9482 295 137410 20.3000002 134.143821644455 311 0 17 1247 7487
vector 11482  Network.dyn_peer[19]  lookupStabilitySig:vector  ETV
11482	568955 10496 295 137410 20.3000002 134.143821644455 311 -1.125 1 155.125 116.234375
vector 11483  Network.dyn_peer[19]  lookupTimeSig:vector  ETV
11483	579451 10069 295 137410 20.3000002 134.143821644455 311 0 1.7 139.8 82.66
vector 11502  Network.dyn_peer[26]  lookupHopsSig:vector  ETV
11502	770324 8464 307 138963 20.30000027 135.901484437567 279 0 17 1185 7521
vector 11503  Network.dyn_peer[26]  lookupStabilitySig:vector  ETV
11503	778788 9396 307 138963 20.30000027 135.901484437567 279 -1.125 1 130.95833331347 100.31423609787
vector 11504  Network.dyn_peer[26]  lookupTimeSig:vector  ETV
11504	788184 8979 307 138963 20.30000027 135.901484437567 279 0 1.5 132.3 82.23
vector 11511  Network.dyn_peer[29]  lookupHopsSig:vector  ETV
11511	852564 8775 314 138275 20.3000003 134.784747055808 288 0 19 1281 8915
vector 11512  Network.dyn_peer[29]  lookupStabilitySig:vector  ETV
11512	861339 9751 314 138275 20.3000003 134.784747055808 288 -1.375 1 127.90277777612 107.08931326903
vector 11513  Network.dyn_peer[29]  lookupTimeSig:vector  ETV
11513	871090 9302 314 138275 20.3000003 134.784747055808 288 0 1.7 140.6 93.34
vector 11430  Network.dyn_peer[2]  lookupHopsSig:vector  ETV
11430	65540 9112 333 137541 20.40000003 134.232322538011 300 0 20 1332 8836
vector 11431  Network.dyn_peer[2]  lookupStabilitySig:vector  ETV
11431	74652 10079 333 137541 20.40000003 134.232322538011 300 -1.5 1 133.61111110449 105.07484567754
vector 11432  Network.dyn_peer[2]  lookupTimeSig:vector  ETV
11432	84731 9671 333 137541 20.40000003 134.232322538011 300 0 1.9 149.2 98.74
vector 11499  Network.dyn_peer[25]  lookupHopsSig:vector  ETV
11499	738850 9927 361 137768 20.40000026 134.377355201431 326 0 15 1325 8225
vector 11500  Network.dyn_peer[25]  lookupStabilitySig:vector  ETV
11500	748777 10999 361 137768 20.40000026 134.377355201431 326 -0.875 1 160.6249999702 123.39178239195
vector 11501  Network.dyn_peer[25]  lookupTimeSig:vector  ETV
11501	759776 10548 361 137768 20.40000026 134.377355201431 326 0 1.5 148.2 88.64
vector 11508  Network.dyn_peer[28]  lookupHopsSig:vector  ETV
11508	824407 8874 368 138791 20.40000029 135.340817248914 292 0 19 1280 8754
vector 11509  Network.dyn_peer[28]  lookupStabilitySig:vector  ETV
11509	833281 9861 368 138791 20.40000029 135.340817248914 292 -1.375 1 132.08333331347 108.82986109787
vector 11510  Network.dyn_peer[28]  lookupTimeSig:vector  ETV
11510	843142 9422 368 138791 20.40000029 135.340817248914 292 0 1.6 141.6 92.04
vector 11514  Network.dyn_peer[30]  lookupHopsSig:vector  ETV
11514	880392 8882 374 138103 20.40000031 134.647970868202 292 0 22 1220 7796
vector 11515  Network.dyn_peer[30]  lookupStabilitySig:vector  ETV
11515	889274 9862 374 138103 20.40000031 134.647970868202 292 -1.75 1 139.56944443285 108.90875770023
vector 11516  Network.dyn_peer[30]  lookupTimeSig:vector  ETV
11516	899136 9432 374 138103 20.40000031 134.647970868202 292 0.1 2 136.2 84.92
vector 11439  Network.dyn_peer[5]  lookupHopsSig:vector  ETV
11439	149958 8519 398 137501 20.50000006 134.18942695314 280 0 20 1241 8195
vector 11440  Network.dyn_peer[5]  lookupStabilitySig:vector  ETV
11440	158477 9465 398 137501 20.50000006 134.18942695314 280 -1.5 1 124.9999999851 97.951774671858
vector 11441  Network.dyn_peer[5]  lookupTimeSig:vector  ETV
11441	167942 9049 398 137501 20.50000006 134.18942695314 280 0 1.9 137.5 88.85
vector 11487  Network.dyn_peer[21]  lookupHopsSig:vector  ETV
11487	616911 9840 456 138320 20.60000022 134.83497934025 323 0 18 1258 7672
vector 11488  Network.dyn_peer[21]  lookupStabilitySig:vector  ETV
11488	626751 10891 456 138320 20.60000022 134.83497934025 323 -1.25 1 165.79166665673 128.4288194312
vector 11489  Network.dyn_peer[21]  lookupTimeSig:vector  ETV
11489	637642 10451 456 138320 20.60000022 134.83497934025 323 0 1.7 142.1 84.95
vector 11469  Network.dyn_peer[15]  lookupHopsSig:vector  ETV
11469	439901 9571 526 138888 20.70000016 135.596720883382 315 0 20 1329 9019
vector 11470  Network.dyn_peer[15]  lookupStabilitySig:vector  ETV
11470	449472 10619 526 138888 20.70000016 135.596720883382 315 -1.5 1 148.91666665673 123.7256944312
vector 11471  Network.dyn_peer[15]  lookupTimeSig:vector  ETV
11471	460091 10159 526 138888 20.70000016 135.596720883382 315 0 1.9 148.6 98.86
