version 2
run Stability-norelink-144-20130525-23:23:39-22103
attr configname Stability-norelink
attr datetime 20130525-23:23:39
attr experiment Stability
attr inifile omnetpp.ini
attr iterationvars $0=1e-8
attr iterationvars2 "$0=1e-8, $repetition=4"
attr measurement $0=1e-8
attr network Network
attr processid 22103
attr repetition 4
attr replication #4
attr resultdir results
attr runnumber 144
attr seedset 144

vector 13824  Network.dyn_peer[0]  lookupHopsSig:vector  ETV
vector 13825  Network.dyn_peer[0]  lookupStabilitySig:vector  ETV
vector 13826  Network.dyn_peer[0]  lookupTimeSig:vector  ETV
vector 13857  Network.dyn_peer[11]  lookupHopsSig:vector  ETV
vector 13858  Network.dyn_peer[11]  lookupStabilitySig:vector  ETV
vector 13859  Network.dyn_peer[11]  lookupTimeSig:vector  ETV
vector 13881  Network.dyn_peer[19]  lookupHopsSig:vector  ETV
vector 13882  Network.dyn_peer[19]  lookupStabilitySig:vector  ETV
vector 13883  Network.dyn_peer[19]  lookupTimeSig:vector  ETV
vector 13887  Network.dyn_peer[21]  lookupHopsSig:vector  ETV
vector 13888  Network.dyn_peer[21]  lookupStabilitySig:vector  ETV
vector 13889  Network.dyn_peer[21]  lookupTimeSig:vector  ETV
vector 13890  Network.dyn_peer[22]  lookupHopsSig:vector  ETV
vector 13891  Network.dyn_peer[22]  lookupStabilitySig:vector  ETV
vector 13892  Network.dyn_peer[22]  lookupTimeSig:vector  ETV
vector 13827  Network.dyn_peer[1]  lookupHopsSig:vector  ETV
vector 13828  Network.dyn_peer[1]  lookupStabilitySig:vector  ETV
vector 13829  Network.dyn_peer[1]  lookupTimeSig:vector  ETV
vector 13830  Network.dyn_peer[2]  lookupHopsSig:vector  ETV
vector 13831  Network.dyn_peer[2]  lookupStabilitySig:vector  ETV
vector 13832  Network.dyn_peer[2]  lookupTimeSig:vector  ETV
vector 13833  Network.dyn_peer[3]  lookupHopsSig:vector  ETV
vector 13834  Network.dyn_peer[3]  lookupStabilitySig:vector  ETV
vector 13835  Network.dyn_peer[3]  lookupTimeSig:vector  ETV
vector 13845  Network.dyn_peer[7]  lookupHopsSig:vector  ETV
vector 13846  Network.dyn_peer[7]  lookupStabilitySig:vector  ETV
vector 13847  Network.dyn_peer[7]  lookupTimeSig:vector  ETV
vector 13848  Network.dyn_peer[8]  lookupHopsSig:vector  ETV
vector 13849  Network.dyn_peer[8]  lookupStabilitySig:vector  ETV
vector 13850  Network.dyn_peer[8]  lookupTimeSig:vector  ETV
vector 13863  Network.dyn_peer[13]  lookupHopsSig:vector  ETV
vector 13864  Network.dyn_peer[13]  lookupStabilitySig:vector  ETV
vector 13865  Network.dyn_peer[13]  lookupTimeSig:vector  ETV
vector 13872  Network.dyn_peer[16]  lookupHopsSig:vector  ETV
vector 13873  Network.dyn_peer[16]  lookupStabilitySig:vector  ETV
vector 13874  Network.dyn_peer[16]  lookupTimeSig:vector  ETV
vector 13884  Network.dyn_peer[20]  lookupHopsSig:vector  ETV
vector 13885  Network.dyn_peer[20]  lookupStabilitySig:vector  ETV
vector 13886  Network.dyn_peer[20]  lookupTimeSig:vector  ETV
vector 13899  Network.dyn_peer[25]  lookupHopsSig:vector  ETV
vector 13900  Network.dyn_peer[25]  lookupStabilitySig:vector  ETV
vector 13901  Network.dyn_peer[25]  lookupTimeSig:vector  ETV
vector 13905  Network.dyn_peer[27]  lookupHopsSig:vector  ETV
vector 13906  Network.dyn_peer[27]  lookupStabilitySig:vector  ETV
vector 13907  Network.dyn_peer[27]  lookupTimeSig:vector  ETV
vector 13836  Network.dyn_peer[4]  lookupHopsSig:vector  ETV
vector 13837  Network.dyn_peer[4]  lookupStabilitySig:vector  ETV
vector 13838  Network.dyn_peer[4]  lookupTimeSig:vector  ETV
vector 13842  Network.dyn_peer[6]  lookupHopsSig:vector  ETV
vector 13843  Network.dyn_peer[6]  lookupStabilitySig:vector  ETV
vector 13844  Network.dyn_peer[6]  lookupTimeSig:vector  ETV
vector 13854  Network.dyn_peer[10]  lookupHopsSig:vector  ETV
vector 13855  Network.dyn_peer[10]  lookupStabilitySig:vector  ETV
vector 13856  Network.dyn_peer[10]  lookupTimeSig:vector  ETV
vector 13875  Network.dyn_peer[17]  lookupHopsSig:vector  ETV
vector 13876  Network.dyn_peer[17]  lookupStabilitySig:vector  ETV
vector 13877  Network.dyn_peer[17]  lookupTimeSig:vector  ETV
vector 13878  Network.dyn_peer[18]  lookupHopsSig:vector  ETV
vector 13879  Network.dyn_peer[18]  lookupStabilitySig:vector  ETV
vector 13880  Network.dyn_peer[18]  lookupTimeSig:vector  ETV
vector 13893  Network.dyn_peer[23]  lookupHopsSig:vector  ETV
vector 13894  Network.dyn_peer[23]  lookupStabilitySig:vector  ETV
vector 13895  Network.dyn_peer[23]  lookupTimeSig:vector  ETV
vector 13908  Network.dyn_peer[28]  lookupHopsSig:vector  ETV
vector 13909  Network.dyn_peer[28]  lookupStabilitySig:vector  ETV
vector 13910  Network.dyn_peer[28]  lookupTimeSig:vector  ETV
vector 13911  Network.dyn_peer[29]  lookupHopsSig:vector  ETV
vector 13912  Network.dyn_peer[29]  lookupStabilitySig:vector  ETV
vector 13913  Network.dyn_peer[29]  lookupTimeSig:vector  ETV
vector 13914  Network.dyn_peer[30]  lookupHopsSig:vector  ETV
vector 13915  Network.dyn_peer[30]  lookupStabilitySig:vector  ETV
vector 13916  Network.dyn_peer[30]  lookupTimeSig:vector  ETV
vector 13917  Network.dyn_peer[31]  lookupHopsSig:vector  ETV
vector 13918  Network.dyn_peer[31]  lookupStabilitySig:vector  ETV
vector 13919  Network.dyn_peer[31]  lookupTimeSig:vector  ETV
vector 13851  Network.dyn_peer[9]  lookupHopsSig:vector  ETV
vector 13852  Network.dyn_peer[9]  lookupStabilitySig:vector  ETV
vector 13853  Network.dyn_peer[9]  lookupTimeSig:vector  ETV
vector 13860  Network.dyn_peer[12]  lookupHopsSig:vector  ETV
vector 13861  Network.dyn_peer[12]  lookupStabilitySig:vector  ETV
vector 13862  Network.dyn_peer[12]  lookupTimeSig:vector  ETV
vector 13866  Network.dyn_peer[14]  lookupHopsSig:vector  ETV
vector 13867  Network.dyn_peer[14]  lookupStabilitySig:vector  ETV
vector 13868  Network.dyn_peer[14]  lookupTimeSig:vector  ETV
vector 13896  Network.dyn_peer[24]  lookupHopsSig:vector  ETV
vector 13897  Network.dyn_peer[24]  lookupStabilitySig:vector  ETV
vector 13898  Network.dyn_peer[24]  lookupTimeSig:vector  ETV
vector 13839  Network.dyn_peer[5]  lookupHopsSig:vector  ETV
vector 13840  Network.dyn_peer[5]  lookupStabilitySig:vector  ETV
vector 13841  Network.dyn_peer[5]  lookupTimeSig:vector  ETV
vector 13902  Network.dyn_peer[26]  lookupHopsSig:vector  ETV
vector 13903  Network.dyn_peer[26]  lookupStabilitySig:vector  ETV
vector 13904  Network.dyn_peer[26]  lookupTimeSig:vector  ETV
vector 13869  Network.dyn_peer[15]  lookupHopsSig:vector  ETV
vector 13870  Network.dyn_peer[15]  lookupStabilitySig:vector  ETV
vector 13871  Network.dyn_peer[15]  lookupTimeSig:vector  ETV
13824	29	20.00000000001	0
13824	296	20.30000000001	2
13824	436	20.500769334308	1
13824	878	21.106424301772	5
13824	1153	21.407536166688	3
13824	1489	21.707536166688	2
13824	2499	22.5200259644	7
13824	3009	23.024614180719	4
13824	3071	23.114212791983	7
13824	3088	23.114735454366	0
13824	3428	23.414735454366	2
13824	3756	23.625746128387	1
13824	3766	23.628606928275	1
13824	3983	23.832088329161	1
13824	4786	24.532188329171	7
13824	4933	24.632188329171	1
13824	5207	24.935546945045	2
13824	5322	25.038165112795	1
13824	5497	25.240386676744	1
13824	6450	25.964412211858	4
13824	6611	26.068779428674	1
13824	6702	26.150200469278	10
13824	7139	26.453147754025	3
13824	7902	27.053147754025	5
13824	8391	27.467132811732	3
13824	8634	27.667244677901	1
13824	8879	27.867344677911	2
13824	9259	28.167344677911	2
13824	10428	29.067444677921	9
13824	11382	29.867444677921	7
13824	11821	30.275517554071	3
13824	12386	30.779427122031	7
13824	12690	30.988014711397	1
13824	12701	30.993050679239	7
13824	12879	31.101340027967	7
13824	13132	31.294209699202	3
13824	13687	31.700077663236	5
13824	14185	32.100077663236	3
13824	14703	32.505295911833	3
13824	14865	32.621970960913	3
13824	15312	33.013703914502	4
13824	15333	33.014516724863	0
13824	15620	33.214516724863	1
13824	15782	33.319127560774	1
13824	16640	33.928003951117	7
13824	17624	34.828003951117	8
13824	17982	35.132372463686	2
13824	18403	35.432472463696	3
13824	19286	36.032472463696	6
13824	19541	36.2343456967	1
13824	20019	36.64219829378	3
13824	20120	36.72664692234	3
13824	20784	37.330452785366	5
13824	20945	37.444358158773	7
13824	20953	37.444812391851	5
13824	21425	37.831720517598	4
13824	21495	37.878130734092	4
13824	21972	38.179830716387	3
13824	22501	38.579830716387	3
13824	22593	38.682484483705	2
13824	22837	38.898273446315	1
13824	23049	39.097055409181	4
13824	23299	39.305713022702	3
13824	23470	39.43928075785	5
13824	23722	39.629554796404	5
13824	23829	39.701231315362	5
13824	23912	39.769760790451	3
13824	23947	39.81666805021	5
13824	24178	40.020457204466	2
13824	24959	40.620457204466	6
13824	25871	41.505620333651	6
13824	26351	42.027107694637	14
13824	26504	42.127207694647	1
13824	26811	42.427207694647	2
13824	27654	43.131228566232	7
13824	27952	43.43919302906	2
13824	28104	43.555928485365	0
13824	28196	43.623603680433	7
13824	28424	43.827980007449	2
13824	29181	44.527980007449	8
13824	30265	45.437741792051	8
13824	31127	46.151604416714	7
13824	31461	46.412664719203	8
13824	31614	46.520911398612	1
13824	32709	47.520911398612	11
13824	32950	47.72576544303	3
13824	33188	47.928444911963	4
13824	33653	48.327257772498	6
13824	33844	48.493208382284	3
13824	33904	48.552557968303	8
13824	34266	48.826974053421	3
13824	34282	48.835524453755	8
13824	34484	48.997247837319	4
13824	34674	49.110081314543	1
13824	34713	49.13565471265	3
13824	34715	49.136081972703	3
13824	35184	49.437820611408	3
13824	36275	50.237820611408	7
13824	36774	50.638023173877	3
13824	37150	50.943413197014	2
13824	37290	51.059367092619	3
13824	37636	51.355879847678	4
13824	37911	51.56778470101	4
13824	38089	51.738861178121	5
13824	39227	52.647950847597	10
13824	40362	53.647950847597	9
13824	40436	53.720663427261	5
13824	40593	53.853508145239	1
13824	40866	54.061125115491	1
13824	40925	54.129521110771	3
13824	41135	54.267184095819	1
13824	41190	54.339206643247	2
13824	41672	54.739645078914	4
13824	42145	55.139645078914	4
13824	42578	55.446153418061	2
13824	43098	55.888197072	6
13824	43786	56.396860367132	4
13824	43798	56.44965346209	9
13824	44023	56.585056667626	9
13824	44053	56.604222570618	1
13824	44291	56.77891026434	3
13824	44486	56.885346700851	2
13824	44534	56.916731328555	2
13824	45850	58.025827773016	11
13824	46392	58.525827773016	5
13824	47018	59.032599374603	4
13824	47275	59.235675238901	1
13824	48353	60.186261081136	5
13824	48415	60.24217640875	9
13824	48433	60.248913454482	0
13824	48969	60.758907880623	4
13824	49175	60.968579354684	1
13824	49436	61.170914012004	1
13824	49473	61.206138404316	1
13824	49980	61.610381483256	6
13824	50839	62.310381483256	6
13824	51206	62.613434162987	3
13824	51488	62.825732860851	4
13824	52098	63.316055611043	6
13824	52519	63.644287978424	8
13824	52754	63.822912734227	4
13824	52797	63.852914072956	2
13824	53205	64.156865051406	3
13824	53248	64.167668809671	2
13824	53436	64.27592392296	1
13824	53905	64.67592392296	3
13824	54391	65.07602392297	6
13824	54792	65.47602392297	3
13824	55064	65.678291081804	1
13824	55788	66.180297873273	4
13824	56262	66.553026325756	3
13824	56309	66.580358047065	3
13824	56574	66.788421879977	1
13824	57471	67.496320892394	8
13824	57776	67.796320892394	2
13824	58111	68.104021622057	2
13824	58707	68.619551690732	4
13824	58940	68.804671502341	6
13824	59107	68.921595314437	2
13824	59651	69.422679698675	5
13824	60197	70.022679698675	5
13824	60476	70.231682518155	1
13824	61129	70.845006819326	5
13824	61385	71.060970577902	1
13824	61668	71.289870242437	5
13824	62028	71.4972890616	2
13824	62598	71.8972890616	3
13824	62844	72.113090468213	1
13824	63505	72.613190468223	5
13824	64019	73.118734457901	4
13824	64519	73.527660110316	4
13824	65605	74.380659851328	6
13824	65764	74.535992632711	13
13824	65779	74.547307529072	13
13824	65914	74.64816708999	1
13824	66289	74.94816708999	2
13824	66966	75.454527653041	4
13824	66986	75.456494516672	4
13824	67271	75.670443997307	1
13824	67277	75.67126223974	1
13824	67314	75.69343588391	1
13824	67636	75.89551097104	2
13824	68254	76.39551097104	4
13824	68463	76.600721669866	1
13824	68862	76.905766945081	2
13824	69019	77.071401825194	3
13824	69195	77.211294545254	2
13824	70322	78.117870802039	10
13824	71659	79.117870802039	11
13824	72234	79.62657704706	4
13824	72623	79.982468629916	5
13824	72920	80.231980448029	5
13824	73402	80.636008069537	4
13824	73418	80.637191100713	0
13824	73819	80.937191100713	2
13824	75091	81.970506658853	5
13824	76666	83.370506658853	14
13824	77699	84.172625413966	8
13824	79153	85.372625413966	12
13824	79533	85.675695004393	3
13824	79567	85.713580075482	1
13824	79818	85.916390799881	2
13824	80885	86.816390799881	8
13824	81477	87.322594115343	4
13824	82094	87.823395320579	5
13824	82327	88.036645041678	6
13824	82549	88.229701590516	3
13824	82568	88.236823506678	1
13824	83030	88.637672357952	4
13824	84429	89.837672357952	13
13824	84954	90.24737227613	3
13824	85486	90.589799000759	1
13824	86164	91.089799000759	4
13824	86664	91.500341608287	4
13824	86920	91.719206488218	1
13824	87049	91.826842300684	1
13824	87625	92.426842300684	6
13824	88346	93.026942300694	7
13824	89296	93.726942300694	7
13824	90505	94.835864749206	11
13824	91273	95.442286537466	0
13824	91995	96.042286537466	5
13824	92252	96.255778084447	1
13824	92270	96.260191036189	0
13824	92782	96.760191036189	5
13824	93572	97.517567118479	7
13824	93921	97.817567118479	3
13824	94394	98.218425520118	3
13824	94628	98.42696620911	1
13824	95070	98.829853660849	3
13824	95277	99.038889363196	1
13824	95361	99.129118759825	12
13824	95488	99.239859926544	1
13824	95718	99.447290262372	2
13824	95914	99.649009513858	1
13824	96130	99.85815499896	1
13824	96191	99.911464517899	1
13824	96963	100.611564517909	8
13824	97600	101.311564517909	6
13824	97855	101.520562550086	1
13824	98071	101.720662550096	2
13824	98961	102.420662550096	6
13824	99222	102.630798339769	1
13824	99439	102.794160865007	1
13824	99693	102.982365936136	2
13824	99935	103.200096681732	3
13824	99956	103.232196159171	7
13824	100221	103.390240792291	3
13824	100396	103.544914194375	1
13824	100614	103.733158724933	4
13824	100619	103.73698481714	4
13824	101102	104.13708481715	4
13824	101417	104.43708481715	2
13824	101807	104.745297933935	2
13824	102299	105.147932620108	5
13824	102750	105.547932620108	3
13824	103340	106.054680718089	2
13824	104177	106.754680718089	7
13824	105141	107.512994969712	2
13824	105878	108.11906823829	6
13824	106840	108.81906823829	6
13824	107171	109.120243860156	2
13824	107217	109.156513626193	2
13824	107458	109.366918808806	1
13824	107869	109.728315234536	5
13824	108074	109.867841977514	4
13824	108854	110.473310097165	6
13824	110562	111.975202380036	15
13824	110941	112.341267279963	6
13824	111349	112.584680326777	5
13824	111624	112.844235317924	4
13824	112005	113.150713724662	2
13824	112333	113.388571824222	9
13824	112945	113.891642741065	5
13824	113750	114.591642741065	6
13824	114582	115.399688277007	7
13824	114798	115.601068073647	2
13824	115194	115.902047898659	3
13824	117167	117.591434480126	4
13824	117537	117.902047898659	23
13824	117542	117.904550173561	2
13824	117918	118.2061628317	2
13824	117923	118.207842916053	2
13824	117937	118.208327589973	0
13824	118161	118.41012952684	1
13824	118164	118.412167387388	1
13824	118319	118.590379155753	1
13824	118355	118.615460151746	1
13824	118360	118.619298707747	1
13824	118734	118.912249861232	2
13824	119364	119.512249861232	5
13824	119716	119.83476777468	3
13824	120055	120.138453155594	2
13824	120058	120.140126698328	2
13824	120085	120.194110979434	7
13824	120263	120.343052918192	1
13824	120265	120.343980265449	1
13824	120320	120.402139892885	1
13824	120548	120.605994716423	1
13824	120567	120.60841612616	1
13824	120905	120.913429396778	3
13824	121633	121.605640747645	2
13824	122147	122.013429396778	11
13824	122528	122.314727276222	2
13824	122792	122.519214821726	1
13824	122981	122.630839348157	9
13824	124043	123.439224141891	8
13824	124830	124.139224141891	6
13824	125089	124.452032895298	2
13824	125652	125.027092074745	0
13824	126281	125.527092074745	4
13824	126598	125.733769540733	1
13824	126864	125.939245000388	1
13824	127194	126.150141751249	2
13824	127450	126.350909489977	1
13824	127696	126.564955466935	1
13824	129070	127.565055466945	12
13824	130131	128.465055466945	11
13824	130703	128.971177631806	4
13824	130775	129.051276468342	3
13824	131161	129.35290859625	2
13824	131189	129.364185319779	2
13824	131548	129.664285319789	3
13824	131953	130.064285319789	3
13824	132156	130.270934584228	1
13824	132955	130.88212824191	2
13824	133294	131.188688585379	2
13824	133688	131.580579736732	14
13824	133714	131.631125277563	13
13824	133891	131.796889856951	5
13824	134021	131.934455872911	2
13824	134145	132.035917417083	1
13824	134346	132.235917417083	1
13824	134958	132.843572217412	6
13824	135463	133.343572217412	4
13824	135975	133.848707296498	4
13824	136184	134.053553047879	1
13824	136449	134.262511265246	3
13824	136915	134.662511265246	4
13824	137211	134.965463669778	2
13824	137373	135.173120556877	1
13824	137387	135.175663270388	1
13825	29	20.00000000001	1
13825	296	20.30000000001	0.75
13825	436	20.500769334308	0.875
13825	878	21.106424301772	0.375
13825	1153	21.407536166688	0.625
13825	1489	21.707536166688	0.75
13825	2499	22.5200259644	0.125
13825	3009	23.024614180719	0.5
13825	3071	23.114212791983	0.125
13825	3088	23.114735454366	1
13825	3428	23.414735454366	0.75
13825	3756	23.625746128387	0.875
13825	3766	23.628606928275	0.875
13825	3983	23.832088329161	0.875
13825	4786	24.532188329171	0.125
13825	4933	24.632188329171	0.875
13825	5207	24.935546945045	0.75
13825	5322	25.038165112795	0.875
13825	5497	25.240386676744	0.875
13825	6450	25.964412211858	0.5
13825	6611	26.068779428674	0.875
13825	6702	26.150200469278	-0.25
13825	7139	26.453147754025	0.625
13825	7902	27.053147754025	0.375
13825	8391	27.467132811732	0.625
13825	8634	27.667244677901	0.875
13825	8879	27.867344677911	0.75
13825	9259	28.167344677911	0.75
13825	10428	29.067444677921	-0.125
13825	11382	29.867444677921	0.125
13825	11821	30.275517554071	0.625
13825	12386	30.779427122031	0.125
13825	12690	30.988014711397	0.875
13825	12701	30.993050679239	0.125
13825	12879	31.101340027967	0.125
13825	13132	31.294209699202	0.625
13825	13687	31.700077663236	0.375
13825	14185	32.100077663236	0.625
13825	14703	32.505295911833	0.625
13825	14865	32.621970960913	0.625
13825	15312	33.013703914502	0.5
13825	15333	33.014516724863	1
13825	15620	33.214516724863	0.875
13825	15782	33.319127560774	0.875
13825	16640	33.928003951117	0.125
13825	17624	34.828003951117	0
13825	17982	35.132372463686	0.75
13825	18403	35.432472463696	0.625
13825	19286	36.032472463696	0.25
13825	19541	36.2343456967	0.875
13825	20019	36.64219829378	0.625
13825	20120	36.72664692234	0.625
13825	20784	37.330452785366	0.375
13825	20945	37.444358158773	0.125
13825	20953	37.444812391851	0.44444441795349
13825	21425	37.831720517598	0.5
13825	21495	37.878130734092	0.5
13825	21972	38.179830716387	0.625
13825	22501	38.579830716387	0.625
13825	22593	38.682484483705	0.75
13825	22837	38.898273446315	0.875
13825	23049	39.097055409181	0.5
13825	23299	39.305713022702	0.625
13825	23470	39.43928075785	0.375
13825	23722	39.629554796404	0.375
13825	23829	39.701231315362	0.375
13825	23912	39.769760790451	0.625
13825	23947	39.81666805021	0.375
13825	24178	40.020457204466	0.75
13825	24959	40.620457204466	0.25
13825	25871	41.505620333651	0.25
13825	26351	42.027107694637	-0.75
13825	26504	42.127207694647	0.875
13825	26811	42.427207694647	0.75
13825	27654	43.131228566232	0.125
13825	27952	43.43919302906	0.75
13825	28104	43.555928485365	1
13825	28196	43.623603680433	0.125
13825	28424	43.827980007449	0.75
13825	29181	44.527980007449	0
13825	30265	45.437741792051	0
13825	31127	46.151604416714	0.125
13825	31461	46.412664719203	0
13825	31614	46.520911398612	0.875
13825	32709	47.520911398612	-0.375
13825	32950	47.72576544303	0.625
13825	33188	47.928444911963	0.5
13825	33653	48.327257772498	0.25
13825	33844	48.493208382284	0.625
13825	33904	48.552557968303	0
13825	34266	48.826974053421	0.625
13825	34282	48.835524453755	0
13825	34484	48.997247837319	0.5
13825	34674	49.110081314543	0.875
13825	34713	49.13565471265	0.625
13825	34715	49.136081972703	0.625
13825	35184	49.437820611408	0.625
13825	36275	50.237820611408	0.125
13825	36774	50.638023173877	0.625
13825	37150	50.943413197014	0.75
13825	37290	51.059367092619	0.625
13825	37636	51.355879847678	0.5
13825	37911	51.56778470101	0.5
13825	38089	51.738861178121	0.375
13825	39227	52.647950847597	-0.25
13825	40362	53.647950847597	-0.125
13825	40436	53.720663427261	0.375
13825	40593	53.853508145239	0.875
13825	40866	54.061125115491	0.875
13825	40925	54.129521110771	0.625
13825	41135	54.267184095819	0.875
13825	41190	54.339206643247	0.75
13825	41672	54.739645078914	0.5
13825	42145	55.139645078914	0.5
13825	42578	55.446153418061	0.75
13825	43098	55.888197072	0.25
13825	43786	56.396860367132	0.5
13825	43798	56.44965346209	-0.125
13825	44023	56.585056667626	-0.125
13825	44053	56.604222570618	0.875
13825	44291	56.77891026434	0.625
13825	44486	56.885346700851	0.75
13825	44534	56.916731328555	0.75
13825	45850	58.025827773016	-0.375
13825	46392	58.525827773016	0.375
13825	47018	59.032599374603	0.5
13825	47275	59.235675238901	0.875
13825	48353	60.186261081136	0.375
13825	48415	60.24217640875	-0.125
13825	48433	60.248913454482	1
13825	48969	60.758907880623	0.5
13825	49175	60.968579354684	0.875
13825	49436	61.170914012004	0.875
13825	49473	61.206138404316	0.875
13825	49980	61.610381483256	0.25
13825	50839	62.310381483256	0.25
13825	51206	62.613434162987	0.625
13825	51488	62.825732860851	0.5
13825	52098	63.316055611043	0.25
13825	52519	63.644287978424	0
13825	52754	63.822912734227	0.5
13825	52797	63.852914072956	0.75
13825	53205	64.156865051406	0.625
13825	53248	64.167668809671	0.75
13825	53436	64.27592392296	0.875
13825	53905	64.67592392296	0.625
13825	54391	65.07602392297	0.25
13825	54792	65.47602392297	0.625
13825	55064	65.678291081804	0.875
13825	55788	66.180297873273	0.5
13825	56262	66.553026325756	0.625
13825	56309	66.580358047065	0.625
13825	56574	66.788421879977	0.875
13825	57471	67.496320892394	0
13825	57776	67.796320892394	0.75
13825	58111	68.104021622057	0.75
13825	58707	68.619551690732	0.5
13825	58940	68.804671502341	0.25
13825	59107	68.921595314437	0.75
13825	59651	69.422679698675	0.375
13825	60197	70.022679698675	0.375
13825	60476	70.231682518155	0.875
13825	61129	70.845006819326	0.375
13825	61385	71.060970577902	0.875
13825	61668	71.289870242437	0.375
13825	62028	71.4972890616	0.75
13825	62598	71.8972890616	0.625
13825	62844	72.113090468213	0.875
13825	63505	72.613190468223	0.375
13825	64019	73.118734457901	0.5
13825	64519	73.527660110316	0.5
13825	65605	74.380659851328	0.25
13825	65764	74.535992632711	-0.625
13825	65779	74.547307529072	-0.625
13825	65914	74.64816708999	0.875
13825	66289	74.94816708999	0.75
13825	66966	75.454527653041	0.5
13825	66986	75.456494516672	0.5
13825	67271	75.670443997307	0.875
13825	67277	75.67126223974	0.875
13825	67314	75.69343588391	0.875
13825	67636	75.89551097104	0.75
13825	68254	76.39551097104	0.5
13825	68463	76.600721669866	0.875
13825	68862	76.905766945081	0.75
13825	69019	77.071401825194	0.625
13825	69195	77.211294545254	0.75
13825	70322	78.117870802039	-0.25
13825	71659	79.117870802039	-0.375
13825	72234	79.62657704706	0.5
13825	72623	79.982468629916	0.375
13825	72920	80.231980448029	0.375
13825	73402	80.636008069537	0.5
13825	73418	80.637191100713	1
13825	73819	80.937191100713	0.75
13825	75091	81.970506658853	0.375
13825	76666	83.370506658853	-0.75
13825	77699	84.172625413966	0
13825	79153	85.372625413966	-0.5
13825	79533	85.675695004393	0.625
13825	79567	85.713580075482	0.875
13825	79818	85.916390799881	0.75
13825	80885	86.816390799881	0
13825	81477	87.322594115343	0.5
13825	82094	87.823395320579	0.375
13825	82327	88.036645041678	0.25
13825	82549	88.229701590516	0.625
13825	82568	88.236823506678	0.875
13825	83030	88.637672357952	0.5
13825	84429	89.837672357952	-0.625
13825	84954	90.24737227613	0.625
13825	85486	90.589799000759	0.875
13825	86164	91.089799000759	0.5
13825	86664	91.500341608287	0.5
13825	86920	91.719206488218	0.875
13825	87049	91.826842300684	0.875
13825	87625	92.426842300684	0.25
13825	88346	93.026942300694	0.125
13825	89296	93.726942300694	0.125
13825	90505	94.835864749206	-0.375
13825	91273	95.442286537466	1
13825	91995	96.042286537466	0.375
13825	92252	96.255778084447	0.875
13825	92270	96.260191036189	1
13825	92782	96.760191036189	0.44444441795349
13825	93572	97.517567118479	0.125
13825	93921	97.817567118479	0.625
13825	94394	98.218425520118	0.625
13825	94628	98.42696620911	0.875
13825	95070	98.829853660849	0.625
13825	95277	99.038889363196	0.875
13825	95361	99.129118759825	-0.5
13825	95488	99.239859926544	0.875
13825	95718	99.447290262372	0.75
13825	95914	99.649009513858	0.875
13825	96130	99.85815499896	0.875
13825	96191	99.911464517899	0.875
13825	96963	100.611564517909	0
13825	97600	101.311564517909	0.25
13825	97855	101.520562550086	0.875
13825	98071	101.720662550096	0.75
13825	98961	102.420662550096	0.25
13825	99222	102.630798339769	0.875
13825	99439	102.794160865007	0.875
13825	99693	102.982365936136	0.75
13825	99935	103.200096681732	0.625
13825	99956	103.232196159171	0.125
13825	100221	103.390240792291	0.625
13825	100396	103.544914194375	0.875
13825	100614	103.733158724933	0.5
13825	100619	103.73698481714	0.5
13825	101102	104.13708481715	0.5
13825	101417	104.43708481715	0.75
13825	101807	104.745297933935	0.75
13825	102299	105.147932620108	0.375
13825	102750	105.547932620108	0.625
13825	103340	106.054680718089	0.75
13825	104177	106.754680718089	0.125
13825	105141	107.512994969712	0.75
13825	105878	108.11906823829	0.25
13825	106840	108.81906823829	0.25
13825	107171	109.120243860156	0.75
13825	107217	109.156513626193	0.75
13825	107458	109.366918808806	0.875
13825	107869	109.728315234536	0.375
13825	108074	109.867841977514	0.5
13825	108854	110.473310097165	0.25
13825	110562	111.975202380036	-0.875
13825	110941	112.341267279963	0.25
13825	111349	112.584680326777	0.375
13825	111624	112.844235317924	0.5
13825	112005	113.150713724662	0.75
13825	112333	113.388571824222	-0.125
13825	112945	113.891642741065	0.375
13825	113750	114.591642741065	0.25
13825	114582	115.399688277007	0.125
13825	114798	115.601068073647	0.75
13825	115194	115.902047898659	0.625
13825	117167	117.591434480126	0.5
13825	117537	117.902047898659	-1.875
13825	117542	117.904550173561	0.75
13825	117918	118.2061628317	0.75
13825	117923	118.207842916053	0.75
13825	117937	118.208327589973	1
13825	118161	118.41012952684	0.875
13825	118164	118.412167387388	0.875
13825	118319	118.590379155753	0.875
13825	118355	118.615460151746	0.875
13825	118360	118.619298707747	0.875
13825	118734	118.912249861232	0.75
13825	119364	119.512249861232	0.375
13825	119716	119.83476777468	0.625
13825	120055	120.138453155594	0.75
13825	120058	120.140126698328	0.75
13825	120085	120.194110979434	0.125
13825	120263	120.343052918192	0.875
13825	120265	120.343980265449	0.875
13825	120320	120.402139892885	0.875
13825	120548	120.605994716423	0.875
13825	120567	120.60841612616	0.875
13825	120905	120.913429396778	0.625
13825	121633	121.605640747645	0.75
13825	122147	122.013429396778	-0.375
13825	122528	122.314727276222	0.75
13825	122792	122.519214821726	0.875
13825	122981	122.630839348157	-0.125
13825	124043	123.439224141891	0
13825	124830	124.139224141891	0.25
13825	125089	124.452032895298	0.75
13825	125652	125.027092074745	1
13825	126281	125.527092074745	0.5
13825	126598	125.733769540733	0.875
13825	126864	125.939245000388	0.875
13825	127194	126.150141751249	0.75
13825	127450	126.350909489977	0.875
13825	127696	126.564955466935	0.875
13825	129070	127.565055466945	-0.5
13825	130131	128.465055466945	-0.375
13825	130703	128.971177631806	0.5
13825	130775	129.051276468342	0.625
13825	131161	129.35290859625	0.75
13825	131189	129.364185319779	0.75
13825	131548	129.664285319789	0.625
13825	131953	130.064285319789	0.625
13825	132156	130.270934584228	0.875
13825	132955	130.88212824191	0.75
13825	133294	131.188688585379	0.75
13825	133688	131.580579736732	-0.75
13825	133714	131.631125277563	-0.625
13825	133891	131.796889856951	0.375
13825	134021	131.934455872911	0.75
13825	134145	132.035917417083	0.875
13825	134346	132.235917417083	0.875
13825	134958	132.843572217412	0.25
13825	135463	133.343572217412	0.5
13825	135975	133.848707296498	0.5
13825	136184	134.053553047879	0.875
13825	136449	134.262511265246	0.625
13825	136915	134.662511265246	0.5
13825	137211	134.965463669778	0.75
13825	137373	135.173120556877	0.875
13825	137387	135.175663270388	0.875
13826	29	20.00000000001	0
13826	296	20.30000000001	0.3
13826	436	20.500769334308	0.2
13826	878	21.106424301772	0.6
13826	1153	21.407536166688	0.3
13826	1489	21.707536166688	0.3
13826	2499	22.5200259644	0.8
13826	3009	23.024614180719	0.5
13826	3071	23.114212791983	0.8
13826	3088	23.114735454366	0
13826	3428	23.414735454366	0.3
13826	3756	23.625746128387	0.2
13826	3766	23.628606928275	0.2
13826	3983	23.832088329161	0.2
13826	4786	24.532188329171	0.7
13826	4933	24.632188329171	0.1
13826	5207	24.935546945045	0.3
13826	5322	25.038165112795	0.1
13826	5497	25.240386676744	0.2
13826	6450	25.964412211858	0.5
13826	6611	26.068779428674	0.1
13826	6702	26.150200469278	0.9
13826	7139	26.453147754025	0.3
13826	7902	27.053147754025	0.6
13826	8391	27.467132811732	0.4
13826	8634	27.667244677901	0.2
13826	8879	27.867344677911	0.2
13826	9259	28.167344677911	0.3
13826	10428	29.067444677921	0.9
13826	11382	29.867444677921	0.8
13826	11821	30.275517554071	0.4
13826	12386	30.779427122031	0.8
13826	12690	30.988014711397	0.2
13826	12701	30.993050679239	0.8
13826	12879	31.101340027967	0.8
13826	13132	31.294209699202	0.3
13826	13687	31.700077663236	0.4
13826	14185	32.100077663236	0.4
13826	14703	32.505295911833	0.4
13826	14865	32.621970960913	0.3
13826	15312	33.013703914502	0.5
13826	15333	33.014516724863	0
13826	15620	33.214516724863	0.2
13826	15782	33.319127560774	0.2
13826	16640	33.928003951117	0.6
13826	17624	34.828003951117	0.9
13826	17982	35.132372463686	0.3
13826	18403	35.432472463696	0.3
13826	19286	36.032472463696	0.6
13826	19541	36.2343456967	0.2