version 2
run Stability-norelink-18-20130525-23:15:36-22103
attr configname Stability-norelink
attr datetime 20130525-23:15:36
attr experiment Stability
attr inifile omnetpp.ini
attr iterationvars $0=1e5
attr iterationvars2 "$0=1e5, $repetition=8"
attr measurement $0=1e5
attr network Network
attr processid 22103
attr repetition 8
attr replication #8
attr resultdir results
attr runnumber 18
attr seedset 18

vector 1728  Network.dyn_peer[0]  lookupHopsSig:vector  ETV
vector 1729  Network.dyn_peer[0]  lookupStabilitySig:vector  ETV
vector 1730  Network.dyn_peer[0]  lookupTimeSig:vector  ETV
vector 1731  Network.dyn_peer[1]  lookupHopsSig:vector  ETV
vector 1732  Network.dyn_peer[1]  lookupStabilitySig:vector  ETV
vector 1733  Network.dyn_peer[1]  lookupTimeSig:vector  ETV
vector 1734  Network.dyn_peer[2]  lookupHopsSig:vector  ETV
vector 1735  Network.dyn_peer[2]  lookupStabilitySig:vector  ETV
vector 1736  Network.dyn_peer[2]  lookupTimeSig:vector  ETV
vector 1737  Network.dyn_peer[3]  lookupHopsSig:vector  ETV
vector 1738  Network.dyn_peer[3]  lookupStabilitySig:vector  ETV
vector 1739  Network.dyn_peer[3]  lookupTimeSig:vector  ETV
vector 1740  Network.dyn_peer[4]  lookupHopsSig:vector  ETV
vector 1741  Network.dyn_peer[4]  lookupStabilitySig:vector  ETV
vector 1742  Network.dyn_peer[4]  lookupTimeSig:vector  ETV
vector 1743  Network.dyn_peer[5]  lookupHopsSig:vector  ETV
vector 1744  Network.dyn_peer[5]  lookupStabilitySig:vector  ETV
vector 1745  Network.dyn_peer[5]  lookupTimeSig:vector  ETV
vector 1746  Network.dyn_peer[6]  lookupHopsSig:vector  ETV
vector 1747  Network.dyn_peer[6]  lookupStabilitySig:vector  ETV
vector 1748  Network.dyn_peer[6]  lookupTimeSig:vector  ETV
vector 1749  Network.dyn_peer[7]  lookupHopsSig:vector  ETV
vector 1750  Network.dyn_peer[7]  lookupStabilitySig:vector  ETV
vector 1751  Network.dyn_peer[7]  lookupTimeSig:vector  ETV
vector 1752  Network.dyn_peer[8]  lookupHopsSig:vector  ETV
vector 1753  Network.dyn_peer[8]  lookupStabilitySig:vector  ETV
vector 1754  Network.dyn_peer[8]  lookupTimeSig:vector  ETV
vector 1755  Network.dyn_peer[9]  lookupHopsSig:vector  ETV
vector 1756  Network.dyn_peer[9]  lookupStabilitySig:vector  ETV
vector 1757  Network.dyn_peer[9]  lookupTimeSig:vector  ETV
vector 1758  Network.dyn_peer[10]  lookupHopsSig:vector  ETV
vector 1759  Network.dyn_peer[10]  lookupStabilitySig:vector  ETV
vector 1760  Network.dyn_peer[10]  lookupTimeSig:vector  ETV
vector 1761  Network.dyn_peer[11]  lookupHopsSig:vector  ETV
vector 1762  Network.dyn_peer[11]  lookupStabilitySig:vector  ETV
vector 1763  Network.dyn_peer[11]  lookupTimeSig:vector  ETV
vector 1764  Network.dyn_peer[12]  lookupHopsSig:vector  ETV
vector 1765  Network.dyn_peer[12]  lookupStabilitySig:vector  ETV
vector 1766  Network.dyn_peer[12]  lookupTimeSig:vector  ETV
vector 1767  Network.dyn_peer[13]  lookupHopsSig:vector  ETV
vector 1768  Network.dyn_peer[13]  lookupStabilitySig:vector  ETV
vector 1769  Network.dyn_peer[13]  lookupTimeSig:vector  ETV
vector 1770  Network.dyn_peer[14]  lookupHopsSig:vector  ETV
vector 1771  Network.dyn_peer[14]  lookupStabilitySig:vector  ETV
vector 1772  Network.dyn_peer[14]  lookupTimeSig:vector  ETV
vector 1773  Network.dyn_peer[15]  lookupHopsSig:vector  ETV
vector 1774  Network.dyn_peer[15]  lookupStabilitySig:vector  ETV
vector 1775  Network.dyn_peer[15]  lookupTimeSig:vector  ETV
vector 1776  Network.dyn_peer[16]  lookupHopsSig:vector  ETV
vector 1777  Network.dyn_peer[16]  lookupStabilitySig:vector  ETV
vector 1778  Network.dyn_peer[16]  lookupTimeSig:vector  ETV
vector 1779  Network.dyn_peer[17]  lookupHopsSig:vector  ETV
vector 1780  Network.dyn_peer[17]  lookupStabilitySig:vector  ETV
vector 1781  Network.dyn_peer[17]  lookupTimeSig:vector  ETV
vector 1782  Network.dyn_peer[18]  lookupHopsSig:vector  ETV
vector 1783  Network.dyn_peer[18]  lookupStabilitySig:vector  ETV
vector 1784  Network.dyn_peer[18]  lookupTimeSig:vector  ETV
vector 1785  Network.dyn_peer[19]  lookupHopsSig:vector  ETV
vector 1786  Network.dyn_peer[19]  lookupStabilitySig:vector  ETV
vector 1787  Network.dyn_peer[19]  lookupTimeSig:vector  ETV
vector 1788  Network.dyn_peer[20]  lookupHopsSig:vector  ETV
vector 1789  Network.dyn_peer[20]  lookupStabilitySig:vector  ETV
vector 1790  Network.dyn_peer[20]  lookupTimeSig:vector  ETV
vector 1791  Network.dyn_peer[21]  lookupHopsSig:vector  ETV
vector 1792  Network.dyn_peer[21]  lookupStabilitySig:vector  ETV
vector 1793  Network.dyn_peer[21]  lookupTimeSig:vector  ETV
vector 1794  Network.dyn_peer[22]  lookupHopsSig:vector  ETV
vector 1795  Network.dyn_peer[22]  lookupStabilitySig:vector  ETV
vector 1796  Network.dyn_peer[22]  lookupTimeSig:vector  ETV
vector 1797  Network.dyn_peer[23]  lookupHopsSig:vector  ETV
vector 1798  Network.dyn_peer[23]  lookupStabilitySig:vector  ETV
vector 1799  Network.dyn_peer[23]  lookupTimeSig:vector  ETV
vector 1800  Network.dyn_peer[24]  lookupHopsSig:vector  ETV
vector 1801  Network.dyn_peer[24]  lookupStabilitySig:vector  ETV
vector 1802  Network.dyn_peer[24]  lookupTimeSig:vector  ETV
vector 1803  Network.dyn_peer[25]  lookupHopsSig:vector  ETV
vector 1804  Network.dyn_peer[25]  lookupStabilitySig:vector  ETV
vector 1805  Network.dyn_peer[25]  lookupTimeSig:vector  ETV
vector 1806  Network.dyn_peer[26]  lookupHopsSig:vector  ETV
vector 1807  Network.dyn_peer[26]  lookupStabilitySig:vector  ETV
vector 1808  Network.dyn_peer[26]  lookupTimeSig:vector  ETV
vector 1809  Network.dyn_peer[27]  lookupHopsSig:vector  ETV
vector 1810  Network.dyn_peer[27]  lookupStabilitySig:vector  ETV
vector 1811  Network.dyn_peer[27]  lookupTimeSig:vector  ETV
vector 1812  Network.dyn_peer[28]  lookupHopsSig:vector  ETV
vector 1813  Network.dyn_peer[28]  lookupStabilitySig:vector  ETV
vector 1814  Network.dyn_peer[28]  lookupTimeSig:vector  ETV
vector 1815  Network.dyn_peer[29]  lookupHopsSig:vector  ETV
vector 1816  Network.dyn_peer[29]  lookupStabilitySig:vector  ETV
vector 1817  Network.dyn_peer[29]  lookupTimeSig:vector  ETV
vector 1818  Network.dyn_peer[30]  lookupHopsSig:vector  ETV
vector 1819  Network.dyn_peer[30]  lookupStabilitySig:vector  ETV
vector 1820  Network.dyn_peer[30]  lookupTimeSig:vector  ETV
vector 1821  Network.dyn_peer[31]  lookupHopsSig:vector  ETV
vector 1822  Network.dyn_peer[31]  lookupStabilitySig:vector  ETV
vector 1823  Network.dyn_peer[31]  lookupTimeSig:vector  ETV
1728	30	120.1	1
1728	34	120.4	2
1728	38	120.606666003491	1
1728	44	120.816069416136	1
1728	1090	3320.1	1
1728	1095	3320.403968565212	2
1728	1102	3320.637491283242	1
1728	1111	3320.872490427288	1
1728	2159	6520.1	1
1728	2162	6520.3	1
1728	2166	6520.501792757895	1
1728	2171	6520.710869174804	1
1728	3179	9720.1	1
1728	3183	9720.4	2
1728	3188	9720.709894391223	2
1728	3192	9720.91548200854	1
1728	4206	12920.1	1
1728	4210	12920.4	2
1728	4215	12920.70620683161	2
1728	4220	12920.918746571185	1
1728	5240	16120.2	2
1728	5245	16120.406141191629	1
1728	5250	16120.710519143958	2
1728	5254	16120.915832755181	1
1728	6274	19320.2	2
1728	6278	19320.5	2
1728	6283	19320.708021665562	1
1728	6287	19320.910700961479	1
1728	7310	22520.1	1
1728	7316	22520.317720118671	1
1728	7320	22520.520769477585	1
1728	7326	22520.736443610896	1
1728	8341	25720.1	1
1728	8344	25720.3	1
1728	8348	25720.500035476954	1
1728	8353	25720.71645580458	1
1728	9413	28920.2	2
1728	9418	28920.6	3
1728	9422	28920.801247639928	1
1728	9429	28921.01700548606	1
1728	10447	32120.2	2
1728	10450	32120.4	1
1728	10454	32120.600379249006	1
1728	10459	32120.906926664569	2
1728	11450	35320.1	1
1728	11453	35320.3	1
1728	11457	35320.503910424443	1
1728	11462	35320.811852360595	2
1728	12499	38520.1	1
1728	12504	38520.403743321353	2
1728	12513	38520.635732720676	1
1728	12517	38520.841371226741	1
1728	13539	41720.2	2
1728	13543	41720.5	2
1728	13547	41720.7099489086	1
1728	13554	41721.019029531493	2
1728	14576	44920.2	2
1728	14581	44920.6	3
1728	14587	44920.911270558546	2
1728	14591	44921.11502995861	1
1728	15601	48120.2	2
1728	15605	48120.5	2
1728	15610	48120.716417975767	1
1728	15616	48120.937894106922	1
1728	16621	51320.2	2
1728	16625	51320.5	2
1728	16629	51320.704472053856	1
1728	16633	51320.911748764435	1
1728	17669	54520.2	2
1728	17672	54520.4	1
1728	17677	54520.701262408704	2
1728	17682	54520.911986829202	1
1728	18717	57720.1	1
1728	18721	57720.4	2
1728	18727	57720.611797986835	1
1728	18731	57720.815515173914	1
1728	19769	60920.2	2
1728	19773	60920.403683754496	1
1728	19778	60920.709578135885	2
1728	19784	60921.021377252037	2
1728	20805	64120.2	2
1728	20809	64120.5	2
1728	20813	64120.707777968109	1
1728	20819	64121.011992073349	2
1728	21842	67320.2	2
1728	21845	67320.4	1
1728	21852	67320.619429524974	1
1728	21860	67320.929923338644	2
1728	22879	70520.1	1
1728	22882	70520.3	1
1728	22886	70520.5097608803	1
1728	22893	70520.825957935402	2
1728	23908	73720.2	2
1728	23912	73720.403195024619	1
1728	23916	73720.60926623779	1
1728	23930	73720.863576323411	1
1728	24956	76920.1	1
1728	24960	76920.4	2
1728	24965	76920.706402168737	2
1728	24972	76920.926097550013	1
1728	25979	80120.2	2
1728	25983	80120.5	2
1728	25988	80120.718434160946	1
1728	26001	80120.971901318022	1
1728	27023	83320.1	1
1728	27026	83320.3	1
1728	27031	83320.510981004093	1
1728	27036	83320.717167747913	1
1728	28056	86520.1	1
1728	28060	86520.4	2
1728	28064	86520.607044495067	1
1728	28068	86520.815805344048	1
1728	29104	89720.2	2
1728	29107	89720.4	1
1728	29112	89720.708440747656	2
1728	29125	89720.952308318756	1
1728	30167	92920.2	2
1728	30172	92920.504534474683	2
1728	30176	92920.708678583958	1
1728	30182	92920.918410848272	1
1728	31234	96120.2	2
1728	31238	96120.5	2
1728	31243	96120.803901777984	2
1728	31248	96121.014574214563	1
1728	32245	99320.1	1
1728	32252	99320.419652319858	2
1728	32257	99320.627446272401	1
1728	32261	99320.836865911884	1
1728	33303	102520.1	1
1728	33306	102520.3	1
1728	33314	102520.519815751552	1
1728	33329	102520.786951954935	1
1728	34338	105720	0
1728	34342	105720.3	2
1728	34348	105720.617159254031	2
1728	34353	105720.828838989826	1
1728	35383	108920.2	2
1728	35387	108920.5	2
1728	35393	108920.816680264742	2
1728	35397	108921.022232499282	1
1728	36424	112120.1	1
1728	36428	112120.4	2
1728	36432	112120.607978299015	1
1728	36437	112120.912427733123	2
1728	37477	115320.2	2
1728	37480	115320.4	1
1728	37485	115320.709851923906	2
1728	37489	115320.916596787278	1
1728	38529	118520.1	1
1728	38533	118520.4	2
1728	38537	118520.60269923561	1
1728	38544	118520.819249908982	1
1728	39584	121720.1	1
1728	39588	121720.300225953322	1
1728	39595	121720.613026926222	2
1728	39599	121720.814543366553	1
1728	40587	124920.1	1
1728	40591	124920.301572501754	1
1728	40598	124920.522318332767	1
1728	40603	124920.731010578298	1
1728	41626	128120.1	1
1728	41631	128120.303165870138	1
1728	41636	128120.510104810002	1
1728	41642	128120.816851903933	2
1728	42702	131320.2	2
1728	42705	131320.4	1
1728	42710	131320.609274886135	1
1728	42715	131320.913801527822	2
1728	43740	134520.1	1
1728	43744	134520.306882269803	1
1728	43749	134520.611749544554	2
1728	43754	134520.818720601617	1
1728	44772	137720.1	1
1728	44775	137720.3	1
1728	44785	137720.526100459164	1
1728	44793	137720.834917632181	2
1728	45810	140920.2	2
1728	45814	140920.5	2
1728	45819	140920.716669005425	1
1728	45824	140921.02395964289	2
1728	46838	144120.2	2
1728	46841	144120.4	1
1728	46846	144120.615068365209	1
1728	46851	144120.924902376273	2
1728	47851	147320.2	2
1728	47856	147320.509706732493	2
1728	47861	147320.816608994812	2
1728	47883	147321.116681288938	1
1728	48901	150520.2	2
1728	48905	150520.5	2
1728	48911	150520.804742495151	2
1728	48915	150521.009607861539	1
1728	49934	153720.1	1
1728	49937	153720.3	1
1728	49942	153720.600092873892	2
1728	49946	153720.810025784373	1
1728	50984	156920.1	1
1728	50987	156920.3	1
1728	50992	156920.514041066293	1
1728	50999	156920.736406066302	1
1728	52031	160120.1	1
1728	52035	160120.4	2
1728	52039	160120.608334208843	1
1728	52043	160120.813204720019	1
1728	53027	163320.2	2
1728	53030	163320.4	1
1728	53035	163320.703314470511	2
1728	53040	163320.913264406395	1
1728	54069	166520.2	2
1728	54072	166520.4	1
1728	54077	166520.706291013802	2
1728	54082	166521.006948064721	2
1728	55123	169720.1	1
1728	55126	169720.3	1
1728	55130	169720.508842266357	1
1728	55140	169720.846942499831	2
1728	56122	172920.1	1
1728	56125	172920.3	1
1728	56129	172920.507364263378	1
1728	56133	172920.708943418713	1
1728	57152	176120.2	2
1728	57157	176120.501315736786	2
1728	57162	176120.802430791888	2
1728	57166	176121.00267106687	1
1728	58186	179320.1	1
1728	58189	179320.3	1
1728	58194	179320.603149265416	2
1728	58199	179320.815205053392	1
1728	59252	182520.2	2
1728	59255	182520.4	1
1728	59259	182520.608294243714	1
1728	59263	182520.817283239051	1
1728	60298	185720.1	1
1728	60302	185720.4	2
1728	60306	185720.606968996534	1
1728	60316	185720.931705337703	2
1728	61328	188920	0
1728	61334	188920.207294826681	1
1728	61340	188920.421657093949	1
1728	61345	188920.626615638447	1
1728	62362	192120.1	1
1728	62366	192120.4	2
1728	62370	192120.601630814904	1
1728	62378	192120.824799255411	1
1728	63411	195320.2	2
1728	63414	195320.4	1
1728	63420	195320.705483119059	2
1728	63424	195320.913213345729	1
1728	64476	198520.2	2
1728	64480	198520.5	2
1728	64484	198520.709976790728	1
1728	64489	198520.914468346481	1
1728	65514	201720.2	2
1728	65517	201720.4	1
1728	65522	201720.702796524474	2
1728	65529	201720.91863584232	1
1729	30	120.1	0.875
1729	34	120.4	0.75
1729	38	120.606666003491	0.875
1729	44	120.816069416136	0.875
1729	1090	3320.1	0.875
1729	1095	3320.403968565212	0.75
1729	1102	3320.637491283242	0.875
1729	1111	3320.872490427288	0.875
1729	2159	6520.1	0.875
1729	2162	6520.3	0.875
1729	2166	6520.501792757895	0.875
1729	2171	6520.710869174804	0.875
1729	3179	9720.1	0.875
1729	3183	9720.4	0.75
1729	3188	9720.709894391223	0.75
1729	3192	9720.91548200854	0.875
1729	4206	12920.1	0.875
1729	4210	12920.4	0.75
1729	4215	12920.70620683161	0.75
1729	4220	12920.918746571185	0.875
1729	5240	16120.2	0.75
1729	5245	16120.406141191629	0.875
1729	5250	16120.710519143958	0.75
1729	5254	16120.915832755181	0.875
1729	6274	19320.2	0.75
1729	6278	19320.5	0.75
1729	6283	19320.708021665562	0.875
1729	6287	19320.910700961479	0.875
1729	7310	22520.1	0.875
1729	7316	22520.317720118671	0.875
1729	7320	22520.520769477585	0.875
1729	7326	22520.736443610896	0.875
1729	8341	25720.1	0.875
1729	8344	25720.3	0.875
1729	8348	25720.500035476954	0.875
1729	8353	25720.71645580458	0.875
1729	9413	28920.2	0.75
1729	9418	28920.6	0.625
1729	9422	28920.801247639928	0.875
1729	9429	28921.01700548606	0.875
1729	10447	32120.2	0.75
1729	10450	32120.4	0.875
1729	10454	32120.600379249006	0.875
1729	10459	32120.906926664569	0.75
1729	11450	35320.1	0.875
1729	11453	35320.3	0.875
1729	11457	35320.503910424443	0.875
1729	11462	35320.811852360595	0.75
1729	12499	38520.1	0.875
1729	12504	38520.403743321353	0.75
1729	12513	38520.635732720676	0.875
1729	12517	38520.841371226741	0.875
1729	13539	41720.2	0.75
1729	13543	41720.5	0.75
1729	13547	41720.7099489086	0.875
1729	13554	41721.019029531493	0.75
1729	14576	44920.2	0.75
1729	14581	44920.6	0.625
1729	14587	44920.911270558546	0.75
1729	14591	44921.11502995861	0.875
1729	15601	48120.2	0.75
1729	15605	48120.5	0.75
1729	15610	48120.716417975767	0.875
1729	15616	48120.937894106922	0.875
1729	16621	51320.2	0.75
1729	16625	51320.5	0.75
1729	16629	51320.704472053856	0.875
1729	16633	51320.911748764435	0.875
1729	17669	54520.2	0.75
1729	17672	54520.4	0.875
1729	17677	54520.701262408704	0.75
1729	17682	54520.911986829202	0.875
1729	18717	57720.1	0.875
1729	18721	57720.4	0.75
1729	18727	57720.611797986835	0.875
1729	18731	57720.815515173914	0.875
1729	19769	60920.2	0.75
1729	19773	60920.403683754496	0.875
1729	19778	60920.709578135885	0.75
1729	19784	60921.021377252037	0.75
1729	20805	64120.2	0.75
1729	20809	64120.5	0.75
1729	20813	64120.707777968109	0.875
1729	20819	64121.011992073349	0.75
1729	21842	67320.2	0.75
1729	21845	67320.4	0.875
1729	21852	67320.619429524974	0.875
1729	21860	67320.929923338644	0.75
1729	22879	70520.1	0.875
1729	22882	70520.3	0.875
1729	22886	70520.5097608803	0.875
1729	22893	70520.825957935402	0.75
1729	23908	73720.2	0.75
1729	23912	73720.403195024619	0.875
1729	23916	73720.60926623779	0.875
1729	23930	73720.863576323411	0.875
1729	24956	76920.1	0.875
1729	24960	76920.4	0.75
1729	24965	76920.706402168737	0.75
1729	24972	76920.926097550013	0.875
1729	25979	80120.2	0.75
1729	25983	80120.5	0.75
1729	25988	80120.718434160946	0.875
1729	26001	80120.971901318022	0.875
1729	27023	83320.1	0.875
1729	27026	83320.3	0.875
1729	27031	83320.510981004093	0.875
1729	27036	83320.717167747913	0.875
1729	28056	86520.1	0.875
1729	28060	86520.4	0.75
1729	28064	86520.607044495067	0.875
1729	28068	86520.815805344048	0.875
1729	29104	89720.2	0.75
1729	29107	89720.4	0.875
1729	29112	89720.708440747656	0.75
1729	29125	89720.952308318756	0.875
1729	30167	92920.2	0.75
1729	30172	92920.504534474683	0.75
1729	30176	92920.708678583958	0.875
1729	30182	92920.918410848272	0.875
1729	31234	96120.2	0.75
1729	31238	96120.5	0.75
1729	31243	96120.803901777984	0.75
1729	31248	96121.014574214563	0.875
1729	32245	99320.1	0.875
1729	32252	99320.419652319858	0.75
1729	32257	99320.627446272401	0.875
1729	32261	99320.836865911884	0.875
1729	33303	102520.1	0.875
1729	33306	102520.3	0.875
1729	33314	102520.519815751552	0.875
1729	33329	102520.786951954935	0.875
1729	34338	105720	1
1729	34342	105720.3	0.75
1729	34348	105720.617159254031	0.75
1729	34353	105720.828838989826	0.875
1729	35383	108920.2	0.75
1729	35387	108920.5	0.75
1729	35393	108920.816680264742	0.75
1729	35397	108921.022232499282	0.875
1729	36424	112120.1	0.875
1729	36428	112120.4	0.75
1729	36432	112120.607978299015	0.875
1729	36437	112120.912427733123	0.75
1729	37477	115320.2	0.75
1729	37480	115320.4	0.875
1729	37485	115320.709851923906	0.75
1729	37489	115320.916596787278	0.875
1729	38529	118520.1	0.875
1729	38533	118520.4	0.75
1729	38537	118520.60269923561	0.875
1729	38544	118520.819249908982	0.875
1729	39584	121720.1	0.875
1729	39588	121720.300225953322	0.875
1729	39595	121720.613026926222	0.75
1729	39599	121720.814543366553	0.875
1729	40587	124920.1	0.875
1729	40591	124920.301572501754	0.875
1729	40598	124920.522318332767	0.875
1729	40603	124920.731010578298	0.875
1729	41626	128120.1	0.875
1729	41631	128120.303165870138	0.875
1729	41636	128120.510104810002	0.875
1729	41642	128120.816851903933	0.75
1729	42702	131320.2	0.75
1729	42705	131320.4	0.875
1729	42710	131320.609274886135	0.875
1729	42715	131320.913801527822	0.75
1729	43740	134520.1	0.875
1729	43744	134520.306882269803	0.875
1729	43749	134520.611749544554	0.75
1729	43754	134520.818720601617	0.875
1729	44772	137720.1	0.875
1729	44775	137720.3	0.875
1729	44785	137720.526100459164	0.875
1729	44793	137720.834917632181	0.75
1729	45810	140920.2	0.75
1729	45814	140920.5	0.75
1729	45819	140920.716669005425	0.875
1729	45824	140921.02395964289	0.75
1729	46838	144120.2	0.75
1729	46841	144120.4	0.875
1729	46846	144120.615068365209	0.875
1729	46851	144120.924902376273	0.75
1729	47851	147320.2	0.75
1729	47856	147320.509706732493	0.75
1729	47861	147320.816608994812	0.75
1729	47883	147321.116681288938	0.875
1729	48901	150520.2	0.75
1729	48905	150520.5	0.75
1729	48911	150520.804742495151	0.75
1729	48915	150521.009607861539	0.875
1729	49934	153720.1	0.875
1729	49937	153720.3	0.875
1729	49942	153720.600092873892	0.75
1729	49946	153720.810025784373	0.875
1729	50984	156920.1	0.875
1729	50987	156920.3	0.875
1729	50992	156920.514041066293	0.875
1729	50999	156920.736406066302	0.875
1729	52031	160120.1	0.875
1729	52035	160120.4	0.75
1729	52039	160120.608334208843	0.875
1729	52043	160120.813204720019	0.875
1729	53027	163320.2	0.75
1729	53030	163320.4	0.875
1729	53035	163320.703314470511	0.75
1729	53040	163320.913264406395	0.875
1729	54069	166520.2	0.75
1729	54072	166520.4	0.875
1729	54077	166520.706291013802	0.75
1729	54082	166521.006948064721	0.75
1729	55123	169720.1	0.875
1729	55126	169720.3	0.875
1729	55130	169720.508842266357	0.875
1729	55140	169720.846942499831	0.75
1729	56122	172920.1	0.875
1729	56125	172920.3	0.875
1729	56129	172920.507364263378	0.875
1729	56133	172920.708943418713	0.875
1729	57152	176120.2	0.75
1729	57157	176120.501315736786	0.75
1729	57162	176120.802430791888	0.75
1729	57166	176121.00267106687	0.875
1729	58186	179320.1	0.875
1729	58189	179320.3	0.875
1729	58194	179320.603149265416	0.75
1729	58199	179320.815205053392	0.875
1729	59252	182520.2	0.75
1729	59255	182520.4	0.875
1729	59259	182520.608294243714	0.875
1729	59263	182520.817283239051	0.875
1729	60298	185720.1	0.875
1729	60302	185720.4	0.75
1729	60306	185720.606968996534	0.875
1729	60316	185720.931705337703	0.75
1729	61328	188920	1
1729	61334	188920.207294826681	0.875
1729	61340	188920.421657093949	0.875
1729	61345	188920.626615638447	0.875
1729	62362	192120.1	0.875
1729	62366	192120.4	0.75
1729	62370	192120.601630814904	0.875
1729	62378	192120.824799255411	0.875
1729	63411	195320.2	0.75
1729	63414	195320.4	0.875
1729	63420	195320.705483119059	0.75
1729	63424	195320.913213345729	0.875
1729	64476	198520.2	0.75
1729	64480	198520.5	0.75
1729	64484	198520.709976790728	0.875
1729	64489	198520.914468346481	0.875
1729	65514	201720.2	0.75
1729	65517	201720.4	0.875
1729	65522	201720.702796524474	0.75
1729	65529	201720.91863584232	0.875
1730	30	120.1	0.1
1730	34	120.4	0.3
1730	38	120.606666003491	0.2
1730	44	120.816069416136	0.2
1730	1090	3320.1	0.1
1730	1095	3320.403968565212	0.3
1730	1102	3320.637491283242	0.2
1730	1111	3320.872490427288	0.2
1730	2159	6520.1	0.1
1730	2162	6520.3	0.2
1730	2166	6520.501792757895	0.2
1730	2171	6520.710869174804	0.2
1730	3179	9720.1	0.1
1730	3183	9720.4	0.3
1730	3188	9720.709894391223	0.3
1730	3192	9720.91548200854	0.2
1730	4206	12920.1	0.1
1730	4210	12920.4	0.3
1730	4215	12920.70620683161	0.3
1730	4220	12920.918746571185	0.2
1730	5240	16120.2	0.2
1730	5245	16120.406141191629	0.2
1730	5250	16120.710519143958	0.3
1730	5254	16120.915832755181	0.2
1730	6274	19320.2	0.2
1730	6278	19320.5	0.3
1730	6283	19320.708021665562	0.2
1730	6287	19320.910700961479	0.2
1730	7310	22520.1	0.1
1730	7316	22520.317720118671	0.2
1730	7320	22520.520769477585	0.2
1730	7326	22520.736443610896	0.2
1730	8341	25720.1	0.1
1730	8344	25720.3	0.2
1730	8348	25720.500035476954	0.2
1730	8353	25720.71645580458	0.2
1730	9413	28920.2	0.2
1730	9418	28920.6	0.4
1730	9422	28920.801247639928	0.2
1730	9429	28921.01700548606	0.2
1730	10447	32120.2	0.2
1730	10450	32120.4	0.2
1730	10454	32120.600379249006	0.2
1730	10459	32120.906926664569	0.3
1730	11450	35320.1	0.1
1730	11453	35320.3	0.2
1730	11457	35320.503910424443	0.2
1730	11462	35320.811852360595	0.3
1730	12499	38520.1	0.1
1730	12504	38520.403743321353	0.3
1730	12513	38520.635732720676	0.2
1730	12517	38520.841371226741	0.2
1730	13539	41720.2	0.2
1730	13543	41720.5	0.3
1730	13547	41720.7099489086	0.2
1730	13554	41721.019029531493	0.3
1730	14576	44920.2	0.2
1730	14581	44920.6	0.4
1730	14587	44920.911270558546	0.3
1730	14591	44921.11502995861	0.2
1730	15601	48120.2	0.2
1730	15605	48120.5	0.3
1730	15610	48120.716417975767	0.2
1730	15616	48120.937894106922	0.2
1730	16621	51320.2	0.2
1730	16625	51320.5	0.3
1730	16629	51320.704472053856	0.2
1730	16633	51320.911748764435	0.2
1730	17669	54520.2	0.2
1730	17672	54520.4	0.2
1730	17677	54520.701262408704	0.3
1730	17682	54520.911986829202	0.2
1730	18717	57720.1	0.1
1730	18721	57720.4	0.3
1730	18727	57720.611797986835	0.2
1730	18731	57720.815515173914	0.2
1730	19769	60920.2	0.2
1730	19773	60920.403683754496	0.2
1730	19778	60920.709578135885	0.3
1730	19784	60921.021377252037	0.3
1730	20805	64120.2	0.2
1730	20809	64120.5	0.3
1730	20813	64120.707777968109	0.2
1730	20819	64121.011992073349	0.3
1730	21842	67320.2	0.2
1730	21845	67320.4	0.2
1730	21852	67320.619429524974	0.2
1730	21860	67320.929923338644	0.3
1730	22879	70520.1	0.1
1730	22882	70520.3	0.2
1730	22886	70520.5097608803	0.2
1730	22893	70520.825957935402	0.3
1730	23908	73720.2	0.2
1730	23912	73720.403195024619	0.2
1730	23916	73720.60926623779	0.2
1730	23930	73720.863576323411	0.2
1730	24956	76920.1	0.1
1730	24960	76920.4	0.3
1730	24965	76920.706402168737	0.3
1730	24972	76920.926097550013	0.2
1730	25979	80120.2	0.2
1730	25983	80120.5	0.3
1730	25988	80120.718434160946	0.2
1730	26001	80120.971901318022	0.2
1730	27023	83320.1	0.1
1730	27026	83320.3	0.2
1730	27031	83320.510981004093	0.2
1730	27036	83320.717167747913	0.2
1730	28056	86520.1	0.1
1730	28060	86520.4	0.3
1730	28064	86520.607044495067	0.2
1730	28068	86520.815805344048	0.2
1730	29104	89720.2	0.2
1730	29107	89720.4	0.2
1730	29112	89720.708440747656	0.3
1730	29125	89720.952308318756	0.2
1730	30167	92920.2	0.2
1730	30172	92920.504534474683	0.3
1730	30176	92920.708678583958	0.2
1730	30182	92920.918410848272	0.2
1730	31234	96120.2	0.2
1730	31238	96120.5	0.3
1730	31243	96120.803901777984	0.3
1730	31248	96121.014574214563	0.2
1730	32245	99320.1	0.1
1730	32252	99320.419652319858	0.3
1730	32257	99320.627446272401	0.2
1730	32261	99320.836865911884	0.2
1730	33303	102520.1	0.1
1730	33306	102520.3	0.2
1730	33314	102520.519815751552	0.2
1730	33329	102520.786951954935	0.2
1730	34338	105720	0
1730	34342	105720.3	0.3
1730	34348	105720.617159254031	0.3
1730	34353	105720.828838989826	0.2
1730	35383	108920.2	0.2
1730	35387	108920.5	0.3
1730	35393	108920.816680264742	0.3
1730	35397	108921.022232499282	0.2
1730	36424	112120.1	0.1
1730	36428	112120.4	0.3
1730	36432	112120.607978299015	0.2
1730	36437	112120.912427733123	0.3
1730	37477	115320.2	0.2
1730	37480	115320.4	0.2
1730	37485	115320.709851923906	0.3
1730	37489	115320.916596787278	0.2
1730	38529	118520.1	0.1
1730	38533	118520.4	0.3
1730	38537	118520.60269923561	0.2
1730	38544	118520.819249908982	0.2
1730	39584	121720.1	0.1
1730	39588	121720.300225953322	0.2
1730	39595	121720.613026926222	0.3
1730	39599	121720.814543366553	0.2
1730	40587	124920.1	0.1
1730	40591	124920.301572501754	0.2
1730	40598	124920.522318332767	0.2
1730	40603	124920.731010578298	0.2
1730	41626	128120.1	0.1
1730	41631	128120.303165870138	0.2
1730	41636	128120.510104810002	0.2
1730	41642	128120.816851903933	0.3
1730	42702	131320.2	0.2
1730	42705	131320.4	0.2
1730	42710	131320.609274886135	0.2
1730	42715	131320.913801527822	0.3
1730	43740	134520.1	0.1
1730	43744	134520.306882269803	0.2
1730	43749	134520.611749544554	0.3
1730	43754	134520.818720601617	0.2
1730	44772	137720.1	0.1
1730	44775	137720.3	0.2
1730	44785	137720.526100459164	0.2
1730	44793	137720.834917632181	0.3
1730	45810	140920.2	0.2
1730	45814	140920.5	0.3
1730	45819	140920.716669005425	0.2
1730	45824	140921.02395964289	0.3
1730	46838	144120.2	0.2
1730	46841	144120.4	0.2
1730	46846	144120.615068365209	0.2
1730	46851	144120.924902376273	0.3
1730	47851	147320.2	0.2
1730	47856	147320.509706732493	0.3
1730	47861	147320.816608994812	0.3
1730	47883	147321.116681288938	0.2
1730	48901	150520.2	0.2
1730	48905	150520.5	0.3
1730	48911	150520.804742495151	0.3
1730	48915	150521.009607861539	0.2
1730	49934	153720.1	0.1
1730	49937	153720.3	0.2
1730	49942	153720.600092873892	0.3
1730	49946	153720.810025784373	0.2
1730	50984	156920.1	0.1
1730	50987	156920.3	0.2
1730	50992	156920.514041066293	0.2
1730	50999	156920.736406066302	0.2
1730	52031	160120.1	0.1
1730	52035	160120.4	0.3
1730	52039	160120.608334208843	0.2
1730	52043	160120.813204720019	0.2
1730	53027	163320.2	0.2
1730	53030	163320.4	0.2
1730	53035	163320.703314470511	0.3
1730	53040	163320.913264406395	0.2
1730	54069	166520.2	0.2
1730	54072	166520.4	0.2
1730	54077	166520.706291013802	0.3
1730	54082	166521.006948064721	0.3
1730	55123	169720.1	0.1
1730	55126	169720.3	0.2
1730	55130	169720.508842266357	0.2
1730	55140	169720.846942499831	0.3
1730	56122	172920.1	0.1
1730	56125	172920.3	0.2
1730	56129	172920.507364263378	0.2
1730	56133	172920.708943418713	0.2
1730	57152	176120.2	0.2
1730	57157	176120.501315736786	0.3
1730	57162	176120.802430791888	0.3
1730	57166	176121.00267106687	0.2
1730	58186	179320.1	0.1
1730	58189	179320.3	0.2
1730	58194	179320.603149265416	0.3
1730	58199	179320.815205053392	0.2
1730	59252	182520.2	0.2
1730	59255	182520.4	0.2
1730	59259	182520.608294243714	0.2
1730	59263	182520.817283239051	0.2
1730	60298	185720.1	0.1
1730	60302	185720.4	0.3
1730	60306	185720.606968996534	0.2
1730	60316	185720.931705337703	0.3
1730	61328	188920	0
1730	61334	188920.207294826681	0.2
1730	61340	188920.421657093949	0.2
1730	61345	188920.626615638447	0.2
1730	62362	192120.1	0.1
1730	62366	192120.4	0.3
1730	62370	192120.601630814904	0.2
1730	62378	192120.824799255411	0.2
1730	63411	195320.2	0.2
1730	63414	195320.4	0.2
1730	63420	195320.705483119059	0.3
1730	63424	195320.913213345729	0.2
1730	64476	198520.2	0.2
1730	64480	198520.5	0.3
1730	64484	198520.709976790728	0.2
1730	64489	198520.914468346481	0.2
1730	65514	201720.2	0.2
1730	65517	201720.4	0.2
1730	65522	201720.702796524474	0.3
1730	65529	201720.91863584232	0.2
1731	61	220.1	1
1731	65	220.4	2
1731	70	220.703196861199	2
1731	76	221.013879747804	2
1731	1129	3420.2	2
1731	1132	3420.4	1
1731	1140	3420.718046484507	2
1731	1145	3420.92928473342	1
1731	2189	6620.2	2
1731	2194	6620.50318607476	2
1731	2198	6620.71217517255	1
1731	2204	6621.023810767094	2
1731	3209	9820.1	1
1731	3212	9820.3	1
1731	3216	9820.506238913382	1
1731	3223	9820.737265459404	1
1731	4237	13020.1	1
1731	4240	13020.3	1
1731	4245	13020.602988948747	2
1731	4257	13020.848073978462	1
1731	5271	16220.1	1
1731	5275	16220.4	2
1731	5279	16220.609406768884	1
1731	5283	16220.814966718898	1
1731	6303	19420	0
1731	6306	19420.2	1
1731	6310	19420.402384072898	1
1731	6315	19420.607020014926	1
1731	7344	22620.2	2
1731	7347	22620.4	1
1731	7351	22620.607136968034	1
1731	7359	22620.839749570711	1
1731	8369	25820	0
1731	8372	25820.2	1
1731	8376	25820.400544728636	1
1731	8382	25820.61431589102	1
1731	9446	29020.1	1
1731	9450	29020.4	2
1731	9455	29020.607459644276	1
1731	9464	29020.833928649334	1
1731	10476	32220.1	1
1731	10479	32220.3	1
1731	10483	32220.501090603005	1
1731	10487	32220.710082067798	1
1731	11479	35420.1	1
1731	11482	35420.3	1
1731	11486	35420.500168595288	1