file 888411 1369674158                                          
version 2
run Stability-norelink-52-20130525-23:17:27-22103
attr configname Stability-norelink
attr datetime 20130525-23:17:27
attr experiment Stability
attr inifile omnetpp.ini
attr iterationvars $0=1e1
attr iterationvars2 "$0=1e1, $repetition=2"
attr measurement $0=1e1
attr network Network
attr processid 22103
attr repetition 2
attr replication #2
attr resultdir results
attr runnumber 52
attr seedset 52
vector 4995  Network.dyn_peer[1]  lookupHopsSig:vector  ETV
4995	33874 8612 63 137722 20.12 137.334821883134 294 0 19 1181 7669
vector 4996  Network.dyn_peer[1]  lookupStabilitySig:vector  ETV
4996	42486 9587 63 137722 20.12 137.334821883134 294 -1.375 1 146.40277777612 118.62056326903
vector 4997  Network.dyn_peer[1]  lookupTimeSig:vector  ETV
4997	52073 9165 63 137722 20.12 137.334821883134 294 0 1.8 133.3 83.01
vector 5025  Network.dyn_peer[11]  lookupHopsSig:vector  ETV
5025	317232 9215 69 137869 20.12 137.484935353389 313 0 21 1333 8719
vector 5026  Network.dyn_peer[11]  lookupStabilitySig:vector  ETV
5026	326447 10214 69 137869 20.12 137.484935353389 313 -1.625 1 146.375 115.984375
vector 5027  Network.dyn_peer[11]  lookupTimeSig:vector  ETV
5027	336661 9808 69 137869 20.12 137.484935353389 313 0 1.8 149.4 95.4
vector 5004  Network.dyn_peer[4]  lookupHopsSig:vector  ETV
5004	118867 8964 83 137254 20.15 136.840181260575 306 0 23 1317 9097
vector 5005  Network.dyn_peer[4]  lookupStabilitySig:vector  ETV
5005	127831 9968 83 137254 20.15 136.840181260575 306 -1.875 1 141.47222220898 118.92438271016
vector 5006  Network.dyn_peer[4]  lookupTimeSig:vector  ETV
5006	137799 9528 83 137254 20.15 136.840181260575 306 0 2.1 146.9 99.07
vector 4998  Network.dyn_peer[2]  lookupHopsSig:vector  ETV
4998	61238 9370 122 138303 20.23 138.175887886963 319 0 32 1339 9171
vector 4999  Network.dyn_peer[2]  lookupStabilitySig:vector  ETV
4999	70608 10410 122 138303 20.23 138.175887886963 319 -3 1 151.625 127.546875
vector 5000  Network.dyn_peer[2]  lookupTimeSig:vector  ETV
5000	81018 9977 122 138303 20.23 138.175887886963 319 0 2.7 149.7 98.37
vector 5001  Network.dyn_peer[3]  lookupHopsSig:vector  ETV
5001	90995 8778 131 138330 20.24 138.26179864682 299 0 20 1243 8345
vector 5002  Network.dyn_peer[3]  lookupStabilitySig:vector  ETV
5002	99773 9765 131 138330 20.24 138.26179864682 299 -1.5 1 143.79166662693 118.5017361376
vector 5003  Network.dyn_peer[3]  lookupTimeSig:vector  ETV
5003	109538 9329 131 138330 20.24 138.26179864682 299 0 1.9 137 87.32
vector 5031  Network.dyn_peer[13]  lookupHopsSig:vector  ETV
5031	374898 8348 135 138384 20.24 138.655240843531 283 0 26 1207 7911
vector 5032  Network.dyn_peer[13]  lookupStabilitySig:vector  ETV
5032	383246 9290 135 138384 20.24 138.655240843531 283 -2.25 1 132.20833331347 104.90798609787
vector 5033  Network.dyn_peer[13]  lookupTimeSig:vector  ETV
5033	392536 8873 135 138384 20.24 138.655240843531 283 0 2.4 133.9 84.87
vector 5034  Network.dyn_peer[14]  lookupHopsSig:vector  ETV
5034	401409 8341 145 138207 20.25 137.949880914733 283 0 19 1193 8465
vector 5035  Network.dyn_peer[14]  lookupStabilitySig:vector  ETV
5035	409750 9256 145 138207 20.25 137.949880914733 283 -1.375 1 133.875 117.015625
vector 5036  Network.dyn_peer[14]  lookupTimeSig:vector  ETV
5036	419006 8861 145 138207 20.25 137.949880914733 283 0 1.9 133.4 91.96
vector 5007  Network.dyn_peer[5]  lookupHopsSig:vector  ETV
5007	147327 9574 154 138236 20.26 138.029470167146 326 0 22 1248 7770
vector 5008  Network.dyn_peer[5]  lookupStabilitySig:vector  ETV
5008	156901 10631 154 138236 20.26 138.029470167146 326 -1.75 1 170 135.40625
vector 5009  Network.dyn_peer[5]  lookupTimeSig:vector  ETV
5009	167532 10185 154 138236 20.26 138.029470167146 326 0 2 141.8 86.44
vector 5037  Network.dyn_peer[15]  lookupHopsSig:vector  ETV
5037	427867 9416 158 138147 20.26 137.862847306411 320 0 17 1350 8698
vector 5038  Network.dyn_peer[15]  lookupStabilitySig:vector  ETV
5038	437283 10460 158 138147 20.26 137.862847306411 320 -1.125 1 151.25 118.40625
vector 5039  Network.dyn_peer[15]  lookupTimeSig:vector  ETV
5039	447743 10004 158 138147 20.26 137.862847306411 320 0 1.4 151 95.06
vector 5040  Network.dyn_peer[16]  lookupHopsSig:vector  ETV
5040	457747 8542 167 138098 20.27 137.82325298683 290 0 20 1300 8426
vector 5041  Network.dyn_peer[16]  lookupStabilitySig:vector  ETV
5041	466289 9477 167 138098 20.27 137.82325298683 290 -1.5 1 127.52777777612 96.698688269029
vector 5042  Network.dyn_peer[16]  lookupTimeSig:vector  ETV
5042	475766 9085 167 138098 20.27 137.82325298683 290 0 1.7 145.5 93.85
vector 5013  Network.dyn_peer[7]  lookupHopsSig:vector  ETV
5013	205745 8600 176 138056 20.28 137.73901621013 293 0 18 1281 8875
vector 5014  Network.dyn_peer[7]  lookupStabilitySig:vector  ETV
5014	214345 9601 176 138056 20.28 137.73901621013 293 -1.25 1 132.98611107469 111.53260027185
vector 5015  Network.dyn_peer[7]  lookupTimeSig:vector  ETV
5015	223946 9150 176 138056 20.28 137.73901621013 293 0 1.7 141.2 93.98
vector 5043  Network.dyn_peer[17]  lookupHopsSig:vector  ETV
5043	484851 8347 180 137957 20.28 137.612539077531 283 0 29 1156 7786
vector 5044  Network.dyn_peer[17]  lookupStabilitySig:vector  ETV
5044	493198 9293 180 137957 20.28 137.612539077531 283 -2.625 1 138.56944441795 115.71315584065
vector 5045  Network.dyn_peer[17]  lookupTimeSig:vector  ETV
5045	502491 8884 180 137957 20.28 137.612539077531 283 0 2.5 127 79.4
vector 5016  Network.dyn_peer[8]  lookupHopsSig:vector  ETV
5016	233096 8973 189 137241 20.29 136.834721883134 304 0 19 1316 9332
vector 5017  Network.dyn_peer[8]  lookupStabilitySig:vector  ETV
5017	242069 9992 189 137241 20.29 136.834721883134 304 -1.375 1 139.52777777612 120.86149691064
vector 5018  Network.dyn_peer[8]  lookupTimeSig:vector  ETV
5018	252061 9528 189 137241 20.29 136.834721883134 304 0 1.9 146.3 100.31
vector 4992  Network.dyn_peer[0]  lookupHopsSig:vector  ETV
4992	6396 8660 205 138167 20.31 137.896675456643 295 0 21 1237 8399
vector 4993  Network.dyn_peer[0]  lookupStabilitySig:vector  ETV
4993	15056 9609 205 138167 20.31 137.896675456643 295 -1.625 1 140.5 116.96875
vector 4994  Network.dyn_peer[0]  lookupTimeSig:vector  ETV
4994	24665 9209 205 138167 20.31 137.896675456643 295 0 1.8 138.6 91.2
vector 5052  Network.dyn_peer[20]  lookupHopsSig:vector  ETV
5052	566769 9416 209 137809 20.31 137.426198571902 320 0 16 1304 8282
vector 5053  Network.dyn_peer[20]  lookupStabilitySig:vector  ETV
5053	576185 10504 209 137809 20.31 137.426198571902 320 -1 1 157.01388888806 123.43074845532
vector 5054  Network.dyn_peer[20]  lookupTimeSig:vector  ETV
5054	586689 10022 209 137809 20.31 137.426198571902 320 0 1.4 145.8 90
vector 5082  Network.dyn_peer[30]  lookupHopsSig:vector  ETV
5082	834387 8328 215 137396 20.31 136.983878499533 283 0 21 1205 8245
vector 5083  Network.dyn_peer[30]  lookupStabilitySig:vector  ETV
5083	842715 9220 215 137396 20.31 136.983878499533 283 -1.625 1 132.5 110.5625
vector 5084  Network.dyn_peer[30]  lookupTimeSig:vector  ETV
5084	851935 8863 215 137396 20.31 136.983878499533 283 0 1.8 134.2 87.36
vector 5028  Network.dyn_peer[12]  lookupHopsSig:vector  ETV
5028	346469 8960 228 137895 20.33 137.517994843311 305 0 19 1247 8005
vector 5029  Network.dyn_peer[12]  lookupStabilitySig:vector  ETV
5029	355429 9951 228 137895 20.33 137.517994843311 305 -1.375 1 149.30555558205 118.13503084065
vector 5030  Network.dyn_peer[12]  lookupTimeSig:vector  ETV
5030	365380 9518 228 137895 20.33 137.517994843311 305 0 1.7 139.6 88.34
vector 5010  Network.dyn_peer[6]  lookupHopsSig:vector  ETV
5010	177717 8837 244 138000 20.37 137.652357081119 300 0 23 1315 9509
vector 5011  Network.dyn_peer[6]  lookupStabilitySig:vector  ETV
5011	186554 9801 244 138000 20.37 137.652357081119 300 -1.875 1 135.625 119.828125
vector 5012  Network.dyn_peer[6]  lookupTimeSig:vector  ETV
5012	196355 9390 244 138000 20.37 137.652357081119 300 0 2.1 145.9 100.39
vector 5076  Network.dyn_peer[28]  lookupHopsSig:vector  ETV
5076	781094 8791 256 137544 20.39 137.121754849289 299 0 22 1229 8179
vector 5077  Network.dyn_peer[28]  lookupStabilitySig:vector  ETV
5077	789885 9781 256 137544 20.39 137.121754849289 299 -1.75 1 145.375 119.546875
vector 5078  Network.dyn_peer[28]  lookupTimeSig:vector  ETV
5078	799666 9356 256 137544 20.39 137.121754849289 299 0.1 2 137.8 87.86
vector 5022  Network.dyn_peer[10]  lookupHopsSig:vector  ETV
5022	286990 9527 268 138406 20.41 138.950711768036 325 0 22 1286 8258
vector 5023  Network.dyn_peer[10]  lookupStabilitySig:vector  ETV
5023	296517 10578 268 138406 20.41 138.950711768036 325 -1.75 1 164.25 132.53125
vector 5024  Network.dyn_peer[10]  lookupTimeSig:vector  ETV
5024	307095 10137 268 138406 20.41 138.950711768036 325 0 1.9 146.4 92.24
vector 5061  Network.dyn_peer[23]  lookupHopsSig:vector  ETV
5061	648448 8541 283 137369 20.44 136.949740523077 292 0 17 1244 8056
vector 5062  Network.dyn_peer[23]  lookupStabilitySig:vector  ETV
5062	656989 9514 283 137369 20.44 136.949740523077 292 -1.125 1 136.58333331347 106.9826388624
vector 5063  Network.dyn_peer[23]  lookupTimeSig:vector  ETV
5063	666503 9095 283 137369 20.44 136.949740523077 292 0 1.5 139.9 89.17
vector 5064  Network.dyn_peer[24]  lookupHopsSig:vector  ETV
5064	675598 8495 291 138259 20.45 138.053403152235 288 0 22 1300 9446
vector 5065  Network.dyn_peer[24]  lookupStabilitySig:vector  ETV
5065	684093 9427 291 138259 20.45 138.053403152235 288 -1.75 1 125.56944441795 110.65065584065
vector 5066  Network.dyn_peer[24]  lookupTimeSig:vector  ETV
5066	693520 9016 291 138259 20.45 138.053403152235 288 0 2 141.8 97.36
vector 5073  Network.dyn_peer[27]  lookupHopsSig:vector  ETV
5073	756348 7800 307 137591 20.48 137.154506900301 265 0 18 1306 9790
vector 5074  Network.dyn_peer[27]  lookupStabilitySig:vector  ETV
5074	764148 8672 307 137591 20.48 137.154506900301 265 -1.25 1 101.81944441795 91.52565584065
vector 5075  Network.dyn_peer[27]  lookupTimeSig:vector  ETV
5075	772820 8274 307 137591 20.48 137.154506900301 265 0 1.8 140.4 100.64
vector 5019  Network.dyn_peer[9]  lookupHopsSig:vector  ETV
5019	261589 8005 320 137746 20.5 137.35134049618 272 0 22 1247 9421
vector 5020  Network.dyn_peer[9]  lookupStabilitySig:vector  ETV
5020	269594 8890 320 137746 20.5 137.35134049618 272 -1.75 1 116.18055555224 107.53800153806
vector 5021  Network.dyn_peer[9]  lookupTimeSig:vector  ETV
5021	278484 8506 320 137746 20.5 137.35134049618 272 0 1.8 137.9 99.29
vector 5055  Network.dyn_peer[21]  lookupHopsSig:vector  ETV
5055	596711 8270 335 138180 20.52 137.916533469886 281 0 20 1239 8561
vector 5056  Network.dyn_peer[21]  lookupStabilitySig:vector  ETV
5056	604981 9208 335 138180 20.52 137.916533469886 281 -1.5 1 126.15277777612 105.05806326903
vector 5057  Network.dyn_peer[21]  lookupTimeSig:vector  ETV
5057	614189 8792 335 138180 20.52 137.916533469886 281 0 2 138.8 94.1
vector 5070  Network.dyn_peer[26]  lookupHopsSig:vector  ETV
5070	728782 8681 362 138095 20.57 137.820783575802 295 0 21 1347 10011
vector 5071  Network.dyn_peer[26]  lookupStabilitySig:vector  ETV
5071	737463 9661 362 138095 20.57 137.820783575802 295 -1.625 1 126.625 114.671875
vector 5072  Network.dyn_peer[26]  lookupTimeSig:vector  ETV
5072	747124 9224 362 138095 20.57 137.820783575802 295 0 1.9 145.9 103.27
vector 5046  Network.dyn_peer[18]  lookupHopsSig:vector  ETV
5046	511375 8757 377 137500 20.59 137.061050224494 299 0 19 1271 8285
vector 5047  Network.dyn_peer[18]  lookupStabilitySig:vector  ETV
5047	520132 9774 377 137500 20.59 137.061050224494 299 -1.375 1 140.22222220898 110.81558640283
vector 5048  Network.dyn_peer[18]  lookupTimeSig:vector  ETV
5048	529906 9318 377 137500 20.59 137.061050224494 299 0 1.7 141.3 88.45
vector 5049  Network.dyn_peer[19]  lookupHopsSig:vector  ETV
5049	539224 8684 385 137514 20.6 137.07388975377 295 0 18 1317 9123
vector 5050  Network.dyn_peer[19]  lookupStabilitySig:vector  ETV
5050	547908 9636 385 137514 20.6 137.07388975377 295 -1.25 1 130.375 108.296875
vector 5051  Network.dyn_peer[19]  lookupTimeSig:vector  ETV
5051	557544 9225 385 137514 20.6 137.07388975377 295 0 1.7 144.9 96.03
vector 5067  Network.dyn_peer[25]  lookupHopsSig:vector  ETV
5067	702536 8273 414 137459 20.66 137.044969723839 281 0 23 1279 8909
vector 5068  Network.dyn_peer[25]  lookupStabilitySig:vector  ETV
5068	710809 9189 414 137459 20.66 137.044969723839 281 -1.875 1 121.125 100.453125
vector 5069  Network.dyn_peer[25]  lookupTimeSig:vector  ETV
5069	719998 8784 414 137459 20.66 137.044969723839 281 0 1.9 140.3 93.75
vector 5058  Network.dyn_peer[22]  lookupHopsSig:vector  ETV
5058	622981 8016 522 137853 20.83 137.465399306482 272 0 25 1252 9126
vector 5059  Network.dyn_peer[22]  lookupStabilitySig:vector  ETV
5059	630997 8938 522 137853 20.83 137.465399306482 272 -2.125 1 115.54166666418 101.66068672435
vector 5060  Network.dyn_peer[22]  lookupTimeSig:vector  ETV
5060	639935 8513 522 137853 20.83 137.465399306482 272 0 2.3 137 95.6
vector 5085  Network.dyn_peer[31]  lookupHopsSig:vector  ETV
5085	860798 8704 748 137790 21.22 137.408204480378 296 0 18 1279 8755
vector 5086  Network.dyn_peer[31]  lookupStabilitySig:vector  ETV
5086	869502 9673 748 137790 21.22 137.408204480378 296 -1.25 1 136.13888888806 113.07137345532
vector 5087  Network.dyn_peer[31]  lookupTimeSig:vector  ETV
5087	879175 9236 748 137790 21.22 137.408204480378 296 0 1.7 142.7 94.51
vector 5079  Network.dyn_peer[29]  lookupHopsSig:vector  ETV
5079	809022 7993 1013 137321 21.6 136.916793005131 272 0 26 1177 8469
vector 5080  Network.dyn_peer[29]  lookupStabilitySig:vector  ETV
5080	817015 8872 1013 137321 21.6 136.916793005131 272 -2.25 1 124.91666665673 110.1319444312
vector 5081  Network.dyn_peer[29]  lookupTimeSig:vector  ETV
5081	825887 8500 1013 137321 21.6 136.916793005131 272 0 2.5 129.7 87.59
