file 723779 1369674157                                          
version 2
run Stability-norelink-5-20130525-23:14:57-22103
attr configname Stability-norelink
attr datetime 20130525-23:14:57
attr experiment Stability
attr inifile omnetpp.ini
attr iterationvars $0=1e6
attr iterationvars2 "$0=1e6, $repetition=5"
attr measurement $0=1e6
attr network Network
attr processid 22103
attr repetition 5
attr replication #5
attr resultdir results
attr runnumber 5
attr seedset 5
vector 480  Network.dyn_peer[0]  lookupHopsSig:vector  ETV
480	6297 7015 29 65653 1020 2017020.761400238663 256 0 3 338 528
vector 481  Network.dyn_peer[0]  lookupStabilitySig:vector  ETV
481	13312 7899 29 65653 1020 2017020.761400238663 256 0.625 1 213.75 179.75
vector 482  Network.dyn_peer[0]  lookupTimeSig:vector  ETV
482	21211 7503 29 65653 1020 2017020.761400238663 256 0 0.4 53 12.4
vector 483  Network.dyn_peer[1]  lookupHopsSig:vector  ETV
483	28714 6976 62 65699 2020.2 2018020.801471629567 256 0 2 332 502
vector 484  Network.dyn_peer[1]  lookupStabilitySig:vector  ETV
484	35690 7879 62 65699 2020.2 2018020.801471629567 256 0.75 1 214.5 180.84375
vector 485  Network.dyn_peer[1]  lookupTimeSig:vector  ETV
485	43569 7470 62 65699 2020.2 2018020.801471629567 256 0 0.3 52.4 12.06
vector 486  Network.dyn_peer[2]  lookupHopsSig:vector  ETV
486	51039 6945 92 65734 3020 2019020.94017146018 256 0 3 351 565
vector 487  Network.dyn_peer[2]  lookupStabilitySig:vector  ETV
487	57984 7835 92 65734 3020 2019020.94017146018 256 0.625 1 212.125 177.078125
vector 488  Network.dyn_peer[2]  lookupTimeSig:vector  ETV
488	65819 7439 92 65734 3020 2019020.94017146018 256 0 0.4 54.3 13.01
vector 489  Network.dyn_peer[3]  lookupHopsSig:vector  ETV
489	73258 6984 122 65770 4020.1 2020020.941140965625 256 0 3 344 540
vector 490  Network.dyn_peer[3]  lookupStabilitySig:vector  ETV
490	80242 7891 122 65770 4020.1 2020020.941140965625 256 0.625 1 213 178.4375
vector 491  Network.dyn_peer[3]  lookupTimeSig:vector  ETV
491	88133 7482 122 65770 4020.1 2020020.941140965625 256 0 0.4 53.6 12.48
vector 492  Network.dyn_peer[4]  lookupHopsSig:vector  ETV
492	95615 6964 154 65803 5020.1 2021020.742888891259 256 0 2 347 537
vector 493  Network.dyn_peer[4]  lookupStabilitySig:vector  ETV
493	102579 7877 154 65803 5020.1 2021020.742888891259 256 0.75 1 212.625 177.640625
vector 494  Network.dyn_peer[4]  lookupTimeSig:vector  ETV
494	110456 7468 154 65803 5020.1 2021020.742888891259 256 0 0.3 53.9 12.47
vector 495  Network.dyn_peer[5]  lookupHopsSig:vector  ETV
495	117924 6995 185 65850 6020.1 2022021.000447144474 256 0 3 338 512
vector 496  Network.dyn_peer[5]  lookupStabilitySig:vector  ETV
496	124919 7919 185 65850 6020.1 2022021.000447144474 256 0.625 1 213.75 179.5
vector 497  Network.dyn_peer[5]  lookupTimeSig:vector  ETV
497	132838 7499 185 65850 6020.1 2022021.000447144474 256 0 0.4 53 12.12
vector 498  Network.dyn_peer[6]  lookupHopsSig:vector  ETV
498	140337 7010 222 65880 7020.2 2023020.918630438157 256 0 3 354 576
vector 499  Network.dyn_peer[6]  lookupStabilitySig:vector  ETV
499	147347 7899 222 65880 7020.2 2023020.918630438157 256 0.625 1 211.75 176.5
vector 500  Network.dyn_peer[6]  lookupTimeSig:vector  ETV
500	155246 7504 222 65880 7020.2 2023020.918630438157 256 0 0.4 54.6 13.12
vector 501  Network.dyn_peer[7]  lookupHopsSig:vector  ETV
501	162750 7057 257 65909 8020.1 2024020.712124756278 256 0 2 327 493
vector 502  Network.dyn_peer[7]  lookupStabilitySig:vector  ETV
502	169807 7950 257 65909 8020.1 2024020.712124756278 256 0.75 1 215.125 181.953125
vector 503  Network.dyn_peer[7]  lookupTimeSig:vector  ETV
503	177757 7545 257 65909 8020.1 2024020.712124756278 256 0 0.3 51.9 11.97
vector 504  Network.dyn_peer[8]  lookupHopsSig:vector  ETV
504	185302 7025 286 65942 9020.2 2025020.829624855771 256 0 2 332 500
vector 505  Network.dyn_peer[8]  lookupStabilitySig:vector  ETV
505	192327 7933 286 65942 9020.2 2025020.829624855771 256 0.75 1 214.5 180.8125
vector 506  Network.dyn_peer[8]  lookupTimeSig:vector  ETV
506	200260 7521 286 65942 9020.2 2025020.829624855771 256 0 0.3 52.4 11.92
vector 507  Network.dyn_peer[9]  lookupHopsSig:vector  ETV
507	207781 7002 317 65978 10020.1 2026021.043131651766 256 0 3 336 520
vector 508  Network.dyn_peer[9]  lookupStabilitySig:vector  ETV
508	214783 7900 317 65978 10020.1 2026021.043131651766 256 0.625 1 214 180.125
vector 509  Network.dyn_peer[9]  lookupTimeSig:vector  ETV
509	222683 7494 317 65978 10020.1 2026021.043131651766 256 0 0.4 52.8 12.38
vector 510  Network.dyn_peer[10]  lookupHopsSig:vector  ETV
510	230177 7034 348 66016 11020.2 2027020.761511237658 256 0 3 344 536
vector 511  Network.dyn_peer[10]  lookupStabilitySig:vector  ETV
511	237211 7944 348 66016 11020.2 2027020.761511237658 256 0.625 1 213 178.375
vector 512  Network.dyn_peer[10]  lookupTimeSig:vector  ETV
512	245155 7534 348 66016 11020.2 2027020.761511237658 256 0 0.4 53.6 12.48
vector 513  Network.dyn_peer[11]  lookupHopsSig:vector  ETV
513	252689 6958 381 66046 12020.2 2028020.820315060888 256 0 3 370 628
vector 514  Network.dyn_peer[11]  lookupStabilitySig:vector  ETV
514	259647 7842 381 66046 12020.2 2028020.820315060888 256 0.625 1 209.75 173.3125
vector 515  Network.dyn_peer[11]  lookupTimeSig:vector  ETV
515	267489 7454 381 66046 12020.2 2028020.820315060888 256 0 0.4 56.2 13.68
vector 516  Network.dyn_peer[12]  lookupHopsSig:vector  ETV
516	274943 7035 414 66077 13020 2029020.71249720227 256 0 3 347 545
vector 517  Network.dyn_peer[12]  lookupStabilitySig:vector  ETV
517	281978 7935 414 66077 13020 2029020.71249720227 256 0.625 1 212.625 177.765625
vector 518  Network.dyn_peer[12]  lookupTimeSig:vector  ETV
518	289913 7533 414 66077 13020 2029020.71249720227 256 0 0.4 53.9 12.59
vector 519  Network.dyn_peer[13]  lookupHopsSig:vector  ETV
519	297446 6972 448 66107 14020.2 2030020.906899795033 256 0 3 341 529
vector 520  Network.dyn_peer[13]  lookupStabilitySig:vector  ETV
520	304418 7880 448 66107 14020.2 2030020.906899795033 256 0.625 1 213.375 179.015625
vector 521  Network.dyn_peer[13]  lookupTimeSig:vector  ETV
521	312298 7470 448 66107 14020.2 2030020.906899795033 256 0 0.4 53.3 12.41
vector 522  Network.dyn_peer[14]  lookupHopsSig:vector  ETV
522	319768 6969 478 66142 15020.1 2031020.835285613069 256 0 2 335 523
vector 523  Network.dyn_peer[14]  lookupStabilitySig:vector  ETV
523	326737 7839 478 66142 15020.1 2031020.835285613069 256 0.75 1 214.125 180.421875
vector 524  Network.dyn_peer[14]  lookupTimeSig:vector  ETV
524	334576 7451 478 66142 15020.1 2031020.835285613069 256 0 0.3 52.7 12.47
vector 525  Network.dyn_peer[15]  lookupHopsSig:vector  ETV
525	342027 7032 510 66174 16020.1 2032020.922450191412 256 0 3 336 512
vector 526  Network.dyn_peer[15]  lookupStabilitySig:vector  ETV
526	349059 7943 510 66174 16020.1 2032020.922450191412 256 0.625 1 214 180
vector 527  Network.dyn_peer[15]  lookupTimeSig:vector  ETV
527	357002 7530 510 66174 16020.1 2032020.922450191412 256 0 0.4 52.8 12.24
vector 528  Network.dyn_peer[16]  lookupHopsSig:vector  ETV
528	364532 6980 539 66206 17020.1 2033021.01545717093 256 0 2 339 527
vector 529  Network.dyn_peer[16]  lookupStabilitySig:vector  ETV
529	371512 7866 539 66206 17020.1 2033021.01545717093 256 0.75 1 213.625 179.484375
vector 530  Network.dyn_peer[16]  lookupTimeSig:vector  ETV
530	379378 7470 539 66206 17020.1 2033021.01545717093 256 0 0.3 53.1 12.53
vector 531  Network.dyn_peer[17]  lookupHopsSig:vector  ETV
531	386848 7066 572 66241 18020.1 2034020.935139090435 256 0 3 351 557
vector 532  Network.dyn_peer[17]  lookupStabilitySig:vector  ETV
532	393914 7969 572 66241 18020.1 2034020.935139090435 256 0.625 1 212.125 176.953125
vector 533  Network.dyn_peer[17]  lookupTimeSig:vector  ETV
533	401883 7566 572 66241 18020.1 2034020.935139090435 256 0 0.4 54.3 12.73
vector 534  Network.dyn_peer[18]  lookupHopsSig:vector  ETV
534	409449 6974 607 66273 19020.2 2035020.83899182342 256 0 3 347 543
vector 535  Network.dyn_peer[18]  lookupStabilitySig:vector  ETV
535	416423 7879 607 66273 19020.2 2035020.83899182342 256 0.625 1 212.625 177.734375
vector 536  Network.dyn_peer[18]  lookupTimeSig:vector  ETV
536	424302 7474 607 66273 19020.2 2035020.83899182342 256 0 0.4 53.9 12.55
vector 537  Network.dyn_peer[19]  lookupHopsSig:vector  ETV
537	431776 7039 635 66302 20020.1 2036020.809582453504 256 0 3 356 578
vector 538  Network.dyn_peer[19]  lookupStabilitySig:vector  ETV
538	438815 7936 635 66302 20020.1 2036020.809582453504 256 0.625 1 211.5 176.03125
vector 539  Network.dyn_peer[19]  lookupTimeSig:vector  ETV
539	446751 7537 635 66302 20020.1 2036020.809582453504 256 0 0.4 54.8 12.94
vector 540  Network.dyn_peer[20]  lookupHopsSig:vector  ETV
540	454288 7106 668 66338 21020 2037020.939719529449 256 0 2 345 539
vector 541  Network.dyn_peer[20]  lookupStabilitySig:vector  ETV
541	461394 8001 668 66338 21020 2037020.939719529449 256 0.75 1 212.875 178.171875
vector 542  Network.dyn_peer[20]  lookupTimeSig:vector  ETV
542	469395 7602 668 66338 21020 2037020.939719529449 256 0 0.3 53.7 12.63
vector 543  Network.dyn_peer[21]  lookupHopsSig:vector  ETV
543	476997 7004 699 66369 22020.2 2038021.010706265507 256 0 3 347 549
vector 544  Network.dyn_peer[21]  lookupStabilitySig:vector  ETV
544	484001 7901 699 66369 22020.2 2038021.010706265507 256 0.625 1 212.625 177.828125
vector 545  Network.dyn_peer[21]  lookupTimeSig:vector  ETV
545	491902 7500 699 66369 22020.2 2038021.010706265507 256 0 0.4 53.9 12.73
vector 546  Network.dyn_peer[22]  lookupHopsSig:vector  ETV
546	499402 7080 730 66399 23020.1 2039020.903870056338 256 0 3 342 532
vector 547  Network.dyn_peer[22]  lookupStabilitySig:vector  ETV
547	506482 7980 730 66399 23020.1 2039020.903870056338 256 0.625 1 213.25 178.8125
vector 548  Network.dyn_peer[22]  lookupTimeSig:vector  ETV
548	514462 7576 730 66399 23020.1 2039020.903870056338 256 0 0.4 53.4 12.44
vector 549  Network.dyn_peer[23]  lookupHopsSig:vector  ETV
549	522038 7097 760 66428 24020.2 2040020.805574319394 256 0 3 360 588
vector 550  Network.dyn_peer[23]  lookupStabilitySig:vector  ETV
550	529135 7995 760 66428 24020.2 2040020.805574319394 256 0.625 1 211 175.1875
vector 551  Network.dyn_peer[23]  lookupTimeSig:vector  ETV
551	537130 7597 760 66428 24020.2 2040020.805574319394 256 0 0.3 55.2 13.06
vector 552  Network.dyn_peer[24]  lookupHopsSig:vector  ETV
552	544727 6955 794 66461 25020.1 2041020.832825000714 256 0 3 350 544
vector 553  Network.dyn_peer[24]  lookupStabilitySig:vector  ETV
553	551682 7877 794 66461 25020.1 2041020.832825000714 256 0.625 1 212.25 177
vector 554  Network.dyn_peer[24]  lookupTimeSig:vector  ETV
554	559559 7463 794 66461 25020.1 2041020.832825000714 256 0 0.4 54.2 12.52
vector 555  Network.dyn_peer[25]  lookupHopsSig:vector  ETV
555	567022 6934 831 66495 26020.2 2042020.928496806721 256 0 2 349 549
vector 556  Network.dyn_peer[25]  lookupStabilitySig:vector  ETV
556	573956 7830 831 66495 26020.2 2042020.928496806721 256 0.75 1 212.375 177.328125
vector 557  Network.dyn_peer[25]  lookupTimeSig:vector  ETV
557	581786 7432 831 66495 26020.2 2042020.928496806721 256 0 0.3 54.1 12.75
vector 558  Network.dyn_peer[26]  lookupHopsSig:vector  ETV
558	589218 7069 863 66525 27020.1 2043020.906411211856 256 0 3 345 551
vector 559  Network.dyn_peer[26]  lookupStabilitySig:vector  ETV
559	596287 7962 863 66525 27020.1 2043020.906411211856 256 0.625 1 212.875 178.359375
vector 560  Network.dyn_peer[26]  lookupTimeSig:vector  ETV
560	604249 7561 863 66525 27020.1 2043020.906411211856 256 0 0.4 53.7 12.67
vector 561  Network.dyn_peer[27]  lookupHopsSig:vector  ETV
561	611810 6978 891 66557 28020.1 2044020.819740058539 256 0 3 343 543
vector 562  Network.dyn_peer[27]  lookupStabilitySig:vector  ETV
562	618788 7892 891 66557 28020.1 2044020.819740058539 256 0.625 1 213.125 178.734375
vector 563  Network.dyn_peer[27]  lookupTimeSig:vector  ETV
563	626680 7476 891 66557 28020.1 2044020.819740058539 256 0 0.4 53.5 12.55
vector 564  Network.dyn_peer[28]  lookupHopsSig:vector  ETV
564	634156 6958 921 66598 29020.1 2045021.056395506662 256 0 3 347 557
vector 565  Network.dyn_peer[28]  lookupStabilitySig:vector  ETV
565	641114 7863 921 66598 29020.1 2045021.056395506662 256 0.625 1 212.625 177.953125
vector 566  Network.dyn_peer[28]  lookupTimeSig:vector  ETV
566	648977 7454 921 66598 29020.1 2045021.056395506662 256 0 0.4 53.9 12.67
vector 567  Network.dyn_peer[29]  lookupHopsSig:vector  ETV
567	656431 7014 955 66631 30020.2 2046021.030485445078 256 0 2 338 522
vector 568  Network.dyn_peer[29]  lookupStabilitySig:vector  ETV
568	663445 7906 955 66631 30020.2 2046021.030485445078 256 0.75 1 213.75 179.65625
vector 569  Network.dyn_peer[29]  lookupTimeSig:vector  ETV
569	671351 7506 955 66631 30020.2 2046021.030485445078 256 0 0.3 53 12.3
vector 570  Network.dyn_peer[30]  lookupHopsSig:vector  ETV
570	678857 7074 989 66660 31020.2 2047020.711310325343 256 0 3 358 584
vector 571  Network.dyn_peer[30]  lookupStabilitySig:vector  ETV
571	685931 7955 989 66660 31020.2 2047020.711310325343 256 0.625 1 211.25 175.625
vector 572  Network.dyn_peer[30]  lookupTimeSig:vector  ETV
572	693886 7568 989 66660 31020.2 2047020.711310325343 256 0 0.4 55 13.18
vector 573  Network.dyn_peer[31]  lookupHopsSig:vector  ETV
573	701454 6995 1019 66695 32020.2 2048020.927321436916 256 0 2 340 540
vector 574  Network.dyn_peer[31]  lookupStabilitySig:vector  ETV
574	708449 7855 1019 66695 32020.2 2048020.927321436916 256 0.75 1 213.5 179.4375
vector 575  Network.dyn_peer[31]  lookupTimeSig:vector  ETV
575	716304 7475 1019 66695 32020.2 2048020.927321436916 256 0 0.3 53.2 12.5
