version 2
run Stability-norelink-105-20130525-23:21:01-22103
attr configname Stability-norelink
attr datetime 20130525-23:21:01
attr experiment Stability
attr inifile omnetpp.ini
attr iterationvars $0=1e-4
attr iterationvars2 "$0=1e-4, $repetition=5"
attr measurement $0=1e-4
attr network Network
attr processid 22103
attr repetition 5
attr replication #5
attr resultdir results
attr runnumber 105
attr seedset 105

vector 10089  Network.dyn_peer[3]  lookupHopsSig:vector  ETV
vector 10090  Network.dyn_peer[3]  lookupStabilitySig:vector  ETV
vector 10091  Network.dyn_peer[3]  lookupTimeSig:vector  ETV
vector 10095  Network.dyn_peer[5]  lookupHopsSig:vector  ETV
vector 10096  Network.dyn_peer[5]  lookupStabilitySig:vector  ETV
vector 10097  Network.dyn_peer[5]  lookupTimeSig:vector  ETV
vector 10119  Network.dyn_peer[13]  lookupHopsSig:vector  ETV
vector 10120  Network.dyn_peer[13]  lookupStabilitySig:vector  ETV
vector 10121  Network.dyn_peer[13]  lookupTimeSig:vector  ETV
vector 10128  Network.dyn_peer[16]  lookupHopsSig:vector  ETV
vector 10129  Network.dyn_peer[16]  lookupStabilitySig:vector  ETV
vector 10130  Network.dyn_peer[16]  lookupTimeSig:vector  ETV
vector 10152  Network.dyn_peer[24]  lookupHopsSig:vector  ETV
vector 10153  Network.dyn_peer[24]  lookupStabilitySig:vector  ETV
vector 10154  Network.dyn_peer[24]  lookupTimeSig:vector  ETV
vector 10164  Network.dyn_peer[28]  lookupHopsSig:vector  ETV
vector 10165  Network.dyn_peer[28]  lookupStabilitySig:vector  ETV
vector 10166  Network.dyn_peer[28]  lookupTimeSig:vector  ETV
vector 10080  Network.dyn_peer[0]  lookupHopsSig:vector  ETV
vector 10081  Network.dyn_peer[0]  lookupStabilitySig:vector  ETV
vector 10082  Network.dyn_peer[0]  lookupTimeSig:vector  ETV
vector 10086  Network.dyn_peer[2]  lookupHopsSig:vector  ETV
vector 10087  Network.dyn_peer[2]  lookupStabilitySig:vector  ETV
vector 10088  Network.dyn_peer[2]  lookupTimeSig:vector  ETV
vector 10101  Network.dyn_peer[7]  lookupHopsSig:vector  ETV
vector 10102  Network.dyn_peer[7]  lookupStabilitySig:vector  ETV
vector 10103  Network.dyn_peer[7]  lookupTimeSig:vector  ETV
vector 10104  Network.dyn_peer[8]  lookupHopsSig:vector  ETV
vector 10105  Network.dyn_peer[8]  lookupStabilitySig:vector  ETV
vector 10106  Network.dyn_peer[8]  lookupTimeSig:vector  ETV
vector 10107  Network.dyn_peer[9]  lookupHopsSig:vector  ETV
vector 10108  Network.dyn_peer[9]  lookupStabilitySig:vector  ETV
vector 10109  Network.dyn_peer[9]  lookupTimeSig:vector  ETV
vector 10113  Network.dyn_peer[11]  lookupHopsSig:vector  ETV
vector 10114  Network.dyn_peer[11]  lookupStabilitySig:vector  ETV
vector 10115  Network.dyn_peer[11]  lookupTimeSig:vector  ETV
vector 10140  Network.dyn_peer[20]  lookupHopsSig:vector  ETV
vector 10141  Network.dyn_peer[20]  lookupStabilitySig:vector  ETV
vector 10142  Network.dyn_peer[20]  lookupTimeSig:vector  ETV
vector 10146  Network.dyn_peer[22]  lookupHopsSig:vector  ETV
vector 10147  Network.dyn_peer[22]  lookupStabilitySig:vector  ETV
vector 10148  Network.dyn_peer[22]  lookupTimeSig:vector  ETV
vector 10092  Network.dyn_peer[4]  lookupHopsSig:vector  ETV
vector 10093  Network.dyn_peer[4]  lookupStabilitySig:vector  ETV
vector 10094  Network.dyn_peer[4]  lookupTimeSig:vector  ETV
vector 10110  Network.dyn_peer[10]  lookupHopsSig:vector  ETV
vector 10111  Network.dyn_peer[10]  lookupStabilitySig:vector  ETV
vector 10112  Network.dyn_peer[10]  lookupTimeSig:vector  ETV
vector 10116  Network.dyn_peer[12]  lookupHopsSig:vector  ETV
vector 10117  Network.dyn_peer[12]  lookupStabilitySig:vector  ETV
vector 10118  Network.dyn_peer[12]  lookupTimeSig:vector  ETV
vector 10122  Network.dyn_peer[14]  lookupHopsSig:vector  ETV
vector 10123  Network.dyn_peer[14]  lookupStabilitySig:vector  ETV
vector 10124  Network.dyn_peer[14]  lookupTimeSig:vector  ETV
vector 10131  Network.dyn_peer[17]  lookupHopsSig:vector  ETV
vector 10132  Network.dyn_peer[17]  lookupStabilitySig:vector  ETV
vector 10133  Network.dyn_peer[17]  lookupTimeSig:vector  ETV
vector 10149  Network.dyn_peer[23]  lookupHopsSig:vector  ETV
vector 10150  Network.dyn_peer[23]  lookupStabilitySig:vector  ETV
vector 10151  Network.dyn_peer[23]  lookupTimeSig:vector  ETV
vector 10170  Network.dyn_peer[30]  lookupHopsSig:vector  ETV
vector 10171  Network.dyn_peer[30]  lookupStabilitySig:vector  ETV
vector 10172  Network.dyn_peer[30]  lookupTimeSig:vector  ETV
vector 10083  Network.dyn_peer[1]  lookupHopsSig:vector  ETV
vector 10084  Network.dyn_peer[1]  lookupStabilitySig:vector  ETV
vector 10085  Network.dyn_peer[1]  lookupTimeSig:vector  ETV
vector 10098  Network.dyn_peer[6]  lookupHopsSig:vector  ETV
vector 10099  Network.dyn_peer[6]  lookupStabilitySig:vector  ETV
vector 10100  Network.dyn_peer[6]  lookupTimeSig:vector  ETV
vector 10125  Network.dyn_peer[15]  lookupHopsSig:vector  ETV
vector 10126  Network.dyn_peer[15]  lookupStabilitySig:vector  ETV
vector 10127  Network.dyn_peer[15]  lookupTimeSig:vector  ETV
vector 10134  Network.dyn_peer[18]  lookupHopsSig:vector  ETV
vector 10135  Network.dyn_peer[18]  lookupStabilitySig:vector  ETV
vector 10136  Network.dyn_peer[18]  lookupTimeSig:vector  ETV
vector 10143  Network.dyn_peer[21]  lookupHopsSig:vector  ETV
vector 10144  Network.dyn_peer[21]  lookupStabilitySig:vector  ETV
vector 10145  Network.dyn_peer[21]  lookupTimeSig:vector  ETV
vector 10155  Network.dyn_peer[25]  lookupHopsSig:vector  ETV
vector 10156  Network.dyn_peer[25]  lookupStabilitySig:vector  ETV
vector 10157  Network.dyn_peer[25]  lookupTimeSig:vector  ETV
vector 10173  Network.dyn_peer[31]  lookupHopsSig:vector  ETV
vector 10174  Network.dyn_peer[31]  lookupStabilitySig:vector  ETV
vector 10175  Network.dyn_peer[31]  lookupTimeSig:vector  ETV
vector 10137  Network.dyn_peer[19]  lookupHopsSig:vector  ETV
vector 10138  Network.dyn_peer[19]  lookupStabilitySig:vector  ETV
vector 10139  Network.dyn_peer[19]  lookupTimeSig:vector  ETV
vector 10158  Network.dyn_peer[26]  lookupHopsSig:vector  ETV
vector 10159  Network.dyn_peer[26]  lookupStabilitySig:vector  ETV
vector 10160  Network.dyn_peer[26]  lookupTimeSig:vector  ETV
vector 10167  Network.dyn_peer[29]  lookupHopsSig:vector  ETV
vector 10168  Network.dyn_peer[29]  lookupStabilitySig:vector  ETV
vector 10169  Network.dyn_peer[29]  lookupTimeSig:vector  ETV
vector 10161  Network.dyn_peer[27]  lookupHopsSig:vector  ETV
vector 10162  Network.dyn_peer[27]  lookupStabilitySig:vector  ETV
vector 10163  Network.dyn_peer[27]  lookupTimeSig:vector  ETV
10080	150	20.1000001	1
10080	592	20.806624280133	6
10080	1140	21.406724380133	6
10080	1378	21.606724380133	1
10080	2213	22.212546590482	5
10080	2541	22.418863084275	1
10080	2840	22.625865344251	0
10080	3172	22.925865344251	2
10080	3376	23.132076525189	1
10080	4272	23.934556569185	8
10080	4336	24.025765344251	5
10080	4502	24.14295825707	1
10080	4743	24.346046464137	1
10080	5499	25.054387961451	7
10080	6562	26.154387961451	10
10080	7588	27.054488061451	9
10080	7928	27.354488061451	2
10080	10298	29.362379340383	22
10080	10987	29.969254740646	6
10080	11272	30.174188485366	1
10080	11484	30.312553153682	8
10080	11819	30.580896508748	4
10080	11876	30.618792317936	2
10080	12066	30.799050197591	1
10080	12068	30.800377143953	6
10080	12991	31.500477243953	8
10080	13492	32.000477243953	4
10080	14196	32.605286855949	6
10080	14289	32.693051562232	3
10080	14720	32.99828334224	3
10080	14895	33.204784195719	1
10080	15198	33.508614796146	2
10080	15424	33.710817604006	1
10080	16362	34.510917704006	8
10080	17657	35.404279029947	3
10080	18528	36.107456526471	7
10080	20535	37.907456526471	20
10080	20992	38.210259960853	3
10080	21001	38.211345602573	3
10080	21743	38.718283682831	4
10080	21802	38.769477023116	3
10080	22107	39.031165260895	1
10080	22299	39.215908138643	10
10080	22337	39.235743733783	1
10080	22381	39.292553296559	1
10080	22515	39.417333309711	1
10080	23387	40.220702275933	8
10080	24293	41.020702275933	7
10080	24630	41.32275741233	1
10080	24635	41.324060643442	4
10080	26023	42.524160743442	13
10080	26259	42.724160743442	1
10080	26889	43.231228655288	4
10080	27028	43.337455813864	4
10080	27171	43.442699048637	1
10080	28140	44.198647687208	2
10080	28297	44.342699048637	9
10080	28578	44.516229735215	2
10080	29582	45.216329835215	7
10080	30192	45.616329835215	3
10080	30502	45.816429935215	2
10080	31508	46.516429935215	6
10080	32178	47.020954692939	4
10080	32771	47.521703542976	4
10080	33125	47.931261089618	3
10080	33683	48.439512500954	5
10080	33965	48.739512500954	2
10080	34778	49.440586782113	7
10080	35175	49.740586782113	2
10080	35993	50.45001114476	6
10080	36514	50.950705119923	4
10080	36539	50.959160609277	4
10080	36867	51.266723793131	3
10080	37279	51.57026010328	2
10080	37339	51.654657274202	6
10080	37702	51.961218099812	2
10080	38044	52.173944285285	5
10080	38366	52.374044385285	2
10080	38603	52.574044385285	1
10080	39128	52.981026869152	4
10080	39472	53.281026869152	2
10080	39691	53.487980231678	1
10080	40160	53.993490160903	5
10080	40709	54.470305133901	1
10080	41274	54.877755426403	3
10080	42091	55.477855526403	6
10080	42541	55.777855526403	2
10080	42801	55.980088638674	2
10080	43135	56.280088638674	2
10080	43239	56.380188738674	1
10080	43617	56.680188738674	2
10080	43841	56.880873839764	1
10080	43878	56.901473439501	1
10080	44709	57.588579688443	6
10080	45156	57.984100416253	11
10080	45163	57.991691882117	3
10080	45177	58.002623883923	11
10080	45383	58.18636604189	1
10080	45624	58.38843586187	2
10080	46005	58.68843586187	2
10080	46363	58.993188482184	2
10080	46776	59.397663812547	3
10080	47132	59.7090212734	6
10080	47240	59.80118351894	4
10080	48030	60.501452406779	7
10080	48805	61.201452406779	6
10080	49420	61.802654593397	5
10080	51122	63.011413404455	14
10080	51485	63.21612977653	1
10080	52568	64.123676768726	9
10080	53253	64.723676768726	6
10080	53823	65.223776868726	5
10080	54205	65.524433233456	3
10080	54596	65.847521804995	2
10080	54741	65.967949172469	5
10080	55002	66.148498044796	2
10080	55269	66.405368630788	4
10080	55655	66.705468730788	3
10080	56351	67.307621523129	6
10080	57176	68.010822334684	4
10080	57422	68.20867908422	8
10080	57550	68.313333090016	2
10080	58307	68.917997439692	6
10080	58975	69.458374693161	1
10080	59039	69.517997439692	5
10080	59506	69.86616305418	4
10080	60041	70.274587998588	4
10080	60689	70.874587998588	5
10080	60936	71.083389309297	1
10080	61246	71.389681356464	2
10080	61586	71.689781456464	3
10080	61761	71.789781456464	0
10080	62843	72.692625739784	9
10080	63109	72.897307588509	1
10080	63117	72.906059909853	1
10080	63355	73.111679731677	2
10080	63841	73.511679731677	3
10080	64224	73.811779831677	3
10080	64967	74.311779831677	5
10080	65172	74.515328099777	1
10080	65335	74.662198246186	4
10080	65701	74.963334188261	3
10080	66079	75.263334188261	2
10080	66212	75.377765415539	2
10080	66480	75.578138843562	2
10080	66941	75.978138843562	3
10080	68028	76.787418966655	9
10080	68796	77.39324019949	5
10080	68816	77.396275642702	0
10080	69342	77.896275642702	4
10080	69750	78.199999292783	2
10080	70320	78.710271780021	5
10080	70788	79.111572116015	3
10080	70850	79.132371771678	5
10080	71442	79.633112637567	5
10080	71536	79.733112637567	1
10080	72178	80.247337724332	4
10080	72548	80.547437824332	3
10080	72992	80.84913283168	0
10080	73431	81.24913283168	3
10080	73819	81.551219037083	3
10080	74527	82.154895456839	7
10080	74666	82.254995556839	1
10080	75039	82.554995556839	3
10080	75286	82.759603602549	1
10080	75676	83.167344053148	3
10080	75763	83.256863083386	3
10080	76019	83.476716143093	2
10080	76069	83.537065216723	2
10080	76246	83.666747487499	3
10080	76802	84.072338395517	4
10080	77078	84.272338395517	1
10080	77610	84.672012843523	2
10080	77975	84.980323151366	3
10080	78330	85.280323151366	2
10080	78566	85.489692787956	1
10080	79028	85.898792933964	3
10080	79495	86.306589142273	3
10080	79576	86.368803763154	5
10080	80338	86.976887790983	6
10080	81174	87.576887790983	5
10080	81483	87.785370940254	1
10080	81531	87.834778913472	1
10080	82148	88.385976127777	6
10080	82209	88.437663776775	6
10080	82707	88.943989316133	5
10080	83401	89.446546428458	4
10080	84115	89.947095485449	4
10080	84397	90.158137016524	1
10080	84818	90.560615698966	4
10080	85170	90.865360837793	2
10080	85413	91.067585736739	1
10080	85795	91.373885201483	2
10080	85874	91.418167064154	2
10080	86066	91.577543920648	1
10080	86221	91.727364102333	2
10080	86259	91.779822186464	2
10080	86280	91.7834284645	1
10080	87233	92.5835285645	8
10080	88530	93.796334304315	4
10080	89489	94.496334304315	7
10080	89773	94.702459123307	2
10080	90436	95.209823775456	3
10080	90794	95.417019524445	1
10080	90848	95.502459123307	8
10080	91090	95.626547456354	1
10080	91531	96.035405341598	4
10080	92026	96.535405341598	6
10080	92122	96.635505441598	1
10080	92832	97.335505441598	6
10080	93458	97.937238852473	5
10080	93473	97.940673530931	5
10080	93747	98.142655436387	1
10080	93885	98.244057994345	2
10080	94144	98.451566935983	3
10080	94623	98.851566935983	3
10080	94762	98.951667035983	1
10080	95776	99.663910668735	7
10080	96014	99.867093845017	1
10080	96266	100.065597332629	1
10080	96640	100.374911007024	3
10080	97001	100.679302929211	2
10080	97175	100.779648982376	0
10080	98030	101.488685133092	7
10080	98053	101.525026082509	3
10080	98281	101.695069651678	1
10080	98532	101.89989455826	2
10080	99181	102.49989455826	5
10080	99793	103.005619361609	4
10080	100256	103.383223558887	2
10080	100523	103.586717231333	1
10080	100636	103.668772673032	1
10080	100643	103.670689911133	6
10080	100780	103.787750682221	1
10080	101631	104.494943069139	8
10080	102841	105.594943069139	10
10080	103628	106.296671615004	8
10080	103681	106.380100669065	8
10080	104080	106.682993108737	2
10080	104103	106.69010984191	2
10080	105027	107.403081656411	12
10080	105176	107.495691143132	7
10080	105432	107.695599806077	3
10080	105475	107.703796522355	1
10080	105870	108.007425363792	3
10080	106600	108.669328253424	1
10080	106971	108.969328253424	2
10080	107753	109.672511894291	6
10080	108287	110.074352756187	4
10080	108303	110.114108963477	5
10080	108850	110.632849317715	8
10080	109059	110.817220559931	6
10080	109139	110.859587212	6
10080	110131	111.666833612305	8
10080	111494	112.766833612305	10
10080	111864	113.076933896681	2
10080	112496	113.556669711035	3
10080	112886	113.783295148217	7
10080	113648	114.288703885766	6
10080	114380	114.888703885766	6
10080	114799	115.273792839088	3
10080	115307	115.677740240227	4
10080	116421	116.477740240227	8
10080	116727	116.712006575653	3
10080	116876	116.821821302183	1
10080	117647	117.433367127895	3
10080	117954	117.733367127895	2
10080	118427	118.140942757958	3
10080	118819	118.545618109644	3
10080	119079	118.750990125042	1
10080	119375	119.067051429873	2
10080	119621	119.267123395086	1
10080	120161	119.67106181774	3
10080	120306	119.800506228439	5
10080	120433	119.901896979302	1
10080	120962	120.401896979302	4
10080	121661	121.108064291328	6
10080	122213	121.515151236285	3
10080	122687	121.849612281932	3
10080	122838	122.000451733376	4
10080	122845	122.001678740137	9
10080	123173	122.258492911681	5
10080	123454	122.458593011681	2
10080	123707	122.658593011681	1
10080	124394	123.158693111681	5
10080	124830	123.515905754876	1
10080	125282	123.915905754876	3
10080	125534	124.123990656105	1
10080	125809	124.332156176675	2
10080	126277	124.732156176675	3
10080	126887	125.135317776096	3
10080	127118	125.292237538984	3
10080	127860	125.764320575711	4
10080	127910	125.793876755093	5
10080	128084	125.941280136394	8
10080	128606	126.341380236394	4
10080	129489	127.04897330402	7
10080	129786	127.24907340402	3
10080	130445	127.64907340402	4
10080	131362	128.458491475281	7
10080	132142	129.066104652121	6
10080	132559	129.375304155206	2
10080	132968	129.63932640514	3
10080	133376	129.976181641249	5
10080	133785	130.281261988777	3
10080	135148	131.360101457738	3
10080	135500	131.61768317684	10
10080	135527	131.677454492353	3
10080	135545	131.68452394328	0
10080	136225	132.28452394328	6
10080	136541	132.593050864419	2
10080	137037	133.013790664768	3
10080	137280	133.232305032216	1
10081	150	20.1000001	0.875
10081	592	20.806624280133	0.25
10081	1140	21.406724380133	0.25
10081	1378	21.606724380133	0.875
10081	2213	22.212546590482	0.375
10081	2541	22.418863084275	0.875
10081	2840	22.625865344251	1
10081	3172	22.925865344251	0.75
10081	3376	23.132076525189	0.875
10081	4272	23.934556569185	0
10081	4336	24.025765344251	0.375
10081	4502	24.14295825707	0.875
10081	4743	24.346046464137	0.875
10081	5499	25.054387961451	0.125
10081	6562	26.154387961451	-0.25
10081	7588	27.054488061451	-0.125
10081	7928	27.354488061451	0.75
10081	10298	29.362379340383	-1.75
10081	10987	29.969254740646	0.25
10081	11272	30.174188485366	0.875
10081	11484	30.312553153682	0
10081	11819	30.580896508748	0.5
10081	11876	30.618792317936	0.75
10081	12066	30.799050197591	0.875
10081	12068	30.800377143953	0.25
10081	12991	31.500477243953	0
10081	13492	32.000477243953	0.5
10081	14196	32.605286855949	0.25
10081	14289	32.693051562232	0.625
10081	14720	32.99828334224	0.625
10081	14895	33.204784195719	0.875
10081	15198	33.508614796146	0.75
10081	15424	33.710817604006	0.875
10081	16362	34.510917704006	0
10081	17657	35.404279029947	0.625
10081	18528	36.107456526471	0.125
10081	20535	37.907456526471	-1.5
10081	20992	38.210259960853	0.625
10081	21001	38.211345602573	0.625
10081	21743	38.718283682831	0.5
10081	21802	38.769477023116	0.625
10081	22107	39.031165260895	0.875
10081	22299	39.215908138643	-0.25
10081	22337	39.235743733783	0.875
10081	22381	39.292553296559	0.875
10081	22515	39.417333309711	0.875
10081	23387	40.220702275933	0
10081	24293	41.020702275933	0.125
10081	24630	41.32275741233	0.875
10081	24635	41.324060643442	0.5
10081	26023	42.524160743442	-0.625
10081	26259	42.724160743442	0.875
10081	26889	43.231228655288	0.5
10081	27028	43.337455813864	0.5
10081	27171	43.442699048637	0.875
10081	28140	44.198647687208	0.75
10081	28297	44.342699048637	-0.125
10081	28578	44.516229735215	0.75
10081	29582	45.216329835215	0.125
10081	30192	45.616329835215	0.625
10081	30502	45.816429935215	0.75
10081	31508	46.516429935215	0.25
10081	32178	47.020954692939	0.5
10081	32771	47.521703542976	0.5
10081	33125	47.931261089618	0.625
10081	33683	48.439512500954	0.375
10081	33965	48.739512500954	0.75
10081	34778	49.440586782113	0.125
10081	35175	49.740586782113	0.75
10081	35993	50.45001114476	0.25
10081	36514	50.950705119923	0.5
10081	36539	50.959160609277	0.5
10081	36867	51.266723793131	0.625
10081	37279	51.57026010328	0.75
10081	37339	51.654657274202	0.25
10081	37702	51.961218099812	0.75
10081	38044	52.173944285285	0.375
10081	38366	52.374044385285	0.77777777612209
10081	38603	52.574044385285	0.875
10081	39128	52.981026869152	0.5
10081	39472	53.281026869152	0.75
10081	39691	53.487980231678	0.875
10081	40160	53.993490160903	0.375
10081	40709	54.470305133901	0.875
10081	41274	54.877755426403	0.625
10081	42091	55.477855526403	0.25
10081	42541	55.777855526403	0.75
10081	42801	55.980088638674	0.75
10081	43135	56.280088638674	0.75
10081	43239	56.380188738674	0.875
10081	43617	56.680188738674	0.75
10081	43841	56.880873839764	0.875
10081	43878	56.901473439501	0.875
10081	44709	57.588579688443	0.25
10081	45156	57.984100416253	-0.375
10081	45163	57.991691882117	0.625
10081	45177	58.002623883923	-0.375
10081	45383	58.18636604189	0.875
10081	45624	58.38843586187	0.75
10081	46005	58.68843586187	0.75
10081	46363	58.993188482184	0.75
10081	46776	59.397663812547	0.625
10081	47132	59.7090212734	0.25
10081	47240	59.80118351894	0.5
10081	48030	60.501452406779	0.125
10081	48805	61.201452406779	0.25
10081	49420	61.802654593397	0.375
10081	51122	63.011413404455	-0.75
10081	51485	63.21612977653	0.875
10081	52568	64.123676768726	-0.125
10081	53253	64.723676768726	0.25
10081	53823	65.223776868726	0.375
10081	54205	65.524433233456	0.625
10081	54596	65.847521804995	0.75
10081	54741	65.967949172469	0.375
10081	55002	66.148498044796	0.75
10081	55269	66.405368630788	0.5
10081	55655	66.705468730788	0.625
10081	56351	67.307621523129	0.25
10081	57176	68.010822334684	0.5
10081	57422	68.20867908422	0
10081	57550	68.313333090016	0.75
10081	58307	68.917997439692	0.25
10081	58975	69.458374693161	0.875
10081	59039	69.517997439692	0.375
10081	59506	69.86616305418	0.5
10081	60041	70.274587998588	0.5
10081	60689	70.874587998588	0.375
10081	60936	71.083389309297	0.875
10081	61246	71.389681356464	0.75
10081	61586	71.689781456464	0.625
10081	61761	71.789781456464	1
10081	62843	72.692625739784	-0.125
10081	63109	72.897307588509	0.875
10081	63117	72.906059909853	0.875
10081	63355	73.111679731677	0.75
10081	63841	73.511679731677	0.625
10081	64224	73.811779831677	0.625
10081	64967	74.311779831677	0.375
10081	65172	74.515328099777	0.875
10081	65335	74.662198246186	0.5
10081	65701	74.963334188261	0.625
10081	66079	75.263334188261	0.75
10081	66212	75.377765415539	0.75
10081	66480	75.578138843562	0.75
10081	66941	75.978138843562	0.625
10081	68028	76.787418966655	-0.125
10081	68796	77.39324019949	0.375
10081	68816	77.396275642702	1
10081	69342	77.896275642702	0.5
10081	69750	78.199999292783	0.75
10081	70320	78.710271780021	0.375
10081	70788	79.111572116015	0.625
10081	70850	79.132371771678	0.375
10081	71442	79.633112637567	0.375
10081	71536	79.733112637567	0.875
10081	72178	80.247337724332	0.5
10081	72548	80.547437824332	0.625
10081	72992	80.84913283168	1
10081	73431	81.24913283168	0.625
10081	73819	81.551219037083	0.625
10081	74527	82.154895456839	0.125
10081	74666	82.254995556839	0.875
10081	75039	82.554995556839	0.625
10081	75286	82.759603602549	0.875
10081	75676	83.167344053148	0.625
10081	75763	83.256863083386	0.625
10081	76019	83.476716143093	0.75
10081	76069	83.537065216723	0.75
10081	76246	83.666747487499	0.625
10081	76802	84.072338395517	0.5
10081	77078	84.272338395517	0.875
10081	77610	84.672012843523	0.75
10081	77975	84.980323151366	0.625
10081	78330	85.280323151366	0.75
10081	78566	85.489692787956	0.875
10081	79028	85.898792933964	0.625
10081	79495	86.306589142273	0.625
10081	79576	86.368803763154	0.375
10081	80338	86.976887790983	0.25
10081	81174	87.576887790983	0.375
10081	81483	87.785370940254	0.875
10081	81531	87.834778913472	0.875
10081	82148	88.385976127777	0.25
10081	82209	88.437663776775	0.25
10081	82707	88.943989316133	0.375
10081	83401	89.446546428458	0.5
10081	84115	89.947095485449	0.5
10081	84397	90.158137016524	0.875
10081	84818	90.560615698966	0.5
10081	85170	90.865360837793	0.75
10081	85413	91.067585736739	0.875
10081	85795	91.373885201483	0.75
10081	85874	91.418167064154	0.75
10081	86066	91.577543920648	0.875
10081	86221	91.727364102333	0.75
10081	86259	91.779822186464	0.75
10081	86280	91.7834284645	0.875
10081	87233	92.5835285645	0
10081	88530	93.796334304315	0.5
10081	89489	94.496334304315	0.125
10081	89773	94.702459123307	0.75
10081	90436	95.209823775456	0.625
10081	90794	95.417019524445	0.875
10081	90848	95.502459123307	0
10081	91090	95.626547456354	0.875
10081	91531	96.035405341598	0.5
10081	92026	96.535405341598	0.25
10081	92122	96.635505441598	0.875
10081	92832	97.335505441598	0.25
10081	93458	97.937238852473	0.375
10081	93473	97.940673530931	0.375
10081	93747	98.142655436387	0.875
10081	93885	98.244057994345	0.75
10081	94144	98.451566935983	0.625
10081	94623	98.851566935983	0.625
10081	94762	98.951667035983	0.875
10081	95776	99.663910668735	0.125
10081	96014	99.867093845017	0.875
10081	96266	100.065597332629	0.875
10081	96640	100.374911007024	0.625
10081	97001	100.679302929211	0.75
10081	97175	100.779648982376	1
10081	98030	101.488685133092	0.125
10081	98053	101.525026082509	0.625
10081	98281	101.695069651678	0.875
10081	98532	101.89989455826	0.75
10081	99181	102.49989455826	0.375
10081	99793	103.005619361609	0.5
10081	100256	103.383223558887	0.75
10081	100523	103.586717231333	0.875
10081	100636	103.668772673032	0.875
10081	100643	103.670689911133	0.25
10081	100780	103.787750682221	0.875
10081	101631	104.494943069139	0
10081	102841	105.594943069139	-0.25
10081	103628	106.296671615004	0
10081	103681	106.380100669065	0
10081	104080	106.682993108737	0.75
10081	104103	106.69010984191	0.75
10081	105027	107.403081656411	-0.5
10081	105176	107.495691143132	0.125
10081	105432	107.695599806077	0.625
10081	105475	107.703796522355	0.875
10081	105870	108.007425363792	0.625
10081	106600	108.669328253424	0.875
10081	106971	108.969328253424	0.75
10081	107753	109.672511894291	0.25
10081	108287	110.074352756187	0.5
10081	108303	110.114108963477	0.375
10081	108850	110.632849317715	0
10081	109059	110.817220559931	0.25
10081	109139	110.859587212	0.25
10081	110131	111.666833612305	0
10081	111494	112.766833612305	-0.25
10081	111864	113.076933896681	0.75
10081	112496	113.556669711035	0.625
10081	112886	113.783295148217	0.125
10081	113648	114.288703885766	0.25
10081	114380	114.888703885766	0.25
10081	114799	115.273792839088	0.625
10081	115307	115.677740240227	0.55555555224419
10081	116421	116.477740240227	0
10081	116727	116.712006575653	0.625
10081	116876	116.821821302183	0.875
10081	117647	117.433367127895	0.625
10081	117954	117.733367127895	0.75
10081	118427	118.140942757958	0.625
10081	118819	118.545618109644	0.625
10081	119079	118.750990125042	0.875
10081	119375	119.067051429873	0.75
10081	119621	119.267123395086	0.875
10081	120161	119.67106181774	0.625
10081	120306	119.800506228439	0.375
10081	120433	119.901896979302	0.875
10081	120962	120.401896979302	0.5
10081	121661	121.108064291328	0.25
10081	122213	121.515151236285	0.625
10081	122687	121.849612281932	0.625
10081	122838	122.000451733376	0.5
10081	122845	122.001678740137	-0.125
10081	123173	122.258492911681	0.375
10081	123454	122.458593011681	0.75
10081	123707	122.658593011681	0.875
10081	124394	123.158693111681	0.375
10081	124830	123.515905754876	0.875
10081	125282	123.915905754876	0.625
10081	125534	124.123990656105	0.875
10081	125809	124.332156176675	0.75
10081	126277	124.732156176675	0.625
10081	126887	125.135317776096	0.625
10081	127118	125.292237538984	0.625
10081	127860	125.764320575711	0.5
10081	127910	125.793876755093	0.375
10081	128084	125.941280136394	0
10081	128606	126.341380236394	0.5
10081	129489	127.04897330402	0.125
10081	129786	127.24907340402	0.625
10081	130445	127.64907340402	0.5
10081	131362	128.458491475281	0.125
10081	132142	129.066104652121	0.25
10081	132559	129.375304155206	0.75
10081	132968	129.63932640514	0.625
10081	133376	129.976181641249	0.375
10081	133785	130.281261988777	0.66666665673256
10081	135148	131.360101457738	0.625
10081	135500	131.61768317684	-0.25
10081	135527	131.677454492353	0.625
10081	135545	131.68452394328	1
10081	136225	132.28452394328	0.25
10081	136541	132.593050864419	0.75
10081	137037	133.013790664768	0.625
10081	137280	133.232305032216	0.875
10082	150	20.1000001	0.1
10082	592	20.806624280133	0.7
10082	1140	21.406724380133	0.6
10082	1378	21.606724380133	0.2
10082	2213	22.212546590482	0.6
10082	2541	22.418863084275	0.2
10082	2840	22.625865344251	0
10082	3172	22.925865344251	0.3
10082	3376	23.132076525189	0.2
10082	4272	23.934556569185	0.8
10082	4336	24.025765344251	0.6
10082	4502	24.14295825707	0.2
10082	4743	24.346046464137	0.2
10082	5499	25.054387961451	0.7
10082	6562	26.154387961451	1.1
10082	7588	27.054488061451	0.9
10082	7928	27.354488061451	0.3
10082	10298	29.362379340383	2
10082	10987	29.969254740646	0.6
10082	11272	30.174188485366	0.2
10082	11484	30.312553153682	0.9
10082	11819	30.580896508748	0.4
10082	11876	30.618792317936	0.3
10082	12066	30.799050197591	0.2
10082	12068	30.800377143953	0.7
10082	12991	31.500477243953	0.7
10082	13492	32.000477243953	0.5
10082	14196	32.605286855949	0.6
10082	14289	32.693051562232	0.4
10082	14720	32.99828334224	0.3
10082	14895	33.204784195719	0.2
10082	15198	33.508614796146	0.3
10082	15424	33.710817604006	0.2
10082	16362	34.510917704006	0.8
10082	17657	35.404279029947	0.4
10082	18528	36.107456526471	0.7
10082	20535	37.907456526471	1.8
10082	20992	38.210259960853	0.3
10082	21001	38.211345602573	0.3
10082	21743	38.718283682831	0.5
10082	21802	38.769477023116	0.4
10082	22107	39.031165260895	0.2
10082	22299	39.215908138643	1
10082	22337	39.235743733783	0.2
10082	22381	39.292553296559	0.2
10082	22515	39.417333309711	0.2
10082	23387	40.220702275933	0.8
10082	24293	41.020702275933	0.8
10082	24630	41.32275741233	0.2
10082	24635	41.324060643442	0.3
10082	26023	42.524160743442	1.2
10082	26259	42.724160743442	0.2
10082	26889	43.231228655288	0.5
10082	27028	43.337455813864	0.5
10082	27171	43.442699048637	0.1
10082	28140	44.198647687208	0.3
10082	28297	44.342699048637	0.9
10082	28578	44.516229735215	0.3
10082	29582	45.216329835215	0.7
10082	30192	45.616329835215	0.4
10082	30502	45.816429935215	0.2
10082	31508	46.516429935215	0.7
10082	32178	47.020954692939	0.5
10082	32771	47.521703542976	0.5
10082	33125	47.931261089618	0.4
10082	33683	48.439512500954	0.5
10082	33965	48.739512500954	0.3
10082	34778	49.440586782113	0.7
10082	35175	49.740586782113	0.3
10082	35993	50.45001114476	0.7
10082	36514	50.950705119923	0.5
10082	36539	50.959160609277	0.5
10082	36867	51.266723793131	0.3
10082	37279	51.57026010328	0.3
10082	37339	51.654657274202	0.7
10082	37702	51.961218099812	0.3
10082	38044	52.173944285285	0.6
10082	38366	52.374044385285	0.2
10082	38603	52.574044385285	0.2
10082	39128	52.981026869152	0.4
10082	39472	53.281026869152	0.3
10082	39691	53.487980231678	0.2
10082	40160	53.993490160903	0.5
10082	40709	54.470305133901	0.2
10082	41274	54.877755426403	0.4
10082	42091	55.477855526403	0.6
10082	42541	55.777855526403	0.3
10082	42801	55.980088638674	0.2
10082	43135	56.280088638674	0.3
10082	43239	56.380188738674	0.1
10082	43617	56.680188738674	0.3
10082	43841	56.880873839764	0.2
10082	43878	56.901473439501	0.2
10082	44709	57.588579688443	0.6
10082	45156	57.984100416253	1.1
10082	45163	57.991691882117	0.4
10082	45177	58.002623883923	1.1
10082	45383	58.18636604189	0.2
10082	45624	58.38843586187	0.2
10082	46005	58.68843586187	0.3
10082	46363	58.993188482184	0.3
10082	46776	59.397663812547	0.4
10082	47132	59.7090212734	0.6
10082	47240	59.80118351894	0.4
10082	48030	60.501452406779	0.7
10082	48805	61.201452406779	0.7
10082	49420	61.802654593397	0.6