version 2
run Stability-norelink-106-20130525-23:21:05-22103
attr configname Stability-norelink
attr datetime 20130525-23:21:05
attr experiment Stability
attr inifile omnetpp.ini
attr iterationvars $0=1e-4
attr iterationvars2 "$0=1e-4, $repetition=6"
attr measurement $0=1e-4
attr network Network
attr processid 22103
attr repetition 6
attr replication #6
attr resultdir results
attr runnumber 106
attr seedset 106

vector 10203  Network.dyn_peer[9]  lookupHopsSig:vector  ETV
vector 10204  Network.dyn_peer[9]  lookupStabilitySig:vector  ETV
vector 10205  Network.dyn_peer[9]  lookupTimeSig:vector  ETV
vector 10209  Network.dyn_peer[11]  lookupHopsSig:vector  ETV
vector 10210  Network.dyn_peer[11]  lookupStabilitySig:vector  ETV
vector 10211  Network.dyn_peer[11]  lookupTimeSig:vector  ETV
vector 10215  Network.dyn_peer[13]  lookupHopsSig:vector  ETV
vector 10216  Network.dyn_peer[13]  lookupStabilitySig:vector  ETV
vector 10217  Network.dyn_peer[13]  lookupTimeSig:vector  ETV
vector 10227  Network.dyn_peer[17]  lookupHopsSig:vector  ETV
vector 10228  Network.dyn_peer[17]  lookupStabilitySig:vector  ETV
vector 10229  Network.dyn_peer[17]  lookupTimeSig:vector  ETV
vector 10176  Network.dyn_peer[0]  lookupHopsSig:vector  ETV
vector 10177  Network.dyn_peer[0]  lookupStabilitySig:vector  ETV
vector 10178  Network.dyn_peer[0]  lookupTimeSig:vector  ETV
vector 10179  Network.dyn_peer[1]  lookupHopsSig:vector  ETV
vector 10180  Network.dyn_peer[1]  lookupStabilitySig:vector  ETV
vector 10181  Network.dyn_peer[1]  lookupTimeSig:vector  ETV
vector 10182  Network.dyn_peer[2]  lookupHopsSig:vector  ETV
vector 10183  Network.dyn_peer[2]  lookupStabilitySig:vector  ETV
vector 10184  Network.dyn_peer[2]  lookupTimeSig:vector  ETV
vector 10200  Network.dyn_peer[8]  lookupHopsSig:vector  ETV
vector 10201  Network.dyn_peer[8]  lookupStabilitySig:vector  ETV
vector 10202  Network.dyn_peer[8]  lookupTimeSig:vector  ETV
vector 10212  Network.dyn_peer[12]  lookupHopsSig:vector  ETV
vector 10213  Network.dyn_peer[12]  lookupStabilitySig:vector  ETV
vector 10214  Network.dyn_peer[12]  lookupTimeSig:vector  ETV
vector 10218  Network.dyn_peer[14]  lookupHopsSig:vector  ETV
vector 10219  Network.dyn_peer[14]  lookupStabilitySig:vector  ETV
vector 10220  Network.dyn_peer[14]  lookupTimeSig:vector  ETV
vector 10224  Network.dyn_peer[16]  lookupHopsSig:vector  ETV
vector 10225  Network.dyn_peer[16]  lookupStabilitySig:vector  ETV
vector 10226  Network.dyn_peer[16]  lookupTimeSig:vector  ETV
vector 10230  Network.dyn_peer[18]  lookupHopsSig:vector  ETV
vector 10231  Network.dyn_peer[18]  lookupStabilitySig:vector  ETV
vector 10232  Network.dyn_peer[18]  lookupTimeSig:vector  ETV
vector 10239  Network.dyn_peer[21]  lookupHopsSig:vector  ETV
vector 10240  Network.dyn_peer[21]  lookupStabilitySig:vector  ETV
vector 10241  Network.dyn_peer[21]  lookupTimeSig:vector  ETV
vector 10242  Network.dyn_peer[22]  lookupHopsSig:vector  ETV
vector 10243  Network.dyn_peer[22]  lookupStabilitySig:vector  ETV
vector 10244  Network.dyn_peer[22]  lookupTimeSig:vector  ETV
vector 10251  Network.dyn_peer[25]  lookupHopsSig:vector  ETV
vector 10252  Network.dyn_peer[25]  lookupStabilitySig:vector  ETV
vector 10253  Network.dyn_peer[25]  lookupTimeSig:vector  ETV
vector 10185  Network.dyn_peer[3]  lookupHopsSig:vector  ETV
vector 10186  Network.dyn_peer[3]  lookupStabilitySig:vector  ETV
vector 10187  Network.dyn_peer[3]  lookupTimeSig:vector  ETV
vector 10206  Network.dyn_peer[10]  lookupHopsSig:vector  ETV
vector 10207  Network.dyn_peer[10]  lookupStabilitySig:vector  ETV
vector 10208  Network.dyn_peer[10]  lookupTimeSig:vector  ETV
vector 10221  Network.dyn_peer[15]  lookupHopsSig:vector  ETV
vector 10222  Network.dyn_peer[15]  lookupStabilitySig:vector  ETV
vector 10223  Network.dyn_peer[15]  lookupTimeSig:vector  ETV
vector 10236  Network.dyn_peer[20]  lookupHopsSig:vector  ETV
vector 10237  Network.dyn_peer[20]  lookupStabilitySig:vector  ETV
vector 10238  Network.dyn_peer[20]  lookupTimeSig:vector  ETV
vector 10245  Network.dyn_peer[23]  lookupHopsSig:vector  ETV
vector 10246  Network.dyn_peer[23]  lookupStabilitySig:vector  ETV
vector 10247  Network.dyn_peer[23]  lookupTimeSig:vector  ETV
vector 10248  Network.dyn_peer[24]  lookupHopsSig:vector  ETV
vector 10249  Network.dyn_peer[24]  lookupStabilitySig:vector  ETV
vector 10250  Network.dyn_peer[24]  lookupTimeSig:vector  ETV
vector 10254  Network.dyn_peer[26]  lookupHopsSig:vector  ETV
vector 10255  Network.dyn_peer[26]  lookupStabilitySig:vector  ETV
vector 10256  Network.dyn_peer[26]  lookupTimeSig:vector  ETV
vector 10257  Network.dyn_peer[27]  lookupHopsSig:vector  ETV
vector 10258  Network.dyn_peer[27]  lookupStabilitySig:vector  ETV
vector 10259  Network.dyn_peer[27]  lookupTimeSig:vector  ETV
vector 10260  Network.dyn_peer[28]  lookupHopsSig:vector  ETV
vector 10261  Network.dyn_peer[28]  lookupStabilitySig:vector  ETV
vector 10262  Network.dyn_peer[28]  lookupTimeSig:vector  ETV
vector 10188  Network.dyn_peer[4]  lookupHopsSig:vector  ETV
vector 10189  Network.dyn_peer[4]  lookupStabilitySig:vector  ETV
vector 10190  Network.dyn_peer[4]  lookupTimeSig:vector  ETV
vector 10191  Network.dyn_peer[5]  lookupHopsSig:vector  ETV
vector 10192  Network.dyn_peer[5]  lookupStabilitySig:vector  ETV
vector 10193  Network.dyn_peer[5]  lookupTimeSig:vector  ETV
vector 10197  Network.dyn_peer[7]  lookupHopsSig:vector  ETV
vector 10198  Network.dyn_peer[7]  lookupStabilitySig:vector  ETV
vector 10199  Network.dyn_peer[7]  lookupTimeSig:vector  ETV
vector 10233  Network.dyn_peer[19]  lookupHopsSig:vector  ETV
vector 10234  Network.dyn_peer[19]  lookupStabilitySig:vector  ETV
vector 10235  Network.dyn_peer[19]  lookupTimeSig:vector  ETV
vector 10194  Network.dyn_peer[6]  lookupHopsSig:vector  ETV
vector 10195  Network.dyn_peer[6]  lookupStabilitySig:vector  ETV
vector 10196  Network.dyn_peer[6]  lookupTimeSig:vector  ETV
vector 10263  Network.dyn_peer[29]  lookupHopsSig:vector  ETV
vector 10264  Network.dyn_peer[29]  lookupStabilitySig:vector  ETV
vector 10265  Network.dyn_peer[29]  lookupTimeSig:vector  ETV
vector 10269  Network.dyn_peer[31]  lookupHopsSig:vector  ETV
vector 10270  Network.dyn_peer[31]  lookupStabilitySig:vector  ETV
vector 10271  Network.dyn_peer[31]  lookupTimeSig:vector  ETV
vector 10266  Network.dyn_peer[30]  lookupHopsSig:vector  ETV
vector 10267  Network.dyn_peer[30]  lookupStabilitySig:vector  ETV
vector 10268  Network.dyn_peer[30]  lookupTimeSig:vector  ETV
10176	139	20.1000001	1
10176	530	20.8000001	6
10176	900	21.207609484399	3
10176	1208	21.507603995505	3
10176	1527	21.713919141019	4
10176	1540	21.717167252251	4
10176	1824	22.008975119718	4
10176	2277	22.222921042327	4
10176	2762	22.623021142327	4
10176	3391	23.129934439591	5
10176	3906	23.53644937357	5
10176	4226	23.83644937357	2
10176	4939	24.437931297913	5
10176	5297	24.743949173048	2
10176	5962	25.346282495743	5
10176	6035	25.432495553217	4
10176	6313	25.64892199881	9
10176	6602	25.934054523481	4
10176	7554	26.735958429933	10
10176	7999	27.135958429933	4
10176	8412	27.53733059714	3
10176	8572	27.658923301669	2
10176	8921	28.045781253072	5
10176	9427	28.55210160129	5
10176	11412	30.35210160129	19
10176	11594	30.470887995861	9
10176	11824	30.65724406436	2
10176	11863	30.686133107013	2
10176	13188	31.893751021611	13
10176	13613	32.293751021611	3
10176	14193	32.69922849008	3
10176	14435	32.906337650565	1
10176	15224	33.619492709698	6
10176	15623	34.027052137032	1
10176	16196	34.627052137032	5
10176	17494	35.721269070823	5
10176	18204	36.221269070823	4
10176	19053	36.82147179279	5
10176	19200	36.922225638114	4
10176	19388	37.026891181156	1
10176	20071	37.526891181156	4
10176	20785	38.232349725187	7
10176	21180	38.63919740665	3
10176	21260	38.671951820595	2
10176	21551	38.94129769094	2
10176	21832	39.149159024319	2
10176	23197	40.349159024319	13
10176	23510	40.655475718275	2
10176	24351	41.364518411208	6
10176	24447	41.458067256199	10
10176	24888	41.864429326106	4
10176	25131	42.064529426106	2
10176	25488	42.364529426106	2
10176	25705	42.488522819216	2
10176	26134	42.872556746265	4
10176	26521	43.175522413169	3
10176	27057	43.575522413169	3
10176	27276	43.785209283145	1
10176	28377	44.687243312448	9
10176	29146	45.287243312448	5
10176	29846	45.826655238806	1
10176	29877	45.842882310601	6
10176	30028	45.944000803247	1
10176	30233	46.151338029188	1
10176	30390	46.284855754775	1
10176	30552	46.352647021693	1
10176	30730	46.462206060951	1
10176	32604	47.891451028734	12
10176	33191	48.491451028734	5
10176	33421	48.699698081737	5
10176	34460	49.562561174231	7
10176	35199	50.162561174231	6
10176	35579	50.469537427493	2
10176	36463	51.162869054613	7
10176	36977	51.666469376879	4
10176	37136	51.772136352722	8
10176	38158	52.680737384052	9
10176	39894	54.180737384052	16
10176	40131	54.386028539526	1
10176	40754	54.888493382631	4
10176	41184	55.188537698076	2
10176	41403	55.39561079055	1
10176	41800	55.700376628421	4
10176	42205	56.000376628421	2
10176	42859	56.512957240567	5
10176	43836	57.312957240567	7
10176	44177	57.61861421877	2
10176	44865	58.32507016128	6
10176	44986	58.418665550719	5
10176	45451	58.814268876958	2
10176	45538	58.845639806664	5
10176	45905	59.142213501562	7
10176	45910	59.142941851714	7
10176	45920	59.150257635949	3
10176	46176	59.350760833792	2
10176	46517	59.6575963311	2
10176	47069	60.288539726827	6
10176	47500	60.696693425655	3
10176	47791	60.984491343958	2
10176	47816	61.030609990969	2
10176	48021	61.239808594217	1
10176	48382	61.542114178929	3
10176	48796	61.842114178929	2
10176	49895	62.84631460922	10
10176	50403	63.285137268661	3
10176	50657	63.495228619642	1
10176	50740	63.592377278219	1
10176	51016	63.794625806713	1
10176	51258	64.000905208087	1
10176	51273	64.001005308087	0
10176	51903	64.501005308087	4
10176	52372	64.806572178936	2
10176	53230	65.516268874877	7
10176	53555	65.827918567114	2
10176	53689	66.0007777628	2
10176	53802	66.107282968493	1
10176	54217	66.514291657529	3
10176	54403	66.716326647715	1
10176	54517	66.816789253672	1
10176	54970	67.316789253672	4
10176	55264	67.623673154692	2
10176	56123	68.429547725325	7
10176	56429	68.635574888495	7
10176	56499	68.707273998749	1
10176	56778	68.935102113286	4
10176	56801	68.938133660322	4
10176	56821	68.942697528382	2
10176	57349	69.344739715826	4
10176	58032	69.844739715826	4
10176	58343	70.04961204115	2
10176	58717	70.34961204115	2
10176	59068	70.658018357909	2
10176	59798	71.218690909538	2
10176	60677	71.918791009538	7
10176	61099	72.227779704617	2
10176	61957	72.84121596235	5
10176	62431	73.241980469851	4
10176	65336	75.916500847779	17
10176	66383	76.816500847779	9
10176	66673	77.025871781079	1
10176	67394	77.630496762601	14
10176	67520	77.734566540071	8
10176	67571	77.779005712265	7
10176	68251	78.284659248944	5
10176	68683	78.584659248944	2
10176	68930	78.794049921781	2
10176	69604	79.394049921781	5
10176	70004	79.801876874657	3
10176	70490	80.207797866452	4
10176	70913	80.521097927485	2
10176	71296	80.761527269376	10
10176	71875	81.169869749592	4
10176	72948	82.069869749592	8
10176	73307	82.377515836986	3
10176	73680	82.68186611775	2
10176	74213	83.089305763203	5
10176	75275	84.089305763203	10
10176	75812	84.677883741059	3
10176	75841	84.690893588478	6
10176	75971	84.792360659918	1
10176	76287	85.092360659918	2
10176	76976	85.695890670063	5
10176	77662	86.295990770063	6
10176	77878	86.495990770063	1
10176	79067	87.39644926179	7
10176	79323	87.596248931742	12
10176	79333	87.601062766285	1
10176	80244	88.40324859241	9
10176	80875	89.00324859241	6
10176	81182	89.309256987061	2
10176	83062	91.01649706788	18
10176	83296	91.165805207812	18
10176	83628	91.472678121428	2
10176	84702	92.373454627081	11
10176	85275	92.873454627081	4
10176	85770	93.279725590348	3
10176	86896	94.183632716734	10
10176	87431	94.591139978339	3
10176	88227	95.295765300263	7
10176	88612	95.600741333015	3
10176	88869	95.800741333015	1
10176	89267	96.201361572783	3
10176	89401	96.311011045715	0
10176	89730	96.61711382534	3
10176	90457	97.21711382534	5
10176	90749	97.424339097224	1
10176	91872	98.225055084743	9
10176	92342	98.628606815129	4
10176	93670	99.728606815129	13
10176	94155	100.129512784611	3
10176	94653	100.533171336063	3
10176	95159	100.932453344706	2
10176	95387	101.184371724389	7
10176	95475	101.237491482837	7
10176	95851	101.541348972563	2
10176	96026	101.693791994028	4
10176	96302	101.943081396611	9
10176	96933	102.443181496611	5
10176	97258	102.743181496611	2
10176	97552	102.954955839459	1
10176	97896	103.256667682158	2
10176	98218	103.565964233521	2
10176	98683	104.02673547613	5
10176	98764	104.071580668838	4
10176	99258	104.581126453346	4
10176	99397	104.73138328603	6
10176	99544	104.873088578366	1
10176	99552	104.886290171873	3
10176	99806	105.094517288031	1
10176	99899	105.181273819432	2
10176	99924	105.23939736674	4
10176	100178	105.442073242395	1
10176	100325	105.54302931026	1
10176	101349	106.444596931283	10
10176	101696	106.744596931283	2
10176	102473	107.455034264749	6
10176	102992	107.855134364749	5
10176	103598	108.355134364749	4
10176	103911	108.58994679084	3
10176	104099	108.762945068875	4
10176	104458	109.095232184966	4
10176	104874	109.471718812611	6
10176	105029	109.578928314107	1
10176	105928	110.278928314107	7
10176	107236	111.279439254148	10
10176	107332	111.312450924526	10
10176	107493	111.455788342359	6
10176	107691	111.658651037506	2
10176	108196	112.058651037506	3
10176	108762	112.55634950762	4
10176	108898	112.667440809834	5
10176	109171	112.856353930519	3
10176	110692	114.064191817428	12
10176	110974	114.264191817428	1
10176	111700	114.769266094196	4
10176	112085	115.074593265364	2
10176	112871	115.776699684201	7
10176	113170	115.977244074204	1
10176	113989	116.581513779877	5
10176	114401	116.990526368772	3
10176	115006	117.494084343451	4
10176	115291	117.694184443451	2
10176	116086	118.294184443451	5
10176	117003	118.896778886645	5
10176	117863	119.496878986645	6
10176	118604	120.101075053997	5
10176	119186	120.615997670869	4
10176	119404	120.817060581924	1
10176	119440	120.869193225959	1
10176	120017	121.373116051418	5
10176	120635	121.873116051418	5
10176	121345	122.481728015489	5
10176	121736	122.856507500437	9
10176	121765	122.896391162738	3
10176	122523	123.604237458114	8
10176	123042	124.104237458114	4
10176	123593	124.607671850823	4
10176	123828	124.810818953671	1
10176	124038	125.003004294129	7
10176	124801	125.60907007169	5
10176	125020	125.81605257361	10
10176	125030	125.822252746728	10
10176	126861	127.03142545731	13
10176	127985	127.903582579563	6
10176	128088	128.009553533763	1
10176	129171	129.009553533763	9
10176	129430	129.216480306107	2
10176	129938	129.618585797286	3
10176	129986	129.681547487314	5
10176	130422	129.981853946384	3
10176	130789	130.281853946384	2
10176	130974	130.424390871571	1
10176	131038	130.487220870933	1
10176	131505	130.887320970933	5
10176	132606	131.935409274955	9
10176	132942	132.235409274955	2
10176	133358	132.611290722502	2
10176	133689	132.84971098884	5
10176	133789	132.921235268064	3
10176	134431	133.431141469369	6
10176	136084	134.815074674427	7
10176	136455	135.115074674427	2
10176	137083	135.624134374028	4
10176	137163	135.670341627407	3
10177	139	20.1000001	0.875
10177	530	20.8000001	0.25
10177	900	21.207609484399	0.625
10177	1208	21.507603995505	0.625
10177	1527	21.713919141019	0.5
10177	1540	21.717167252251	0.5
10177	1824	22.008975119718	0.5
10177	2277	22.222921042327	0.5
10177	2762	22.623021142327	0.5
10177	3391	23.129934439591	0.375
10177	3906	23.53644937357	0.375
10177	4226	23.83644937357	0.75
10177	4939	24.437931297913	0.375
10177	5297	24.743949173048	0.75
10177	5962	25.346282495743	0.375
10177	6035	25.432495553217	0.5
10177	6313	25.64892199881	-0.125
10177	6602	25.934054523481	0.5
10177	7554	26.735958429933	-0.25
10177	7999	27.135958429933	0.5
10177	8412	27.53733059714	0.625
10177	8572	27.658923301669	0.75
10177	8921	28.045781253072	0.375
10177	9427	28.55210160129	0.375
10177	11412	30.35210160129	-1.375
10177	11594	30.470887995861	-0.125
10177	11824	30.65724406436	0.75
10177	11863	30.686133107013	0.75
10177	13188	31.893751021611	-0.625
10177	13613	32.293751021611	0.625
10177	14193	32.69922849008	0.625
10177	14435	32.906337650565	0.875
10177	15224	33.619492709698	0.25
10177	15623	34.027052137032	0.875
10177	16196	34.627052137032	0.375
10177	17494	35.721269070823	0.375
10177	18204	36.221269070823	0.5
10177	19053	36.82147179279	0.375
10177	19200	36.922225638114	0.5
10177	19388	37.026891181156	0.875
10177	20071	37.526891181156	0.5
10177	20785	38.232349725187	0.125
10177	21180	38.63919740665	0.625
10177	21260	38.671951820595	0.75
10177	21551	38.94129769094	0.75
10177	21832	39.149159024319	0.75
10177	23197	40.349159024319	-0.625
10177	23510	40.655475718275	0.75
10177	24351	41.364518411208	0.25
10177	24447	41.458067256199	-0.25
10177	24888	41.864429326106	0.5
10177	25131	42.064529426106	0.75
10177	25488	42.364529426106	0.75
10177	25705	42.488522819216	0.75
10177	26134	42.872556746265	0.5
10177	26521	43.175522413169	0.625
10177	27057	43.575522413169	0.625
10177	27276	43.785209283145	0.875
10177	28377	44.687243312448	-0.125
10177	29146	45.287243312448	0.375
10177	29846	45.826655238806	0.875
10177	29877	45.842882310601	0.25
10177	30028	45.944000803247	0.875
10177	30233	46.151338029188	0.875
10177	30390	46.284855754775	0.875
10177	30552	46.352647021693	0.875
10177	30730	46.462206060951	0.875
10177	32604	47.891451028734	-0.5
10177	33191	48.491451028734	0.375
10177	33421	48.699698081737	0.375
10177	34460	49.562561174231	0.125
10177	35199	50.162561174231	0.25
10177	35579	50.469537427493	0.75
10177	36463	51.162869054613	0.125
10177	36977	51.666469376879	0.5
10177	37136	51.772136352722	0
10177	38158	52.680737384052	-0.125
10177	39894	54.180737384052	-1
10177	40131	54.386028539526	0.875
10177	40754	54.888493382631	0.5
10177	41184	55.188537698076	0.75
10177	41403	55.39561079055	0.875
10177	41800	55.700376628421	0.5
10177	42205	56.000376628421	0.75
10177	42859	56.512957240567	0.375
10177	43836	57.312957240567	0.125
10177	44177	57.61861421877	0.75
10177	44865	58.32507016128	0.25
10177	44986	58.418665550719	0.375
10177	45451	58.814268876958	0.75
10177	45538	58.845639806664	0.375
10177	45905	59.142213501562	0.125
10177	45910	59.142941851714	0.125
10177	45920	59.150257635949	0.625
10177	46176	59.350760833792	0.75
10177	46517	59.6575963311	0.75
10177	47069	60.288539726827	0.25
10177	47500	60.696693425655	0.625
10177	47791	60.984491343958	0.75
10177	47816	61.030609990969	0.75
10177	48021	61.239808594217	0.875
10177	48382	61.542114178929	0.625
10177	48796	61.842114178929	0.75
10177	49895	62.84631460922	-0.25
10177	50403	63.285137268661	0.625
10177	50657	63.495228619642	0.875
10177	50740	63.592377278219	0.875
10177	51016	63.794625806713	0.875
10177	51258	64.000905208087	0.875
10177	51273	64.001005308087	1
10177	51903	64.501005308087	0.5
10177	52372	64.806572178936	0.75
10177	53230	65.516268874877	0.125
10177	53555	65.827918567114	0.75
10177	53689	66.0007777628	0.75
10177	53802	66.107282968493	0.875
10177	54217	66.514291657529	0.625
10177	54403	66.716326647715	0.875
10177	54517	66.816789253672	0.875
10177	54970	67.316789253672	0.5
10177	55264	67.623673154692	0.75
10177	56123	68.429547725325	0.125
10177	56429	68.635574888495	0.125
10177	56499	68.707273998749	0.875
10177	56778	68.935102113286	0.5
10177	56801	68.938133660322	0.5
10177	56821	68.942697528382	0.75
10177	57349	69.344739715826	0.5
10177	58032	69.844739715826	0.5
10177	58343	70.04961204115	0.75
10177	58717	70.34961204115	0.75
10177	59068	70.658018357909	0.75
10177	59798	71.218690909538	0.75
10177	60677	71.918791009538	0.125
10177	61099	72.227779704617	0.75
10177	61957	72.84121596235	0.375
10177	62431	73.241980469851	0.5
10177	65336	75.916500847779	-1.125
10177	66383	76.816500847779	-0.125
10177	66673	77.025871781079	0.875
10177	67394	77.630496762601	-0.75
10177	67520	77.734566540071	0
10177	67571	77.779005712265	0.125
10177	68251	78.284659248944	0.375
10177	68683	78.584659248944	0.75
10177	68930	78.794049921781	0.75
10177	69604	79.394049921781	0.375
10177	70004	79.801876874657	0.625
10177	70490	80.207797866452	0.5
10177	70913	80.521097927485	0.75
10177	71296	80.761527269376	-0.25
10177	71875	81.169869749592	0.5
10177	72948	82.069869749592	0
10177	73307	82.377515836986	0.625
10177	73680	82.68186611775	0.75
10177	74213	83.089305763203	0.375
10177	75275	84.089305763203	-0.25
10177	75812	84.677883741059	0.625
10177	75841	84.690893588478	0.25
10177	75971	84.792360659918	0.875
10177	76287	85.092360659918	0.75
10177	76976	85.695890670063	0.375
10177	77662	86.295990770063	0.25
10177	77878	86.495990770063	0.875
10177	79067	87.39644926179	0.125
10177	79323	87.596248931742	-0.5
10177	79333	87.601062766285	0.875
10177	80244	88.40324859241	-0.125
10177	80875	89.00324859241	0.25
10177	81182	89.309256987061	0.75
10177	83062	91.01649706788	-1.25
10177	83296	91.165805207812	-1.25
10177	83628	91.472678121428	0.75
10177	84702	92.373454627081	-0.375
10177	85275	92.873454627081	0.5
10177	85770	93.279725590348	0.625
10177	86896	94.183632716734	-0.25
10177	87431	94.591139978339	0.625
10177	88227	95.295765300263	0.125
10177	88612	95.600741333015	0.625
10177	88869	95.800741333015	0.875
10177	89267	96.201361572783	0.625
10177	89401	96.311011045715	1
10177	89730	96.61711382534	0.625
10177	90457	97.21711382534	0.375
10177	90749	97.424339097224	0.875
10177	91872	98.225055084743	-0.125
10177	92342	98.628606815129	0.5
10177	93670	99.728606815129	-0.625
10177	94155	100.129512784611	0.625
10177	94653	100.533171336063	0.625
10177	95159	100.932453344706	0.75
10177	95387	101.184371724389	0.125
10177	95475	101.237491482837	0.125
10177	95851	101.541348972563	0.75
10177	96026	101.693791994028	0.5
10177	96302	101.943081396611	-0.125
10177	96933	102.443181496611	0.375
10177	97258	102.743181496611	0.75
10177	97552	102.954955839459	0.875
10177	97896	103.256667682158	0.75
10177	98218	103.565964233521	0.75
10177	98683	104.02673547613	0.375
10177	98764	104.071580668838	0.5
10177	99258	104.581126453346	0.5
10177	99397	104.73138328603	0.25
10177	99544	104.873088578366	0.875
10177	99552	104.886290171873	0.625
10177	99806	105.094517288031	0.875
10177	99899	105.181273819432	0.75
10177	99924	105.23939736674	0.5
10177	100178	105.442073242395	0.875
10177	100325	105.54302931026	0.875
10177	101349	106.444596931283	-0.25
10177	101696	106.744596931283	0.75
10177	102473	107.455034264749	0.25
10177	102992	107.855134364749	0.375
10177	103598	108.355134364749	0.5
10177	103911	108.58994679084	0.625
10177	104099	108.762945068875	0.5
10177	104458	109.095232184966	0.5
10177	104874	109.471718812611	0.25
10177	105029	109.578928314107	0.875
10177	105928	110.278928314107	0.125
10177	107236	111.279439254148	-0.25
10177	107332	111.312450924526	-0.25
10177	107493	111.455788342359	0.25
10177	107691	111.658651037506	0.75
10177	108196	112.058651037506	0.625
10177	108762	112.55634950762	0.5
10177	108898	112.667440809834	0.375
10177	109171	112.856353930519	0.625
10177	110692	114.064191817428	-0.5
10177	110974	114.264191817428	0.875
10177	111700	114.769266094196	0.5
10177	112085	115.074593265364	0.75
10177	112871	115.776699684201	0.125
10177	113170	115.977244074204	0.875
10177	113989	116.581513779877	0.375
10177	114401	116.990526368772	0.625
10177	115006	117.494084343451	0.5
10177	115291	117.694184443451	0.75
10177	116086	118.294184443451	0.375
10177	117003	118.896778886645	0.375
10177	117863	119.496878986645	0.25
10177	118604	120.101075053997	0.375
10177	119186	120.615997670869	0.5
10177	119404	120.817060581924	0.875
10177	119440	120.869193225959	0.875
10177	120017	121.373116051418	0.375
10177	120635	121.873116051418	0.375
10177	121345	122.481728015489	0.375
10177	121736	122.856507500437	-0.125
10177	121765	122.896391162738	0.625
10177	122523	123.604237458114	0
10177	123042	124.104237458114	0.5
10177	123593	124.607671850823	0.5
10177	123828	124.810818953671	0.875
10177	124038	125.003004294129	0.125
10177	124801	125.60907007169	0.375
10177	125020	125.81605257361	-0.25
10177	125030	125.822252746728	-0.25
10177	126861	127.03142545731	-0.625
10177	127985	127.903582579563	0.25
10177	128088	128.009553533763	0.875
10177	129171	129.009553533763	-0.125
10177	129430	129.216480306107	0.75
10177	129938	129.618585797286	0.625
10177	129986	129.681547487314	0.375
10177	130422	129.981853946384	0.625
10177	130789	130.281853946384	0.75
10177	130974	130.424390871571	0.875
10177	131038	130.487220870933	0.875
10177	131505	130.887320970933	0.375
10177	132606	131.935409274955	-0.125
10177	132942	132.235409274955	0.75
10177	133358	132.611290722502	0.75
10177	133689	132.84971098884	0.375
10177	133789	132.921235268064	0.625
10177	134431	133.431141469369	0.25
10177	136084	134.815074674427	0.125
10177	136455	135.115074674427	0.75
10177	137083	135.624134374028	0.5
10177	137163	135.670341627407	0.625
10178	139	20.1000001	0.1
10178	530	20.8000001	0.7
10178	900	21.207609484399	0.4
10178	1208	21.507603995505	0.4
10178	1527	21.713919141019	0.5
10178	1540	21.717167252251	0.5
10178	1824	22.008975119718	0.5
10178	2277	22.222921042327	0.5
10178	2762	22.623021142327	0.4
10178	3391	23.129934439591	0.5
10178	3906	23.53644937357	0.4
10178	4226	23.83644937357	0.3
10178	4939	24.437931297913	0.6
10178	5297	24.743949173048	0.3
10178	5962	25.346282495743	0.6
10178	6035	25.432495553217	0.5
10178	6313	25.64892199881	0.9
10178	6602	25.934054523481	0.5
10178	7554	26.735958429933	0.8
10178	7999	27.135958429933	0.4
10178	8412	27.53733059714	0.4
10178	8572	27.658923301669	0.3
10178	8921	28.045781253072	0.5
10178	9427	28.55210160129	0.5
10178	11412	30.35210160129	1.8
10178	11594	30.470887995861	0.9
10178	11824	30.65724406436	0.3
10178	11863	30.686133107013	0.3
10178	13188	31.893751021611	1.2
10178	13613	32.293751021611	0.4
10178	14193	32.69922849008	0.4
10178	14435	32.906337650565	0.2
10178	15224	33.619492709698	0.7
10178	15623	34.027052137032	0.1
10178	16196	34.627052137032	0.6
10178	17494	35.721269070823	0.5
10178	18204	36.221269070823	0.5
10178	19053	36.82147179279	0.6
10178	19200	36.922225638114	0.5
10178	19388	37.026891181156	0.1
10178	20071	37.526891181156	0.5
10178	20785	38.232349725187	0.7
10178	21180	38.63919740665	0.4
10178	21260	38.671951820595	0.3
10178	21551	38.94129769094	0.3
10178	21832	39.149159024319	0.2
10178	23197	40.349159024319	1.2
10178	23510	40.655475718275	0.3
10178	24351	41.364518411208	0.7
10178	24447	41.458067256199	0.8
10178	24888	41.864429326106	0.4
10178	25131	42.064529426106	0.2
10178	25488	42.364529426106	0.3
10178	25705	42.488522819216	0.3
10178	26134	42.872556746265	0.5
10178	26521	43.175522413169	0.3
10178	27057	43.575522413169	0.4
10178	27276	43.785209283145	0.2
10178	28377	44.687243312448	0.9
10178	29146	45.287243312448	0.6
10178	29846	45.826655238806	0.2
10178	29877	45.842882310601	0.7
10178	30028	45.944000803247	0.1
10178	30233	46.151338029188	0.2
10178	30390	46.284855754775	0.2
10178	30552	46.352647021693	0.2
10178	30730	46.462206060951	0.1
10178	32604	47.891451028734	1.2
10178	33191	48.491451028734	0.6
10178	33421	48.699698081737	0.6
10178	34460	49.562561174231	0.7
10178	35199	50.162561174231	0.6
10178	35579	50.469537427493	0.3
10178	36463	51.162869054613	0.6
10178	36977	51.666469376879	0.5
10178	37136	51.772136352722	0.9
10178	38158	52.680737384052	0.9
10178	39894	54.180737384052	1.5
10178	40131	54.386028539526	0.2
10178	40754	54.888493382631	0.5
10178	41184	55.188537698076	0.3
10178	41403	55.39561079055	0.2
10178	41800	55.700376628421	0.3
10178	42205	56.000376628421	0.3
10178	42859	56.512957240567	0.5
10178	43836	57.312957240567	0.8
10178	44177	57.61861421877	0.3
10178	44865	58.32507016128	0.7
10178	44986	58.418665550719	0.6
10178	45451	58.814268876958	0.3
10178	45538	58.845639806664	0.5
10178	45905	59.142213501562	0.7
10178	45910	59.142941851714	0.7
10178	45920	59.150257635949	0.3
10178	46176	59.350760833792	0.2
10178	46517	59.6575963311	0.3
10178	47069	60.288539726827	0.6
10178	47500	60.696693425655	0.4
10178	47791	60.984491343958	0.3
10178	47816	61.030609990969	0.3
10178	48021	61.239808594217	0.2
10178	48382	61.542114178929	0.3
10178	48796	61.842114178929	0.3
10178	49895	62.84631460922	1
10178	50403	63.285137268661	0.4
10178	50657	63.495228619642	0.2
10178	50740	63.592377278219	0.2
10178	51016	63.794625806713	0.2
10178	51258	64.000905208087	0.2
10178	51273	64.001005308087	0
10178	51903	64.501005308087	0.5
10178	52372	64.806572178936	0.3
10178	53230	65.516268874877	0.7
10178	53555	65.827918567114	0.3
10178	53689	66.0007777628	0.3
10178	53802	66.107282968493	0.1
10178	54217	66.514291657529	0.4
10178	54403	66.716326647715	0.2
10178	54517	66.816789253672	0.1
10178	54970	67.316789253672	0.5
10178	55264	67.623673154692	0.3
10178	56123	68.429547725325	0.8
10178	56429	68.635574888495	0.8
10178	56499	68.707273998749	0.2
10178	56778	68.935102113286	0.5
10178	56801	68.938133660322	0.5
10178	56821	68.942697528382	0.3
10178	57349	69.344739715826	0.4
10178	58032	69.844739715826	0.5
10178	58343	70.04961204115	0.2
10178	58717	70.34961204115	0.3
10178	59068	70.658018357909	0.3
10178	59798	71.218690909538	0.3
10178	60677	71.918791009538	0.7
10178	61099	72.227779704617	0.3
10178	61957	72.84121596235	0.6
10178	62431	73.241980469851	0.4
10178	65336	75.916500847779	1.5
10178	66383	76.816500847779	0.9
10178	66673	77.025871781079	0.2
10178	67394	77.630496762601	1.1
10178	67520	77.734566540071	0.7
10178	67571	77.779005712265	0.7
10178	68251	78.284659248944	0.5
10178	68683	78.584659248944	0.3
10178	68930	78.794049921781	0.2
10178	69604	79.394049921781	0.6
10178	70004	79.801876874657	0.4
10178	70490	80.207797866452	0.4
10178	70913	80.521097927485	0.3
10178	71296	80.761527269376	0.9
10178	71875	81.169869749592	0.4
10178	72948	82.069869749592	0.9
10178	73307	82.377515836986	0.3
10178	73680	82.68186611775	0.3
10178	74213	83.089305763203	0.4
10178	75275	84.089305763203	1
10178	75812	84.677883741059	0.4
10178	75841	84.690893588478	0.6
10178	75971	84.792360659918	0.1
10178	76287	85.092360659918	0.3
10178	76976	85.695890670063	0.6
10178	77662	86.295990770063	0.6
10178	77878	86.495990770063	0.2
10178	79067	87.39644926179	0.8
10178	79323	87.596248931742	1.1
10178	79333	87.601062766285	0.2