file 925130 1369674156                                          
version 2
run Stability-norelink-145-20130525-23:23:43-22103
attr configname Stability-norelink
attr datetime 20130525-23:23:43
attr experiment Stability
attr inifile omnetpp.ini
attr iterationvars $0=1e-8
attr iterationvars2 "$0=1e-8, $repetition=5"
attr measurement $0=1e-8
attr network Network
attr processid 22103
attr repetition 5
attr replication #5
attr resultdir results
attr runnumber 145
attr seedset 145
vector 13929  Network.dyn_peer[3]  lookupHopsSig:vector  ETV
13929	90216 9721 39 136575 20.00000000004 134.783950328953 320 0 28 1263 8519
vector 13930  Network.dyn_peer[3]  lookupStabilitySig:vector  ETV
13930	99937 10797 39 136575 20.00000000004 134.783950328953 320 -2.5 1 162.30555558205 137.16628084065
vector 13931  Network.dyn_peer[3]  lookupTimeSig:vector  ETV
13931	110734 10314 39 136575 20.00000000004 134.783950328953 320 0 2.5 143.9 93.75
vector 13941  Network.dyn_peer[7]  lookupHopsSig:vector  ETV
13941	206618 9247 55 135929 20.00000000008 133.983106670873 304 0 22 1341 9143
vector 13942  Network.dyn_peer[7]  lookupStabilitySig:vector  ETV
13942	215865 10253 55 135929 20.00000000008 133.983106670873 304 -1.75 1 136.59722217917 111.74556323923
vector 13943  Network.dyn_peer[7]  lookupTimeSig:vector  ETV
13943	226118 9808 55 135929 20.00000000008 133.983106670873 304 0 2.1 150.1 101.43
vector 13974  Network.dyn_peer[18]  lookupHopsSig:vector  ETV
13974	527235 9303 92 136450 20.00000000019 134.584812708382 306 0 20 1252 8146
vector 13975  Network.dyn_peer[18]  lookupStabilitySig:vector  ETV
13975	536538 10339 92 136450 20.00000000019 134.584812708382 306 -1.5 1 149.79166664183 120.42843362836
vector 13976  Network.dyn_peer[18]  lookupTimeSig:vector  ETV
13976	546877 9880 92 136450 20.00000000019 134.584812708382 306 0 1.9 140.4 88.28
vector 13980  Network.dyn_peer[20]  lookupHopsSig:vector  ETV
13980	584120 9347 102 136789 20.00000000021 135.169347389983 306 0 25 1331 9709
vector 13981  Network.dyn_peer[20]  lookupStabilitySig:vector  ETV
13981	593467 10363 102 136789 20.00000000021 135.169347389983 306 -2.125 1 139.79166664183 125.08314041039
vector 13982  Network.dyn_peer[20]  lookupTimeSig:vector  ETV
13982	603830 9902 102 136789 20.00000000021 135.169347389983 306 0 2.4 146.1 100.89
vector 13989  Network.dyn_peer[23]  lookupHopsSig:vector  ETV
13989	670305 9164 115 135726 20.00000000024 133.770968546066 301 0 18 1218 8270
vector 13990  Network.dyn_peer[23]  lookupStabilitySig:vector  ETV
13990	679469 10145 115 135726 20.00000000024 133.770968546066 301 -1.25 1 148.75 125.71875
vector 13991  Network.dyn_peer[23]  lookupTimeSig:vector  ETV
13991	689614 9729 115 135726 20.00000000024 133.770968546066 301 0 1.7 135.7 87.29
vector 13998  Network.dyn_peer[26]  lookupHopsSig:vector  ETV
13998	758429 8863 128 134837 20.00000000027 132.991239565165 292 0 19 1250 8602
vector 13999  Network.dyn_peer[26]  lookupStabilitySig:vector  ETV
13999	767292 9836 128 134837 20.00000000027 132.991239565165 292 -1.375 1 135.83333332837 114.00733024066
vector 14000  Network.dyn_peer[26]  lookupTimeSig:vector  ETV
14000	777128 9405 128 134837 20.00000000027 132.991239565165 292 0 1.9 138.8 92.36
vector 13920  Network.dyn_peer[0]  lookupHopsSig:vector  ETV
13920	6498 8938 149 136189 20.10000000001 134.28521737211 294 0 25 1241 8791
vector 13921  Network.dyn_peer[0]  lookupStabilitySig:vector  ETV
13921	15436 9869 149 136189 20.10000000001 134.28521737211 294 -2.125 1 138.91666665673 121.1631944312
vector 13922  Network.dyn_peer[0]  lookupTimeSig:vector  ETV
13922	25305 9481 149 136189 20.10000000001 134.28521737211 294 0 2.3 138.3 93.77
vector 13932  Network.dyn_peer[4]  lookupHopsSig:vector  ETV
13932	121048 9221 157 135839 20.10000000005 133.881530341282 303 0 13 1119 5953
vector 13933  Network.dyn_peer[4]  lookupStabilitySig:vector  ETV
13933	130269 10220 157 135839 20.10000000005 133.881530341282 303 -0.625 1 163.125 116.265625
vector 13934  Network.dyn_peer[4]  lookupTimeSig:vector  ETV
13934	140489 9806 157 135839 20.10000000005 133.881530341282 303 0 1.3 128.7 70.87
vector 13944  Network.dyn_peer[8]  lookupHopsSig:vector  ETV
13944	235926 8993 164 135667 20.10000000009 133.712194281783 296 0 22 1152 7332
vector 13945  Network.dyn_peer[8]  lookupStabilitySig:vector  ETV
13945	244919 10015 164 135667 20.10000000009 133.712194281783 296 -1.75 1 152.20833328366 122.78568667468
vector 13946  Network.dyn_peer[8]  lookupTimeSig:vector  ETV
13946	254934 9554 164 135667 20.10000000009 133.712194281783 296 0 2.1 130.5 79.55
vector 13950  Network.dyn_peer[10]  lookupHopsSig:vector  ETV
13950	292906 9515 170 135580 20.10000000011 133.634721415637 313 0 20 1229 7673
vector 13951  Network.dyn_peer[10]  lookupStabilitySig:vector  ETV
13951	302421 10541 170 135580 20.10000000011 133.634721415637 313 -1.5 1 159.47222220898 125.67438271016
vector 13952  Network.dyn_peer[10]  lookupTimeSig:vector  ETV
13952	312962 10110 170 135580 20.10000000011 133.634721415637 313 0.1 1.9 139.1 84.63
vector 13953  Network.dyn_peer[11]  lookupHopsSig:vector  ETV
13953	323072 9438 175 136520 20.10000000012 134.68241881886 310 0 19 1270 8244
vector 13954  Network.dyn_peer[11]  lookupStabilitySig:vector  ETV
13954	332510 10467 175 136520 20.10000000012 134.68241881886 310 -1.375 1 151.38888886571 121.41975306949
vector 13955  Network.dyn_peer[11]  lookupTimeSig:vector  ETV
13955	342977 10017 175 136520 20.10000000012 134.68241881886 310 0 1.9 142.4 90.56
vector 13965  Network.dyn_peer[15]  lookupHopsSig:vector  ETV
13965	436905 9537 183 136395 20.10000000016 134.538023717087 313 0 13 1244 7514
vector 13966  Network.dyn_peer[15]  lookupStabilitySig:vector  ETV
13966	446442 10549 183 136395 20.10000000016 134.538023717087 313 -0.625 1 157.52777777612 119.44868826903
vector 13967  Network.dyn_peer[15]  lookupTimeSig:vector  ETV
13967	456991 10117 183 136395 20.10000000016 134.538023717087 313 0 1.3 140 83.8
vector 13971  Network.dyn_peer[17]  lookupHopsSig:vector  ETV
13971	498481 9078 189 136127 20.10000000018 134.205451125453 298 0 16 1226 7580
vector 13972  Network.dyn_peer[17]  lookupStabilitySig:vector  ETV
13972	507559 10052 189 136127 20.10000000018 134.205451125453 298 -1 1 144.75 109.9375
vector 13973  Network.dyn_peer[17]  lookupTimeSig:vector  ETV
13973	517611 9624 189 136127 20.10000000018 134.205451125453 298 0 1.3 137.3 83.37
vector 14007  Network.dyn_peer[29]  lookupHopsSig:vector  ETV
14007	841673 9039 205 135515 20.1000000003 133.581634938109 296 0 28 1243 8629
vector 14008  Network.dyn_peer[29]  lookupStabilitySig:vector  ETV
14008	850712 10005 205 135515 20.1000000003 133.581634938109 296 -2.5 1 140.69444443285 120.17438270023
vector 14009  Network.dyn_peer[29]  lookupTimeSig:vector  ETV
14009	860717 9586 205 135515 20.1000000003 133.581634938109 296 0 2.5 137.9 90.45
vector 14010  Network.dyn_peer[30]  lookupHopsSig:vector  ETV
14010	870303 8617 210 136067 20.10000000031 134.142988523312 284 0 23 1279 9091
vector 14011  Network.dyn_peer[30]  lookupStabilitySig:vector  ETV
14011	878920 9580 210 136067 20.10000000031 134.142988523312 284 -1.875 1 124.22222220153 106.42901231772
vector 14012  Network.dyn_peer[30]  lookupTimeSig:vector  ETV
14012	888500 9139 210 136067 20.10000000031 134.142988523312 284 0 1.9 141.3 96.23
vector 13923  Network.dyn_peer[1]  lookupHopsSig:vector  ETV
13923	34786 9202 220 136400 20.20000000002 134.541278443291 303 0 23 1278 8426
vector 13924  Network.dyn_peer[1]  lookupStabilitySig:vector  ETV
13924	43988 10229 220 136400 20.20000000002 134.541278443291 303 -1.875 1 143.33333331347 115.20486109787
vector 13925  Network.dyn_peer[1]  lookupTimeSig:vector  ETV
13925	54217 9778 220 136400 20.20000000002 134.541278443291 303 0 2.2 142.9 91.89
vector 13926  Network.dyn_peer[2]  lookupHopsSig:vector  ETV
13926	63995 8272 225 136754 20.20000000003 135.042265001461 272 0 17 1173 7821
vector 13927  Network.dyn_peer[2]  lookupStabilitySig:vector  ETV
13927	72267 9168 225 136754 20.20000000003 135.042265001461 272 -1.125 1 125.53611107171 101.14135026708
vector 13928  Network.dyn_peer[2]  lookupTimeSig:vector  ETV
13928	81435 8781 225 136754 20.20000000003 135.042265001461 272 0 1.7 129.8 85.14
vector 13935  Network.dyn_peer[5]  lookupHopsSig:vector  ETV
13935	150295 9352 232 135918 20.20000000006 133.980048166417 308 0 18 1326 8522
vector 13936  Network.dyn_peer[5]  lookupStabilitySig:vector  ETV
13936	159647 10401 232 135918 20.20000000006 133.980048166417 308 -1.25 1 142.38888886571 109.76350306949
vector 13937  Network.dyn_peer[5]  lookupTimeSig:vector  ETV
13937	170048 9921 232 135918 20.20000000006 133.980048166417 308 0 1.4 147.4 93.12
vector 13938  Network.dyn_peer[6]  lookupHopsSig:vector  ETV
13938	179969 8406 237 136628 20.20000000007 134.860488711678 276 0 18 1234 8374
vector 13939  Network.dyn_peer[6]  lookupStabilitySig:vector  ETV
13939	188375 9315 237 136628 20.20000000007 134.860488711678 276 -1.25 1 121.86111107469 98.454475271849
vector 13940  Network.dyn_peer[6]  lookupTimeSig:vector  ETV
13940	197690 8928 237 136628 20.20000000007 134.860488711678 276 0 1.6 137.3 91.05
vector 13956  Network.dyn_peer[12]  lookupHopsSig:vector  ETV
13956	352994 8681 245 136652 20.20000000013 134.892532888828 284 0 22 1314 9056
vector 13957  Network.dyn_peer[12]  lookupStabilitySig:vector  ETV
13957	361675 9605 245 136652 20.20000000013 134.892532888828 284 -1.75 1 119.84722220898 97.112461402828
vector 13958  Network.dyn_peer[12]  lookupTimeSig:vector  ETV
13958	371280 9204 245 136652 20.20000000013 134.892532888828 284 0 2.1 144.8 97.2
vector 13962  Network.dyn_peer[14]  lookupHopsSig:vector  ETV
13962	410157 8437 251 136679 20.20000000015 134.92354044004 277 0 17 1314 9404
vector 13963  Network.dyn_peer[14]  lookupStabilitySig:vector  ETV
13963	418594 9368 251 136679 20.20000000015 134.92354044004 277 -1.125 1 112.91666662693 95.528163550813
vector 13964  Network.dyn_peer[14]  lookupTimeSig:vector  ETV
13964	427962 8943 251 136679 20.20000000015 134.92354044004 277 0 1.5 142.8 97.26
vector 13968  Network.dyn_peer[16]  lookupHopsSig:vector  ETV
13968	467108 9888 257 136092 20.20000000017 134.178580062472 325 0 17 1336 8092
vector 13969  Network.dyn_peer[16]  lookupStabilitySig:vector  ETV
13969	476996 10985 257 136092 20.20000000017 134.178580062472 325 -1.125 1 158.05555555224 117.49614197163
vector 13970  Network.dyn_peer[16]  lookupTimeSig:vector  ETV
13970	487981 10500 257 136092 20.20000000017 134.178580062472 325 0 1.7 150.1 91.63
vector 13977  Network.dyn_peer[19]  lookupHopsSig:vector  ETV
13977	556757 8635 264 134268 20.2000000002 132.570768546066 284 0 17 1223 8087
vector 13978  Network.dyn_peer[19]  lookupStabilitySig:vector  ETV
13978	565392 9562 264 134268 20.2000000002 132.570768546066 284 -1.125 1 131.40277774632 104.73861879809
vector 13979  Network.dyn_peer[19]  lookupTimeSig:vector  ETV
13979	574954 9166 264 134268 20.2000000002 132.570768546066 284 0 1.7 136.5 88.37
vector 13983  Network.dyn_peer[21]  lookupHopsSig:vector  ETV
13983	613732 8373 270 136681 20.20000000022 134.92958633943 276 0 24 1211 8085
vector 13984  Network.dyn_peer[21]  lookupStabilitySig:vector  ETV
13984	622105 9277 270 136681 20.20000000022 134.92958633943 276 -2 1 124.72222220898 99.611882710163
vector 13985  Network.dyn_peer[21]  lookupTimeSig:vector  ETV
13985	631382 8889 270 136681 20.20000000022 134.92958633943 276 0 2.2 133.3 86.87
vector 13986  Network.dyn_peer[22]  lookupHopsSig:vector  ETV
13986	640271 9479 275 136735 20.20000000023 135.003988019063 310 0 19 1287 8647
vector 13987  Network.dyn_peer[22]  lookupStabilitySig:vector  ETV
13987	649750 10500 275 136735 20.20000000023 135.003988019063 310 -1.375 1 149.125 123.359375
vector 13988  Network.dyn_peer[22]  lookupTimeSig:vector  ETV
13988	660250 10055 275 136735 20.20000000023 135.003988019063 310 0 1.8 144.5 94.39
vector 14001  Network.dyn_peer[27]  lookupHopsSig:vector  ETV
14001	786533 8746 285 135547 20.20000000028 133.624743282353 287 0 16 1210 7736
vector 14002  Network.dyn_peer[27]  lookupStabilitySig:vector  ETV
14002	795279 9674 285 135547 20.20000000028 133.624743282353 287 -1 1 135.79166665673 105.4288194312
vector 14003  Network.dyn_peer[27]  lookupTimeSig:vector  ETV
14003	804953 9278 285 135547 20.20000000028 133.624743282353 287 0 1.7 134.9 85.19
vector 14013  Network.dyn_peer[31]  lookupHopsSig:vector  ETV
14013	897639 8680 293 136654 20.20000000032 134.893625146815 285 0 19 1243 8711
vector 14014  Network.dyn_peer[31]  lookupStabilitySig:vector  ETV
14014	906319 9606 293 136654 20.20000000032 134.893625146815 285 -1.375 1 129.73611107469 110.47010027185
vector 14015  Network.dyn_peer[31]  lookupTimeSig:vector  ETV
14015	915925 9205 293 136654 20.20000000032 134.893625146815 285 0 1.7 139 95.18
vector 13947  Network.dyn_peer[9]  lookupHopsSig:vector  ETV
13947	264488 8970 315 136149 20.3000000001 134.236942587279 295 0 22 1168 7150
vector 13948  Network.dyn_peer[9]  lookupStabilitySig:vector  ETV
13948	273458 9917 315 136149 20.3000000001 134.236942587279 295 -1.75 1 149 114.71875
vector 13949  Network.dyn_peer[9]  lookupTimeSig:vector  ETV
13949	283375 9531 315 136149 20.3000000001 134.236942587279 295 0 1.9 130.4 77.02
vector 13959  Network.dyn_peer[13]  lookupHopsSig:vector  ETV
13959	380484 9376 321 135890 20.30000000014 133.952291396657 308 0 15 1307 8491
vector 13960  Network.dyn_peer[13]  lookupStabilitySig:vector  ETV
13960	389860 10366 321 135890 20.30000000014 133.952291396657 308 -0.875 1 144.63888888806 113.94637345532
vector 13961  Network.dyn_peer[13]  lookupTimeSig:vector  ETV
13961	400226 9931 321 135890 20.30000000014 133.952291396657 308 0 1.4 147.7 95.55
vector 13992  Network.dyn_peer[24]  lookupHopsSig:vector  ETV
13992	699343 9649 337 136797 20.30000000025 135.172003017385 317 0 21 1325 8599
vector 13993  Network.dyn_peer[24]  lookupStabilitySig:vector  ETV
13993	708992 10714 337 136797 20.30000000025 135.172003017385 317 -1.625 1 151.375 120.109375
vector 13994  Network.dyn_peer[24]  lookupTimeSig:vector  ETV
13994	719706 10238 337 136797 20.30000000025 135.172003017385 317 0 1.9 147.4 93.92
vector 13995  Network.dyn_peer[25]  lookupHopsSig:vector  ETV
13995	729944 8975 385 136225 20.40000000026 134.318925946518 294 0 26 1239 8109
vector 13996  Network.dyn_peer[25]  lookupStabilitySig:vector  ETV
13996	738919 9973 385 136225 20.40000000026 134.318925946518 294 -2.25 1 139.23611110449 111.07040894326
vector 13997  Network.dyn_peer[25]  lookupTimeSig:vector  ETV
13997	748892 9537 385 136225 20.40000000026 134.318925946518 294 0 2.3 138.7 88.53
vector 14004  Network.dyn_peer[28]  lookupHopsSig:vector  ETV
14004	814231 8660 391 136344 20.40000000029 134.480035739986 285 0 16 1225 7963
vector 14005  Network.dyn_peer[28]  lookupStabilitySig:vector  ETV
14005	822891 9580 391 136344 20.40000000029 134.480035739986 285 -1 1 131.94444444031 103.25501542695
vector 14006  Network.dyn_peer[28]  lookupTimeSig:vector  ETV
14006	832471 9202 391 136344 20.40000000029 134.480035739986 285 0 1.5 136.8 87.42
