file 903450 1369674158                                          
version 2
run Stability-norelink-61-20130525-23:18:03-22103
attr configname Stability-norelink
attr datetime 20130525-23:18:03
attr experiment Stability
attr inifile omnetpp.ini
attr iterationvars $0=1e0
attr iterationvars2 "$0=1e0, $repetition=1"
attr measurement $0=1e0
attr network Network
attr processid 22103
attr repetition 1
attr replication #1
attr resultdir results
attr runnumber 61
attr seedset 61
vector 5910  Network.dyn_peer[18]  lookupHopsSig:vector  ETV
5910	511312 8385 84 137439 20.019 135.125666440353 286 0 21 1329 9633
vector 5911  Network.dyn_peer[18]  lookupStabilitySig:vector  ETV
5911	519697 9348 84 137439 20.019 135.125666440353 286 -1.625 1 119.94444441795 104.32253084065
vector 5912  Network.dyn_peer[18]  lookupTimeSig:vector  ETV
5912	529045 8898 84 137439 20.019 135.125666440353 286 0 2 148.2 105.58
vector 5928  Network.dyn_peer[24]  lookupHopsSig:vector  ETV
5928	677976 9527 106 138361 20.025 136.345873387457 324 0 17 1295 7709
vector 5929  Network.dyn_peer[24]  lookupStabilitySig:vector  ETV
5929	687503 10572 106 138361 20.025 136.345873387457 324 -1.125 1 162.125 120.703125
vector 5930  Network.dyn_peer[24]  lookupTimeSig:vector  ETV
5930	698075 10135 106 138361 20.025 136.345873387457 324 0 1.6 147.4 87.56
vector 5940  Network.dyn_peer[28]  lookupHopsSig:vector  ETV
5940	791600 8434 123 138032 20.029 135.828875943514 287 0 17 1293 8633
vector 5941  Network.dyn_peer[28]  lookupStabilitySig:vector  ETV
5941	800034 9392 123 138032 20.029 135.828875943514 287 -1.125 1 125.40277777612 98.683063269029
vector 5942  Network.dyn_peer[28]  lookupTimeSig:vector  ETV
5942	809426 8964 123 138032 20.029 135.828875943514 287 0 1.7 142.3 93.95
vector 5946  Network.dyn_peer[30]  lookupHopsSig:vector  ETV
5946	847027 8889 133 137284 20.031 134.997924098443 303 0 16 1243 7639
vector 5947  Network.dyn_peer[30]  lookupStabilitySig:vector  ETV
5947	855916 9850 133 137284 20.031 134.997924098443 303 -1 1 147.625 111.609375
vector 5948  Network.dyn_peer[30]  lookupTimeSig:vector  ETV
5948	865766 9452 133 137284 20.031 134.997924098443 303 0 1.4 141.2 86.48
vector 5859  Network.dyn_peer[1]  lookupHopsSig:vector  ETV
5859	35416 8576 142 136993 20.102 134.712867768815 292 0 22 1296 9300
vector 5860  Network.dyn_peer[1]  lookupStabilitySig:vector  ETV
5860	43992 9588 142 136993 20.102 134.712867768815 292 -1.75 1 130.11111110449 113.42978394326
vector 5861  Network.dyn_peer[1]  lookupTimeSig:vector  ETV
5861	53580 9109 142 136993 20.102 134.712867768815 292 0 1.9 144.4 100.76
vector 5871  Network.dyn_peer[5]  lookupHopsSig:vector  ETV
5871	146606 8626 151 138373 20.106 136.36299716259 294 0 21 1272 8626
vector 5872  Network.dyn_peer[5]  lookupStabilitySig:vector  ETV
5872	155232 9620 151 138373 20.106 136.36299716259 294 -1.625 1 135 110.78125
vector 5873  Network.dyn_peer[5]  lookupTimeSig:vector  ETV
5873	164852 9163 151 138373 20.106 136.36299716259 294 0 1.8 141.2 91.66
vector 5883  Network.dyn_peer[9]  lookupHopsSig:vector  ETV
5883	256545 9146 159 137362 20.11 135.030978106633 311 0 18 1288 8692
vector 5884  Network.dyn_peer[9]  lookupStabilitySig:vector  ETV
5884	265691 10192 159 137362 20.11 135.030978106633 311 -1.25 1 150.13888886571 124.97878083403
vector 5885  Network.dyn_peer[9]  lookupTimeSig:vector  ETV
5885	275883 9717 159 137362 20.11 135.030978106633 311 0 1.5 143.5 92.41
vector 5886  Network.dyn_peer[10]  lookupHopsSig:vector  ETV
5886	285600 9248 164 137740 20.111 135.506708342208 315 0 17 1334 8602
vector 5887  Network.dyn_peer[10]  lookupStabilitySig:vector  ETV
5887	294848 10252 164 137740 20.111 135.506708342208 315 -1.125 1 148.29166665673 115.9600694312
vector 5888  Network.dyn_peer[10]  lookupTimeSig:vector  ETV
5888	305100 9835 164 137740 20.111 135.506708342208 315 0 1.7 148.8 93.58
vector 5889  Network.dyn_peer[11]  lookupHopsSig:vector  ETV
5889	314935 8820 169 136883 20.112 134.616427088497 300 0 17 1269 7975
vector 5890  Network.dyn_peer[11]  lookupStabilitySig:vector  ETV
5890	323755 9841 169 136883 20.112 134.616427088497 300 -1.125 1 141.52777775377 107.55015428935
vector 5891  Network.dyn_peer[11]  lookupTimeSig:vector  ETV
5891	333596 9375 169 136883 20.112 134.616427088497 300 0 1.7 141.6 88.36
vector 5892  Network.dyn_peer[12]  lookupHopsSig:vector  ETV
5892	342971 8837 174 138092 20.113 135.919908317447 301 0 18 1269 7915
vector 5893  Network.dyn_peer[12]  lookupStabilitySig:vector  ETV
5893	351808 9807 174 138092 20.113 135.919908317447 301 -1.25 1 142.44444441795 107.47878084065
vector 5894  Network.dyn_peer[12]  lookupTimeSig:vector  ETV
5894	361615 9413 174 138092 20.113 135.919908317447 301 0 1.7 142.4 88.06
vector 5907  Network.dyn_peer[17]  lookupHopsSig:vector  ETV
5907	480974 9550 183 137670 20.118 135.421837322923 325 0 24 1317 8675
vector 5908  Network.dyn_peer[17]  lookupStabilitySig:vector  ETV
5908	490524 10633 183 137670 20.118 135.421837322923 325 -2 1 160.61111116409 130.8213733626
vector 5909  Network.dyn_peer[17]  lookupTimeSig:vector  ETV
5909	501157 10155 183 137670 20.118 135.421837322923 325 0 2.2 147.3 94.13
vector 5913  Network.dyn_peer[19]  lookupHopsSig:vector  ETV
5913	537943 9036 189 136906 20.12 134.622961622044 307 0 26 1312 8758
vector 5914  Network.dyn_peer[19]  lookupStabilitySig:vector  ETV
5914	546979 10062 189 136906 20.12 134.622961622044 307 -2.25 1 143.01388888806 115.86824845532
vector 5915  Network.dyn_peer[19]  lookupTimeSig:vector  ETV
5915	557041 9610 189 136906 20.12 134.622961622044 307 0 2.4 146.5 96.33
vector 5925  Network.dyn_peer[23]  lookupHopsSig:vector  ETV
5925	649605 8941 197 137953 20.124 135.726351187454 305 0 19 1218 7346
vector 5926  Network.dyn_peer[23]  lookupStabilitySig:vector  ETV
5926	658546 9902 197 137953 20.124 135.726351187454 305 -1.375 1 152.75 115.28125
vector 5927  Network.dyn_peer[23]  lookupTimeSig:vector  ETV
5927	668448 9528 197 137953 20.124 135.726351187454 305 0 1.6 138 81.1
vector 5943  Network.dyn_peer[29]  lookupHopsSig:vector  ETV
5943	818390 9010 207 137996 20.13 135.814813150882 307 0 17 1301 8557
vector 5944  Network.dyn_peer[29]  lookupStabilitySig:vector  ETV
5944	827400 10036 207 137996 20.13 135.814813150882 307 -1.125 1 144.44444444031 115.53626542695
vector 5945  Network.dyn_peer[29]  lookupTimeSig:vector  ETV
5945	837436 9591 207 137996 20.13 135.814813150882 307 0 1.6 145.2 93.24
vector 5856  Network.dyn_peer[0]  lookupHopsSig:vector  ETV
5856	6396 9140 215 136719 20.201 134.505501647229 312 0 20 1277 8533
vector 5857  Network.dyn_peer[0]  lookupStabilitySig:vector  ETV
5857	15536 10157 215 136719 20.201 134.505501647229 312 -1.5 1 152.45833331347 126.12673609787
vector 5858  Network.dyn_peer[0]  lookupTimeSig:vector  ETV
5858	25693 9723 215 136719 20.201 134.505501647229 312 0 1.9 143.4 92
vector 5877  Network.dyn_peer[7]  lookupHopsSig:vector  ETV
5877	201322 9859 227 137661 20.208 135.418669240799 335 0 16 1321 8107
vector 5878  Network.dyn_peer[7]  lookupStabilitySig:vector  ETV
5878	211181 10989 227 137661 20.208 135.418669240799 335 -1 1 169.98611110449 131.43422067754
vector 5879  Network.dyn_peer[7]  lookupTimeSig:vector  ETV
5879	222170 10489 227 137661 20.208 135.418669240799 335 0 1.5 148.8 89.36
vector 5901  Network.dyn_peer[15]  lookupHopsSig:vector  ETV
5901	426067 8280 239 137080 20.216 134.812804174679 282 0 23 1160 7544
vector 5902  Network.dyn_peer[15]  lookupStabilitySig:vector  ETV
5902	434347 9215 239 137080 20.216 134.812804174679 282 -1.875 1 137.04166666418 109.94193672435
vector 5903  Network.dyn_peer[15]  lookupTimeSig:vector  ETV
5903	443562 8807 239 137080 20.216 134.812804174679 282 0 2.1 130.1 82.21
vector 5904  Network.dyn_peer[16]  lookupHopsSig:vector  ETV
5904	452369 9008 244 138212 20.217 136.038282494517 306 0 14 1259 7839
vector 5905  Network.dyn_peer[16]  lookupStabilitySig:vector  ETV
5905	461377 10013 244 138212 20.217 136.038282494517 306 -0.75 1 148.72222220153 113.86651231772
vector 5906  Network.dyn_peer[16]  lookupTimeSig:vector  ETV
5906	471390 9584 244 138212 20.217 136.038282494517 306 0 1.3 141.7 86.57
vector 5916  Network.dyn_peer[20]  lookupHopsSig:vector  ETV
5916	566651 8438 253 137632 20.221 135.402169788603 287 0 16 1197 7667
vector 5917  Network.dyn_peer[20]  lookupStabilitySig:vector  ETV
5917	575089 9354 253 137632 20.221 135.402169788603 287 -1 1 137.375 107.546875
vector 5918  Network.dyn_peer[20]  lookupTimeSig:vector  ETV
5918	584443 8979 253 137632 20.221 135.402169788603 287 0 1.7 132.5 82.61
vector 5919  Network.dyn_peer[21]  lookupHopsSig:vector  ETV
5919	593422 9239 258 138057 20.222 135.836354567026 314 0 15 1218 7090
vector 5920  Network.dyn_peer[21]  lookupStabilitySig:vector  ETV
5920	602661 10245 258 138057 20.222 135.836354567026 314 -0.875 1 161.75 120.28125
vector 5921  Network.dyn_peer[21]  lookupTimeSig:vector  ETV
5921	612906 9832 258 138057 20.222 135.836354567026 314 0 1.5 139.4 81.5
vector 5931  Network.dyn_peer[25]  lookupHopsSig:vector  ETV
5931	708210 8716 266 137744 20.226 135.511284375513 296 0 23 1212 7926
vector 5932  Network.dyn_peer[25]  lookupStabilitySig:vector  ETV
5932	716926 9681 266 137744 20.226 135.511284375513 296 -1.875 1 144.5 116.84375
vector 5933  Network.dyn_peer[25]  lookupTimeSig:vector  ETV
5933	726607 9273 266 137744 20.226 135.511284375513 296 0 2.2 135.3 86.57
vector 5862  Network.dyn_peer[2]  lookupHopsSig:vector  ETV
5862	62689 8667 283 138146 20.303 135.945347929608 295 0 24 1264 8532
vector 5863  Network.dyn_peer[2]  lookupStabilitySig:vector  ETV
5863	71356 9642 283 138146 20.303 135.945347929608 295 -2 1 137.05555555224 112.37114197163
vector 5864  Network.dyn_peer[2]  lookupTimeSig:vector  ETV
5864	80998 9227 283 138146 20.303 135.945347929608 295 0 2.3 141.2 92.6
vector 5865  Network.dyn_peer[3]  lookupHopsSig:vector  ETV
5865	90225 8985 288 138442 20.304 136.871173054346 305 0 19 1257 8147
vector 5866  Network.dyn_peer[3]  lookupStabilitySig:vector  ETV
5866	99210 10003 288 138442 20.304 136.871173054346 305 -1.375 1 147.88888888806 118.07137345532
vector 5867  Network.dyn_peer[3]  lookupTimeSig:vector  ETV
5867	109213 9563 288 138442 20.304 136.871173054346 305 0 1.8 141 89.18
vector 5868  Network.dyn_peer[4]  lookupHopsSig:vector  ETV
5868	118776 8765 294 137803 20.305 135.531044003596 298 0 18 1302 8316
vector 5869  Network.dyn_peer[4]  lookupStabilitySig:vector  ETV
5869	127541 9742 294 137803 20.305 135.531044003596 298 -1.25 1 135.25 102.4375
vector 5870  Network.dyn_peer[4]  lookupTimeSig:vector  ETV
5870	137283 9323 294 137803 20.305 135.531044003596 298 0 1.6 144 90.36
vector 5874  Network.dyn_peer[6]  lookupHopsSig:vector  ETV
5874	174015 8603 301 138293 20.307 136.225029357618 292 0 17 1302 8764
vector 5875  Network.dyn_peer[6]  lookupStabilitySig:vector  ETV
5875	182618 9551 301 138293 20.307 136.225029357618 292 -1.125 1 129.25 103.4375
vector 5876  Network.dyn_peer[6]  lookupTimeSig:vector  ETV
5876	192169 9153 301 138293 20.307 136.225029357618 292 0 1.6 144 93.5
vector 5895  Network.dyn_peer[13]  lookupHopsSig:vector  ETV
5895	371028 9166 314 137211 20.314 134.917427088497 313 0 17 1255 7663
vector 5896  Network.dyn_peer[13]  lookupStabilitySig:vector  ETV
5896	380194 10160 314 137211 20.314 134.917427088497 313 -1.125 1 156.125 118.984375
vector 5897  Network.dyn_peer[13]  lookupTimeSig:vector  ETV
5897	390354 9759 314 137211 20.314 134.917427088497 313 0 1.6 142.2 85.86
vector 5949  Network.dyn_peer[31]  lookupHopsSig:vector  ETV
5949	875218 8883 344 137572 20.332 135.315317935688 302 0 18 1233 8063
vector 5950  Network.dyn_peer[31]  lookupStabilitySig:vector  ETV
5950	884101 9899 344 137572 20.332 135.315317935688 302 -1.25 1 147.91666665673 119.7881944312
vector 5951  Network.dyn_peer[31]  lookupTimeSig:vector  ETV
5951	894000 9450 344 137572 20.332 135.315317935688 302 0 1.7 137.6 86.68
vector 5880  Network.dyn_peer[8]  lookupHopsSig:vector  ETV
5880	232659 7528 360 137921 20.409 135.712681088432 256 0 27 1214 8960
vector 5881  Network.dyn_peer[8]  lookupStabilitySig:vector  ETV
5881	240187 8360 360 137921 20.409 135.712681088432 256 -2.375 1 104.33333331347 92.548611097866
vector 5882  Network.dyn_peer[8]  lookupTimeSig:vector  ETV
5882	248547 7998 360 137921 20.409 135.712681088432 256 0 2.3 131.8 92.58
vector 5922  Network.dyn_peer[22]  lookupHopsSig:vector  ETV
5922	622738 8457 395 137265 20.423 134.931078106633 288 0 23 1274 9410
vector 5923  Network.dyn_peer[22]  lookupStabilitySig:vector  ETV
5923	631195 9412 395 137265 20.423 134.931078106633 288 -1.875 1 128.84722220898 116.56500771016
vector 5924  Network.dyn_peer[22]  lookupTimeSig:vector  ETV
5924	640607 8998 395 137265 20.423 134.931078106633 288 0 2.1 142.4 100.56
vector 5934  Network.dyn_peer[26]  lookupHopsSig:vector  ETV
5934	735880 8402 403 137857 20.427 135.625125270825 286 0 25 1322 9732
vector 5935  Network.dyn_peer[26]  lookupStabilitySig:vector  ETV
5935	744282 9321 403 137857 20.427 135.625125270825 286 -2.125 1 120.75 107.5625
vector 5936  Network.dyn_peer[26]  lookupTimeSig:vector  ETV
5936	753603 8934 403 137857 20.427 135.625125270825 286 0 2.2 144.5 101.57
vector 5937  Network.dyn_peer[27]  lookupHopsSig:vector  ETV
5937	762537 9172 409 137833 20.428 135.605125998315 311 0 26 1365 9319
vector 5938  Network.dyn_peer[27]  lookupStabilitySig:vector  ETV
5938	771709 10149 409 137833 20.428 135.605125998315 311 -2.25 1 140.43055555224 115.41801697163
vector 5939  Network.dyn_peer[27]  lookupTimeSig:vector  ETV
5939	781858 9742 409 137833 20.428 135.605125998315 311 0 2.3 151.9 101.49
vector 5898  Network.dyn_peer[14]  lookupHopsSig:vector  ETV
5898	400113 8188 500 138386 20.615 136.376819580328 278 0 18 1301 9409
vector 5899  Network.dyn_peer[14]  lookupStabilitySig:vector  ETV
5899	408301 9063 500 138386 20.615 136.376819580328 278 -1.25 1 115.375 99.765625
vector 5900  Network.dyn_peer[14]  lookupTimeSig:vector  ETV
5900	417364 8703 500 138386 20.615 136.376819580328 278 0 1.7 142.3 97.37
