version 2
run Stability-norelink-13-20130525-23:15:21-22103
attr configname Stability-norelink
attr datetime 20130525-23:15:21
attr experiment Stability
attr inifile omnetpp.ini
attr iterationvars $0=1e5
attr iterationvars2 "$0=1e5, $repetition=3"
attr measurement $0=1e5
attr network Network
attr processid 22103
attr repetition 3
attr replication #3
attr resultdir results
attr runnumber 13
attr seedset 13

vector 1248  Network.dyn_peer[0]  lookupHopsSig:vector  ETV
vector 1249  Network.dyn_peer[0]  lookupStabilitySig:vector  ETV
vector 1250  Network.dyn_peer[0]  lookupTimeSig:vector  ETV
vector 1251  Network.dyn_peer[1]  lookupHopsSig:vector  ETV
vector 1252  Network.dyn_peer[1]  lookupStabilitySig:vector  ETV
vector 1253  Network.dyn_peer[1]  lookupTimeSig:vector  ETV
vector 1254  Network.dyn_peer[2]  lookupHopsSig:vector  ETV
vector 1255  Network.dyn_peer[2]  lookupStabilitySig:vector  ETV
vector 1256  Network.dyn_peer[2]  lookupTimeSig:vector  ETV
vector 1257  Network.dyn_peer[3]  lookupHopsSig:vector  ETV
vector 1258  Network.dyn_peer[3]  lookupStabilitySig:vector  ETV
vector 1259  Network.dyn_peer[3]  lookupTimeSig:vector  ETV
vector 1260  Network.dyn_peer[4]  lookupHopsSig:vector  ETV
vector 1261  Network.dyn_peer[4]  lookupStabilitySig:vector  ETV
vector 1262  Network.dyn_peer[4]  lookupTimeSig:vector  ETV
vector 1263  Network.dyn_peer[5]  lookupHopsSig:vector  ETV
vector 1264  Network.dyn_peer[5]  lookupStabilitySig:vector  ETV
vector 1265  Network.dyn_peer[5]  lookupTimeSig:vector  ETV
vector 1266  Network.dyn_peer[6]  lookupHopsSig:vector  ETV
vector 1267  Network.dyn_peer[6]  lookupStabilitySig:vector  ETV
vector 1268  Network.dyn_peer[6]  lookupTimeSig:vector  ETV
vector 1269  Network.dyn_peer[7]  lookupHopsSig:vector  ETV
vector 1270  Network.dyn_peer[7]  lookupStabilitySig:vector  ETV
vector 1271  Network.dyn_peer[7]  lookupTimeSig:vector  ETV
vector 1272  Network.dyn_peer[8]  lookupHopsSig:vector  ETV
vector 1273  Network.dyn_peer[8]  lookupStabilitySig:vector  ETV
vector 1274  Network.dyn_peer[8]  lookupTimeSig:vector  ETV
vector 1275  Network.dyn_peer[9]  lookupHopsSig:vector  ETV
vector 1276  Network.dyn_peer[9]  lookupStabilitySig:vector  ETV
vector 1277  Network.dyn_peer[9]  lookupTimeSig:vector  ETV
vector 1278  Network.dyn_peer[10]  lookupHopsSig:vector  ETV
vector 1279  Network.dyn_peer[10]  lookupStabilitySig:vector  ETV
vector 1280  Network.dyn_peer[10]  lookupTimeSig:vector  ETV
vector 1281  Network.dyn_peer[11]  lookupHopsSig:vector  ETV
vector 1282  Network.dyn_peer[11]  lookupStabilitySig:vector  ETV
vector 1283  Network.dyn_peer[11]  lookupTimeSig:vector  ETV
vector 1284  Network.dyn_peer[12]  lookupHopsSig:vector  ETV
vector 1285  Network.dyn_peer[12]  lookupStabilitySig:vector  ETV
vector 1286  Network.dyn_peer[12]  lookupTimeSig:vector  ETV
vector 1287  Network.dyn_peer[13]  lookupHopsSig:vector  ETV
vector 1288  Network.dyn_peer[13]  lookupStabilitySig:vector  ETV
vector 1289  Network.dyn_peer[13]  lookupTimeSig:vector  ETV
vector 1290  Network.dyn_peer[14]  lookupHopsSig:vector  ETV
vector 1291  Network.dyn_peer[14]  lookupStabilitySig:vector  ETV
vector 1292  Network.dyn_peer[14]  lookupTimeSig:vector  ETV
vector 1293  Network.dyn_peer[15]  lookupHopsSig:vector  ETV
vector 1294  Network.dyn_peer[15]  lookupStabilitySig:vector  ETV
vector 1295  Network.dyn_peer[15]  lookupTimeSig:vector  ETV
vector 1296  Network.dyn_peer[16]  lookupHopsSig:vector  ETV
vector 1297  Network.dyn_peer[16]  lookupStabilitySig:vector  ETV
vector 1298  Network.dyn_peer[16]  lookupTimeSig:vector  ETV
vector 1299  Network.dyn_peer[17]  lookupHopsSig:vector  ETV
vector 1300  Network.dyn_peer[17]  lookupStabilitySig:vector  ETV
vector 1301  Network.dyn_peer[17]  lookupTimeSig:vector  ETV
vector 1302  Network.dyn_peer[18]  lookupHopsSig:vector  ETV
vector 1303  Network.dyn_peer[18]  lookupStabilitySig:vector  ETV
vector 1304  Network.dyn_peer[18]  lookupTimeSig:vector  ETV
vector 1305  Network.dyn_peer[19]  lookupHopsSig:vector  ETV
vector 1306  Network.dyn_peer[19]  lookupStabilitySig:vector  ETV
vector 1307  Network.dyn_peer[19]  lookupTimeSig:vector  ETV
vector 1308  Network.dyn_peer[20]  lookupHopsSig:vector  ETV
vector 1309  Network.dyn_peer[20]  lookupStabilitySig:vector  ETV
vector 1310  Network.dyn_peer[20]  lookupTimeSig:vector  ETV
vector 1311  Network.dyn_peer[21]  lookupHopsSig:vector  ETV
vector 1312  Network.dyn_peer[21]  lookupStabilitySig:vector  ETV
vector 1313  Network.dyn_peer[21]  lookupTimeSig:vector  ETV
vector 1314  Network.dyn_peer[22]  lookupHopsSig:vector  ETV
vector 1315  Network.dyn_peer[22]  lookupStabilitySig:vector  ETV
vector 1316  Network.dyn_peer[22]  lookupTimeSig:vector  ETV
vector 1317  Network.dyn_peer[23]  lookupHopsSig:vector  ETV
vector 1318  Network.dyn_peer[23]  lookupStabilitySig:vector  ETV
vector 1319  Network.dyn_peer[23]  lookupTimeSig:vector  ETV
vector 1320  Network.dyn_peer[24]  lookupHopsSig:vector  ETV
vector 1321  Network.dyn_peer[24]  lookupStabilitySig:vector  ETV
vector 1322  Network.dyn_peer[24]  lookupTimeSig:vector  ETV
vector 1323  Network.dyn_peer[25]  lookupHopsSig:vector  ETV
vector 1324  Network.dyn_peer[25]  lookupStabilitySig:vector  ETV
vector 1325  Network.dyn_peer[25]  lookupTimeSig:vector  ETV
vector 1326  Network.dyn_peer[26]  lookupHopsSig:vector  ETV
vector 1327  Network.dyn_peer[26]  lookupStabilitySig:vector  ETV
vector 1328  Network.dyn_peer[26]  lookupTimeSig:vector  ETV
vector 1329  Network.dyn_peer[27]  lookupHopsSig:vector  ETV
vector 1330  Network.dyn_peer[27]  lookupStabilitySig:vector  ETV
vector 1331  Network.dyn_peer[27]  lookupTimeSig:vector  ETV
vector 1332  Network.dyn_peer[28]  lookupHopsSig:vector  ETV
vector 1333  Network.dyn_peer[28]  lookupStabilitySig:vector  ETV
vector 1334  Network.dyn_peer[28]  lookupTimeSig:vector  ETV
vector 1335  Network.dyn_peer[29]  lookupHopsSig:vector  ETV
vector 1336  Network.dyn_peer[29]  lookupStabilitySig:vector  ETV
vector 1337  Network.dyn_peer[29]  lookupTimeSig:vector  ETV
vector 1338  Network.dyn_peer[30]  lookupHopsSig:vector  ETV
vector 1339  Network.dyn_peer[30]  lookupStabilitySig:vector  ETV
vector 1340  Network.dyn_peer[30]  lookupTimeSig:vector  ETV
vector 1341  Network.dyn_peer[31]  lookupHopsSig:vector  ETV
vector 1342  Network.dyn_peer[31]  lookupStabilitySig:vector  ETV
vector 1343  Network.dyn_peer[31]  lookupTimeSig:vector  ETV
1248	33	120.2	2
1248	36	120.4	1
1248	42	120.70796385941	2
1248	47	121.015429631757	2
1248	1046	3320.1	1
1248	1050	3320.4	2
1248	1055	3320.601016456007	1
1248	1060	3320.901827778825	2
1248	2060	6520.2	2
1248	2063	6520.4	1
1248	2067	6520.608050267812	1
1248	2073	6520.820001715331	1
1248	3102	9720.1	1
1248	3108	9720.409264232439	2
1248	3114	9720.619223004711	1
1248	3121	9720.839117348666	1
1248	4144	12920.2	2
1248	4147	12920.4	1
1248	4151	12920.600200830162	1
1248	4157	12920.903165293752	2
1248	5146	16120.1	1
1248	5149	16120.3	1
1248	5156	16120.613988581347	2
1248	5162	16120.929612472711	2
1248	6185	19320.2	2
1248	6188	19320.4	1
1248	6196	19320.613370719918	1
1248	6207	19320.95317671165	2
1248	7217	22520.1	1
1248	7221	22520.4	2
1248	7226	22520.607553790145	1
1248	7230	22520.812706164564	1
1248	8266	25720.1	1
1248	8269	25720.3	1
1248	8273	25720.504028984336	1
1248	8281	25720.832547549328	2
1248	9297	28920.1	1
1248	9301	28920.4	2
1248	9307	28920.61819922079	1
1248	9312	28920.835782245335	1
1248	10367	32120.2	2
1248	10371	32120.5	2
1248	10376	32120.706840056988	1
1248	10380	32120.914006629466	1
1248	11416	35320.1	1
1248	11419	35320.3	1
1248	11423	35320.503872327897	1
1248	11427	35320.713838099394	1
1248	12450	38520.1	1
1248	12454	38520.4	2
1248	12459	38520.612190475095	1
1248	12464	38520.822224689783	1
1248	13475	41720.1	1
1248	13479	41720.4	2
1248	13483	41720.607644102245	1
1248	13488	41720.816711430702	1
1248	14512	44920.1	1
1248	14516	44920.4	2
1248	14529	44920.663661458372	1
1248	14534	44920.874695156603	1
1248	15549	48120.2	2
1248	15553	48120.5	2
1248	15557	48120.70501164538	1
1248	15561	48120.912630238902	1
1248	16600	51320.1	1
1248	16604	51320.4	2
1248	16609	51320.700775456761	2
1248	16613	51320.903443973091	1
1248	17628	54520.2	2
1248	17632	54520.5	2
1248	17639	54520.72525133183	1
1248	17644	54521.028846285659	2
1248	18689	57720.2	2
1248	18693	57720.5	2
1248	18697	57720.706210257373	1
1248	18704	57721.02030683254	2
1248	19730	60920.1	1
1248	19733	60920.3	1
1248	19737	60920.500632677951	1
1248	19742	60920.706363030466	1
1248	20791	64120	0
1248	20796	64120.306792457117	2
1248	20801	64120.610934262889	2
1248	20810	64120.845481055115	1
1248	21828	67320.2	2
1248	21831	67320.4	1
1248	21835	67320.60189875829	1
1248	21840	67320.908430060066	2
1248	22831	70520.1	1
1248	22836	70520.40576224721	2
1248	22841	70520.614071830652	1
1248	22848	70520.935798618599	2
1248	23878	73720	0
1248	23882	73720.203892736434	1
1248	23888	73720.423118737908	1
1248	23892	73720.623728200506	1
1248	24927	76920.1	1
1248	24931	76920.4	2
1248	24939	76920.735067227589	2
1248	24943	76920.936586340841	1
1248	26004	80120	0
1248	26008	80120.209798478148	1
1248	26012	80120.41460904786	1
1248	26017	80120.623986132184	1
1248	27029	83320.1	1
1248	27032	83320.3	1
1248	27037	83320.609614514871	2
1248	27043	83320.826243718129	1
1248	28039	86520.1	1
1248	28043	86520.306900582162	1
1248	28050	86520.630568153479	2
1248	28055	86520.834930026416	1
1248	29086	89720.1	1
1248	29091	89720.400077094677	2
1248	29096	89720.609382451403	1
1248	29105	89720.920608060875	2
1248	30105	92920.2	2
1248	30109	92920.406408519551	1
1248	30115	92920.614652499331	1
1248	30120	92920.82313758116	1
1248	31186	96120.2	2
1248	31190	96120.5	2
1248	31194	96120.703853420263	1
1248	31198	96120.910086313457	1
1248	32202	99320.2	2
1248	32206	99320.401200569481	1
1248	32218	99320.638843152456	1
1248	32222	99320.841514438461	1
1248	33223	102520.2	2
1248	33227	102520.401187107453	1
1248	33231	102520.603256948452	1
1248	33236	102520.812662659738	1
1248	34252	105720	0
1248	34255	105720.2	1
1248	34260	105720.506943962827	2
1248	34264	105720.71165045024	1
1248	35263	108920	0
1248	35266	108920.2	1
1248	35270	108920.406995895577	1
1248	35276	108920.720936993113	2
1248	36326	112120.1	1
1248	36331	112120.401857481782	2
1248	36339	112120.717069190917	2
1248	36343	112120.923163786574	1
1248	37374	115320	0
1248	37378	115320.3	2
1248	37383	115320.507558051779	1
1248	37389	115320.818290924846	2
1248	38418	118520.2	2
1248	38421	118520.4	1
1248	38425	118520.602321732891	1
1248	38431	118520.813151478058	1
1248	39457	121720.2	2
1248	39460	121720.4	1
1248	39464	121720.60912504231	1
1248	39469	121720.821206044804	1
1248	40498	124920.2	2
1248	40502	124920.5	2
1248	40506	124920.709422349077	1
1248	40510	124920.914488482106	1
1248	41551	128120.1	1
1248	41555	128120.4	2
1248	41560	128120.617455550966	1
1248	41566	128120.830204151378	1
1248	42594	131320.2	2
1248	42599	131320.507152431067	2
1248	42604	131320.716987174057	1
1248	42614	131320.942480767161	1
1248	43654	134520.2	2
1248	43658	134520.406970329489	1
1248	43662	134520.607023653697	1
1248	43667	134520.915597588831	2
1248	44687	137720.2	2
1248	44692	137720.506585231197	2
1248	44699	137720.819911229051	2
1248	44703	137721.02828086492	1
1248	45707	140920.2	2
1248	45710	140920.4	1
1248	45715	140920.613106544578	1
1248	45719	140920.82250054922	1
1248	46748	144120.1	1
1248	46752	144120.4	2
1248	46757	144120.605926728504	1
1248	46764	144120.81780972956	1
1248	47789	147320	0
1248	47793	147320.3	2
1248	47798	147320.604876519923	2
1248	47802	147320.805696328398	1
1248	48824	150520.1	1
1248	48828	150520.4	2
1248	48833	150520.706581132924	2
1248	48840	150520.928242126387	1
1248	49877	153720	0
1248	49880	153720.2	1
1248	49884	153720.401739800043	1
1248	49889	153720.709291566653	2
1248	50904	156920.2	2
1248	50908	156920.5	2
1248	50915	156920.709978189108	1
1248	50925	156921.046373747386	2
1248	51926	160120.1	1
1248	51929	160120.3	1
1248	51933	160120.506822077552	1
1248	51937	160120.707293667787	1
1248	52953	163320.1	1
1248	52956	163320.3	1
1248	52960	163320.504620758341	1
1248	52964	163320.71203322915	1
1248	53963	166520.2	2
1248	53966	166520.4	1
1248	53970	166520.604320991225	1
1248	53980	166520.842062917523	1
1248	55024	169720.2	2
1248	55027	169720.4	1
1248	55032	169720.700157903793	2
1248	55037	169720.916268941458	1
1248	56034	172920.2	2
1248	56037	172920.4	1
1248	56044	172920.71492178537	2
1248	56052	172920.953750116867	1
1248	57099	176120.1	1
1248	57102	176120.3	1
1248	57106	176120.502037932469	1
1248	57110	176120.710351542962	1
1248	58142	179320.1	1
1248	58146	179320.4	2
1248	58150	179320.605940311301	1
1248	58154	179320.814036074885	1
1248	59193	182520.1	1
1248	59197	182520.4	2
1248	59204	182520.618352567968	1
1248	59210	182520.83353556235	1
1248	60241	185720.2	2
1248	60246	185720.50768539407	2
1248	60252	185720.723457398042	1
1248	60256	185720.931720643765	1
1248	61294	188920.2	2
1248	61299	188920.50680534688	2
1248	61304	188920.816802695898	2
1248	61309	188921.022985725864	1
1248	62365	192120	0
1248	62369	192120.3	2
1248	62374	192120.604593203119	2
1248	62385	192120.940228183397	2
1248	63417	195320.2	2
1248	63420	195320.4	1
1248	63424	195320.603012979216	1
1248	63428	195320.812049513763	1
1248	64452	198520	0
1248	64455	198520.2	1
1248	64459	198520.401123102034	1
1248	64464	198520.610319944877	1
1248	65513	201720.2	2
1248	65519	201720.415939209473	1
1248	65524	201720.720427633354	2
1248	65533	201720.946496138201	1
1249	33	120.2	0.75
1249	36	120.4	0.875
1249	42	120.70796385941	0.75
1249	47	121.015429631757	0.75
1249	1046	3320.1	0.875
1249	1050	3320.4	0.75
1249	1055	3320.601016456007	0.875
1249	1060	3320.901827778825	0.75
1249	2060	6520.2	0.75
1249	2063	6520.4	0.875
1249	2067	6520.608050267812	0.875
1249	2073	6520.820001715331	0.875
1249	3102	9720.1	0.875
1249	3108	9720.409264232439	0.75
1249	3114	9720.619223004711	0.875
1249	3121	9720.839117348666	0.875
1249	4144	12920.2	0.75
1249	4147	12920.4	0.875
1249	4151	12920.600200830162	0.875
1249	4157	12920.903165293752	0.75
1249	5146	16120.1	0.875
1249	5149	16120.3	0.875
1249	5156	16120.613988581347	0.75
1249	5162	16120.929612472711	0.75
1249	6185	19320.2	0.75
1249	6188	19320.4	0.875
1249	6196	19320.613370719918	0.875
1249	6207	19320.95317671165	0.75
1249	7217	22520.1	0.875
1249	7221	22520.4	0.75
1249	7226	22520.607553790145	0.875
1249	7230	22520.812706164564	0.875
1249	8266	25720.1	0.875
1249	8269	25720.3	0.875
1249	8273	25720.504028984336	0.875
1249	8281	25720.832547549328	0.75
1249	9297	28920.1	0.875
1249	9301	28920.4	0.75
1249	9307	28920.61819922079	0.875
1249	9312	28920.835782245335	0.875
1249	10367	32120.2	0.75
1249	10371	32120.5	0.75
1249	10376	32120.706840056988	0.875
1249	10380	32120.914006629466	0.875
1249	11416	35320.1	0.875
1249	11419	35320.3	0.875
1249	11423	35320.503872327897	0.875
1249	11427	35320.713838099394	0.875
1249	12450	38520.1	0.875
1249	12454	38520.4	0.75
1249	12459	38520.612190475095	0.875
1249	12464	38520.822224689783	0.875
1249	13475	41720.1	0.875
1249	13479	41720.4	0.75
1249	13483	41720.607644102245	0.875
1249	13488	41720.816711430702	0.875
1249	14512	44920.1	0.875
1249	14516	44920.4	0.75
1249	14529	44920.663661458372	0.875
1249	14534	44920.874695156603	0.875
1249	15549	48120.2	0.75
1249	15553	48120.5	0.75
1249	15557	48120.70501164538	0.875
1249	15561	48120.912630238902	0.875
1249	16600	51320.1	0.875
1249	16604	51320.4	0.75
1249	16609	51320.700775456761	0.75
1249	16613	51320.903443973091	0.875
1249	17628	54520.2	0.75
1249	17632	54520.5	0.75
1249	17639	54520.72525133183	0.875
1249	17644	54521.028846285659	0.75
1249	18689	57720.2	0.75
1249	18693	57720.5	0.75
1249	18697	57720.706210257373	0.875
1249	18704	57721.02030683254	0.75
1249	19730	60920.1	0.875
1249	19733	60920.3	0.875
1249	19737	60920.500632677951	0.875
1249	19742	60920.706363030466	0.875
1249	20791	64120	1
1249	20796	64120.306792457117	0.75
1249	20801	64120.610934262889	0.75
1249	20810	64120.845481055115	0.875
1249	21828	67320.2	0.75
1249	21831	67320.4	0.875
1249	21835	67320.60189875829	0.875
1249	21840	67320.908430060066	0.75
1249	22831	70520.1	0.875
1249	22836	70520.40576224721	0.75
1249	22841	70520.614071830652	0.875
1249	22848	70520.935798618599	0.75
1249	23878	73720	1
1249	23882	73720.203892736434	0.875
1249	23888	73720.423118737908	0.875
1249	23892	73720.623728200506	0.875
1249	24927	76920.1	0.875
1249	24931	76920.4	0.75
1249	24939	76920.735067227589	0.75
1249	24943	76920.936586340841	0.875
1249	26004	80120	1
1249	26008	80120.209798478148	0.875
1249	26012	80120.41460904786	0.875
1249	26017	80120.623986132184	0.875
1249	27029	83320.1	0.875
1249	27032	83320.3	0.875
1249	27037	83320.609614514871	0.75
1249	27043	83320.826243718129	0.875
1249	28039	86520.1	0.875
1249	28043	86520.306900582162	0.875
1249	28050	86520.630568153479	0.75
1249	28055	86520.834930026416	0.875
1249	29086	89720.1	0.875
1249	29091	89720.400077094677	0.75
1249	29096	89720.609382451403	0.875
1249	29105	89720.920608060875	0.75
1249	30105	92920.2	0.75
1249	30109	92920.406408519551	0.875
1249	30115	92920.614652499331	0.875
1249	30120	92920.82313758116	0.875
1249	31186	96120.2	0.75
1249	31190	96120.5	0.75
1249	31194	96120.703853420263	0.875
1249	31198	96120.910086313457	0.875
1249	32202	99320.2	0.75
1249	32206	99320.401200569481	0.875
1249	32218	99320.638843152456	0.875
1249	32222	99320.841514438461	0.875
1249	33223	102520.2	0.75
1249	33227	102520.401187107453	0.875
1249	33231	102520.603256948452	0.875
1249	33236	102520.812662659738	0.875
1249	34252	105720	1
1249	34255	105720.2	0.875
1249	34260	105720.506943962827	0.75
1249	34264	105720.71165045024	0.875
1249	35263	108920	1
1249	35266	108920.2	0.875
1249	35270	108920.406995895577	0.875
1249	35276	108920.720936993113	0.75
1249	36326	112120.1	0.875
1249	36331	112120.401857481782	0.75
1249	36339	112120.717069190917	0.75
1249	36343	112120.923163786574	0.875
1249	37374	115320	1
1249	37378	115320.3	0.75
1249	37383	115320.507558051779	0.875
1249	37389	115320.818290924846	0.75
1249	38418	118520.2	0.75
1249	38421	118520.4	0.875
1249	38425	118520.602321732891	0.875
1249	38431	118520.813151478058	0.875
1249	39457	121720.2	0.75
1249	39460	121720.4	0.875
1249	39464	121720.60912504231	0.875
1249	39469	121720.821206044804	0.875
1249	40498	124920.2	0.75
1249	40502	124920.5	0.75
1249	40506	124920.709422349077	0.875
1249	40510	124920.914488482106	0.875
1249	41551	128120.1	0.875
1249	41555	128120.4	0.75
1249	41560	128120.617455550966	0.875
1249	41566	128120.830204151378	0.875
1249	42594	131320.2	0.75
1249	42599	131320.507152431067	0.75
1249	42604	131320.716987174057	0.875
1249	42614	131320.942480767161	0.875
1249	43654	134520.2	0.75
1249	43658	134520.406970329489	0.875
1249	43662	134520.607023653697	0.875
1249	43667	134520.915597588831	0.75
1249	44687	137720.2	0.75
1249	44692	137720.506585231197	0.75
1249	44699	137720.819911229051	0.75
1249	44703	137721.02828086492	0.875
1249	45707	140920.2	0.75
1249	45710	140920.4	0.875
1249	45715	140920.613106544578	0.875
1249	45719	140920.82250054922	0.875
1249	46748	144120.1	0.875
1249	46752	144120.4	0.75
1249	46757	144120.605926728504	0.875
1249	46764	144120.81780972956	0.875
1249	47789	147320	1
1249	47793	147320.3	0.75
1249	47798	147320.604876519923	0.75
1249	47802	147320.805696328398	0.875
1249	48824	150520.1	0.875
1249	48828	150520.4	0.75
1249	48833	150520.706581132924	0.75
1249	48840	150520.928242126387	0.875
1249	49877	153720	1
1249	49880	153720.2	0.875
1249	49884	153720.401739800043	0.875
1249	49889	153720.709291566653	0.75
1249	50904	156920.2	0.75
1249	50908	156920.5	0.75
1249	50915	156920.709978189108	0.875
1249	50925	156921.046373747386	0.75
1249	51926	160120.1	0.875
1249	51929	160120.3	0.875
1249	51933	160120.506822077552	0.875
1249	51937	160120.707293667787	0.875
1249	52953	163320.1	0.875
1249	52956	163320.3	0.875
1249	52960	163320.504620758341	0.875
1249	52964	163320.71203322915	0.875
1249	53963	166520.2	0.75
1249	53966	166520.4	0.875
1249	53970	166520.604320991225	0.875
1249	53980	166520.842062917523	0.875
1249	55024	169720.2	0.75
1249	55027	169720.4	0.875
1249	55032	169720.700157903793	0.75
1249	55037	169720.916268941458	0.875
1249	56034	172920.2	0.75
1249	56037	172920.4	0.875
1249	56044	172920.71492178537	0.75
1249	56052	172920.953750116867	0.875
1249	57099	176120.1	0.875
1249	57102	176120.3	0.875
1249	57106	176120.502037932469	0.875
1249	57110	176120.710351542962	0.875
1249	58142	179320.1	0.875
1249	58146	179320.4	0.75
1249	58150	179320.605940311301	0.875
1249	58154	179320.814036074885	0.875
1249	59193	182520.1	0.875
1249	59197	182520.4	0.75
1249	59204	182520.618352567968	0.875
1249	59210	182520.83353556235	0.875
1249	60241	185720.2	0.75
1249	60246	185720.50768539407	0.75
1249	60252	185720.723457398042	0.875
1249	60256	185720.931720643765	0.875
1249	61294	188920.2	0.75
1249	61299	188920.50680534688	0.75
1249	61304	188920.816802695898	0.75
1249	61309	188921.022985725864	0.875
1249	62365	192120	1
1249	62369	192120.3	0.75
1249	62374	192120.604593203119	0.75
1249	62385	192120.940228183397	0.75
1249	63417	195320.2	0.75
1249	63420	195320.4	0.875
1249	63424	195320.603012979216	0.875
1249	63428	195320.812049513763	0.875
1249	64452	198520	1
1249	64455	198520.2	0.875
1249	64459	198520.401123102034	0.875
1249	64464	198520.610319944877	0.875
1249	65513	201720.2	0.75
1249	65519	201720.415939209473	0.875
1249	65524	201720.720427633354	0.75
1249	65533	201720.946496138201	0.875
1250	33	120.2	0.2
1250	36	120.4	0.2
1250	42	120.70796385941	0.3
1250	47	121.015429631757	0.3
1250	1046	3320.1	0.1
1250	1050	3320.4	0.3
1250	1055	3320.601016456007	0.2
1250	1060	3320.901827778825	0.3
1250	2060	6520.2	0.2
1250	2063	6520.4	0.2
1250	2067	6520.608050267812	0.2
1250	2073	6520.820001715331	0.2
1250	3102	9720.1	0.1
1250	3108	9720.409264232439	0.3
1250	3114	9720.619223004711	0.2
1250	3121	9720.839117348666	0.2
1250	4144	12920.2	0.2
1250	4147	12920.4	0.2
1250	4151	12920.600200830162	0.2
1250	4157	12920.903165293752	0.3
1250	5146	16120.1	0.1
1250	5149	16120.3	0.2
1250	5156	16120.613988581347	0.3
1250	5162	16120.929612472711	0.3
1250	6185	19320.2	0.2
1250	6188	19320.4	0.2
1250	6196	19320.613370719918	0.2
1250	6207	19320.95317671165	0.3
1250	7217	22520.1	0.1
1250	7221	22520.4	0.3
1250	7226	22520.607553790145	0.2
1250	7230	22520.812706164564	0.2
1250	8266	25720.1	0.1
1250	8269	25720.3	0.2
1250	8273	25720.504028984336	0.2
1250	8281	25720.832547549328	0.3
1250	9297	28920.1	0.1
1250	9301	28920.4	0.3
1250	9307	28920.61819922079	0.2
1250	9312	28920.835782245335	0.2
1250	10367	32120.2	0.2
1250	10371	32120.5	0.3
1250	10376	32120.706840056988	0.2
1250	10380	32120.914006629466	0.2
1250	11416	35320.1	0.1
1250	11419	35320.3	0.2
1250	11423	35320.503872327897	0.2
1250	11427	35320.713838099394	0.2
1250	12450	38520.1	0.1
1250	12454	38520.4	0.3
1250	12459	38520.612190475095	0.2
1250	12464	38520.822224689783	0.2
1250	13475	41720.1	0.1
1250	13479	41720.4	0.3
1250	13483	41720.607644102245	0.2
1250	13488	41720.816711430702	0.2
1250	14512	44920.1	0.1
1250	14516	44920.4	0.3
1250	14529	44920.663661458372	0.2
1250	14534	44920.874695156603	0.2
1250	15549	48120.2	0.2
1250	15553	48120.5	0.3
1250	15557	48120.70501164538	0.2
1250	15561	48120.912630238902	0.2
1250	16600	51320.1	0.1
1250	16604	51320.4	0.3
1250	16609	51320.700775456761	0.3
1250	16613	51320.903443973091	0.2
1250	17628	54520.2	0.2
1250	17632	54520.5	0.3
1250	17639	54520.72525133183	0.2
1250	17644	54521.028846285659	0.3
1250	18689	57720.2	0.2
1250	18693	57720.5	0.3
1250	18697	57720.706210257373	0.2
1250	18704	57721.02030683254	0.3
1250	19730	60920.1	0.1
1250	19733	60920.3	0.2
1250	19737	60920.500632677951	0.2
1250	19742	60920.706363030466	0.2
1250	20791	64120	0
1250	20796	64120.306792457117	0.3
1250	20801	64120.610934262889	0.3
1250	20810	64120.845481055115	0.2
1250	21828	67320.2	0.2
1250	21831	67320.4	0.2
1250	21835	67320.60189875829	0.2
1250	21840	67320.908430060066	0.3
1250	22831	70520.1	0.1
1250	22836	70520.40576224721	0.3
1250	22841	70520.614071830652	0.2
1250	22848	70520.935798618599	0.3
1250	23878	73720	0
1250	23882	73720.203892736434	0.2
1250	23888	73720.423118737908	0.2
1250	23892	73720.623728200506	0.2
1250	24927	76920.1	0.1
1250	24931	76920.4	0.3
1250	24939	76920.735067227589	0.3
1250	24943	76920.936586340841	0.2
1250	26004	80120	0
1250	26008	80120.209798478148	0.2
1250	26012	80120.41460904786	0.2
1250	26017	80120.623986132184	0.2
1250	27029	83320.1	0.1
1250	27032	83320.3	0.2
1250	27037	83320.609614514871	0.3
1250	27043	83320.826243718129	0.2
1250	28039	86520.1	0.1
1250	28043	86520.306900582162	0.2
1250	28050	86520.630568153479	0.3
1250	28055	86520.834930026416	0.2
1250	29086	89720.1	0.1
1250	29091	89720.400077094677	0.3
1250	29096	89720.609382451403	0.2
1250	29105	89720.920608060875	0.3
1250	30105	92920.2	0.2
1250	30109	92920.406408519551	0.2
1250	30115	92920.614652499331	0.2
1250	30120	92920.82313758116	0.2
1250	31186	96120.2	0.2
1250	31190	96120.5	0.3
1250	31194	96120.703853420263	0.2
1250	31198	96120.910086313457	0.2
1250	32202	99320.2	0.2
1250	32206	99320.401200569481	0.2
1250	32218	99320.638843152456	0.2
1250	32222	99320.841514438461	0.2
1250	33223	102520.2	0.2
1250	33227	102520.401187107453	0.2
1250	33231	102520.603256948452	0.2
1250	33236	102520.812662659738	0.2
1250	34252	105720	0
1250	34255	105720.2	0.2
1250	34260	105720.506943962827	0.3
1250	34264	105720.71165045024	0.2
1250	35263	108920	0
1250	35266	108920.2	0.2
1250	35270	108920.406995895577	0.2
1250	35276	108920.720936993113	0.3
1250	36326	112120.1	0.1
1250	36331	112120.401857481782	0.3
1250	36339	112120.717069190917	0.3
1250	36343	112120.923163786574	0.2
1250	37374	115320	0
1250	37378	115320.3	0.3
1250	37383	115320.507558051779	0.2
1250	37389	115320.818290924846	0.3
1250	38418	118520.2	0.2
1250	38421	118520.4	0.2
1250	38425	118520.602321732891	0.2
1250	38431	118520.813151478058	0.2
1250	39457	121720.2	0.2
1250	39460	121720.4	0.2
1250	39464	121720.60912504231	0.2
1250	39469	121720.821206044804	0.2
1250	40498	124920.2	0.2
1250	40502	124920.5	0.3
1250	40506	124920.709422349077	0.2
1250	40510	124920.914488482106	0.2
1250	41551	128120.1	0.1
1250	41555	128120.4	0.3
1250	41560	128120.617455550966	0.2
1250	41566	128120.830204151378	0.2
1250	42594	131320.2	0.2
1250	42599	131320.507152431067	0.3
1250	42604	131320.716987174057	0.2
1250	42614	131320.942480767161	0.2
1250	43654	134520.2	0.2
1250	43658	134520.406970329489	0.2
1250	43662	134520.607023653697	0.2
1250	43667	134520.915597588831	0.3
1250	44687	137720.2	0.2
1250	44692	137720.506585231197	0.3
1250	44699	137720.819911229051	0.3
1250	44703	137721.02828086492	0.2
1250	45707	140920.2	0.2
1250	45710	140920.4	0.2
1250	45715	140920.613106544578	0.2
1250	45719	140920.82250054922	0.2
1250	46748	144120.1	0.1
1250	46752	144120.4	0.3
1250	46757	144120.605926728504	0.2
1250	46764	144120.81780972956	0.2
1250	47789	147320	0
1250	47793	147320.3	0.3
1250	47798	147320.604876519923	0.3
1250	47802	147320.805696328398	0.2
1250	48824	150520.1	0.1
1250	48828	150520.4	0.3
1250	48833	150520.706581132924	0.3
1250	48840	150520.928242126387	0.2
1250	49877	153720	0
1250	49880	153720.2	0.2
1250	49884	153720.401739800043	0.2
1250	49889	153720.709291566653	0.3
1250	50904	156920.2	0.2
1250	50908	156920.5	0.3
1250	50915	156920.709978189108	0.2
1250	50925	156921.046373747386	0.3
1250	51926	160120.1	0.1
1250	51929	160120.3	0.2
1250	51933	160120.506822077552	0.2
1250	51937	160120.707293667787	0.2
1250	52953	163320.1	0.1
1250	52956	163320.3	0.2
1250	52960	163320.504620758341	0.2
1250	52964	163320.71203322915	0.2
1250	53963	166520.2	0.2
1250	53966	166520.4	0.2
1250	53970	166520.604320991225	0.2
1250	53980	166520.842062917523	0.2
1250	55024	169720.2	0.2
1250	55027	169720.4	0.2
1250	55032	169720.700157903793	0.3
1250	55037	169720.916268941458	0.2
1250	56034	172920.2	0.2
1250	56037	172920.4	0.2
1250	56044	172920.71492178537	0.3
1250	56052	172920.953750116867	0.2
1250	57099	176120.1	0.1
1250	57102	176120.3	0.2
1250	57106	176120.502037932469	0.2
1250	57110	176120.710351542962	0.2
1250	58142	179320.1	0.1
1250	58146	179320.4	0.3
1250	58150	179320.605940311301	0.2
1250	58154	179320.814036074885	0.2
1250	59193	182520.1	0.1
1250	59197	182520.4	0.3
1250	59204	182520.618352567968	0.2
1250	59210	182520.83353556235	0.2
1250	60241	185720.2	0.2
1250	60246	185720.50768539407	0.3
1250	60252	185720.723457398042	0.2
1250	60256	185720.931720643765	0.2
1250	61294	188920.2	0.2
1250	61299	188920.50680534688	0.3
1250	61304	188920.816802695898	0.3
1250	61309	188921.022985725864	0.2
1250	62365	192120	0
1250	62369	192120.3	0.3
1250	62374	192120.604593203119	0.3
1250	62385	192120.940228183397	0.3
1250	63417	195320.2	0.2
1250	63420	195320.4	0.2
1250	63424	195320.603012979216	0.2
1250	63428	195320.812049513763	0.2
1250	64452	198520	0
1250	64455	198520.2	0.2
1250	64459	198520.401123102034	0.2
1250	64464	198520.610319944877	0.2
1250	65513	201720.2	0.2
1250	65519	201720.415939209473	0.2
1250	65524	201720.720427633354	0.3
1250	65533	201720.946496138201	0.2
1251	64	220.1	1
1251	68	220.4	2
1251	72	220.601968316126	1
1251	77	220.808677529977	1
1251	1078	3420.2	2
1251	1084	3420.516682504373	2
1251	1088	3420.72232410713	1
1251	1093	3420.934388716489	1
1251	2091	6620.2	2
1251	2095	6620.5	2
1251	2101	6620.811665963034	2
1251	2105	6621.015962751283	1
1251	3138	9820.1	1
1251	3141	9820.3	1
1251	3145	9820.500932686724	1
1251	3150	9820.804990954021	2
1251	4174	13020.1	1
1251	4180	13020.403758232782	2
1251	4184	13020.608615103838	1
1251	4192	13020.827184519003	1
1251	5179	16220.1	1
1251	5182	16220.3	1
1251	5186	16220.507917382074	1
1251	5190	16220.71165665913	1
1251	6223	19420	0
1251	6227	19420.3	2
1251	6232	19420.507210785012	1
1251	6237	19420.812830048898	2
1251	7248	22620.2	2
1251	7252	22620.5	2
1251	7260	22620.725089484514	1
1251	7265	22620.935419335968	1
1251	8298	25820.1	1
1251	8302	25820.308399005592	1
1251	8306	25820.515283785508	1
1251	8311	25820.725109683727	1
1251	9328	29020	0
1251	9331	29020.2	1
1251	9336	29020.41260600052	1
1251	9341	29020.622648890307	1
1251	10397	32220.1	1
1251	10401	32220.4	2
1251	10406	32220.701229060732	2
1251	10413	32220.918192505837	1
1251	11445	35420.2	2
1251	11449	35420.5	2
1251	11454	35420.805155489679	2
1251	11461	35421.029776470253	1