file 723391 1369516512                                          
version 2
run Stability-norelink-9-20130525-23:15:09-22103
attr configname Stability-norelink
attr datetime 20130525-23:15:09
attr experiment Stability
attr inifile omnetpp.ini
attr iterationvars $0=1e6
attr iterationvars2 "$0=1e6, $repetition=9"
attr measurement $0=1e6
attr network Network
attr processid 22103
attr repetition 9
attr replication #9
attr resultdir results
attr runnumber 9
attr seedset 9

vector 864  Network.dyn_peer[0]  lookupHopsSig:vector  ETV
vector 865  Network.dyn_peer[0]  lookupStabilitySig:vector  ETV
vector 866  Network.dyn_peer[0]  lookupTimeSig:vector  ETV
vector 867  Network.dyn_peer[1]  lookupHopsSig:vector  ETV
vector 868  Network.dyn_peer[1]  lookupStabilitySig:vector  ETV
vector 869  Network.dyn_peer[1]  lookupTimeSig:vector  ETV
vector 870  Network.dyn_peer[2]  lookupHopsSig:vector  ETV
vector 871  Network.dyn_peer[2]  lookupStabilitySig:vector  ETV
vector 872  Network.dyn_peer[2]  lookupTimeSig:vector  ETV
vector 873  Network.dyn_peer[3]  lookupHopsSig:vector  ETV
vector 874  Network.dyn_peer[3]  lookupStabilitySig:vector  ETV
vector 875  Network.dyn_peer[3]  lookupTimeSig:vector  ETV
vector 876  Network.dyn_peer[4]  lookupHopsSig:vector  ETV
vector 877  Network.dyn_peer[4]  lookupStabilitySig:vector  ETV
vector 878  Network.dyn_peer[4]  lookupTimeSig:vector  ETV
vector 879  Network.dyn_peer[5]  lookupHopsSig:vector  ETV
vector 880  Network.dyn_peer[5]  lookupStabilitySig:vector  ETV
vector 881  Network.dyn_peer[5]  lookupTimeSig:vector  ETV
vector 882  Network.dyn_peer[6]  lookupHopsSig:vector  ETV
vector 883  Network.dyn_peer[6]  lookupStabilitySig:vector  ETV
vector 884  Network.dyn_peer[6]  lookupTimeSig:vector  ETV
vector 885  Network.dyn_peer[7]  lookupHopsSig:vector  ETV
vector 886  Network.dyn_peer[7]  lookupStabilitySig:vector  ETV
vector 887  Network.dyn_peer[7]  lookupTimeSig:vector  ETV
vector 888  Network.dyn_peer[8]  lookupHopsSig:vector  ETV
vector 889  Network.dyn_peer[8]  lookupStabilitySig:vector  ETV
vector 890  Network.dyn_peer[8]  lookupTimeSig:vector  ETV
vector 891  Network.dyn_peer[9]  lookupHopsSig:vector  ETV
vector 892  Network.dyn_peer[9]  lookupStabilitySig:vector  ETV
vector 893  Network.dyn_peer[9]  lookupTimeSig:vector  ETV
vector 894  Network.dyn_peer[10]  lookupHopsSig:vector  ETV
vector 895  Network.dyn_peer[10]  lookupStabilitySig:vector  ETV
vector 896  Network.dyn_peer[10]  lookupTimeSig:vector  ETV
vector 897  Network.dyn_peer[11]  lookupHopsSig:vector  ETV
vector 898  Network.dyn_peer[11]  lookupStabilitySig:vector  ETV
vector 899  Network.dyn_peer[11]  lookupTimeSig:vector  ETV
vector 900  Network.dyn_peer[12]  lookupHopsSig:vector  ETV
vector 901  Network.dyn_peer[12]  lookupStabilitySig:vector  ETV
vector 902  Network.dyn_peer[12]  lookupTimeSig:vector  ETV
vector 903  Network.dyn_peer[13]  lookupHopsSig:vector  ETV
vector 904  Network.dyn_peer[13]  lookupStabilitySig:vector  ETV
vector 905  Network.dyn_peer[13]  lookupTimeSig:vector  ETV
vector 906  Network.dyn_peer[14]  lookupHopsSig:vector  ETV
vector 907  Network.dyn_peer[14]  lookupStabilitySig:vector  ETV
vector 908  Network.dyn_peer[14]  lookupTimeSig:vector  ETV
vector 909  Network.dyn_peer[15]  lookupHopsSig:vector  ETV
vector 910  Network.dyn_peer[15]  lookupStabilitySig:vector  ETV
vector 911  Network.dyn_peer[15]  lookupTimeSig:vector  ETV
vector 912  Network.dyn_peer[16]  lookupHopsSig:vector  ETV
vector 913  Network.dyn_peer[16]  lookupStabilitySig:vector  ETV
vector 914  Network.dyn_peer[16]  lookupTimeSig:vector  ETV
vector 915  Network.dyn_peer[17]  lookupHopsSig:vector  ETV
vector 916  Network.dyn_peer[17]  lookupStabilitySig:vector  ETV
vector 917  Network.dyn_peer[17]  lookupTimeSig:vector  ETV
vector 918  Network.dyn_peer[18]  lookupHopsSig:vector  ETV
vector 919  Network.dyn_peer[18]  lookupStabilitySig:vector  ETV
vector 920  Network.dyn_peer[18]  lookupTimeSig:vector  ETV
vector 921  Network.dyn_peer[19]  lookupHopsSig:vector  ETV
vector 922  Network.dyn_peer[19]  lookupStabilitySig:vector  ETV
vector 923  Network.dyn_peer[19]  lookupTimeSig:vector  ETV
vector 924  Network.dyn_peer[20]  lookupHopsSig:vector  ETV
vector 925  Network.dyn_peer[20]  lookupStabilitySig:vector  ETV
vector 926  Network.dyn_peer[20]  lookupTimeSig:vector  ETV
vector 927  Network.dyn_peer[21]  lookupHopsSig:vector  ETV
vector 928  Network.dyn_peer[21]  lookupStabilitySig:vector  ETV
vector 929  Network.dyn_peer[21]  lookupTimeSig:vector  ETV
vector 930  Network.dyn_peer[22]  lookupHopsSig:vector  ETV
vector 931  Network.dyn_peer[22]  lookupStabilitySig:vector  ETV
vector 932  Network.dyn_peer[22]  lookupTimeSig:vector  ETV
vector 933  Network.dyn_peer[23]  lookupHopsSig:vector  ETV
vector 934  Network.dyn_peer[23]  lookupStabilitySig:vector  ETV
vector 935  Network.dyn_peer[23]  lookupTimeSig:vector  ETV
vector 936  Network.dyn_peer[24]  lookupHopsSig:vector  ETV
vector 937  Network.dyn_peer[24]  lookupStabilitySig:vector  ETV
vector 938  Network.dyn_peer[24]  lookupTimeSig:vector  ETV
vector 939  Network.dyn_peer[25]  lookupHopsSig:vector  ETV
vector 940  Network.dyn_peer[25]  lookupStabilitySig:vector  ETV
vector 941  Network.dyn_peer[25]  lookupTimeSig:vector  ETV
vector 942  Network.dyn_peer[26]  lookupHopsSig:vector  ETV
vector 943  Network.dyn_peer[26]  lookupStabilitySig:vector  ETV
vector 944  Network.dyn_peer[26]  lookupTimeSig:vector  ETV
vector 945  Network.dyn_peer[27]  lookupHopsSig:vector  ETV
vector 946  Network.dyn_peer[27]  lookupStabilitySig:vector  ETV
vector 947  Network.dyn_peer[27]  lookupTimeSig:vector  ETV
vector 948  Network.dyn_peer[28]  lookupHopsSig:vector  ETV
vector 949  Network.dyn_peer[28]  lookupStabilitySig:vector  ETV
vector 950  Network.dyn_peer[28]  lookupTimeSig:vector  ETV
vector 951  Network.dyn_peer[29]  lookupHopsSig:vector  ETV
vector 952  Network.dyn_peer[29]  lookupStabilitySig:vector  ETV
vector 953  Network.dyn_peer[29]  lookupTimeSig:vector  ETV
vector 954  Network.dyn_peer[30]  lookupHopsSig:vector  ETV
vector 955  Network.dyn_peer[30]  lookupStabilitySig:vector  ETV
vector 956  Network.dyn_peer[30]  lookupTimeSig:vector  ETV
vector 957  Network.dyn_peer[31]  lookupHopsSig:vector  ETV
vector 958  Network.dyn_peer[31]  lookupStabilitySig:vector  ETV
vector 959  Network.dyn_peer[31]  lookupTimeSig:vector  ETV
864	6297 6966 32 65517 1020.2 2017020.707661748504 256 0 2 334 504
865	13263 7877 32 65517 1020.2 2017020.707661748504 256 0.75 1 214.25 180.375
866	21140 7464 32 65517 1020.2 2017020.707661748504 256 0 0.3 52.6 12.04
867	28604 7040 63 65549 2020.1 2018020.830532306947 256 0 3 340 520
868	35644 7957 63 65549 2020.1 2018020.830532306947 256 0.625 1 213.5 179.125
869	43601 7542 63 65549 2020.1 2018020.830532306947 256 0 0.3 53.2 12.14
870	51143 6995 103 65582 3020.3 2019021.030154736101 256 0 3 353 573
871	58138 7906 103 65582 3020.3 2019021.030154736101 256 0.625 1 211.875 176.703125
872	66044 7495 103 65582 3020.3 2019021.030154736101 256 0 0.4 54.5 12.79
873	73539 7015 132 65612 4020 2020020.821666645285 256 0 3 336 512
874	80554 7933 132 65612 4020 2020020.821666645285 256 0.625 1 214 180
875	88487 7515 132 65612 4020 2020020.821666645285 256 0 0.4 52.8 12.1
876	96002 7013 184 65645 5020 2021020.834681343061 256 0 3 329 509
877	103015 7900 184 65645 5020 2021020.834681343061 256 0.625 1 214.875 181.703125
878	110915 7497 184 65645 5020 2021020.834681343061 256 0 0.4 52.1 12.19
879	118412 7033 218 65674 6020.2 2022020.801182903106 256 0 3 348 554
880	125445 7938 218 65674 6020.2 2022020.801182903106 256 0.625 1 212.5 177.65625
881	133383 7531 218 65674 6020.2 2022020.801182903106 256 0 0.4 54 12.74
882	140914 6977 251 65721 7020.1 2023020.80352463836 256 0 3 325 489
883	147891 7874 251 65721 7020.1 2023020.80352463836 256 0.625 1 215.375 182.390625
884	155765 7465 251 65721 7020.1 2023020.80352463836 256 0 0.4 51.7 11.83
885	163230 6959 279 65757 8020 2024020.841265905706 256 0 3 340 532
886	170189 7860 279 65757 8020 2024020.841265905706 256 0.625 1 213.5 179.3125
887	178049 7453 279 65757 8020 2024020.841265905706 256 0 0.3 53.2 12.4
888	185502 6996 309 65793 9020.1 2025021.13347947722 256 0 3 358 590
889	192498 7904 309 65793 9020.1 2025021.13347947722 256 0.625 1 211.25 175.71875
890	200402 7496 309 65793 9020.1 2025021.13347947722 256 0 0.4 55 13.04
891	207898 7026 340 65824 10020.2 2026020.821647100582 256 0 2 341 525
892	214924 7930 340 65824 10020.2 2026020.821647100582 256 0.75 1 213.375 178.953125
893	222854 7524 340 65824 10020.2 2026020.821647100582 256 0 0.3 53.3 12.25
894	230378 6921 378 65862 11020.1 2027020.94321868744 256 0 3 339 525
895	237299 7826 378 65862 11020.1 2027020.94321868744 256 0.625 1 213.625 179.453125
896	245125 7417 378 65862 11020.1 2027020.94321868744 256 0 0.4 53.1 12.37
897	252542 7009 415 65891 12020.2 2028020.813746576704 256 0 3 357 583
898	259551 7914 415 65891 12020.2 2028020.813746576704 256 0.625 1 211.375 175.859375
899	267465 7509 415 65891 12020.2 2028020.813746576704 256 0 0.4 54.9 12.97
900	274974 7082 446 65923 13020.2 2029021.022735548991 256 0 3 348 548
901	282056 7988 446 65923 13020.2 2029021.022735548991 256 0.625 1 212.5 177.5625
902	290044 7582 446 65923 13020.2 2029021.022735548991 256 0 0.4 54 12.64
903	297626 6988 478 65961 14020.1 2030020.948769061541 256 0 3 333 509
904	304614 7887 478 65961 14020.1 2030020.948769061541 256 0.625 1 214.375 180.703125
905	312501 7480 478 65961 14020.1 2030020.948769061541 256 0 0.4 52.5 12.17
906	319981 6983 510 65989 15020.1 2031020.715488373639 256 0 3 354 576
907	326964 7865 510 65989 15020.1 2031020.715488373639 256 0.625 1 211.75 176.5
908	334829 7475 510 65989 15020.1 2031020.715488373639 256 0 0.3 54.6 13.12
909	342304 7030 540 66024 16020.1 2032021.016894409471 256 0 3 337 519
910	349334 7930 540 66024 16020.1 2032021.016894409471 256 0.625 1 213.875 179.859375
911	357264 7524 540 66024 16020.1 2032021.016894409471 256 0 0.4 52.9 12.25
912	364788 7046 574 66056 17020.3 2033020.820836852434 256 0 3 357 587
913	371834 7962 574 66056 17020.3 2033020.820836852434 256 0.625 1 211.375 175.921875
914	379796 7548 574 66056 17020.3 2033020.820836852434 256 0 0.4 54.9 12.99
915	387344 7000 602 66098 18020.1 2034020.786590609013 256 0 2 347 543
916	394344 7898 602 66098 18020.1 2034020.786590609013 256 0.75 1 212.625 177.734375
917	402242 7498 602 66098 18020.1 2034020.786590609013 256 0 0.3 53.9 12.65
918	409740 7044 632 66130 19020.1 2035020.916384470971 256 0 3 346 546
919	416784 7956 632 66130 19020.1 2035020.916384470971 256 0.625 1 212.75 178.03125
920	424740 7544 632 66130 19020.1 2035020.916384470971 256 0 0.4 53.8 12.52
921	432284 7017 664 66159 20020.1 2036020.631064884926 256 0 3 325 493
922	439301 7918 664 66159 20020.1 2036020.631064884926 256 0.625 1 215.375 182.453125
923	447219 7505 664 66159 20020.1 2036020.631064884926 256 0 0.4 51.7 12.03
924	454724 6951 697 66186 21020.2 2037020.601999541709 256 0 3 342 544
925	461675 7856 697 66186 21020.2 2037020.601999541709 256 0.625 1 213.25 179
926	469531 7445 697 66186 21020.2 2037020.601999541709 256 0 0.4 53.4 12.42
927	476976 7013 726 66217 22020 2038020.815815880557 256 0 3 325 489
928	483989 7910 726 66217 22020 2038020.815815880557 256 0.625 1 215.375 182.390625
929	491899 7501 726 66217 22020 2038020.815815880557 256 0 0.4 51.7 11.85
930	499400 7018 759 66247 23020.2 2039020.812124247796 256 0 3 360 602
931	506418 7909 759 66247 23020.2 2039020.812124247796 256 0.625 1 211 175.40625
932	514327 7512 759 66247 23020.2 2039020.812124247796 256 0 0.4 55.2 13.18
933	521839 7032 791 66285 24020.1 2040020.96042003337 256 0 2 332 500
934	528871 7940 791 66285 24020.1 2040020.96042003337 256 0.75 1 214.5 180.8125
935	536811 7528 791 66285 24020.1 2040020.96042003337 256 0 0.3 52.4 11.94
936	544339 6986 824 66315 25020.1 2041020.815978753896 256 0 2 337 511
937	551325 7899 824 66315 25020.1 2041020.815978753896 256 0.75 1 213.875 179.734375
938	559224 7486 824 66315 25020.1 2041020.815978753896 256 0 0.3 52.9 12.21
939	566710 7064 856 66357 26020.1 2042020.964501599661 256 0 3 353 579
940	573774 7960 856 66357 26020.1 2042020.964501599661 256 0.625 1 211.875 176.796875
941	581734 7558 856 66357 26020.1 2042020.964501599661 256 0 0.4 54.5 12.87
942	589292 6926 887 66388 27020.2 2043021.005364698392 256 0 3 346 546
943	596218 7824 887 66388 27020.2 2043021.005364698392 256 0.625 1 212.75 178.03125
944	604042 7422 887 66388 27020.2 2043021.005364698392 256 0 0.4 53.8 12.68
945	611464 7052 924 66420 28020.1 2044021.109707638816 256 0 3 329 497
946	618516 7955 924 66420 28020.1 2044021.109707638816 256 0.625 1 214.875 181.515625
947	626471 7544 924 66420 28020.1 2044021.109707638816 256 0 0.4 52.1 12.01
948	634015 7014 955 66462 29020.2 2045020.862804048358 256 0 3 347 553
949	641029 7915 955 66462 29020.2 2045020.862804048358 256 0.625 1 212.625 177.890625
950	648944 7510 955 66462 29020.2 2045020.862804048358 256 0 0.3 53.9 12.59
951	656454 6985 997 66491 30020.2 2046020.716602217055 256 0 3 332 522
952	663439 7873 997 66491 30020.2 2046020.716602217055 256 0.625 1 214.5 181.15625
953	671312 7469 997 66491 30020.2 2046020.716602217055 256 0 0.4 52.4 12.22
954	678781 6972 1030 66521 31020.2 2047020.715523045491 256 0 3 344 542
955	685753 7895 1030 66521 31020.2 2047020.715523045491 256 0.625 1 213 178.46875
956	693648 7474 1030 66521 31020.2 2047020.715523045491 256 0 0.3 53.6 12.22
957	701122 6965 1064 66551 32020.1 2048020.905356610147 256 0 3 366 624
958	708087 7847 1064 66551 32020.1 2048020.905356610147 256 0.625 1 210.25 174.25
959	715934 7457 1064 66551 32020.1 2048020.905356610147 256 0 0.4 55.8 13.6
