file 698619 1369674157                                          
version 2
run Stability-norelink-23-20130525-23:15:51-22103
attr configname Stability-norelink
attr datetime 20130525-23:15:51
attr experiment Stability
attr inifile omnetpp.ini
attr iterationvars $0=1e4
attr iterationvars2 "$0=1e4, $repetition=3"
attr measurement $0=1e4
attr network Network
attr processid 22103
attr repetition 3
attr replication #3
attr resultdir results
attr runnumber 23
attr seedset 23
vector 2208  Network.dyn_peer[0]  lookupHopsSig:vector  ETV
2208	6396 6755 30 65312 30.1 20190.812820096801 256 0 3 337 525
vector 2209  Network.dyn_peer[0]  lookupStabilitySig:vector  ETV
2209	13151 7654 30 65312 30.1 20190.812820096801 256 0.625 1 213.875 179.953125
vector 2210  Network.dyn_peer[0]  lookupTimeSig:vector  ETV
2210	20805 7247 30 65312 30.1 20190.812820096801 256 0 0.4 52.9 12.29
vector 2211  Network.dyn_peer[1]  lookupHopsSig:vector  ETV
2211	28052 6692 62 65349 40.1 20201.045814119964 256 0 3 330 500
vector 2212  Network.dyn_peer[1]  lookupStabilitySig:vector  ETV
2212	34744 7615 62 65349 40.1 20201.045814119964 256 0.625 1 214.75 181.3125
vector 2213  Network.dyn_peer[1]  lookupTimeSig:vector  ETV
2213	42359 7190 62 65349 40.1 20201.045814119964 256 0 0.4 52.2 11.9
vector 2214  Network.dyn_peer[2]  lookupHopsSig:vector  ETV
2214	49549 6676 93 65384 50.2 20210.844090038067 256 0 2 331 499
vector 2215  Network.dyn_peer[2]  lookupStabilitySig:vector  ETV
2215	56225 7580 93 65384 50.2 20210.844090038067 256 0.75 1 214.625 181.046875
vector 2216  Network.dyn_peer[2]  lookupTimeSig:vector  ETV
2216	63805 7170 93 65384 50.2 20210.844090038067 256 0 0.3 52.3 11.95
vector 2217  Network.dyn_peer[3]  lookupHopsSig:vector  ETV
2217	70975 6769 121 65417 60 20221.021943111468 256 0 2 338 518
vector 2218  Network.dyn_peer[3]  lookupStabilitySig:vector  ETV
2218	77744 7671 121 65417 60 20221.021943111468 256 0.75 1 213.75 179.59375
vector 2219  Network.dyn_peer[3]  lookupTimeSig:vector  ETV
2219	85415 7265 121 65417 60 20221.021943111468 256 0 0.3 53 12.28
vector 2220  Network.dyn_peer[4]  lookupHopsSig:vector  ETV
2220	92680 6710 157 65450 70.2 20230.844904090216 256 0 3 345 551
vector 2221  Network.dyn_peer[4]  lookupStabilitySig:vector  ETV
2221	99390 7596 157 65450 70.2 20230.844904090216 256 0.625 1 212.875 178.359375
vector 2222  Network.dyn_peer[4]  lookupTimeSig:vector  ETV
2222	106986 7200 157 65450 70.2 20230.844904090216 256 0 0.4 53.7 12.79
vector 2223  Network.dyn_peer[5]  lookupHopsSig:vector  ETV
2223	114186 6752 189 65480 80 20240.817512731201 256 0 3 348 544
vector 2224  Network.dyn_peer[5]  lookupStabilitySig:vector  ETV
2224	120938 7661 189 65480 80 20240.817512731201 256 0.625 1 212.5 177.5
vector 2225  Network.dyn_peer[5]  lookupTimeSig:vector  ETV
2225	128599 7254 189 65480 80 20240.817512731201 256 0 0.4 54 12.7
vector 2226  Network.dyn_peer[6]  lookupHopsSig:vector  ETV
2226	135853 6768 227 65512 90.2 20251.110191745673 256 0 3 326 494
vector 2227  Network.dyn_peer[6]  lookupStabilitySig:vector  ETV
2227	142621 7659 227 65512 90.2 20251.110191745673 256 0.625 1 215.25 182.21875
vector 2228  Network.dyn_peer[6]  lookupTimeSig:vector  ETV
2228	150280 7254 227 65512 90.2 20251.110191745673 256 0 0.4 51.8 11.98
vector 2229  Network.dyn_peer[7]  lookupHopsSig:vector  ETV
2229	157534 6766 259 65542 100.2 20260.907917889562 256 0 3 337 511
vector 2230  Network.dyn_peer[7]  lookupStabilitySig:vector  ETV
2230	164300 7700 259 65542 100.2 20260.907917889562 256 0.625 1 213.875 179.734375
vector 2231  Network.dyn_peer[7]  lookupTimeSig:vector  ETV
2231	172000 7272 259 65542 100.2 20260.907917889562 256 0 0.4 52.9 12.19
vector 2232  Network.dyn_peer[8]  lookupHopsSig:vector  ETV
2232	179272 6673 293 65580 110.1 20270.946449085587 256 0 3 336 520
vector 2233  Network.dyn_peer[8]  lookupStabilitySig:vector  ETV
2233	185945 7578 293 65580 110.1 20270.946449085587 256 0.625 1 214 180.125
vector 2234  Network.dyn_peer[8]  lookupTimeSig:vector  ETV
2234	193523 7167 293 65580 110.1 20270.946449085587 256 0 0.3 52.8 12.08
vector 2235  Network.dyn_peer[9]  lookupHopsSig:vector  ETV
2235	200690 6731 325 65611 120.2 20280.720973439511 256 0 3 339 529
vector 2236  Network.dyn_peer[9]  lookupStabilitySig:vector  ETV
2236	207421 7633 325 65611 120.2 20280.720973439511 256 0.625 1 213.625 179.515625
vector 2237  Network.dyn_peer[9]  lookupTimeSig:vector  ETV
2237	215054 7225 325 65611 120.2 20280.720973439511 256 0 0.4 53.1 12.33
vector 2238  Network.dyn_peer[10]  lookupHopsSig:vector  ETV
2238	222279 6830 357 65647 130.1 20290.761739782529 256 0 3 325 483
vector 2239  Network.dyn_peer[10]  lookupStabilitySig:vector  ETV
2239	229109 7756 357 65647 130.1 20290.761739782529 256 0.625 1 215.375 182.296875
vector 2240  Network.dyn_peer[10]  lookupTimeSig:vector  ETV
2240	236865 7328 357 65647 130.1 20290.761739782529 256 0 0.4 51.7 11.69
vector 2241  Network.dyn_peer[11]  lookupHopsSig:vector  ETV
2241	244193 6759 390 65679 140.1 20300.733919180166 256 0 3 329 497
vector 2242  Network.dyn_peer[11]  lookupStabilitySig:vector  ETV
2242	250952 7669 390 65679 140.1 20300.733919180166 256 0.625 1 214.875 181.515625
vector 2243  Network.dyn_peer[11]  lookupTimeSig:vector  ETV
2243	258621 7253 390 65679 140.1 20300.733919180166 256 0 0.4 52.1 12.15
vector 2244  Network.dyn_peer[12]  lookupHopsSig:vector  ETV
2244	265874 6677 427 65714 150.1 20310.919951233847 256 0 3 346 542
vector 2245  Network.dyn_peer[12]  lookupStabilitySig:vector  ETV
2245	272551 7592 427 65714 150.1 20310.919951233847 256 0.625 1 212.75 177.96875
vector 2246  Network.dyn_peer[12]  lookupTimeSig:vector  ETV
2246	280143 7179 427 65714 150.1 20310.919951233847 256 0 0.4 53.8 12.44
vector 2247  Network.dyn_peer[13]  lookupHopsSig:vector  ETV
2247	287322 6667 460 65752 160.1 20320.857881803644 256 0 3 336 518
vector 2248  Network.dyn_peer[13]  lookupStabilitySig:vector  ETV
2248	293989 7570 460 65752 160.1 20320.857881803644 256 0.625 1 214 180.09375
vector 2249  Network.dyn_peer[13]  lookupTimeSig:vector  ETV
2249	301559 7161 460 65752 160.1 20320.857881803644 256 0 0.4 52.8 12.18
vector 2250  Network.dyn_peer[14]  lookupHopsSig:vector  ETV
2250	308720 6706 494 65790 170.1 20330.849984956922 256 0 3 341 545
vector 2251  Network.dyn_peer[14]  lookupStabilitySig:vector  ETV
2251	315426 7609 494 65790 170.1 20330.849984956922 256 0.625 1 213.375 179.265625
vector 2252  Network.dyn_peer[14]  lookupTimeSig:vector  ETV
2252	323035 7198 494 65790 170.1 20330.849984956922 256 0 0.4 53.3 12.51
vector 2253  Network.dyn_peer[15]  lookupHopsSig:vector  ETV
2253	330233 6811 525 65820 180.2 20340.823352298552 256 0 2 328 488
vector 2254  Network.dyn_peer[15]  lookupStabilitySig:vector  ETV
2254	337044 7723 525 65820 180.2 20340.823352298552 256 0.75 1 215 181.625
vector 2255  Network.dyn_peer[15]  lookupTimeSig:vector  ETV
2255	344767 7307 525 65820 180.2 20340.823352298552 256 0 0.3 52 11.72
vector 2256  Network.dyn_peer[16]  lookupHopsSig:vector  ETV
2256	352074 6763 555 65857 190.1 20350.846315608106 256 0 3 347 555
vector 2257  Network.dyn_peer[16]  lookupStabilitySig:vector  ETV
2257	358837 7659 555 65857 190.1 20350.846315608106 256 0.625 1 212.625 177.921875
vector 2258  Network.dyn_peer[16]  lookupTimeSig:vector  ETV
2258	366496 7257 555 65857 190.1 20350.846315608106 256 0 0.4 53.9 12.79
vector 2259  Network.dyn_peer[17]  lookupHopsSig:vector  ETV
2259	373753 6794 586 65893 200.2 20360.951206803651 256 0 3 345 549
vector 2260  Network.dyn_peer[17]  lookupStabilitySig:vector  ETV
2260	380547 7706 586 65893 200.2 20360.951206803651 256 0.625 1 212.875 178.328125
vector 2261  Network.dyn_peer[17]  lookupTimeSig:vector  ETV
2261	388253 7292 586 65893 200.2 20360.951206803651 256 0 0.4 53.7 12.67
vector 2262  Network.dyn_peer[18]  lookupHopsSig:vector  ETV
2262	395545 6743 618 65926 210.1 20370.831410755282 256 0 3 333 503
vector 2263  Network.dyn_peer[18]  lookupStabilitySig:vector  ETV
2263	402288 7664 618 65926 210.1 20370.831410755282 256 0.625 1 214.375 180.609375
vector 2264  Network.dyn_peer[18]  lookupTimeSig:vector  ETV
2264	409952 7243 618 65926 210.1 20370.831410755282 256 0 0.4 52.5 11.91
vector 2265  Network.dyn_peer[19]  lookupHopsSig:vector  ETV
2265	417195 6708 646 65961 220.1 20380.839278455991 256 0 2 329 497
vector 2266  Network.dyn_peer[19]  lookupStabilitySig:vector  ETV
2266	423903 7604 646 65961 220.1 20380.839278455991 256 0.75 1 214.875 181.515625
vector 2267  Network.dyn_peer[19]  lookupTimeSig:vector  ETV
2267	431507 7198 646 65961 220.1 20380.839278455991 256 0 0.3 52.1 11.97
vector 2268  Network.dyn_peer[20]  lookupHopsSig:vector  ETV
2268	438705 6750 679 65990 230 20390.716676575223 256 0 3 326 482
vector 2269  Network.dyn_peer[20]  lookupStabilitySig:vector  ETV
2269	445455 7671 679 65990 230 20390.716676575223 256 0.625 1 215.25 182.03125
vector 2270  Network.dyn_peer[20]  lookupTimeSig:vector  ETV
2270	453126 7248 679 65990 230 20390.716676575223 256 0 0.4 51.8 11.66
vector 2271  Network.dyn_peer[21]  lookupHopsSig:vector  ETV
2271	460374 6767 714 66025 240.1 20401.031078990112 256 0 3 327 503
vector 2272  Network.dyn_peer[21]  lookupStabilitySig:vector  ETV
2272	467141 7663 714 66025 240.1 20401.031078990112 256 0.625 1 215.125 182.109375
vector 2273  Network.dyn_peer[21]  lookupTimeSig:vector  ETV
2273	474804 7253 714 66025 240.1 20401.031078990112 256 0 0.4 51.9 12.01
vector 2274  Network.dyn_peer[22]  lookupHopsSig:vector  ETV
2274	482057 6784 750 66058 250.2 20411.021805627088 256 0 3 330 508
vector 2275  Network.dyn_peer[22]  lookupStabilitySig:vector  ETV
2275	488841 7666 750 66058 250.2 20411.021805627088 256 0.625 1 214.75 181.4375
vector 2276  Network.dyn_peer[22]  lookupTimeSig:vector  ETV
2276	496507 7268 750 66058 250.2 20411.021805627088 256 0 0.4 52.2 12.12
vector 2277  Network.dyn_peer[23]  lookupHopsSig:vector  ETV
2277	503775 6747 784 66095 260.2 20420.758475973546 256 0 3 339 517
vector 2278  Network.dyn_peer[23]  lookupStabilitySig:vector  ETV
2278	510522 7672 784 66095 260.2 20420.758475973546 256 0.625 1 213.625 179.328125
vector 2279  Network.dyn_peer[23]  lookupTimeSig:vector  ETV
2279	518194 7251 784 66095 260.2 20420.758475973546 256 0 0.4 53.1 12.19
vector 2280  Network.dyn_peer[24]  lookupHopsSig:vector  ETV
2280	525445 6760 824 66127 270.2 20430.729197440972 256 0 3 340 524
vector 2281  Network.dyn_peer[24]  lookupStabilitySig:vector  ETV
2281	532205 7681 824 66127 270.2 20430.729197440972 256 0.625 1 213.5 179.1875
vector 2282  Network.dyn_peer[24]  lookupTimeSig:vector  ETV
2282	539886 7262 824 66127 270.2 20430.729197440972 256 0 0.4 53.2 12.3
vector 2283  Network.dyn_peer[25]  lookupHopsSig:vector  ETV
2283	547148 6720 857 66157 280.2 20440.712369411346 256 0 3 335 513
vector 2284  Network.dyn_peer[25]  lookupStabilitySig:vector  ETV
2284	553868 7622 857 66157 280.2 20440.712369411346 256 0.625 1 214.125 180.265625
vector 2285  Network.dyn_peer[25]  lookupTimeSig:vector  ETV
2285	561490 7214 857 66157 280.2 20440.712369411346 256 0 0.4 52.7 12.09
vector 2286  Network.dyn_peer[26]  lookupHopsSig:vector  ETV
2286	568704 6729 890 66189 290.1 20450.827835273817 256 0 3 329 497
vector 2287  Network.dyn_peer[26]  lookupStabilitySig:vector  ETV
2287	575433 7632 890 66189 290.1 20450.827835273817 256 0.625 1 214.875 181.515625
vector 2288  Network.dyn_peer[26]  lookupTimeSig:vector  ETV
2288	583065 7221 890 66189 290.1 20450.827835273817 256 0 0.4 52.1 11.85
vector 2289  Network.dyn_peer[27]  lookupHopsSig:vector  ETV
2289	590286 6710 928 66223 300.2 20461.033215352892 256 0 2 330 500
vector 2290  Network.dyn_peer[27]  lookupStabilitySig:vector  ETV
2290	596996 7605 928 66223 300.2 20461.033215352892 256 0.75 1 214.75 181.3125
vector 2291  Network.dyn_peer[27]  lookupTimeSig:vector  ETV
2291	604601 7200 928 66223 300.2 20461.033215352892 256 0 0.3 52.2 12.02
vector 2292  Network.dyn_peer[28]  lookupHopsSig:vector  ETV
2292	611801 6775 957 66250 310.1 20470.604745177158 256 0 3 335 509
vector 2293  Network.dyn_peer[28]  lookupStabilitySig:vector  ETV
2293	618576 7687 957 66250 310.1 20470.604745177158 256 0.625 1 214.125 180.203125
vector 2294  Network.dyn_peer[28]  lookupTimeSig:vector  ETV
2294	626263 7273 957 66250 310.1 20470.604745177158 256 0 0.4 52.7 12.07
vector 2295  Network.dyn_peer[29]  lookupHopsSig:vector  ETV
2295	633536 6821 993 66280 320.1 20480.729609671446 256 0 3 329 493
vector 2296  Network.dyn_peer[29]  lookupStabilitySig:vector  ETV
2296	640357 7748 993 66280 320.1 20480.729609671446 256 0.625 1 214.875 181.453125
vector 2297  Network.dyn_peer[29]  lookupTimeSig:vector  ETV
2297	648105 7321 993 66280 320.1 20480.729609671446 256 0 0.4 52.1 11.79
vector 2298  Network.dyn_peer[30]  lookupHopsSig:vector  ETV
2298	655426 6739 1027 66315 330.1 20491.034776833939 256 0 3 338 516
vector 2299  Network.dyn_peer[30]  lookupStabilitySig:vector  ETV
2299	662165 7653 1027 66315 330.1 20491.034776833939 256 0.625 1 213.75 179.5625
vector 2300  Network.dyn_peer[30]  lookupTimeSig:vector  ETV
2300	669818 7239 1027 66315 330.1 20491.034776833939 256 0 0.4 53 12.18
vector 2301  Network.dyn_peer[31]  lookupHopsSig:vector  ETV
2301	677057 6719 1057 66347 340.2 20500.824302925141 256 0 3 330 502
vector 2302  Network.dyn_peer[31]  lookupStabilitySig:vector  ETV
2302	683776 7630 1057 66347 340.2 20500.824302925141 256 0.625 1 214.75 181.34375
vector 2303  Network.dyn_peer[31]  lookupTimeSig:vector  ETV
2303	691406 7213 1057 66347 340.2 20500.824302925141 256 0 0.4 52.2 12.02
