file 890650 1369516756                                          
version 2
run Stability-norelink-78-20130525-23:19:12-22103
attr configname Stability-norelink
attr datetime 20130525-23:19:12
attr experiment Stability
attr inifile omnetpp.ini
attr iterationvars $0=1e-1
attr iterationvars2 "$0=1e-1, $repetition=8"
attr measurement $0=1e-1
attr network Network
attr processid 22103
attr repetition 8
attr replication #8
attr resultdir results
attr runnumber 78
attr seedset 78

vector 7506  Network.dyn_peer[6]  lookupHopsSig:vector  ETV
vector 7507  Network.dyn_peer[6]  lookupStabilitySig:vector  ETV
vector 7508  Network.dyn_peer[6]  lookupTimeSig:vector  ETV
vector 7512  Network.dyn_peer[8]  lookupHopsSig:vector  ETV
vector 7513  Network.dyn_peer[8]  lookupStabilitySig:vector  ETV
vector 7514  Network.dyn_peer[8]  lookupTimeSig:vector  ETV
vector 7518  Network.dyn_peer[10]  lookupHopsSig:vector  ETV
vector 7519  Network.dyn_peer[10]  lookupStabilitySig:vector  ETV
vector 7520  Network.dyn_peer[10]  lookupTimeSig:vector  ETV
vector 7539  Network.dyn_peer[17]  lookupHopsSig:vector  ETV
vector 7540  Network.dyn_peer[17]  lookupStabilitySig:vector  ETV
vector 7541  Network.dyn_peer[17]  lookupTimeSig:vector  ETV
vector 7491  Network.dyn_peer[1]  lookupHopsSig:vector  ETV
vector 7492  Network.dyn_peer[1]  lookupStabilitySig:vector  ETV
vector 7493  Network.dyn_peer[1]  lookupTimeSig:vector  ETV
vector 7497  Network.dyn_peer[3]  lookupHopsSig:vector  ETV
vector 7498  Network.dyn_peer[3]  lookupStabilitySig:vector  ETV
vector 7499  Network.dyn_peer[3]  lookupTimeSig:vector  ETV
vector 7503  Network.dyn_peer[5]  lookupHopsSig:vector  ETV
vector 7504  Network.dyn_peer[5]  lookupStabilitySig:vector  ETV
vector 7505  Network.dyn_peer[5]  lookupTimeSig:vector  ETV
vector 7509  Network.dyn_peer[7]  lookupHopsSig:vector  ETV
vector 7510  Network.dyn_peer[7]  lookupStabilitySig:vector  ETV
vector 7511  Network.dyn_peer[7]  lookupTimeSig:vector  ETV
vector 7542  Network.dyn_peer[18]  lookupHopsSig:vector  ETV
vector 7543  Network.dyn_peer[18]  lookupStabilitySig:vector  ETV
vector 7544  Network.dyn_peer[18]  lookupTimeSig:vector  ETV
vector 7545  Network.dyn_peer[19]  lookupHopsSig:vector  ETV
vector 7546  Network.dyn_peer[19]  lookupStabilitySig:vector  ETV
vector 7547  Network.dyn_peer[19]  lookupTimeSig:vector  ETV
vector 7560  Network.dyn_peer[24]  lookupHopsSig:vector  ETV
vector 7561  Network.dyn_peer[24]  lookupStabilitySig:vector  ETV
vector 7562  Network.dyn_peer[24]  lookupTimeSig:vector  ETV
vector 7566  Network.dyn_peer[26]  lookupHopsSig:vector  ETV
vector 7567  Network.dyn_peer[26]  lookupStabilitySig:vector  ETV
vector 7568  Network.dyn_peer[26]  lookupTimeSig:vector  ETV
vector 7572  Network.dyn_peer[28]  lookupHopsSig:vector  ETV
vector 7573  Network.dyn_peer[28]  lookupStabilitySig:vector  ETV
vector 7574  Network.dyn_peer[28]  lookupTimeSig:vector  ETV
vector 7575  Network.dyn_peer[29]  lookupHopsSig:vector  ETV
vector 7576  Network.dyn_peer[29]  lookupStabilitySig:vector  ETV
vector 7577  Network.dyn_peer[29]  lookupTimeSig:vector  ETV
vector 7521  Network.dyn_peer[11]  lookupHopsSig:vector  ETV
vector 7522  Network.dyn_peer[11]  lookupStabilitySig:vector  ETV
vector 7523  Network.dyn_peer[11]  lookupTimeSig:vector  ETV
vector 7524  Network.dyn_peer[12]  lookupHopsSig:vector  ETV
vector 7525  Network.dyn_peer[12]  lookupStabilitySig:vector  ETV
vector 7526  Network.dyn_peer[12]  lookupTimeSig:vector  ETV
vector 7527  Network.dyn_peer[13]  lookupHopsSig:vector  ETV
vector 7528  Network.dyn_peer[13]  lookupStabilitySig:vector  ETV
vector 7529  Network.dyn_peer[13]  lookupTimeSig:vector  ETV
vector 7533  Network.dyn_peer[15]  lookupHopsSig:vector  ETV
vector 7534  Network.dyn_peer[15]  lookupStabilitySig:vector  ETV
vector 7535  Network.dyn_peer[15]  lookupTimeSig:vector  ETV
vector 7548  Network.dyn_peer[20]  lookupHopsSig:vector  ETV
vector 7549  Network.dyn_peer[20]  lookupStabilitySig:vector  ETV
vector 7550  Network.dyn_peer[20]  lookupTimeSig:vector  ETV
vector 7578  Network.dyn_peer[30]  lookupHopsSig:vector  ETV
vector 7579  Network.dyn_peer[30]  lookupStabilitySig:vector  ETV
vector 7580  Network.dyn_peer[30]  lookupTimeSig:vector  ETV
vector 7581  Network.dyn_peer[31]  lookupHopsSig:vector  ETV
vector 7582  Network.dyn_peer[31]  lookupStabilitySig:vector  ETV
vector 7583  Network.dyn_peer[31]  lookupTimeSig:vector  ETV
vector 7488  Network.dyn_peer[0]  lookupHopsSig:vector  ETV
vector 7489  Network.dyn_peer[0]  lookupStabilitySig:vector  ETV
vector 7490  Network.dyn_peer[0]  lookupTimeSig:vector  ETV
vector 7494  Network.dyn_peer[2]  lookupHopsSig:vector  ETV
vector 7495  Network.dyn_peer[2]  lookupStabilitySig:vector  ETV
vector 7496  Network.dyn_peer[2]  lookupTimeSig:vector  ETV
vector 7530  Network.dyn_peer[14]  lookupHopsSig:vector  ETV
vector 7531  Network.dyn_peer[14]  lookupStabilitySig:vector  ETV
vector 7532  Network.dyn_peer[14]  lookupTimeSig:vector  ETV
vector 7551  Network.dyn_peer[21]  lookupHopsSig:vector  ETV
vector 7552  Network.dyn_peer[21]  lookupStabilitySig:vector  ETV
vector 7553  Network.dyn_peer[21]  lookupTimeSig:vector  ETV
vector 7557  Network.dyn_peer[23]  lookupHopsSig:vector  ETV
vector 7558  Network.dyn_peer[23]  lookupStabilitySig:vector  ETV
vector 7559  Network.dyn_peer[23]  lookupTimeSig:vector  ETV
vector 7569  Network.dyn_peer[27]  lookupHopsSig:vector  ETV
vector 7570  Network.dyn_peer[27]  lookupStabilitySig:vector  ETV
vector 7571  Network.dyn_peer[27]  lookupTimeSig:vector  ETV
vector 7515  Network.dyn_peer[9]  lookupHopsSig:vector  ETV
vector 7516  Network.dyn_peer[9]  lookupStabilitySig:vector  ETV
vector 7517  Network.dyn_peer[9]  lookupTimeSig:vector  ETV
vector 7536  Network.dyn_peer[16]  lookupHopsSig:vector  ETV
vector 7537  Network.dyn_peer[16]  lookupStabilitySig:vector  ETV
vector 7538  Network.dyn_peer[16]  lookupTimeSig:vector  ETV
vector 7500  Network.dyn_peer[4]  lookupHopsSig:vector  ETV
vector 7501  Network.dyn_peer[4]  lookupStabilitySig:vector  ETV
vector 7502  Network.dyn_peer[4]  lookupTimeSig:vector  ETV
vector 7554  Network.dyn_peer[22]  lookupHopsSig:vector  ETV
vector 7555  Network.dyn_peer[22]  lookupStabilitySig:vector  ETV
vector 7556  Network.dyn_peer[22]  lookupTimeSig:vector  ETV
vector 7563  Network.dyn_peer[25]  lookupHopsSig:vector  ETV
vector 7564  Network.dyn_peer[25]  lookupStabilitySig:vector  ETV
vector 7565  Network.dyn_peer[25]  lookupTimeSig:vector  ETV
7488	6399 8475 283 138242 20.3001 136.815960372237 289 0 17 1287 8871
7489	14874 9437 283 138242 20.3001 136.815960372237 289 -1.125 1 128.15277777612 105.90181326903
7490	24311 9004 283 138242 20.3001 136.815960372237 289 0 1.8 141.3 94.35
7491	33315 9021 142 137595 20.1002 136.152943554558 308 0 17 1256 7620
7492	42336 10069 142 137595 20.1002 136.152943554558 308 -1.125 1 151.23611105978 113.01986883783
7493	52405 9608 142 137595 20.1002 136.152943554558 308 0 1.6 142 85.68
7494	62013 8128 289 138666 20.3003 137.630402460571 275 0 29 1331 10105
7495	70141 9008 289 138666 20.3003 137.630402460571 275 -2.625 1 108.72222220898 100.17438271016
7496	79149 8627 289 138666 20.3003 137.630402460571 275 0 2.5 144.7 104.63
7497	87776 8739 148 137878 20.1004 136.423847636489 297 0 19 1285 8361
7498	96515 9697 148 137878 20.1004 136.423847636489 297 -1.375 1 136.375 106.390625
7499	106212 9304 148 137878 20.1004 136.423847636489 297 0 1.6 143.2 90.42
7500	115516 9529 406 137697 20.5005 136.261279468816 323 0 18 1323 8109
7501	125045 10571 406 137697 20.5005 136.261279468816 323 -1.25 1 157.625 118.953125
7502	135616 10143 406 137697 20.5005 136.261279468816 323 0 1.7 148.3 90.55
7503	145759 8775 154 137340 20.1006 135.911561261614 299 0 24 1295 9531
7504	154534 9747 154 137340 20.1006 135.911561261614 299 -2 1 137.125 124.171875
7505	164281 9316 154 137340 20.1006 135.911561261614 299 0 2 142.4 97.3
7506	173597 8388 49 138645 20.0007 137.566566802387 285 0 33 1321 10445
7507	181985 9323 49 138645 20.0007 137.566566802387 285 -3.125 1 120.06944441795 117.99440584065
7508	191308 8902 49 138645 20.0007 137.566566802387 285 0 3 144.3 108.47
7509	200210 8687 160 138562 20.1008 137.355322975374 295 0 18 1300 8830
7510	208897 9649 160 138562 20.1008 137.355322975374 295 -1.25 1 132.5 107.96875
7511	218546 9231 160 138562 20.1008 137.355322975374 295 0 1.6 143.2 93.16
7512	227777 8615 59 138392 20.0009 137.033974127246 293 0 21 1272 9072
7513	236392 9591 59 138392 20.0009 137.033974127246 293 -1.625 1 134.13888883591 116.69984569079
7514	245983 9138 59 138392 20.0009 137.033974127246 293 0 1.8 140 94.14
7515	255121 8333 358 138408 20.401 137.044733120374 283 0 18 1281 9281
7516	263454 9238 358 138408 20.401 137.044733120374 283 -1.25 1 122.875 107.765625
7517	272692 8857 358 138408 20.401 137.044733120374 283 0 1.7 142.3 99.75
7518	281549 8696 69 137188 20.0011 135.807332788504 295 0 23 1255 8259
7519	290245 9672 69 137188 20.0011 135.807332788504 295 -1.875 1 138.23611109704 110.43383485815
7520	299917 9247 69 137188 20.0011 135.807332788504 295 0 2.1 141.6 92.88
7521	309164 9057 226 137813 20.2012 136.362320953176 308 0 15 1233 7299
7522	318221 10077 226 137813 20.2012 136.362320953176 308 -0.875 1 154.01388886571 113.88445214136
7523	328298 9643 226 137813 20.2012 136.362320953176 308 0 1.4 137.9 80.57
7524	337941 8543 231 137907 20.2013 136.437031279706 291 0 20 1263 9381
7525	346484 9515 231 137907 20.2013 136.437031279706 291 -1.5 1 133.18055555224 121.88676697163
7526	355999 9085 231 137907 20.2013 136.437031279706 291 0 1.9 138 94.6
7527	365084 9013 236 138582 20.2014 137.372405827942 307 0 23 1331 9701
7528	374097 10018 236 138582 20.2014 137.372405827942 307 -1.875 1 140.68055554479 125.90644288652
7529	384115 9585 236 138582 20.2014 137.372405827942 307 0 2.1 148.5 101.69
7530	393700 8715 307 137282 20.3015 135.857741651273 296 0 16 1308 8776
7531	402415 9677 307 137282 20.3015 135.857741651273 296 -1 1 132.51388888806 106.14949845532
7532	412092 9263 307 137282 20.3015 135.857741651273 296 0 1.4 146.3 97.93
7533	421355 8604 242 138043 20.2016 136.553043554558 293 0 20 1228 8340
7534	429959 9594 242 138043 20.2016 136.553043554558 293 -1.5 1 139.56944441795 116.36940584065
7535	439553 9156 242 138043 20.2016 136.553043554558 293 0.1 1.8 135.9 87.83
7536	448709 8998 369 138535 20.4017 137.320156485093 306 0 21 1317 8725
7537	457707 10019 369 138535 20.4017 137.320156485093 306 -1.625 1 141.40277777612 113.12056326903
7538	467726 9578 369 138535 20.4017 137.320156485093 306 0.1 1.7 146.3 94.57
7539	477304 8451 94 138446 20.0018 137.093836534274 287 0 22 1304 9618
7540	485755 9366 94 138446 20.0018 137.093836534274 287 -1.75 1 124 111.28125
7541	495121 8967 94 138446 20.0018 137.093836534274 287 0 2 143.7 101.61
7542	504088 7412 175 137280 20.1019 135.857641651273 252 0 22 1228 9352
7543	511500 8206 175 137280 20.1019 135.857641651273 252 -1.75 1 98.5 91.125
7544	519706 7872 175 137280 20.1019 135.857641651273 252 0 2 134.3 99.67
7545	527578 9113 180 137537 20.102 136.116816162553 310 0 21 1244 7830
7546	536691 10165 180 137537 20.102 136.116816162553 310 -1.625 1 154.59722220898 121.48900461087
7547	546856 9685 180 137537 20.102 136.116816162553 310 0 2 140.5 87.17
7548	556541 8608 251 138349 20.2021 136.968521714818 292 0 16 1264 8284
7549	565149 9572 251 138349 20.2021 136.968521714818 292 -1 1 134 105.4375
7550	574721 9151 251 138349 20.2021 136.968521714818 292 0 1.6 140 90.62
7551	583872 9518 317 136872 20.3022 135.552330000151 324 0 20 1308 8166
7552	593390 10577 317 136872 20.3022 135.552330000151 324 -1.5 1 160.62499996275 124.72897372717
7553	603967 10129 317 136872 20.3022 135.552330000151 324 0 1.8 148.7 92.29
7554	614096 8562 422 138020 20.5023 136.548212410822 291 0 21 1295 9195
7555	622658 9535 422 138020 20.5023 136.548212410822 291 -1.625 1 129.15277777612 110.96431326903
7556	632193 9108 422 138020 20.5023 136.548212410822 291 0 1.8 142.4 95.52
7557	641301 8188 323 137168 20.3024 135.793038668125 279 0 20 1263 9163
7558	649489 9149 323 137168 20.3024 135.793038668125 279 -1.5 1 121.2499999702 106.56365737871
7559	658638 8690 323 137168 20.3024 135.793038668125 279 0 1.9 139.4 96.78
7560	667328 8473 189 137563 20.1025 136.132274362803 289 0 18 1242 8206
7561	675801 9425 189 137563 20.1025 136.132274362803 289 -1.25 1 133.9999999851 106.85802467186
7562	685226 9008 189 137563 20.1025 136.132274362803 289 0 1.6 138.8 89.64
7563	694234 9796 543 138613 20.7026 137.440418767082 332 0 20 1266 7712
7564	704030 10853 543 138613 20.7026 137.440418767082 332 -1.5 1 173.79166665673 136.0538194312
7565	714883 10427 543 138613 20.7026 137.440418767082 332 0 1.9 145.1 88.01
7566	725310 8301 195 138576 20.1027 137.363072196886 282 0 17 1204 7846
7567	733611 9213 195 138576 20.1027 137.363072196886 282 -1.125 1 131.5 103.59375
7568	742824 8834 195 138576 20.1027 137.363072196886 282 0 1.5 132.6 83.1
7569	751658 8270 331 137761 20.3028 136.321620113074 281 0 23 1288 9658
7570	759928 9193 331 137761 20.3028 136.321620113074 281 -1.875 1 120.02777777612 109.94868826903
7571	769121 8788 331 137761 20.3028 136.321620113074 281 0 2.1 141.8 101.6
7572	777909 8777 201 137744 20.1029 136.304461027384 298 0 20 1208 7746
7573	786686 9801 201 137744 20.1029 136.304461027384 298 -1.5 1 147.11944442987 117.20500769546
7574	796487 9348 201 137744 20.1029 136.304461027384 298 0 1.7 135.9 84.67
7575	805835 9143 206 138682 20.103 137.665202082686 310 0 22 1313 9131
7576	814978 10162 206 138682 20.103 137.665202082686 310 -1.75 1 145.95833332837 124.52295524066
7577	825140 9723 206 138682 20.103 137.665202082686 310 0 2.1 147.5 100.21
7578	834863 8528 265 138012 20.2031 136.542351403617 290 0 23 1241 8705
7579	843391 9459 265 138012 20.2031 136.542351403617 290 -1.875 1 134.875 115.765625
7580	852850 9056 265 138012 20.2031 136.542351403617 290 0 2.1 136.5 89.83
7581	861906 9043 270 137182 20.2032 135.803120163762 307 0 18 1278 8608
7582	870949 10086 270 137182 20.2032 135.803120163762 307 -1.25 1 147.29166665673 122.0538194312
7583	881035 9615 270 137182 20.2032 135.803120163762 307 0 1.8 142.5 92.73
