version 2
run Stability-norelink-121-20130525-23:22:07-22103
attr configname Stability-norelink
attr datetime 20130525-23:22:07
attr experiment Stability
attr inifile omnetpp.ini
attr iterationvars $0=1e-6
attr iterationvars2 "$0=1e-6, $repetition=1"
attr measurement $0=1e-6
attr network Network
attr processid 22103
attr repetition 1
attr replication #1
attr resultdir results
attr runnumber 121
attr seedset 121

vector 11622  Network.dyn_peer[2]  lookupHopsSig:vector  ETV
vector 11623  Network.dyn_peer[2]  lookupStabilitySig:vector  ETV
vector 11624  Network.dyn_peer[2]  lookupTimeSig:vector  ETV
vector 11628  Network.dyn_peer[4]  lookupHopsSig:vector  ETV
vector 11629  Network.dyn_peer[4]  lookupStabilitySig:vector  ETV
vector 11630  Network.dyn_peer[4]  lookupTimeSig:vector  ETV
vector 11685  Network.dyn_peer[23]  lookupHopsSig:vector  ETV
vector 11686  Network.dyn_peer[23]  lookupStabilitySig:vector  ETV
vector 11687  Network.dyn_peer[23]  lookupTimeSig:vector  ETV
vector 11706  Network.dyn_peer[30]  lookupHopsSig:vector  ETV
vector 11707  Network.dyn_peer[30]  lookupStabilitySig:vector  ETV
vector 11708  Network.dyn_peer[30]  lookupTimeSig:vector  ETV
vector 11631  Network.dyn_peer[5]  lookupHopsSig:vector  ETV
vector 11632  Network.dyn_peer[5]  lookupStabilitySig:vector  ETV
vector 11633  Network.dyn_peer[5]  lookupTimeSig:vector  ETV
vector 11634  Network.dyn_peer[6]  lookupHopsSig:vector  ETV
vector 11635  Network.dyn_peer[6]  lookupStabilitySig:vector  ETV
vector 11636  Network.dyn_peer[6]  lookupTimeSig:vector  ETV
vector 11640  Network.dyn_peer[8]  lookupHopsSig:vector  ETV
vector 11641  Network.dyn_peer[8]  lookupStabilitySig:vector  ETV
vector 11642  Network.dyn_peer[8]  lookupTimeSig:vector  ETV
vector 11643  Network.dyn_peer[9]  lookupHopsSig:vector  ETV
vector 11644  Network.dyn_peer[9]  lookupStabilitySig:vector  ETV
vector 11645  Network.dyn_peer[9]  lookupTimeSig:vector  ETV
vector 11655  Network.dyn_peer[13]  lookupHopsSig:vector  ETV
vector 11656  Network.dyn_peer[13]  lookupStabilitySig:vector  ETV
vector 11657  Network.dyn_peer[13]  lookupTimeSig:vector  ETV
vector 11661  Network.dyn_peer[15]  lookupHopsSig:vector  ETV
vector 11662  Network.dyn_peer[15]  lookupStabilitySig:vector  ETV
vector 11663  Network.dyn_peer[15]  lookupTimeSig:vector  ETV
vector 11679  Network.dyn_peer[21]  lookupHopsSig:vector  ETV
vector 11680  Network.dyn_peer[21]  lookupStabilitySig:vector  ETV
vector 11681  Network.dyn_peer[21]  lookupTimeSig:vector  ETV
vector 11700  Network.dyn_peer[28]  lookupHopsSig:vector  ETV
vector 11701  Network.dyn_peer[28]  lookupStabilitySig:vector  ETV
vector 11702  Network.dyn_peer[28]  lookupTimeSig:vector  ETV
vector 11709  Network.dyn_peer[31]  lookupHopsSig:vector  ETV
vector 11710  Network.dyn_peer[31]  lookupStabilitySig:vector  ETV
vector 11711  Network.dyn_peer[31]  lookupTimeSig:vector  ETV
vector 11616  Network.dyn_peer[0]  lookupHopsSig:vector  ETV
vector 11617  Network.dyn_peer[0]  lookupStabilitySig:vector  ETV
vector 11618  Network.dyn_peer[0]  lookupTimeSig:vector  ETV
vector 11619  Network.dyn_peer[1]  lookupHopsSig:vector  ETV
vector 11620  Network.dyn_peer[1]  lookupStabilitySig:vector  ETV
vector 11621  Network.dyn_peer[1]  lookupTimeSig:vector  ETV
vector 11637  Network.dyn_peer[7]  lookupHopsSig:vector  ETV
vector 11638  Network.dyn_peer[7]  lookupStabilitySig:vector  ETV
vector 11639  Network.dyn_peer[7]  lookupTimeSig:vector  ETV
vector 11649  Network.dyn_peer[11]  lookupHopsSig:vector  ETV
vector 11650  Network.dyn_peer[11]  lookupStabilitySig:vector  ETV
vector 11651  Network.dyn_peer[11]  lookupTimeSig:vector  ETV
vector 11652  Network.dyn_peer[12]  lookupHopsSig:vector  ETV
vector 11653  Network.dyn_peer[12]  lookupStabilitySig:vector  ETV
vector 11654  Network.dyn_peer[12]  lookupTimeSig:vector  ETV
vector 11667  Network.dyn_peer[17]  lookupHopsSig:vector  ETV
vector 11668  Network.dyn_peer[17]  lookupStabilitySig:vector  ETV
vector 11669  Network.dyn_peer[17]  lookupTimeSig:vector  ETV
vector 11670  Network.dyn_peer[18]  lookupHopsSig:vector  ETV
vector 11671  Network.dyn_peer[18]  lookupStabilitySig:vector  ETV
vector 11672  Network.dyn_peer[18]  lookupTimeSig:vector  ETV
vector 11688  Network.dyn_peer[24]  lookupHopsSig:vector  ETV
vector 11689  Network.dyn_peer[24]  lookupStabilitySig:vector  ETV
vector 11690  Network.dyn_peer[24]  lookupTimeSig:vector  ETV
vector 11691  Network.dyn_peer[25]  lookupHopsSig:vector  ETV
vector 11692  Network.dyn_peer[25]  lookupStabilitySig:vector  ETV
vector 11693  Network.dyn_peer[25]  lookupTimeSig:vector  ETV
vector 11703  Network.dyn_peer[29]  lookupHopsSig:vector  ETV
vector 11704  Network.dyn_peer[29]  lookupStabilitySig:vector  ETV
vector 11705  Network.dyn_peer[29]  lookupTimeSig:vector  ETV
vector 11658  Network.dyn_peer[14]  lookupHopsSig:vector  ETV
vector 11659  Network.dyn_peer[14]  lookupStabilitySig:vector  ETV
vector 11660  Network.dyn_peer[14]  lookupTimeSig:vector  ETV
vector 11664  Network.dyn_peer[16]  lookupHopsSig:vector  ETV
vector 11665  Network.dyn_peer[16]  lookupStabilitySig:vector  ETV
vector 11666  Network.dyn_peer[16]  lookupTimeSig:vector  ETV
vector 11673  Network.dyn_peer[19]  lookupHopsSig:vector  ETV
vector 11674  Network.dyn_peer[19]  lookupStabilitySig:vector  ETV
vector 11675  Network.dyn_peer[19]  lookupTimeSig:vector  ETV
vector 11697  Network.dyn_peer[27]  lookupHopsSig:vector  ETV
vector 11698  Network.dyn_peer[27]  lookupStabilitySig:vector  ETV
vector 11699  Network.dyn_peer[27]  lookupTimeSig:vector  ETV
vector 11625  Network.dyn_peer[3]  lookupHopsSig:vector  ETV
vector 11626  Network.dyn_peer[3]  lookupStabilitySig:vector  ETV
vector 11627  Network.dyn_peer[3]  lookupTimeSig:vector  ETV
vector 11676  Network.dyn_peer[20]  lookupHopsSig:vector  ETV
vector 11677  Network.dyn_peer[20]  lookupStabilitySig:vector  ETV
vector 11678  Network.dyn_peer[20]  lookupTimeSig:vector  ETV
vector 11682  Network.dyn_peer[22]  lookupHopsSig:vector  ETV
vector 11683  Network.dyn_peer[22]  lookupStabilitySig:vector  ETV
vector 11684  Network.dyn_peer[22]  lookupTimeSig:vector  ETV
vector 11646  Network.dyn_peer[10]  lookupHopsSig:vector  ETV
vector 11647  Network.dyn_peer[10]  lookupStabilitySig:vector  ETV
vector 11648  Network.dyn_peer[10]  lookupTimeSig:vector  ETV
vector 11694  Network.dyn_peer[26]  lookupHopsSig:vector  ETV
vector 11695  Network.dyn_peer[26]  lookupStabilitySig:vector  ETV
vector 11696  Network.dyn_peer[26]  lookupTimeSig:vector  ETV
11616	217	20.200000001	2
11616	672	20.900000001	6
11616	967	21.207450479817	2
11616	1291	21.509474278975	2
11616	1471	21.619349850954	2
11616	1949	22.019449851954	4
11616	2548	22.619449851954	5
11616	2949	23.024273570113	3
11616	3287	23.428506778542	3
11616	3631	23.732139094027	2
11616	4206	24.132950576269	4
11616	4481	24.332950576269	1
11616	4609	24.433050577269	1
11616	5155	24.933050577269	4
11616	6267	25.936719497489	9
11616	6966	26.449815494193	14
11616	7297	26.73594024068	6
11616	7470	26.855727656917	3
11616	7544	26.881890104262	3
11616	8267	27.489753478499	6
11616	8441	27.689753478499	1
11616	8790	27.991130036501	2
11616	9503	28.595076864887	6
11616	10497	29.595076864887	9
11616	10664	29.797082531539	1
11616	11077	30.202491036386	3
11616	11460	30.509041327162	3
11616	12271	31.309041327162	7
11616	12669	31.7026234064	1
11616	12684	31.711958354397	3
11616	13448	32.412811648701	6
11616	13966	32.815451775466	4
11616	14228	33.015451775466	1
11616	14651	33.419774461491	3
11616	14940	33.696267611921	1
11616	15010	33.724846377186	3
11616	15525	34.20577102185	5
11616	15879	34.513913172726	3
11616	16601	35.215068952823	4
11616	17457	35.915068952823	7
11616	17862	36.239467137522	2
11616	19599	37.739806030682	16
11616	19753	37.955720938291	1
11616	19956	38.15594886326	1
11616	20210	38.367596964483	2
11616	20701	38.74919168171	1
11616	20756	38.775559929714	4
11616	20930	38.952267304505	1
11616	21555	39.358746517129	4
11616	22291	39.858746517129	5
11616	22796	40.266704648684	3
11616	23069	40.536144059688	2
11616	23498	40.867896965483	6
11616	23504	40.870812716302	6
11616	23704	41.075499743269	1
11616	23708	41.076427485211	1
11616	24511	41.776527486211	7
11616	25513	42.607638328146	4
11616	26070	43.011191871753	4
11616	26350	43.22259855766	2
11616	26664	43.434624565379	1
11616	26745	43.502923066726	3
11616	26804	43.567032871792	1
11616	28725	45.07187924608	17
11616	29267	45.57187924608	4
11616	29646	45.880973466093	3
11616	29722	45.937068281234	3
11616	29986	46.175412038889	5
11616	30252	46.379325723791	2
11616	31439	47.379325723791	11
11616	31810	47.688182702305	2
11616	32108	47.999285081653	2
11616	32324	48.20205412994	2
11616	32662	48.50494874886	2
11616	32793	48.595215534483	0
11616	33868	49.495215534483	8
11616	34547	50.036900608254	3
11616	34948	50.341851812937	2
11616	35245	50.596730793152	11
11616	35310	50.633187063061	2
11616	35380	50.699038191815	5
11616	35491	50.750455958864	3
11616	35702	50.934746901394	2
11616	35795	51.002737297804	2
11616	36003	51.153897570794	3
11616	36007	51.156619982726	3
11616	36516	51.556719983726	5
11616	38272	52.963119528075	15
11616	38518	53.170682553013	1
11616	39594	54.17678244686	11
11616	39887	54.47678244686	2
11616	40872	55.383983552002	8
11616	41593	55.890473470824	6
11616	41823	56.090473470824	1
11616	42237	56.399779593645	2
11616	42430	56.56413547611	2
11616	42888	56.965425820314	4
11616	43395	57.465646560994	6
11616	43523	57.565646560994	0
11616	43954	57.969130895553	3
11616	44284	58.283559974206	2
11616	44505	58.490519315312	2
11616	45322	59.290519315312	7
11616	46160	59.990619316312	7
11616	46915	60.590619316312	5
11616	47740	61.194336003342	6
11616	47747	61.198424913621	6
11616	48231	61.6124942402	3
11616	49001	62.2125942412	7
11616	49458	62.6125942412	3
11616	49811	63.030053993826	3
11616	50565	63.737331981476	7
11616	51198	64.345877555078	5
11616	51445	64.553588546133	3
11616	51961	65.053588546133	4
11616	52470	65.461641267026	5
11616	52531	65.531388403029	4
11616	52734	65.67008920145	1
11616	52808	65.738505840372	1
11616	53508	66.298362611447	4
11616	53548	66.348077884787	5
11616	54159	66.751177466116	3
11616	54565	67.061888855658	2
11616	54687	67.159072224053	1
11616	54749	67.183310015217	15
11616	55518	67.693223876117	5
11616	55732	67.893223876117	1
11616	56839	68.793384804257	9
11616	57091	68.993484805257	2
11616	57395	69.293484805257	2
11616	58818	70.609855294638	2
11616	59255	71.009855294638	3
11616	60291	71.913655002357	8
11616	60395	72.01854147042	1
11616	60628	72.21854147042	1
11616	60983	72.520942202679	2
11616	60993	72.527374434596	2
11616	61370	72.830562063283	2
11616	63254	74.532519318874	19
11616	63372	74.632519318874	1
11616	64162	75.335621113887	6
11616	64439	75.637944775349	2
11616	65628	76.546367959668	8
11616	65985	76.850585161852	8
11616	66166	76.950619594973	4
11616	67214	77.659114637004	8
11616	67633	77.959114637004	2
11616	67900	78.163929907532	1
11616	68279	78.464029908532	3
11616	69409	79.564029908532	10
11616	69711	79.869531152947	2
11616	70147	80.271403163862	3
11616	70403	80.476306308272	1
11616	70946	80.897325537517	6
11616	71071	80.991985066289	12
11616	71544	81.368110026721	9
11616	71566	81.377244614715	8
11616	72175	81.884145432167	5
11616	72663	82.284145432167	3
11616	73290	82.788097751588	4
11616	73445	82.888866750983	1
11616	74253	83.588866750983	6
11616	74600	83.89446043124	2
11616	75581	84.685840925646	8
11616	75863	84.89476764576	10
11616	76186	85.097520024262	2
11616	76899	85.592726366437	2
11616	77877	86.392726366437	8
11616	78610	86.998844065704	5
11616	78750	87.142521972381	6
11616	79092	87.451497566275	3
11616	79138	87.507402846641	4
11616	79406	87.760419801314	2
11616	79455	87.814395469948	2
11616	79482	87.850630288676	6
11616	79488	87.858412321166	1
11616	79979	88.358512322166	5
11616	80358	88.758512322166	3
11616	80946	89.361572160468	5
11616	81752	90.017296342892	4
11616	81784	90.055548913956	4
11616	81799	90.063156963271	7
11616	83321	91.272900292041	13
11616	83698	91.572900292041	2
11616	84415	92.281245589932	6
11616	84894	92.690314235087	3
11616	85345	93.07907662567	5
11616	85363	93.097552517403	3
11616	86417	94.001830228905	10
11616	86817	94.401830228905	4
11616	87270	94.806043911079	4
11616	89646	96.897618577693	16
11616	90398	97.497618577693	6
11616	91043	98.011694104404	4
11616	91766	98.615539288549	5
11616	92504	99.321817511997	6
11616	93182	99.924484516218	5
11616	93375	100.107538398707	11
11616	93861	100.507638399707	4
11616	102264	108.198381373779	2
11616	102280	108.204513275417	2
11616	104082	109.706669691067	16
11616	104281	109.906669691067	1
11616	104935	110.410191486651	4
11616	105492	110.842680073019	7
11616	105522	110.922426372172	3
11616	105665	111.052483281976	1
11616	106206	111.5558455624	5
11616	107136	112.4558455624	9
11616	108350	113.562798638417	11
11616	108857	113.970216156082	3
11616	109100	114.174221842569	1
11616	109966	114.777211845408	5
11616	110712	115.332853289002	4
11616	110871	115.461220837374	14
11616	110982	115.537725867084	1
11616	111171	115.685409015922	9
11616	111232	115.749814984402	1
11616	111802	116.153324918717	6
11616	112468	116.653324918717	4
11616	112716	116.856210912313	1
11616	112723	116.856851432293	1
11616	113414	117.458111159679	6
11616	114049	117.958111159679	4
11616	115382	119.136572010289	3
11616	116181	119.736572010289	6
11616	116688	120.140737685267	4
11616	116898	120.314106604578	4
11616	117024	120.449797259617	2
11616	117429	120.753020456936	4
11616	118122	121.403823084255	5
11616	118589	121.803823084255	3
11616	118855	122.005144654944	1
11616	119167	122.314533740995	3
11616	119728	122.817294414244	4
11616	119808	122.891635117804	7
11616	120151	123.096978015496	2
11616	120919	123.696978015496	6
11616	121741	124.411609794476	6
11616	121972	124.623275218246	1
11616	122248	124.923375219246	3
11616	122953	125.513446064923	2
11616	123093	125.623375219246	8
11616	124499	127.02903202303	14
11616	124876	127.42903202303	4
11616	125967	128.434769484321	9
11616	126511	128.944217163964	4
11616	127106	129.444317164964	6
11616	127436	129.744317164964	2
11616	127782	130.054897370931	2
11616	128366	130.663810177616	6
11616	129588	131.671829868576	9
11616	130418	132.372643336901	7
11616	131610	133.372643336901	9
11616	132298	133.977275242612	5
11616	133274	134.779912856907	9
11616	133364	134.876699944433	4
11616	134714	135.889858442285	11
11616	134836	135.982730812457	10
11616	134896	136.033037924038	10
11616	135232	136.300121991651	3
11616	135240	136.302045215007	3
11616	135325	136.338227127876	2
11616	136508	137.34821904483	11
11616	136952	137.94821904483	5
11616	137100	138.149083905338	1
11616	137213	138.35109012745	1
11616	137292	138.569257987571	1
11616	137335	138.784932975217	1
11617	217	20.200000001	0.75
11617	672	20.900000001	0.25
11617	967	21.207450479817	0.75
11617	1291	21.509474278975	0.75
11617	1471	21.619349850954	0.75
11617	1949	22.019449851954	0.5
11617	2548	22.619449851954	0.375
11617	2949	23.024273570113	0.625
11617	3287	23.428506778542	0.625
11617	3631	23.732139094027	0.75
11617	4206	24.132950576269	0.5
11617	4481	24.332950576269	0.875
11617	4609	24.433050577269	0.875
11617	5155	24.933050577269	0.5
11617	6267	25.936719497489	-0.125
11617	6966	26.449815494193	-0.75
11617	7297	26.73594024068	0.25
11617	7470	26.855727656917	0.625
11617	7544	26.881890104262	0.625
11617	8267	27.489753478499	0.25
11617	8441	27.689753478499	0.875
11617	8790	27.991130036501	0.75
11617	9503	28.595076864887	0.25
11617	10497	29.595076864887	-0.125
11617	10664	29.797082531539	0.875
11617	11077	30.202491036386	0.625
11617	11460	30.509041327162	0.625
11617	12271	31.309041327162	0.125
11617	12669	31.7026234064	0.875
11617	12684	31.711958354397	0.625
11617	13448	32.412811648701	0.25
11617	13966	32.815451775466	0.5
11617	14228	33.015451775466	0.875
11617	14651	33.419774461491	0.625
11617	14940	33.696267611921	0.875
11617	15010	33.724846377186	0.625
11617	15525	34.20577102185	0.375
11617	15879	34.513913172726	0.625
11617	16601	35.215068952823	0.5
11617	17457	35.915068952823	0.125
11617	17862	36.239467137522	0.75
11617	19599	37.739806030682	-1
11617	19753	37.955720938291	0.875
11617	19956	38.15594886326	0.875
11617	20210	38.367596964483	0.75
11617	20701	38.74919168171	0.88888888806105
11617	20756	38.775559929714	0.5
11617	20930	38.952267304505	0.875
11617	21555	39.358746517129	0.5
11617	22291	39.858746517129	0.375
11617	22796	40.266704648684	0.625
11617	23069	40.536144059688	0.75
11617	23498	40.867896965483	0.25
11617	23504	40.870812716302	0.25
11617	23704	41.075499743269	0.875
11617	23708	41.076427485211	0.875
11617	24511	41.776527486211	0.125
11617	25513	42.607638328146	0.5
11617	26070	43.011191871753	0.5
11617	26350	43.22259855766	0.75
11617	26664	43.434624565379	0.875
11617	26745	43.502923066726	0.625
11617	26804	43.567032871792	0.875
11617	28725	45.07187924608	-1.125
11617	29267	45.57187924608	0.5
11617	29646	45.880973466093	0.625
11617	29722	45.937068281234	0.625
11617	29986	46.175412038889	0.375
11617	30252	46.379325723791	0.75
11617	31439	47.379325723791	-0.375
11617	31810	47.688182702305	0.75
11617	32108	47.999285081653	0.75
11617	32324	48.20205412994	0.75
11617	32662	48.50494874886	0.75
11617	32793	48.595215534483	1
11617	33868	49.495215534483	0
11617	34547	50.036900608254	0.625
11617	34948	50.341851812937	0.75
11617	35245	50.596730793152	-0.375
11617	35310	50.633187063061	0.75
11617	35380	50.699038191815	0.375
11617	35491	50.750455958864	0.625
11617	35702	50.934746901394	0.75
11617	35795	51.002737297804	0.75
11617	36003	51.153897570794	0.625
11617	36007	51.156619982726	0.625
11617	36516	51.556719983726	0.375
11617	38272	52.963119528075	-0.875
11617	38518	53.170682553013	0.875
11617	39594	54.17678244686	-0.375
11617	39887	54.47678244686	0.75
11617	40872	55.383983552002	0
11617	41593	55.890473470824	0.25
11617	41823	56.090473470824	0.875
11617	42237	56.399779593645	0.75
11617	42430	56.56413547611	0.75
11617	42888	56.965425820314	0.5
11617	43395	57.465646560994	0.25
11617	43523	57.565646560994	1
11617	43954	57.969130895553	0.625
11617	44284	58.283559974206	0.75
11617	44505	58.490519315312	0.75
11617	45322	59.290519315312	0.125
11617	46160	59.990619316312	0.125
11617	46915	60.590619316312	0.375
11617	47740	61.194336003342	0.25
11617	47747	61.198424913621	0.25
11617	48231	61.6124942402	0.625
11617	49001	62.2125942412	0.125
11617	49458	62.6125942412	0.625
11617	49811	63.030053993826	0.625
11617	50565	63.737331981476	0.125
11617	51198	64.345877555078	0.375
11617	51445	64.553588546133	0.625
11617	51961	65.053588546133	0.5
11617	52470	65.461641267026	0.375
11617	52531	65.531388403029	0.5
11617	52734	65.67008920145	0.875
11617	52808	65.738505840372	0.875
11617	53508	66.298362611447	0.5
11617	53548	66.348077884787	0.375
11617	54159	66.751177466116	0.625
11617	54565	67.061888855658	0.75
11617	54687	67.159072224053	0.875
11617	54749	67.183310015217	-0.875
11617	55518	67.693223876117	0.375
11617	55732	67.893223876117	0.875
11617	56839	68.793384804257	-0.125
11617	57091	68.993484805257	0.75
11617	57395	69.293484805257	0.75
11617	58818	70.609855294638	0.75
11617	59255	71.009855294638	0.625
11617	60291	71.913655002357	0
11617	60395	72.01854147042	0.875
11617	60628	72.21854147042	0.875
11617	60983	72.520942202679	0.75
11617	60993	72.527374434596	0.75
11617	61370	72.830562063283	0.75
11617	63254	74.532519318874	-1.375
11617	63372	74.632519318874	0.875
11617	64162	75.335621113887	0.25
11617	64439	75.637944775349	0.75
11617	65628	76.546367959668	0
11617	65985	76.850585161852	0
11617	66166	76.950619594973	0.5
11617	67214	77.659114637004	0
11617	67633	77.959114637004	0.75
11617	67900	78.163929907532	0.875
11617	68279	78.464029908532	0.625
11617	69409	79.564029908532	-0.25
11617	69711	79.869531152947	0.75
11617	70147	80.271403163862	0.625
11617	70403	80.476306308272	0.875
11617	70946	80.897325537517	0.25
11617	71071	80.991985066289	-0.5
11617	71544	81.368110026721	-0.125
11617	71566	81.377244614715	0
11617	72175	81.884145432167	0.375
11617	72663	82.284145432167	0.625
11617	73290	82.788097751588	0.5
11617	73445	82.888866750983	0.875
11617	74253	83.588866750983	0.25
11617	74600	83.89446043124	0.75
11617	75581	84.685840925646	0
11617	75863	84.89476764576	-0.25
11617	76186	85.097520024262	0.75
11617	76899	85.592726366437	0.75
11617	77877	86.392726366437	0
11617	78610	86.998844065704	0.375
11617	78750	87.142521972381	0.25
11617	79092	87.451497566275	0.625
11617	79138	87.507402846641	0.5
11617	79406	87.760419801314	0.75
11617	79455	87.814395469948	0.75
11617	79482	87.850630288676	0.25
11617	79488	87.858412321166	0.875
11617	79979	88.358512322166	0.375
11617	80358	88.758512322166	0.625
11617	80946	89.361572160468	0.375
11617	81752	90.017296342892	0.5
11617	81784	90.055548913956	0.5
11617	81799	90.063156963271	0.125
11617	83321	91.272900292041	-0.625
11617	83698	91.572900292041	0.75
11617	84415	92.281245589932	0.25
11617	84894	92.690314235087	0.625
11617	85345	93.07907662567	0.375
11617	85363	93.097552517403	0.625
11617	86417	94.001830228905	-0.25
11617	86817	94.401830228905	0.5
11617	87270	94.806043911079	0.5
11617	89646	96.897618577693	-1
11617	90398	97.497618577693	0.25
11617	91043	98.011694104404	0.5
11617	91766	98.615539288549	0.375
11617	92504	99.321817511997	0.25
11617	93182	99.924484516218	0.375
11617	93375	100.107538398707	-0.375
11617	93861	100.507638399707	0.5
11617	102264	108.198381373779	0.75
11617	102280	108.204513275417	0.75
11617	104082	109.706669691067	-1
11617	104281	109.906669691067	0.875
11617	104935	110.410191486651	0.5
11617	105492	110.842680073019	0.125
11617	105522	110.922426372172	0.625
11617	105665	111.052483281976	0.875
11617	106206	111.5558455624	0.375
11617	107136	112.4558455624	-0.125
11617	108350	113.562798638417	-0.375
11617	108857	113.970216156082	0.625
11617	109100	114.174221842569	0.875
11617	109966	114.777211845408	0.375
11617	110712	115.332853289002	0.5
11617	110871	115.461220837374	-0.75
11617	110982	115.537725867084	0.875
11617	111171	115.685409015922	-0.125
11617	111232	115.749814984402	0.875
11617	111802	116.153324918717	0.25
11617	112468	116.653324918717	0.5
11617	112716	116.856210912313	0.875
11617	112723	116.856851432293	0.875
11617	113414	117.458111159679	0.25
11617	114049	117.958111159679	0.5
11617	115382	119.136572010289	0.625
11617	116181	119.736572010289	0.25
11617	116688	120.140737685267	0.5
11617	116898	120.314106604578	0.5
11617	117024	120.449797259617	0.75
11617	117429	120.753020456936	0.5
11617	118122	121.403823084255	0.375
11617	118589	121.803823084255	0.625
11617	118855	122.005144654944	0.875
11617	119167	122.314533740995	0.625
11617	119728	122.817294414244	0.5
11617	119808	122.891635117804	0.125
11617	120151	123.096978015496	0.75
11617	120919	123.696978015496	0.25
11617	121741	124.411609794476	0.25
11617	121972	124.623275218246	0.875
11617	122248	124.923375219246	0.625
11617	122953	125.513446064923	0.75
11617	123093	125.623375219246	0
11617	124499	127.02903202303	-0.75
11617	124876	127.42903202303	0.5
11617	125967	128.434769484321	-0.125
11617	126511	128.944217163964	0.5
11617	127106	129.444317164964	0.25
11617	127436	129.744317164964	0.75
11617	127782	130.054897370931	0.75
11617	128366	130.663810177616	0.25
11617	129588	131.671829868576	-0.125
11617	130418	132.372643336901	0.125
11617	131610	133.372643336901	-0.125
11617	132298	133.977275242612	0.375
11617	133274	134.779912856907	-0.125
11617	133364	134.876699944433	0.5
11617	134714	135.889858442285	-0.375
11617	134836	135.982730812457	-0.25
11617	134896	136.033037924038	-0.25
11617	135232	136.300121991651	0.625
11617	135240	136.302045215007	0.625
11617	135325	136.338227127876	0.75
11617	136508	137.34821904483	-0.375
11617	136952	137.94821904483	0.375
11617	137100	138.149083905338	0.875
11617	137213	138.35109012745	0.875
11617	137292	138.569257987571	0.875
11617	137335	138.784932975217	0.875
11618	217	20.200000001	0.2
11618	672	20.900000001	0.7
11618	967	21.207450479817	0.3
11618	1291	21.509474278975	0.3
11618	1471	21.619349850954	0.3
11618	1949	22.019449851954	0.4
11618	2548	22.619449851954	0.6
11618	2949	23.024273570113	0.4
11618	3287	23.428506778542	0.4
11618	3631	23.732139094027	0.3
11618	4206	24.132950576269	0.4
11618	4481	24.332950576269	0.2
11618	4609	24.433050577269	0.1
11618	5155	24.933050577269	0.5
11618	6267	25.936719497489	1
11618	6966	26.449815494193	1.3
11618	7297	26.73594024068	0.7
11618	7470	26.855727656917	0.4
11618	7544	26.881890104262	0.4
11618	8267	27.489753478499	0.6
11618	8441	27.689753478499	0.2
11618	8790	27.991130036501	0.3
11618	9503	28.595076864887	0.6
11618	10497	29.595076864887	1
11618	10664	29.797082531539	0.2
11618	11077	30.202491036386	0.4
11618	11460	30.509041327162	0.3
11618	12271	31.309041327162	0.8
11618	12669	31.7026234064	0.2
11618	12684	31.711958354397	0.4
11618	13448	32.412811648701	0.7
11618	13966	32.815451775466	0.4
11618	14228	33.015451775466	0.2
11618	14651	33.419774461491	0.4
11618	14940	33.696267611921	0.2
11618	15010	33.724846377186	0.3
11618	15525	34.20577102185	0.5
11618	15879	34.513913172726	0.3
11618	16601	35.215068952823	0.4
11618	17457	35.915068952823	0.7
11618	17862	36.239467137522	0.3
11618	19599	37.739806030682	1.5
11618	19753	37.955720938291	0.2
11618	19956	38.15594886326	0.2
11618	20210	38.367596964483	0.3
11618	20701	38.74919168171	0.2
11618	20756	38.775559929714	0.4
11618	20930	38.952267304505	0.2
11618	21555	39.358746517129	0.4
11618	22291	39.858746517129	0.5
11618	22796	40.266704648684	0.4
11618	23069	40.536144059688	0.2
11618	23498	40.867896965483	0.6
11618	23504	40.870812716302	0.6
11618	23704	41.075499743269	0.2
11618	23708	41.076427485211	0.2
11618	24511	41.776527486211	0.7
11618	25513	42.607638328146	0.4
11618	26070	43.011191871753	0.4
11618	26350	43.22259855766	0.3
11618	26664	43.434624565379	0.2
11618	26745	43.502923066726	0.4
11618	26804	43.567032871792	0.2
11618	28725	45.07187924608	1.5
11618	29267	45.57187924608	0.5
11618	29646	45.880973466093	0.3
11618	29722	45.937068281234	0.3
11618	29986	46.175412038889	0.5
11618	30252	46.379325723791	0.2
11618	31439	47.379325723791	1
11618	31810	47.688182702305	0.3
11618	32108	47.999285081653	0.3
11618	32324	48.20205412994	0.2
11618	32662	48.50494874886	0.3
11618	32793	48.595215534483	0
11618	33868	49.495215534483	0.9
11618	34547	50.036900608254	0.4
11618	34948	50.341851812937	0.3
11618	35245	50.596730793152	1.1
11618	35310	50.633187063061	0.3
11618	35380	50.699038191815	0.5
11618	35491	50.750455958864	0.4
11618	35702	50.934746901394	0.3
11618	35795	51.002737297804	0.3
11618	36003	51.153897570794	0.4
11618	36007	51.156619982726	0.4
11618	36516	51.556719983726	0.4
11618	38272	52.963119528075	1.4
11618	38518	53.170682553013	0.2
11618	39594	54.17678244686	1
11618	39887	54.47678244686	0.3
11618	40872	55.383983552002	0.9
11618	41593	55.890473470824	0.5
11618	41823	56.090473470824	0.2
11618	42237	56.399779593645	0.3
11618	42430	56.56413547611	0.3
11618	42888	56.965425820314	0.4
11618	43395	57.465646560994	0.5
11618	43523	57.565646560994	0.1
11618	43954	57.969130895553	0.4
11618	44284	58.283559974206	0.3
11618	44505	58.490519315312	0.2
11618	45322	59.290519315312	0.8
11618	46160	59.990619316312	0.7
11618	46915	60.590619316312	0.6
11618	47740	61.194336003342	0.6
11618	47747	61.198424913621	0.6
11618	48231	61.6124942402	0.4
11618	49001	62.2125942412	0.6
11618	49458	62.6125942412	0.4
11618	49811	63.030053993826	0.4
11618	50565	63.737331981476	0.7
11618	51198	64.345877555078	0.6
11618	51445	64.553588546133	0.2
11618	51961	65.053588546133	0.5
11618	52470	65.461641267026	0.4
11618	52531	65.531388403029	0.4
11618	52734	65.67008920145	0.2
11618	52808	65.738505840372	0.2
11618	53508	66.298362611447	0.4
11618	53548	66.348077884787	0.6
11618	54159	66.751177466116	0.4
11618	54565	67.061888855658	0.3
11618	54687	67.159072224053	0.2
11618	54749	67.183310015217	1.5
11618	55518	67.693223876117	0.5
11618	55732	67.893223876117	0.2
11618	56839	68.793384804257	0.9
11618	57091	68.993484805257	0.2
11618	57395	69.293484805257	0.3
11618	58818	70.609855294638	0.2
11618	59255	71.009855294638	0.4
11618	60291	71.913655002357	0.9
11618	60395	72.01854147042	0.1
11618	60628	72.21854147042	0.2
11618	60983	72.520942202679	0.3
11618	60993	72.527374434596	0.3
11618	61370	72.830562063283	0.3
11618	63254	74.532519318874	1.7
11618	63372	74.632519318874	0.1
11618	64162	75.335621113887	0.7
11618	64439	75.637944775349	0.3
11618	65628	76.546367959668	0.9
11618	65985	76.850585161852	0.9
11618	66166	76.950619594973	0.4
11618	67214	77.659114637004	0.7
11618	67633	77.959114637004	0.3
11618	67900	78.163929907532	0.2
11618	68279	78.464029908532	0.3
11618	69409	79.564029908532	1.1
11618	69711	79.869531152947	0.3
11618	70147	80.271403163862	0.4
11618	70403	80.476306308272	0.2
11618	70946	80.897325537517	0.7
11618	71071	80.991985066289	1.2
11618	71544	81.368110026721	0.9
11618	71566	81.377244614715	0.9
11618	72175	81.884145432167	0.5
11618	72663	82.284145432167	0.4
11618	73290	82.788097751588	0.5
11618	73445	82.888866750983	0.1
11618	74253	83.588866750983	0.7
11618	74600	83.89446043124	0.3
11618	75581	84.685840925646	0.9
11618	75863	84.89476764576	1
11618	76186	85.097520024262	0.2
11618	76899	85.592726366437	0.2
11618	77877	86.392726366437	0.8
11618	78610	86.998844065704	0.6
11618	78750	87.142521972381	0.7
11618	79092	87.451497566275	0.3
11618	79138	87.507402846641	0.5
11618	79406	87.760419801314	0.3
11618	79455	87.814395469948	0.3
11618	79482	87.850630288676	0.6
11618	79488	87.858412321166	0.2
11618	79979	88.358512322166	0.5
11618	80358	88.758512322166	0.4
11618	80946	89.361572160468	0.6
11618	81752	90.017296342892	0.4
11618	81784	90.055548913956	0.4
11618	81799	90.063156963271	0.7
11618	83321	91.272900292041	1.2
11618	83698	91.572900292041	0.3
11618	84415	92.281245589932	0.7
11618	84894	92.690314235087	0.4
11618	85345	93.07907662567	0.5
11618	85363	93.097552517403	0.4
11618	86417	94.001830228905	0.9
11618	86817	94.401830228905	0.4
11618	87270	94.806043911079	0.4
11618	89646	96.897618577693	1.5
11618	90398	97.497618577693	0.6
11618	91043	98.011694104404	0.5
11618	91766	98.615539288549	0.6
11618	92504	99.321817511997	0.7
11618	93182	99.924484516218	0.6
11618	93375	100.107538398707	1.1