file 897199 1369516683                                          
version 2
run Stability-norelink-60-20130525-23:17:59-22103
attr configname Stability-norelink
attr datetime 20130525-23:17:59
attr experiment Stability
attr inifile omnetpp.ini
attr iterationvars $0=1e0
attr iterationvars2 "$0=1e0, $repetition=0"
attr measurement $0=1e0
attr network Network
attr processid 22103
attr repetition 0
attr replication #0
attr resultdir results
attr runnumber 60
attr seedset 60

vector 5775  Network.dyn_peer[5]  lookupHopsSig:vector  ETV
vector 5776  Network.dyn_peer[5]  lookupStabilitySig:vector  ETV
vector 5777  Network.dyn_peer[5]  lookupTimeSig:vector  ETV
vector 5787  Network.dyn_peer[9]  lookupHopsSig:vector  ETV
vector 5788  Network.dyn_peer[9]  lookupStabilitySig:vector  ETV
vector 5789  Network.dyn_peer[9]  lookupTimeSig:vector  ETV
vector 5760  Network.dyn_peer[0]  lookupHopsSig:vector  ETV
vector 5761  Network.dyn_peer[0]  lookupStabilitySig:vector  ETV
vector 5762  Network.dyn_peer[0]  lookupTimeSig:vector  ETV
vector 5763  Network.dyn_peer[1]  lookupHopsSig:vector  ETV
vector 5764  Network.dyn_peer[1]  lookupStabilitySig:vector  ETV
vector 5765  Network.dyn_peer[1]  lookupTimeSig:vector  ETV
vector 5772  Network.dyn_peer[4]  lookupHopsSig:vector  ETV
vector 5773  Network.dyn_peer[4]  lookupStabilitySig:vector  ETV
vector 5774  Network.dyn_peer[4]  lookupTimeSig:vector  ETV
vector 5778  Network.dyn_peer[6]  lookupHopsSig:vector  ETV
vector 5779  Network.dyn_peer[6]  lookupStabilitySig:vector  ETV
vector 5780  Network.dyn_peer[6]  lookupTimeSig:vector  ETV
vector 5781  Network.dyn_peer[7]  lookupHopsSig:vector  ETV
vector 5782  Network.dyn_peer[7]  lookupStabilitySig:vector  ETV
vector 5783  Network.dyn_peer[7]  lookupTimeSig:vector  ETV
vector 5796  Network.dyn_peer[12]  lookupHopsSig:vector  ETV
vector 5797  Network.dyn_peer[12]  lookupStabilitySig:vector  ETV
vector 5798  Network.dyn_peer[12]  lookupTimeSig:vector  ETV
vector 5814  Network.dyn_peer[18]  lookupHopsSig:vector  ETV
vector 5815  Network.dyn_peer[18]  lookupStabilitySig:vector  ETV
vector 5816  Network.dyn_peer[18]  lookupTimeSig:vector  ETV
vector 5823  Network.dyn_peer[21]  lookupHopsSig:vector  ETV
vector 5824  Network.dyn_peer[21]  lookupStabilitySig:vector  ETV
vector 5825  Network.dyn_peer[21]  lookupTimeSig:vector  ETV
vector 5829  Network.dyn_peer[23]  lookupHopsSig:vector  ETV
vector 5830  Network.dyn_peer[23]  lookupStabilitySig:vector  ETV
vector 5831  Network.dyn_peer[23]  lookupTimeSig:vector  ETV
vector 5847  Network.dyn_peer[29]  lookupHopsSig:vector  ETV
vector 5848  Network.dyn_peer[29]  lookupStabilitySig:vector  ETV
vector 5849  Network.dyn_peer[29]  lookupTimeSig:vector  ETV
vector 5766  Network.dyn_peer[2]  lookupHopsSig:vector  ETV
vector 5767  Network.dyn_peer[2]  lookupStabilitySig:vector  ETV
vector 5768  Network.dyn_peer[2]  lookupTimeSig:vector  ETV
vector 5784  Network.dyn_peer[8]  lookupHopsSig:vector  ETV
vector 5785  Network.dyn_peer[8]  lookupStabilitySig:vector  ETV
vector 5786  Network.dyn_peer[8]  lookupTimeSig:vector  ETV
vector 5790  Network.dyn_peer[10]  lookupHopsSig:vector  ETV
vector 5791  Network.dyn_peer[10]  lookupStabilitySig:vector  ETV
vector 5792  Network.dyn_peer[10]  lookupTimeSig:vector  ETV
vector 5793  Network.dyn_peer[11]  lookupHopsSig:vector  ETV
vector 5794  Network.dyn_peer[11]  lookupStabilitySig:vector  ETV
vector 5795  Network.dyn_peer[11]  lookupTimeSig:vector  ETV
vector 5799  Network.dyn_peer[13]  lookupHopsSig:vector  ETV
vector 5800  Network.dyn_peer[13]  lookupStabilitySig:vector  ETV
vector 5801  Network.dyn_peer[13]  lookupTimeSig:vector  ETV
vector 5802  Network.dyn_peer[14]  lookupHopsSig:vector  ETV
vector 5803  Network.dyn_peer[14]  lookupStabilitySig:vector  ETV
vector 5804  Network.dyn_peer[14]  lookupTimeSig:vector  ETV
vector 5808  Network.dyn_peer[16]  lookupHopsSig:vector  ETV
vector 5809  Network.dyn_peer[16]  lookupStabilitySig:vector  ETV
vector 5810  Network.dyn_peer[16]  lookupTimeSig:vector  ETV
vector 5820  Network.dyn_peer[20]  lookupHopsSig:vector  ETV
vector 5821  Network.dyn_peer[20]  lookupStabilitySig:vector  ETV
vector 5822  Network.dyn_peer[20]  lookupTimeSig:vector  ETV
vector 5826  Network.dyn_peer[22]  lookupHopsSig:vector  ETV
vector 5827  Network.dyn_peer[22]  lookupStabilitySig:vector  ETV
vector 5828  Network.dyn_peer[22]  lookupTimeSig:vector  ETV
vector 5841  Network.dyn_peer[27]  lookupHopsSig:vector  ETV
vector 5842  Network.dyn_peer[27]  lookupStabilitySig:vector  ETV
vector 5843  Network.dyn_peer[27]  lookupTimeSig:vector  ETV
vector 5844  Network.dyn_peer[28]  lookupHopsSig:vector  ETV
vector 5845  Network.dyn_peer[28]  lookupStabilitySig:vector  ETV
vector 5846  Network.dyn_peer[28]  lookupTimeSig:vector  ETV
vector 5850  Network.dyn_peer[30]  lookupHopsSig:vector  ETV
vector 5851  Network.dyn_peer[30]  lookupStabilitySig:vector  ETV
vector 5852  Network.dyn_peer[30]  lookupTimeSig:vector  ETV
vector 5769  Network.dyn_peer[3]  lookupHopsSig:vector  ETV
vector 5770  Network.dyn_peer[3]  lookupStabilitySig:vector  ETV
vector 5771  Network.dyn_peer[3]  lookupTimeSig:vector  ETV
vector 5805  Network.dyn_peer[15]  lookupHopsSig:vector  ETV
vector 5806  Network.dyn_peer[15]  lookupStabilitySig:vector  ETV
vector 5807  Network.dyn_peer[15]  lookupTimeSig:vector  ETV
vector 5832  Network.dyn_peer[24]  lookupHopsSig:vector  ETV
vector 5833  Network.dyn_peer[24]  lookupStabilitySig:vector  ETV
vector 5834  Network.dyn_peer[24]  lookupTimeSig:vector  ETV
vector 5838  Network.dyn_peer[26]  lookupHopsSig:vector  ETV
vector 5839  Network.dyn_peer[26]  lookupStabilitySig:vector  ETV
vector 5840  Network.dyn_peer[26]  lookupTimeSig:vector  ETV
vector 5811  Network.dyn_peer[17]  lookupHopsSig:vector  ETV
vector 5812  Network.dyn_peer[17]  lookupStabilitySig:vector  ETV
vector 5813  Network.dyn_peer[17]  lookupTimeSig:vector  ETV
vector 5817  Network.dyn_peer[19]  lookupHopsSig:vector  ETV
vector 5818  Network.dyn_peer[19]  lookupStabilitySig:vector  ETV
vector 5819  Network.dyn_peer[19]  lookupTimeSig:vector  ETV
vector 5835  Network.dyn_peer[25]  lookupHopsSig:vector  ETV
vector 5836  Network.dyn_peer[25]  lookupStabilitySig:vector  ETV
vector 5837  Network.dyn_peer[25]  lookupTimeSig:vector  ETV
vector 5853  Network.dyn_peer[31]  lookupHopsSig:vector  ETV
vector 5854  Network.dyn_peer[31]  lookupStabilitySig:vector  ETV
vector 5855  Network.dyn_peer[31]  lookupTimeSig:vector  ETV
5760	6396 8788 131 136014 20.101 134.395626711521 299 0 22 1240 8550
5761	15184 9801 131 136014 20.101 134.395626711521 299 -1.75 1 144.04166666418 122.66068672435
5762	24985 9342 131 136014 20.101 134.395626711521 299 0 2 138.7 92.55
5763	34327 9531 136 136734 20.102 135.166749877331 324 0 19 1279 7853
5764	43858 10559 136 136734 20.102 135.166749877331 324 -1.375 1 164.125 126.953125
5765	54417 10148 136 136734 20.102 135.166749877331 324 0 1.9 145.5 89.61
5766	64565 8942 207 136166 20.203 134.550570974244 304 0 22 1298 8374
5767	73507 9965 207 136166 20.203 134.550570974244 304 -1.75 1 141.81944441795 110.40065584065
5768	83472 9511 207 136166 20.203 134.550570974244 304 0 2.1 143.7 91.77
5769	92983 8237 292 136147 20.304 134.547900962706 280 0 19 1187 7803
5770	101220 9176 292 136147 20.304 134.547900962706 280 -1.375 1 131.63888888806 105.19637345532
5771	110396 8768 292 136147 20.304 134.547900962706 280 0 1.6 131.3 83.57
5772	119164 9317 143 136983 20.105 135.645136244872 317 0 18 1308 8036
5773	128481 10352 143 136983 20.105 135.645136244872 317 -1.25 1 153.5 115.5625
5774	138833 9909 143 136983 20.105 135.645136244872 317 0 1.7 146.8 89.6
5775	148742 8530 44 136145 20.006 134.547403393793 290 0 34 1247 9067
5776	157272 9473 44 136145 20.006 134.547403393793 290 -3.25 1 134.23611109704 119.98013116548
5777	166745 9077 44 136145 20.006 134.547403393793 290 0 3 135.5 91.71
5778	175822 9855 149 136837 20.107 135.318293395148 337 0 17 1309 7669
5779	185677 10989 149 136837 20.107 135.318293395148 337 -1.125 1 173.41666665673 129.6319444312
5780	196666 10498 149 136837 20.107 135.318293395148 337 0 1.5 148.9 87.17
5781	207164 8258 154 135934 20.108 134.339978884144 282 0 19 1235 7843
5782	215422 9198 154 135934 20.108 134.339978884144 282 -1.375 1 127.66666665673 95.850694431199
5783	224620 8787 154 135934 20.108 134.339978884144 282 0 1.7 137.6 86.98
5784	233407 8084 216 136546 20.209 134.947144987032 275 0 19 1252 8798
5785	241491 8979 216 136546 20.209 134.947144987032 275 -1.375 1 118.54166665673 99.522569431199
5786	250470 8581 216 136546 20.209 134.947144987032 275 0 1.7 139.4 96.58
5787	259051 8753 60 136995 20.01 135.649876939466 299 0 17 1256 8212
5788	267804 9746 60 136995 20.01 135.649876939466 299 -1.125 1 142.09722220898 113.34625771016
5789	277550 9305 60 136995 20.01 135.649876939466 299 0 1.7 138.9 87.89
5790	286855 9029 223 135954 20.211 134.347403393793 308 0 29 1280 8380
5791	295884 10044 223 135954 20.211 134.347403393793 308 -2.625 1 148 118.9375
5792	305928 9616 223 135954 20.211 134.347403393793 308 0 2.6 143.5 90.43
5793	315544 8357 228 136712 20.212 135.155144860295 285 0 24 1292 9016
5794	323901 9280 228 136712 20.212 135.155144860295 285 -2 1 123.54166665673 102.9288194312
5795	333181 8892 228 136712 20.212 135.155144860295 285 0 2.1 142 96.38
5796	342073 8875 165 137044 20.113 135.864588874227 302 0 15 1202 7442
5797	350948 9854 165 137044 20.113 135.864588874227 302 -0.875 1 151.76388888806 117.80574845532
5798	360802 9438 165 137044 20.113 135.864588874227 302 0 1.4 136.1 83.31
5799	370240 8573 236 136859 20.214 135.345175039197 292 0 31 1277 9221
5800	378813 9521 236 136859 20.214 135.345175039197 292 -2.875 1 132.375 116.828125
5801	388334 9111 236 136859 20.214 135.345175039197 292 0 2.7 142.3 97.97
5802	397445 8882 241 136472 20.215 134.855605428927 302 0 16 1297 8253
5803	406327 9849 241 136472 20.215 134.855605428927 302 -1 1 139.93055555224 106.76176697163
5804	416176 9439 241 136472 20.215 134.855605428927 302 0 1.5 143.4 90.98
5805	425615 7990 311 136659 20.316 135.081467236531 272 0 19 1191 8315
5806	433605 8852 311 136659 20.316 135.081467236531 272 -1.375 1 123.125 104.171875
5807	442457 8481 311 136659 20.316 135.081467236531 272 0 1.8 133.1 91.07
5808	450938 9098 247 137095 20.217 136.345132047776 309 0 23 1298 9202
5809	460036 10098 247 137095 20.217 136.345132047776 309 -1.875 1 146.75 128.28125
5810	470134 9684 247 137095 20.217 136.345132047776 309 0 1.9 144.6 94.3
5811	479818 8765 370 136450 20.418 134.852772611086 298 0 20 1254 8122
5812	488583 9687 370 136450 20.418 134.852772611086 298 -1.5 1 141.375 111.390625
5813	498270 9327 370 136450 20.418 134.852772611086 298 0 1.8 141.3 90.95
5814	507597 8825 175 136209 20.119 134.569406293191 301 0 21 1221 8369
5815	516422 9808 175 136209 20.119 134.569406293191 301 -1.625 1 148.375 126.515625
5816	526230 9381 175 136209 20.119 134.569406293191 301 0 1.9 136.3 89.23
5817	535611 8707 381 137084 20.42 136.261317537014 296 0 18 1272 8536
5818	544318 9639 381 137084 20.42 136.261317537014 296 -1.25 1 137.04166665673 111.4288194312
5819	553957 9249 381 137084 20.42 136.261317537014 296 0 1.6 139.7 90.83
5820	563206 8355 256 136736 20.221 135.171997196487 284 1 21 1234 8466
5821	571561 9305 256 136736 20.221 135.171997196487 284 -1.625 0.875 129.83333332837 107.88233024066
5822	580866 8891 256 136736 20.221 135.171997196487 284 0.1 1.8 136.2 88.68
5823	589757 8700 182 136643 20.122 135.065477871745 296 0 16 1219 8059
5824	598457 9695 182 136643 20.122 135.065477871745 296 -1 1 143.68055554479 117.25019288652
5825	608152 9245 182 136643 20.122 135.065477871745 296 0 1.5 136.1 86.55
5826	617397 8286 262 137042 20.223 135.863003772067 283 0 24 1215 8289
5827	625683 9229 262 137042 20.223 135.863003772067 283 -2 1 131.19444443285 108.86844134184
5828	634912 8809 262 137042 20.223 135.863003772067 283 0 2.3 136.2 90.7
5829	643721 8876 188 136923 20.124 135.448798844639 303 0 24 1238 7828
5830	652597 9889 188 136923 20.124 135.448798844639 303 -2 1 148.25 115.8125
5831	662486 9451 188 136923 20.124 135.448798844639 303 0 2.2 139.9 86.95
5832	671937 8835 327 136278 20.325 134.65614852078 300 0 27 1233 7995
5833	680772 9826 327 136278 20.325 134.65614852078 300 -2.375 1 145.98611107469 116.78260027185
5834	690598 9403 327 136278 20.325 134.65614852078 300 0 2.4 139.7 88.55
5835	700001 8855 392 136518 20.426 134.935357370098 301 0 32 1281 8703
5836	708856 9774 392 136518 20.426 134.935357370098 301 -3 1 140.875 116.734375
5837	718630 9415 392 136518 20.426 134.935357370098 301 0 2.5 141.2 90.26
5838	728045 9310 335 136625 20.327 135.054920594468 317 0 17 1242 7356
5839	737355 10343 335 136625 20.327 135.054920594468 317 -1.125 1 161.75 121.4375
5840	747698 9916 335 136625 20.327 135.054920594468 317 0 1.6 141.6 83.54
5841	757614 9170 272 135760 20.228 134.222774905387 313 0 19 1259 8215
5842	766784 10226 272 135760 20.228 134.222774905387 313 -1.375 1 155.70833332837 126.71701388227
5843	777010 9760 272 135760 20.228 134.222774905387 313 0 1.8 141.5 89.01
5844	786770 8114 277 136340 20.229 134.748365904923 277 0 20 1223 8365
5845	794884 9020 277 136340 20.229 134.748365904923 277 -1.5 1 124.16666665673 102.0069444312
5846	803904 8633 277 136340 20.229 134.748365904923 277 0 1.8 133.3 86.63
5847	812537 9237 198 136887 20.13 135.365791314588 314 0 34 1298 8596
5848	821774 10261 198 136887 20.13 135.365791314588 314 -3.25 1 151.75 123.8125
5849	832035 9831 198 136887 20.13 135.365791314588 314 0 2.9 147.3 95.47
5850	841866 7932 282 135873 20.231 134.262436202522 270 0 20 1160 8210
5851	849798 8839 282 135873 20.231 134.262436202522 270 -1.5 1 125.09722220153 108.35435955318
5852	858637 8429 282 135873 20.231 134.262436202522 270 0 1.8 128.5 86.03
5853	867066 9494 406 136782 20.432 135.24383315034 324 0 17 1304 7960
5854	876560 10528 406 136782 20.432 135.24383315034 324 -1.125 1 161 122.375
5855	887088 10111 406 136782 20.432 135.24383315034 324 0 1.6 147.5 90.01
