file 923691 1369517011                                          
version 2
run Stability-norelink-141-20130525-23:23:27-22103
attr configname Stability-norelink
attr datetime 20130525-23:23:27
attr experiment Stability
attr inifile omnetpp.ini
attr iterationvars $0=1e-8
attr iterationvars2 "$0=1e-8, $repetition=1"
attr measurement $0=1e-8
attr network Network
attr processid 22103
attr repetition 1
attr replication #1
attr resultdir results
attr runnumber 141
attr seedset 141

vector 13587  Network.dyn_peer[17]  lookupHopsSig:vector  ETV
vector 13588  Network.dyn_peer[17]  lookupStabilitySig:vector  ETV
vector 13589  Network.dyn_peer[17]  lookupTimeSig:vector  ETV
vector 13590  Network.dyn_peer[18]  lookupHopsSig:vector  ETV
vector 13591  Network.dyn_peer[18]  lookupStabilitySig:vector  ETV
vector 13592  Network.dyn_peer[18]  lookupTimeSig:vector  ETV
vector 13623  Network.dyn_peer[29]  lookupHopsSig:vector  ETV
vector 13624  Network.dyn_peer[29]  lookupStabilitySig:vector  ETV
vector 13625  Network.dyn_peer[29]  lookupTimeSig:vector  ETV
vector 13545  Network.dyn_peer[3]  lookupHopsSig:vector  ETV
vector 13546  Network.dyn_peer[3]  lookupStabilitySig:vector  ETV
vector 13547  Network.dyn_peer[3]  lookupTimeSig:vector  ETV
vector 13563  Network.dyn_peer[9]  lookupHopsSig:vector  ETV
vector 13564  Network.dyn_peer[9]  lookupStabilitySig:vector  ETV
vector 13565  Network.dyn_peer[9]  lookupTimeSig:vector  ETV
vector 13569  Network.dyn_peer[11]  lookupHopsSig:vector  ETV
vector 13570  Network.dyn_peer[11]  lookupStabilitySig:vector  ETV
vector 13571  Network.dyn_peer[11]  lookupTimeSig:vector  ETV
vector 13572  Network.dyn_peer[12]  lookupHopsSig:vector  ETV
vector 13573  Network.dyn_peer[12]  lookupStabilitySig:vector  ETV
vector 13574  Network.dyn_peer[12]  lookupTimeSig:vector  ETV
vector 13578  Network.dyn_peer[14]  lookupHopsSig:vector  ETV
vector 13579  Network.dyn_peer[14]  lookupStabilitySig:vector  ETV
vector 13580  Network.dyn_peer[14]  lookupTimeSig:vector  ETV
vector 13581  Network.dyn_peer[15]  lookupHopsSig:vector  ETV
vector 13582  Network.dyn_peer[15]  lookupStabilitySig:vector  ETV
vector 13583  Network.dyn_peer[15]  lookupTimeSig:vector  ETV
vector 13584  Network.dyn_peer[16]  lookupHopsSig:vector  ETV
vector 13585  Network.dyn_peer[16]  lookupStabilitySig:vector  ETV
vector 13586  Network.dyn_peer[16]  lookupTimeSig:vector  ETV
vector 13593  Network.dyn_peer[19]  lookupHopsSig:vector  ETV
vector 13594  Network.dyn_peer[19]  lookupStabilitySig:vector  ETV
vector 13595  Network.dyn_peer[19]  lookupTimeSig:vector  ETV
vector 13605  Network.dyn_peer[23]  lookupHopsSig:vector  ETV
vector 13606  Network.dyn_peer[23]  lookupStabilitySig:vector  ETV
vector 13607  Network.dyn_peer[23]  lookupTimeSig:vector  ETV
vector 13608  Network.dyn_peer[24]  lookupHopsSig:vector  ETV
vector 13609  Network.dyn_peer[24]  lookupStabilitySig:vector  ETV
vector 13610  Network.dyn_peer[24]  lookupTimeSig:vector  ETV
vector 13539  Network.dyn_peer[1]  lookupHopsSig:vector  ETV
vector 13540  Network.dyn_peer[1]  lookupStabilitySig:vector  ETV
vector 13541  Network.dyn_peer[1]  lookupTimeSig:vector  ETV
vector 13542  Network.dyn_peer[2]  lookupHopsSig:vector  ETV
vector 13543  Network.dyn_peer[2]  lookupStabilitySig:vector  ETV
vector 13544  Network.dyn_peer[2]  lookupTimeSig:vector  ETV
vector 13551  Network.dyn_peer[5]  lookupHopsSig:vector  ETV
vector 13552  Network.dyn_peer[5]  lookupStabilitySig:vector  ETV
vector 13553  Network.dyn_peer[5]  lookupTimeSig:vector  ETV
vector 13554  Network.dyn_peer[6]  lookupHopsSig:vector  ETV
vector 13555  Network.dyn_peer[6]  lookupStabilitySig:vector  ETV
vector 13556  Network.dyn_peer[6]  lookupTimeSig:vector  ETV
vector 13557  Network.dyn_peer[7]  lookupHopsSig:vector  ETV
vector 13558  Network.dyn_peer[7]  lookupStabilitySig:vector  ETV
vector 13559  Network.dyn_peer[7]  lookupTimeSig:vector  ETV
vector 13566  Network.dyn_peer[10]  lookupHopsSig:vector  ETV
vector 13567  Network.dyn_peer[10]  lookupStabilitySig:vector  ETV
vector 13568  Network.dyn_peer[10]  lookupTimeSig:vector  ETV
vector 13575  Network.dyn_peer[13]  lookupHopsSig:vector  ETV
vector 13576  Network.dyn_peer[13]  lookupStabilitySig:vector  ETV
vector 13577  Network.dyn_peer[13]  lookupTimeSig:vector  ETV
vector 13626  Network.dyn_peer[30]  lookupHopsSig:vector  ETV
vector 13627  Network.dyn_peer[30]  lookupStabilitySig:vector  ETV
vector 13628  Network.dyn_peer[30]  lookupTimeSig:vector  ETV
vector 13629  Network.dyn_peer[31]  lookupHopsSig:vector  ETV
vector 13630  Network.dyn_peer[31]  lookupStabilitySig:vector  ETV
vector 13631  Network.dyn_peer[31]  lookupTimeSig:vector  ETV
vector 13536  Network.dyn_peer[0]  lookupHopsSig:vector  ETV
vector 13537  Network.dyn_peer[0]  lookupStabilitySig:vector  ETV
vector 13538  Network.dyn_peer[0]  lookupTimeSig:vector  ETV
vector 13548  Network.dyn_peer[4]  lookupHopsSig:vector  ETV
vector 13549  Network.dyn_peer[4]  lookupStabilitySig:vector  ETV
vector 13550  Network.dyn_peer[4]  lookupTimeSig:vector  ETV
vector 13560  Network.dyn_peer[8]  lookupHopsSig:vector  ETV
vector 13561  Network.dyn_peer[8]  lookupStabilitySig:vector  ETV
vector 13562  Network.dyn_peer[8]  lookupTimeSig:vector  ETV
vector 13620  Network.dyn_peer[28]  lookupHopsSig:vector  ETV
vector 13621  Network.dyn_peer[28]  lookupStabilitySig:vector  ETV
vector 13622  Network.dyn_peer[28]  lookupTimeSig:vector  ETV
vector 13599  Network.dyn_peer[21]  lookupHopsSig:vector  ETV
vector 13600  Network.dyn_peer[21]  lookupStabilitySig:vector  ETV
vector 13601  Network.dyn_peer[21]  lookupTimeSig:vector  ETV
vector 13602  Network.dyn_peer[22]  lookupHopsSig:vector  ETV
vector 13603  Network.dyn_peer[22]  lookupStabilitySig:vector  ETV
vector 13604  Network.dyn_peer[22]  lookupTimeSig:vector  ETV
vector 13614  Network.dyn_peer[26]  lookupHopsSig:vector  ETV
vector 13615  Network.dyn_peer[26]  lookupStabilitySig:vector  ETV
vector 13616  Network.dyn_peer[26]  lookupTimeSig:vector  ETV
vector 13617  Network.dyn_peer[27]  lookupHopsSig:vector  ETV
vector 13618  Network.dyn_peer[27]  lookupStabilitySig:vector  ETV
vector 13619  Network.dyn_peer[27]  lookupTimeSig:vector  ETV
vector 13596  Network.dyn_peer[20]  lookupHopsSig:vector  ETV
vector 13597  Network.dyn_peer[20]  lookupStabilitySig:vector  ETV
vector 13598  Network.dyn_peer[20]  lookupTimeSig:vector  ETV
vector 13611  Network.dyn_peer[25]  lookupHopsSig:vector  ETV
vector 13612  Network.dyn_peer[25]  lookupStabilitySig:vector  ETV
vector 13613  Network.dyn_peer[25]  lookupTimeSig:vector  ETV
13536	6498 8161 288 136155 20.30000000001 134.436116212839 268 1 18 1187 7905
13537	14659 9061 288 136155 20.30000000001 134.436116212839 268 -1.25 0.875 119.7499999851 94.841820979192
13538	23720 8669 288 136155 20.30000000001 134.436116212839 268 0.1 1.6 131.1 85.35
13539	32389 9128 215 137227 20.20000000002 135.900796868733 299 0 15 1300 8788
13540	41517 10084 215 137227 20.20000000002 135.900796868733 299 -0.875 1 136.5 111.3125
13541	51601 9683 215 137227 20.20000000002 135.900796868733 299 0 1.5 144.1 94.59
13542	61284 8625 220 136766 20.20000000003 135.138695255645 284 0 19 1182 8278
13543	69909 9567 220 136766 20.20000000003 135.138695255645 284 -1.375 1 136.27777777612 117.88618826903
13544	79476 9158 220 136766 20.20000000003 135.138695255645 284 0 1.9 132.1 88.31
13545	88634 9242 141 137467 20.10000000004 136.586620888419 303 0 16 1296 8148
13546	97876 10210 141 137467 20.10000000004 136.586620888419 303 -1 1 141.04166665673 106.3663194312
13547	108086 9804 141 137467 20.10000000004 136.586620888419 303 0 1.5 144.3 89.55
13548	117890 8844 295 136937 20.30000000005 135.416479190233 290 0 20 1246 7834
13549	126734 9774 295 136937 20.30000000005 135.416479190233 290 -1.5 1 134.25 100.90625
13550	136508 9390 295 136937 20.30000000005 135.416479190233 290 0 2 139 87.88
13551	145898 8572 226 136661 20.20000000006 134.999274277209 281 0 23 1261 8877
13552	154470 9498 226 136661 20.20000000006 134.999274277209 281 -1.875 1 123.41666665673 104.5069444312
13553	163968 9088 226 136661 20.20000000006 134.999274277209 281 0 2.4 137.8 93.6
13554	173056 9047 231 136463 20.20000000007 134.722552463382 297 0 19 1261 8359
13555	182103 9995 231 136463 20.20000000007 134.722552463382 297 -1.375 1 139.375 112.359375
13556	192098 9601 231 136463 20.20000000007 134.722552463382 297 0 1.6 138.4 87.6
13557	201699 9829 236 136351 20.20000000008 134.628386814306 323 0 18 1363 8927
13558	211528 10906 236 136351 20.20000000008 134.628386814306 323 -1.25 1 152.72222219408 121.83371910968
13559	222434 10443 236 136351 20.20000000008 134.628386814306 323 0.1 1.7 154.7 99.51
13560	232877 9273 303 137121 20.30000000009 135.738419100039 304 0 17 1278 8272
13561	242150 10262 303 137121 20.30000000009 135.738419100039 304 -1.125 1 144.25 113.75
13562	252412 9845 303 137121 20.30000000009 135.738419100039 304 0 1.7 143.2 91.36
13563	262257 9551 151 137440 20.1000000001 136.464779923115 314 0 20 1275 8029
13564	271808 10594 151 137440 20.1000000001 136.464779923115 314 -1.5 1 154.70833331347 120.75173609787
13565	282402 10145 151 137440 20.1000000001 136.464779923115 314 0 1.9 144.1 89.89
13566	292547 8749 243 136482 20.20000000011 134.739515405108 288 0 24 1332 9304
13567	301296 9715 243 136482 20.20000000011 134.739515405108 288 -2 1 121.58333332092 100.49575615555
13568	311011 9272 243 136482 20.20000000011 134.739515405108 288 0 2.1 145.2 97.34
13569	320283 9436 157 137008 20.10000000012 135.535564579266 310 0 23 1309 8627
13570	329719 10453 157 137008 20.10000000012 135.535564579266 310 -1.875 1 146.61111102998 117.59606480047
13571	340172 10013 157 137008 20.10000000012 135.535564579266 310 0 2.1 145.5 92.75
13572	350185 8946 162 137478 20.10000000013 136.606254256805 293 1 17 1295 8521
13573	359131 9933 162 137478 20.10000000013 136.606254256805 293 -1.125 0.875 131.20833331347 102.43923609787
13574	369064 9494 162 137478 20.10000000013 136.606254256805 293 0.1 1.7 143.2 92.62
13575	378558 9266 249 137403 20.20000000014 136.309074723632 303 0 20 1293 8381
13576	387824 10291 249 137403 20.20000000014 136.309074723632 303 -1.5 1 141.4999999702 110.8645832936
13577	398115 9838 249 137403 20.20000000014 136.309074723632 303 0 1.8 144.3 92.39
13578	407953 9087 168 136215 20.10000000015 134.497564810409 299 0 23 1285 8945
13579	417040 10100 168 136215 20.10000000015 134.497564810409 299 -1.875 1 138.44444444031 117.59876542695
13580	427140 9638 168 136215 20.10000000015 134.497564810409 299 0 1.9 141.8 93.26
13581	436778 8782 173 137374 20.10000000016 136.268221465438 288 0 27 1276 9782
13582	445560 9719 173 137374 20.10000000016 136.268221465438 288 -2.375 1 128.59722220898 121.87750771016
13583	455279 9312 173 137374 20.10000000016 136.268221465438 288 0 2.3 140.5 99.69
13584	464591 9836 178 134943 20.10000000017 133.360217622628 323 0 14 1309 8037
13585	474427 10900 178 134943 20.10000000017 133.360217622628 323 -0.75 1 159.48611107469 121.43885027185
13586	485327 10451 178 134943 20.10000000017 133.360217622628 323 0 1.4 147.2 90.06
13587	495778 9192 82 136384 20.00000000018 134.694104580616 302 0 20 1239 8081
13588	504970 10155 82 136384 20.00000000018 134.694104580616 302 -1.5 1 147.125 118.515625
13589	515125 9746 82 136384 20.00000000018 134.694104580616 302 0 1.8 138.2 86.28
13590	524871 8886 89 136746 20.00000000019 135.117069146146 293 0 16 1149 6753
13591	533757 9818 89 136746 20.00000000019 135.117069146146 293 -1 1 149.375 111.265625
13592	543575 9444 89 136746 20.00000000019 135.117069146146 293 0 1.5 129.6 75.66
13593	553019 9029 184 136184 20.1000000002 134.492544781537 298 0 16 1290 8326
13594	562048 10001 184 136184 20.1000000002 134.492544781537 298 -1 1 136.91666662693 105.4548611376
13595	572049 9573 184 136184 20.1000000002 134.492544781537 298 0 1.4 142.1 89.33
13596	581622 8830 467 136078 20.60000000021 134.399777965167 290 0 25 1235 8497
13597	590452 9774 467 136078 20.60000000021 134.399777965167 290 -2.125 1 135.66666665673 114.0694444312
13598	600226 9382 467 136078 20.60000000021 134.399777965167 290 0.1 2.3 139.2 93.24
13599	609608 8397 361 137069 20.40000000022 135.654622731535 275 0 23 1258 8922
13600	618005 9315 361 137069 20.40000000022 135.654622731535 275 -1.875 1 117.8749999702 100.02179781228
13601	627320 8902 361 137069 20.40000000022 135.654622731535 275 0 2.4 139.3 97.93
13602	636222 9438 366 136980 20.40000000023 135.501206087096 310 0 21 1337 9329
13603	645660 10468 366 136980 20.40000000023 135.501206087096 310 -1.625 1 142.875 121.515625
13604	656128 10014 366 136980 20.40000000023 135.501206087096 310 0 1.7 148 98.16
13605	666142 8731 192 137135 20.10000000024 135.74506261095 288 0 23 1204 8384
13606	674873 9669 192 137135 20.10000000024 135.74506261095 288 -1.875 1 137.5 118
13607	684542 9266 192 137135 20.10000000024 135.74506261095 288 0 1.9 135.5 90.35
13608	693808 9092 197 136842 20.10000000025 135.278592889681 299 0 15 1138 6752
13609	702900 10123 197 136842 20.10000000025 135.278592889681 299 -0.875 1 156.84722220898 120.13869596926
13610	713023 9651 197 136842 20.10000000025 135.278592889681 299 0 1.3 128.4 75.38
13611	722674 8574 476 137363 20.60000000026 136.264679923115 281 0 23 1235 8455
13612	731248 9510 476 137363 20.60000000026 136.264679923115 281 -1.875 1 126.70833331347 104.4670138624
13613	740758 9089 476 137363 20.60000000026 136.264679923115 281 0 2.1 137.2 91.68
13614	749847 8534 373 137203 20.40000000027 135.868121465438 281 0 31 1257 9363
13615	758381 9419 373 137203 20.40000000027 135.868121465438 281 -2.875 1 123.90277777612 113.08931326903
13616	767800 9062 373 137203 20.40000000027 135.868121465438 281 0 2.7 138.6 97.12
13617	776862 9226 378 137332 20.40000000028 136.154722731535 303 0 19 1287 8803
13618	786088 10275 378 137332 20.40000000028 136.154722731535 303 -1.375 1 142.30555551499 118.91859565105
13619	796363 9782 378 137332 20.40000000028 136.154722731535 303 0 1.8 145.2 98.14
13620	806145 8872 323 137101 20.30000000029 135.713675334704 292 0 21 1215 7901
13621	815017 9891 323 137101 20.30000000029 135.713675334704 292 -1.625 1 140.3194444254 111.94116509881
13622	824908 9425 323 137101 20.30000000029 135.713675334704 292 0 1.9 136.4 87.66
13623	834333 9399 126 137376 20.0000000003 136.272802720246 309 0 18 1248 7560
13624	843732 10399 126 137376 20.0000000003 136.272802720246 309 -1.25 1 153.08333330601 115.20640429597
13625	854131 9979 126 137376 20.0000000003 136.272802720246 309 0 1.7 140.7 85.57
13626	864110 9763 268 137171 20.20000000031 135.818051740586 320 0 22 1243 8005
13627	873873 10823 268 137171 20.20000000031 135.818051740586 320 -1.75 1 164.66666666418 134.39506172435
13628	884696 10361 268 137171 20.20000000031 135.818051740586 320 0 1.9 139.6 85.76
13629	895057 9042 273 136108 20.20000000032 134.409681145084 297 0 19 1223 7749
13630	904099 9990 273 136108 20.20000000032 134.409681145084 297 -1.375 1 144.125 112.328125
13631	914089 9602 273 136108 20.20000000032 134.409681145084 297 0 1.9 138.5 87.73
