version 2
run Stability-norelink-46-20130525-23:17:04-22103
attr configname Stability-norelink
attr datetime 20130525-23:17:04
attr experiment Stability
attr inifile omnetpp.ini
attr iterationvars $0=1e2
attr iterationvars2 "$0=1e2, $repetition=6"
attr measurement $0=1e2
attr network Network
attr processid 22103
attr repetition 6
attr replication #6
attr resultdir results
attr runnumber 46
attr seedset 46

vector 4416  Network.dyn_peer[0]  lookupHopsSig:vector  ETV
vector 4417  Network.dyn_peer[0]  lookupStabilitySig:vector  ETV
vector 4418  Network.dyn_peer[0]  lookupTimeSig:vector  ETV
vector 4422  Network.dyn_peer[2]  lookupHopsSig:vector  ETV
vector 4423  Network.dyn_peer[2]  lookupStabilitySig:vector  ETV
vector 4424  Network.dyn_peer[2]  lookupTimeSig:vector  ETV
vector 4419  Network.dyn_peer[1]  lookupHopsSig:vector  ETV
vector 4420  Network.dyn_peer[1]  lookupStabilitySig:vector  ETV
vector 4421  Network.dyn_peer[1]  lookupTimeSig:vector  ETV
vector 4425  Network.dyn_peer[3]  lookupHopsSig:vector  ETV
vector 4426  Network.dyn_peer[3]  lookupStabilitySig:vector  ETV
vector 4427  Network.dyn_peer[3]  lookupTimeSig:vector  ETV
vector 4428  Network.dyn_peer[4]  lookupHopsSig:vector  ETV
vector 4429  Network.dyn_peer[4]  lookupStabilitySig:vector  ETV
vector 4430  Network.dyn_peer[4]  lookupTimeSig:vector  ETV
vector 4431  Network.dyn_peer[5]  lookupHopsSig:vector  ETV
vector 4432  Network.dyn_peer[5]  lookupStabilitySig:vector  ETV
vector 4433  Network.dyn_peer[5]  lookupTimeSig:vector  ETV
vector 4437  Network.dyn_peer[7]  lookupHopsSig:vector  ETV
vector 4438  Network.dyn_peer[7]  lookupStabilitySig:vector  ETV
vector 4439  Network.dyn_peer[7]  lookupTimeSig:vector  ETV
vector 4434  Network.dyn_peer[6]  lookupHopsSig:vector  ETV
vector 4435  Network.dyn_peer[6]  lookupStabilitySig:vector  ETV
vector 4436  Network.dyn_peer[6]  lookupTimeSig:vector  ETV
vector 4440  Network.dyn_peer[8]  lookupHopsSig:vector  ETV
vector 4441  Network.dyn_peer[8]  lookupStabilitySig:vector  ETV
vector 4442  Network.dyn_peer[8]  lookupTimeSig:vector  ETV
vector 4443  Network.dyn_peer[9]  lookupHopsSig:vector  ETV
vector 4444  Network.dyn_peer[9]  lookupStabilitySig:vector  ETV
vector 4445  Network.dyn_peer[9]  lookupTimeSig:vector  ETV
vector 4446  Network.dyn_peer[10]  lookupHopsSig:vector  ETV
vector 4447  Network.dyn_peer[10]  lookupStabilitySig:vector  ETV
vector 4448  Network.dyn_peer[10]  lookupTimeSig:vector  ETV
vector 4449  Network.dyn_peer[11]  lookupHopsSig:vector  ETV
vector 4450  Network.dyn_peer[11]  lookupStabilitySig:vector  ETV
vector 4451  Network.dyn_peer[11]  lookupTimeSig:vector  ETV
vector 4452  Network.dyn_peer[12]  lookupHopsSig:vector  ETV
vector 4453  Network.dyn_peer[12]  lookupStabilitySig:vector  ETV
vector 4454  Network.dyn_peer[12]  lookupTimeSig:vector  ETV
vector 4455  Network.dyn_peer[13]  lookupHopsSig:vector  ETV
vector 4456  Network.dyn_peer[13]  lookupStabilitySig:vector  ETV
vector 4457  Network.dyn_peer[13]  lookupTimeSig:vector  ETV
vector 4464  Network.dyn_peer[16]  lookupHopsSig:vector  ETV
vector 4465  Network.dyn_peer[16]  lookupStabilitySig:vector  ETV
vector 4466  Network.dyn_peer[16]  lookupTimeSig:vector  ETV
vector 4467  Network.dyn_peer[17]  lookupHopsSig:vector  ETV
vector 4468  Network.dyn_peer[17]  lookupStabilitySig:vector  ETV
vector 4469  Network.dyn_peer[17]  lookupTimeSig:vector  ETV
vector 4458  Network.dyn_peer[14]  lookupHopsSig:vector  ETV
vector 4459  Network.dyn_peer[14]  lookupStabilitySig:vector  ETV
vector 4460  Network.dyn_peer[14]  lookupTimeSig:vector  ETV
vector 4461  Network.dyn_peer[15]  lookupHopsSig:vector  ETV
vector 4462  Network.dyn_peer[15]  lookupStabilitySig:vector  ETV
vector 4463  Network.dyn_peer[15]  lookupTimeSig:vector  ETV
vector 4473  Network.dyn_peer[19]  lookupHopsSig:vector  ETV
vector 4474  Network.dyn_peer[19]  lookupStabilitySig:vector  ETV
vector 4475  Network.dyn_peer[19]  lookupTimeSig:vector  ETV
vector 4476  Network.dyn_peer[20]  lookupHopsSig:vector  ETV
vector 4477  Network.dyn_peer[20]  lookupStabilitySig:vector  ETV
vector 4478  Network.dyn_peer[20]  lookupTimeSig:vector  ETV
vector 4470  Network.dyn_peer[18]  lookupHopsSig:vector  ETV
vector 4471  Network.dyn_peer[18]  lookupStabilitySig:vector  ETV
vector 4472  Network.dyn_peer[18]  lookupTimeSig:vector  ETV
vector 4479  Network.dyn_peer[21]  lookupHopsSig:vector  ETV
vector 4480  Network.dyn_peer[21]  lookupStabilitySig:vector  ETV
vector 4481  Network.dyn_peer[21]  lookupTimeSig:vector  ETV
vector 4482  Network.dyn_peer[22]  lookupHopsSig:vector  ETV
vector 4483  Network.dyn_peer[22]  lookupStabilitySig:vector  ETV
vector 4484  Network.dyn_peer[22]  lookupTimeSig:vector  ETV
vector 4488  Network.dyn_peer[24]  lookupHopsSig:vector  ETV
vector 4489  Network.dyn_peer[24]  lookupStabilitySig:vector  ETV
vector 4490  Network.dyn_peer[24]  lookupTimeSig:vector  ETV
vector 4494  Network.dyn_peer[26]  lookupHopsSig:vector  ETV
vector 4495  Network.dyn_peer[26]  lookupStabilitySig:vector  ETV
vector 4496  Network.dyn_peer[26]  lookupTimeSig:vector  ETV
vector 4485  Network.dyn_peer[23]  lookupHopsSig:vector  ETV
vector 4486  Network.dyn_peer[23]  lookupStabilitySig:vector  ETV
vector 4487  Network.dyn_peer[23]  lookupTimeSig:vector  ETV
vector 4491  Network.dyn_peer[25]  lookupHopsSig:vector  ETV
vector 4492  Network.dyn_peer[25]  lookupStabilitySig:vector  ETV
vector 4493  Network.dyn_peer[25]  lookupTimeSig:vector  ETV
vector 4500  Network.dyn_peer[28]  lookupHopsSig:vector  ETV
vector 4501  Network.dyn_peer[28]  lookupStabilitySig:vector  ETV
vector 4502  Network.dyn_peer[28]  lookupTimeSig:vector  ETV
vector 4497  Network.dyn_peer[27]  lookupHopsSig:vector  ETV
vector 4498  Network.dyn_peer[27]  lookupStabilitySig:vector  ETV
vector 4499  Network.dyn_peer[27]  lookupTimeSig:vector  ETV
vector 4503  Network.dyn_peer[29]  lookupHopsSig:vector  ETV
vector 4504  Network.dyn_peer[29]  lookupStabilitySig:vector  ETV
vector 4505  Network.dyn_peer[29]  lookupTimeSig:vector  ETV
vector 4509  Network.dyn_peer[31]  lookupHopsSig:vector  ETV
vector 4510  Network.dyn_peer[31]  lookupStabilitySig:vector  ETV
vector 4511  Network.dyn_peer[31]  lookupTimeSig:vector  ETV
vector 4506  Network.dyn_peer[30]  lookupHopsSig:vector  ETV
vector 4507  Network.dyn_peer[30]  lookupStabilitySig:vector  ETV
vector 4508  Network.dyn_peer[30]  lookupTimeSig:vector  ETV
4416	31	20.2	1
4416	58	20.5	2
4416	95	20.711016483038	1
4416	133	20.934953482676	1
4416	1160	23.6	3
4416	1490	24.2	5
4416	1677	24.604516933462	3
4416	1847	24.914436277513	2
4416	1852	24.914549306697	2
4416	2007	25.218233591309	2
4416	2009	25.219484006106	2
4416	2052	25.314649306697	2
4416	3381	27.9	6
4416	3507	28.2	2
4416	3673	28.60429242332	3
4416	3738	28.804624063193	1
4416	3881	29.117883218252	3
4416	4056	29.509901396177	6
4416	4065	29.524081334655	3
4416	4143	29.717337256426	1
4416	4149	29.72737234234	1
4416	5220	31.9	4
4416	5367	32.2	2
4416	6617	34.9	5
4416	6912	35.402121936071	4
4416	8120	38	5
4416	8207	38.1	0
4416	8309	38.31248147756	1
4416	8614	38.964910910481	5
4416	9648	41.1	2
4416	9852	41.6	4
4416	10031	41.920799376344	4
4416	10168	42.222950826269	2
4416	10204	42.30576996711	7
4416	11398	44.3	5
4416	11518	44.5	1
4416	11615	44.702335694599	1
4416	11695	44.904880567948	1
4416	12816	47.2	5
4416	13091	47.8	5
4416	13903	49.6	1
4416	14023	49.8	1
4416	14275	50.205120661417	3
4416	14289	50.208860655529	3
4416	15480	52.9	4
4416	15690	53.3	3
4416	15865	53.604044202172	3
4416	15999	53.910806498878	2
4416	16149	54.214642437395	7
4416	16157	54.229708605784	2
4416	16196	54.306927851787	1
4416	16263	54.416653381203	6
4416	16270	54.442269403801	1
4416	17415	56.8	7
4416	17522	57.1	2
4416	17738	57.60100319348	4
4416	17785	57.725553924468	4
4416	17873	57.91035591053	2
4416	17990	58.118121888537	1
4416	17996	58.120285264965	1
4416	18114	58.323303646258	1
4416	18118	58.325652218001	1
4416	18120	58.326048468222	1
4416	19198	60.5	2
4416	19275	60.7	1
4416	19522	61.105973317285	4
4416	19583	61.208466208919	4
4416	20575	63.1	0
4416	20735	63.4	2
4416	20873	63.701129640252	2
4416	20945	63.909813470102	1
4416	22233	66.8	10
4416	22320	67	1
4416	22538	67.501398751782	5
4416	22685	67.806256061335	2
4416	23643	69.6	3
4416	23806	70	3
4416	23911	70.200982951603	1
4416	23947	70.311559211706	1
4416	24024	70.503279286131	2
4416	25067	72.7	2
4416	25192	73.1	3
4416	25335	73.402138857417	2
4416	25348	73.408618614925	2
4416	25607	74.009137801209	5
4416	25612	74.01015682009	5
4416	26747	76.2	2
4416	27183	77.015773510487	7
4416	27294	77.216825656107	1
4416	27384	77.412683383306	3
4416	28301	79.4	1
4416	28574	80	5
4416	28682	80.201413486518	1
4416	28815	80.423777540642	4
4416	29775	82.5	3
4416	29841	82.7	1
4416	29966	83.007885695751	2
4416	30406	83.90827229384	8
4416	30570	84.213088184128	2
4416	31512	86.4	1
4416	31639	86.6	1
4416	31791	86.808385394818	1
4416	31811	86.82064797462	1
4416	32947	89.2	4
4416	33179	89.703104082893	4
4416	34193	92.1	3
4416	34275	92.3	1
4416	34425	92.707063679443	3
4416	35393	94.8	0
4416	35475	95	1
4416	35549	95.20280743183	1
4416	36625	97.6	4
4416	36749	97.9	2
4416	37221	98.701479676244	9
4416	37311	98.902167487851	2
4416	37355	99.004021781495	2
4416	38442	101.4	4
4416	38539	101.608070078042	1
4416	38759	102.109713444643	4
4416	38769	102.112820960893	3
4416	38900	102.310605364049	4
4416	38972	102.415367696894	2
4416	38976	102.41858926825	2
4416	38985	102.432749443557	2
4416	40120	104.7	2
4416	40218	104.9	1
4416	40371	105.304379610372	3
4416	40473	105.5001	2
4416	40478	105.505361071605	2
4416	40497	105.513418561521	3
4416	40574	105.705679442854	3
4416	40576	105.705952299509	1
4416	41596	108.1	2
4416	41750	108.504425022413	3
4416	42027	109.012177040134	5
4416	42089	109.129144471997	5
4416	42182	109.316538110398	2
4416	43096	111.3	2
4416	43264	111.7	3
4416	43409	111.906806413212	1
4416	44431	114.2	2
4416	44608	114.7	4
4416	44795	115.01429779416	1
4416	44815	115.023874644332	3
4416	44941	115.227397928775	1
4416	45899	117.3	2
4416	46014	117.5	1
4416	46217	117.81121673494	2
4416	46315	118.019158962847	1
4416	47573	120.7	8
4416	47788	121.1	4
4416	48055	121.605715119703	4
4416	48075	121.628199100422	3
4416	48147	121.736692829709	1
4416	48246	121.914785880939	4
4416	48320	122.041539892334	2
4416	49289	123.9	2
4416	49461	124.3	3
4416	49656	124.705752010438	4
4416	49665	124.718771031651	3
4416	49802	125.019352691838	2
4416	49806	125.021309077167	2
4416	50827	127	0
4416	50931	127.3	2
4416	51176	127.805633812081	4
4416	51290	128.028143838116	1
4416	52289	130.4	4
4416	52445	130.7	2
4416	52548	130.905126565729	1
4416	52612	131.012670827483	1
4416	52767	131.320226581501	3
4416	52807	131.414322738059	3
4416	53751	133.2	0
4416	53912	133.5	2
4416	53932	133.513003627656	1
4416	55015	135.9	3
4416	55140	136.1	1
4416	55463	136.704099390013	5
4416	55480	136.711946683599	1
4416	56619	139.2	1
4416	56718	139.4	1
4416	56845	139.708266174844	2
4416	56966	140.017916526842	2
4416	57057	140.224764585973	1
4416	58136	142.7	6
4416	58242	142.9	2
4416	58441	143.319380421031	3
4416	58457	143.337761374709	2
4416	58526	143.519389873612	1
4416	59477	145.5	2
4416	59585	145.7	1
4416	59701	145.900452805913	1
4416	59920	146.412057304839	4
4416	60006	146.618158696375	1
4416	61060	149.1	3
4416	61277	149.50596227298	3
4416	61469	149.83288944257	2
4416	61652	150.154449487605	2
4416	61684	150.207325578441	2
4416	61823	150.512486683248	2
4416	61857	150.604301863787	4
4416	61881	150.637214765154	4
4416	62802	152.4	0
4416	62867	152.6	1
4416	62998	152.904034031482	2
4416	63152	153.312777379666	4
4416	63261	153.535575340408	1
4416	63288	153.607088691787	1
4416	64409	155.8	5
4416	64549	156.1	2
4416	64923	156.718887479741	6
4416	65097	157.027101502211	3
4416	65143	157.125960371383	2
4416	65145	157.127650843413	5
4416	66130	159.5	2
4416	66500	160.2	7
4416	66656	160.506209263361	2
4416	66667	160.51524321284	6
4416	66721	160.664569128103	2
4416	67795	162.8	4
4416	68166	163.5	6
4416	69317	165.7	2
4416	69499	166.1	3
4416	69624	166.305966646724	1
4416	69842	166.707990858961	3
4416	70773	168.6	3
4416	71015	169.109179817393	5
4416	71277	169.618271799566	4
4416	71501	170.124479323212	4
4416	72449	172	2
4416	72553	172.2	1
4416	72723	172.609890044696	3
4416	72886	172.966766360674	2
4416	73842	175	2
4416	74052	175.401343489869	3
4416	74121	175.505828527426	3
4416	74160	175.603496788211	1
4416	75159	177.6	2
4416	75294	177.90684719596	2
4416	75566	178.509373601811	5
4416	75607	178.532264597132	3
4416	75643	178.61433352401	2
4416	75645	178.615090484592	0
4416	75724	178.748132288197	1
4416	76764	181	2
4416	76903	181.309390689656	2
4416	77055	181.612977763125	2
4416	77116	181.8001	2
4416	77137	181.826884011898	1
4416	78239	184.1	4
4416	78351	184.3	2
4416	78549	184.602151377403	1
4416	78625	184.707181126	4
4416	78705	184.807746522227	2
4416	78708	184.807991348828	2
4416	80058	187.7	6
4416	80225	188.003277293334	3
4416	80360	188.209496124166	1
4416	80368	188.216633091642	1
4416	81534	190.8	5
4416	81635	191	1
4416	81811	191.413692517994	1
4416	81877	191.60503948545	7
4416	81965	191.829287463795	3
4416	82847	193.7	1
4416	83122	194.2	4
4416	83219	194.408146826524	1
4416	84315	196.8	3
4416	84460	197.113695333629	2
4416	84621	197.420462490991	2
4416	84708	197.623486419766	2
4416	85773	199.8	2
4416	85997	200.3	4
4416	86101	200.506850615811	1
4416	87017	202.3	1
4416	87219	202.9	5
4416	87340	203.111507124417	6
4416	87539	203.504704277187	5
4416	88579	205.7	5
4416	88730	206.009663492185	2
4416	88846	206.227304010667	1
4416	88998	206.511531949292	5
4416	89921	208.7	1
4416	90069	209	2
4416	90264	209.50171635376	4
4416	90532	210.013712271397	4
4416	91650	212.2	3
4416	91818	212.606642168697	3
4416	92773	214.7	1
4416	92973	215.1	3
4416	93106	215.30049602112	1
4416	93252	215.607580727578	2
4416	94406	218.1	4
4416	94487	218.3	1
4416	94625	218.60460756524	3
4416	94631	218.608605755264	3
4416	94727	218.809507379533	1
4416	94731	218.811993376151	1
4416	95785	221	3
4416	96150	221.8	8
4416	96375	222.208706193458	4
4416	96498	222.414826987375	1
4416	97475	224.8	2
4416	97577	225.1	2
4416	97667	225.30315356709	1
4416	97679	225.308464955112	1
4416	97701	225.343668120368	1
4417	31	20.2	0.875
4417	58	20.5	0.75
4417	95	20.711016483038	0.875
4417	133	20.934953482676	0.875
4417	1160	23.6	0.625
4417	1490	24.2	0.375
4417	1677	24.604516933462	0.625
4417	1847	24.914436277513	0.75
4417	1852	24.914549306697	0.75
4417	2007	25.218233591309	0.75
4417	2009	25.219484006106	0.75
4417	2052	25.314649306697	0.75
4417	3381	27.9	0.25
4417	3507	28.2	0.75
4417	3673	28.60429242332	0.625
4417	3738	28.804624063193	0.875
4417	3881	29.117883218252	0.625
4417	4056	29.509901396177	0.25
4417	4065	29.524081334655	0.625
4417	4143	29.717337256426	0.875
4417	4149	29.72737234234	0.875
4417	5220	31.9	0.5
4417	5367	32.2	0.75
4417	6617	34.9	0.375
4417	6912	35.402121936071	0.5
4417	8120	38	0.375
4417	8207	38.1	1
4417	8309	38.31248147756	0.875
4417	8614	38.964910910481	0.375
4417	9648	41.1	0.77777777612209
4417	9852	41.6	0.5
4417	10031	41.920799376344	0.5
4417	10168	42.222950826269	0.75
4417	10204	42.30576996711	0.125
4417	11398	44.3	0.375
4417	11518	44.5	0.875
4417	11615	44.702335694599	0.875
4417	11695	44.904880567948	0.875
4417	12816	47.2	0.375
4417	13091	47.8	0.375
4417	13903	49.6	0.875
4417	14023	49.8	0.875
4417	14275	50.205120661417	0.625
4417	14289	50.208860655529	0.625
4417	15480	52.9	0.5
4417	15690	53.3	0.625
4417	15865	53.604044202172	0.625
4417	15999	53.910806498878	0.75
4417	16149	54.214642437395	0.125
4417	16157	54.229708605784	0.75
4417	16196	54.306927851787	0.875
4417	16263	54.416653381203	0.25
4417	16270	54.442269403801	0.875
4417	17415	56.8	0.125
4417	17522	57.1	0.75
4417	17738	57.60100319348	0.5
4417	17785	57.725553924468	0.5
4417	17873	57.91035591053	0.75
4417	17990	58.118121888537	0.875
4417	17996	58.120285264965	0.875
4417	18114	58.323303646258	0.875
4417	18118	58.325652218001	0.875
4417	18120	58.326048468222	0.875
4417	19198	60.5	0.75
4417	19275	60.7	0.875
4417	19522	61.105973317285	0.5
4417	19583	61.208466208919	0.5
4417	20575	63.1	1
4417	20735	63.4	0.75
4417	20873	63.701129640252	0.75
4417	20945	63.909813470102	0.875
4417	22233	66.8	-0.25
4417	22320	67	0.875
4417	22538	67.501398751782	0.375
4417	22685	67.806256061335	0.75
4417	23643	69.6	0.625
4417	23806	70	0.625
4417	23911	70.200982951603	0.875
4417	23947	70.311559211706	0.875
4417	24024	70.503279286131	0.75
4417	25067	72.7	0.75
4417	25192	73.1	0.625
4417	25335	73.402138857417	0.75
4417	25348	73.408618614925	0.75
4417	25607	74.009137801209	0.375
4417	25612	74.01015682009	0.375
4417	26747	76.2	0.75
4417	27183	77.015773510487	0.125
4417	27294	77.216825656107	0.875
4417	27384	77.412683383306	0.625
4417	28301	79.4	0.875
4417	28574	80	0.375
4417	28682	80.201413486518	0.875
4417	28815	80.423777540642	0.5
4417	29775	82.5	0.625
4417	29841	82.7	0.875
4417	29966	83.007885695751	0.75
4417	30406	83.90827229384	0
4417	30570	84.213088184128	0.75
4417	31512	86.4	0.875
4417	31639	86.6	0.875
4417	31791	86.808385394818	0.875
4417	31811	86.82064797462	0.875
4417	32947	89.2	0.5
4417	33179	89.703104082893	0.5
4417	34193	92.1	0.625
4417	34275	92.3	0.875
4417	34425	92.707063679443	0.625
4417	35393	94.8	1
4417	35475	95	0.875
4417	35549	95.20280743183	0.875
4417	36625	97.6	0.5
4417	36749	97.9	0.75
4417	37221	98.701479676244	-0.125
4417	37311	98.902167487851	0.75
4417	37355	99.004021781495	0.75
4417	38442	101.4	0.5
4417	38539	101.608070078042	0.875
4417	38759	102.109713444643	0.5
4417	38769	102.112820960893	0.625
4417	38900	102.310605364049	0.5
4417	38972	102.415367696894	0.75
4417	38976	102.41858926825	0.75
4417	38985	102.432749443557	0.75
4417	40120	104.7	0.75
4417	40218	104.9	0.875
4417	40371	105.304379610372	0.625
4417	40473	105.5001	0.75
4417	40478	105.505361071605	0.75
4417	40497	105.513418561521	0.625
4417	40574	105.705679442854	0.625
4417	40576	105.705952299509	0.875
4417	41596	108.1	0.75
4417	41750	108.504425022413	0.625
4417	42027	109.012177040134	0.375
4417	42089	109.129144471997	0.375
4417	42182	109.316538110398	0.75
4417	43096	111.3	0.75
4417	43264	111.7	0.625
4417	43409	111.906806413212	0.875
4417	44431	114.2	0.75
4417	44608	114.7	0.5
4417	44795	115.01429779416	0.875
4417	44815	115.023874644332	0.625
4417	44941	115.227397928775	0.875
4417	45899	117.3	0.75
4417	46014	117.5	0.875
4417	46217	117.81121673494	0.75
4417	46315	118.019158962847	0.875
4417	47573	120.7	0
4417	47788	121.1	0.5
4417	48055	121.605715119703	0.5
4417	48075	121.628199100422	0.625
4417	48147	121.736692829709	0.875
4417	48246	121.914785880939	0.5
4417	48320	122.041539892334	0.75
4417	49289	123.9	0.75
4417	49461	124.3	0.625
4417	49656	124.705752010438	0.5
4417	49665	124.718771031651	0.625
4417	49802	125.019352691838	0.75
4417	49806	125.021309077167	0.75
4417	50827	127	1
4417	50931	127.3	0.75
4417	51176	127.805633812081	0.5
4417	51290	128.028143838116	0.875
4417	52289	130.4	0.5
4417	52445	130.7	0.75
4417	52548	130.905126565729	0.875
4417	52612	131.012670827483	0.875
4417	52767	131.320226581501	0.625
4417	52807	131.414322738059	0.625
4417	53751	133.2	1
4417	53912	133.5	0.75
4417	53932	133.513003627656	0.875
4417	55015	135.9	0.625
4417	55140	136.1	0.875
4417	55463	136.704099390013	0.375
4417	55480	136.711946683599	0.875
4417	56619	139.2	0.875
4417	56718	139.4	0.875
4417	56845	139.708266174844	0.75
4417	56966	140.017916526842	0.75
4417	57057	140.224764585973	0.875
4417	58136	142.7	0.25
4417	58242	142.9	0.75
4417	58441	143.319380421031	0.625
4417	58457	143.337761374709	0.75
4417	58526	143.519389873612	0.875
4417	59477	145.5	0.75
4417	59585	145.7	0.875
4417	59701	145.900452805913	0.875
4417	59920	146.412057304839	0.5
4417	60006	146.618158696375	0.875
4417	61060	149.1	0.625
4417	61277	149.50596227298	0.625
4417	61469	149.83288944257	0.75
4417	61652	150.154449487605	0.75
4417	61684	150.207325578441	0.75
4417	61823	150.512486683248	0.75
4417	61857	150.604301863787	0.5
4417	61881	150.637214765154	0.5
4417	62802	152.4	1
4417	62867	152.6	0.875
4417	62998	152.904034031482	0.75
4417	63152	153.312777379666	0.5
4417	63261	153.535575340408	0.875
4417	63288	153.607088691787	0.875
4417	64409	155.8	0.375
4417	64549	156.1	0.75
4417	64923	156.718887479741	0.25
4417	65097	157.027101502211	0.625
4417	65143	157.125960371383	0.75
4417	65145	157.127650843413	0.375
4417	66130	159.5	0.75
4417	66500	160.2	0.125
4417	66656	160.506209263361	0.75
4417	66667	160.51524321284	0.25
4417	66721	160.664569128103	0.75
4417	67795	162.8	0.5
4417	68166	163.5	0.25
4417	69317	165.7	0.75
4417	69499	166.1	0.625
4417	69624	166.305966646724	0.875
4417	69842	166.707990858961	0.625
4417	70773	168.6	0.625
4417	71015	169.109179817393	0.375
4417	71277	169.618271799566	0.5
4417	71501	170.124479323212	0.5
4417	72449	172	0.75
4417	72553	172.2	0.875
4417	72723	172.609890044696	0.625
4417	72886	172.966766360674	0.75
4417	73842	175	0.75
4417	74052	175.401343489869	0.625
4417	74121	175.505828527426	0.625
4417	74160	175.603496788211	0.875
4417	75159	177.6	0.75
4417	75294	177.90684719596	0.75
4417	75566	178.509373601811	0.375
4417	75607	178.532264597132	0.625
4417	75643	178.61433352401	0.75
4417	75645	178.615090484592	1
4417	75724	178.748132288197	0.875
4417	76764	181	0.75
4417	76903	181.309390689656	0.75
4417	77055	181.612977763125	0.75
4417	77116	181.8001	0.75
4417	77137	181.826884011898	0.875
4417	78239	184.1	0.5
4417	78351	184.3	0.75
4417	78549	184.602151377403	0.875
4417	78625	184.707181126	0.5
4417	78705	184.807746522227	0.75
4417	78708	184.807991348828	0.75
4417	80058	187.7	0.25
4417	80225	188.003277293334	0.625
4417	80360	188.209496124166	0.875
4417	80368	188.216633091642	0.875
4417	81534	190.8	0.375
4417	81635	191	0.875
4417	81811	191.413692517994	0.875
4417	81877	191.60503948545	0.125
4417	81965	191.829287463795	0.625
4417	82847	193.7	0.875
4417	83122	194.2	0.5
4417	83219	194.408146826524	0.875
4417	84315	196.8	0.625
4417	84460	197.113695333629	0.75
4417	84621	197.420462490991	0.75
4417	84708	197.623486419766	0.75
4417	85773	199.8	0.75
4417	85997	200.3	0.5
4417	86101	200.506850615811	0.875
4417	87017	202.3	0.875
4417	87219	202.9	0.375
4417	87340	203.111507124417	0.25
4417	87539	203.504704277187	0.375
4417	88579	205.7	0.375
4417	88730	206.009663492185	0.75
4417	88846	206.227304010667	0.875
4417	88998	206.511531949292	0.375
4417	89921	208.7	0.88888888806105
4417	90069	209	0.75
4417	90264	209.50171635376	0.5
4417	90532	210.013712271397	0.5
4417	91650	212.2	0.625
4417	91818	212.606642168697	0.625
4417	92773	214.7	0.875
4417	92973	215.1	0.625
4417	93106	215.30049602112	0.875
4417	93252	215.607580727578	0.75
4417	94406	218.1	0.5
4417	94487	218.3	0.875
4417	94625	218.60460756524	0.625
4417	94631	218.608605755264	0.625
4417	94727	218.809507379533	0.875
4417	94731	218.811993376151	0.875
4417	95785	221	0.625
4417	96150	221.8	0
4417	96375	222.208706193458	0.5
4417	96498	222.414826987375	0.875
4417	97475	224.8	0.75
4417	97577	225.1	0.75
4417	97667	225.30315356709	0.875
4417	97679	225.308464955112	0.875
4417	97701	225.343668120368	0.875
4418	31	20.2	0.1
4418	58	20.5	0.3
4418	95	20.711016483038	0.2
4418	133	20.934953482676	0.2
4418	1160	23.6	0.3
4418	1490	24.2	0.6
4418	1677	24.604516933462	0.4
4418	1847	24.914436277513	0.3
4418	1852	24.914549306697	0.3
4418	2007	25.218233591309	0.3
4418	2009	25.219484006106	0.3
4418	2052	25.314649306697	0.3
4418	3381	27.9	0.6
4418	3507	28.2	0.3
4418	3673	28.60429242332	0.4
4418	3738	28.804624063193	0.2
4418	3881	29.117883218252	0.3
4418	4056	29.509901396177	0.6
4418	4065	29.524081334655	0.4
4418	4143	29.717337256426	0.2
4418	4149	29.72737234234	0.2
4418	5220	31.9	0.4
4418	5367	32.2	0.3
4418	6617	34.9	0.5
4418	6912	35.402121936071	0.5
4418	8120	38	0.5
4418	8207	38.1	0.1
4418	8309	38.31248147756	0.2
4418	8614	38.964910910481	0.6
4418	9648	41.1	0.2
4418	9852	41.6	0.5
4418	10031	41.920799376344	0.5
4418	10168	42.222950826269	0.3
4418	10204	42.30576996711	0.7
4418	11398	44.3	0.5
4418	11518	44.5	0.2
4418	11615	44.702335694599	0.2
4418	11695	44.904880567948	0.2
4418	12816	47.2	0.5
4418	13091	47.8	0.6
4418	13903	49.6	0.1
4418	14023	49.8	0.2
4418	14275	50.205120661417	0.4
4418	14289	50.208860655529	0.4
4418	15480	52.9	0.4
4418	15690	53.3	0.4
4418	15865	53.604044202172	0.3
4418	15999	53.910806498878	0.3
4418	16149	54.214642437395	0.7
4418	16157	54.229708605784	0.3
4418	16196	54.306927851787	0.2
4418	16263	54.416653381203	0.6
4418	16270	54.442269403801	0.2
4418	17415	56.8	0.6
4418	17522	57.1	0.3
4418	17738	57.60100319348	0.5
4418	17785	57.725553924468	0.5
4418	17873	57.91035591053	0.3
4418	17990	58.118121888537	0.2
4418	17996	58.120285264965	0.2
4418	18114	58.323303646258	0.2
4418	18118	58.325652218001	0.2
4418	18120	58.326048468222	0.2
4418	19198	60.5	0.2
4418	19275	60.7	0.2
4418	19522	61.105973317285	0.4
4418	19583	61.208466208919	0.5
4418	20575	63.1	0
4418	20735	63.4	0.3
4418	20873	63.701129640252	0.3
4418	20945	63.909813470102	0.2
4418	22233	66.8	0.9
4418	22320	67	0.2
4418	22538	67.501398751782	0.5
4418	22685	67.806256061335	0.3
4418	23643	69.6	0.3
4418	23806	70	0.4
4418	23911	70.200982951603	0.2
4418	23947	70.311559211706	0.2
4418	24024	70.503279286131	0.3
4418	25067	72.7	0.2
4418	25192	73.1	0.4
4418	25335	73.402138857417	0.3
4418	25348	73.408618614925	0.3
4418	25607	74.009137801209	0.6
4418	25612	74.01015682009	0.6
4418	26747	76.2	0.2
4418	27183	77.015773510487	0.8
4418	27294	77.216825656107	0.2
4418	27384	77.412683383306	0.4
4418	28301	79.4	0.1
4418	28574	80	0.6
4418	28682	80.201413486518	0.2
4418	28815	80.423777540642	0.4
4418	29775	82.5	0.3
4418	29841	82.7	0.2
4418	29966	83.007885695751	0.3
4418	30406	83.90827229384	0.9
4418	30570	84.213088184128	0.3
4418	31512	86.4	0.1
4418	31639	86.6	0.2
4418	31791	86.808385394818	0.2
4418	31811	86.82064797462	0.2
4418	32947	89.2	0.4
4418	33179	89.703104082893	0.5
4418	34193	92.1	0.3
4418	34275	92.3	0.2
4418	34425	92.707063679443	0.4
4418	35393	94.8	0
4418	35475	95	0.2
4418	35549	95.20280743183	0.2
4418	36625	97.6	0.4
4418	36749	97.9	0.3
4418	37221	98.701479676244	0.8
4418	37311	98.902167487851	0.2
4418	37355	99.004021781495	0.3
4418	38442	101.4	0.3
4418	38539	101.608070078042	0.2
4418	38759	102.109713444643	0.5
4418	38769	102.112820960893	0.4
4418	38900	102.310605364049	0.5
4418	38972	102.415367696894	0.3
4418	38976	102.41858926825	0.3
4418	38985	102.432749443557	0.2
4418	40120	104.7	0.2
4418	40218	104.9	0.2
4418	40371	105.304379610372	0.4
4418	40473	105.5001	0.3
4418	40478	105.505361071605	0.2
4418	40497	105.513418561521	0.4
4418	40574	105.705679442854	0.4
4418	40576	105.705952299509	0.2
4418	41596	108.1	0.2
4418	41750	108.504425022413	0.4
4418	42027	109.012177040134	0.5
4418	42089	109.129144471997	0.6
4418	42182	109.316538110398	0.3
4418	43096	111.3	0.2
4418	43264	111.7	0.4
4418	43409	111.906806413212	0.2
4418	44431	114.2	0.2
4418	44608	114.7	0.5
4418	44795	115.01429779416	0.2
4418	44815	115.023874644332	0.3
4418	44941	115.227397928775	0.2
4418	45899	117.3	0.2
4418	46014	117.5	0.2
4418	46217	117.81121673494	0.3
4418	46315	118.019158962847	0.2
4418	47573	120.7	0.8
4418	47788	121.1	0.4
4418	48055	121.605715119703	0.5
4418	48075	121.628199100422	0.4
4418	48147	121.736692829709	0.1
4418	48246	121.914785880939	0.3
4418	48320	122.041539892334	0.3
4418	49289	123.9	0.1
4418	49461	124.3	0.4
4418	49656	124.705752010438	0.4
4418	49665	124.718771031651	0.4
4418	49802	125.019352691838	0.3
4418	49806	125.021309077167	0.3
4418	50827	127	0
4418	50931	127.3	0.3
4418	51176	127.805633812081	0.5
4418	51290	128.028143838116	0.2
4418	52289	130.4	0.4
4418	52445	130.7	0.3
4418	52548	130.905126565729	0.2
4418	52612	131.012670827483	0.2
4418	52767	131.320226581501	0.4
4418	52807	131.414322738059	0.4
4418	53751	133.2	0
4418	53912	133.5	0.3
4418	53932	133.513003627656	0.2
4418	55015	135.9	0.3
4418	55140	136.1	0.2
4418	55463	136.704099390013	0.6
4418	55480	136.711946683599	0.2
4418	56619	139.2	0.1
4418	56718	139.4	0.2
4418	56845	139.708266174844	0.3
4418	56966	140.017916526842	0.3
4418	57057	140.224764585973	0.2
4418	58136	142.7	0.5
4418	58242	142.9	0.2
4418	58441	143.319380421031	0.4
4418	58457	143.337761374709	0.3
4418	58526	143.519389873612	0.2
4418	59477	145.5	0.2
4418	59585	145.7	0.2
4418	59701	145.900452805913	0.2
4418	59920	146.412057304839	0.5
4418	60006	146.618158696375	0.2
4418	61060	149.1	0.3
4418	61277	149.50596227298	0.4
4418	61469	149.83288944257	0.3
4418	61652	150.154449487605	0.3
4418	61684	150.207325578441	0.3
4418	61823	150.512486683248	0.3
4418	61857	150.604301863787	0.5
4418	61881	150.637214765154	0.5
4418	62802	152.4	0
4418	62867	152.6	0.2
4418	62998	152.904034031482	0.3
4418	63152	153.312777379666	0.4
4418	63261	153.535575340408	0.2
4418	63288	153.607088691787	0.2
4418	64409	155.8	0.4
4418	64549	156.1	0.3
4418	64923	156.718887479741	0.6
4418	65097	157.027101502211	0.3
4418	65143	157.125960371383	0.3
4418	65145	157.127650843413	0.5
4418	66130	159.5	0.2
4418	66500	160.2	0.7
4418	66656	160.506209263361	0.3
4418	66667	160.51524321284	0.6
4418	66721	160.664569128103	0.3
4418	67795	162.8	0.4
4418	68166	163.5	0.7
4418	69317	165.7	0.2
4418	69499	166.1	0.4
4418	69624	166.305966646724	0.2
4418	69842	166.707990858961	0.4
4418	70773	168.6	0.3
4418	71015	169.109179817393	0.5
4418	71277	169.618271799566	0.5
4418	71501	170.124479323212	0.5
4418	72449	172	0.2
4418	72553	172.2	0.2
4418	72723	172.609890044696	0.4
4418	72886	172.966766360674	0.3
4418	73842	175	0.2
4418	74052	175.401343489869	0.4
4418	74121	175.505828527426	0.4
4418	74160	175.603496788211	0.2
4418	75159	177.6	0.2
4418	75294	177.90684719596	0.3
4418	75566	178.509373601811	0.6
4418	75607	178.532264597132	0.3
4418	75643	178.61433352401	0.3
4418	75645	178.615090484592	0.1
4418	75724	178.748132288197	0.2
4418	76764	181	0.2
4418	76903	181.309390689656	0.3
4418	77055	181.612977763125	0.3
4418	77116	181.8001	0.3
4418	77137	181.826884011898	0.2
4418	78239	184.1	0.4
4418	78351	184.3	0.2
4418	78549	184.602151377403	0.2
4418	78625	184.707181126	0.4
4418	78705	184.807746522227	0.2
4418	78708	184.807991348828	0.2
4418	80058	187.7	0.5
4418	80225	188.003277293334	0.3
4418	80360	188.209496124166	0.2
4418	80368	188.216633091642	0.2
4418	81534	190.8	0.5
4418	81635	191	0.2
4418	81811	191.413692517994	0.2
4418	81877	191.60503948545	0.6