file 895591 1369674159                                          
version 2
run Stability-norelink-94-20130525-23:20:16-22103
attr configname Stability-norelink
attr datetime 20130525-23:20:16
attr experiment Stability
attr inifile omnetpp.ini
attr iterationvars $0=1e-3
attr iterationvars2 "$0=1e-3, $repetition=4"
attr measurement $0=1e-3
attr network Network
attr processid 22103
attr repetition 4
attr replication #4
attr resultdir results
attr runnumber 94
attr seedset 94
vector 9060  Network.dyn_peer[12]  lookupHopsSig:vector  ETV
9060	338771 8555 66 135547 20.000013 133.381661426972 291 0 26 1274 9108
vector 9061  Network.dyn_peer[12]  lookupStabilitySig:vector  ETV
9061	347326 9479 66 135547 20.000013 133.381661426972 291 -2.25 1 131.75 114.8125
vector 9062  Network.dyn_peer[12]  lookupTimeSig:vector  ETV
9062	356805 9096 66 135547 20.000013 133.381661426972 291 0 2.4 141.3 96.75
vector 9027  Network.dyn_peer[1]  lookupHopsSig:vector  ETV
9027	34491 8511 129 135765 20.100002 133.599820170558 290 0 27 1199 8059
vector 9028  Network.dyn_peer[1]  lookupStabilitySig:vector  ETV
9028	43002 9459 129 135765 20.100002 133.599820170558 290 -2.375 1 140.125 116.171875
vector 9029  Network.dyn_peer[1]  lookupTimeSig:vector  ETV
9029	52461 9066 129 135765 20.100002 133.599820170558 290 0 2.4 135.4 87.54
vector 9042  Network.dyn_peer[6]  lookupHopsSig:vector  ETV
9042	171051 8254 138 135825 20.100007 133.682848558556 281 0 19 1211 8393
vector 9043  Network.dyn_peer[6]  lookupStabilitySig:vector  ETV
9043	179305 9236 138 135825 20.100007 133.682848558556 281 -1.375 1 129.72222220898 109.50308640283
vector 9044  Network.dyn_peer[6]  lookupTimeSig:vector  ETV
9044	188541 8782 138 135825 20.100007 133.682848558556 281 0 1.9 131.7 86.01
vector 9048  Network.dyn_peer[8]  lookupHopsSig:vector  ETV
9048	223611 8695 144 135585 20.100009 133.397568124225 295 0 21 1229 7847
vector 9049  Network.dyn_peer[8]  lookupStabilitySig:vector  ETV
9049	232306 9665 144 135585 20.100009 133.397568124225 295 -1.625 1 141.52777779102 110.26813271016
vector 9050  Network.dyn_peer[8]  lookupTimeSig:vector  ETV
9050	241971 9247 144 135585 20.100009 133.397568124225 295 0.1 1.8 137.1 84.31
vector 9051  Network.dyn_peer[9]  lookupHopsSig:vector  ETV
9051	251218 8834 149 135383 20.10001 133.200350504079 300 0 17 1237 7961
vector 9052  Network.dyn_peer[9]  lookupStabilitySig:vector  ETV
9052	260052 9870 149 135383 20.10001 133.200350504079 300 -1.125 1 145.52777776867 115.35108023404
vector 9053  Network.dyn_peer[9]  lookupTimeSig:vector  ETV
9053	269922 9395 149 135383 20.10001 133.200350504079 300 0 1.6 138.6 87.8
vector 9057  Network.dyn_peer[11]  lookupHopsSig:vector  ETV
9057	309504 9243 155 135914 20.100012 133.772114413301 315 0 19 1287 8377
vector 9058  Network.dyn_peer[11]  lookupStabilitySig:vector  ETV
9058	318747 10205 155 135914 20.100012 133.772114413301 315 -1.375 1 154.125 124.140625
vector 9059  Network.dyn_peer[11]  lookupTimeSig:vector  ETV
9059	328952 9819 155 135914 20.100012 133.772114413301 315 0 1.9 144.2 92.12
vector 9066  Network.dyn_peer[14]  lookupHopsSig:vector  ETV
9066	396057 8224 162 135884 20.100015 133.744620597672 281 0 21 1141 7217
vector 9067  Network.dyn_peer[14]  lookupStabilitySig:vector  ETV
9067	404281 9120 162 135884 20.100015 133.744620597672 281 -1.625 1 138.41666665673 108.5694444312
vector 9068  Network.dyn_peer[14]  lookupTimeSig:vector  ETV
9068	413401 8747 162 135884 20.100015 133.744620597672 281 0 1.9 127.8 78.38
vector 9087  Network.dyn_peer[21]  lookupHopsSig:vector  ETV
9087	589773 8376 173 135307 20.100022 133.159471318629 284 0 23 1268 8740
vector 9088  Network.dyn_peer[21]  lookupStabilitySig:vector  ETV
9088	598149 9331 173 135307 20.100022 133.159471318629 284 -1.875 1 125.56944441795 103.61940584065
vector 9089  Network.dyn_peer[21]  lookupTimeSig:vector  ETV
9089	607480 8900 173 135307 20.100022 133.159471318629 284 0 1.9 138.2 90.66
vector 9093  Network.dyn_peer[23]  lookupHopsSig:vector  ETV
9093	642129 8530 179 136126 20.100024 134.07852908041 289 0 19 1325 9385
vector 9094  Network.dyn_peer[23]  lookupStabilitySig:vector  ETV
9094	650659 9490 179 136126 20.100024 134.07852908041 289 -1.375 1 123.41666665673 104.4444444312
vector 9095  Network.dyn_peer[23]  lookupTimeSig:vector  ETV
9095	660149 9070 179 136126 20.100024 134.07852908041 289 0 1.6 145.3 98.65
vector 9096  Network.dyn_peer[24]  lookupHopsSig:vector  ETV
9096	669219 8758 184 134868 20.100025 132.702819489715 299 0 14 1260 7906
vector 9097  Network.dyn_peer[24]  lookupStabilitySig:vector  ETV
9097	677977 9755 184 134868 20.100025 132.702819489715 299 -0.75 1 141.6249999851 107.60744597919
vector 9098  Network.dyn_peer[24]  lookupTimeSig:vector  ETV
9098	687732 9307 184 134868 20.100025 132.702819489715 299 0 1.5 142.2 89.6
vector 9099  Network.dyn_peer[25]  lookupHopsSig:vector  ETV
9099	697039 8777 189 135567 20.100026 133.391139632379 299 0 16 1232 7812
vector 9100  Network.dyn_peer[25]  lookupStabilitySig:vector  ETV
9100	705816 9803 189 135567 20.100026 133.391139632379 299 -1 1 145.30555549264 113.08333333996
vector 9101  Network.dyn_peer[25]  lookupTimeSig:vector  ETV
9101	715619 9335 189 135567 20.100026 133.391139632379 299 0 1.5 137.5 85.71
vector 9117  Network.dyn_peer[31]  lookupHopsSig:vector  ETV
9117	866054 9290 199 136059 20.100032 133.973808273668 317 0 19 1261 7701
vector 9118  Network.dyn_peer[31]  lookupStabilitySig:vector  ETV
9118	875344 10350 199 136059 20.100032 133.973808273668 317 -1.375 1 159.52777774632 122.23611108131
vector 9119  Network.dyn_peer[31]  lookupTimeSig:vector  ETV
9119	885694 9897 199 136059 20.100032 133.973808273668 317 0 1.6 141.8 84.16
vector 9030  Network.dyn_peer[2]  lookupHopsSig:vector  ETV
9030	61527 8648 208 135350 20.200003 133.188575183207 294 0 15 1315 8431
vector 9031  Network.dyn_peer[2]  lookupStabilitySig:vector  ETV
9031	70175 9592 208 135350 20.200003 133.188575183207 294 -0.875 1 129.625 96.984375
vector 9032  Network.dyn_peer[2]  lookupTimeSig:vector  ETV
9032	79767 9208 208 135350 20.200003 133.188575183207 294 0 1.5 143.7 90.77
vector 9063  Network.dyn_peer[13]  lookupHopsSig:vector  ETV
9063	365901 9510 223 136099 20.200014 134.028426608867 323 0 20 1310 8202
vector 9064  Network.dyn_peer[13]  lookupStabilitySig:vector  ETV
9064	375411 10529 223 136099 20.200014 134.028426608867 323 -1.5 1 159.34722220898 123.76871140283
vector 9065  Network.dyn_peer[13]  lookupTimeSig:vector  ETV
9065	385940 10117 223 136099 20.200014 134.028426608867 323 0 1.9 147.9 91.25
vector 9069  Network.dyn_peer[15]  lookupHopsSig:vector  ETV
9069	422148 9283 229 136231 20.200016 134.704039806452 316 0 13 1279 7821
vector 9070  Network.dyn_peer[15]  lookupStabilitySig:vector  ETV
9070	431431 10342 229 136231 20.200016 134.704039806452 316 -0.625 1 156.15277777612 118.50212191064
vector 9071  Network.dyn_peer[15]  lookupTimeSig:vector  ETV
9071	441773 9867 229 136231 20.200016 134.704039806452 316 0 1.4 144.5 88.01
vector 9072  Network.dyn_peer[16]  lookupHopsSig:vector  ETV
9072	451640 8743 234 136196 20.200017 134.342352915811 297 0 18 1199 7703
vector 9073  Network.dyn_peer[16]  lookupStabilitySig:vector  ETV
9073	460383 9734 234 136196 20.200017 134.342352915811 297 -1.25 1 147.125 117.609375
vector 9074  Network.dyn_peer[16]  lookupTimeSig:vector  ETV
9074	470117 9294 234 136196 20.200017 134.342352915811 297 0 1.8 134.2 83.32
vector 9090  Network.dyn_peer[22]  lookupHopsSig:vector  ETV
9090	616380 8116 243 135800 20.200023 133.629064656526 276 0 22 1268 8888
vector 9091  Network.dyn_peer[22]  lookupStabilitySig:vector  ETV
9091	624496 8998 243 135800 20.200023 133.629064656526 276 -1.75 1 117.5 97.875
vector 9092  Network.dyn_peer[22]  lookupTimeSig:vector  ETV
9092	633494 8635 243 135800 20.200023 133.629064656526 276 0 2 138.7 94.29
vector 9105  Network.dyn_peer[27]  lookupHopsSig:vector  ETV
9105	752977 9396 251 135997 20.200028 133.895396599178 319 0 18 1306 8460
vector 9106  Network.dyn_peer[27]  lookupStabilitySig:vector  ETV
9106	762373 10454 251 135997 20.200028 133.895396599178 319 -1.25 1 155.98611106724 124.83506940471
vector 9107  Network.dyn_peer[27]  lookupTimeSig:vector  ETV
9107	772827 9976 251 135997 20.200028 133.895396599178 319 0 1.6 144.1 90.33
vector 9108  Network.dyn_peer[28]  lookupHopsSig:vector  ETV
9108	782803 8429 256 135179 20.200029 133.020215569024 287 0 29 1216 8910
vector 9109  Network.dyn_peer[28]  lookupStabilitySig:vector  ETV
9109	791232 9413 256 135179 20.200029 133.020215569024 287 -2.625 1 135.08333332092 122.34606479715
vector 9110  Network.dyn_peer[28]  lookupTimeSig:vector  ETV
9110	800645 8954 256 135179 20.200029 133.020215569024 287 0 2.5 134.5 92.39
vector 9033  Network.dyn_peer[3]  lookupHopsSig:vector  ETV
9033	88975 8716 273 135605 20.300004 133.408938747745 296 0 19 1243 8149
vector 9034  Network.dyn_peer[3]  lookupStabilitySig:vector  ETV
9034	97691 9704 273 135605 20.300004 133.408938747745 296 -1.375 1 140.73611110449 112.72164350969
vector 9035  Network.dyn_peer[3]  lookupTimeSig:vector  ETV
9035	107395 9262 273 135605 20.300004 133.408938747745 296 0 1.8 137.3 88.33
vector 9036  Network.dyn_peer[4]  lookupHopsSig:vector  ETV
9036	116657 8846 278 135529 20.300005 133.365299531033 301 0 22 1242 8182
vector 9037  Network.dyn_peer[4]  lookupStabilitySig:vector  ETV
9037	125503 9845 278 135529 20.300005 133.365299531033 301 -1.75 1 145.77777777612 118.38618826903
vector 9038  Network.dyn_peer[4]  lookupTimeSig:vector  ETV
9038	135348 9397 278 135529 20.300005 133.365299531033 301 0 2.2 137.6 87.56
vector 9045  Network.dyn_peer[7]  lookupHopsSig:vector  ETV
9045	197323 8265 286 135120 20.300008 132.977675122952 281 0 26 1212 8462
vector 9046  Network.dyn_peer[7]  lookupStabilitySig:vector  ETV
9046	205588 9236 286 135120 20.300008 132.977675122952 281 -2.25 1 129.6249999702 110.33429781228
vector 9047  Network.dyn_peer[7]  lookupTimeSig:vector  ETV
9047	214824 8787 286 135120 20.300008 132.977675122952 281 0 2.1 133.4 85.96
vector 9054  Network.dyn_peer[10]  lookupHopsSig:vector  ETV
9054	279317 9494 293 135511 20.300011 133.355241264056 323 0 22 1326 8678
vector 9055  Network.dyn_peer[10]  lookupStabilitySig:vector  ETV
9055	288811 10596 293 135511 20.300011 133.355241264056 323 -1.75 1 157.3749999851 127.16994597919
vector 9056  Network.dyn_peer[10]  lookupTimeSig:vector  ETV
9056	299407 10097 293 135511 20.300011 133.355241264056 323 0 2 148.7 94.03
vector 9078  Network.dyn_peer[18]  lookupHopsSig:vector  ETV
9078	507188 8091 305 135640 20.300019 133.464612227506 274 0 25 1221 9207
vector 9079  Network.dyn_peer[18]  lookupStabilitySig:vector  ETV
9079	515279 8995 305 135640 20.300019 133.464612227506 274 -2.125 1 121.38888888806 112.63387345532
vector 9080  Network.dyn_peer[18]  lookupTimeSig:vector  ETV
9080	524274 8590 305 135640 20.300019 133.464612227506 274 0 2.1 132.9 91.79
vector 9081  Network.dyn_peer[19]  lookupHopsSig:vector  ETV
9081	532864 9006 310 135096 20.30002 132.966944057211 305 0 25 1270 8364
vector 9082  Network.dyn_peer[19]  lookupStabilitySig:vector  ETV
9082	541870 9986 310 135096 20.30002 132.966944057211 305 -2.125 1 146.375 118.171875
vector 9083  Network.dyn_peer[19]  lookupTimeSig:vector  ETV
9083	551856 9569 310 135096 20.30002 132.966944057211 305 0 2.3 142.7 92.07
vector 9114  Network.dyn_peer[30]  lookupHopsSig:vector  ETV
9114	837471 8977 323 135252 20.300031 133.091402151743 306 0 16 1207 7227
vector 9115  Network.dyn_peer[30]  lookupStabilitySig:vector  ETV
9115	846448 10044 323 135252 20.300031 133.091402151743 306 -1 1 155.41666664183 117.42399688746
vector 9116  Network.dyn_peer[30]  lookupTimeSig:vector  ETV
9116	856492 9562 323 135252 20.300031 133.091402151743 306 0 1.6 135.4 79.46
vector 9024  Network.dyn_peer[0]  lookupHopsSig:vector  ETV
9024	6399 8854 340 135692 20.400001 133.519441739665 301 0 17 1261 8351
vector 9025  Network.dyn_peer[0]  lookupStabilitySig:vector  ETV
9025	15253 9829 340 135692 20.400001 133.519441739665 301 -1.125 1 143.4999999702 116.33680552906
vector 9026  Network.dyn_peer[0]  lookupTimeSig:vector  ETV
9026	25082 9409 340 135692 20.400001 133.519441739665 301 0 1.6 139.2 89.02
vector 9039  Network.dyn_peer[5]  lookupHopsSig:vector  ETV
9039	144745 8288 348 136022 20.400006 133.909865547792 282 0 22 1263 8957
vector 9040  Network.dyn_peer[5]  lookupStabilitySig:vector  ETV
9040	153033 9214 348 136022 20.400006 133.909865547792 282 -1.75 1 124.16666665673 106.2569444312
vector 9041  Network.dyn_peer[5]  lookupTimeSig:vector  ETV
9041	162247 8804 348 136022 20.400006 133.909865547792 282 0 2.2 140.3 96.81
vector 9084  Network.dyn_peer[20]  lookupHopsSig:vector  ETV
9084	561425 8912 365 134815 20.400021 132.679452604763 304 0 16 1259 8151
vector 9085  Network.dyn_peer[20]  lookupStabilitySig:vector  ETV
9085	570337 9962 365 134815 20.400021 132.679452604763 304 -1 1 146.77777773887 116.7870369962
vector 9086  Network.dyn_peer[20]  lookupTimeSig:vector  ETV
9086	580299 9474 365 134815 20.400021 132.679452604763 304 0 1.5 139 85.5
vector 9102  Network.dyn_peer[26]  lookupHopsSig:vector  ETV
9102	724954 8823 374 136149 20.400027 134.097375309359 301 0 16 1240 7590
vector 9103  Network.dyn_peer[26]  lookupStabilitySig:vector  ETV
9103	733777 9811 374 136149 20.400027 134.097375309359 301 -1 1 146.02777777612 109.63618826903
vector 9104  Network.dyn_peer[26]  lookupTimeSig:vector  ETV
9104	743588 9389 374 136149 20.400027 134.097375309359 301 0 1.5 138 82.76
vector 9075  Network.dyn_peer[17]  lookupHopsSig:vector  ETV
9075	479411 8747 412 134964 20.500018 132.82393838014 298 0 24 1253 8717
vector 9076  Network.dyn_peer[17]  lookupStabilitySig:vector  ETV
9076	488158 9737 412 134964 20.500018 132.82393838014 298 -2 1 141.52777776122 121.01929010874
vector 9077  Network.dyn_peer[17]  lookupTimeSig:vector  ETV
9077	497895 9293 412 134964 20.500018 132.82393838014 298 0 2.4 140.2 94.34
vector 9111  Network.dyn_peer[29]  lookupHopsSig:vector  ETV
9111	809599 8766 427 135176 20.50003 133.019498613451 298 0 16 1211 7601
vector 9112  Network.dyn_peer[29]  lookupStabilitySig:vector  ETV
9112	818365 9774 427 135176 20.50003 133.019498613451 298 -1 1 146.73611110449 114.02797067754
vector 9113  Network.dyn_peer[29]  lookupTimeSig:vector  ETV
9113	828139 9332 427 135176 20.50003 133.019498613451 298 0 1.6 136.1 83.83
