version 2
run Stability-norelink-3-20130525-23:14:51-22103
attr configname Stability-norelink
attr datetime 20130525-23:14:51
attr experiment Stability
attr inifile omnetpp.ini
attr iterationvars $0=1e6
attr iterationvars2 "$0=1e6, $repetition=3"
attr measurement $0=1e6
attr network Network
attr processid 22103
attr repetition 3
attr replication #3
attr resultdir results
attr runnumber 3
attr seedset 3

vector 288  Network.dyn_peer[0]  lookupHopsSig:vector  ETV
vector 289  Network.dyn_peer[0]  lookupStabilitySig:vector  ETV
vector 290  Network.dyn_peer[0]  lookupTimeSig:vector  ETV
vector 291  Network.dyn_peer[1]  lookupHopsSig:vector  ETV
vector 292  Network.dyn_peer[1]  lookupStabilitySig:vector  ETV
vector 293  Network.dyn_peer[1]  lookupTimeSig:vector  ETV
vector 294  Network.dyn_peer[2]  lookupHopsSig:vector  ETV
vector 295  Network.dyn_peer[2]  lookupStabilitySig:vector  ETV
vector 296  Network.dyn_peer[2]  lookupTimeSig:vector  ETV
vector 297  Network.dyn_peer[3]  lookupHopsSig:vector  ETV
vector 298  Network.dyn_peer[3]  lookupStabilitySig:vector  ETV
vector 299  Network.dyn_peer[3]  lookupTimeSig:vector  ETV
vector 300  Network.dyn_peer[4]  lookupHopsSig:vector  ETV
vector 301  Network.dyn_peer[4]  lookupStabilitySig:vector  ETV
vector 302  Network.dyn_peer[4]  lookupTimeSig:vector  ETV
vector 303  Network.dyn_peer[5]  lookupHopsSig:vector  ETV
vector 304  Network.dyn_peer[5]  lookupStabilitySig:vector  ETV
vector 305  Network.dyn_peer[5]  lookupTimeSig:vector  ETV
vector 306  Network.dyn_peer[6]  lookupHopsSig:vector  ETV
vector 307  Network.dyn_peer[6]  lookupStabilitySig:vector  ETV
vector 308  Network.dyn_peer[6]  lookupTimeSig:vector  ETV
vector 309  Network.dyn_peer[7]  lookupHopsSig:vector  ETV
vector 310  Network.dyn_peer[7]  lookupStabilitySig:vector  ETV
vector 311  Network.dyn_peer[7]  lookupTimeSig:vector  ETV
vector 312  Network.dyn_peer[8]  lookupHopsSig:vector  ETV
vector 313  Network.dyn_peer[8]  lookupStabilitySig:vector  ETV
vector 314  Network.dyn_peer[8]  lookupTimeSig:vector  ETV
vector 315  Network.dyn_peer[9]  lookupHopsSig:vector  ETV
vector 316  Network.dyn_peer[9]  lookupStabilitySig:vector  ETV
vector 317  Network.dyn_peer[9]  lookupTimeSig:vector  ETV
vector 318  Network.dyn_peer[10]  lookupHopsSig:vector  ETV
vector 319  Network.dyn_peer[10]  lookupStabilitySig:vector  ETV
vector 320  Network.dyn_peer[10]  lookupTimeSig:vector  ETV
vector 321  Network.dyn_peer[11]  lookupHopsSig:vector  ETV
vector 322  Network.dyn_peer[11]  lookupStabilitySig:vector  ETV
vector 323  Network.dyn_peer[11]  lookupTimeSig:vector  ETV
vector 324  Network.dyn_peer[12]  lookupHopsSig:vector  ETV
vector 325  Network.dyn_peer[12]  lookupStabilitySig:vector  ETV
vector 326  Network.dyn_peer[12]  lookupTimeSig:vector  ETV
vector 327  Network.dyn_peer[13]  lookupHopsSig:vector  ETV
vector 328  Network.dyn_peer[13]  lookupStabilitySig:vector  ETV
vector 329  Network.dyn_peer[13]  lookupTimeSig:vector  ETV
vector 330  Network.dyn_peer[14]  lookupHopsSig:vector  ETV
vector 331  Network.dyn_peer[14]  lookupStabilitySig:vector  ETV
vector 332  Network.dyn_peer[14]  lookupTimeSig:vector  ETV
vector 333  Network.dyn_peer[15]  lookupHopsSig:vector  ETV
vector 334  Network.dyn_peer[15]  lookupStabilitySig:vector  ETV
vector 335  Network.dyn_peer[15]  lookupTimeSig:vector  ETV
vector 336  Network.dyn_peer[16]  lookupHopsSig:vector  ETV
vector 337  Network.dyn_peer[16]  lookupStabilitySig:vector  ETV
vector 338  Network.dyn_peer[16]  lookupTimeSig:vector  ETV
vector 339  Network.dyn_peer[17]  lookupHopsSig:vector  ETV
vector 340  Network.dyn_peer[17]  lookupStabilitySig:vector  ETV
vector 341  Network.dyn_peer[17]  lookupTimeSig:vector  ETV
vector 342  Network.dyn_peer[18]  lookupHopsSig:vector  ETV
vector 343  Network.dyn_peer[18]  lookupStabilitySig:vector  ETV
vector 344  Network.dyn_peer[18]  lookupTimeSig:vector  ETV
vector 345  Network.dyn_peer[19]  lookupHopsSig:vector  ETV
vector 346  Network.dyn_peer[19]  lookupStabilitySig:vector  ETV
vector 347  Network.dyn_peer[19]  lookupTimeSig:vector  ETV
vector 348  Network.dyn_peer[20]  lookupHopsSig:vector  ETV
vector 349  Network.dyn_peer[20]  lookupStabilitySig:vector  ETV
vector 350  Network.dyn_peer[20]  lookupTimeSig:vector  ETV
vector 351  Network.dyn_peer[21]  lookupHopsSig:vector  ETV
vector 352  Network.dyn_peer[21]  lookupStabilitySig:vector  ETV
vector 353  Network.dyn_peer[21]  lookupTimeSig:vector  ETV
vector 354  Network.dyn_peer[22]  lookupHopsSig:vector  ETV
vector 355  Network.dyn_peer[22]  lookupStabilitySig:vector  ETV
vector 356  Network.dyn_peer[22]  lookupTimeSig:vector  ETV
vector 357  Network.dyn_peer[23]  lookupHopsSig:vector  ETV
vector 358  Network.dyn_peer[23]  lookupStabilitySig:vector  ETV
vector 359  Network.dyn_peer[23]  lookupTimeSig:vector  ETV
vector 360  Network.dyn_peer[24]  lookupHopsSig:vector  ETV
vector 361  Network.dyn_peer[24]  lookupStabilitySig:vector  ETV
vector 362  Network.dyn_peer[24]  lookupTimeSig:vector  ETV
vector 363  Network.dyn_peer[25]  lookupHopsSig:vector  ETV
vector 364  Network.dyn_peer[25]  lookupStabilitySig:vector  ETV
vector 365  Network.dyn_peer[25]  lookupTimeSig:vector  ETV
vector 366  Network.dyn_peer[26]  lookupHopsSig:vector  ETV
vector 367  Network.dyn_peer[26]  lookupStabilitySig:vector  ETV
vector 368  Network.dyn_peer[26]  lookupTimeSig:vector  ETV
vector 369  Network.dyn_peer[27]  lookupHopsSig:vector  ETV
vector 370  Network.dyn_peer[27]  lookupStabilitySig:vector  ETV
vector 371  Network.dyn_peer[27]  lookupTimeSig:vector  ETV
vector 372  Network.dyn_peer[28]  lookupHopsSig:vector  ETV
vector 373  Network.dyn_peer[28]  lookupStabilitySig:vector  ETV
vector 374  Network.dyn_peer[28]  lookupTimeSig:vector  ETV
vector 375  Network.dyn_peer[29]  lookupHopsSig:vector  ETV
vector 376  Network.dyn_peer[29]  lookupStabilitySig:vector  ETV
vector 377  Network.dyn_peer[29]  lookupTimeSig:vector  ETV
vector 378  Network.dyn_peer[30]  lookupHopsSig:vector  ETV
vector 379  Network.dyn_peer[30]  lookupStabilitySig:vector  ETV
vector 380  Network.dyn_peer[30]  lookupTimeSig:vector  ETV
vector 381  Network.dyn_peer[31]  lookupHopsSig:vector  ETV
vector 382  Network.dyn_peer[31]  lookupStabilitySig:vector  ETV
vector 383  Network.dyn_peer[31]  lookupTimeSig:vector  ETV
288	30	1020.2	2
288	35	1020.502575852917	2
288	42	1020.817605795392	2
288	53	1021.064552364349	1
288	1152	33020.2	2
288	1155	33020.4	1
288	1161	33020.711828848162	2
288	1166	33020.915193802885	1
288	2181	65020.2	2
288	2185	65020.5	2
288	2190	65020.809749435933	2
288	2195	65021.118375486779	2
288	3234	97020	0
288	3238	97020.204559523295	1
288	3242	97020.414134234948	1
288	3251	97020.654127054686	1
288	4298	129020.1	1
288	4301	129020.3	1
288	4305	129020.508434168451	1
288	4313	129020.734586227435	1
288	5311	161020	0
288	5314	161020.2	1
288	5318	161020.401460212448	1
288	5324	161020.707229712241	2
288	6335	193020.1	1
288	6338	193020.3	1
288	6343	193020.605163991448	2
288	6349	193020.912760894508	2
288	7359	225020.2	2
288	7363	225020.5	2
288	7368	225020.801909863916	2
288	7373	225021.109576029039	2
288	8422	257020	0
288	8425	257020.2	1
288	8429	257020.401079126785	1
288	8433	257020.605938419389	1
288	9456	289020.1	1
288	9460	289020.4	2
288	9465	289020.703505421152	2
288	9471	289021.017312964849	2
288	10501	321020.1	1
288	10506	321020.30394010865	1
288	10512	321020.616261760958	2
288	10517	321020.835719743931	1
288	11555	353020.1	1
288	11558	353020.3	1
288	11563	353020.606568200178	2
288	11569	353020.915046141917	2
288	12616	385020.2	2
288	12619	385020.4	1
288	12623	385020.60450338975	1
288	12631	385020.925100550534	2
288	13648	417020	0
288	13651	417020.2	1
288	13656	417020.500673642698	2
288	13663	417020.819279286396	2
288	14707	449020	0
288	14710	449020.2	1
288	14715	449020.505452819466	2
288	14721	449020.724072631703	1
288	15755	481020.3	3
288	15758	481020.5	1
288	15763	481020.800744381693	2
288	15767	481021.004736986608	1
288	16784	513020	0
288	16788	513020.3	2
288	16794	513020.512077882132	1
288	16798	513020.721405475766	1
288	17810	545020.3	3
288	17814	545020.6	2
288	17818	545020.806328473361	1
288	17824	545021.120609007595	2
288	18839	577020.1	1
288	18843	577020.4	2
288	18847	577020.604826115239	1
288	18856	577020.850957255161	1
288	19905	609020.2	2
288	19913	609020.517488858251	2
288	19919	609020.730332971966	1
288	19926	609020.946664970027	1
288	20944	641020.2	2
288	20948	641020.5	2
288	20952	641020.706267345759	1
288	20960	641021.032121159837	2
288	21979	673020.1	1
288	21983	673020.306700105143	1
288	21987	673020.508378497981	1
288	21991	673020.71433507298	1
288	23027	705020.2	2
288	23031	705020.5	2
288	23036	705020.809078564769	2
288	23043	705021.028789805535	1
288	24037	737020.1	1
288	24040	737020.3	1
288	24044	737020.504040223455	1
288	24063	737020.895447202233	2
288	25096	769020.2	2
288	25100	769020.5	2
288	25105	769020.804854391915	2
288	25109	769021.014852590681	1
288	26114	801020.1	1
288	26117	801020.3	1
288	26122	801020.511644264738	1
288	26129	801020.727927120442	1
288	27149	833020.1	1
288	27154	833020.5	3
288	27160	833020.811909956267	2
288	27165	833021.024706672905	1
288	28210	865020.1	1
288	28214	865020.4	2
288	28218	865020.607941531983	1
288	28223	865020.815349379239	1
288	29248	897020	0
288	29251	897020.2	1
288	29255	897020.403006083376	1
288	29261	897020.71492766118	2
288	30302	929020.2	2
288	30305	929020.4	1
288	30311	929020.613199647689	1
288	30325	929020.860987558936	1
288	31365	961020.1	1
288	31369	961020.4	2
288	31374	961020.608900172519	1
288	31378	961020.816179385371	1
288	32396	993020.1	1
288	32400	993020.4	2
288	32407	993020.72139419195	2
288	32412	993021.029323873466	2
288	33429	1025020.3	3
288	33433	1025020.6	2
288	33437	1025020.803468211079	1
288	33441	1025021.006385263097	1
288	34447	1057020.2	2
288	34450	1057020.4	1
288	34454	1057020.605766647143	1
288	34463	1057020.832579973399	1
288	35500	1089020.2	2
288	35503	1089020.4	1
288	35511	1089020.71040926281	2
288	35517	1089021.017359011327	2
288	36543	1121020.2	2
288	36546	1121020.4	1
288	36550	1121020.609663673932	1
288	36554	1121020.812437118063	1
288	37542	1153020	0
288	37546	1153020.3	2
288	37551	1153020.60254832922	2
288	37560	1153020.919774387862	2
288	38540	1185020.2	2
288	38544	1185020.406863234504	1
288	38549	1185020.621135216657	1
288	38554	1185020.930802274575	2
288	39582	1217020.2	2
288	39588	1217020.517212127823	2
288	39593	1217020.735038570878	1
288	39597	1217020.937841574717	1
288	40643	1249020.1	1
288	40646	1249020.3	1
288	40653	1249020.507199808604	1
288	40659	1249020.728072897008	1
288	41659	1281020.2	2
288	41663	1281020.5	2
288	41667	1281020.705143133834	1
288	41671	1281020.914421275112	1
288	42726	1313020.1	1
288	42730	1313020.307402474984	1
288	42734	1313020.510784032003	1
288	42738	1313020.713709181761	1
288	43786	1345020.1	1
288	43790	1345020.306411310939	1
288	43795	1345020.509538633251	1
288	43800	1345020.72649180276	1
288	44839	1377020	0
288	44844	1377020.300484337944	2
288	44849	1377020.511502457931	1
288	44856	1377020.823995611559	2
288	45853	1409020.1	1
288	45859	1409020.314223629386	1
288	45867	1409020.633332246017	2
288	45871	1409020.836401225306	1
288	46875	1441020.1	1
288	46879	1441020.304271362717	1
288	46885	1441020.613804062331	2
288	46890	1441020.830625949858	1
288	47930	1473020.2	2
288	47933	1473020.4	1
288	47937	1473020.602749722956	1
288	47943	1473020.823201068147	1
288	49007	1505020.1	1
288	49010	1505020.3	1
288	49015	1505020.607982668676	2
288	49022	1505020.82099903909	1
288	50054	1537020.1	1
288	50059	1537020.5	3
288	50068	1537020.738928145749	1
288	50074	1537020.957438433724	1
288	51055	1569020.1	1
288	51059	1569020.4	2
288	51067	1569020.620695186431	1
288	51071	1569020.830058476379	1
288	52089	1601020.2	2
288	52093	1601020.5	2
288	52098	1601020.711159641663	1
288	52106	1601020.922479348273	1
288	53137	1633020.1	1
288	53142	1633020.5	3
288	53147	1633020.711251506907	1
288	53151	1633020.919685958881	1
288	54172	1665020.2	2
288	54175	1665020.4	1
288	54179	1665020.602928506627	1
288	54192	1665020.846182259146	1
288	55223	1697020.1	1
288	55228	1697020.40592040691	2
288	55233	1697020.706256523844	2
288	55238	1697020.908428455317	1
288	56264	1729020.1	1
288	56267	1729020.3	1
288	56273	1729020.522933150254	1
288	56279	1729020.83322747	2
288	57277	1761020	0
288	57282	1761020.303772742894	2
288	57287	1761020.50782885181	1
288	57291	1761020.709504722205	1
288	58317	1793020	0
288	58320	1793020.2	1
288	58324	1793020.407057611206	1
288	58329	1793020.613301526281	1
288	59339	1825020.1	1
288	59343	1825020.304713185175	1
288	59356	1825020.645130489708	2
288	59360	1825020.853084579438	1
288	60390	1857020.2	2
288	60394	1857020.5	2
288	60398	1857020.7055592563	1
288	60404	1857020.911709242478	1
288	61419	1889020.2	2
288	61423	1889020.5	2
288	61427	1889020.706207193685	1
288	61438	1889020.949892529959	1
288	62467	1921020.1	1
288	62471	1921020.4	2
288	62475	1921020.603256238875	1
288	62479	1921020.810580774188	1
288	63512	1953020.2	2
288	63515	1953020.4	1
288	63519	1953020.603662479231	1
288	63524	1953020.909128126641	2
288	64554	1985020.2	2
288	64558	1985020.5	2
288	64562	1985020.709559533961	1
288	64568	1985020.925523204166	1
288	65553	2017020	0
288	65557	2017020.20686639727	1
288	65561	2017020.408134558693	1
288	65576	2017020.682318464433	1
289	30	1020.2	0.75
289	35	1020.502575852917	0.75
289	42	1020.817605795392	0.75
289	53	1021.064552364349	0.875
289	1152	33020.2	0.75
289	1155	33020.4	0.875
289	1161	33020.711828848162	0.75
289	1166	33020.915193802885	0.875
289	2181	65020.2	0.75
289	2185	65020.5	0.75
289	2190	65020.809749435933	0.75
289	2195	65021.118375486779	0.75
289	3234	97020	1
289	3238	97020.204559523295	0.875
289	3242	97020.414134234948	0.875
289	3251	97020.654127054686	0.875
289	4298	129020.1	0.875
289	4301	129020.3	0.875
289	4305	129020.508434168451	0.875
289	4313	129020.734586227435	0.875
289	5311	161020	1
289	5314	161020.2	0.875
289	5318	161020.401460212448	0.875
289	5324	161020.707229712241	0.75
289	6335	193020.1	0.875
289	6338	193020.3	0.875
289	6343	193020.605163991448	0.75
289	6349	193020.912760894508	0.75
289	7359	225020.2	0.75
289	7363	225020.5	0.75
289	7368	225020.801909863916	0.75
289	7373	225021.109576029039	0.75
289	8422	257020	1
289	8425	257020.2	0.875
289	8429	257020.401079126785	0.875
289	8433	257020.605938419389	0.875
289	9456	289020.1	0.875
289	9460	289020.4	0.75
289	9465	289020.703505421152	0.75
289	9471	289021.017312964849	0.75
289	10501	321020.1	0.875
289	10506	321020.30394010865	0.875
289	10512	321020.616261760958	0.75
289	10517	321020.835719743931	0.875
289	11555	353020.1	0.875
289	11558	353020.3	0.875
289	11563	353020.606568200178	0.75
289	11569	353020.915046141917	0.75
289	12616	385020.2	0.75
289	12619	385020.4	0.875
289	12623	385020.60450338975	0.875
289	12631	385020.925100550534	0.75
289	13648	417020	1
289	13651	417020.2	0.875
289	13656	417020.500673642698	0.75
289	13663	417020.819279286396	0.75
289	14707	449020	1
289	14710	449020.2	0.875
289	14715	449020.505452819466	0.75
289	14721	449020.724072631703	0.875
289	15755	481020.3	0.625
289	15758	481020.5	0.875
289	15763	481020.800744381693	0.75
289	15767	481021.004736986608	0.875
289	16784	513020	1
289	16788	513020.3	0.75
289	16794	513020.512077882132	0.875
289	16798	513020.721405475766	0.875
289	17810	545020.3	0.625
289	17814	545020.6	0.75
289	17818	545020.806328473361	0.875
289	17824	545021.120609007595	0.75
289	18839	577020.1	0.875
289	18843	577020.4	0.75
289	18847	577020.604826115239	0.875
289	18856	577020.850957255161	0.875
289	19905	609020.2	0.75
289	19913	609020.517488858251	0.75
289	19919	609020.730332971966	0.875
289	19926	609020.946664970027	0.875
289	20944	641020.2	0.75
289	20948	641020.5	0.75
289	20952	641020.706267345759	0.875
289	20960	641021.032121159837	0.75
289	21979	673020.1	0.875
289	21983	673020.306700105143	0.875
289	21987	673020.508378497981	0.875
289	21991	673020.71433507298	0.875
289	23027	705020.2	0.75
289	23031	705020.5	0.75
289	23036	705020.809078564769	0.75
289	23043	705021.028789805535	0.875
289	24037	737020.1	0.875
289	24040	737020.3	0.875
289	24044	737020.504040223455	0.875
289	24063	737020.895447202233	0.75
289	25096	769020.2	0.75
289	25100	769020.5	0.75
289	25105	769020.804854391915	0.75
289	25109	769021.014852590681	0.875
289	26114	801020.1	0.875
289	26117	801020.3	0.875
289	26122	801020.511644264738	0.875
289	26129	801020.727927120442	0.875
289	27149	833020.1	0.875
289	27154	833020.5	0.625
289	27160	833020.811909956267	0.75
289	27165	833021.024706672905	0.875
289	28210	865020.1	0.875
289	28214	865020.4	0.75
289	28218	865020.607941531983	0.875
289	28223	865020.815349379239	0.875
289	29248	897020	1
289	29251	897020.2	0.875
289	29255	897020.403006083376	0.875
289	29261	897020.71492766118	0.75
289	30302	929020.2	0.75
289	30305	929020.4	0.875
289	30311	929020.613199647689	0.875
289	30325	929020.860987558936	0.875
289	31365	961020.1	0.875
289	31369	961020.4	0.75
289	31374	961020.608900172519	0.875
289	31378	961020.816179385371	0.875
289	32396	993020.1	0.875
289	32400	993020.4	0.75
289	32407	993020.72139419195	0.75
289	32412	993021.029323873466	0.75
289	33429	1025020.3	0.625
289	33433	1025020.6	0.75
289	33437	1025020.803468211079	0.875
289	33441	1025021.006385263097	0.875
289	34447	1057020.2	0.75
289	34450	1057020.4	0.875
289	34454	1057020.605766647143	0.875
289	34463	1057020.832579973399	0.875
289	35500	1089020.2	0.75
289	35503	1089020.4	0.875
289	35511	1089020.71040926281	0.75
289	35517	1089021.017359011327	0.75
289	36543	1121020.2	0.75
289	36546	1121020.4	0.875
289	36550	1121020.609663673932	0.875
289	36554	1121020.812437118063	0.875
289	37542	1153020	1
289	37546	1153020.3	0.75
289	37551	1153020.60254832922	0.75
289	37560	1153020.919774387862	0.75
289	38540	1185020.2	0.75
289	38544	1185020.406863234504	0.875
289	38549	1185020.621135216657	0.875
289	38554	1185020.930802274575	0.75
289	39582	1217020.2	0.75
289	39588	1217020.517212127823	0.75
289	39593	1217020.735038570878	0.875
289	39597	1217020.937841574717	0.875
289	40643	1249020.1	0.875
289	40646	1249020.3	0.875
289	40653	1249020.507199808604	0.875
289	40659	1249020.728072897008	0.875
289	41659	1281020.2	0.75
289	41663	1281020.5	0.75
289	41667	1281020.705143133834	0.875
289	41671	1281020.914421275112	0.875
289	42726	1313020.1	0.875
289	42730	1313020.307402474984	0.875
289	42734	1313020.510784032003	0.875
289	42738	1313020.713709181761	0.875
289	43786	1345020.1	0.875
289	43790	1345020.306411310939	0.875
289	43795	1345020.509538633251	0.875
289	43800	1345020.72649180276	0.875
289	44839	1377020	1
289	44844	1377020.300484337944	0.75
289	44849	1377020.511502457931	0.875
289	44856	1377020.823995611559	0.75
289	45853	1409020.1	0.875
289	45859	1409020.314223629386	0.875
289	45867	1409020.633332246017	0.75
289	45871	1409020.836401225306	0.875
289	46875	1441020.1	0.875
289	46879	1441020.304271362717	0.875
289	46885	1441020.613804062331	0.75
289	46890	1441020.830625949858	0.875
289	47930	1473020.2	0.75
289	47933	1473020.4	0.875
289	47937	1473020.602749722956	0.875
289	47943	1473020.823201068147	0.875
289	49007	1505020.1	0.875
289	49010	1505020.3	0.875
289	49015	1505020.607982668676	0.75
289	49022	1505020.82099903909	0.875
289	50054	1537020.1	0.875
289	50059	1537020.5	0.625
289	50068	1537020.738928145749	0.875
289	50074	1537020.957438433724	0.875
289	51055	1569020.1	0.875
289	51059	1569020.4	0.75
289	51067	1569020.620695186431	0.875
289	51071	1569020.830058476379	0.875
289	52089	1601020.2	0.75
289	52093	1601020.5	0.75
289	52098	1601020.711159641663	0.875
289	52106	1601020.922479348273	0.875
289	53137	1633020.1	0.875
289	53142	1633020.5	0.625
289	53147	1633020.711251506907	0.875
289	53151	1633020.919685958881	0.875
289	54172	1665020.2	0.75
289	54175	1665020.4	0.875
289	54179	1665020.602928506627	0.875
289	54192	1665020.846182259146	0.875
289	55223	1697020.1	0.875
289	55228	1697020.40592040691	0.75
289	55233	1697020.706256523844	0.75
289	55238	1697020.908428455317	0.875
289	56264	1729020.1	0.875
289	56267	1729020.3	0.875
289	56273	1729020.522933150254	0.875
289	56279	1729020.83322747	0.75
289	57277	1761020	1
289	57282	1761020.303772742894	0.75
289	57287	1761020.50782885181	0.875
289	57291	1761020.709504722205	0.875
289	58317	1793020	1
289	58320	1793020.2	0.875
289	58324	1793020.407057611206	0.875
289	58329	1793020.613301526281	0.875
289	59339	1825020.1	0.875
289	59343	1825020.304713185175	0.875
289	59356	1825020.645130489708	0.75
289	59360	1825020.853084579438	0.875
289	60390	1857020.2	0.75
289	60394	1857020.5	0.75
289	60398	1857020.7055592563	0.875
289	60404	1857020.911709242478	0.875
289	61419	1889020.2	0.75
289	61423	1889020.5	0.75
289	61427	1889020.706207193685	0.875
289	61438	1889020.949892529959	0.875
289	62467	1921020.1	0.875
289	62471	1921020.4	0.75
289	62475	1921020.603256238875	0.875
289	62479	1921020.810580774188	0.875
289	63512	1953020.2	0.75
289	63515	1953020.4	0.875
289	63519	1953020.603662479231	0.875
289	63524	1953020.909128126641	0.75
289	64554	1985020.2	0.75
289	64558	1985020.5	0.75
289	64562	1985020.709559533961	0.875
289	64568	1985020.925523204166	0.875
289	65553	2017020	1
289	65557	2017020.20686639727	0.875
289	65561	2017020.408134558693	0.875
289	65576	2017020.682318464433	0.875
290	30	1020.2	0.2
290	35	1020.502575852917	0.3
290	42	1020.817605795392	0.3
290	53	1021.064552364349	0.2
290	1152	33020.2	0.2
290	1155	33020.4	0.2
290	1161	33020.711828848162	0.3
290	1166	33020.915193802885	0.2
290	2181	65020.2	0.2
290	2185	65020.5	0.3
290	2190	65020.809749435933	0.3
290	2195	65021.118375486779	0.3
290	3234	97020	0
290	3238	97020.204559523295	0.2
290	3242	97020.414134234948	0.2
290	3251	97020.654127054686	0.2
290	4298	129020.1	0.1
290	4301	129020.3	0.2
290	4305	129020.508434168451	0.2
290	4313	129020.734586227435	0.2
290	5311	161020	0
290	5314	161020.2	0.2
290	5318	161020.401460212448	0.2
290	5324	161020.707229712241	0.3
290	6335	193020.1	0.1
290	6338	193020.3	0.2
290	6343	193020.605163991448	0.3
290	6349	193020.912760894508	0.3
290	7359	225020.2	0.2
290	7363	225020.5	0.3
290	7368	225020.801909863916	0.3
290	7373	225021.109576029039	0.3
290	8422	257020	0
290	8425	257020.2	0.2
290	8429	257020.401079126785	0.2
290	8433	257020.605938419389	0.2
290	9456	289020.1	0.1
290	9460	289020.4	0.3
290	9465	289020.703505421152	0.3
290	9471	289021.017312964849	0.3
290	10501	321020.1	0.1
290	10506	321020.30394010865	0.2
290	10512	321020.616261760958	0.3
290	10517	321020.835719743931	0.2
290	11555	353020.1	0.1
290	11558	353020.3	0.2
290	11563	353020.606568200178	0.3
290	11569	353020.915046141917	0.3
290	12616	385020.2	0.2
290	12619	385020.4	0.2
290	12623	385020.60450338975	0.2
290	12631	385020.925100550534	0.3
290	13648	417020	0
290	13651	417020.2	0.2
290	13656	417020.500673642698	0.3
290	13663	417020.819279286396	0.3
290	14707	449020	0
290	14710	449020.2	0.2
290	14715	449020.505452819466	0.3
290	14721	449020.724072631703	0.2
290	15755	481020.3	0.3
290	15758	481020.5	0.2
290	15763	481020.800744381693	0.3
290	15767	481021.004736986608	0.2
290	16784	513020	0
290	16788	513020.3	0.3
290	16794	513020.512077882132	0.2
290	16798	513020.721405475766	0.2
290	17810	545020.3	0.3
290	17814	545020.6	0.3
290	17818	545020.806328473361	0.2
290	17824	545021.120609007595	0.3
290	18839	577020.1	0.1
290	18843	577020.4	0.3
290	18847	577020.604826115239	0.2
290	18856	577020.850957255161	0.2
290	19905	609020.2	0.2
290	19913	609020.517488858251	0.3
290	19919	609020.730332971966	0.2
290	19926	609020.946664970027	0.2
290	20944	641020.2	0.2
290	20948	641020.5	0.3
290	20952	641020.706267345759	0.2
290	20960	641021.032121159837	0.3
290	21979	673020.1	0.1
290	21983	673020.306700105143	0.2
290	21987	673020.508378497981	0.2
290	21991	673020.71433507298	0.2
290	23027	705020.2	0.2
290	23031	705020.5	0.3
290	23036	705020.809078564769	0.3
290	23043	705021.028789805535	0.2
290	24037	737020.1	0.1
290	24040	737020.3	0.2
290	24044	737020.504040223455	0.2
290	24063	737020.895447202233	0.3
290	25096	769020.2	0.2
290	25100	769020.5	0.3
290	25105	769020.804854391915	0.3
290	25109	769021.014852590681	0.2
290	26114	801020.1	0.1
290	26117	801020.3	0.2
290	26122	801020.511644264738	0.2
290	26129	801020.727927120442	0.2
290	27149	833020.1	0.1
290	27154	833020.5	0.4
290	27160	833020.811909956267	0.3
290	27165	833021.024706672905	0.2
290	28210	865020.1	0.1
290	28214	865020.4	0.3
290	28218	865020.607941531983	0.2
290	28223	865020.815349379239	0.2
290	29248	897020	0
290	29251	897020.2	0.2
290	29255	897020.403006083376	0.2
290	29261	897020.71492766118	0.3
290	30302	929020.2	0.2
290	30305	929020.4	0.2
290	30311	929020.613199647689	0.2
290	30325	929020.860987558936	0.2
290	31365	961020.1	0.1
290	31369	961020.4	0.3
290	31374	961020.608900172519	0.2
290	31378	961020.816179385371	0.2
290	32396	993020.1	0.1
290	32400	993020.4	0.3
290	32407	993020.72139419195	0.3
290	32412	993021.029323873466	0.3
290	33429	1025020.3	0.3
290	33433	1025020.6	0.3
290	33437	1025020.803468211079	0.2
290	33441	1025021.006385263097	0.2
290	34447	1057020.2	0.2
290	34450	1057020.4	0.2
290	34454	1057020.605766647143	0.2
290	34463	1057020.832579973399	0.2
290	35500	1089020.2	0.2
290	35503	1089020.4	0.2
290	35511	1089020.71040926281	0.3
290	35517	1089021.017359011327	0.3
290	36543	1121020.2	0.2
290	36546	1121020.4	0.2
290	36550	1121020.609663673932	0.2
290	36554	1121020.812437118063	0.2
290	37542	1153020	0
290	37546	1153020.3	0.3
290	37551	1153020.60254832922	0.3
290	37560	1153020.919774387862	0.3
290	38540	1185020.2	0.2
290	38544	1185020.406863234504	0.2
290	38549	1185020.621135216657	0.2
290	38554	1185020.930802274575	0.3
290	39582	1217020.2	0.2
290	39588	1217020.517212127823	0.3
290	39593	1217020.735038570878	0.2
290	39597	1217020.937841574717	0.2
290	40643	1249020.1	0.1
290	40646	1249020.3	0.2
290	40653	1249020.507199808604	0.2
290	40659	1249020.728072897008	0.2
290	41659	1281020.2	0.2
290	41663	1281020.5	0.3
290	41667	1281020.705143133834	0.2
290	41671	1281020.914421275112	0.2
290	42726	1313020.1	0.1
290	42730	1313020.307402474984	0.2
290	42734	1313020.510784032003	0.2
290	42738	1313020.713709181761	0.2
290	43786	1345020.1	0.1
290	43790	1345020.306411310939	0.2
290	43795	1345020.509538633251	0.2
290	43800	1345020.72649180276	0.2
290	44839	1377020	0
290	44844	1377020.300484337944	0.3
290	44849	1377020.511502457931	0.2
290	44856	1377020.823995611559	0.3
290	45853	1409020.1	0.1
290	45859	1409020.314223629386	0.2
290	45867	1409020.633332246017	0.3
290	45871	1409020.836401225306	0.2
290	46875	1441020.1	0.1
290	46879	1441020.304271362717	0.2
290	46885	1441020.613804062331	0.3
290	46890	1441020.830625949858	0.2
290	47930	1473020.2	0.2
290	47933	1473020.4	0.2
290	47937	1473020.602749722956	0.2
290	47943	1473020.823201068147	0.2
290	49007	1505020.1	0.1
290	49010	1505020.3	0.2
290	49015	1505020.607982668676	0.3
290	49022	1505020.82099903909	0.2
290	50054	1537020.1	0.1
290	50059	1537020.5	0.4
290	50068	1537020.738928145749	0.2
290	50074	1537020.957438433724	0.2
290	51055	1569020.1	0.1
290	51059	1569020.4	0.3
290	51067	1569020.620695186431	0.2
290	51071	1569020.830058476379	0.2
290	52089	1601020.2	0.2
290	52093	1601020.5	0.3
290	52098	1601020.711159641663	0.2
290	52106	1601020.922479348273	0.2
290	53137	1633020.1	0.1
290	53142	1633020.5	0.4
290	53147	1633020.711251506907	0.2
290	53151	1633020.919685958881	0.2
290	54172	1665020.2	0.2
290	54175	1665020.4	0.2
290	54179	1665020.602928506627	0.2
290	54192	1665020.846182259146	0.2
290	55223	1697020.1	0.1
290	55228	1697020.40592040691	0.3
290	55233	1697020.706256523844	0.3
290	55238	1697020.908428455317	0.2
290	56264	1729020.1	0.1
290	56267	1729020.3	0.2
290	56273	1729020.522933150254	0.2
290	56279	1729020.83322747	0.3
290	57277	1761020	0
290	57282	1761020.303772742894	0.3
290	57287	1761020.50782885181	0.2
290	57291	1761020.709504722205	0.2
290	58317	1793020	0
290	58320	1793020.2	0.2
290	58324	1793020.407057611206	0.2
290	58329	1793020.613301526281	0.2
290	59339	1825020.1	0.1
290	59343	1825020.304713185175	0.2
290	59356	1825020.645130489708	0.3
290	59360	1825020.853084579438	0.2
290	60390	1857020.2	0.2
290	60394	1857020.5	0.3
290	60398	1857020.7055592563	0.2
290	60404	1857020.911709242478	0.2
290	61419	1889020.2	0.2
290	61423	1889020.5	0.3
290	61427	1889020.706207193685	0.2
290	61438	1889020.949892529959	0.2
290	62467	1921020.1	0.1
290	62471	1921020.4	0.3
290	62475	1921020.603256238875	0.2
290	62479	1921020.810580774188	0.2
290	63512	1953020.2	0.2
290	63515	1953020.4	0.2
290	63519	1953020.603662479231	0.2
290	63524	1953020.909128126641	0.3
290	64554	1985020.2	0.2
290	64558	1985020.5	0.3
290	64562	1985020.709559533961	0.2
290	64568	1985020.925523204166	0.2
290	65553	2017020	0
290	65557	2017020.20686639727	0.2
290	65561	2017020.408134558693	0.2
290	65576	2017020.682318464433	0.2
291	71	2020.2	2
291	74	2020.4	1
291	79	2020.607769850014	1
291	86	2020.823610332043	1
291	1183	34020.1	1
291	1186	34020.3	1
291	1190	34020.507510273074	1
291	1195	34020.719483518096	1
291	2213	66020.2	2
291	2217	66020.400567001376	1
291	2221	66020.606246023105	1
291	2230	66020.934972481003	2
291	3267	98020	0
291	3270	98020.2	1
291	3275	98020.409984920478	1
291	3283	98020.631373316777	1
291	4330	130020.1	1
291	4336	130020.409984593416	2
291	4340	130020.619122823384	1
291	4346	130020.838703713071	1
291	5342	162020.2	2
291	5345	162020.4	1
291	5350	162020.605528318765	1
291	5357	162020.922777146614	2
291	6366	194020.1	1
291	6370	194020.4	2
291	6374	194020.600487480417	1
291	6382	194020.8276165303	1
291	7391	226020.2	2
291	7395	226020.405997325356	1
291	7402	226020.623046824168	1
291	7407	226020.826625895294	1
291	8450	258020.1	1
291	8453	258020.3	1
291	8457	258020.50478533793	1
291	8461	258020.710335816135	1
291	9488	290020.1	1
291	9492	290020.4	2
291	9497	290020.707394483112	2
291	9502	290021.008161881702	2
291	10534	322020.1	1
291	10538	322020.4	2
291	10544	322020.609516837159	1
291	10550	322020.82757821892	1
291	11586	354020.1	1
291	11589	354020.3	1
291	11594	354020.609249836353	2
291	11602	354020.839713790733	1
291	12648	386020.1	1
291	12651	386020.3	1
291	12655	386020.506299800674	1
291	12659	386020.710803925934	1
291	13680	418020.1	1
291	13686	418020.408826821849	2