version 2
run Stability-norelink-64-20130525-23:18:15-22103
attr configname Stability-norelink
attr datetime 20130525-23:18:15
attr experiment Stability
attr inifile omnetpp.ini
attr iterationvars $0=1e0
attr iterationvars2 "$0=1e0, $repetition=4"
attr measurement $0=1e0
attr network Network
attr processid 22103
attr repetition 4
attr replication #4
attr resultdir results
attr runnumber 64
attr seedset 64

vector 6168  Network.dyn_peer[8]  lookupHopsSig:vector  ETV
vector 6169  Network.dyn_peer[8]  lookupStabilitySig:vector  ETV
vector 6170  Network.dyn_peer[8]  lookupTimeSig:vector  ETV
vector 6171  Network.dyn_peer[9]  lookupHopsSig:vector  ETV
vector 6172  Network.dyn_peer[9]  lookupStabilitySig:vector  ETV
vector 6173  Network.dyn_peer[9]  lookupTimeSig:vector  ETV
vector 6177  Network.dyn_peer[11]  lookupHopsSig:vector  ETV
vector 6178  Network.dyn_peer[11]  lookupStabilitySig:vector  ETV
vector 6179  Network.dyn_peer[11]  lookupTimeSig:vector  ETV
vector 6198  Network.dyn_peer[18]  lookupHopsSig:vector  ETV
vector 6199  Network.dyn_peer[18]  lookupStabilitySig:vector  ETV
vector 6200  Network.dyn_peer[18]  lookupTimeSig:vector  ETV
vector 6201  Network.dyn_peer[19]  lookupHopsSig:vector  ETV
vector 6202  Network.dyn_peer[19]  lookupStabilitySig:vector  ETV
vector 6203  Network.dyn_peer[19]  lookupTimeSig:vector  ETV
vector 6210  Network.dyn_peer[22]  lookupHopsSig:vector  ETV
vector 6211  Network.dyn_peer[22]  lookupStabilitySig:vector  ETV
vector 6212  Network.dyn_peer[22]  lookupTimeSig:vector  ETV
vector 6144  Network.dyn_peer[0]  lookupHopsSig:vector  ETV
vector 6145  Network.dyn_peer[0]  lookupStabilitySig:vector  ETV
vector 6146  Network.dyn_peer[0]  lookupTimeSig:vector  ETV
vector 6153  Network.dyn_peer[3]  lookupHopsSig:vector  ETV
vector 6154  Network.dyn_peer[3]  lookupStabilitySig:vector  ETV
vector 6155  Network.dyn_peer[3]  lookupTimeSig:vector  ETV
vector 6180  Network.dyn_peer[12]  lookupHopsSig:vector  ETV
vector 6181  Network.dyn_peer[12]  lookupStabilitySig:vector  ETV
vector 6182  Network.dyn_peer[12]  lookupTimeSig:vector  ETV
vector 6186  Network.dyn_peer[14]  lookupHopsSig:vector  ETV
vector 6187  Network.dyn_peer[14]  lookupStabilitySig:vector  ETV
vector 6188  Network.dyn_peer[14]  lookupTimeSig:vector  ETV
vector 6195  Network.dyn_peer[17]  lookupHopsSig:vector  ETV
vector 6196  Network.dyn_peer[17]  lookupStabilitySig:vector  ETV
vector 6197  Network.dyn_peer[17]  lookupTimeSig:vector  ETV
vector 6219  Network.dyn_peer[25]  lookupHopsSig:vector  ETV
vector 6220  Network.dyn_peer[25]  lookupStabilitySig:vector  ETV
vector 6221  Network.dyn_peer[25]  lookupTimeSig:vector  ETV
vector 6222  Network.dyn_peer[26]  lookupHopsSig:vector  ETV
vector 6223  Network.dyn_peer[26]  lookupStabilitySig:vector  ETV
vector 6224  Network.dyn_peer[26]  lookupTimeSig:vector  ETV
vector 6237  Network.dyn_peer[31]  lookupHopsSig:vector  ETV
vector 6238  Network.dyn_peer[31]  lookupStabilitySig:vector  ETV
vector 6239  Network.dyn_peer[31]  lookupTimeSig:vector  ETV
vector 6150  Network.dyn_peer[2]  lookupHopsSig:vector  ETV
vector 6151  Network.dyn_peer[2]  lookupStabilitySig:vector  ETV
vector 6152  Network.dyn_peer[2]  lookupTimeSig:vector  ETV
vector 6156  Network.dyn_peer[4]  lookupHopsSig:vector  ETV
vector 6157  Network.dyn_peer[4]  lookupStabilitySig:vector  ETV
vector 6158  Network.dyn_peer[4]  lookupTimeSig:vector  ETV
vector 6159  Network.dyn_peer[5]  lookupHopsSig:vector  ETV
vector 6160  Network.dyn_peer[5]  lookupStabilitySig:vector  ETV
vector 6161  Network.dyn_peer[5]  lookupTimeSig:vector  ETV
vector 6228  Network.dyn_peer[28]  lookupHopsSig:vector  ETV
vector 6229  Network.dyn_peer[28]  lookupStabilitySig:vector  ETV
vector 6230  Network.dyn_peer[28]  lookupTimeSig:vector  ETV
vector 6231  Network.dyn_peer[29]  lookupHopsSig:vector  ETV
vector 6232  Network.dyn_peer[29]  lookupStabilitySig:vector  ETV
vector 6233  Network.dyn_peer[29]  lookupTimeSig:vector  ETV
vector 6234  Network.dyn_peer[30]  lookupHopsSig:vector  ETV
vector 6235  Network.dyn_peer[30]  lookupStabilitySig:vector  ETV
vector 6236  Network.dyn_peer[30]  lookupTimeSig:vector  ETV
vector 6165  Network.dyn_peer[7]  lookupHopsSig:vector  ETV
vector 6166  Network.dyn_peer[7]  lookupStabilitySig:vector  ETV
vector 6167  Network.dyn_peer[7]  lookupTimeSig:vector  ETV
vector 6174  Network.dyn_peer[10]  lookupHopsSig:vector  ETV
vector 6175  Network.dyn_peer[10]  lookupStabilitySig:vector  ETV
vector 6176  Network.dyn_peer[10]  lookupTimeSig:vector  ETV
vector 6183  Network.dyn_peer[13]  lookupHopsSig:vector  ETV
vector 6184  Network.dyn_peer[13]  lookupStabilitySig:vector  ETV
vector 6185  Network.dyn_peer[13]  lookupTimeSig:vector  ETV
vector 6189  Network.dyn_peer[15]  lookupHopsSig:vector  ETV
vector 6190  Network.dyn_peer[15]  lookupStabilitySig:vector  ETV
vector 6191  Network.dyn_peer[15]  lookupTimeSig:vector  ETV
vector 6192  Network.dyn_peer[16]  lookupHopsSig:vector  ETV
vector 6193  Network.dyn_peer[16]  lookupStabilitySig:vector  ETV
vector 6194  Network.dyn_peer[16]  lookupTimeSig:vector  ETV
vector 6207  Network.dyn_peer[21]  lookupHopsSig:vector  ETV
vector 6208  Network.dyn_peer[21]  lookupStabilitySig:vector  ETV
vector 6209  Network.dyn_peer[21]  lookupTimeSig:vector  ETV
vector 6216  Network.dyn_peer[24]  lookupHopsSig:vector  ETV
vector 6217  Network.dyn_peer[24]  lookupStabilitySig:vector  ETV
vector 6218  Network.dyn_peer[24]  lookupTimeSig:vector  ETV
vector 6147  Network.dyn_peer[1]  lookupHopsSig:vector  ETV
vector 6148  Network.dyn_peer[1]  lookupStabilitySig:vector  ETV
vector 6149  Network.dyn_peer[1]  lookupTimeSig:vector  ETV
vector 6162  Network.dyn_peer[6]  lookupHopsSig:vector  ETV
vector 6163  Network.dyn_peer[6]  lookupStabilitySig:vector  ETV
vector 6164  Network.dyn_peer[6]  lookupTimeSig:vector  ETV
vector 6204  Network.dyn_peer[20]  lookupHopsSig:vector  ETV
vector 6205  Network.dyn_peer[20]  lookupStabilitySig:vector  ETV
vector 6206  Network.dyn_peer[20]  lookupTimeSig:vector  ETV
vector 6213  Network.dyn_peer[23]  lookupHopsSig:vector  ETV
vector 6214  Network.dyn_peer[23]  lookupStabilitySig:vector  ETV
vector 6215  Network.dyn_peer[23]  lookupTimeSig:vector  ETV
vector 6225  Network.dyn_peer[27]  lookupHopsSig:vector  ETV
vector 6226  Network.dyn_peer[27]  lookupStabilitySig:vector  ETV
vector 6227  Network.dyn_peer[27]  lookupTimeSig:vector  ETV
6144	149	20.101	1
6144	406	20.501	3
6144	850	21.102397298492	5
6144	1152	21.426209456714	4
6144	1853	21.935382086352	6
6144	2228	22.235382086352	2
6144	3194	23.023843142809	4
6144	3229	23.037697850564	7
6144	3706	23.421268246304	5
6144	3839	23.522368246304	1
6144	4502	24.122368246304	5
6144	4860	24.424700946378	2
6144	5140	24.636758983	4
6144	6297	25.637858983	11
6144	6706	25.9497829716	2
6144	7641	26.749167910135	5
6144	8731	27.649167910135	8
6144	9021	27.95133889059	2
6144	9515	28.351800140039	4
6144	9644	28.467298172915	4
6144	9972	28.757172840925	3
6144	10889	29.558272840925	9
6144	11351	29.962320037697	3
6144	11631	30.163420037697	2
6144	12710	31.063420037697	9
6144	13240	31.56537646678	4
6144	13721	32.074196757087	4
6144	13821	32.197578720739	3
6144	14337	32.704455015598	4
6144	14417	32.780523100196	7
6144	14480	32.806418310829	1
6144	14498	32.813164800759	1
6144	14678	32.995445070977	1
6144	14979	33.203522186707	1
6144	15067	33.293649489627	1
6144	15131	33.324178718238	4
6144	15792	33.894511305411	5
6144	15813	33.9076221186	6
6144	16460	34.517406118835	6
6144	18168	35.917406118835	13
6144	20971	38.12139692474	23
6144	21571	38.526906870962	3
6144	21828	38.746413950969	1
6144	21844	38.754098892525	4
6144	22661	39.463592627393	6
6144	22667	39.468325245565	6
6144	23417	40.1731494385	7
6144	24113	40.675718618404	5
6144	25830	42.075718618404	16
6144	26428	42.683230008555	5
6144	26598	42.887554683687	1
6144	27206	43.39226979685	6
6144	28348	44.39226979685	10
6144	29828	45.60059601261	12
6144	30523	46.205592819083	5
6144	30757	46.424167036419	4
6144	31106	46.809868062023	5
6144	32156	47.820572683322	12
6144	32374	48.020572683322	1
6144	33530	49.088252957511	10
6144	34050	49.596271758376	3
6144	34054	49.597329901003	4
6144	34073	49.642469567287	3
6144	34773	50.2450959411	6
6144	35331	50.6450959411	4
6144	35557	50.855127803064	1
6144	36163	51.371490981345	6
6144	37112	52.33777459255	1
6144	38061	53.23777459255	8
6144	38237	53.438571802017	1
6144	38437	53.640468042171	1
6144	38632	53.83687459255	1
6144	39006	54.12655677824	7
6144	39041	54.140539645105	4
6144	39356	54.389710880874	4
6144	39434	54.431626818053	3
6144	40485	55.240120163061	9
6144	40852	55.540120163061	2
6144	41201	55.841491963492	2
6144	41874	56.44795231612	6
6144	42439	56.857413790992	3
6144	43563	57.867839016061	10
6144	43881	58.167839016061	3
6144	44771	58.825185916784	6
6144	45616	59.525185916784	6
6144	46109	59.899159886785	8
6144	46746	60.305558256186	4
6144	46957	60.505558256186	1
6144	47660	61.209846438798	6
6144	48093	61.527684189572	4
6144	49406	62.728786628715	12
6144	49776	63.028786628715	2
6144	50282	63.448014210841	3
6144	50455	63.638537374411	5
6144	50933	64.039585996651	3
6144	50939	64.043615610976	3
6144	51049	64.150379116464	6
6144	51387	64.448110134465	4
6144	51389	64.448348242304	4
6144	51654	64.665889393895	4
6144	51657	64.66708151536	4
6144	51858	64.852912698419	3
6144	51863	64.854245506598	3
6144	51982	64.955345506598	1
6144	52530	65.455170023038	1
6144	52532	65.455345506598	4
6144	52831	65.756238368509	2
6144	53141	66.057338368509	3
6144	53647	66.457338368509	3
6144	54463	67.159346243143	6
6144	54703	67.367716775878	1
6144	55238	67.876623926641	4
6144	55459	68.084758056749	2
6144	56767	69.115524813747	8
6144	57007	69.323715514207	1
6144	57396	69.684758056749	16
6144	57484	69.785826784432	6
6144	57941	70.192982179669	4
6144	58764	70.892982179669	6
6144	58919	70.99803180465	1
6144	59215	71.29803180465	2
6144	59606	71.60226300883	2
6144	59657	71.630271431476	3
6144	60131	71.938478209245	5
6144	61498	72.938478209245	9
6144	61630	73.041261993078	1
6144	62541	73.741261993078	8
6144	63086	74.245468350974	4
6144	63370	74.448988319776	1
6144	64401	75.259512675527	8
6144	65251	75.959512675527	6
6144	65975	76.555243997464	3
6144	65999	76.569453934038	5
6144	67186	77.475796287818	9
6144	67469	77.675796287818	1
6144	69484	79.385604067786	17
6144	69899	79.700401280178	2
6144	70061	79.884806111684	9
6144	70111	79.91032697589	3
6144	70359	80.114322576951	2
6144	70807	80.514322576951	3
6144	71331	80.924244760973	3
6144	72251	81.726548423585	8
6144	72467	81.93339390146	1
6144	72734	82.212403805888	2
6144	72972	82.420991651973	1
6144	73465	82.830326977122	4
6144	73863	83.130326977122	3
6144	73992	83.231426977122	1
6144	74369	83.531426977122	3
6144	74938	83.934504935403	4
6144	75372	84.234504935403	2
6144	75780	84.538414110783	3
6144	76528	85.139069957413	6
6144	76706	85.248725935102	1
6144	77314	85.748725935102	4
6144	78218	86.352899958731	5
6144	78992	87.057121504502	7
6144	80357	88.302963078885	6
6144	80373	88.349687306175	6
6144	80650	88.557121504502	14
6144	81738	89.36038602607	8
6144	82076	89.66038602607	2
6144	82459	89.969933516885	2
6144	82879	90.280967922792	3
6144	83297	90.680967922792	3
6144	83611	90.98569591866	2
6144	83977	91.288880532683	2
6144	84514	91.700111945366	3
6144	85050	92.177243207531	6
6144	85637	92.707803791932	11
6144	85691	92.786427731761	5
6144	85868	92.908686154606	1
6144	86070	93.113724738432	1
6144	86079	93.115651663851	1
6144	86112	93.125316256611	0
6144	87048	94.025316256611	10
6144	87932	94.840126391586	8
6144	88105	95.031523766955	8
6144	88426	95.246572121427	3
6144	88797	95.548590457563	2
6144	89192	95.83855268288	6
6144	89240	95.857558107134	2
6144	89362	95.94479333716	1
6144	90807	97.052865928403	11
6144	91277	97.352865928403	3
6144	91858	97.770004334883	3
6144	92276	98.078053589696	3
6144	92288	98.096204631786	5
6144	92985	98.586287610917	4
6144	93162	98.738958084317	3
6144	94071	99.448445021454	7
6144	94712	99.95169534353	4
6144	95077	100.25279534353	3
6144	95827	100.95279534353	6
6144	96116	101.202576315658	8
6144	96404	101.455291541559	5
6144	96414	101.462181078677	5
6144	97352	102.168457672063	8
6144	98440	103.068457672063	9
6144	99167	103.677619072902	5
6144	99466	103.910589002116	1
6144	99536	103.978124166154	3
6144	99908	104.218658383024	2
6144	99985	104.289743740971	4
6144	100126	104.422865280046	1
6144	100544	104.729033185915	3
6144	101211	105.331197941808	3
6144	101469	105.631197941808	2
6144	101956	106.031312861947	3
6144	101978	106.032412861947	0
6144	102546	106.532412861947	4
6144	102992	106.939899932682	3
6144	103228	107.148570450491	1
6144	103623	107.454788958383	2
6144	103986	107.755888958383	3
6144	104368	108.055888958383	2
6144	104854	108.457074400077	3
6144	105128	108.667037117045	1
6144	105558	108.968997860666	3
6144	105865	109.235271282878	4
6144	106093	109.438153226771	1
6144	106459	109.669460558098	6
6144	106556	109.746171524986	2
6144	107603	110.555766955159	8
6144	109500	112.155766955159	18
6144	110837	113.459327350886	13
6144	110889	113.488977101175	10
6144	111365	113.867334131634	4
6144	112207	114.396921221087	9
6144	112220	114.401005162156	9
6144	112496	114.601093796805	1
6144	112503	114.602233571858	1
6144	113052	115.003333571858	4
6144	115047	116.703333571858	18
6144	115822	117.508866521468	8
6144	116273	117.916029066097	3
6144	116503	118.118005018554	1
6144	116509	118.120030283108	1
6144	116845	118.421130283108	3
6144	117234	118.737535945461	2
6144	118156	119.537902783502	9
6144	118597	119.938523519227	3
6144	118819	120.088658150055	7
6144	119369	120.547563600336	6
6144	119490	120.641651441143	5
6144	119584	120.693442376866	6
6144	119633	120.748876073489	1
6144	120157	121.197995521526	4
6144	120447	121.407839628934	1
6144	120449	121.412213781542	5
6144	120472	121.443224240725	7
6144	120478	121.450159386285	6
6144	120593	121.558990624024	1
6144	121544	122.358990624024	9
6144	122170	122.805803272786	2
6144	122969	123.505803272786	6
6144	123000	123.508079315233	0
6144	123599	124.008079315233	4
6144	124106	124.427810943605	1
6144	124193	124.512034645483	4
6144	124487	124.718824634062	1
6144	124861	125.020322545982	2
6144	125256	125.33576124622	10
6144	125331	125.425644844275	3
6144	125855	125.830119456576	4
6144	126354	126.330119456576	4
6144	127816	127.531726608912	12
6144	129030	128.531726608912	10
6144	129857	129.241212040651	7
6144	130395	129.848819019321	5
6144	130426	129.886829453836	13
6144	130554	129.999574488689	5
6144	130828	130.252908210653	4
6144	131129	130.495147246528	6
6144	131184	130.560972210959	2
6144	131353	130.668181701476	1
6144	132285	131.368181701476	7
6144	132469	131.514627364357	2
6144	132970	131.916407048063	4
6144	133726	132.52531807022	5
6144	134237	132.931763730364	3
6144	134360	133.032863730364	1
6144	135214	133.732863730364	7
6144	135751	134.242316303038	4
6144	136434	134.858446379346	6
6144	137172	135.559546379346	7
6144	138456	136.622087960085	5
6144	138832	136.962222873725	16
6144	139127	137.262338419845	2
6144	139472	137.522835486079	8
6144	140432	138.327067840563	9
6144	140858	138.727067840563	3
6144	141287	139.234569320727	5
6144	141371	139.354535852702	4
6145	149	20.101	0.875
6145	406	20.501	0.625
6145	850	21.102397298492	0.375
6145	1152	21.426209456714	0.5
6145	1853	21.935382086352	0.25
6145	2228	22.235382086352	0.75
6145	3194	23.023843142809	0.5
6145	3229	23.037697850564	0.125
6145	3706	23.421268246304	0.375
6145	3839	23.522368246304	0.875
6145	4502	24.122368246304	0.375
6145	4860	24.424700946378	0.75
6145	5140	24.636758983	0.5
6145	6297	25.637858983	-0.375
6145	6706	25.9497829716	0.75
6145	7641	26.749167910135	0.375
6145	8731	27.649167910135	0
6145	9021	27.95133889059	0.75
6145	9515	28.351800140039	0.5
6145	9644	28.467298172915	0.5
6145	9972	28.757172840925	0.625
6145	10889	29.558272840925	-0.125
6145	11351	29.962320037697	0.625
6145	11631	30.163420037697	0.75
6145	12710	31.063420037697	-0.125
6145	13240	31.56537646678	0.5
6145	13721	32.074196757087	0.5
6145	13821	32.197578720739	0.625
6145	14337	32.704455015598	0.5
6145	14417	32.780523100196	0.125
6145	14480	32.806418310829	0.875
6145	14498	32.813164800759	0.875
6145	14678	32.995445070977	0.875
6145	14979	33.203522186707	0.875
6145	15067	33.293649489627	0.875
6145	15131	33.324178718238	0.5
6145	15792	33.894511305411	0.375
6145	15813	33.9076221186	0.25
6145	16460	34.517406118835	0.25
6145	18168	35.917406118835	-0.625
6145	20971	38.12139692474	-1.875
6145	21571	38.526906870962	0.625
6145	21828	38.746413950969	0.875
6145	21844	38.754098892525	0.5
6145	22661	39.463592627393	0.25
6145	22667	39.468325245565	0.25
6145	23417	40.1731494385	0.125
6145	24113	40.675718618404	0.375
6145	25830	42.075718618404	-1
6145	26428	42.683230008555	0.375
6145	26598	42.887554683687	0.875
6145	27206	43.39226979685	0.25
6145	28348	44.39226979685	-0.25
6145	29828	45.60059601261	-0.5
6145	30523	46.205592819083	0.375
6145	30757	46.424167036419	0.5
6145	31106	46.809868062023	0.375
6145	32156	47.820572683322	-0.5
6145	32374	48.020572683322	0.875
6145	33530	49.088252957511	-0.25
6145	34050	49.596271758376	0.625
6145	34054	49.597329901003	0.5
6145	34073	49.642469567287	0.625
6145	34773	50.2450959411	0.25
6145	35331	50.6450959411	0.5
6145	35557	50.855127803064	0.875
6145	36163	51.371490981345	0.25
6145	37112	52.33777459255	0.875
6145	38061	53.23777459255	0
6145	38237	53.438571802017	0.875
6145	38437	53.640468042171	0.875
6145	38632	53.83687459255	0.875
6145	39006	54.12655677824	0.125
6145	39041	54.140539645105	0.5
6145	39356	54.389710880874	0.5
6145	39434	54.431626818053	0.625
6145	40485	55.240120163061	-0.125
6145	40852	55.540120163061	0.75
6145	41201	55.841491963492	0.75
6145	41874	56.44795231612	0.25
6145	42439	56.857413790992	0.625
6145	43563	57.867839016061	-0.25
6145	43881	58.167839016061	0.625
6145	44771	58.825185916784	0.25
6145	45616	59.525185916784	0.25
6145	46109	59.899159886785	0
6145	46746	60.305558256186	0.5
6145	46957	60.505558256186	0.875
6145	47660	61.209846438798	0.25
6145	48093	61.527684189572	0.5
6145	49406	62.728786628715	-0.5
6145	49776	63.028786628715	0.75
6145	50282	63.448014210841	0.625
6145	50455	63.638537374411	0.375
6145	50933	64.039585996651	0.625
6145	50939	64.043615610976	0.625
6145	51049	64.150379116464	0.25
6145	51387	64.448110134465	0.5
6145	51389	64.448348242304	0.5
6145	51654	64.665889393895	0.5
6145	51657	64.66708151536	0.5
6145	51858	64.852912698419	0.625
6145	51863	64.854245506598	0.625
6145	51982	64.955345506598	0.875
6145	52530	65.455170023038	0.875
6145	52532	65.455345506598	0.5
6145	52831	65.756238368509	0.75
6145	53141	66.057338368509	0.625
6145	53647	66.457338368509	0.625
6145	54463	67.159346243143	0.25
6145	54703	67.367716775878	0.875
6145	55238	67.876623926641	0.5
6145	55459	68.084758056749	0.75
6145	56767	69.115524813747	0
6145	57007	69.323715514207	0.875
6145	57396	69.684758056749	-1
6145	57484	69.785826784432	0.25
6145	57941	70.192982179669	0.5
6145	58764	70.892982179669	0.25
6145	58919	70.99803180465	0.875
6145	59215	71.29803180465	0.75
6145	59606	71.60226300883	0.75
6145	59657	71.630271431476	0.625
6145	60131	71.938478209245	0.375
6145	61498	72.938478209245	-0.125
6145	61630	73.041261993078	0.875
6145	62541	73.741261993078	0
6145	63086	74.245468350974	0.5
6145	63370	74.448988319776	0.875
6145	64401	75.259512675527	0
6145	65251	75.959512675527	0.25
6145	65975	76.555243997464	0.625
6145	65999	76.569453934038	0.375
6145	67186	77.475796287818	-0.125
6145	67469	77.675796287818	0.875
6145	69484	79.385604067786	-1.125
6145	69899	79.700401280178	0.75
6145	70061	79.884806111684	-0.125
6145	70111	79.91032697589	0.625
6145	70359	80.114322576951	0.75
6145	70807	80.514322576951	0.625
6145	71331	80.924244760973	0.625
6145	72251	81.726548423585	0
6145	72467	81.93339390146	0.875
6145	72734	82.212403805888	0.75
6145	72972	82.420991651973	0.875
6145	73465	82.830326977122	0.5
6145	73863	83.130326977122	0.625
6145	73992	83.231426977122	0.875
6145	74369	83.531426977122	0.625
6145	74938	83.934504935403	0.5
6145	75372	84.234504935403	0.75
6145	75780	84.538414110783	0.625
6145	76528	85.139069957413	0.25
6145	76706	85.248725935102	0.875
6145	77314	85.748725935102	0.5
6145	78218	86.352899958731	0.375
6145	78992	87.057121504502	0.125
6145	80357	88.302963078885	0.25
6145	80373	88.349687306175	0.25
6145	80650	88.557121504502	-0.75
6145	81738	89.36038602607	0
6145	82076	89.66038602607	0.75
6145	82459	89.969933516885	0.75
6145	82879	90.280967922792	0.625
6145	83297	90.680967922792	0.625
6145	83611	90.98569591866	0.75
6145	83977	91.288880532683	0.75
6145	84514	91.700111945366	0.625
6145	85050	92.177243207531	0.25
6145	85637	92.707803791932	-0.375
6145	85691	92.786427731761	0.375
6145	85868	92.908686154606	0.875
6145	86070	93.113724738432	0.875
6145	86079	93.115651663851	0.875
6145	86112	93.125316256611	1
6145	87048	94.025316256611	-0.25
6145	87932	94.840126391586	0
6145	88105	95.031523766955	0
6145	88426	95.246572121427	0.625
6145	88797	95.548590457563	0.75
6145	89192	95.83855268288	0.25
6145	89240	95.857558107134	0.75
6145	89362	95.94479333716	0.875
6145	90807	97.052865928403	-0.375
6145	91277	97.352865928403	0.625
6145	91858	97.770004334883	0.625
6145	92276	98.078053589696	0.625
6145	92288	98.096204631786	0.375
6145	92985	98.586287610917	0.5
6145	93162	98.738958084317	0.625
6145	94071	99.448445021454	0.125
6145	94712	99.95169534353	0.5
6145	95077	100.25279534353	0.625
6145	95827	100.95279534353	0.25
6145	96116	101.202576315658	0
6145	96404	101.455291541559	0.375
6145	96414	101.462181078677	0.375
6145	97352	102.168457672063	0
6145	98440	103.068457672063	-0.125
6145	99167	103.677619072902	0.375
6145	99466	103.910589002116	0.875
6145	99536	103.978124166154	0.625
6145	99908	104.218658383024	0.75
6145	99985	104.289743740971	0.5
6145	100126	104.422865280046	0.875
6145	100544	104.729033185915	0.625
6145	101211	105.331197941808	0.625
6145	101469	105.631197941808	0.75
6145	101956	106.031312861947	0.625
6145	101978	106.032412861947	1
6145	102546	106.532412861947	0.5
6145	102992	106.939899932682	0.625
6145	103228	107.148570450491	0.875
6145	103623	107.454788958383	0.75
6145	103986	107.755888958383	0.625
6145	104368	108.055888958383	0.75
6145	104854	108.457074400077	0.625
6145	105128	108.667037117045	0.875
6145	105558	108.968997860666	0.625
6145	105865	109.235271282878	0.5
6145	106093	109.438153226771	0.875
6145	106459	109.669460558098	0.25
6145	106556	109.746171524986	0.75
6145	107603	110.555766955159	0
6145	109500	112.155766955159	-1.25
6145	110837	113.459327350886	-0.625
6145	110889	113.488977101175	-0.25
6145	111365	113.867334131634	0.5
6145	112207	114.396921221087	-0.125
6145	112220	114.401005162156	-0.125
6145	112496	114.601093796805	0.875
6145	112503	114.602233571858	0.875
6145	113052	115.003333571858	0.5
6145	115047	116.703333571858	-1.25
6145	115822	117.508866521468	0
6145	116273	117.916029066097	0.625
6145	116503	118.118005018554	0.875
6145	116509	118.120030283108	0.875
6145	116845	118.421130283108	0.625
6145	117234	118.737535945461	0.75
6145	118156	119.537902783502	-0.125
6145	118597	119.938523519227	0.625
6145	118819	120.088658150055	0.125
6145	119369	120.547563600336	0.25
6145	119490	120.641651441143	0.375
6145	119584	120.693442376866	0.25
6145	119633	120.748876073489	0.875
6145	120157	121.197995521526	0.5
6145	120447	121.407839628934	0.875
6145	120449	121.412213781542	0.375
6145	120472	121.443224240725	0.125
6145	120478	121.450159386285	0.25
6145	120593	121.558990624024	0.875
6145	121544	122.358990624024	-0.125
6145	122170	122.805803272786	0.75
6145	122969	123.505803272786	0.25
6145	123000	123.508079315233	1
6145	123599	124.008079315233	0.5
6145	124106	124.427810943605	0.875
6145	124193	124.512034645483	0.5
6145	124487	124.718824634062	0.875
6145	124861	125.020322545982	0.75
6145	125256	125.33576124622	-0.25
6145	125331	125.425644844275	0.625
6145	125855	125.830119456576	0.5
6145	126354	126.330119456576	0.5
6145	127816	127.531726608912	-0.5
6145	129030	128.531726608912	-0.25
6145	129857	129.241212040651	0.125
6145	130395	129.848819019321	0.375
6145	130426	129.886829453836	-0.625
6145	130554	129.999574488689	0.375
6145	130828	130.252908210653	0.5
6145	131129	130.495147246528	0.25
6145	131184	130.560972210959	0.75
6145	131353	130.668181701476	0.875
6145	132285	131.368181701476	0.125
6145	132469	131.514627364357	0.75
6145	132970	131.916407048063	0.5
6145	133726	132.52531807022	0.375
6145	134237	132.931763730364	0.625
6145	134360	133.032863730364	0.875
6145	135214	133.732863730364	0.125
6145	135751	134.242316303038	0.5
6145	136434	134.858446379346	0.25
6145	137172	135.559546379346	0.125
6145	138456	136.622087960085	0.375
6145	138832	136.962222873725	-1
6145	139127	137.262338419845	0.75
6145	139472	137.522835486079	0
6145	140432	138.327067840563	-0.125
6145	140858	138.727067840563	0.625
6145	141287	139.234569320727	0.375
6145	141371	139.354535852702	0.5
6146	149	20.101	0.1
6146	406	20.501	0.4
6146	850	21.102397298492	0.6
6146	1152	21.426209456714	0.5
6146	1853	21.935382086352	0.5
6146	2228	22.235382086352	0.3
6146	3194	23.023843142809	0.5
6146	3229	23.037697850564	0.8
6146	3706	23.421268246304	0.6
6146	3839	23.522368246304	0.1
6146	4502	24.122368246304	0.6
6146	4860	24.424700946378	0.3
6146	5140	24.636758983	0.4
6146	6297	25.637858983	1
6146	6706	25.9497829716	0.3
6146	7641	26.749167910135	0.5
6146	8731	27.649167910135	0.9
6146	9021	27.95133889059	0.3
6146	9515	28.351800140039	0.4
6146	9644	28.467298172915	0.5
6146	9972	28.757172840925	0.4
6146	10889	29.558272840925	0.8
6146	11351	29.962320037697	0.4
6146	11631	30.163420037697	0.2
6146	12710	31.063420037697	0.9
6146	13240	31.56537646678	0.5
6146	13721	32.074196757087	0.5
6146	13821	32.197578720739	0.4
6146	14337	32.704455015598	0.5
6146	14417	32.780523100196	0.7
6146	14480	32.806418310829	0.1
6146	14498	32.813164800759	0.1
6146	14678	32.995445070977	0.2
6146	14979	33.203522186707	0.2
6146	15067	33.293649489627	0.2
6146	15131	33.324178718238	0.5
6146	15792	33.894511305411	0.6
6146	15813	33.9076221186	0.7
6146	16460	34.517406118835	0.6
6146	18168	35.917406118835	1.4
6146	20971	38.12139692474	2.2
6146	21571	38.526906870962	0.4
6146	21828	38.746413950969	0.2
6146	21844	38.754098892525	0.5
6146	22661	39.463592627393	0.7
6146	22667	39.468325245565	0.7
6146	23417	40.1731494385	0.7
6146	24113	40.675718618404	0.5
6146	25830	42.075718618404	1.4
6146	26428	42.683230008555	0.6
6146	26598	42.887554683687	0.2
6146	27206	43.39226979685	0.5
6146	28348	44.39226979685	1
6146	29828	45.60059601261	1.2
6146	30523	46.205592819083	0.6
6146	30757	46.424167036419	0.5
6146	31106	46.809868062023	0.6
6146	32156	47.820572683322	1
6146	32374	48.020572683322	0.2
6146	33530	49.088252957511	0.9
6146	34050	49.596271758376	0.4
6146	34054	49.597329901003	0.5
6146	34073	49.642469567287	0.4
6146	34773	50.2450959411	0.6
6146	35331	50.6450959411	0.4
6146	35557	50.855127803064	0.2
6146	36163	51.371490981345	0.5
6146	37112	52.33777459255	0.1
6146	38061	53.23777459255	0.9
6146	38237	53.438571802017	0.2
6146	38437	53.640468042171	0.2
6146	38632	53.83687459255	0.2
6146	39006	54.12655677824	0.7
6146	39041	54.140539645105	0.5
6146	39356	54.389710880874	0.5
6146	39434	54.431626818053	0.3
6146	40485	55.240120163061	0.8
6146	40852	55.540120163061	0.3
6146	41201	55.841491963492	0.3
6146	41874	56.44795231612	0.6
6146	42439	56.857413790992	0.4
6146	43563	57.867839016061	1
6146	43881	58.167839016061	0.3
6146	44771	58.825185916784	0.6
6146	45616	59.525185916784	0.7
6146	46109	59.899159886785	0.8
6146	46746	60.305558256186	0.4
6146	46957	60.505558256186	0.2
6146	47660	61.209846438798	0.7
6146	48093	61.527684189572	0.4
6146	49406	62.728786628715	1.2
6146	49776	63.028786628715	0.3
6146	50282	63.448014210841	0.3
6146	50455	63.638537374411	0.6
6146	50933	64.039585996651	0.4
6146	50939	64.043615610976	0.4
6146	51049	64.150379116464	0.7
6146	51387	64.448110134465	0.4
6146	51389	64.448348242304	0.4
6146	51654	64.665889393895	0.5
6146	51657	64.66708151536	0.5
6146	51858	64.852912698419	0.4
6146	51863	64.854245506598	0.4
6146	51982	64.955345506598	0.1
6146	52530	65.455170023038	0.2
6146	52532	65.455345506598	0.5
6146	52831	65.756238368509	0.3
6146	53141	66.057338368509	0.3
6146	53647	66.457338368509	0.4
6146	54463	67.159346243143	0.7
6146	54703	67.367716775878	0.2
6146	55238	67.876623926641	0.5
6146	55459	68.084758056749	0.2
6146	56767	69.115524813747	0.9
6146	57007	69.323715514207	0.2
6146	57396	69.684758056749	1.6
6146	57484	69.785826784432	0.7
6146	57941	70.192982179669	0.4
6146	58764	70.892982179669	0.7
6146	58919	70.99803180465	0.1
6146	59215	71.29803180465	0.3
6146	59606	71.60226300883	0.3
6146	59657	71.630271431476	0.4
6146	60131	71.938478209245	0.3
6146	61498	72.938478209245	1
6146	61630	73.041261993078	0.1
6146	62541	73.741261993078	0.7
6146	63086	74.245468350974	0.5
6146	63370	74.448988319776	0.2
6146	64401	75.259512675527	0.8
6146	65251	75.959512675527	0.7
6146	65975	76.555243997464	0.3
6146	65999	76.569453934038	0.6
6146	67186	77.475796287818	0.9
6146	67469	77.675796287818	0.2
6146	69484	79.385604067786	1.7
6146	69899	79.700401280178	0.3
6146	70061	79.884806111684	0.9
6146	70111	79.91032697589	0.4
6146	70359	80.114322576951	0.2
6146	70807	80.514322576951	0.4
6146	71331	80.924244760973	0.4
6146	72251	81.726548423585	0.8
6146	72467	81.93339390146	0.2
6146	72734	82.212403805888	0.3
6146	72972	82.420991651973	0.2
6146	73465	82.830326977122	0.4
6146	73863	83.130326977122	0.3
6146	73992	83.231426977122	0.1
6146	74369	83.531426977122	0.3
6146	74938	83.934504935403	0.4
6146	75372	84.234504935403	0.3
6146	75780	84.538414110783	0.3
6146	76528	85.139069957413	0.6
6146	76706	85.248725935102	0.1
6146	77314	85.748725935102	0.5
6146	78218	86.352899958731	0.6
6146	78992	87.057121504502	0.7
6146	80357	88.302963078885	0.7
6146	80373	88.349687306175	0.7
6146	80650	88.557121504502	1.5
6146	81738	89.36038602607	0.8
6146	82076	89.66038602607	0.3
6146	82459	89.969933516885	0.3
6146	82879	90.280967922792	0.3
6146	83297	90.680967922792	0.4
6146	83611	90.98569591866	0.3
6146	83977	91.288880532683	0.3
6146	84514	91.700111945366	0.4
6146	85050	92.177243207531	0.7
6146	85637	92.707803791932	1
6146	85691	92.786427731761	0.6
6146	85868	92.908686154606	0.2