version 2
run Stability-norelink-93-20130525-23:20:12-22103
attr configname Stability-norelink
attr datetime 20130525-23:20:12
attr experiment Stability
attr inifile omnetpp.ini
attr iterationvars $0=1e-3
attr iterationvars2 "$0=1e-3, $repetition=3"
attr measurement $0=1e-3
attr network Network
attr processid 22103
attr repetition 3
attr replication #3
attr resultdir results
attr runnumber 93
attr seedset 93

vector 8949  Network.dyn_peer[7]  lookupHopsSig:vector  ETV
vector 8950  Network.dyn_peer[7]  lookupStabilitySig:vector  ETV
vector 8951  Network.dyn_peer[7]  lookupTimeSig:vector  ETV
vector 8988  Network.dyn_peer[20]  lookupHopsSig:vector  ETV
vector 8989  Network.dyn_peer[20]  lookupStabilitySig:vector  ETV
vector 8990  Network.dyn_peer[20]  lookupTimeSig:vector  ETV
vector 8991  Network.dyn_peer[21]  lookupHopsSig:vector  ETV
vector 8992  Network.dyn_peer[21]  lookupStabilitySig:vector  ETV
vector 8993  Network.dyn_peer[21]  lookupTimeSig:vector  ETV
vector 9009  Network.dyn_peer[27]  lookupHopsSig:vector  ETV
vector 9010  Network.dyn_peer[27]  lookupStabilitySig:vector  ETV
vector 9011  Network.dyn_peer[27]  lookupTimeSig:vector  ETV
vector 8931  Network.dyn_peer[1]  lookupHopsSig:vector  ETV
vector 8932  Network.dyn_peer[1]  lookupStabilitySig:vector  ETV
vector 8933  Network.dyn_peer[1]  lookupTimeSig:vector  ETV
vector 8943  Network.dyn_peer[5]  lookupHopsSig:vector  ETV
vector 8944  Network.dyn_peer[5]  lookupStabilitySig:vector  ETV
vector 8945  Network.dyn_peer[5]  lookupTimeSig:vector  ETV
vector 8952  Network.dyn_peer[8]  lookupHopsSig:vector  ETV
vector 8953  Network.dyn_peer[8]  lookupStabilitySig:vector  ETV
vector 8954  Network.dyn_peer[8]  lookupTimeSig:vector  ETV
vector 8955  Network.dyn_peer[9]  lookupHopsSig:vector  ETV
vector 8956  Network.dyn_peer[9]  lookupStabilitySig:vector  ETV
vector 8957  Network.dyn_peer[9]  lookupTimeSig:vector  ETV
vector 8985  Network.dyn_peer[19]  lookupHopsSig:vector  ETV
vector 8986  Network.dyn_peer[19]  lookupStabilitySig:vector  ETV
vector 8987  Network.dyn_peer[19]  lookupTimeSig:vector  ETV
vector 9006  Network.dyn_peer[26]  lookupHopsSig:vector  ETV
vector 9007  Network.dyn_peer[26]  lookupStabilitySig:vector  ETV
vector 9008  Network.dyn_peer[26]  lookupTimeSig:vector  ETV
vector 8928  Network.dyn_peer[0]  lookupHopsSig:vector  ETV
vector 8929  Network.dyn_peer[0]  lookupStabilitySig:vector  ETV
vector 8930  Network.dyn_peer[0]  lookupTimeSig:vector  ETV
vector 8940  Network.dyn_peer[4]  lookupHopsSig:vector  ETV
vector 8941  Network.dyn_peer[4]  lookupStabilitySig:vector  ETV
vector 8942  Network.dyn_peer[4]  lookupTimeSig:vector  ETV
vector 8946  Network.dyn_peer[6]  lookupHopsSig:vector  ETV
vector 8947  Network.dyn_peer[6]  lookupStabilitySig:vector  ETV
vector 8948  Network.dyn_peer[6]  lookupTimeSig:vector  ETV
vector 8961  Network.dyn_peer[11]  lookupHopsSig:vector  ETV
vector 8962  Network.dyn_peer[11]  lookupStabilitySig:vector  ETV
vector 8963  Network.dyn_peer[11]  lookupTimeSig:vector  ETV
vector 8970  Network.dyn_peer[14]  lookupHopsSig:vector  ETV
vector 8971  Network.dyn_peer[14]  lookupStabilitySig:vector  ETV
vector 8972  Network.dyn_peer[14]  lookupTimeSig:vector  ETV
vector 8973  Network.dyn_peer[15]  lookupHopsSig:vector  ETV
vector 8974  Network.dyn_peer[15]  lookupStabilitySig:vector  ETV
vector 8975  Network.dyn_peer[15]  lookupTimeSig:vector  ETV
vector 8982  Network.dyn_peer[18]  lookupHopsSig:vector  ETV
vector 8983  Network.dyn_peer[18]  lookupStabilitySig:vector  ETV
vector 8984  Network.dyn_peer[18]  lookupTimeSig:vector  ETV
vector 8994  Network.dyn_peer[22]  lookupHopsSig:vector  ETV
vector 8995  Network.dyn_peer[22]  lookupStabilitySig:vector  ETV
vector 8996  Network.dyn_peer[22]  lookupTimeSig:vector  ETV
vector 9000  Network.dyn_peer[24]  lookupHopsSig:vector  ETV
vector 9001  Network.dyn_peer[24]  lookupStabilitySig:vector  ETV
vector 9002  Network.dyn_peer[24]  lookupTimeSig:vector  ETV
vector 9012  Network.dyn_peer[28]  lookupHopsSig:vector  ETV
vector 9013  Network.dyn_peer[28]  lookupStabilitySig:vector  ETV
vector 9014  Network.dyn_peer[28]  lookupTimeSig:vector  ETV
vector 9018  Network.dyn_peer[30]  lookupHopsSig:vector  ETV
vector 9019  Network.dyn_peer[30]  lookupStabilitySig:vector  ETV
vector 9020  Network.dyn_peer[30]  lookupTimeSig:vector  ETV
vector 8958  Network.dyn_peer[10]  lookupHopsSig:vector  ETV
vector 8959  Network.dyn_peer[10]  lookupStabilitySig:vector  ETV
vector 8960  Network.dyn_peer[10]  lookupTimeSig:vector  ETV
vector 8964  Network.dyn_peer[12]  lookupHopsSig:vector  ETV
vector 8965  Network.dyn_peer[12]  lookupStabilitySig:vector  ETV
vector 8966  Network.dyn_peer[12]  lookupTimeSig:vector  ETV
vector 8979  Network.dyn_peer[17]  lookupHopsSig:vector  ETV
vector 8980  Network.dyn_peer[17]  lookupStabilitySig:vector  ETV
vector 8981  Network.dyn_peer[17]  lookupTimeSig:vector  ETV
vector 8997  Network.dyn_peer[23]  lookupHopsSig:vector  ETV
vector 8998  Network.dyn_peer[23]  lookupStabilitySig:vector  ETV
vector 8999  Network.dyn_peer[23]  lookupTimeSig:vector  ETV
vector 9015  Network.dyn_peer[29]  lookupHopsSig:vector  ETV
vector 9016  Network.dyn_peer[29]  lookupStabilitySig:vector  ETV
vector 9017  Network.dyn_peer[29]  lookupTimeSig:vector  ETV
vector 8934  Network.dyn_peer[2]  lookupHopsSig:vector  ETV
vector 8935  Network.dyn_peer[2]  lookupStabilitySig:vector  ETV
vector 8936  Network.dyn_peer[2]  lookupTimeSig:vector  ETV
vector 8937  Network.dyn_peer[3]  lookupHopsSig:vector  ETV
vector 8938  Network.dyn_peer[3]  lookupStabilitySig:vector  ETV
vector 8939  Network.dyn_peer[3]  lookupTimeSig:vector  ETV
vector 8967  Network.dyn_peer[13]  lookupHopsSig:vector  ETV
vector 8968  Network.dyn_peer[13]  lookupStabilitySig:vector  ETV
vector 8969  Network.dyn_peer[13]  lookupTimeSig:vector  ETV
vector 8976  Network.dyn_peer[16]  lookupHopsSig:vector  ETV
vector 8977  Network.dyn_peer[16]  lookupStabilitySig:vector  ETV
vector 8978  Network.dyn_peer[16]  lookupTimeSig:vector  ETV
vector 9003  Network.dyn_peer[25]  lookupHopsSig:vector  ETV
vector 9004  Network.dyn_peer[25]  lookupStabilitySig:vector  ETV
vector 9005  Network.dyn_peer[25]  lookupTimeSig:vector  ETV
vector 9021  Network.dyn_peer[31]  lookupHopsSig:vector  ETV
vector 9022  Network.dyn_peer[31]  lookupStabilitySig:vector  ETV
vector 9023  Network.dyn_peer[31]  lookupTimeSig:vector  ETV
8928	201	20.200001	2
8928	738	21.004678844878	7
8928	1087	21.310872783975	3
8928	1489	21.618166970319	2
8928	1775	21.827614331337	3
8928	2199	22.128116900461	2
8928	2207	22.128428545939	2
8928	2406	22.317275863884	2
8928	2945	22.821652613465	5
8928	3273	23.123877626621	2
8928	3815	23.62678113252	4
8928	3829	23.638674575031	4
8928	4065	23.846356286738	1
8928	4348	24.047432181032	3
8928	5281	24.747432181032	6
8928	5550	24.953802299876	1
8928	5791	25.158150006036	2
8928	5927	25.326993797458	2
8928	6081	25.431140778142	1
8928	7135	26.227612257161	3
8928	7153	26.234135200902	7
8928	7787	26.742318227549	4
8928	7793	26.744025666445	4
8928	8102	26.947971861503	1
8928	8201	27.032794280458	8
8928	8788	27.45029138483	7
8928	9045	27.65039238483	2
8928	9411	27.95039238483	2
8928	9911	28.368972263059	3
8928	10335	28.775524318022	3
8928	10859	29.274062069661	7
8928	10868	29.274162069661	7
8928	11114	29.477438190071	6
8928	11177	29.566861631604	3
8928	11406	29.767002914406	2
8928	11871	30.267002914406	4
8928	12467	30.767103914406	5
8928	12827	31.167103914406	3
8928	13095	31.413017658967	1
8928	13612	31.813118658967	4
8928	14532	32.513118658967	6
8928	15205	33.019360946298	4
8928	15691	33.426870758784	3
8928	16894	34.531387136875	4
8928	16899	34.534852300878	11
8928	17334	34.935932198357	4
8928	18290	35.835932198357	8
8928	18757	36.241621612842	3
8928	18782	36.262418584642	5
8928	19460	36.865394932664	6
8928	20577	37.765394932664	8
8928	21049	38.172315065356	3
8928	21404	38.47392544731	2
8928	22107	39.01173186154	4
8928	22471	39.337637731563	1
8928	22702	39.550237563267	1
8928	22873	39.711988760248	6
8928	23693	40.417273062721	7
8928	24215	40.817273062721	4
8928	24873	41.321999223876	4
8928	25763	41.92332297394	7
8928	27111	42.869847383461	8
8928	27200	42.926953257021	10
8928	27344	43.027054257021	1
8928	28182	43.727054257021	6
8928	28316	43.836986404838	1
8928	28761	44.236986404838	4
8928	29205	44.740199728334	4
8928	29446	44.949931556126	1
8928	29810	45.260434715728	2
8928	30050	45.46273626368	2
8928	30366	45.76273626368	2
8928	31832	46.97164110789	12
8928	32517	47.474405017482	5
8928	32917	47.760890658889	5
8928	33422	48.107615433456	17
8928	33465	48.162057972534	3
8928	33631	48.281545730182	8
8928	33646	48.284122813822	0
8928	34119	48.693826014573	3
8928	34840	49.395646792751	7
8928	35434	49.901765218135	4
8928	35804	50.204488266399	2
8928	36041	50.401422398677	2
8928	36070	50.410802387491	0
8928	37641	51.610802387491	12
8928	38758	52.493183741411	3
8928	41506	54.693856819171	24
8928	42324	55.393856819171	6
8928	43204	55.999577703271	6
8928	44449	56.799678703271	8
8928	45270	57.399678703271	5
8928	45398	57.503451140061	0
8928	45733	57.807577883502	2
8928	45961	58.010721729102	1
8928	46083	58.135001204431	1
8928	47265	59.139628525266	11
8928	47532	59.344253693559	1
8928	48085	59.862681822405	2
8928	48424	60.144565782978	7
8928	48572	60.27200779783	3
8928	48892	60.474887012459	1
8928	49434	60.874988012459	4
8928	50139	61.374988012459	4
8928	50398	61.576521972635	1
8928	51701	62.811833140007	13
8928	52096	63.12182666473	2
8928	52434	63.426671681415	5
8928	53322	64.225401529477	10
8928	53341	64.233796735915	7
8928	53759	64.53709859937	3
8928	54049	64.840796998259	2
8928	54260	65.049616604483	2
8928	54873	65.549616604483	4
8928	55325	65.853578642847	2
8928	55856	66.268909104245	6
8928	56157	66.536317792712	5
8928	56212	66.565963385021	1
8928	56299	66.662639742382	1
8928	56943	67.163857586723	5
8928	57476	67.563857586723	4
8928	58128	68.069511958675	5
8928	58800	68.57961513389	4
8928	59443	69.04525070559	3
8928	59484	69.081246848819	6
8928	59657	69.24590223419	1
8928	59769	69.353922670207	1
8928	60892	70.453922670207	12
8928	60926	70.485442734139	4
8928	61188	70.6945716025	2
8928	61255	70.760070048089	3
8928	62020	71.468783385727	7
8928	62757	72.12066729312	2
8928	62779	72.168783385727	6
8928	63193	72.478654692483	3
8928	63688	72.878654692483	3
8928	63943	73.079857899798	1
8928	64989	73.983231961883	10
8928	65637	74.585002662758	5
8928	65811	74.72728335053	5
8928	65971	74.831908837374	1
8928	67042	75.731908837374	9
8928	67239	75.934074059707	1
8928	68624	77.139180439589	12
8928	68879	77.439180439589	2
8928	69162	77.740161858041	3
8928	69185	77.748503917755	3
8928	69503	78.054175214272	3
8928	69735	78.262780657794	4
8928	70019	78.545710463242	9
8928	70970	79.252489556292	8
8928	71296	79.552489556292	2
8928	71666	79.878965231505	2
8928	72253	80.479166231505	6
8928	72949	81.179166231505	7
8928	73214	81.384464286226	7
8928	73583	81.684565286226	3
8928	74399	82.384565286226	7
8928	75407	83.10482116632	2
8928	75481	83.19261990666	7
8928	75687	83.311675610615	1
8928	76066	83.619472794343	3
8928	76681	84.119472794343	4
8928	77027	84.423423093628	2
8928	77304	84.634832120807	1
8928	77550	84.84851336528	1
8928	77806	85.053501869776	1
8928	78117	85.367533785815	2
8928	78156	85.413887205283	3
8928	79109	86.215638605167	8
8928	79675	86.815638605167	5
8928	80373	87.418801705296	5
8928	80778	87.766679556354	5
8928	81050	88.023889638636	5
8928	81143	88.07507459485	4
8928	81399	88.329501328923	2
8928	81793	88.63403154203	2
8928	81821	88.645492781499	8
8928	81877	88.680551745211	5
8928	81881	88.682709911737	5
8928	82454	89.182810911737	5
8928	83453	89.942951414724	5
8928	84463	90.803665711341	5
8928	85499	91.607041087861	9
8928	86270	92.178834949255	4
8928	86920	92.678834949255	4
8928	87325	92.988489156321	2
8928	87742	93.29096310435	2
8928	88248	93.736839405882	2
8928	88954	94.336839405882	6
8928	89094	94.44459686399	1
8928	89563	94.84459686399	3
8928	90443	95.650396383961	8
8928	91106	96.152964005966	5
8928	91133	96.192739583118	4
8928	91687	96.694924734694	5
8928	92424	97.294924734694	5
8928	92739	97.59640183206	2
8928	93046	97.89650283206	3
8928	93617	98.39650283206	4
8928	94493	99.204380334347	8
8928	94504	99.216506943371	8
8928	94782	99.509460308185	2
8928	95142	99.8219853795	5
8928	95259	99.904800031878	5
8928	95567	100.146741445374	4
8928	95857	100.356340044226	2
8928	96212	100.656340044226	2
8928	96921	101.162587004297	5
8928	97577	101.662587004297	5
8928	97901	101.962625564835	4
8928	98031	102.126650760551	3
8928	98716	102.666108391589	6
8928	98751	102.727362354248	5
8928	99201	103.132887979833	3
8928	99542	103.442076956264	4
8928	101465	105.042076956264	18
8928	101955	105.445770217366	3
8928	102696	106.047209183293	5
8928	103024	106.347678734484	3
8928	103633	106.893081015431	3
8928	103677	106.952585621034	5
8928	104010	107.257767108894	3
8928	104623	107.757767108894	4
8928	105334	108.361855565685	5
8928	105657	108.674149868868	4
8928	105695	108.699772411227	4
8928	105834	108.8052513981	1
8928	106220	109.1052513981	2
8928	107048	109.809317647504	6
8928	107320	110.009318214334	1
8928	107859	110.517635341883	4
8928	108551	111.021781602203	6
8928	109930	112.194677378225	8
8928	110069	112.294677378225	0
8928	110473	112.601128864988	3
8928	111049	113.101229864988	6
8928	111759	113.613479505911	4
8928	112298	114.056868536873	6
8928	112905	114.563699672657	5
8928	113210	114.863699672657	2
8928	113637	115.263800672657	4
8928	114013	115.563800672657	2
8928	114174	115.672187478745	0
8928	114576	115.972383210922	2
8928	115226	116.59363187789	5
8928	116018	117.300269518364	6
8928	116943	118.080872557979	10
8928	116983	118.106559364394	7
8928	117171	118.271059543217	6
8928	117407	118.47559028436	1
8928	117854	118.87569128436	5
8928	118254	119.27569128436	3
8928	118489	119.48218449187	1
8928	118977	119.891628756716	3
8928	119172	120.036218600231	1
8928	119579	120.327114537996	4
8928	119696	120.414664381946	4
8928	120989	121.423215374651	11
8928	121182	121.623215374651	1
8928	121587	121.930017291149	2
8928	121789	122.130391553046	1
8928	122333	122.533152007361	4
8928	124217	123.926785562682	9
8928	124709	124.326785562682	3
8928	124962	124.535899289749	1
8928	125701	125.139331792334	5
8928	125784	125.188024524091	3
8928	125924	125.275123981415	7
8928	126098	125.38230849083	1
8928	126471	125.68230849083	2
8928	127395	126.389003114259	8
8928	127431	126.429675213487	7
8928	127762	126.729915308623	2
8928	127856	126.833176339688	1
8928	128274	127.233176339688	3
8928	128552	127.459100159358	1
8928	128745	127.644046601021	4
8928	129012	127.86676644359	3
8928	129483	128.270850185741	4
8928	130802	129.370850185741	11
8928	131193	129.672177360635	2
8928	132351	130.472278360635	8
8928	132591	130.672278360635	1
8928	133110	131.078828341682	4
8928	134385	131.978828341682	9
8928	135446	132.887998475314	8
8928	135639	133.090227597707	1
8928	136084	133.497044938373	3
8928	136555	133.919419732032	3
8928	137330	134.619520732032	8
8928	137684	135.019520732032	3
8929	201	20.200001	0.75
8929	738	21.004678844878	0.125
8929	1087	21.310872783975	0.625
8929	1489	21.618166970319	0.75
8929	1775	21.827614331337	0.625
8929	2199	22.128116900461	0.75
8929	2207	22.128428545939	0.75
8929	2406	22.317275863884	0.75
8929	2945	22.821652613465	0.375
8929	3273	23.123877626621	0.75
8929	3815	23.62678113252	0.5
8929	3829	23.638674575031	0.5
8929	4065	23.846356286738	0.875
8929	4348	24.047432181032	0.625
8929	5281	24.747432181032	0.25
8929	5550	24.953802299876	0.875
8929	5791	25.158150006036	0.75
8929	5927	25.326993797458	0.75
8929	6081	25.431140778142	0.875
8929	7135	26.227612257161	0.625
8929	7153	26.234135200902	0.125
8929	7787	26.742318227549	0.5
8929	7793	26.744025666445	0.5
8929	8102	26.947971861503	0.875
8929	8201	27.032794280458	0
8929	8788	27.45029138483	0.125
8929	9045	27.65039238483	0.75
8929	9411	27.95039238483	0.75
8929	9911	28.368972263059	0.625
8929	10335	28.775524318022	0.625
8929	10859	29.274062069661	0.125
8929	10868	29.274162069661	0.125
8929	11114	29.477438190071	0.25
8929	11177	29.566861631604	0.625
8929	11406	29.767002914406	0.75
8929	11871	30.267002914406	0.5
8929	12467	30.767103914406	0.375
8929	12827	31.167103914406	0.625
8929	13095	31.413017658967	0.875
8929	13612	31.813118658967	0.5
8929	14532	32.513118658967	0.25
8929	15205	33.019360946298	0.5
8929	15691	33.426870758784	0.625
8929	16894	34.531387136875	0.5
8929	16899	34.534852300878	-0.375
8929	17334	34.935932198357	0.5
8929	18290	35.835932198357	0
8929	18757	36.241621612842	0.625
8929	18782	36.262418584642	0.375
8929	19460	36.865394932664	0.25
8929	20577	37.765394932664	0
8929	21049	38.172315065356	0.625
8929	21404	38.47392544731	0.75
8929	22107	39.01173186154	0.5
8929	22471	39.337637731563	0.875
8929	22702	39.550237563267	0.875
8929	22873	39.711988760248	0.25
8929	23693	40.417273062721	0.125
8929	24215	40.817273062721	0.5
8929	24873	41.321999223876	0.5
8929	25763	41.92332297394	0.125
8929	27111	42.869847383461	0
8929	27200	42.926953257021	-0.25
8929	27344	43.027054257021	0.875
8929	28182	43.727054257021	0.25
8929	28316	43.836986404838	0.875
8929	28761	44.236986404838	0.5
8929	29205	44.740199728334	0.5
8929	29446	44.949931556126	0.875
8929	29810	45.260434715728	0.75
8929	30050	45.46273626368	0.75
8929	30366	45.76273626368	0.75
8929	31832	46.97164110789	-0.5
8929	32517	47.474405017482	0.375
8929	32917	47.760890658889	0.375
8929	33422	48.107615433456	-1.125
8929	33465	48.162057972534	0.625
8929	33631	48.281545730182	0
8929	33646	48.284122813822	1
8929	34119	48.693826014573	0.625
8929	34840	49.395646792751	0.125
8929	35434	49.901765218135	0.5
8929	35804	50.204488266399	0.75
8929	36041	50.401422398677	0.75
8929	36070	50.410802387491	1
8929	37641	51.610802387491	-0.5
8929	38758	52.493183741411	0.625
8929	41506	54.693856819171	-2
8929	42324	55.393856819171	0.25
8929	43204	55.999577703271	0.25
8929	44449	56.799678703271	0
8929	45270	57.399678703271	0.375
8929	45398	57.503451140061	1
8929	45733	57.807577883502	0.75
8929	45961	58.010721729102	0.875
8929	46083	58.135001204431	0.875
8929	47265	59.139628525266	-0.375
8929	47532	59.344253693559	0.875
8929	48085	59.862681822405	0.75
8929	48424	60.144565782978	0.125
8929	48572	60.27200779783	0.625
8929	48892	60.474887012459	0.875
8929	49434	60.874988012459	0.5
8929	50139	61.374988012459	0.5
8929	50398	61.576521972635	0.875
8929	51701	62.811833140007	-0.625
8929	52096	63.12182666473	0.75
8929	52434	63.426671681415	0.375
8929	53322	64.225401529477	-0.25
8929	53341	64.233796735915	0.125
8929	53759	64.53709859937	0.625
8929	54049	64.840796998259	0.75
8929	54260	65.049616604483	0.75
8929	54873	65.549616604483	0.5
8929	55325	65.853578642847	0.75
8929	55856	66.268909104245	0.25
8929	56157	66.536317792712	0.375
8929	56212	66.565963385021	0.875
8929	56299	66.662639742382	0.875
8929	56943	67.163857586723	0.375
8929	57476	67.563857586723	0.5
8929	58128	68.069511958675	0.44444441795349
8929	58800	68.57961513389	0.5
8929	59443	69.04525070559	0.625
8929	59484	69.081246848819	0.25
8929	59657	69.24590223419	0.875
8929	59769	69.353922670207	0.875
8929	60892	70.453922670207	-0.5
8929	60926	70.485442734139	0.5
8929	61188	70.6945716025	0.75
8929	61255	70.760070048089	0.625
8929	62020	71.468783385727	0.125
8929	62757	72.12066729312	0.75
8929	62779	72.168783385727	0.25
8929	63193	72.478654692483	0.625
8929	63688	72.878654692483	0.625
8929	63943	73.079857899798	0.875
8929	64989	73.983231961883	-0.25
8929	65637	74.585002662758	0.375
8929	65811	74.72728335053	0.375
8929	65971	74.831908837374	0.875
8929	67042	75.731908837374	-0.125
8929	67239	75.934074059707	0.875
8929	68624	77.139180439589	-0.5
8929	68879	77.439180439589	0.75
8929	69162	77.740161858041	0.625
8929	69185	77.748503917755	0.625
8929	69503	78.054175214272	0.625
8929	69735	78.262780657794	0.5
8929	70019	78.545710463242	-0.125
8929	70970	79.252489556292	0
8929	71296	79.552489556292	0.75
8929	71666	79.878965231505	0.77777777612209
8929	72253	80.479166231505	0.25
8929	72949	81.179166231505	0.125
8929	73214	81.384464286226	0.125
8929	73583	81.684565286226	0.625
8929	74399	82.384565286226	0.125
8929	75407	83.10482116632	0.75
8929	75481	83.19261990666	0.125
8929	75687	83.311675610615	0.875
8929	76066	83.619472794343	0.625
8929	76681	84.119472794343	0.5
8929	77027	84.423423093628	0.75
8929	77304	84.634832120807	0.875
8929	77550	84.84851336528	0.875
8929	77806	85.053501869776	0.875
8929	78117	85.367533785815	0.75
8929	78156	85.413887205283	0.625
8929	79109	86.215638605167	0
8929	79675	86.815638605167	0.375
8929	80373	87.418801705296	0.375
8929	80778	87.766679556354	0.375
8929	81050	88.023889638636	0.375
8929	81143	88.07507459485	0.5
8929	81399	88.329501328923	0.75
8929	81793	88.63403154203	0.75
8929	81821	88.645492781499	0
8929	81877	88.680551745211	0.375
8929	81881	88.682709911737	0.375
8929	82454	89.182810911737	0.375
8929	83453	89.942951414724	0.375
8929	84463	90.803665711341	0.375
8929	85499	91.607041087861	-0.125
8929	86270	92.178834949255	0.5
8929	86920	92.678834949255	0.5
8929	87325	92.988489156321	0.75
8929	87742	93.29096310435	0.75
8929	88248	93.736839405882	0.75
8929	88954	94.336839405882	0.25
8929	89094	94.44459686399	0.875
8929	89563	94.84459686399	0.625
8929	90443	95.650396383961	0
8929	91106	96.152964005966	0.375
8929	91133	96.192739583118	0.5
8929	91687	96.694924734694	0.375
8929	92424	97.294924734694	0.375
8929	92739	97.59640183206	0.75
8929	93046	97.89650283206	0.625
8929	93617	98.39650283206	0.5
8929	94493	99.204380334347	0
8929	94504	99.216506943371	0
8929	94782	99.509460308185	0.75
8929	95142	99.8219853795	0.375
8929	95259	99.904800031878	0.375
8929	95567	100.146741445374	0.5
8929	95857	100.356340044226	0.75
8929	96212	100.656340044226	0.75
8929	96921	101.162587004297	0.375
8929	97577	101.662587004297	0.375
8929	97901	101.962625564835	0.5
8929	98031	102.126650760551	0.625
8929	98716	102.666108391589	0.25
8929	98751	102.727362354248	0.375
8929	99201	103.132887979833	0.625
8929	99542	103.442076956264	0.5
8929	101465	105.042076956264	-1.25
8929	101955	105.445770217366	0.625
8929	102696	106.047209183293	0.375
8929	103024	106.347678734484	0.625
8929	103633	106.893081015431	0.625
8929	103677	106.952585621034	0.375
8929	104010	107.257767108894	0.625
8929	104623	107.757767108894	0.5
8929	105334	108.361855565685	0.375
8929	105657	108.674149868868	0.5
8929	105695	108.699772411227	0.5
8929	105834	108.8052513981	0.875
8929	106220	109.1052513981	0.75
8929	107048	109.809317647504	0.25
8929	107320	110.009318214334	0.875
8929	107859	110.517635341883	0.5
8929	108551	111.021781602203	0.25
8929	109930	112.194677378225	0
8929	110069	112.294677378225	1
8929	110473	112.601128864988	0.625
8929	111049	113.101229864988	0.25
8929	111759	113.613479505911	0.5
8929	112298	114.056868536873	0.25
8929	112905	114.563699672657	0.375
8929	113210	114.863699672657	0.75
8929	113637	115.263800672657	0.5
8929	114013	115.563800672657	0.75
8929	114174	115.672187478745	1
8929	114576	115.972383210922	0.75
8929	115226	116.59363187789	0.375
8929	116018	117.300269518364	0.25
8929	116943	118.080872557979	-0.25
8929	116983	118.106559364394	0.125
8929	117171	118.271059543217	0.25
8929	117407	118.47559028436	0.875
8929	117854	118.87569128436	0.375
8929	118254	119.27569128436	0.625
8929	118489	119.48218449187	0.875
8929	118977	119.891628756716	0.625
8929	119172	120.036218600231	0.875
8929	119579	120.327114537996	0.5
8929	119696	120.414664381946	0.5
8929	120989	121.423215374651	-0.375
8929	121182	121.623215374651	0.875
8929	121587	121.930017291149	0.75
8929	121789	122.130391553046	0.875
8929	122333	122.533152007361	0.5
8929	124217	123.926785562682	-0.125
8929	124709	124.326785562682	0.625
8929	124962	124.535899289749	0.875
8929	125701	125.139331792334	0.375
8929	125784	125.188024524091	0.625
8929	125924	125.275123981415	0.125
8929	126098	125.38230849083	0.875
8929	126471	125.68230849083	0.75
8929	127395	126.389003114259	0
8929	127431	126.429675213487	0.125
8929	127762	126.729915308623	0.75
8929	127856	126.833176339688	0.875
8929	128274	127.233176339688	0.625
8929	128552	127.459100159358	0.875
8929	128745	127.644046601021	0.5
8929	129012	127.86676644359	0.625
8929	129483	128.270850185741	0.5
8929	130802	129.370850185741	-0.375
8929	131193	129.672177360635	0.75
8929	132351	130.472278360635	0
8929	132591	130.672278360635	0.875
8929	133110	131.078828341682	0.5
8929	134385	131.978828341682	-0.125
8929	135446	132.887998475314	0
8929	135639	133.090227597707	0.875
8929	136084	133.497044938373	0.625
8929	136555	133.919419732032	0.625
8929	137330	134.619520732032	0
8929	137684	135.019520732032	0.625
8930	201	20.200001	0.2
8930	738	21.004678844878	0.8
8930	1087	21.310872783975	0.3
8930	1489	21.618166970319	0.3
8930	1775	21.827614331337	0.4
8930	2199	22.128116900461	0.3
8930	2207	22.128428545939	0.3
8930	2406	22.317275863884	0.3
8930	2945	22.821652613465	0.5
8930	3273	23.123877626621	0.3
8930	3815	23.62678113252	0.5
8930	3829	23.638674575031	0.5
8930	4065	23.846356286738	0.2
8930	4348	24.047432181032	0.2
8930	5281	24.747432181032	0.7
8930	5550	24.953802299876	0.2
8930	5791	25.158150006036	0.2
8930	5927	25.326993797458	0.3
8930	6081	25.431140778142	0.1
8930	7135	26.227612257161	0.4
8930	7153	26.234135200902	0.8
8930	7787	26.742318227549	0.5
8930	7793	26.744025666445	0.5
8930	8102	26.947971861503	0.2
8930	8201	27.032794280458	0.8
8930	8788	27.45029138483	0.7
8930	9045	27.65039238483	0.2
8930	9411	27.95039238483	0.3
8930	9911	28.368972263059	0.4
8930	10335	28.775524318022	0.4
8930	10859	29.274062069661	0.7
8930	10868	29.274162069661	0.7
8930	11114	29.477438190071	0.7
8930	11177	29.566861631604	0.4
8930	11406	29.767002914406	0.2
8930	11871	30.267002914406	0.5
8930	12467	30.767103914406	0.5
8930	12827	31.167103914406	0.4
8930	13095	31.413017658967	0.2
8930	13612	31.813118658967	0.4
8930	14532	32.513118658967	0.7
8930	15205	33.019360946298	0.5
8930	15691	33.426870758784	0.4
8930	16894	34.531387136875	0.4
8930	16899	34.534852300878	1.1
8930	17334	34.935932198357	0.4
8930	18290	35.835932198357	0.9
8930	18757	36.241621612842	0.4
8930	18782	36.262418584642	0.6
8930	19460	36.865394932664	0.6
8930	20577	37.765394932664	0.9
8930	21049	38.172315065356	0.4
8930	21404	38.47392544731	0.3
8930	22107	39.01173186154	0.5
8930	22471	39.337637731563	0.2
8930	22702	39.550237563267	0.2
8930	22873	39.711988760248	0.7
8930	23693	40.417273062721	0.7
8930	24215	40.817273062721	0.4
8930	24873	41.321999223876	0.5
8930	25763	41.92332297394	0.6
8930	27111	42.869847383461	0.8
8930	27200	42.926953257021	1
8930	27344	43.027054257021	0.1
8930	28182	43.727054257021	0.7
8930	28316	43.836986404838	0.1
8930	28761	44.236986404838	0.4
8930	29205	44.740199728334	0.5
8930	29446	44.949931556126	0.2
8930	29810	45.260434715728	0.3
8930	30050	45.46273626368	0.2
8930	30366	45.76273626368	0.3
8930	31832	46.97164110789	1.2
8930	32517	47.474405017482	0.5
8930	32917	47.760890658889	0.6
8930	33422	48.107615433456	1.6
8930	33465	48.162057972534	0.4
8930	33631	48.281545730182	0.8
8930	33646	48.284122813822	0
8930	34119	48.693826014573	0.4
8930	34840	49.395646792751	0.7
8930	35434	49.901765218135	0.5
8930	35804	50.204488266399	0.3
8930	36041	50.401422398677	0.3
8930	36070	50.410802387491	0
8930	37641	51.610802387491	1.2
8930	38758	52.493183741411	0.4
8930	41506	54.693856819171	2.2
8930	42324	55.393856819171	0.7
8930	43204	55.999577703271	0.7
8930	44449	56.799678703271	0.8
8930	45270	57.399678703271	0.6
8930	45398	57.503451140061	0.1
8930	45733	57.807577883502	0.3
8930	45961	58.010721729102	0.2
8930	46083	58.135001204431	0.2
8930	47265	59.139628525266	1
8930	47532	59.344253693559	0.2
8930	48085	59.862681822405	0.3
8930	48424	60.144565782978	0.8
8930	48572	60.27200779783	0.4
8930	48892	60.474887012459	0.2
8930	49434	60.874988012459	0.4
8930	50139	61.374988012459	0.5
8930	50398	61.576521972635	0.2
8930	51701	62.811833140007	1.2
8930	52096	63.12182666473	0.3
8930	52434	63.426671681415	0.6
8930	53322	64.225401529477	1.1
8930	53341	64.233796735915	0.8
8930	53759	64.53709859937	0.3
8930	54049	64.840796998259	0.3
8930	54260	65.049616604483	0.2
8930	54873	65.549616604483	0.5
8930	55325	65.853578642847	0.3
8930	55856	66.268909104245	0.6
8930	56157	66.536317792712	0.6
8930	56212	66.565963385021	0.2
8930	56299	66.662639742382	0.2
8930	56943	67.163857586723	0.5
8930	57476	67.563857586723	0.4
8930	58128	68.069511958675	0.5
8930	58800	68.57961513389	0.5
8930	59443	69.04525070559	0.4
8930	59484	69.081246848819	0.5
8930	59657	69.24590223419	0.2
8930	59769	69.353922670207	0.1
8930	60892	70.453922670207	1.1
8930	60926	70.485442734139	0.5
8930	61188	70.6945716025	0.2
8930	61255	70.760070048089	0.3
8930	62020	71.468783385727	0.7
8930	62757	72.12066729312	0.2
8930	62779	72.168783385727	0.7
8930	63193	72.478654692483	0.3
8930	63688	72.878654692483	0.4
8930	63943	73.079857899798	0.2
8930	64989	73.983231961883	0.9
8930	65637	74.585002662758	0.6
8930	65811	74.72728335053	0.6
8930	65971	74.831908837374	0.1
8930	67042	75.731908837374	0.9
8930	67239	75.934074059707	0.2
8930	68624	77.139180439589	1.2
8930	68879	77.439180439589	0.3
8930	69162	77.740161858041	0.3
8930	69185	77.748503917755	0.3
8930	69503	78.054175214272	0.3
8930	69735	78.262780657794	0.5
8930	70019	78.545710463242	0.8
8930	70970	79.252489556292	0.7
8930	71296	79.552489556292	0.3
8930	71666	79.878965231505	0.3
8930	72253	80.479166231505	0.6
8930	72949	81.179166231505	0.7
8930	73214	81.384464286226	0.8
8930	73583	81.684565286226	0.3
8930	74399	82.384565286226	0.7
8930	75407	83.10482116632	0.3
8930	75481	83.19261990666	0.8
8930	75687	83.311675610615	0.2
8930	76066	83.619472794343	0.3
8930	76681	84.119472794343	0.5
8930	77027	84.423423093628	0.3
8930	77304	84.634832120807	0.2
8930	77550	84.84851336528	0.2
8930	77806	85.053501869776	0.2
8930	78117	85.367533785815	0.3
8930	78156	85.413887205283	0.4
8930	79109	86.215638605167	0.8
8930	79675	86.815638605167	0.6
8930	80373	87.418801705296	0.6
8930	80778	87.766679556354	0.6
8930	81050	88.023889638636	0.6
8930	81143	88.07507459485	0.3
8930	81399	88.329501328923	0.3
8930	81793	88.63403154203	0.3
8930	81821	88.645492781499	0.8
8930	81877	88.680551745211	0.6
8930	81881	88.682709911737	0.6