file 907676 1369674158                                          
version 2
run Stability-norelink-69-20130525-23:18:35-22103
attr configname Stability-norelink
attr datetime 20130525-23:18:35
attr experiment Stability
attr inifile omnetpp.ini
attr iterationvars $0=1e0
attr iterationvars2 "$0=1e0, $repetition=9"
attr measurement $0=1e0
attr network Network
attr processid 22103
attr repetition 9
attr replication #9
attr resultdir results
attr runnumber 69
attr seedset 69
vector 6636  Network.dyn_peer[4]  lookupHopsSig:vector  ETV
6636	114602 8726 41 138472 20.005 136.546539288971 297 0 14 1237 7759
vector 6637  Network.dyn_peer[4]  lookupStabilitySig:vector  ETV
6637	123328 9699 41 138472 20.005 136.546539288971 297 -0.75 1 142.41666665673 109.0381944312
vector 6638  Network.dyn_peer[4]  lookupTimeSig:vector  ETV
6638	133027 9275 41 138472 20.005 136.546539288971 297 0 1.4 138.7 85.41
vector 6696  Network.dyn_peer[24]  lookupHopsSig:vector  ETV
6696	683463 9395 105 138562 20.025 136.765479820589 318 0 22 1307 8667
vector 6697  Network.dyn_peer[24]  lookupStabilitySig:vector  ETV
6697	692858 10409 105 138562 20.025 136.765479820589 318 -1.75 1 154.625 126.671875
vector 6698  Network.dyn_peer[24]  lookupTimeSig:vector  ETV
6698	703267 9984 105 138562 20.025 136.765479820589 318 0 1.9 146.3 94.51
vector 6705  Network.dyn_peer[27]  lookupHopsSig:vector  ETV
6705	771211 8513 120 138601 20.028 137.056758400853 289 0 18 1227 7821
vector 6706  Network.dyn_peer[27]  lookupStabilitySig:vector  ETV
6706	779724 9478 120 138601 20.028 137.056758400853 289 -1.25 1 135.625 104.453125
vector 6707  Network.dyn_peer[27]  lookupTimeSig:vector  ETV
6707	789202 9059 120 138601 20.028 137.056758400853 289 0 1.7 136.2 84.24
vector 6714  Network.dyn_peer[30]  lookupHopsSig:vector  ETV
6714	853714 8063 133 138538 20.031 136.698554663888 274 0 30 1288 10086
vector 6715  Network.dyn_peer[30]  lookupStabilitySig:vector  ETV
6715	861777 8956 133 138538 20.031 136.698554663888 274 -2.75 1 113.11111107469 109.70447527185
vector 6716  Network.dyn_peer[30]  lookupTimeSig:vector  ETV
6716	870733 8572 133 138538 20.031 136.698554663888 274 0 2.3 140.9 100.85
vector 6624  Network.dyn_peer[0]  lookupHopsSig:vector  ETV
6624	6396 8204 141 137635 20.101 135.704582536614 279 0 16 1245 8635
vector 6625  Network.dyn_peer[0]  lookupStabilitySig:vector  ETV
6625	14600 9104 141 137635 20.101 135.704582536614 279 -1 1 123.375 102.671875
vector 6626  Network.dyn_peer[0]  lookupTimeSig:vector  ETV
6626	23704 8725 141 137635 20.101 135.704582536614 279 0 1.6 137.5 94.27
vector 6627  Network.dyn_peer[1]  lookupHopsSig:vector  ETV
6627	32429 8981 146 138162 20.102 136.148887836609 305 0 15 1242 7828
vector 6628  Network.dyn_peer[1]  lookupStabilitySig:vector  ETV
6628	41410 10029 146 138162 20.102 136.148887836609 305 -0.875 1 149.81944443285 116.90875770023
vector 6629  Network.dyn_peer[1]  lookupTimeSig:vector  ETV
6629	51439 9544 146 138162 20.102 136.148887836609 305 0 1.2 137.7 84.53
vector 6630  Network.dyn_peer[2]  lookupHopsSig:vector  ETV
6630	60983 8558 151 137406 20.103 135.503952541829 291 0 24 1317 9453
vector 6631  Network.dyn_peer[2]  lookupStabilitySig:vector  ETV
6631	69541 9526 151 137406 20.103 135.503952541829 291 -2 1 126.54166661948 109.58314039383
vector 6632  Network.dyn_peer[2]  lookupTimeSig:vector  ETV
6632	79067 9093 151 137406 20.103 135.503952541829 291 0 2.1 144.1 99.37
vector 6648  Network.dyn_peer[8]  lookupHopsSig:vector  ETV
6648	225878 9022 163 137510 20.109 135.583301517937 307 0 16 1252 7652
vector 6649  Network.dyn_peer[8]  lookupStabilitySig:vector  ETV
6649	234900 10063 163 137510 20.109 135.583301517937 307 -1 1 150.59722220898 113.59625771016
vector 6650  Network.dyn_peer[8]  lookupTimeSig:vector  ETV
6650	244963 9607 163 137510 20.109 135.583301517937 307 0 1.5 140.7 84.57
vector 6663  Network.dyn_peer[13]  lookupHopsSig:vector  ETV
6663	367626 9290 173 137388 20.114 135.48361576803 316 0 22 1352 9212
vector 6664  Network.dyn_peer[13]  lookupStabilitySig:vector  ETV
6664	376916 10355 173 137388 20.114 135.48361576803 316 -1.75 1 147 121.9375
vector 6665  Network.dyn_peer[13]  lookupTimeSig:vector  ETV
6665	387271 9882 173 137388 20.114 135.48361576803 316 0 1.9 151.1 98.93
vector 6666  Network.dyn_peer[14]  lookupHopsSig:vector  ETV
6666	397153 9050 178 138496 20.115 136.56959168223 308 0 15 1309 8545
vector 6667  Network.dyn_peer[14]  lookupStabilitySig:vector  ETV
6667	406203 10092 178 138496 20.115 136.56959168223 308 -0.875 1 144.40277777612 114.30806326903
vector 6668  Network.dyn_peer[14]  lookupTimeSig:vector  ETV
6668	416295 9611 178 138496 20.115 136.56959168223 308 0 1.4 145.3 92.55
vector 6669  Network.dyn_peer[15]  lookupHopsSig:vector  ETV
6669	425906 8540 183 137142 20.116 135.257830461973 290 0 24 1157 7781
vector 6670  Network.dyn_peer[15]  lookupStabilitySig:vector  ETV
6670	434446 9558 183 137142 20.116 135.257830461973 290 -2 1 145.49999997765 122.44367282221
vector 6671  Network.dyn_peer[15]  lookupTimeSig:vector  ETV
6671	444004 9079 183 137142 20.116 135.257830461973 290 0 2.2 129.4 81.94
vector 6699  Network.dyn_peer[25]  lookupHopsSig:vector  ETV
6699	713251 9819 196 138047 20.126 136.048067439195 333 0 16 1352 8538
vector 6700  Network.dyn_peer[25]  lookupStabilitySig:vector  ETV
6700	723070 10929 196 138047 20.126 136.048067439195 333 -1 1 164 128.40625
vector 6701  Network.dyn_peer[25]  lookupTimeSig:vector  ETV
6701	733999 10450 196 138047 20.126 136.048067439195 333 0 1.5 153 95.72
vector 6717  Network.dyn_peer[31]  lookupHopsSig:vector  ETV
6717	879305 8937 207 138024 20.132 136.03180380626 303 0 17 1214 7146
vector 6718  Network.dyn_peer[31]  lookupStabilitySig:vector  ETV
6718	888242 9924 207 138024 20.132 136.03180380626 303 -1.125 1 151.25 111.15625
vector 6719  Network.dyn_peer[31]  lookupTimeSig:vector  ETV
6719	898166 9510 207 138024 20.132 136.03180380626 303 0 1.3 139 82.18
vector 6633  Network.dyn_peer[3]  lookupHopsSig:vector  ETV
6633	88160 8341 213 137994 20.204 136.02450958613 284 0 18 1169 7749
vector 6634  Network.dyn_peer[3]  lookupStabilitySig:vector  ETV
6634	96501 9243 213 137994 20.204 136.02450958613 284 -1.25 1 137.875 112.828125
vector 6635  Network.dyn_peer[3]  lookupTimeSig:vector  ETV
6635	105744 8858 213 137994 20.204 136.02450958613 284 0 1.7 129.8 83.24
vector 6651  Network.dyn_peer[9]  lookupHopsSig:vector  ETV
6651	254570 8757 226 138283 20.21 136.263520770055 298 0 21 1216 8274
vector 6652  Network.dyn_peer[9]  lookupStabilitySig:vector  ETV
6652	263327 9740 226 138283 20.21 136.263520770055 298 -1.625 1 146 123.28125
vector 6653  Network.dyn_peer[9]  lookupTimeSig:vector  ETV
6653	273067 9294 226 138283 20.21 136.263520770055 298 0 2.1 136 88.84
vector 6654  Network.dyn_peer[10]  lookupHopsSig:vector  ETV
6654	282361 9092 231 137970 20.211 136.0075947218 309 0 20 1304 8616
vector 6655  Network.dyn_peer[10]  lookupStabilitySig:vector  ETV
6655	291453 10089 231 137970 20.211 136.0075947218 309 -1.5 1 146.04166665673 117.6788194312
vector 6656  Network.dyn_peer[10]  lookupTimeSig:vector  ETV
6656	301542 9677 231 137970 20.211 136.0075947218 309 0 1.9 146.3 94.81
vector 6657  Network.dyn_peer[11]  lookupHopsSig:vector  ETV
6657	311219 8946 236 137710 20.212 135.763375876954 304 0 18 1294 8238
vector 6658  Network.dyn_peer[11]  lookupStabilitySig:vector  ETV
6658	320165 9942 236 137710 20.212 135.763375876954 304 -1.25 1 142.29166665673 109.2725694312
vector 6659  Network.dyn_peer[11]  lookupTimeSig:vector  ETV
6659	330107 9501 236 137710 20.212 135.763375876954 304 0 1.6 144 90.66
vector 6660  Network.dyn_peer[12]  lookupHopsSig:vector  ETV
6660	339608 8831 242 138005 20.213 136.026824571705 300 0 16 1319 8899
vector 6661  Network.dyn_peer[12]  lookupStabilitySig:vector  ETV
6661	348439 9800 242 138005 20.213 136.026824571705 300 -1 1 135.23611110449 109.30922067754
vector 6662  Network.dyn_peer[12]  lookupTimeSig:vector  ETV
6662	358239 9387 242 138005 20.213 136.026824571705 300 0 1.6 146.1 95.11
vector 6678  Network.dyn_peer[18]  lookupHopsSig:vector  ETV
6678	511469 9853 254 138399 20.219 136.428783391894 336 0 15 1261 7275
vector 6679  Network.dyn_peer[18]  lookupStabilitySig:vector  ETV
6679	521322 10932 254 138399 20.219 136.428783391894 336 -0.875 1 178.41666665673 134.4756944312
vector 6680  Network.dyn_peer[18]  lookupTimeSig:vector  ETV
6680	532254 10481 254 138399 20.219 136.428783391894 336 0 1.3 143 81.82
vector 6693  Network.dyn_peer[23]  lookupHopsSig:vector  ETV
6693	652960 9611 265 138093 20.224 136.066987347743 326 0 18 1291 7501
vector 6694  Network.dyn_peer[23]  lookupStabilitySig:vector  ETV
6694	662571 10666 265 138093 20.224 136.066987347743 326 -1.25 1 164.66666665673 120.5069444312
vector 6695  Network.dyn_peer[23]  lookupTimeSig:vector  ETV
6695	673237 10226 265 138093 20.224 136.066987347743 326 0 1.7 146.1 86.07
vector 6708  Network.dyn_peer[28]  lookupHopsSig:vector  ETV
6708	798261 9394 276 138217 20.229 136.206079449882 319 0 35 1361 10079
vector 6709  Network.dyn_peer[28]  lookupStabilitySig:vector  ETV
6709	807655 10440 276 138217 20.229 136.206079449882 319 -3.375 1 149.02777774632 136.37924379809
vector 6710  Network.dyn_peer[28]  lookupTimeSig:vector  ETV
6710	818095 9975 276 138217 20.229 136.206079449882 319 0 3.3 152.8 109.12
vector 6711  Network.dyn_peer[29]  lookupHopsSig:vector  ETV
6711	828070 8066 281 137988 20.23 136.019100374137 274 0 23 1310 10034
vector 6712  Network.dyn_peer[29]  lookupStabilitySig:vector  ETV
6712	836136 9008 281 137988 20.23 136.019100374137 274 -1.875 1 110.48611104488 103.26485340095
vector 6713  Network.dyn_peer[29]  lookupTimeSig:vector  ETV
6713	845144 8570 281 137988 20.23 136.019100374137 274 0 2.1 141.8 101.9
vector 6645  Network.dyn_peer[7]  lookupHopsSig:vector  ETV
6645	195293 9628 298 138428 20.308 136.461107971482 327 0 32 1328 9066
vector 6646  Network.dyn_peer[7]  lookupStabilitySig:vector  ETV
6646	204921 10715 298 138428 20.308 136.461107971482 327 -3 1 161.16666662693 136.75347219573
vector 6647  Network.dyn_peer[7]  lookupTimeSig:vector  ETV
6647	215636 10242 298 138428 20.308 136.461107971482 327 0 2.8 149.1 96.01
vector 6672  Network.dyn_peer[16]  lookupHopsSig:vector  ETV
6672	453083 9059 315 137847 20.317 135.870335443355 308 0 18 1281 7833
vector 6673  Network.dyn_peer[16]  lookupStabilitySig:vector  ETV
6673	462142 10078 315 137847 20.317 135.870335443355 308 -1.25 1 147.93055555224 110.19926697163
vector 6674  Network.dyn_peer[16]  lookupTimeSig:vector  ETV
6674	472220 9640 315 137847 20.317 135.870335443355 308 0 1.7 143.4 88.22
vector 6675  Network.dyn_peer[17]  lookupHopsSig:vector  ETV
6675	481860 9313 320 138049 20.318 136.048389059695 316 0 19 1304 8190
vector 6676  Network.dyn_peer[17]  lookupStabilitySig:vector  ETV
6676	491173 10386 320 138049 20.318 136.048389059695 316 -1.375 1 153.16666662693 118.13811724348
vector 6677  Network.dyn_peer[17]  lookupTimeSig:vector  ETV
6677	501559 9910 320 138049 20.318 136.048389059695 316 0 1.7 145 87.72
vector 6702  Network.dyn_peer[26]  lookupHopsSig:vector  ETV
6702	744449 8429 335 137455 20.327 135.541902199478 287 0 25 1179 7933
vector 6703  Network.dyn_peer[26]  lookupStabilitySig:vector  ETV
6703	752878 9364 335 137455 20.327 135.541902199478 287 -2.125 1 139.65277777612 116.24556326903
vector 6704  Network.dyn_peer[26]  lookupTimeSig:vector  ETV
6704	762242 8969 335 137455 20.327 135.541902199478 287 0 2.2 132.6 86.5
vector 6639  Network.dyn_peer[5]  lookupHopsSig:vector  ETV
6639	142302 8584 348 137812 20.406 135.849298652813 293 0 23 1312 9432
vector 6640  Network.dyn_peer[5]  lookupStabilitySig:vector  ETV
6640	150886 9526 348 137812 20.406 135.849298652813 293 -1.875 1 129.04166665673 112.4288194312
vector 6641  Network.dyn_peer[5]  lookupTimeSig:vector  ETV
6641	160412 9125 348 137812 20.406 135.849298652813 293 0 2 144 98.08
vector 6681  Network.dyn_peer[19]  lookupHopsSig:vector  ETV
6681	542735 8716 373 137315 20.42 135.426967713957 296 0 19 1344 9572
vector 6682  Network.dyn_peer[19]  lookupStabilitySig:vector  ETV
6682	551451 9632 373 137315 20.42 135.426967713957 296 -1.375 1 128 109.5625
vector 6683  Network.dyn_peer[19]  lookupTimeSig:vector  ETV
6683	561083 9256 373 137315 20.42 135.426967713957 296 0 1.7 146.4 99.6
vector 6687  Network.dyn_peer[21]  lookupHopsSig:vector  ETV
6687	596078 8885 427 137365 20.522 135.462496876072 302 1 20 1350 9312
vector 6688  Network.dyn_peer[21]  lookupStabilitySig:vector  ETV
6688	604963 9877 427 137365 20.522 135.462496876072 302 -1.5 0.88888888806105 133.31944444031 110.08314042695
vector 6689  Network.dyn_peer[21]  lookupTimeSig:vector  ETV
6689	614840 9444 427 137365 20.522 135.462496876072 302 0.1 1.6 146.7 95.63
vector 6690  Network.dyn_peer[22]  lookupHopsSig:vector  ETV
6690	624284 9039 485 137558 20.623 135.641332775228 308 0 22 1218 7634
vector 6691  Network.dyn_peer[22]  lookupStabilitySig:vector  ETV
6691	633323 10021 485 137558 20.623 135.641332775228 308 -1.75 1 155.75 122.78125
vector 6692  Network.dyn_peer[22]  lookupTimeSig:vector  ETV
6692	643344 9616 485 137558 20.623 135.641332775228 308 0 2 137.1 83.07
vector 6642  Network.dyn_peer[6]  lookupHopsSig:vector  ETV
6642	169537 8127 509 137767 20.707 135.819927187562 275 0 19 1311 10251
vector 6643  Network.dyn_peer[6]  lookupStabilitySig:vector  ETV
6643	177664 9008 509 137767 20.707 135.819927187562 275 -1.375 1 111.125 107.421875
vector 6644  Network.dyn_peer[6]  lookupTimeSig:vector  ETV
6644	186672 8621 509 137767 20.707 135.819927187562 275 0 1.6 142.1 103.89
vector 6684  Network.dyn_peer[20]  lookupHopsSig:vector  ETV
6684	570339 8117 616 137206 20.821 135.30728194532 276 0 31 1311 10217
vector 6685  Network.dyn_peer[20]  lookupStabilitySig:vector  ETV
6685	578456 8995 616 137206 20.821 135.30728194532 276 -2.875 1 112.125 107.890625
vector 6686  Network.dyn_peer[20]  lookupTimeSig:vector  ETV
6686	587451 8627 616 137206 20.821 135.30728194532 276 0.1 2.5 144.7 106.27
