version 2
run Stability-83-20130524-20:23:34-3483
attr configname Stability
attr datetime 20130524-20:23:34
attr experiment Stability
attr inifile omnetpp.ini
attr iterationvars $0=1e-2
attr iterationvars2 "$0=1e-2, $repetition=3"
attr measurement $0=1e-2
attr network Network
attr processid 3483
attr repetition 3
attr replication #3
attr resultdir results
attr runnumber 83
attr seedset 83

vector 8013  Network.dyn_peer[15]  lookupHopsSig:vector  ETV
vector 8014  Network.dyn_peer[15]  lookupStabilitySig:vector  ETV
vector 8015  Network.dyn_peer[15]  lookupTimeSig:vector  ETV
vector 8022  Network.dyn_peer[18]  lookupHopsSig:vector  ETV
vector 8023  Network.dyn_peer[18]  lookupStabilitySig:vector  ETV
vector 8024  Network.dyn_peer[18]  lookupTimeSig:vector  ETV
vector 8046  Network.dyn_peer[26]  lookupHopsSig:vector  ETV
vector 8047  Network.dyn_peer[26]  lookupStabilitySig:vector  ETV
vector 8048  Network.dyn_peer[26]  lookupTimeSig:vector  ETV
vector 7968  Network.dyn_peer[0]  lookupHopsSig:vector  ETV
vector 7969  Network.dyn_peer[0]  lookupStabilitySig:vector  ETV
vector 7970  Network.dyn_peer[0]  lookupTimeSig:vector  ETV
vector 7974  Network.dyn_peer[2]  lookupHopsSig:vector  ETV
vector 7975  Network.dyn_peer[2]  lookupStabilitySig:vector  ETV
vector 7976  Network.dyn_peer[2]  lookupTimeSig:vector  ETV
vector 7980  Network.dyn_peer[4]  lookupHopsSig:vector  ETV
vector 7981  Network.dyn_peer[4]  lookupStabilitySig:vector  ETV
vector 7982  Network.dyn_peer[4]  lookupTimeSig:vector  ETV
vector 8004  Network.dyn_peer[12]  lookupHopsSig:vector  ETV
vector 8005  Network.dyn_peer[12]  lookupStabilitySig:vector  ETV
vector 8006  Network.dyn_peer[12]  lookupTimeSig:vector  ETV
vector 8025  Network.dyn_peer[19]  lookupHopsSig:vector  ETV
vector 8026  Network.dyn_peer[19]  lookupStabilitySig:vector  ETV
vector 8027  Network.dyn_peer[19]  lookupTimeSig:vector  ETV
vector 8037  Network.dyn_peer[23]  lookupHopsSig:vector  ETV
vector 8038  Network.dyn_peer[23]  lookupStabilitySig:vector  ETV
vector 8039  Network.dyn_peer[23]  lookupTimeSig:vector  ETV
vector 8058  Network.dyn_peer[30]  lookupHopsSig:vector  ETV
vector 8059  Network.dyn_peer[30]  lookupStabilitySig:vector  ETV
vector 8060  Network.dyn_peer[30]  lookupTimeSig:vector  ETV
vector 7977  Network.dyn_peer[3]  lookupHopsSig:vector  ETV
vector 7978  Network.dyn_peer[3]  lookupStabilitySig:vector  ETV
vector 7979  Network.dyn_peer[3]  lookupTimeSig:vector  ETV
vector 7983  Network.dyn_peer[5]  lookupHopsSig:vector  ETV
vector 7984  Network.dyn_peer[5]  lookupStabilitySig:vector  ETV
vector 7985  Network.dyn_peer[5]  lookupTimeSig:vector  ETV
vector 7986  Network.dyn_peer[6]  lookupHopsSig:vector  ETV
vector 7987  Network.dyn_peer[6]  lookupStabilitySig:vector  ETV
vector 7988  Network.dyn_peer[6]  lookupTimeSig:vector  ETV
vector 7989  Network.dyn_peer[7]  lookupHopsSig:vector  ETV
vector 7990  Network.dyn_peer[7]  lookupStabilitySig:vector  ETV
vector 7991  Network.dyn_peer[7]  lookupTimeSig:vector  ETV
vector 7998  Network.dyn_peer[10]  lookupHopsSig:vector  ETV
vector 7999  Network.dyn_peer[10]  lookupStabilitySig:vector  ETV
vector 8000  Network.dyn_peer[10]  lookupTimeSig:vector  ETV
vector 8007  Network.dyn_peer[13]  lookupHopsSig:vector  ETV
vector 8008  Network.dyn_peer[13]  lookupStabilitySig:vector  ETV
vector 8009  Network.dyn_peer[13]  lookupTimeSig:vector  ETV
vector 8010  Network.dyn_peer[14]  lookupHopsSig:vector  ETV
vector 8011  Network.dyn_peer[14]  lookupStabilitySig:vector  ETV
vector 8012  Network.dyn_peer[14]  lookupTimeSig:vector  ETV
vector 8016  Network.dyn_peer[16]  lookupHopsSig:vector  ETV
vector 8017  Network.dyn_peer[16]  lookupStabilitySig:vector  ETV
vector 8018  Network.dyn_peer[16]  lookupTimeSig:vector  ETV
vector 8019  Network.dyn_peer[17]  lookupHopsSig:vector  ETV
vector 8020  Network.dyn_peer[17]  lookupStabilitySig:vector  ETV
vector 8021  Network.dyn_peer[17]  lookupTimeSig:vector  ETV
vector 8028  Network.dyn_peer[20]  lookupHopsSig:vector  ETV
vector 8029  Network.dyn_peer[20]  lookupStabilitySig:vector  ETV
vector 8030  Network.dyn_peer[20]  lookupTimeSig:vector  ETV
vector 8043  Network.dyn_peer[25]  lookupHopsSig:vector  ETV
vector 8044  Network.dyn_peer[25]  lookupStabilitySig:vector  ETV
vector 8045  Network.dyn_peer[25]  lookupTimeSig:vector  ETV
vector 8052  Network.dyn_peer[28]  lookupHopsSig:vector  ETV
vector 8053  Network.dyn_peer[28]  lookupStabilitySig:vector  ETV
vector 8054  Network.dyn_peer[28]  lookupTimeSig:vector  ETV
vector 8061  Network.dyn_peer[31]  lookupHopsSig:vector  ETV
vector 8062  Network.dyn_peer[31]  lookupStabilitySig:vector  ETV
vector 8063  Network.dyn_peer[31]  lookupTimeSig:vector  ETV
vector 7971  Network.dyn_peer[1]  lookupHopsSig:vector  ETV
vector 7972  Network.dyn_peer[1]  lookupStabilitySig:vector  ETV
vector 7973  Network.dyn_peer[1]  lookupTimeSig:vector  ETV
vector 7992  Network.dyn_peer[8]  lookupHopsSig:vector  ETV
vector 7993  Network.dyn_peer[8]  lookupStabilitySig:vector  ETV
vector 7994  Network.dyn_peer[8]  lookupTimeSig:vector  ETV
vector 7995  Network.dyn_peer[9]  lookupHopsSig:vector  ETV
vector 7996  Network.dyn_peer[9]  lookupStabilitySig:vector  ETV
vector 7997  Network.dyn_peer[9]  lookupTimeSig:vector  ETV
vector 8040  Network.dyn_peer[24]  lookupHopsSig:vector  ETV
vector 8041  Network.dyn_peer[24]  lookupStabilitySig:vector  ETV
vector 8042  Network.dyn_peer[24]  lookupTimeSig:vector  ETV
vector 8055  Network.dyn_peer[29]  lookupHopsSig:vector  ETV
vector 8056  Network.dyn_peer[29]  lookupStabilitySig:vector  ETV
vector 8057  Network.dyn_peer[29]  lookupTimeSig:vector  ETV
vector 8001  Network.dyn_peer[11]  lookupHopsSig:vector  ETV
vector 8002  Network.dyn_peer[11]  lookupStabilitySig:vector  ETV
vector 8003  Network.dyn_peer[11]  lookupTimeSig:vector  ETV
vector 8031  Network.dyn_peer[21]  lookupHopsSig:vector  ETV
vector 8032  Network.dyn_peer[21]  lookupStabilitySig:vector  ETV
vector 8033  Network.dyn_peer[21]  lookupTimeSig:vector  ETV
vector 8034  Network.dyn_peer[22]  lookupHopsSig:vector  ETV
vector 8035  Network.dyn_peer[22]  lookupStabilitySig:vector  ETV
vector 8036  Network.dyn_peer[22]  lookupTimeSig:vector  ETV
vector 8049  Network.dyn_peer[27]  lookupHopsSig:vector  ETV
vector 8050  Network.dyn_peer[27]  lookupStabilitySig:vector  ETV
vector 8051  Network.dyn_peer[27]  lookupTimeSig:vector  ETV
7968	136	20.10001	1
7968	586	20.90001	7
7968	721	21.109029101086	1
7968	2005	220.40038	5
7968	2416	221.30038	8
7968	2572	221.906807476403	5
7968	3556	420.40085	4
7968	3888	421.10085	6
7968	3977	421.302708107224	1
7968	4064	421.510462829773	1
7968	4224	422.120714462592	5
7968	5274	620.50113	6
7968	5463	620.90113	3
7968	5572	621.1102321372	1
7968	5688	621.518643392844	3
7968	6408	820.00144	0
7968	6858	820.707909127687	6
7968	6951	820.91519055327	1
7968	7030	821.117909583848	1
7968	7130	821.526137468654	3
7968	8079	1020.30173	3
7968	8436	1021.00173	6
7968	8562	1021.40990560337	3
7968	8598	1021.617657440265	1
7968	8647	1022.220278554609	5
7968	9735	1220.80212	9
7968	9815	1221.00212	1
7968	10026	1221.609234499921	5
7968	10974	1420.20227	2
7968	11132	1420.50227	2
7968	11533	1421.30331577495	7
7968	12487	1620.10257	1
7968	12669	1620.40257	2
7968	13064	1621.307900829464	8
7968	13209	1621.910626573243	5
7968	13913	1820.00296	0
7968	14324	1820.70296	6
7968	14509	1821.109669310838	3
7968	15321	2020.0031	0
7968	15693	2020.5031	4
7968	15910	2020.907587921691	3
7968	16037	2021.208082565529	2
7968	17005	2220.10341	1
7968	17153	2220.30341	1
7968	17279	2220.504678551161	1
7968	17534	2221.007121517855	4
7968	18729	2420.20369	2
7968	18960	2420.510314085886	2
7968	19215	2421.013542945205	4
7968	20396	2620.50401	5
7968	20823	2621.50401	9
7968	20922	2621.809267797408	2
7968	21029	2622.312369511458	4
7968	21060	2622.517054644781	1
7968	21099	2622.9266586301	3
7968	21117	2623.128822284493	1
7968	21130	2623.333546311672	1
7968	21144	2623.537806514085	1
7968	21914	2820.2045	3
7968	22135	2820.7045	4
7968	22230	2820.910791132275	1
7968	22331	2821.116008971875	1
7968	23471	3020.30461	3
7968	23917	3021.10461	7
7968	24102	3021.612986531116	4
7968	24233	3022.216594181827	5
7968	25213	3220.40505	4
7968	25532	3221.10505	6
7968	25626	3221.308018150414	1
7968	25735	3221.72056406995	3
7968	26614	3420.20532	2
7968	27126	3421.20532	9
7968	27338	3421.712236836546	4
7968	28115	3620.00557	0
7968	28290	3620.20557	1
7968	28627	3620.810442958476	5
7968	28763	3621.11843558167	2
7968	28883	3621.52038481047	3
7968	30030	3820.50589	5
7968	30486	3821.90589	13
7968	30531	3822.213162607064	2
7968	30583	3822.822462670281	5
7968	30593	3823.026387377264	1
7968	30608	3823.334897365964	2
7968	31328	4020.10631	1
7968	31741	4021.00631	8
7968	31885	4021.407287199906	3
7968	31961	4021.707599028592	2
7968	32023	4022.209176038187	4
7968	32048	4022.517255499416	2
7968	32937	4220.40659	5
7968	33152	4220.90659	4
7968	33288	4221.20981193636	2
7968	33403	4221.518519662866	2
7968	33478	4221.823687427596	2
7968	34247	4420.00679	0
7968	34795	4421.007097351264	9
7968	35002	4421.514059468225	4
7968	35099	4421.918547359743	3
7968	35128	4422.121139772393	1
7968	35154	4422.426571314547	2
7968	35172	4422.744266374907	2
7968	35815	4620.1072	1
7968	36113	4620.7072	5
7968	37290	4820.10726	1
7968	37729	4820.907868961915	7
7968	37827	4821.111084409777	1
7968	38007	4821.715000247472	5
7968	39143	5020.60771	7
7968	39673	5021.819715540015	11
7968	40486	5220.108	1
7968	40725	5220.508	3
7968	40870	5220.809727628509	2
7968	41049	5221.218961082145	3
7968	42181	5420.20821	2
7968	42368	5420.50821	2
7968	42586	5420.918048014658	3
7968	42681	5421.126081447177	1
7968	43967	5620.60848	6
7968	44209	5621.10848	4
7968	44365	5621.617900947963	4
7968	44415	5621.923911021651	2
7968	44445	5622.14104783383	1
7968	44465	5622.351268877504	1
7968	44504	5622.857272908082	4
7968	45651	5821.00899	11
7968	45791	5821.40899	3
7968	46668	6020.20919	2
7968	47179	6021.20919	9
7968	47331	6021.612385200457	3
7968	47407	6022.017899461772	3
7968	47437	6022.227617503767	1
7968	48154	6220.10956	1
7968	48356	6220.40956	2
7968	48488	6220.709961325842	2
7969	136	20.10001	0.875
7969	586	20.90001	0.22222220897675
7969	721	21.109029101086	0.92857142537832
7969	2005	220.40038	0.375
7969	2416	221.30038	0.61904761195183
7969	2572	221.906807476403	0.8214285671711
7969	3556	420.40085	0.5
7969	3888	421.10085	0.5
7969	3977	421.302708107224	0.9375
7969	4064	421.510462829773	0.94999999925494
7969	4224	422.120714462592	0.80769230425358
7969	5274	620.50113	0.25
7969	5463	620.90113	0.66666665673256
7969	5572	621.1102321372	0.94444444403052
7969	5688	621.518643392844	0.88888888806105
7969	6408	820.00144	1
7969	6858	820.707909127687	0.45454543828964
7969	6951	820.91519055327	0.92307692021132
7969	7030	821.117909583848	0.94999999925494
7969	7130	821.526137468654	0.88461538404226
7969	8079	1020.30173	0.625
7969	8436	1021.00173	0.66666665673256
7969	8562	1021.40990560337	0.88461538404226
7969	8598	1021.617657440265	0.9666666649282
7969	8647	1022.220278554609	0.85294117033482
7969	9735	1220.80212	0.10000002384186
7969	9815	1221.00212	0.92857142537832
7969	10026	1221.609234499921	0.75
7969	10974	1420.20227	0.75
7969	11132	1420.50227	0.75
7969	11533	1421.30331577495	0.65000000596046
7969	12487	1620.10257	0.875
7969	12669	1620.40257	0.75
7969	13064	1621.307900829464	0.5
7969	13209	1621.910626573243	0.81481482088566
7969	13913	1820.00296	1
7969	14324	1820.70296	0.25
7969	14509	1821.109669310838	0.75
7969	15321	2020.0031	1
7969	15693	2020.5031	0.55555555224419
7969	15910	2020.907587921691	0.66666665673256
7969	16037	2021.208082565529	0.85714285075665
7969	17005	2220.10341	0.875
7969	17153	2220.30341	0.875
7969	17279	2220.504678551161	0.875
7969	17534	2221.007121517855	0.66666665673256
7969	18729	2420.20369	0.75
7969	18960	2420.510314085886	0.75
7969	19215	2421.013542945205	0.71428570151329
7969	20396	2620.50401	0.375
7969	20823	2621.50401	0.47058820724487
7969	20922	2621.809267797408	0.91304347664118
7969	21029	2622.312369511458	0.84615384042263
7969	21060	2622.517054644781	0.96428571268916
7969	21099	2622.9266586301	0.90322580933571
7969	21117	2623.128822284493	0.96875
7969	21130	2623.333546311672	0.96875
7969	21144	2623.537806514085	0.96969696879387
7969	21914	2820.2045	0.625
7969	22135	2820.7045	0.5
7969	22230	2820.910791132275	0.89999999850988
7969	22331	2821.116008971875	0.92857142537832
7969	23471	3020.30461	0.625
7969	23917	3021.10461	0.46153843402863
7969	24102	3021.612986531116	0.78947368264198
7969	24233	3022.216594181827	0.8214285671711
7969	25213	3220.40505	0.5
7969	25532	3221.10505	0.5
7969	25626	3221.308018150414	0.94444444403052
7969	25735	3221.72056406995	0.88000000268221
7969	26614	3420.20532	0.75
7969	27126	3421.20532	0.18181818723679
7969	27338	3421.712236836546	0.78947368264198
7969	28115	3620.00557	1
7969	28290	3620.20557	0.875
7969	28627	3620.810442958476	0.44444441795349
7969	28763	3621.11843558167	0.875
7969	28883	3621.52038481047	0.86363635957241
7969	30030	3820.50589	0.375
7969	30486	3821.90589	0.51851850748062
7969	30531	3822.213162607064	0.93548387289047
7969	30583	3822.822462670281	0.84375
7969	30593	3823.026387377264	0.96969696879387
7969	30608	3823.334897365964	0.9411764703691
7969	31328	4020.10631	0.875
7969	31741	4021.00631	0.33333331346512
7969	31885	4021.407287199906	0.83333332836628
7969	31961	4021.707599028592	0.92857142537832
7969	32023	4022.209176038187	0.87096774578094
7969	32048	4022.517255499416	0.9375
7969	32937	4220.40659	0.375
7969	33152	4220.90659	0.59999999403954
7969	33288	4221.20981193636	0.875
7969	33403	4221.518519662866	0.89999999850988
7969	33478	4221.823687427596	0.90909090638161
7969	34247	4420.00679	1
7969	34795	4421.007097351264	0.30769228935242
7969	35002	4421.514059468225	0.82608695328236
7969	35099	4421.918547359743	0.88461538404226
7969	35128	4422.121139772393	0.9666666649282
7969	35154	4422.426571314547	0.93939393758774
7969	35172	4422.744266374907	0.93939393758774
7969	35815	4620.1072	0.875
7969	36113	4620.7072	0.44444441795349
7969	37290	4820.10726	0.875
7969	37729	4820.907868961915	0.41666668653488
7969	37827	4821.111084409777	0.92307692021132
7969	38007	4821.715000247472	0.79166667163372
7969	39143	5020.60771	0.125
7969	39673	5021.819715540015	0.52173912525177
7969	40486	5220.108	0.875
7969	40725	5220.508	0.625
7969	40870	5220.809727628509	0.79999999701977
7969	41049	5221.218961082145	0.78571428358555
7969	42181	5420.20821	0.75
7969	42368	5420.50821	0.75
7969	42586	5420.918048014658	0.69999998807907
7969	42681	5421.126081447177	0.90909090638161
7969	43967	5620.60848	0.25
7969	44209	5621.10848	0.75
7969	44365	5621.617900947963	0.84000000357628
7969	44415	5621.923911021651	0.92857142537832
7969	44445	5622.14104783383	0.96774193644524
7969	44465	5622.351268877504	0.96774193644524
7969	44504	5622.857272908082	0.875
7969	45651	5821.00899	-0.10000002384186
7969	45791	5821.40899	0.86363635957241
7969	46668	6020.20919	0.75
7969	47179	6021.20919	0.30769228935242
7969	47331	6021.612385200457	0.84999999403954
7969	47407	6022.017899461772	0.89285714179277
7969	47437	6022.227617503767	0.96551724150777
7969	48154	6220.10956	0.875
7969	48356	6220.40956	0.75
7969	48488	6220.709961325842	0.77777777612209
7970	136	20.10001	0.1
7970	586	20.90001	0.8
7970	721	21.109029101086	0.2
7970	2005	220.40038	0.4
7970	2416	221.30038	0.9
7970	2572	221.906807476403	0.6
7970	3556	420.40085	0.4
7970	3888	421.10085	0.7
7970	3977	421.302708107224	0.2
7970	4064	421.510462829773	0.2
7970	4224	422.120714462592	0.6
7970	5274	620.50113	0.5
7970	5463	620.90113	0.4
7970	5572	621.1102321372	0.2
7970	5688	621.518643392844	0.4
7970	6408	820.00144	0
7970	6858	820.707909127687	0.7
7970	6951	820.91519055327	0.2
7970	7030	821.117909583848	0.2
7970	7130	821.526137468654	0.4
7970	8079	1020.30173	0.3
7970	8436	1021.00173	0.7
7970	8562	1021.40990560337	0.4
7970	8598	1021.617657440265	0.2
7970	8647	1022.220278554609	0.6
7970	9735	1220.80212	0.8
7970	9815	1221.00212	0.2
7970	10026	1221.609234499921	0.6
7970	10974	1420.20227	0.2
7970	11132	1420.50227	0.3
7970	11533	1421.30331577495	0.8
7970	12487	1620.10257	0.1
7970	12669	1620.40257	0.3
7970	13064	1621.307900829464	0.9
7970	13209	1621.910626573243	0.6
7970	13913	1820.00296	0
7970	14324	1820.70296	0.7
7970	14509	1821.109669310838	0.4
7970	15321	2020.0031	0
7970	15693	2020.5031	0.5
7970	15910	2020.907587921691	0.4
7970	16037	2021.208082565529	0.3
7970	17005	2220.10341	0.1
7970	17153	2220.30341	0.2
7970	17279	2220.504678551161	0.2
7970	17534	2221.007121517855	0.5
7970	18729	2420.20369	0.2
7970	18960	2420.510314085886	0.3
7970	19215	2421.013542945205	0.5
7970	20396	2620.50401	0.5
7970	20823	2621.50401	1
7970	20922	2621.809267797408	0.3
7970	21029	2622.312369511458	0.5
7970	21060	2622.517054644781	0.2
7970	21099	2622.9266586301	0.4
7970	21117	2623.128822284493	0.2
7970	21130	2623.333546311672	0.2
7970	21144	2623.537806514085	0.2
7970	21914	2820.2045	0.2
7970	22135	2820.7045	0.5
7970	22230	2820.910791132275	0.2
7970	22331	2821.116008971875	0.2
7970	23471	3020.30461	0.3
7970	23917	3021.10461	0.8
7970	24102	3021.612986531116	0.5
7970	24233	3022.216594181827	0.6
7970	25213	3220.40505	0.4
7970	25532	3221.10505	0.7
7970	25626	3221.308018150414	0.2
7970	25735	3221.72056406995	0.4
7970	26614	3420.20532	0.2
7970	27126	3421.20532	1
7970	27338	3421.712236836546	0.5
7970	28115	3620.00557	0
7970	28290	3620.20557	0.2
7970	28627	3620.810442958476	0.6
7970	28763	3621.11843558167	0.3
7970	28883	3621.52038481047	0.4
7970	30030	3820.50589	0.5
7970	30486	3821.90589	1.4
7970	30531	3822.213162607064	0.3
7970	30583	3822.822462670281	0.6
7970	30593	3823.026387377264	0.2
7970	30608	3823.334897365964	0.3
7970	31328	4020.10631	0.1
7970	31741	4021.00631	0.9
7970	31885	4021.407287199906	0.4
7970	31961	4021.707599028592	0.3
7970	32023	4022.209176038187	0.5
7970	32048	4022.517255499416	0.3
7970	32937	4220.40659	0.4
7970	33152	4220.90659	0.5
7970	33288	4221.20981193636	0.3
7970	33403	4221.518519662866	0.3
7970	33478	4221.823687427596	0.3
7970	34247	4420.00679	0
7970	34795	4421.007097351264	1
7970	35002	4421.514059468225	0.5
7970	35099	4421.918547359743	0.4
7970	35128	4422.121139772393	0.2
7970	35154	4422.426571314547	0.3
7970	35172	4422.744266374907	0.3
7970	35815	4620.1072	0.1
7970	36113	4620.7072	0.6
7970	37290	4820.10726	0.1
7970	37729	4820.907868961915	0.8
7970	37827	4821.111084409777	0.2
7970	38007	4821.715000247472	0.6
7970	39143	5020.60771	0.6
7970	39673	5021.819715540015	1.2
7970	40486	5220.108	0.1
7970	40725	5220.508	0.4
7970	40870	5220.809727628509	0.3
7970	41049	5221.218961082145	0.4
7970	42181	5420.20821	0.2
7970	42368	5420.50821	0.3
7970	42586	5420.918048014658	0.4
7970	42681	5421.126081447177	0.2
7970	43967	5620.60848	0.6
7970	44209	5621.10848	0.5
7970	44365	5621.617900947963	0.5
7970	44415	5621.923911021651	0.3
7970	44445	5622.14104783383	0.2
7970	44465	5622.351268877504	0.2
7970	44504	5622.857272908082	0.5
7970	45651	5821.00899	1
7970	45791	5821.40899	0.4
7970	46668	6020.20919	0.2
7970	47179	6021.20919	1
7970	47331	6021.612385200457	0.4
7970	47407	6022.017899461772	0.4
7970	47437	6022.227617503767	0.2
7970	48154	6220.10956	0.1
7970	48356	6220.40956	0.3
7970	48488	6220.709961325842	0.3
7971	290	20.30002	3
7971	803	21.309655636705	9
7971	954	21.726120027421	3
7971	1013	22.132311403021	3
7971	1058	22.539734320468	3
7971	1088	22.848056409705	2
7971	1985	220.30059	4
7971	2114	220.60059	2
7971	2258	220.905427777747	2
7971	2381	221.144848870243	1
7971	3590	420.50074	5
7971	3884	421.10074	5
7971	4050	421.504722985278	3
7971	4233	422.213139946632	6
7971	5094	620.20115	2
7971	5293	620.507825624612	2
7971	5546	621.017306606259	4
7971	5690	621.52252568629	4
7971	6421	820.00147	0
7971	6747	820.50147	4
7971	6909	820.811346367163	2
7971	7033	821.119605469944	2
7971	8187	1020.50167	5
7971	8292	1020.70167	1
7971	8492	1021.110505779177	3
7971	9395	1220.20198	2
7971	9648	1220.616385033503	3
7971	10073	1221.723653354646	10
7971	10127	1221.932265518511	1
7971	10986	1420.20231	2
7971	11302	1420.80231	5
7971	12601	1620.30246	3
7971	12753	1620.60246	2
7971	13067	1621.308324809632	6
7971	14167	1820.40283	5
7971	14441	1821.00283	5
7971	14574	1821.30648633626	2
7971	14735	1822.12077135738	7
7971	14759	1822.429309764907	2
7971	15546	2020.20329	2
7971	15799	2020.70329	4
7971	15934	2020.917277288669	1
7971	16874	2220.00337	0
7971	17144	2220.30337	2
7971	17483	2220.9048691214	5
7971	17571	2221.105651765489	1
7971	17828	2222.007840136194	8
7971	18825	2420.30382	3
7971	18940	2420.50382	1
7971	19155	2420.910265292467	3
7971	19263	2421.115012061018	1
7971	20217	2620.20406	3
7971	20464	2620.605745440738	3
7971	20601	2620.907419554123	2
7971	20697	2621.113035504342	1
7971	20847	2621.514920734068	3
7971	22090	2820.60437	6
7971	22211	2820.90437	2
7971	22318	2821.112229505088	1
7971	22465	2821.51684136185	3
7971	23661	3020.60466	7
7971	23760	3020.80466	1
7971	23975	3021.213477418057	3
7971	24874	3220.00493	0
7971	25199	3220.40493	3
7971	25457	3220.912376020196	4
7971	25618	3221.224677139211	2
7971	26660	3420.30524	3
7971	26879	3420.70524	3
7971	27010	3420.915172055601	1
7971	27282	3421.519872001048	5
7971	28285	3620.20553	2
7971	28552	3620.70553	4
7971	28717	3621.009672143675	2
7971	28804	3621.21588398134	1
7971	29929	3820.30586	3
7971	30119	3820.70586	3
7971	30292	3821.112126027279	3
7971	30439	3821.62018541924	4
7971	31308	4020.10621	1
7971	31489	4020.40621	2
7971	31752	4021.012876598314	5
7971	31863	4021.313802652268	2
7971	32801	4220.20644	2
7971	33008	4220.60644	3
7971	33178	4220.916261427217	2
7971	34461	4420.30668	4
7971	34790	4421.00668	6
7971	34878	4421.207560569699	1
7971	35008	4421.515287395798	2
7971	35144	4422.229878551813	6
7971	35164	4422.630376417038	3
7971	35178	4422.938208536682	2
7971	35187	4423.346100190879	3
7971	35822	4620.10722	1
7971	35927	4620.30722	1
7971	36296	4621.209011575225	8
7971	36483	4622.014393335733	7
7971	37332	4820.10745	1
7971	37689	4820.80745	6
7971	37800	4821.016845267881	1
7971	37911	4821.319428194111	2
7971	37974	4821.520785861207	1
7971	39091	5020.50768	5
7971	39240	5020.80768	2
7971	39429	5021.123135472705	2
7971	39510	5021.329860333494	1
7971	40535	5220.20789	2
7971	40944	5221.00789	7
7971	41101	5221.41125849553	3
7971	41198	5221.720402625057	2
7971	41254	5221.930329284097	1
7971	42205	5420.2083	2
7971	42323	5420.4083	1
7971	42460	5420.62547741465	1
7971	42541	5420.831876373351	1
7971	43777	5620.30846	4
7971	44066	5620.80846	4
7971	44197	5621.018394039136	1
7971	44300	5621.321867959248	2
7971	45175	5820.10891	1
7971	45459	5820.60891	4
7971	45601	5820.909506160499	2
7971	46772	6020.40905	4
7971	47031	6020.90905	4
7971	47246	6021.32250799297	3
7971	47350	6021.628690259294	2
7971	48284	6220.30949	3
7971	48478	6220.70949	3
7971	48642	6221.115879500806	3
7971	48804	6221.634638869102	4
7972	290	20.30002	0.625
7972	803	21.309655636705	0.55000001192093
7972	954	21.726120027421	0.90322580933571
7972	1013	22.132311403021	0.90909090638161
7972	1058	22.539734320468	0.91176470369101
7972	1088	22.848056409705	0.94444444403052
7972	1985	220.30059	0.5
7972	2114	220.60059	0.75
7972	2258	220.905427777747	0.83333332836628
7972	2381	221.144848870243	0.9411764703691
7972	3590	420.50074	0.375
7972	3884	421.10074	0.58333334326744
7972	4050	421.504722985278	0.84999999403954
7972	4233	422.213139946632	0.78571428358555
7972	5094	620.20115	0.75
7972	5293	620.507825624612	0.75
7972	5546	621.017306606259	0.75
7972	5690	621.52252568629	0.85714285075665
7972	6421	820.00147	1
7972	6747	820.50147	0.5
7972	6909	820.811346367163	0.83333332836628
7972	7033	821.119605469944	0.89999999850988
7972	8187	1020.50167	0.44444441795349
7972	8292	1020.70167	0.89999999850988
7972	8492	1021.110505779177	0.84999999403954
7972	9395	1220.20198	0.75
7972	9648	1220.616385033503	0.66666665673256
7972	10073	1221.723653354646	0.54545453190804
7972	10127	1221.932265518511	0.95833333209157
7972	10986	1420.20231	0.75
7972	11302	1420.80231	0.44444441795349
7972	12601	1620.30246	0.625
7972	12753	1620.60246	0.75
7972	13067	1621.308324809632	0.625
7972	14167	1820.40283	0.375
7972	14441	1821.00283	0.44444441795349
7972	14574	1821.30648633626	0.89473684132099
7972	14735	1822.12077135738	0.77419355511665
7972	14759	1822.429309764907	0.9375
7972	15546	2020.20329	0.75
7972	15799	2020.70329	0.55555555224419
7972	15934	2020.917277288669	0.89999999850988
7972	16874	2220.00337	1
7972	17144	2220.30337	0.75
7972	17483	2220.9048691214	0.54545453190804
7972	17571	2221.105651765489	0.92307692021132
7972	17828	2222.007840136194	0.68000000715256
7972	18825	2420.30382	0.625
7972	18940	2420.50382	0.875
7972	19155	2420.910265292467	0.75
7972	19263	2421.115012061018	0.9473684206605
7972	20217	2620.20406	0.625
7972	20464	2620.605745440738	0.625
7972	20601	2620.907419554123	0.77777777612209
7972	20697	2621.113035504342	0.92857142537832
7972	20847	2621.514920734068	0.84210526943207
7972	22090	2820.60437	0.25
7972	22211	2820.90437	0.79999999701977
7972	22318	2821.112229505088	0.92307692021132
7972	22465	2821.51684136185	0.84210526943207
7972	23661	3020.60466	0.125
7972	23760	3020.80466	0.875
7972	23975	3021.213477418057	0.8125
7972	24874	3220.00493	1
7972	25199	3220.40493	0.625
7972	25457	3220.912376020196	0.59999999403954
7972	25618	3221.224677139211	0.8823529407382
7972	26660	3420.30524	0.625
7972	26879	3420.70524	0.625
7972	27010	3420.915172055601	0.88888888806105
7972	27282	3421.519872001048	0.66666665673256
7972	28285	3620.20553	0.75
7972	28552	3620.70553	0.5
7972	28717	3621.009672143675	0.84615384042263
7972	28804	3621.21588398134	0.9473684206605
7972	29929	3820.30586	0.625
7972	30119	3820.70586	0.625
7972	30292	3821.112126027279	0.76923076808453
7972	30439	3821.62018541924	0.83333332836628
7972	31308	4020.10621	0.875
7972	31489	4020.40621	0.75
7972	31752	4021.012876598314	0.58333334326744
7972	31863	4021.313802652268	0.8823529407382
7972	32801	4220.20644	0.75
7972	33008	4220.60644	0.625
7972	33178	4220.916261427217	0.81818181276321
7972	34461	4420.30668	0.5
7972	34790	4421.00668	0.53846153616905
7972	34878	4421.207560569699	0.9375
7972	35008	4421.515287395798	0.91304347664118
7972	35144	4422.229878551813	0.8125
7972	35164	4422.630376417038	0.90909090638161
7972	35178	4422.938208536682	0.9411764703691
7972	35187	4423.346100190879	0.9142857119441
7972	35822	4620.10722	0.875
7972	35927	4620.30722	0.875
7972	36296	4621.209011575225	0.55555555224419
7972	36483	4622.014393335733	0.75
7972	37332	4820.10745	0.875
7972	37689	4820.80745	0.39999997615814
7972	37800	4821.016845267881	0.92307692021132
7972	37911	4821.319428194111	0.88888888806105
7972	37974	4821.520785861207	0.95238095149398
7972	39091	5020.50768	0.375
7972	39240	5020.80768	0.75
7972	39429	5021.123135472705	0.79999999701977
7972	39510	5021.329860333494	0.91666666418314
7972	40535	5220.20789	0.75
7972	40944	5221.00789	0.41666668653488
7972	41101	5221.41125849553	0.83333332836628
7972	41198	5221.720402625057	0.90476190298796
7972	41254	5221.930329284097	0.95652173832059
7972	42205	5420.2083	0.75
7972	42323	5420.4083	0.875
7972	42460	5420.62547741465	0.88888888806105
7972	42541	5420.831876373351	0.88888888806105
7972	43777	5620.30846	0.5
7972	44066	5620.80846	0.55555555224419
7972	44197	5621.018394039136	0.9375
7972	44300	5621.321867959248	0.91304347664118
7972	45175	5820.10891	0.875
7972	45459	5820.60891	0.5
7972	45601	5820.909506160499	0.75
7972	46772	6020.40905	0.5
7972	47031	6020.90905	0.55555555224419
7972	47246	6021.32250799297	0.79999999701977
7972	47350	6021.628690259294	0.90909090638161
7972	48284	6220.30949	0.625
7972	48478	6220.70949	0.66666665673256
7972	48642	6221.115879500806	0.78571428358555
7972	48804	6221.634638869102	0.85185185074806
7973	290	20.30002	0.3
7973	803	21.309655636705	1
7973	954	21.726120027421	0.4
7973	1013	22.132311403021	0.4
7973	1058	22.539734320468	0.4
7973	1088	22.848056409705	0.3
7973	1985	220.30059	0.3
7973	2114	220.60059	0.3
7973	2258	220.905427777747	0.3
7973	2381	221.144848870243	0.2
7973	3590	420.50074	0.5
7973	3884	421.10074	0.6
7973	4050	421.504722985278	0.4
7973	4233	422.213139946632	0.7
7973	5094	620.20115	0.2
7973	5293	620.507825624612	0.3
7973	5546	621.017306606259	0.5
7973	5690	621.52252568629	0.5
7973	6421	820.00147	0
7973	6747	820.50147	0.5
7973	6909	820.811346367163	0.3
7973	7033	821.119605469944	0.3
7973	8187	1020.50167	0.5
7973	8292	1020.70167	0.2
7973	8492	1021.110505779177	0.4
7973	9395	1220.20198	0.2
7973	9648	1220.616385033503	0.4
7973	10073	1221.723653354646	1.1
7973	10127	1221.932265518511	0.2
7973	10986	1420.20231	0.2
7973	11302	1420.80231	0.6
7973	12601	1620.30246	0.3
7973	12753	1620.60246	0.3
7973	13067	1621.308324809632	0.7
7973	14167	1820.40283	0.4
7973	14441	1821.00283	0.6
7973	14574	1821.30648633626	0.3
7973	14735	1822.12077135738	0.8
7973	14759	1822.429309764907	0.3
7973	15546	2020.20329	0.2
7973	15799	2020.70329	0.5
7973	15934	2020.917277288669	0.2
7973	16874	2220.00337	0
7973	17144	2220.30337	0.3
7973	17483	2220.9048691214	0.6
7973	17571	2221.105651765489	0.2
7973	17828	2222.007840136194	0.9
7973	18825	2420.30382	0.3
7973	18940	2420.50382	0.2
7973	19155	2420.910265292467	0.4
7973	19263	2421.115012061018	0.2
7973	20217	2620.20406	0.2
7973	20464	2620.605745440738	0.4
7973	20601	2620.907419554123	0.3
7973	20697	2621.113035504342	0.2
7973	20847	2621.514920734068	0.4
7973	22090	2820.60437	0.6
7973	22211	2820.90437	0.3
7973	22318	2821.112229505088	0.2
7973	22465	2821.51684136185	0.4
7973	23661	3020.60466	0.6
7973	23760	3020.80466	0.2
7973	23975	3021.213477418057	0.4
7973	24874	3220.00493	0
7973	25199	3220.40493	0.4
7973	25457	3220.912376020196	0.5
7973	25618	3221.224677139211	0.3
7973	26660	3420.30524	0.3
7973	26879	3420.70524	0.4
7973	27010	3420.915172055601	0.2
7973	27282	3421.519872001048	0.6
7973	28285	3620.20553	0.2
7973	28552	3620.70553	0.5
7973	28717	3621.009672143675	0.3
7973	28804	3621.21588398134	0.2
7973	29929	3820.30586	0.3
7973	30119	3820.70586	0.4
7973	30292	3821.112126027279	0.4
7973	30439	3821.62018541924	0.5
7973	31308	4020.10621	0.1
7973	31489	4020.40621	0.3
7973	31752	4021.012876598314	0.6
7973	31863	4021.313802652268	0.3
7973	32801	4220.20644	0.2
7973	33008	4220.60644	0.4
7973	33178	4220.916261427217	0.3