file 418708 1369674151                                          
version 2
run Stability-90-20130524-20:23:46-3483
attr configname Stability
attr datetime 20130524-20:23:46
attr experiment Stability
attr inifile omnetpp.ini
attr iterationvars $0=1e-3
attr iterationvars2 "$0=1e-3, $repetition=0"
attr measurement $0=1e-3
attr network Network
attr processid 3483
attr repetition 0
attr replication #0
attr resultdir results
attr runnumber 90
attr seedset 90
vector 8664  Network.dyn_peer[8]  lookupHopsSig:vector  ETV
8664	109081 4042 55 47912 20.000009 6222.440600961051 144 0 11 434 1966
vector 8665  Network.dyn_peer[8]  lookupStabilitySig:vector  ETV
8665	113123 5538 55 47912 20.000009 6222.440600961051 144 0.11111110448837 1 112.57398525625 92.892883290322
vector 8666  Network.dyn_peer[8]  lookupTimeSig:vector  ETV
8666	118661 4315 55 47912 20.000009 6222.440600961051 144 0 1.2 54.2 27.76
vector 8667  Network.dyn_peer[9]  lookupHopsSig:vector  ETV
8667	122976 3587 62 47364 20.00001 6220.616354708687 129 0 12 361 1645
vector 8668  Network.dyn_peer[9]  lookupStabilitySig:vector  ETV
8668	126563 4780 62 47364 20.00001 6220.616354708687 129 0.125 1 100.38133096881 81.772754028275
vector 8669  Network.dyn_peer[9]  lookupTimeSig:vector  ETV
8669	131343 3829 62 47364 20.00001 6220.616354708687 129 0 1.3 45.5 23.19
vector 8730  Network.dyn_peer[30]  lookupHopsSig:vector  ETV
8730	394529 3706 129 47717 20.000031 6221.503764470425 134 0 14 440 2240
vector 8731  Network.dyn_peer[30]  lookupStabilitySig:vector  ETV
8731	398235 5020 129 47717 20.000031 6221.503764470425 134 0.125 1 102.00991222449 82.274985252834
vector 8732  Network.dyn_peer[30]  lookupTimeSig:vector  ETV
8732	403255 3961 129 47717 20.000031 6221.503764470425 134 0 1.5 54.1 30.83
vector 8643  Network.dyn_peer[1]  lookupHopsSig:vector  ETV
8643	20606 3804 138 47744 20.100002 6221.51762517718 137 0 15 457 2369
vector 8644  Network.dyn_peer[1]  lookupStabilitySig:vector  ETV
8644	24410 5242 138 47744 20.100002 6221.51762517718 137 0.11111110448837 1 104.58665289916 84.329983379673
vector 8645  Network.dyn_peer[1]  lookupTimeSig:vector  ETV
8645	29652 4061 138 47744 20.100002 6221.51762517718 137 0 1.6 56 32.12
vector 8649  Network.dyn_peer[3]  lookupHopsSig:vector  ETV
8649	44421 4017 144 47440 20.100004 6220.806598904519 143 0 16 447 2301
vector 8650  Network.dyn_peer[3]  lookupStabilitySig:vector  ETV
8650	48438 5543 144 47440 20.100004 6220.806598904519 143 0.125 1 110.97199627571 91.050169532772
vector 8651  Network.dyn_peer[3]  lookupTimeSig:vector  ETV
8651	53981 4290 144 47440 20.100004 6220.806598904519 143 0 1.7 55.4 31.54
vector 8676  Network.dyn_peer[12]  lookupHopsSig:vector  ETV
8676	162324 3628 157 47733 20.100013 6221.511900065645 132 0 11 418 1900
vector 8677  Network.dyn_peer[12]  lookupStabilitySig:vector  ETV
8677	165952 4992 157 47733 20.100013 6221.511900065645 132 0.11111110448837 1 100.49667423777 81.060241580955
vector 8678  Network.dyn_peer[12]  lookupTimeSig:vector  ETV
8678	170944 3880 157 47733 20.100013 6221.511900065645 132 0 1.2 51.7 26.73
vector 8679  Network.dyn_peer[13]  lookupHopsSig:vector  ETV
8679	174824 3324 162 46907 20.100014 6120.81765371248 120 0 5 224 556
vector 8680  Network.dyn_peer[13]  lookupStabilitySig:vector  ETV
8680	178148 3751 162 46907 20.100014 6120.81765371248 120 0.375 1 92 72.6875
vector 8681  Network.dyn_peer[13]  lookupTimeSig:vector  ETV
8681	181899 3560 162 46907 20.100014 6120.81765371248 120 0 0.5 29.5 8.19
vector 8688  Network.dyn_peer[16]  lookupHopsSig:vector  ETV
8688	209313 3790 169 47817 20.100017 6221.811795368101 136 0 12 445 2069
vector 8689  Network.dyn_peer[16]  lookupStabilitySig:vector  ETV
8689	213103 5180 169 47817 20.100017 6221.811795368101 136 0.125 1 103.0365298558 82.642487621851
vector 8690  Network.dyn_peer[16]  lookupTimeSig:vector  ETV
8690	218283 4053 169 47817 20.100017 6221.811795368101 136 0 1.3 54.6 28.8
vector 8700  Network.dyn_peer[20]  lookupHopsSig:vector  ETV
8700	262233 3790 177 47838 20.100021 6221.912107272144 136 0 12 455 2381
vector 8701  Network.dyn_peer[20]  lookupStabilitySig:vector  ETV
8701	266023 5127 177 47838 20.100021 6221.912107272144 136 0.10000002384186 1 104.13459612802 84.5227567641
vector 8702  Network.dyn_peer[20]  lookupTimeSig:vector  ETV
8702	271150 4049 177 47838 20.100021 6221.912107272144 136 0 1.3 55.7 32.25
vector 8709  Network.dyn_peer[23]  lookupHopsSig:vector  ETV
8709	300463 4078 184 47663 20.100024 6221.312044775656 146 0 11 482 2228
vector 8710  Network.dyn_peer[23]  lookupStabilitySig:vector  ETV
8710	304541 5694 184 47663 20.100024 6221.312044775656 146 0.10000002384186 1 112.31114588864 91.232253000736
vector 8711  Network.dyn_peer[23]  lookupTimeSig:vector  ETV
8711	310235 4357 184 47663 20.100024 6221.312044775656 146 0 1.2 59.4 31.46
vector 8718  Network.dyn_peer[26]  lookupHopsSig:vector  ETV
8718	341800 4106 191 47722 20.100027 6221.50623991245 147 0 11 498 2344
vector 8719  Network.dyn_peer[26]  lookupStabilitySig:vector  ETV
8719	345906 5612 191 47722 20.100027 6221.50623991245 147 0.125 1 112.01963959448 90.206321852129
vector 8720  Network.dyn_peer[26]  lookupTimeSig:vector  ETV
8720	351518 4389 191 47722 20.100027 6221.50623991245 147 0 1.2 60.9 32.33
vector 8721  Network.dyn_peer[27]  lookupHopsSig:vector  ETV
8721	355907 3058 196 47759 20.100028 6221.605830264592 112 0 15 401 2121
vector 8722  Network.dyn_peer[27]  lookupStabilitySig:vector  ETV
8722	358965 4117 196 47759 20.100028 6221.605830264592 112 0.25 1 81.130679052323 62.613717634326
vector 8723  Network.dyn_peer[27]  lookupTimeSig:vector  ETV
8723	363082 3273 196 47759 20.100028 6221.605830264592 112 0 1.6 47.8 28.3
vector 8640  Network.dyn_peer[0]  lookupHopsSig:vector  ETV
8640	6379 4137 207 47609 20.200001 6221.203339744938 148 0 9 511 2335
vector 8641  Network.dyn_peer[0]  lookupStabilitySig:vector  ETV
8641	10516 5663 207 47609 20.200001 6221.203339744938 148 0 1 111.8301837258 90.636634926003
vector 8642  Network.dyn_peer[0]  lookupTimeSig:vector  ETV
8642	16179 4427 207 47609 20.200001 6221.203339744938 148 0 1 62.3 32.11
vector 8646  Network.dyn_peer[2]  lookupHopsSig:vector  ETV
8646	33713 3129 213 47556 20.200003 6221.100936 115 0 11 372 1832
vector 8647  Network.dyn_peer[2]  lookupStabilitySig:vector  ETV
8647	36842 4230 213 47556 20.200003 6221.100936 115 0.27272725105286 1 85.493264548481 66.807112213013
vector 8648  Network.dyn_peer[2]  lookupTimeSig:vector  ETV
8648	41072 3349 213 47556 20.200003 6221.100936 115 0 1.2 45.2 25.2
vector 8670  Network.dyn_peer[10]  lookupHopsSig:vector  ETV
8670	135172 3578 226 47763 20.200011 6221.607982881331 129 0 8 391 1621
vector 8671  Network.dyn_peer[10]  lookupStabilitySig:vector  ETV
8671	138750 4792 226 47763 20.200011 6221.607982881331 129 0.27272725105286 1 98.508140204474 78.325632724404
vector 8672  Network.dyn_peer[10]  lookupTimeSig:vector  ETV
8672	143542 3824 226 47763 20.200011 6221.607982881331 129 0 0.9 48.6 23.64
vector 8691  Network.dyn_peer[17]  lookupHopsSig:vector  ETV
8691	222336 3690 236 47988 20.200018 6224.971179380794 132 0 14 441 2173
vector 8692  Network.dyn_peer[17]  lookupStabilitySig:vector  ETV
8692	226026 5066 236 47988 20.200018 6224.971179380794 132 0.10000002384186 1 99.942441727966 80.094702902326
vector 8693  Network.dyn_peer[17]  lookupTimeSig:vector  ETV
8693	231092 3942 236 47988 20.200018 6224.971179380794 132 0 1.5 54 29.7
vector 8712  Network.dyn_peer[24]  lookupHopsSig:vector  ETV
8712	314592 4219 247 47953 20.200025 6223.131365945209 150 0 10 485 2255
vector 8713  Network.dyn_peer[24]  lookupStabilitySig:vector  ETV
8713	318811 5831 247 47953 20.200025 6223.131365945209 150 0.090909063816071 1 115.79108805396 94.412416637299
vector 8714  Network.dyn_peer[24]  lookupTimeSig:vector  ETV
8714	324642 4504 247 47953 20.200025 6223.131365945209 150 0 1 59.8 31.24
vector 8724  Network.dyn_peer[28]  lookupHopsSig:vector  ETV
8724	366355 4395 254 47807 20.200029 6221.724514637924 156 0 15 514 2366
vector 8725  Network.dyn_peer[28]  lookupStabilitySig:vector  ETV
8725	370750 6121 254 47807 20.200029 6221.724514637924 156 0.125 1 120.81047105417 98.278022852939
vector 8726  Network.dyn_peer[28]  lookupTimeSig:vector  ETV
8726	376871 4695 254 47807 20.200029 6221.724514637924 156 0 1.6 63.2 32.78
vector 8733  Network.dyn_peer[31]  lookupHopsSig:vector  ETV
8733	407216 3372 262 47834 20.200032 6221.908321982569 123 0 9 385 1799
vector 8734  Network.dyn_peer[31]  lookupStabilitySig:vector  ETV
8734	410588 4516 262 47834 20.200032 6221.908321982569 123 0.22222220897675 1 92.226938378066 73.513096879948
vector 8735  Network.dyn_peer[31]  lookupTimeSig:vector  ETV
8735	415104 3604 262 47834 20.200032 6221.908321982569 123 0 1 47.4 24.94
vector 8652  Network.dyn_peer[4]  lookupHopsSig:vector  ETV
8652	58271 3873 277 47786 20.300005 6221.707252865103 139 0 12 444 2100
vector 8653  Network.dyn_peer[4]  lookupStabilitySig:vector  ETV
8653	62144 5290 277 47786 20.300005 6221.707252865103 139 0.125 1 106.62451793998 86.436598266682
vector 8654  Network.dyn_peer[4]  lookupTimeSig:vector  ETV
8654	67434 4144 277 47786 20.300005 6221.707252865103 139 0 1.3 54.8 29.28
vector 8658  Network.dyn_peer[6]  lookupHopsSig:vector  ETV
8658	82914 3457 283 47704 20.300007 6221.418058115636 125 0 13 399 2033
vector 8659  Network.dyn_peer[6]  lookupStabilitySig:vector  ETV
8659	86371 4693 283 47704 20.300007 6221.418058115636 125 0.19999998807907 1 94.195094650611 75.565837961309
vector 8660  Network.dyn_peer[6]  lookupTimeSig:vector  ETV
8660	91064 3690 283 47704 20.300007 6221.418058115636 125 0 1.4 48.9 27.71
vector 8682  Network.dyn_peer[14]  lookupHopsSig:vector  ETV
8682	185459 3275 295 47491 20.300015 6220.911426435585 119 0 9 374 1650
vector 8683  Network.dyn_peer[14]  lookupStabilitySig:vector  ETV
8683	188734 4404 295 47491 20.300015 6220.911426435585 119 0.19999998807907 1 88.98084499687 69.607208797244
vector 8684  Network.dyn_peer[14]  lookupTimeSig:vector  ETV
8684	193138 3507 295 47491 20.300015 6220.911426435585 119 0 1 46 23.46
vector 8694  Network.dyn_peer[18]  lookupHopsSig:vector  ETV
8694	235034 4356 302 47571 20.300019 6221.105667417246 155 0 11 502 2324
vector 8695  Network.dyn_peer[18]  lookupStabilitySig:vector  ETV
8695	239390 6073 302 47571 20.300019 6221.105667417246 155 0.125 1 120.18309854157 98.917000219499
vector 8696  Network.dyn_peer[18]  lookupTimeSig:vector  ETV
8696	245463 4656 302 47571 20.300019 6221.105667417246 155 0 1.2 62.1 32.31
vector 8697  Network.dyn_peer[19]  lookupHopsSig:vector  ETV
8697	250119 3538 307 47894 20.30002 6222.312776388416 128 0 12 422 1986
vector 8698  Network.dyn_peer[19]  lookupStabilitySig:vector  ETV
8698	253657 4795 307 47894 20.30002 6222.312776388416 128 0.10000002384186 1 96.252193858847 76.48326918255
vector 8699  Network.dyn_peer[19]  lookupTimeSig:vector  ETV
8699	258452 3781 307 47894 20.30002 6222.312776388416 128 0 1.3 51.6 27.48
vector 8703  Network.dyn_peer[21]  lookupHopsSig:vector  ETV
8703	275199 3396 313 47789 20.300022 6221.708359492182 123 0 17 419 2227
vector 8704  Network.dyn_peer[21]  lookupStabilitySig:vector  ETV
8704	278595 4635 313 47789 20.300022 6221.708359492182 123 0.22222220897675 1 91.400802331045 72.21118755084
vector 8705  Network.dyn_peer[21]  lookupTimeSig:vector  ETV
8705	283230 3628 313 47789 20.300022 6221.708359492182 123 0 1.8 50.5 29.37
vector 8706  Network.dyn_peer[22]  lookupHopsSig:vector  ETV
8706	286858 3933 318 47800 20.300023 6221.714882752861 141 0 12 497 2611
vector 8707  Network.dyn_peer[22]  lookupStabilitySig:vector  ETV
8707	290791 5471 318 47800 20.300023 6221.714882752861 141 0.25 1 107.17744455859 86.428375066361
vector 8708  Network.dyn_peer[22]  lookupTimeSig:vector  ETV
8708	296262 4201 318 47800 20.300023 6221.714882752861 141 0 1.3 60.3 35.35
vector 8715  Network.dyn_peer[25]  lookupHopsSig:vector  ETV
8715	329146 3687 325 47828 20.300026 6221.823619098856 133 0 11 442 2058
vector 8716  Network.dyn_peer[25]  lookupStabilitySig:vector  ETV
8716	332833 5027 325 47828 20.300026 6221.823619098856 133 0.11111110448837 1 100.95827523433 80.955475829933
vector 8717  Network.dyn_peer[25]  lookupTimeSig:vector  ETV
8717	337860 3940 325 47828 20.300026 6221.823619098856 133 0 1.2 54.2 28.9
vector 8655  Network.dyn_peer[5]  lookupHopsSig:vector  ETV
8655	71578 3312 351 47641 20.400006 6221.225564891394 121 0 9 393 1767
vector 8656  Network.dyn_peer[5]  lookupStabilitySig:vector  ETV
8656	74890 4476 351 47641 20.400006 6221.225564891394 121 0.18181818723679 1 89.773518245667 70.274814409845
vector 8657  Network.dyn_peer[5]  lookupTimeSig:vector  ETV
8657	79366 3548 351 47641 20.400006 6221.225564891394 121 0 1 48 24.7
vector 8661  Network.dyn_peer[7]  lookupHopsSig:vector  ETV
8661	94754 4159 357 47962 20.400008 6223.330248012838 148 0 10 521 2597
vector 8662  Network.dyn_peer[7]  lookupStabilitySig:vector  ETV
8662	98913 5722 357 47962 20.400008 6223.330248012838 148 0.22222220897675 1 113.51192157716 91.874316998823
vector 8663  Network.dyn_peer[7]  lookupTimeSig:vector  ETV
8663	104635 4446 357 47962 20.400008 6223.330248012838 148 0 1.1 63.4 35.64
vector 8685  Network.dyn_peer[15]  lookupHopsSig:vector  ETV
8685	196645 3666 369 47699 20.400016 6221.413986767369 132 0 10 400 1846
vector 8686  Network.dyn_peer[15]  lookupStabilitySig:vector  ETV
8686	200311 5083 369 47699 20.400016 6221.413986767369 132 0.18181818723679 1 100.85643745959 81.203387988448
vector 8687  Network.dyn_peer[15]  lookupTimeSig:vector  ETV
8687	205394 3919 369 47699 20.400016 6221.413986767369 132 0 1.1 49.8 25.78
vector 8727  Network.dyn_peer[29]  lookupHopsSig:vector  ETV
8727	381566 3766 385 47778 20.40003 6221.624079899298 135 0 11 425 1865
vector 8728  Network.dyn_peer[29]  lookupStabilitySig:vector  ETV
8728	385332 5168 385 47778 20.40003 6221.624079899298 135 0.25 1 102.65420769714 82.08782621358
vector 8729  Network.dyn_peer[29]  lookupTimeSig:vector  ETV
8729	390500 4029 385 47778 20.40003 6221.624079899298 135 0 1.2 52.4 26.18
vector 8673  Network.dyn_peer[11]  lookupHopsSig:vector  ETV
8673	147366 4312 413 47598 20.500012 6221.118051450257 154 0 11 519 2337
vector 8674  Network.dyn_peer[11]  lookupStabilitySig:vector  ETV
8674	151678 6035 413 47598 20.500012 6221.118051450257 154 0.10000002384186 1 118.3381065242 96.139056109339
vector 8675  Network.dyn_peer[11]  lookupTimeSig:vector  ETV
8675	157713 4611 413 47598 20.500012 6221.118051450257 154 0 1.2 63.6 32.66
