version 2
run Stability-2-20130524-20:21:00-3483
attr configname Stability
attr datetime 20130524-20:21:00
attr experiment Stability
attr inifile omnetpp.ini
attr iterationvars $0=1e6
attr iterationvars2 "$0=1e6, $repetition=2"
attr measurement $0=1e6
attr network Network
attr processid 3483
attr repetition 2
attr replication #2
attr resultdir results
attr runnumber 2
attr seedset 2

vector 192  Network.dyn_peer[0]  lookupHopsSig:vector  ETV
vector 193  Network.dyn_peer[0]  lookupStabilitySig:vector  ETV
vector 194  Network.dyn_peer[0]  lookupTimeSig:vector  ETV
vector 195  Network.dyn_peer[1]  lookupHopsSig:vector  ETV
vector 196  Network.dyn_peer[1]  lookupStabilitySig:vector  ETV
vector 197  Network.dyn_peer[1]  lookupTimeSig:vector  ETV
vector 198  Network.dyn_peer[2]  lookupHopsSig:vector  ETV
vector 199  Network.dyn_peer[2]  lookupStabilitySig:vector  ETV
vector 200  Network.dyn_peer[2]  lookupTimeSig:vector  ETV
vector 201  Network.dyn_peer[3]  lookupHopsSig:vector  ETV
vector 202  Network.dyn_peer[3]  lookupStabilitySig:vector  ETV
vector 203  Network.dyn_peer[3]  lookupTimeSig:vector  ETV
vector 204  Network.dyn_peer[4]  lookupHopsSig:vector  ETV
vector 205  Network.dyn_peer[4]  lookupStabilitySig:vector  ETV
vector 206  Network.dyn_peer[4]  lookupTimeSig:vector  ETV
vector 207  Network.dyn_peer[5]  lookupHopsSig:vector  ETV
vector 208  Network.dyn_peer[5]  lookupStabilitySig:vector  ETV
vector 209  Network.dyn_peer[5]  lookupTimeSig:vector  ETV
vector 210  Network.dyn_peer[6]  lookupHopsSig:vector  ETV
vector 211  Network.dyn_peer[6]  lookupStabilitySig:vector  ETV
vector 212  Network.dyn_peer[6]  lookupTimeSig:vector  ETV
vector 213  Network.dyn_peer[7]  lookupHopsSig:vector  ETV
vector 214  Network.dyn_peer[7]  lookupStabilitySig:vector  ETV
vector 215  Network.dyn_peer[7]  lookupTimeSig:vector  ETV
vector 216  Network.dyn_peer[8]  lookupHopsSig:vector  ETV
vector 217  Network.dyn_peer[8]  lookupStabilitySig:vector  ETV
vector 218  Network.dyn_peer[8]  lookupTimeSig:vector  ETV
vector 219  Network.dyn_peer[9]  lookupHopsSig:vector  ETV
vector 220  Network.dyn_peer[9]  lookupStabilitySig:vector  ETV
vector 221  Network.dyn_peer[9]  lookupTimeSig:vector  ETV
vector 222  Network.dyn_peer[10]  lookupHopsSig:vector  ETV
vector 223  Network.dyn_peer[10]  lookupStabilitySig:vector  ETV
vector 224  Network.dyn_peer[10]  lookupTimeSig:vector  ETV
vector 225  Network.dyn_peer[11]  lookupHopsSig:vector  ETV
vector 226  Network.dyn_peer[11]  lookupStabilitySig:vector  ETV
vector 227  Network.dyn_peer[11]  lookupTimeSig:vector  ETV
vector 228  Network.dyn_peer[12]  lookupHopsSig:vector  ETV
vector 229  Network.dyn_peer[12]  lookupStabilitySig:vector  ETV
vector 230  Network.dyn_peer[12]  lookupTimeSig:vector  ETV
vector 231  Network.dyn_peer[13]  lookupHopsSig:vector  ETV
vector 232  Network.dyn_peer[13]  lookupStabilitySig:vector  ETV
vector 233  Network.dyn_peer[13]  lookupTimeSig:vector  ETV
vector 234  Network.dyn_peer[14]  lookupHopsSig:vector  ETV
vector 235  Network.dyn_peer[14]  lookupStabilitySig:vector  ETV
vector 236  Network.dyn_peer[14]  lookupTimeSig:vector  ETV
vector 237  Network.dyn_peer[15]  lookupHopsSig:vector  ETV
vector 238  Network.dyn_peer[15]  lookupStabilitySig:vector  ETV
vector 239  Network.dyn_peer[15]  lookupTimeSig:vector  ETV
vector 240  Network.dyn_peer[16]  lookupHopsSig:vector  ETV
vector 241  Network.dyn_peer[16]  lookupStabilitySig:vector  ETV
vector 242  Network.dyn_peer[16]  lookupTimeSig:vector  ETV
vector 243  Network.dyn_peer[17]  lookupHopsSig:vector  ETV
vector 244  Network.dyn_peer[17]  lookupStabilitySig:vector  ETV
vector 245  Network.dyn_peer[17]  lookupTimeSig:vector  ETV
vector 246  Network.dyn_peer[18]  lookupHopsSig:vector  ETV
vector 247  Network.dyn_peer[18]  lookupStabilitySig:vector  ETV
vector 248  Network.dyn_peer[18]  lookupTimeSig:vector  ETV
vector 249  Network.dyn_peer[19]  lookupHopsSig:vector  ETV
vector 250  Network.dyn_peer[19]  lookupStabilitySig:vector  ETV
vector 251  Network.dyn_peer[19]  lookupTimeSig:vector  ETV
vector 252  Network.dyn_peer[20]  lookupHopsSig:vector  ETV
vector 253  Network.dyn_peer[20]  lookupStabilitySig:vector  ETV
vector 254  Network.dyn_peer[20]  lookupTimeSig:vector  ETV
vector 255  Network.dyn_peer[21]  lookupHopsSig:vector  ETV
vector 256  Network.dyn_peer[21]  lookupStabilitySig:vector  ETV
vector 257  Network.dyn_peer[21]  lookupTimeSig:vector  ETV
vector 258  Network.dyn_peer[22]  lookupHopsSig:vector  ETV
vector 259  Network.dyn_peer[22]  lookupStabilitySig:vector  ETV
vector 260  Network.dyn_peer[22]  lookupTimeSig:vector  ETV
vector 261  Network.dyn_peer[23]  lookupHopsSig:vector  ETV
vector 262  Network.dyn_peer[23]  lookupStabilitySig:vector  ETV
vector 263  Network.dyn_peer[23]  lookupTimeSig:vector  ETV
vector 264  Network.dyn_peer[24]  lookupHopsSig:vector  ETV
vector 265  Network.dyn_peer[24]  lookupStabilitySig:vector  ETV
vector 266  Network.dyn_peer[24]  lookupTimeSig:vector  ETV
vector 267  Network.dyn_peer[25]  lookupHopsSig:vector  ETV
vector 268  Network.dyn_peer[25]  lookupStabilitySig:vector  ETV
vector 269  Network.dyn_peer[25]  lookupTimeSig:vector  ETV
vector 270  Network.dyn_peer[26]  lookupHopsSig:vector  ETV
vector 271  Network.dyn_peer[26]  lookupStabilitySig:vector  ETV
vector 272  Network.dyn_peer[26]  lookupTimeSig:vector  ETV
vector 273  Network.dyn_peer[27]  lookupHopsSig:vector  ETV
vector 274  Network.dyn_peer[27]  lookupStabilitySig:vector  ETV
vector 275  Network.dyn_peer[27]  lookupTimeSig:vector  ETV
vector 276  Network.dyn_peer[28]  lookupHopsSig:vector  ETV
vector 277  Network.dyn_peer[28]  lookupStabilitySig:vector  ETV
vector 278  Network.dyn_peer[28]  lookupTimeSig:vector  ETV
vector 279  Network.dyn_peer[29]  lookupHopsSig:vector  ETV
vector 280  Network.dyn_peer[29]  lookupStabilitySig:vector  ETV
vector 281  Network.dyn_peer[29]  lookupTimeSig:vector  ETV
vector 282  Network.dyn_peer[30]  lookupHopsSig:vector  ETV
vector 283  Network.dyn_peer[30]  lookupStabilitySig:vector  ETV
vector 284  Network.dyn_peer[30]  lookupTimeSig:vector  ETV
vector 285  Network.dyn_peer[31]  lookupHopsSig:vector  ETV
vector 286  Network.dyn_peer[31]  lookupStabilitySig:vector  ETV
vector 287  Network.dyn_peer[31]  lookupTimeSig:vector  ETV
192	39	1020.2	2
192	42	1020.4	1
192	48	1020.605547928548	1
192	60	1020.841432235705	1
192	1360	33020.1	1
192	1364	33020.4	2
192	1369	33020.607447455566	1
192	1377	33020.823514779816	1
192	2695	65020.1	1
192	2699	65020.302231026152	1
192	2706	65020.529800132304	1
192	2713	65020.841146003063	2
192	4019	97020	0
192	4022	97020.2	1
192	4026	97020.409022445995	1
192	4030	97020.610366713576	1
192	5319	129020.2	2
192	5322	129020.4	1
192	5329	129020.619892774396	1
192	5335	129020.846910555	1
192	6646	161020.2	2
192	6650	161020.5	2
192	6655	161020.712252456361	1
192	6662	161021.02711151487	2
192	7988	193020.2	2
192	7991	193020.4	1
192	7996	193020.603951933879	1
192	8002	193020.822161388549	1
192	9283	225020.2	2
192	9287	225020.5	2
192	9291	225020.705939560667	1
192	9296	225021.010677313065	2
192	10611	257020.1	1
192	10615	257020.4	2
192	10619	257020.600749031829	1
192	10624	257020.810980367913	1
192	11932	289020	0
192	11936	289020.3	2
192	11940	289020.502948224483	1
192	11944	289020.708714215519	1
192	13260	321020.1	1
192	13264	321020.30278010321	1
192	13268	321020.511837557595	1
192	13275	321020.736691062142	1
192	14577	353020.2	2
192	14581	353020.5	2
192	14585	353020.706360090996	1
192	14589	353020.911823194918	1
192	15879	385020.1	1
192	15882	385020.3	1
192	15886	385020.507462307575	1
192	15891	385020.71172702812	1
192	17178	417020.1	1
192	17182	417020.304253838465	1
192	17186	417020.508333011856	1
192	17192	417020.818008752338	2
192	18491	449020.1	1
192	18494	449020.3	1
192	18498	449020.504041316017	1
192	18502	449020.713544064763	1
192	19801	481020.2	2
192	19805	481020.400039889351	1
192	19812	481020.712117578201	2
192	19820	481020.934383004219	1
192	21149	513020.2	2
192	21152	513020.4	1
192	21156	513020.607076261949	1
192	21160	513020.814472370433	1
192	22457	545020.1	1
192	22460	545020.3	1
192	22465	545020.508844999527	1
192	22470	545020.71941610899	1
192	23772	577020.2	2
192	23776	577020.5	2
192	23780	577020.705277523964	1
192	23784	577020.911417086859	1
192	25127	609020.2	2
192	25132	609020.500845091799	2
192	25136	609020.701030557579	1
192	25140	609020.910848764218	1
192	26450	641020.1	1
192	26453	641020.3	1
192	26458	641020.609974196346	2
192	26462	641020.816611088637	1
192	27758	673020.1	1
192	27761	673020.3	1
192	27767	673020.608908499005	2
192	27773	673020.83180663481	1
192	29083	705020.2	2
192	29087	705020.5	2
192	29094	705020.710458535061	1
192	29104	705020.933914896374	1
192	30411	737020.2	2
192	30415	737020.5	2
192	30420	737020.707204902956	1
192	30424	737020.909583935925	1
192	31712	769020.1	1
192	31716	769020.4	2
192	31722	769020.713760825469	2
192	31731	769020.949346303612	1
192	33050	801020.1	1
192	33053	801020.3	1
192	33057	801020.506753302381	1
192	33064	801020.711107688148	1
192	34349	833020.1	1
192	34352	833020.3	1
192	34357	833020.606934364777	2
192	34361	833020.812797400244	1
192	35649	865020.2	2
192	35653	865020.5	2
192	35659	865020.812136203772	2
192	35663	865021.015319665476	1
192	36976	897020.2	2
192	36981	897020.509749716878	2
192	36985	897020.716209586552	1
192	36995	897020.946020820677	1
192	38305	929020.2	2
192	38309	929020.5	2
192	38314	929020.709571298656	1
192	38320	929021.018509802428	2
192	39611	961020.1	1
192	39614	961020.3	1
192	39620	961020.60672719122	2
192	39624	961020.812319481925	1
192	40924	993020.2	2
192	40929	993020.501129263944	2
192	40933	993020.708400142536	1
192	40941	993020.928529644437	1
193	39	1020.2	0.75
193	42	1020.4	0.875
193	48	1020.605547928548	0.875
193	60	1020.841432235705	0.875
193	1360	33020.1	0.875
193	1364	33020.4	0.75
193	1369	33020.607447455566	0.875
193	1377	33020.823514779816	0.875
193	2695	65020.1	0.875
193	2699	65020.302231026152	0.875
193	2706	65020.529800132304	0.875
193	2713	65020.841146003063	0.75
193	4019	97020	1
193	4022	97020.2	0.875
193	4026	97020.409022445995	0.875
193	4030	97020.610366713576	0.875
193	5319	129020.2	0.75
193	5322	129020.4	0.875
193	5329	129020.619892774396	0.875
193	5335	129020.846910555	0.875
193	6646	161020.2	0.75
193	6650	161020.5	0.75
193	6655	161020.712252456361	0.875
193	6662	161021.02711151487	0.75
193	7988	193020.2	0.75
193	7991	193020.4	0.875
193	7996	193020.603951933879	0.875
193	8002	193020.822161388549	0.875
193	9283	225020.2	0.75
193	9287	225020.5	0.75
193	9291	225020.705939560667	0.875
193	9296	225021.010677313065	0.75
193	10611	257020.1	0.875
193	10615	257020.4	0.75
193	10619	257020.600749031829	0.875
193	10624	257020.810980367913	0.875
193	11932	289020	1
193	11936	289020.3	0.75
193	11940	289020.502948224483	0.875
193	11944	289020.708714215519	0.875
193	13260	321020.1	0.875
193	13264	321020.30278010321	0.875
193	13268	321020.511837557595	0.875
193	13275	321020.736691062142	0.875
193	14577	353020.2	0.75
193	14581	353020.5	0.75
193	14585	353020.706360090996	0.875
193	14589	353020.911823194918	0.875
193	15879	385020.1	0.875
193	15882	385020.3	0.875
193	15886	385020.507462307575	0.875
193	15891	385020.71172702812	0.875
193	17178	417020.1	0.875
193	17182	417020.304253838465	0.875
193	17186	417020.508333011856	0.875
193	17192	417020.818008752338	0.75
193	18491	449020.1	0.875
193	18494	449020.3	0.875
193	18498	449020.504041316017	0.875
193	18502	449020.713544064763	0.875
193	19801	481020.2	0.75
193	19805	481020.400039889351	0.875
193	19812	481020.712117578201	0.75
193	19820	481020.934383004219	0.875
193	21149	513020.2	0.75
193	21152	513020.4	0.875
193	21156	513020.607076261949	0.875
193	21160	513020.814472370433	0.875
193	22457	545020.1	0.875
193	22460	545020.3	0.875
193	22465	545020.508844999527	0.875
193	22470	545020.71941610899	0.875
193	23772	577020.2	0.75
193	23776	577020.5	0.75
193	23780	577020.705277523964	0.875
193	23784	577020.911417086859	0.875
193	25127	609020.2	0.75
193	25132	609020.500845091799	0.75
193	25136	609020.701030557579	0.875
193	25140	609020.910848764218	0.875
193	26450	641020.1	0.875
193	26453	641020.3	0.875
193	26458	641020.609974196346	0.75
193	26462	641020.816611088637	0.875
193	27758	673020.1	0.875
193	27761	673020.3	0.875
193	27767	673020.608908499005	0.75
193	27773	673020.83180663481	0.875
193	29083	705020.2	0.75
193	29087	705020.5	0.75
193	29094	705020.710458535061	0.875
193	29104	705020.933914896374	0.875
193	30411	737020.2	0.75
193	30415	737020.5	0.75
193	30420	737020.707204902956	0.875
193	30424	737020.909583935925	0.875
193	31712	769020.1	0.875
193	31716	769020.4	0.75
193	31722	769020.713760825469	0.75
193	31731	769020.949346303612	0.875
193	33050	801020.1	0.875
193	33053	801020.3	0.875
193	33057	801020.506753302381	0.875
193	33064	801020.711107688148	0.875
193	34349	833020.1	0.875
193	34352	833020.3	0.875
193	34357	833020.606934364777	0.75
193	34361	833020.812797400244	0.875
193	35649	865020.2	0.75
193	35653	865020.5	0.75
193	35659	865020.812136203772	0.75
193	35663	865021.015319665476	0.875
193	36976	897020.2	0.75
193	36981	897020.509749716878	0.75
193	36985	897020.716209586552	0.875
193	36995	897020.946020820677	0.875
193	38305	929020.2	0.75
193	38309	929020.5	0.75
193	38314	929020.709571298656	0.875
193	38320	929021.018509802428	0.75
193	39611	961020.1	0.875
193	39614	961020.3	0.875
193	39620	961020.60672719122	0.75
193	39624	961020.812319481925	0.875
193	40924	993020.2	0.75
193	40929	993020.501129263944	0.75
193	40933	993020.708400142536	0.875
193	40941	993020.928529644437	0.875
194	39	1020.2	0.2
194	42	1020.4	0.2
194	48	1020.605547928548	0.2
194	60	1020.841432235705	0.2
194	1360	33020.1	0.1
194	1364	33020.4	0.3
194	1369	33020.607447455566	0.2
194	1377	33020.823514779816	0.2
194	2695	65020.1	0.1
194	2699	65020.302231026152	0.2
194	2706	65020.529800132304	0.2
194	2713	65020.841146003063	0.3
194	4019	97020	0
194	4022	97020.2	0.2
194	4026	97020.409022445995	0.2
194	4030	97020.610366713576	0.2
194	5319	129020.2	0.2
194	5322	129020.4	0.2
194	5329	129020.619892774396	0.2
194	5335	129020.846910555	0.2
194	6646	161020.2	0.2
194	6650	161020.5	0.3
194	6655	161020.712252456361	0.2
194	6662	161021.02711151487	0.3
194	7988	193020.2	0.2
194	7991	193020.4	0.2
194	7996	193020.603951933879	0.2
194	8002	193020.822161388549	0.2
194	9283	225020.2	0.2
194	9287	225020.5	0.3
194	9291	225020.705939560667	0.2
194	9296	225021.010677313065	0.3
194	10611	257020.1	0.1
194	10615	257020.4	0.3
194	10619	257020.600749031829	0.2
194	10624	257020.810980367913	0.2
194	11932	289020	0
194	11936	289020.3	0.3
194	11940	289020.502948224483	0.2
194	11944	289020.708714215519	0.2
194	13260	321020.1	0.1
194	13264	321020.30278010321	0.2
194	13268	321020.511837557595	0.2
194	13275	321020.736691062142	0.2
194	14577	353020.2	0.2
194	14581	353020.5	0.3
194	14585	353020.706360090996	0.2
194	14589	353020.911823194918	0.2
194	15879	385020.1	0.1
194	15882	385020.3	0.2
194	15886	385020.507462307575	0.2
194	15891	385020.71172702812	0.2
194	17178	417020.1	0.1
194	17182	417020.304253838465	0.2
194	17186	417020.508333011856	0.2
194	17192	417020.818008752338	0.3
194	18491	449020.1	0.1
194	18494	449020.3	0.2
194	18498	449020.504041316017	0.2
194	18502	449020.713544064763	0.2
194	19801	481020.2	0.2
194	19805	481020.400039889351	0.2
194	19812	481020.712117578201	0.3
194	19820	481020.934383004219	0.2
194	21149	513020.2	0.2
194	21152	513020.4	0.2
194	21156	513020.607076261949	0.2
194	21160	513020.814472370433	0.2
194	22457	545020.1	0.1
194	22460	545020.3	0.2
194	22465	545020.508844999527	0.2
194	22470	545020.71941610899	0.2
194	23772	577020.2	0.2
194	23776	577020.5	0.3
194	23780	577020.705277523964	0.2
194	23784	577020.911417086859	0.2
194	25127	609020.2	0.2
194	25132	609020.500845091799	0.3
194	25136	609020.701030557579	0.2
194	25140	609020.910848764218	0.2
194	26450	641020.1	0.1
194	26453	641020.3	0.2
194	26458	641020.609974196346	0.3
194	26462	641020.816611088637	0.2
194	27758	673020.1	0.1
194	27761	673020.3	0.2
194	27767	673020.608908499005	0.3
194	27773	673020.83180663481	0.2
194	29083	705020.2	0.2
194	29087	705020.5	0.3
194	29094	705020.710458535061	0.2
194	29104	705020.933914896374	0.2
194	30411	737020.2	0.2
194	30415	737020.5	0.3
194	30420	737020.707204902956	0.2
194	30424	737020.909583935925	0.2
194	31712	769020.1	0.1
194	31716	769020.4	0.3
194	31722	769020.713760825469	0.3
194	31731	769020.949346303612	0.2
194	33050	801020.1	0.1
194	33053	801020.3	0.2
194	33057	801020.506753302381	0.2
194	33064	801020.711107688148	0.2
194	34349	833020.1	0.1
194	34352	833020.3	0.2
194	34357	833020.606934364777	0.3
194	34361	833020.812797400244	0.2
194	35649	865020.2	0.2
194	35653	865020.5	0.3
194	35659	865020.812136203772	0.3
194	35663	865021.015319665476	0.2
194	36976	897020.2	0.2
194	36981	897020.509749716878	0.3
194	36985	897020.716209586552	0.2
194	36995	897020.946020820677	0.2
194	38305	929020.2	0.2
194	38309	929020.5	0.3
194	38314	929020.709571298656	0.2
194	38320	929021.018509802428	0.3
194	39611	961020.1	0.1
194	39614	961020.3	0.2
194	39620	961020.60672719122	0.3
194	39624	961020.812319481925	0.2
194	40924	993020.2	0.2
194	40929	993020.501129263944	0.3
194	40933	993020.708400142536	0.2
194	40941	993020.928529644437	0.2
195	90	2020.1	1
195	95	2020.312983264599	1
195	99	2020.519613882554	1
195	107	2020.753258042319	1
195	1402	34020	0
195	1406	34020.3	2
195	1411	34020.602754378644	2
195	1418	34020.81963437649	1
195	2739	66020.1	1
195	2744	66020.407256300786	2
195	2750	66020.61778729199	1
195	2754	66020.821653126597	1
195	4056	98020.1	1
195	4060	98020.306312673971	1
195	4064	98020.511363293199	1
195	4068	98020.716155096461	1
195	5361	130020.1	1
195	5366	130020.401549355213	2
195	5371	130020.701920233187	2
195	5375	130020.902577339948	1
195	6688	162020.1	1
195	6691	162020.3	1
195	6695	162020.506636080339	1
195	6700	162020.806691803482	2
195	8028	194020.1	1
195	8032	194020.4	2
195	8037	194020.700955176055	2
195	8041	194020.900959860763	1
195	9322	226020.1	1
195	9325	226020.3	1
195	9330	226020.604147430839	2
195	9336	226020.81598250528	1
195	10650	258020.1	1
195	10653	258020.3	1
195	10658	258020.603764570993	2
195	10664	258020.817803307124	1
195	11970	290020.1	1
195	11973	290020.3	1
195	11978	290020.60932733471	2
195	11982	290020.813817835838	1
195	13302	322020.2	2
195	13307	322020.50309335608	2
195	13311	322020.709847466291	1
195	13323	322021.038306734734	2
195	14616	354020.2	2
195	14619	354020.4	1
195	14624	354020.6045106053	1
195	14630	354020.821402074134	1
195	15918	386020.2	2
195	15921	386020.4	1
195	15925	386020.600295084894	1
195	15931	386020.905799822874	2
195	17219	418020.2	2
195	17224	418020.405034540809	1
195	17229	418020.620500779101	1
195	17234	418020.833251804781	1
195	18527	450020	0
195	18531	450020.3	2
195	18536	450020.513161453197	1
195	18541	450020.723584064467	1
195	19847	482020.2	2
195	19850	482020.4	1
195	19857	482020.711187118377	2
195	19861	482020.917388475259	1
195	21186	514020.1	1
195	21189	514020.3	1
195	21193	514020.501057849964	1
195	21197	514020.708292980803	1
195	22495	546020	0
195	22498	546020.2	1
195	22504	546020.41354989919	1
195	22510	546020.62655493533	1
195	23810	578020.1	1
195	23816	578020.319618876666	1
195	23821	578020.622692588645	2
195	23828	578020.932895750698	2
195	25167	610020.2	2
195	25171	610020.5	2
195	25178	610020.73321280553	1
195	25182	610020.941254755975	1
195	26487	642020	0
195	26491	642020.3	2
195	26496	642020.602106093463	2
195	26500	642020.811279004939	1
195	27799	674020.1	1
195	27802	674020.3	1
195	27809	674020.52992484326	1
195	27823	674020.771633877345	1
195	29130	706020.1	1
195	29134	706020.308631194094	1
195	29141	706020.522383715251	1
195	29149	706020.739810609856	1
195	30450	738020.1	1
195	30454	738020.4	2
195	30459	738020.704634805161	2
195	30463	738020.913985346537	1
195	31756	770020	0
195	31760	770020.3	2
195	31764	770020.501850223212	1
195	31768	770020.702516628391	1
195	33091	802020.2	2
195	33099	802020.531213589751	2
195	33103	802020.735005100721	1
195	33109	802020.957026754004	1
195	34386	834020	0
195	34392	834020.308220055696	2
195	34397	834020.518095300356	1
195	34402	834020.72089568936	1
195	35689	866020.1	1
195	35693	866020.300603202495	1
195	35698	866020.602544136084	2
195	35703	866020.811456930147	1
195	37022	898020.2	2
195	37025	898020.4	1
195	37031	898020.707895367058	2
195	37040	898020.949174476854	1
195	38346	930020.1	1
195	38351	930020.302336834156	1
195	38355	930020.503694838731	1
195	38361	930020.816371620038	2
195	39650	962020.1	1
195	39654	962020.4	2
195	39658	962020.60376577961	1
195	39664	962020.823384375231	1
195	40967	994020.1	1
195	40970	994020.3	1
195	40975	994020.605468298161	2
195	40980	994020.808026500694	1
196	90	2020.1	0.875
196	95	2020.312983264599	0.875
196	99	2020.519613882554	0.875
196	107	2020.753258042319	0.875
196	1402	34020	1
196	1406	34020.3	0.75
196	1411	34020.602754378644	0.75
196	1418	34020.81963437649	0.875
196	2739	66020.1	0.875
196	2744	66020.407256300786	0.75
196	2750	66020.61778729199	0.875
196	2754	66020.821653126597	0.875
196	4056	98020.1	0.875
196	4060	98020.306312673971	0.875
196	4064	98020.511363293199	0.875
196	4068	98020.716155096461	0.875
196	5361	130020.1	0.875
196	5366	130020.401549355213	0.75
196	5371	130020.701920233187	0.75
196	5375	130020.902577339948	0.875
196	6688	162020.1	0.875
196	6691	162020.3	0.875
196	6695	162020.506636080339	0.875
196	6700	162020.806691803482	0.75
196	8028	194020.1	0.875
196	8032	194020.4	0.75
196	8037	194020.700955176055	0.75
196	8041	194020.900959860763	0.875
196	9322	226020.1	0.875
196	9325	226020.3	0.875
196	9330	226020.604147430839	0.75
196	9336	226020.81598250528	0.875
196	10650	258020.1	0.875
196	10653	258020.3	0.875
196	10658	258020.603764570993	0.75
196	10664	258020.817803307124	0.875
196	11970	290020.1	0.875
196	11973	290020.3	0.875
196	11978	290020.60932733471	0.75
196	11982	290020.813817835838	0.875
196	13302	322020.2	0.75
196	13307	322020.50309335608	0.75
196	13311	322020.709847466291	0.875
196	13323	322021.038306734734	0.75
196	14616	354020.2	0.75
196	14619	354020.4	0.875
196	14624	354020.6045106053	0.875
196	14630	354020.821402074134	0.875
196	15918	386020.2	0.75
196	15921	386020.4	0.875
196	15925	386020.600295084894	0.875
196	15931	386020.905799822874	0.75
196	17219	418020.2	0.75
196	17224	418020.405034540809	0.875
196	17229	418020.620500779101	0.875
196	17234	418020.833251804781	0.875
196	18527	450020	1
196	18531	450020.3	0.75
196	18536	450020.513161453197	0.875
196	18541	450020.723584064467	0.875
196	19847	482020.2	0.75
196	19850	482020.4	0.875
196	19857	482020.711187118377	0.75
196	19861	482020.917388475259	0.875
196	21186	514020.1	0.875
196	21189	514020.3	0.875
196	21193	514020.501057849964	0.875
196	21197	514020.708292980803	0.875
196	22495	546020	1
196	22498	546020.2	0.875
196	22504	546020.41354989919	0.875
196	22510	546020.62655493533	0.875
196	23810	578020.1	0.875
196	23816	578020.319618876666	0.875
196	23821	578020.622692588645	0.75
196	23828	578020.932895750698	0.75
196	25167	610020.2	0.75
196	25171	610020.5	0.75
196	25178	610020.73321280553	0.875
196	25182	610020.941254755975	0.875
196	26487	642020	1
196	26491	642020.3	0.75
196	26496	642020.602106093463	0.75
196	26500	642020.811279004939	0.875
196	27799	674020.1	0.875
196	27802	674020.3	0.875
196	27809	674020.52992484326	0.875
196	27823	674020.771633877345	0.875
196	29130	706020.1	0.875
196	29134	706020.308631194094	0.875
196	29141	706020.522383715251	0.875
196	29149	706020.739810609856	0.875
196	30450	738020.1	0.875
196	30454	738020.4	0.75
196	30459	738020.704634805161	0.75
196	30463	738020.913985346537	0.875
196	31756	770020	1
196	31760	770020.3	0.75
196	31764	770020.501850223212	0.875
196	31768	770020.702516628391	0.875
196	33091	802020.2	0.75
196	33099	802020.531213589751	0.75
196	33103	802020.735005100721	0.875
196	33109	802020.957026754004	0.875
196	34386	834020	1
196	34392	834020.308220055696	0.75
196	34397	834020.518095300356	0.875
196	34402	834020.72089568936	0.875
196	35689	866020.1	0.875
196	35693	866020.300603202495	0.875
196	35698	866020.602544136084	0.75
196	35703	866020.811456930147	0.875
196	37022	898020.2	0.75
196	37025	898020.4	0.875
196	37031	898020.707895367058	0.75
196	37040	898020.949174476854	0.875
196	38346	930020.1	0.875
196	38351	930020.302336834156	0.875
196	38355	930020.503694838731	0.875
196	38361	930020.816371620038	0.75
196	39650	962020.1	0.875
196	39654	962020.4	0.75
196	39658	962020.60376577961	0.875
196	39664	962020.823384375231	0.875
196	40967	994020.1	0.875
196	40970	994020.3	0.875
196	40975	994020.605468298161	0.75
196	40980	994020.808026500694	0.875
197	90	2020.1	0.1
197	95	2020.312983264599	0.2
197	99	2020.519613882554	0.2
197	107	2020.753258042319	0.2
197	1402	34020	0
197	1406	34020.3	0.3
197	1411	34020.602754378644	0.3
197	1418	34020.81963437649	0.2
197	2739	66020.1	0.1
197	2744	66020.407256300786	0.3
197	2750	66020.61778729199	0.2
197	2754	66020.821653126597	0.2
197	4056	98020.1	0.1
197	4060	98020.306312673971	0.2
197	4064	98020.511363293199	0.2
197	4068	98020.716155096461	0.2
197	5361	130020.1	0.1
197	5366	130020.401549355213	0.3
197	5371	130020.701920233187	0.3
197	5375	130020.902577339948	0.2
197	6688	162020.1	0.1
197	6691	162020.3	0.2
197	6695	162020.506636080339	0.2
197	6700	162020.806691803482	0.3
197	8028	194020.1	0.1
197	8032	194020.4	0.3
197	8037	194020.700955176055	0.3
197	8041	194020.900959860763	0.2
197	9322	226020.1	0.1
197	9325	226020.3	0.2
197	9330	226020.604147430839	0.3
197	9336	226020.81598250528	0.2
197	10650	258020.1	0.1
197	10653	258020.3	0.2
197	10658	258020.603764570993	0.3
197	10664	258020.817803307124	0.2
197	11970	290020.1	0.1
197	11973	290020.3	0.2
197	11978	290020.60932733471	0.3
197	11982	290020.813817835838	0.2
197	13302	322020.2	0.2
197	13307	322020.50309335608	0.3
197	13311	322020.709847466291	0.2
197	13323	322021.038306734734	0.3
197	14616	354020.2	0.2
197	14619	354020.4	0.2
197	14624	354020.6045106053	0.2
197	14630	354020.821402074134	0.2
197	15918	386020.2	0.2
197	15921	386020.4	0.2
197	15925	386020.600295084894	0.2
197	15931	386020.905799822874	0.3
197	17219	418020.2	0.2
197	17224	418020.405034540809	0.2
197	17229	418020.620500779101	0.2
197	17234	418020.833251804781	0.2
197	18527	450020	0
197	18531	450020.3	0.3
197	18536	450020.513161453197	0.2
197	18541	450020.723584064467	0.2
197	19847	482020.2	0.2
197	19850	482020.4	0.2
197	19857	482020.711187118377	0.3
197	19861	482020.917388475259	0.2
197	21186	514020.1	0.1
197	21189	514020.3	0.2
197	21193	514020.501057849964	0.2
197	21197	514020.708292980803	0.2
197	22495	546020	0
197	22498	546020.2	0.2
197	22504	546020.41354989919	0.2
197	22510	546020.62655493533	0.2
197	23810	578020.1	0.1
197	23816	578020.319618876666	0.2
197	23821	578020.622692588645	0.3
197	23828	578020.932895750698	0.3
197	25167	610020.2	0.2
197	25171	610020.5	0.3
197	25178	610020.73321280553	0.2
197	25182	610020.941254755975	0.2
197	26487	642020	0
197	26491	642020.3	0.3
197	26496	642020.602106093463	0.3
197	26500	642020.811279004939	0.2
197	27799	674020.1	0.1
197	27802	674020.3	0.2
197	27809	674020.52992484326	0.2
197	27823	674020.771633877345	0.2
197	29130	706020.1	0.1
197	29134	706020.308631194094	0.2
197	29141	706020.522383715251	0.2
197	29149	706020.739810609856	0.2
197	30450	738020.1	0.1
197	30454	738020.4	0.3
197	30459	738020.704634805161	0.3
197	30463	738020.913985346537	0.2
197	31756	770020	0
197	31760	770020.3	0.3
197	31764	770020.501850223212	0.2
197	31768	770020.702516628391	0.2
197	33091	802020.2	0.2
197	33099	802020.531213589751	0.3
197	33103	802020.735005100721	0.2
197	33109	802020.957026754004	0.2
197	34386	834020	0
197	34392	834020.308220055696	0.3
197	34397	834020.518095300356	0.2
197	34402	834020.72089568936	0.2
197	35689	866020.1	0.1
197	35693	866020.300603202495	0.2
197	35698	866020.602544136084	0.3
197	35703	866020.811456930147	0.2
197	37022	898020.2	0.2
197	37025	898020.4	0.2
197	37031	898020.707895367058	0.3
197	37040	898020.949174476854	0.2
197	38346	930020.1	0.1
197	38351	930020.302336834156	0.2
197	38355	930020.503694838731	0.2
197	38361	930020.816371620038	0.3
197	39650	962020.1	0.1
197	39654	962020.4	0.3
197	39658	962020.60376577961	0.2
197	39664	962020.823384375231	0.2
197	40967	994020.1	0.1
197	40970	994020.3	0.2
197	40975	994020.605468298161	0.3
197	40980	994020.808026500694	0.2
198	142	3020.1	1
198	146	3020.4	2
198	151	3020.618168321153	1
198	156	3020.828263663589	1
198	1444	35020.1	1
198	1449	35020.3080500686	1
198	1454	35020.511857633997	1
198	1458	35020.720559092928	1
198	2780	67020.1	1
198	2785	67020.401757241894	2
198	2790	67020.711492755055	2
198	2794	67020.912285136799	1
198	4095	99020.2	2
198	4099	99020.5	2
198	4103	99020.70332759954	1
198	4108	99020.911198478498	1
198	5401	131020.1	1
198	5404	131020.3	1
198	5408	131020.503746601594	1
198	5413	131020.809602156085	2
198	6726	163020.1	1
198	6730	163020.4	2
198	6735	163020.70436244595	2
198	6740	163021.005192730914	2
198	8068	195020.2	2
198	8071	195020.4	1
198	8077	195020.710965172473	2
198	8086	195020.937264394211	1
198	9362	227020.1	1
198	9365	227020.3	1
198	9369	227020.506442743111	1
198	9376	227020.727623221297	1
198	10690	259020.1	1
198	10694	259020.4	2
198	10698	259020.609203819863	1
198	10702	259020.814302744572	1
198	12009	291020.2	2
198	12014	291020.403916922052	1
198	12018	291020.612238631247	1
198	12022	291020.816263877608	1
198	13349	323020.1	1
198	13353	323020.300512864475	1
198	13359	323020.61794571793	2
198	13365	323020.837835635761	1
198	14657	355020.2	2
198	14660	355020.4	1
198	14669	355020.636264382864	1
198	14675	355020.854621882229	1
198	15956	387020	0
198	15960	387020.208145614755	1
198	15966	387020.422822161934	1
198	15973	387020.638418048157	1
198	17260	419020.1	1
198	17263	419020.3	1
198	17267	419020.508572907242	1
198	17276	419020.734478916515	1
198	18568	451020.2	2
198	18571	451020.4	1
198	18576	451020.612593352505	1
198	18581	451020.819830734853	1
198	19888	483020.2	2
198	19891	483020.4	1
198	19900	483020.623687871943	1
198	19907	483020.840253079201	1
198	21224	515020.2	2
198	21227	515020.4	1
198	21232	515020.608409949955	1
198	21244	515020.94782916369	2