version 2
run Stability-18-20130524-20:21:27-3483
attr configname Stability
attr datetime 20130524-20:21:27
attr experiment Stability
attr inifile omnetpp.ini
attr iterationvars $0=1e5
attr iterationvars2 "$0=1e5, $repetition=8"
attr measurement $0=1e5
attr network Network
attr processid 3483
attr repetition 8
attr replication #8
attr resultdir results
attr runnumber 18
attr seedset 18

vector 1728  Network.dyn_peer[0]  lookupHopsSig:vector  ETV
vector 1729  Network.dyn_peer[0]  lookupStabilitySig:vector  ETV
vector 1730  Network.dyn_peer[0]  lookupTimeSig:vector  ETV
vector 1731  Network.dyn_peer[1]  lookupHopsSig:vector  ETV
vector 1732  Network.dyn_peer[1]  lookupStabilitySig:vector  ETV
vector 1733  Network.dyn_peer[1]  lookupTimeSig:vector  ETV
vector 1734  Network.dyn_peer[2]  lookupHopsSig:vector  ETV
vector 1735  Network.dyn_peer[2]  lookupStabilitySig:vector  ETV
vector 1736  Network.dyn_peer[2]  lookupTimeSig:vector  ETV
vector 1737  Network.dyn_peer[3]  lookupHopsSig:vector  ETV
vector 1738  Network.dyn_peer[3]  lookupStabilitySig:vector  ETV
vector 1739  Network.dyn_peer[3]  lookupTimeSig:vector  ETV
vector 1740  Network.dyn_peer[4]  lookupHopsSig:vector  ETV
vector 1741  Network.dyn_peer[4]  lookupStabilitySig:vector  ETV
vector 1742  Network.dyn_peer[4]  lookupTimeSig:vector  ETV
vector 1743  Network.dyn_peer[5]  lookupHopsSig:vector  ETV
vector 1744  Network.dyn_peer[5]  lookupStabilitySig:vector  ETV
vector 1745  Network.dyn_peer[5]  lookupTimeSig:vector  ETV
vector 1746  Network.dyn_peer[6]  lookupHopsSig:vector  ETV
vector 1747  Network.dyn_peer[6]  lookupStabilitySig:vector  ETV
vector 1748  Network.dyn_peer[6]  lookupTimeSig:vector  ETV
vector 1749  Network.dyn_peer[7]  lookupHopsSig:vector  ETV
vector 1750  Network.dyn_peer[7]  lookupStabilitySig:vector  ETV
vector 1751  Network.dyn_peer[7]  lookupTimeSig:vector  ETV
vector 1752  Network.dyn_peer[8]  lookupHopsSig:vector  ETV
vector 1753  Network.dyn_peer[8]  lookupStabilitySig:vector  ETV
vector 1754  Network.dyn_peer[8]  lookupTimeSig:vector  ETV
vector 1755  Network.dyn_peer[9]  lookupHopsSig:vector  ETV
vector 1756  Network.dyn_peer[9]  lookupStabilitySig:vector  ETV
vector 1757  Network.dyn_peer[9]  lookupTimeSig:vector  ETV
vector 1758  Network.dyn_peer[10]  lookupHopsSig:vector  ETV
vector 1759  Network.dyn_peer[10]  lookupStabilitySig:vector  ETV
vector 1760  Network.dyn_peer[10]  lookupTimeSig:vector  ETV
vector 1761  Network.dyn_peer[11]  lookupHopsSig:vector  ETV
vector 1762  Network.dyn_peer[11]  lookupStabilitySig:vector  ETV
vector 1763  Network.dyn_peer[11]  lookupTimeSig:vector  ETV
vector 1764  Network.dyn_peer[12]  lookupHopsSig:vector  ETV
vector 1765  Network.dyn_peer[12]  lookupStabilitySig:vector  ETV
vector 1766  Network.dyn_peer[12]  lookupTimeSig:vector  ETV
vector 1767  Network.dyn_peer[13]  lookupHopsSig:vector  ETV
vector 1768  Network.dyn_peer[13]  lookupStabilitySig:vector  ETV
vector 1769  Network.dyn_peer[13]  lookupTimeSig:vector  ETV
vector 1770  Network.dyn_peer[14]  lookupHopsSig:vector  ETV
vector 1771  Network.dyn_peer[14]  lookupStabilitySig:vector  ETV
vector 1772  Network.dyn_peer[14]  lookupTimeSig:vector  ETV
vector 1773  Network.dyn_peer[15]  lookupHopsSig:vector  ETV
vector 1774  Network.dyn_peer[15]  lookupStabilitySig:vector  ETV
vector 1775  Network.dyn_peer[15]  lookupTimeSig:vector  ETV
vector 1776  Network.dyn_peer[16]  lookupHopsSig:vector  ETV
vector 1777  Network.dyn_peer[16]  lookupStabilitySig:vector  ETV
vector 1778  Network.dyn_peer[16]  lookupTimeSig:vector  ETV
vector 1779  Network.dyn_peer[17]  lookupHopsSig:vector  ETV
vector 1780  Network.dyn_peer[17]  lookupStabilitySig:vector  ETV
vector 1781  Network.dyn_peer[17]  lookupTimeSig:vector  ETV
vector 1782  Network.dyn_peer[18]  lookupHopsSig:vector  ETV
vector 1783  Network.dyn_peer[18]  lookupStabilitySig:vector  ETV
vector 1784  Network.dyn_peer[18]  lookupTimeSig:vector  ETV
vector 1785  Network.dyn_peer[19]  lookupHopsSig:vector  ETV
vector 1786  Network.dyn_peer[19]  lookupStabilitySig:vector  ETV
vector 1787  Network.dyn_peer[19]  lookupTimeSig:vector  ETV
vector 1788  Network.dyn_peer[20]  lookupHopsSig:vector  ETV
vector 1789  Network.dyn_peer[20]  lookupStabilitySig:vector  ETV
vector 1790  Network.dyn_peer[20]  lookupTimeSig:vector  ETV
vector 1791  Network.dyn_peer[21]  lookupHopsSig:vector  ETV
vector 1792  Network.dyn_peer[21]  lookupStabilitySig:vector  ETV
vector 1793  Network.dyn_peer[21]  lookupTimeSig:vector  ETV
vector 1794  Network.dyn_peer[22]  lookupHopsSig:vector  ETV
vector 1795  Network.dyn_peer[22]  lookupStabilitySig:vector  ETV
vector 1796  Network.dyn_peer[22]  lookupTimeSig:vector  ETV
vector 1797  Network.dyn_peer[23]  lookupHopsSig:vector  ETV
vector 1798  Network.dyn_peer[23]  lookupStabilitySig:vector  ETV
vector 1799  Network.dyn_peer[23]  lookupTimeSig:vector  ETV
vector 1800  Network.dyn_peer[24]  lookupHopsSig:vector  ETV
vector 1801  Network.dyn_peer[24]  lookupStabilitySig:vector  ETV
vector 1802  Network.dyn_peer[24]  lookupTimeSig:vector  ETV
vector 1803  Network.dyn_peer[25]  lookupHopsSig:vector  ETV
vector 1804  Network.dyn_peer[25]  lookupStabilitySig:vector  ETV
vector 1805  Network.dyn_peer[25]  lookupTimeSig:vector  ETV
vector 1806  Network.dyn_peer[26]  lookupHopsSig:vector  ETV
vector 1807  Network.dyn_peer[26]  lookupStabilitySig:vector  ETV
vector 1808  Network.dyn_peer[26]  lookupTimeSig:vector  ETV
vector 1809  Network.dyn_peer[27]  lookupHopsSig:vector  ETV
vector 1810  Network.dyn_peer[27]  lookupStabilitySig:vector  ETV
vector 1811  Network.dyn_peer[27]  lookupTimeSig:vector  ETV
vector 1812  Network.dyn_peer[28]  lookupHopsSig:vector  ETV
vector 1813  Network.dyn_peer[28]  lookupStabilitySig:vector  ETV
vector 1814  Network.dyn_peer[28]  lookupTimeSig:vector  ETV
vector 1815  Network.dyn_peer[29]  lookupHopsSig:vector  ETV
vector 1816  Network.dyn_peer[29]  lookupStabilitySig:vector  ETV
vector 1817  Network.dyn_peer[29]  lookupTimeSig:vector  ETV
vector 1818  Network.dyn_peer[30]  lookupHopsSig:vector  ETV
vector 1819  Network.dyn_peer[30]  lookupStabilitySig:vector  ETV
vector 1820  Network.dyn_peer[30]  lookupTimeSig:vector  ETV
vector 1821  Network.dyn_peer[31]  lookupHopsSig:vector  ETV
vector 1822  Network.dyn_peer[31]  lookupStabilitySig:vector  ETV
vector 1823  Network.dyn_peer[31]  lookupTimeSig:vector  ETV
1728	33	120.2	2
1728	37	120.5	2
1728	45	120.722351368199	1
1728	51	120.936231116003	1
1728	1076	3320.2	2
1728	1079	3320.4	1
1728	1085	3320.709670259311	2
1728	1089	3320.91209882869	1
1728	2117	6520.2	2
1728	2120	6520.4	1
1728	2124	6520.604997728825	1
1728	2128	6520.81456415133	1
1728	3140	9720	0
1728	3144	9720.209578814115	1
1728	3149	9720.517041436386	2
1728	3153	9720.726373310842	1
1728	4208	12920.1	1
1728	4212	12920.300862523685	1
1728	4216	12920.500913699336	1
1728	4223	12920.813580630883	2
1728	5250	16120.1	1
1728	5254	16120.4	2
1728	5259	16120.610376826768	1
1728	5268	16120.839774483749	1
1728	6281	19320.3	3
1728	6287	19320.705267397859	3
1728	6292	19321.009010560943	2
1728	6297	19321.317090735407	2
1728	7338	22520.2	2
1728	7343	22520.507136968034	2
1728	7348	22520.717880269413	1
1728	7353	22521.027746186736	2
1728	8431	25720.1	1
1728	8435	25720.305476285226	1
1728	8441	25720.518954268571	1
1728	8450	25720.745165403802	1
1728	9472	28920	0
1728	9475	28920.2	1
1728	9480	28920.500261550468	2
1728	9489	28920.731934093612	1
1728	10498	32120.1	1
1728	10501	32120.3	1
1728	10505	32120.504596362747	1
1728	10510	32120.709007845469	1
1728	11535	35320.2	2
1728	11538	35320.4	1
1728	11542	35320.609343100856	1
1728	11546	35320.817765752817	1
1728	12547	38520.1	1
1728	12550	38520.3	1
1728	12555	38520.60257312125	2
1728	12562	38520.918329860746	2
1728	13598	41720.1	1
1728	13601	41720.3	1
1728	13605	41720.507096004392	1
1728	13610	41720.812906126979	2
1728	14630	44920.1	1
1728	14633	44920.3	1
1728	14642	44920.628126685215	2
1728	14646	44920.834672060106	1
1728	15674	48120.2	2
1728	15680	48120.413902181136	1
1728	15685	48120.714012930791	2
1728	15692	48120.940451880778	1
1728	16720	51320.1	1
1728	16724	51320.305818285201	1
1728	16729	51320.517193921698	1
1728	16737	51320.743962266565	1
1728	17775	54520.2	2
1728	17778	54520.4	1
1728	17783	54520.613788311688	1
1728	17788	54520.82450038598	1
1728	18821	57720.3	3
1728	18824	57720.5	1
1728	18829	57720.808712328718	2
1728	18835	57721.114370145004	2
1728	19857	60920.2	2
1728	19861	60920.5	2
1728	19866	60920.809958972651	2
1728	19870	60921.01314764199	1
1728	20890	64120.1	1
1728	20893	64120.3	1
1728	20899	64120.524084240976	1
1728	20903	64120.727115803235	1
1728	21937	67320.1	1
1728	21941	67320.307867841373	1
1728	21946	67320.515075434894	1
1728	21961	67320.860714255773	2
1728	22991	70520	0
1728	22994	70520.2	1
1728	22999	70520.50534703623	2
1728	23006	70520.819048906896	2
1728	24030	73720.1	1
1728	24033	73720.3	1
1728	24039	73720.60229114286	2
1728	24044	73720.812575159862	1
1728	25086	76920	0
1728	25089	76920.2	1
1728	25095	76920.416132566273	1
1728	25101	76920.639822073807	1
1728	26149	80120.2	2
1728	26153	80120.5	2
1728	26159	80120.807319357536	2
1728	26166	80121.017222560864	1
1728	27213	83320.2	2
1728	27218	83320.411053574773	1
1728	27222	83320.619320734111	1
1728	27227	83320.828059178311	1
1728	28241	86520.2	2
1728	28245	86520.5	2
1728	28251	86520.721077393492	1
1728	28255	86520.923975152038	1
1728	29254	89720.1	1
1728	29259	89720.307665154688	1
1728	29264	89720.616339751976	2
1728	29269	89720.916499589865	2
1728	30279	92920	0
1728	30282	92920.2	1
1728	30289	92920.510175359348	2
1728	30293	92920.713351847716	1
1728	31281	96120.2	2
1728	31286	96120.6	3
1728	31290	96120.807633264001	1
1728	31295	96121.112593268038	2
1728	32293	99320.2	2
1728	32297	99320.408420641745	1
1728	32304	99320.726852395197	2
1728	32308	99320.935568252876	1
1729	33	120.2	0.75
1729	37	120.5	0.75
1729	45	120.722351368199	0.875
1729	51	120.936231116003	0.875
1729	1076	3320.2	0.75
1729	1079	3320.4	0.875
1729	1085	3320.709670259311	0.75
1729	1089	3320.91209882869	0.875
1729	2117	6520.2	0.75
1729	2120	6520.4	0.875
1729	2124	6520.604997728825	0.875
1729	2128	6520.81456415133	0.875
1729	3140	9720	1
1729	3144	9720.209578814115	0.875
1729	3149	9720.517041436386	0.75
1729	3153	9720.726373310842	0.875
1729	4208	12920.1	0.875
1729	4212	12920.300862523685	0.875
1729	4216	12920.500913699336	0.875
1729	4223	12920.813580630883	0.75
1729	5250	16120.1	0.875
1729	5254	16120.4	0.75
1729	5259	16120.610376826768	0.875
1729	5268	16120.839774483749	0.875
1729	6281	19320.3	0.625
1729	6287	19320.705267397859	0.625
1729	6292	19321.009010560943	0.75
1729	6297	19321.317090735407	0.75
1729	7338	22520.2	0.75
1729	7343	22520.507136968034	0.75
1729	7348	22520.717880269413	0.875
1729	7353	22521.027746186736	0.75
1729	8431	25720.1	0.875
1729	8435	25720.305476285226	0.875
1729	8441	25720.518954268571	0.875
1729	8450	25720.745165403802	0.875
1729	9472	28920	1
1729	9475	28920.2	0.875
1729	9480	28920.500261550468	0.75
1729	9489	28920.731934093612	0.875
1729	10498	32120.1	0.875
1729	10501	32120.3	0.875
1729	10505	32120.504596362747	0.875
1729	10510	32120.709007845469	0.875
1729	11535	35320.2	0.75
1729	11538	35320.4	0.875
1729	11542	35320.609343100856	0.875
1729	11546	35320.817765752817	0.875
1729	12547	38520.1	0.875
1729	12550	38520.3	0.875
1729	12555	38520.60257312125	0.75
1729	12562	38520.918329860746	0.75
1729	13598	41720.1	0.875
1729	13601	41720.3	0.875
1729	13605	41720.507096004392	0.875
1729	13610	41720.812906126979	0.75
1729	14630	44920.1	0.875
1729	14633	44920.3	0.875
1729	14642	44920.628126685215	0.75
1729	14646	44920.834672060106	0.875
1729	15674	48120.2	0.75
1729	15680	48120.413902181136	0.875
1729	15685	48120.714012930791	0.75
1729	15692	48120.940451880778	0.875
1729	16720	51320.1	0.875
1729	16724	51320.305818285201	0.875
1729	16729	51320.517193921698	0.875
1729	16737	51320.743962266565	0.875
1729	17775	54520.2	0.75
1729	17778	54520.4	0.875
1729	17783	54520.613788311688	0.875
1729	17788	54520.82450038598	0.875
1729	18821	57720.3	0.625
1729	18824	57720.5	0.875
1729	18829	57720.808712328718	0.75
1729	18835	57721.114370145004	0.75
1729	19857	60920.2	0.75
1729	19861	60920.5	0.75
1729	19866	60920.809958972651	0.75
1729	19870	60921.01314764199	0.875
1729	20890	64120.1	0.875
1729	20893	64120.3	0.875
1729	20899	64120.524084240976	0.875
1729	20903	64120.727115803235	0.875
1729	21937	67320.1	0.875
1729	21941	67320.307867841373	0.875
1729	21946	67320.515075434894	0.875
1729	21961	67320.860714255773	0.75
1729	22991	70520	1
1729	22994	70520.2	0.875
1729	22999	70520.50534703623	0.75
1729	23006	70520.819048906896	0.75
1729	24030	73720.1	0.875
1729	24033	73720.3	0.875
1729	24039	73720.60229114286	0.75
1729	24044	73720.812575159862	0.875
1729	25086	76920	1
1729	25089	76920.2	0.875
1729	25095	76920.416132566273	0.875
1729	25101	76920.639822073807	0.875
1729	26149	80120.2	0.75
1729	26153	80120.5	0.75
1729	26159	80120.807319357536	0.75
1729	26166	80121.017222560864	0.875
1729	27213	83320.2	0.75
1729	27218	83320.411053574773	0.875
1729	27222	83320.619320734111	0.875
1729	27227	83320.828059178311	0.875
1729	28241	86520.2	0.75
1729	28245	86520.5	0.75
1729	28251	86520.721077393492	0.875
1729	28255	86520.923975152038	0.875
1729	29254	89720.1	0.875
1729	29259	89720.307665154688	0.875
1729	29264	89720.616339751976	0.75
1729	29269	89720.916499589865	0.75
1729	30279	92920	1
1729	30282	92920.2	0.875
1729	30289	92920.510175359348	0.75
1729	30293	92920.713351847716	0.875
1729	31281	96120.2	0.75
1729	31286	96120.6	0.625
1729	31290	96120.807633264001	0.875
1729	31295	96121.112593268038	0.75
1729	32293	99320.2	0.75
1729	32297	99320.408420641745	0.875
1729	32304	99320.726852395197	0.75
1729	32308	99320.935568252876	0.875
1730	33	120.2	0.2
1730	37	120.5	0.3
1730	45	120.722351368199	0.2
1730	51	120.936231116003	0.2
1730	1076	3320.2	0.2
1730	1079	3320.4	0.2
1730	1085	3320.709670259311	0.3
1730	1089	3320.91209882869	0.2
1730	2117	6520.2	0.2
1730	2120	6520.4	0.2
1730	2124	6520.604997728825	0.2
1730	2128	6520.81456415133	0.2
1730	3140	9720	0
1730	3144	9720.209578814115	0.2
1730	3149	9720.517041436386	0.3
1730	3153	9720.726373310842	0.2
1730	4208	12920.1	0.1
1730	4212	12920.300862523685	0.2
1730	4216	12920.500913699336	0.2
1730	4223	12920.813580630883	0.3
1730	5250	16120.1	0.1
1730	5254	16120.4	0.3
1730	5259	16120.610376826768	0.2
1730	5268	16120.839774483749	0.2
1730	6281	19320.3	0.3
1730	6287	19320.705267397859	0.4
1730	6292	19321.009010560943	0.3
1730	6297	19321.317090735407	0.3
1730	7338	22520.2	0.2
1730	7343	22520.507136968034	0.3
1730	7348	22520.717880269413	0.2
1730	7353	22521.027746186736	0.3
1730	8431	25720.1	0.1
1730	8435	25720.305476285226	0.2
1730	8441	25720.518954268571	0.2
1730	8450	25720.745165403802	0.2
1730	9472	28920	0
1730	9475	28920.2	0.2
1730	9480	28920.500261550468	0.3
1730	9489	28920.731934093612	0.2
1730	10498	32120.1	0.1
1730	10501	32120.3	0.2
1730	10505	32120.504596362747	0.2
1730	10510	32120.709007845469	0.2
1730	11535	35320.2	0.2
1730	11538	35320.4	0.2
1730	11542	35320.609343100856	0.2
1730	11546	35320.817765752817	0.2
1730	12547	38520.1	0.1
1730	12550	38520.3	0.2
1730	12555	38520.60257312125	0.3
1730	12562	38520.918329860746	0.3
1730	13598	41720.1	0.1
1730	13601	41720.3	0.2
1730	13605	41720.507096004392	0.2
1730	13610	41720.812906126979	0.3
1730	14630	44920.1	0.1
1730	14633	44920.3	0.2
1730	14642	44920.628126685215	0.3
1730	14646	44920.834672060106	0.2
1730	15674	48120.2	0.2
1730	15680	48120.413902181136	0.2
1730	15685	48120.714012930791	0.3
1730	15692	48120.940451880778	0.2
1730	16720	51320.1	0.1
1730	16724	51320.305818285201	0.2
1730	16729	51320.517193921698	0.2
1730	16737	51320.743962266565	0.2
1730	17775	54520.2	0.2
1730	17778	54520.4	0.2
1730	17783	54520.613788311688	0.2
1730	17788	54520.82450038598	0.2
1730	18821	57720.3	0.3
1730	18824	57720.5	0.2
1730	18829	57720.808712328718	0.3
1730	18835	57721.114370145004	0.3
1730	19857	60920.2	0.2
1730	19861	60920.5	0.3
1730	19866	60920.809958972651	0.3
1730	19870	60921.01314764199	0.2
1730	20890	64120.1	0.1
1730	20893	64120.3	0.2
1730	20899	64120.524084240976	0.2
1730	20903	64120.727115803235	0.2
1730	21937	67320.1	0.1
1730	21941	67320.307867841373	0.2
1730	21946	67320.515075434894	0.2
1730	21961	67320.860714255773	0.3
1730	22991	70520	0
1730	22994	70520.2	0.2
1730	22999	70520.50534703623	0.3
1730	23006	70520.819048906896	0.3
1730	24030	73720.1	0.1
1730	24033	73720.3	0.2
1730	24039	73720.60229114286	0.3
1730	24044	73720.812575159862	0.2
1730	25086	76920	0
1730	25089	76920.2	0.2
1730	25095	76920.416132566273	0.2
1730	25101	76920.639822073807	0.2
1730	26149	80120.2	0.2
1730	26153	80120.5	0.3
1730	26159	80120.807319357536	0.3
1730	26166	80121.017222560864	0.2
1730	27213	83320.2	0.2
1730	27218	83320.411053574773	0.2
1730	27222	83320.619320734111	0.2
1730	27227	83320.828059178311	0.2
1730	28241	86520.2	0.2
1730	28245	86520.5	0.3
1730	28251	86520.721077393492	0.2
1730	28255	86520.923975152038	0.2
1730	29254	89720.1	0.1
1730	29259	89720.307665154688	0.2
1730	29264	89720.616339751976	0.3
1730	29269	89720.916499589865	0.3
1730	30279	92920	0
1730	30282	92920.2	0.2
1730	30289	92920.510175359348	0.3
1730	30293	92920.713351847716	0.2
1730	31281	96120.2	0.2
1730	31286	96120.6	0.4
1730	31290	96120.807633264001	0.2
1730	31295	96121.112593268038	0.3
1730	32293	99320.2	0.2
1730	32297	99320.408420641745	0.2
1730	32304	99320.726852395197	0.3
1730	32308	99320.935568252876	0.2
1731	69	220.2	2
1731	72	220.4	1
1731	77	220.616740057514	1
1731	86	220.848391262508	1
1731	1106	3420.1	1
1731	1109	3420.3	1
1731	1113	3420.500353230196	1
1731	1117	3420.708042045356	1
1731	2145	6620.1	1
1731	2149	6620.4	2
1731	2154	6620.604332742632	1
1731	2158	6620.805598407649	1
1731	3171	9820.2	2
1731	3175	9820.409470987287	1
1731	3181	9820.719048579287	2
1731	3188	9820.932860312421	1
1731	4240	13020.1	1
1731	4243	13020.3	1
1731	4247	13020.505172648469	1
1731	4252	13020.810912442476	2
1731	5285	16220.1	1
1731	5289	16220.4	2
1731	5293	16220.609406768884	1
1731	5297	16220.814966718898	1
1731	6314	19420.1	1
1731	6320	19420.411547520341	2
1731	6324	19420.611934448626	1
1731	6330	19420.918217550656	2
1731	7370	22620.1	1
1731	7374	22620.4	2
1731	7381	22620.807281722041	3
1731	7385	22621.016027270521	1
1731	8468	25820.2	2
1731	8471	25820.4	1
1731	8480	25820.62261945245	1
1731	8486	25820.836329886404	1
1731	9506	29020.1	1
1731	9510	29020.4	2
1731	9515	29020.61331649307	1
1731	9519	29020.813637705213	1
1731	10528	32220.2	2
1731	10532	32220.404399944341	1
1731	10536	32220.612638781475	1
1731	10541	32220.917846769705	2
1731	11563	35420.1	1
1731	11567	35420.4	2
1731	11571	35420.606128201358	1
1731	11576	35420.908679250799	2
1731	12579	38620.1	1
1731	12582	38620.3	1
1731	12586	38620.502585657108	1
1731	12591	38620.712518350112	1
1731	13628	41820.2	2
1731	13631	41820.4	1
1731	13636	41820.704875451773	2
1731	13640	41820.911753368884	1
1731	14663	45020.1	1
1731	14668	45020.5	3
1731	14672	45020.70444263014	1
1731	14680	45021.02509184964	2
1731	15710	48220.2	2
1731	15713	48220.4	1
1731	15717	48220.606887148574	1
1731	15722	48220.91396784166	2
1731	16755	51420.2	2
1731	16760	51420.504463119506	2
1731	16766	51420.820151189564	2
1731	16773	51421.143247173362	2
1731	17807	54620.3	3
1731	17811	54620.6	2
1731	17815	54620.801851470298	1
1731	17824	54621.133761189049	2
1731	18853	57820.2	2
1731	18859	57820.512518560908	2
1731	18863	57820.720631387904	1
1731	18868	57821.02949139082	2
1731	19887	61020.1	1
1731	19890	61020.3	1
1731	19895	61020.600650945475	2
1731	19900	61020.818874697628	1
1731	20921	64220.2	2
1731	20926	64220.6	3
1731	20931	64220.904708094848	2
1731	20936	64221.116035244359	1
1731	21979	67420.2	2
1731	21982	67420.4	1
1731	21988	67420.708590656162	2
1731	21993	67420.925982686021	1
1731	23022	70620	0
1731	23025	70620.2	1
1731	23031	70620.411036533446	1
1731	23036	70620.713993463956	2
1731	24062	73820.2	2
1731	24066	73820.5	2
1731	24071	73820.704133964315	1
1731	24087	73820.972360179391	1
1731	25119	77020.2	2
1731	25123	77020.5	2
1731	25127	77020.706435847769	1
1731	25133	77020.918209885081	1
1731	26184	80220.2	2
1731	26187	80220.4	1
1731	26195	80220.630038423286	1
1731	26200	80220.837858077372	1
1731	27245	83420.2	2
1731	27248	83420.4	1
1731	27252	83420.603661074051	1
1731	27258	83420.817486567703	1
1731	28273	86620.2	2
1731	28276	86620.4	1
1731	28281	86620.611368762042	1
1731	28290	86620.938265067405	2
1731	29286	89820.1	1
1731	29289	89820.3	1
1731	29293	89820.502761593889	1
1731	29298	89820.718406055987	1
1731	30311	93020.2	2
1731	30315	93020.5	2
1731	30321	93020.713195308001	1
1731	30328	93020.930233543473	1
1731	31312	96220.1	1
1731	31316	96220.4	2
1731	31321	96220.613125302765	1
1731	31325	96220.818402107033	1
1731	32326	99420.2	2
1731	32331	99420.6	3
1731	32336	99420.810358093703	1
1731	32342	99421.021728874824	1
1732	69	220.2	0.75
1732	72	220.4	0.875
1732	77	220.616740057514	0.875
1732	86	220.848391262508	0.875
1732	1106	3420.1	0.875
1732	1109	3420.3	0.875
1732	1113	3420.500353230196	0.875
1732	1117	3420.708042045356	0.875
1732	2145	6620.1	0.875
1732	2149	6620.4	0.75
1732	2154	6620.604332742632	0.875
1732	2158	6620.805598407649	0.875
1732	3171	9820.2	0.75
1732	3175	9820.409470987287	0.875
1732	3181	9820.719048579287	0.75
1732	3188	9820.932860312421	0.875
1732	4240	13020.1	0.875
1732	4243	13020.3	0.875
1732	4247	13020.505172648469	0.875
1732	4252	13020.810912442476	0.75
1732	5285	16220.1	0.875
1732	5289	16220.4	0.75
1732	5293	16220.609406768884	0.875
1732	5297	16220.814966718898	0.875
1732	6314	19420.1	0.875
1732	6320	19420.411547520341	0.75
1732	6324	19420.611934448626	0.875
1732	6330	19420.918217550656	0.75
1732	7370	22620.1	0.875
1732	7374	22620.4	0.75
1732	7381	22620.807281722041	0.625
1732	7385	22621.016027270521	0.875
1732	8468	25820.2	0.75
1732	8471	25820.4	0.875
1732	8480	25820.62261945245	0.875
1732	8486	25820.836329886404	0.875
1732	9506	29020.1	0.875
1732	9510	29020.4	0.75
1732	9515	29020.61331649307	0.875
1732	9519	29020.813637705213	0.875
1732	10528	32220.2	0.75
1732	10532	32220.404399944341	0.875
1732	10536	32220.612638781475	0.875
1732	10541	32220.917846769705	0.75
1732	11563	35420.1	0.875
1732	11567	35420.4	0.75
1732	11571	35420.606128201358	0.875
1732	11576	35420.908679250799	0.75
1732	12579	38620.1	0.875
1732	12582	38620.3	0.875
1732	12586	38620.502585657108	0.875
1732	12591	38620.712518350112	0.875
1732	13628	41820.2	0.75
1732	13631	41820.4	0.875
1732	13636	41820.704875451773	0.75
1732	13640	41820.911753368884	0.875
1732	14663	45020.1	0.875
1732	14668	45020.5	0.625
1732	14672	45020.70444263014	0.875
1732	14680	45021.02509184964	0.75
1732	15710	48220.2	0.75
1732	15713	48220.4	0.875
1732	15717	48220.606887148574	0.875
1732	15722	48220.91396784166	0.75
1732	16755	51420.2	0.75
1732	16760	51420.504463119506	0.75
1732	16766	51420.820151189564	0.75
1732	16773	51421.143247173362	0.75
1732	17807	54620.3	0.625
1732	17811	54620.6	0.75
1732	17815	54620.801851470298	0.875
1732	17824	54621.133761189049	0.75
1732	18853	57820.2	0.75
1732	18859	57820.512518560908	0.75
1732	18863	57820.720631387904	0.875
1732	18868	57821.02949139082	0.75
1732	19887	61020.1	0.875
1732	19890	61020.3	0.875
1732	19895	61020.600650945475	0.75
1732	19900	61020.818874697628	0.875
1732	20921	64220.2	0.75
1732	20926	64220.6	0.625
1732	20931	64220.904708094848	0.75
1732	20936	64221.116035244359	0.875
1732	21979	67420.2	0.75
1732	21982	67420.4	0.875
1732	21988	67420.708590656162	0.75
1732	21993	67420.925982686021	0.875
1732	23022	70620	1
1732	23025	70620.2	0.875
1732	23031	70620.411036533446	0.875
1732	23036	70620.713993463956	0.75
1732	24062	73820.2	0.75
1732	24066	73820.5	0.75
1732	24071	73820.704133964315	0.875
1732	24087	73820.972360179391	0.875
1732	25119	77020.2	0.75
1732	25123	77020.5	0.75
1732	25127	77020.706435847769	0.875
1732	25133	77020.918209885081	0.875
1732	26184	80220.2	0.75
1732	26187	80220.4	0.875
1732	26195	80220.630038423286	0.875
1732	26200	80220.837858077372	0.875
1732	27245	83420.2	0.75
1732	27248	83420.4	0.875
1732	27252	83420.603661074051	0.875
1732	27258	83420.817486567703	0.875
1732	28273	86620.2	0.75
1732	28276	86620.4	0.875
1732	28281	86620.611368762042	0.875
1732	28290	86620.938265067405	0.75
1732	29286	89820.1	0.875
1732	29289	89820.3	0.875
1732	29293	89820.502761593889	0.875
1732	29298	89820.718406055987	0.875
1732	30311	93020.2	0.75
1732	30315	93020.5	0.75
1732	30321	93020.713195308001	0.875
1732	30328	93020.930233543473	0.875
1732	31312	96220.1	0.875
1732	31316	96220.4	0.75
1732	31321	96220.613125302765	0.875
1732	31325	96220.818402107033	0.875
1732	32326	99420.2	0.75
1732	32331	99420.6	0.625
1732	32336	99420.810358093703	0.875
1732	32342	99421.021728874824	0.875
1733	69	220.2	0.2
1733	72	220.4	0.2
1733	77	220.616740057514	0.2
1733	86	220.848391262508	0.2
1733	1106	3420.1	0.1
1733	1109	3420.3	0.2
1733	1113	3420.500353230196	0.2
1733	1117	3420.708042045356	0.2
1733	2145	6620.1	0.1
1733	2149	6620.4	0.3
1733	2154	6620.604332742632	0.2
1733	2158	6620.805598407649	0.2
1733	3171	9820.2	0.2
1733	3175	9820.409470987287	0.2
1733	3181	9820.719048579287	0.3
1733	3188	9820.932860312421	0.2
1733	4240	13020.1	0.1
1733	4243	13020.3	0.2
1733	4247	13020.505172648469	0.2
1733	4252	13020.810912442476	0.3
1733	5285	16220.1	0.1
1733	5289	16220.4	0.3
1733	5293	16220.609406768884	0.2
1733	5297	16220.814966718898	0.2
1733	6314	19420.1	0.1
1733	6320	19420.411547520341	0.3
1733	6324	19420.611934448626	0.2
1733	6330	19420.918217550656	0.3
1733	7370	22620.1	0.1
1733	7374	22620.4	0.3
1733	7381	22620.807281722041	0.4
1733	7385	22621.016027270521	0.2
1733	8468	25820.2	0.2
1733	8471	25820.4	0.2
1733	8480	25820.62261945245	0.2
1733	8486	25820.836329886404	0.2
1733	9506	29020.1	0.1
1733	9510	29020.4	0.3
1733	9515	29020.61331649307	0.2
1733	9519	29020.813637705213	0.2
1733	10528	32220.2	0.2
1733	10532	32220.404399944341	0.2
1733	10536	32220.612638781475	0.2
1733	10541	32220.917846769705	0.3
1733	11563	35420.1	0.1
1733	11567	35420.4	0.3
1733	11571	35420.606128201358	0.2
1733	11576	35420.908679250799	0.3
1733	12579	38620.1	0.1
1733	12582	38620.3	0.2
1733	12586	38620.502585657108	0.2
1733	12591	38620.712518350112	0.2
1733	13628	41820.2	0.2
1733	13631	41820.4	0.2
1733	13636	41820.704875451773	0.3
1733	13640	41820.911753368884	0.2
1733	14663	45020.1	0.1
1733	14668	45020.5	0.4
1733	14672	45020.70444263014	0.2
1733	14680	45021.02509184964	0.3
1733	15710	48220.2	0.2
1733	15713	48220.4	0.2
1733	15717	48220.606887148574	0.2
1733	15722	48220.91396784166	0.3
1733	16755	51420.2	0.2
1733	16760	51420.504463119506	0.3
1733	16766	51420.820151189564	0.3
1733	16773	51421.143247173362	0.3
1733	17807	54620.3	0.3
1733	17811	54620.6	0.3
1733	17815	54620.801851470298	0.2
1733	17824	54621.133761189049	0.3
1733	18853	57820.2	0.2
1733	18859	57820.512518560908	0.3
1733	18863	57820.720631387904	0.2
1733	18868	57821.02949139082	0.3
1733	19887	61020.1	0.1
1733	19890	61020.3	0.2
1733	19895	61020.600650945475	0.3
1733	19900	61020.818874697628	0.2
1733	20921	64220.2	0.2
1733	20926	64220.6	0.4
1733	20931	64220.904708094848	0.3
1733	20936	64221.116035244359	0.2
1733	21979	67420.2	0.2
1733	21982	67420.4	0.2
1733	21988	67420.708590656162	0.3
1733	21993	67420.925982686021	0.2
1733	23022	70620	0
1733	23025	70620.2	0.2
1733	23031	70620.411036533446	0.2
1733	23036	70620.713993463956	0.3
1733	24062	73820.2	0.2
1733	24066	73820.5	0.3
1733	24071	73820.704133964315	0.2
1733	24087	73820.972360179391	0.2
1733	25119	77020.2	0.2
1733	25123	77020.5	0.3
1733	25127	77020.706435847769	0.2
1733	25133	77020.918209885081	0.2
1733	26184	80220.2	0.2
1733	26187	80220.4	0.2
1733	26195	80220.630038423286	0.2
1733	26200	80220.837858077372	0.2
1733	27245	83420.2	0.2
1733	27248	83420.4	0.2
1733	27252	83420.603661074051	0.2
1733	27258	83420.817486567703	0.2
1733	28273	86620.2	0.2
1733	28276	86620.4	0.2
1733	28281	86620.611368762042	0.2
1733	28290	86620.938265067405	0.3
1733	29286	89820.1	0.1
1733	29289	89820.3	0.2
1733	29293	89820.502761593889	0.2
1733	29298	89820.718406055987	0.2
1733	30311	93020.2	0.2
1733	30315	93020.5	0.3
1733	30321	93020.713195308001	0.2
1733	30328	93020.930233543473	0.2
1733	31312	96220.1	0.1
1733	31316	96220.4	0.3
1733	31321	96220.613125302765	0.2
1733	31325	96220.818402107033	0.2
1733	32326	99420.2	0.2
1733	32331	99420.6	0.4
1733	32336	99420.810358093703	0.2
1733	32342	99421.021728874824	0.2
1734	103	320.1	1
1734	107	320.4	2
1734	111	320.605607477249	1
1734	119	320.832312126952	1
1734	1136	3520.3	3
1734	1140	3520.507803946333	1
1734	1144	3520.71626301293	1
1734	1150	3520.932423823586	1
1734	2176	6720.2	2
1734	2182	6720.51401618387	2
1734	2187	6720.722678097657	1
1734	2196	6720.955584926095	1
1734	3206	9920.2	2
1734	3210	9920.5	2
1734	3215	9920.708695066577	1
1734	3219	9920.918683577718	1
1734	4270	13120.2	2
1734	4273	13120.4	1
1734	4279	13120.617179050528	1
1734	4283	13120.822928279879	1
1734	5314	16320.1	1
1734	5319	16320.5	3
1734	5324	16320.703270922419	1
1734	5330	16320.919159448105	1
1734	6347	19520.1	1
1734	6352	19520.400436587932	2
1734	6356	19520.604635942028	1
1734	6362	19520.830681336617	1
1734	7402	22720.1	1
1734	7407	22720.409305773705	2
1734	7414	22720.723861713434	2
1734	7419	22720.941108444137	1
1734	8503	25920.1	1
1734	8506	25920.3	1
1734	8510	25920.501085582699	1
1734	8515	25920.804697645245	2
1734	9537	29120.2	2
1734	9541	29120.409495594655	1
1734	9546	29120.711922528878	2
1734	9552	29120.925853762243	1
1734	10558	32320.1	1
1734	10562	32320.4	2
1734	10566	32320.608882984369	1
1734	10572	32320.917901827563	2
1734	11594	35520.2	2
1734	11598	35520.5	2
1734	11602	35520.707688855689	1
1734	11607	35520.923624338911	1
1734	12609	38720.2	2
1734	12613	38720.403283193069	1
1734	12617	38720.605700198776	1
1734	12622	38720.915328446909	2
1734	13658	41920.2	2
1734	13662	41920.5	2
1734	13668	41920.719200394675	1
1734	13685	41920.991672053086	1
1734	14697	45120.1	1
1734	14705	45120.320944357359	1
1734	14710	45120.629560173166	2
1734	14715	45120.930517247657	2
1734	15740	48320.2	2
1734	15745	48320.500532777952	2
1734	15751	48320.90482918201	3
1734	15759	48321.131654665407	1
1734	16792	51520.3	3
1734	16796	51520.6	2
1734	16801	51520.904955922868	2