version 2
run Stability-66-20130524-20:23:03-3483
attr configname Stability
attr datetime 20130524-20:23:03
attr experiment Stability
attr inifile omnetpp.ini
attr iterationvars $0=1e0
attr iterationvars2 "$0=1e0, $repetition=6"
attr measurement $0=1e0
attr network Network
attr processid 3483
attr repetition 6
attr replication #6
attr resultdir results
attr runnumber 66
attr seedset 66

vector 6366  Network.dyn_peer[10]  lookupHopsSig:vector  ETV
vector 6367  Network.dyn_peer[10]  lookupStabilitySig:vector  ETV
vector 6368  Network.dyn_peer[10]  lookupTimeSig:vector  ETV
vector 6381  Network.dyn_peer[15]  lookupHopsSig:vector  ETV
vector 6382  Network.dyn_peer[15]  lookupStabilitySig:vector  ETV
vector 6383  Network.dyn_peer[15]  lookupTimeSig:vector  ETV
vector 6396  Network.dyn_peer[20]  lookupHopsSig:vector  ETV
vector 6397  Network.dyn_peer[20]  lookupStabilitySig:vector  ETV
vector 6398  Network.dyn_peer[20]  lookupTimeSig:vector  ETV
vector 6429  Network.dyn_peer[31]  lookupHopsSig:vector  ETV
vector 6430  Network.dyn_peer[31]  lookupStabilitySig:vector  ETV
vector 6431  Network.dyn_peer[31]  lookupTimeSig:vector  ETV
vector 6339  Network.dyn_peer[1]  lookupHopsSig:vector  ETV
vector 6340  Network.dyn_peer[1]  lookupStabilitySig:vector  ETV
vector 6341  Network.dyn_peer[1]  lookupTimeSig:vector  ETV
vector 6372  Network.dyn_peer[12]  lookupHopsSig:vector  ETV
vector 6373  Network.dyn_peer[12]  lookupStabilitySig:vector  ETV
vector 6374  Network.dyn_peer[12]  lookupTimeSig:vector  ETV
vector 6378  Network.dyn_peer[14]  lookupHopsSig:vector  ETV
vector 6379  Network.dyn_peer[14]  lookupStabilitySig:vector  ETV
vector 6380  Network.dyn_peer[14]  lookupTimeSig:vector  ETV
vector 6384  Network.dyn_peer[16]  lookupHopsSig:vector  ETV
vector 6385  Network.dyn_peer[16]  lookupStabilitySig:vector  ETV
vector 6386  Network.dyn_peer[16]  lookupTimeSig:vector  ETV
vector 6387  Network.dyn_peer[17]  lookupHopsSig:vector  ETV
vector 6388  Network.dyn_peer[17]  lookupStabilitySig:vector  ETV
vector 6389  Network.dyn_peer[17]  lookupTimeSig:vector  ETV
vector 6402  Network.dyn_peer[22]  lookupHopsSig:vector  ETV
vector 6403  Network.dyn_peer[22]  lookupStabilitySig:vector  ETV
vector 6404  Network.dyn_peer[22]  lookupTimeSig:vector  ETV
vector 6408  Network.dyn_peer[24]  lookupHopsSig:vector  ETV
vector 6409  Network.dyn_peer[24]  lookupStabilitySig:vector  ETV
vector 6410  Network.dyn_peer[24]  lookupTimeSig:vector  ETV
vector 6336  Network.dyn_peer[0]  lookupHopsSig:vector  ETV
vector 6337  Network.dyn_peer[0]  lookupStabilitySig:vector  ETV
vector 6338  Network.dyn_peer[0]  lookupTimeSig:vector  ETV
vector 6342  Network.dyn_peer[2]  lookupHopsSig:vector  ETV
vector 6343  Network.dyn_peer[2]  lookupStabilitySig:vector  ETV
vector 6344  Network.dyn_peer[2]  lookupTimeSig:vector  ETV
vector 6351  Network.dyn_peer[5]  lookupHopsSig:vector  ETV
vector 6352  Network.dyn_peer[5]  lookupStabilitySig:vector  ETV
vector 6353  Network.dyn_peer[5]  lookupTimeSig:vector  ETV
vector 6363  Network.dyn_peer[9]  lookupHopsSig:vector  ETV
vector 6364  Network.dyn_peer[9]  lookupStabilitySig:vector  ETV
vector 6365  Network.dyn_peer[9]  lookupTimeSig:vector  ETV
vector 6375  Network.dyn_peer[13]  lookupHopsSig:vector  ETV
vector 6376  Network.dyn_peer[13]  lookupStabilitySig:vector  ETV
vector 6377  Network.dyn_peer[13]  lookupTimeSig:vector  ETV
vector 6399  Network.dyn_peer[21]  lookupHopsSig:vector  ETV
vector 6400  Network.dyn_peer[21]  lookupStabilitySig:vector  ETV
vector 6401  Network.dyn_peer[21]  lookupTimeSig:vector  ETV
vector 6411  Network.dyn_peer[25]  lookupHopsSig:vector  ETV
vector 6412  Network.dyn_peer[25]  lookupStabilitySig:vector  ETV
vector 6413  Network.dyn_peer[25]  lookupTimeSig:vector  ETV
vector 6414  Network.dyn_peer[26]  lookupHopsSig:vector  ETV
vector 6415  Network.dyn_peer[26]  lookupStabilitySig:vector  ETV
vector 6416  Network.dyn_peer[26]  lookupTimeSig:vector  ETV
vector 6417  Network.dyn_peer[27]  lookupHopsSig:vector  ETV
vector 6418  Network.dyn_peer[27]  lookupStabilitySig:vector  ETV
vector 6419  Network.dyn_peer[27]  lookupTimeSig:vector  ETV
vector 6348  Network.dyn_peer[4]  lookupHopsSig:vector  ETV
vector 6349  Network.dyn_peer[4]  lookupStabilitySig:vector  ETV
vector 6350  Network.dyn_peer[4]  lookupTimeSig:vector  ETV
vector 6369  Network.dyn_peer[11]  lookupHopsSig:vector  ETV
vector 6370  Network.dyn_peer[11]  lookupStabilitySig:vector  ETV
vector 6371  Network.dyn_peer[11]  lookupTimeSig:vector  ETV
vector 6393  Network.dyn_peer[19]  lookupHopsSig:vector  ETV
vector 6394  Network.dyn_peer[19]  lookupStabilitySig:vector  ETV
vector 6395  Network.dyn_peer[19]  lookupTimeSig:vector  ETV
vector 6405  Network.dyn_peer[23]  lookupHopsSig:vector  ETV
vector 6406  Network.dyn_peer[23]  lookupStabilitySig:vector  ETV
vector 6407  Network.dyn_peer[23]  lookupTimeSig:vector  ETV
vector 6420  Network.dyn_peer[28]  lookupHopsSig:vector  ETV
vector 6421  Network.dyn_peer[28]  lookupStabilitySig:vector  ETV
vector 6422  Network.dyn_peer[28]  lookupTimeSig:vector  ETV
vector 6426  Network.dyn_peer[30]  lookupHopsSig:vector  ETV
vector 6427  Network.dyn_peer[30]  lookupStabilitySig:vector  ETV
vector 6428  Network.dyn_peer[30]  lookupTimeSig:vector  ETV
vector 6345  Network.dyn_peer[3]  lookupHopsSig:vector  ETV
vector 6346  Network.dyn_peer[3]  lookupStabilitySig:vector  ETV
vector 6347  Network.dyn_peer[3]  lookupTimeSig:vector  ETV
vector 6357  Network.dyn_peer[7]  lookupHopsSig:vector  ETV
vector 6358  Network.dyn_peer[7]  lookupStabilitySig:vector  ETV
vector 6359  Network.dyn_peer[7]  lookupTimeSig:vector  ETV
vector 6360  Network.dyn_peer[8]  lookupHopsSig:vector  ETV
vector 6361  Network.dyn_peer[8]  lookupStabilitySig:vector  ETV
vector 6362  Network.dyn_peer[8]  lookupTimeSig:vector  ETV
vector 6390  Network.dyn_peer[18]  lookupHopsSig:vector  ETV
vector 6391  Network.dyn_peer[18]  lookupStabilitySig:vector  ETV
vector 6392  Network.dyn_peer[18]  lookupTimeSig:vector  ETV
vector 6423  Network.dyn_peer[29]  lookupHopsSig:vector  ETV
vector 6424  Network.dyn_peer[29]  lookupStabilitySig:vector  ETV
vector 6425  Network.dyn_peer[29]  lookupTimeSig:vector  ETV
vector 6354  Network.dyn_peer[6]  lookupHopsSig:vector  ETV
vector 6355  Network.dyn_peer[6]  lookupStabilitySig:vector  ETV
vector 6356  Network.dyn_peer[6]  lookupTimeSig:vector  ETV
6336	207	20.201	2
6336	554	20.801	5
6336	644	21.007227961694	1
6336	740	21.212262020137	1
6336	879	21.618023537623	3
6336	1643	120.352	3
6336	2000	120.752	3
6336	3133	220.264	2
6336	3483	220.664	3
6336	3863	221.267550275715	5
6336	5346	320.798	7
6336	5476	320.998	1
6336	5651	321.304625933235	2
6336	6760	420.637	5
6336	7094	421.237	5
6336	7305	421.843691727298	5
6336	7404	422.249068920829	3
6336	7455	422.558848944387	2
6336	8258	520.378	2
6336	8894	521.380677191481	9
6336	8999	521.686738754376	2
6336	9054	521.892513010387	1
6336	9134	522.198060275119	2
6336	9203	522.703459875987	4
6336	9240	523.105954002144	3
6336	10258	621.015	8
6336	10361	621.215	1
6336	10473	621.417704796073	1
6336	10694	622.025653362931	5
6336	10925	623.029172239187	9
6336	11538	720.341	1
6336	11750	720.641	2
6336	12053	721.148799165332	4
6336	13131	820.654	4
6336	13249	820.854	1
6336	13656	821.758617404718	8
6336	14710	920.794	5
6336	15083	921.494	6
6336	15323	922.298795033573	7
6336	15418	923.204785380261	8
6336	15444	923.610327049547	3
6336	15469	924.014480361085	3
6336	16250	1020.842	5
6336	16569	1021.542	6
6336	16687	1021.952866294842	3
6336	16768	1022.459211508221	4
6336	17618	1120.767	4
6336	17762	1121.067	2
6336	17867	1121.268638398882	1
6336	18255	1122.083617232241	7
6336	19414	1220.987	6
6336	19524	1221.187	1
6336	19635	1221.39653268456	1
6336	19857	1221.906195543077	4
6336	20880	1320.715	3
6336	21089	1321.115	3
6336	21197	1321.317212674771	1
6336	22130	1420.439	0
6336	22484	1420.840020892977	3
6336	22639	1421.140448426432	2
6336	23656	1520.567	1
6336	23852	1520.867	2
6336	24282	1521.776752258849	8
6336	24372	1522.081174698551	2
6336	25234	1620.615	1
6336	26016	1622.015	13
6336	26106	1622.331349856699	2
6336	26145	1622.638871940138	2
6336	26798	1720.754	2
6336	27285	1721.654	8
6336	27443	1722.159596840071	4
6336	27507	1722.56563569884	3
6336	27551	1722.970645461149	3
6336	28375	1820.885	3
6336	28605	1821.285	3
6336	28772	1821.59264487815	2
6336	28925	1821.9961286233	3
6336	28978	1822.205305115753	1
6336	29070	1822.725512107202	4
6336	29949	1920.914	3
6336	30112	1921.216051350614	2
6336	30562	1922.328623026544	10
6336	30678	1922.841061152768	4
6336	30753	1923.35030827524	4
6336	30825	1924.051793040354	6
6336	31663	2021.051	4
6336	32064	2021.851	7
6336	32152	2022.056372785688	1
6336	32236	2022.362102906858	2
6336	32286	2022.568169172369	1
6336	33162	2120.975	3
6336	33463	2121.575	5
6336	33721	2122.181145881919	5
6336	34470	2220.899	2
6336	35061	2222.099	11
6336	36033	2320.926	2
6336	36367	2321.626	6
6336	36529	2322.029334387692	3
6336	36627	2322.332876290149	2
6336	37341	2420.863	1
6336	37531	2421.163	2
6336	37780	2421.668558767304	4
6336	38796	2520.976	2
6336	38986	2521.276	2
6336	39195	2521.684309211924	3
6336	40102	2620.809	0
6336	40418	2621.209	3
6336	40745	2621.811121148824	5
6336	41809	2721.041	2
6336	41980	2721.341	2
6336	42092	2721.547627950961	1
6336	42354	2722.054992150845	4
6336	43735	2821.779	9
6336	43931	2822.279	4
6336	44001	2822.487171559972	1
6336	44188	2823.192281546471	6
6336	44256	2823.500788584763	2
6336	44307	2823.801455714303	2
6336	44363	2824.202123957167	3
6336	45112	2921.226	3
6336	45457	2922.026	7
6336	45697	2922.830003478218	7
6336	45763	2923.23337778168	3
6336	45822	2924.041199881727	7
6336	45874	2924.84799449406	7
6336	45894	2925.449405041713	5
6336	46487	3021.061	1
6336	46966	3021.961	8
6336	47185	3022.562477831583	5
6336	47314	3023.269040881335	6
6336	48166	3121.29	3
6336	48708	3122.39	10
6336	48945	3123.294425597605	8
6336	48999	3123.804012727718	4
6336	49030	3124.510563851369	6
6337	207	20.201	0.75
6337	554	20.801	0.58333334326744
6337	644	21.007227961694	0.92307692021132
6337	740	21.212262020137	0.9375
6337	879	21.618023537623	0.88888888806105
6337	1643	120.352	0.625
6337	2000	120.752	0.66666665673256
6337	3133	220.264	0.75
6337	3483	220.664	0.66666665673256
6337	3863	221.267550275715	0.58333334326744
6337	5346	320.798	0.36363637447357
6337	5476	320.998	0.92857142537832
6337	5651	321.304625933235	0.89999999850988
6337	6760	420.637	0.375
6337	7094	421.237	0.6875
6337	7305	421.843691727298	0.79166667163372
6337	7404	422.249068920829	0.89285714179277
6337	7455	422.558848944387	0.9333333298564
6337	8258	520.378	0.75
6337	8894	521.380677191481	0.52631577849388
6337	8999	521.686738754376	0.91666666418314
6337	9054	521.892513010387	0.96153846010566
6337	9134	522.198060275119	0.9333333298564
6337	9203	522.703459875987	0.88571428507566
6337	9240	523.105954002144	0.91666666418314
6337	10258	621.015	0.19999998807907
6337	10361	621.215	0.90909090638161
6337	10473	621.417704796073	0.92307692021132
6337	10694	622.025653362931	0.76190476119518
6337	10925	623.029172239187	0.70967742800713
6337	11538	720.341	0.875
6337	11750	720.641	0.75
6337	12053	721.148799165332	0.69230768084526
6337	13131	820.654	0.5
6337	13249	820.854	0.875
6337	13656	821.758617404718	0.63636362552643
6337	14710	920.794	0.375
6337	15083	921.494	0.5714285671711
6337	15323	922.298795033573	0.77419355511665
6337	15418	923.204785380261	0.78378377854824
6337	15444	923.610327049547	0.91891892254353
6337	15469	924.014480361085	0.92307692021132
6337	16250	1020.842	0.44444441795349
6337	16569	1021.542	0.71428570151329
6337	16687	1021.952866294842	0.89655172079802
6337	16768	1022.459211508221	0.87878787517548
6337	17618	1120.767	0.5
6337	17762	1121.067	0.75
6337	17867	1121.268638398882	0.90909090638161
6337	18255	1122.083617232241	0.68181818723679
6337	19414	1220.987	0.25
6337	19524	1221.187	0.88888888806105
6337	19635	1221.39653268456	0.92307692021132
6337	19857	1221.906195543077	0.78947368264198
6337	20880	1320.715	0.625
6337	21089	1321.115	0.625
6337	21197	1321.317212674771	0.91666666418314
6337	22130	1420.439	1
6337	22484	1420.840020892977	0.625
6337	22639	1421.140448426432	0.77777777612209
6337	23656	1520.567	0.875
6337	23852	1520.867	0.75
6337	24282	1521.776752258849	0.57894736528397
6337	24372	1522.081174698551	0.92307692021132
6337	25234	1620.615	0.875
6337	26016	1622.015	0.40909093618393
6337	26106	1622.331349856699	0.93548387289047
6337	26145	1622.638871940138	0.9411764703691
6337	26798	1720.754	0.75
6337	27285	1721.654	0.57894736528397
6337	27443	1722.159596840071	0.86206896603107
6337	27507	1722.56563569884	0.91176470369101
6337	27551	1722.970645461149	0.91176470369101
6337	28375	1820.885	0.625
6337	28605	1821.285	0.75
6337	28772	1821.59264487815	0.8823529407382
6337	28925	1821.9961286233	0.875
6337	28978	1822.205305115753	0.96428571268916
6337	29070	1822.725512107202	0.875
6337	29949	1920.914	0.625
6337	30112	1921.216051350614	0.79999999701977
6337	30562	1922.328623026544	0.58333334326744
6337	30678	1922.841061152768	0.86666665971279
6337	30753	1923.35030827524	0.875
6337	30825	1924.051793040354	0.84210526943207
6337	31663	2021.051	0.55555555224419
6337	32064	2021.851	0.61111110448837
6337	32152	2022.056372785688	0.95833333209157
6337	32236	2022.362102906858	0.92857142537832
6337	32286	2022.568169172369	0.96774193644524
6337	33162	2120.975	0.625
6337	33463	2121.575	0.5
6337	33721	2122.181145881919	0.79166667163372
6337	34470	2220.899	0.75
6337	35061	2222.099	0.44999998807907
6337	36033	2320.926	0.75
6337	36367	2321.626	0.5
6337	36529	2322.029334387692	0.84999999403954
6337	36627	2322.332876290149	0.92307692021132
6337	37341	2420.863	0.875
6337	37531	2421.163	0.75
6337	37780	2421.668558767304	0.5
6337	38796	2520.976	0.75
6337	38986	2521.276	0.77777777612209
6337	39195	2521.684309211924	0.69999998807907
6337	40102	2620.809	1
6337	40418	2621.209	0.625
6337	40745	2621.811121148824	0.54545453190804
6337	41809	2721.041	0.75
6337	41980	2721.341	0.75
6337	42092	2721.547627950961	0.875
6337	42354	2722.054992150845	0.77777777612209
6337	43735	2821.779	0.18181818723679
6337	43931	2822.279	0.79999999701977
6337	44001	2822.487171559972	0.9545454531908
6337	44188	2823.192281546471	0.77777777612209
6337	44256	2823.500788584763	0.93103448301554
6337	44307	2823.801455714303	0.93548387289047
6337	44363	2824.202123957167	0.91176470369101
6337	45112	2921.226	0.625
6337	45457	2922.026	0.58823528885841
6337	45697	2922.830003478218	0.75
6337	45763	2923.23337778168	0.91666666418314
6337	45822	2924.041199881727	0.80555555224419
6337	45874	2924.84799449406	0.81081080436707
6337	45894	2925.449405041713	0.86842104792595
6337	46487	3021.061	0.875
6337	46966	3021.961	0.19999998807907
6337	47185	3022.562477831583	0.8214285671711
6337	47314	3023.269040881335	0.83333332836628
6337	48166	3121.29	0.66666665673256
6337	48708	3122.39	0.52380952239037
6337	48945	3123.294425597605	0.75757575035095
6337	48999	3123.804012727718	0.89189188927412
6337	49030	3124.510563851369	0.84615384042263
6338	207	20.201	0.2
6338	554	20.801	0.6
6338	644	21.007227961694	0.2
6338	740	21.212262020137	0.2
6338	879	21.618023537623	0.4
6338	1643	120.352	0.3
6338	2000	120.752	0.4
6338	3133	220.264	0.2
6338	3483	220.664	0.4
6338	3863	221.267550275715	0.6
6338	5346	320.798	0.7
6338	5476	320.998	0.2
6338	5651	321.304625933235	0.3
6338	6760	420.637	0.5
6338	7094	421.237	0.6
6338	7305	421.843691727298	0.6
6338	7404	422.249068920829	0.4
6338	7455	422.558848944387	0.3
6338	8258	520.378	0.2
6338	8894	521.380677191481	1
6338	8999	521.686738754376	0.3
6338	9054	521.892513010387	0.2
6338	9134	522.198060275119	0.3
6338	9203	522.703459875987	0.5
6338	9240	523.105954002144	0.4
6338	10258	621.015	0.8
6338	10361	621.215	0.2
6338	10473	621.417704796073	0.2
6338	10694	622.025653362931	0.6
6338	10925	623.029172239187	1
6338	11538	720.341	0.1
6338	11750	720.641	0.3
6338	12053	721.148799165332	0.5
6338	13131	820.654	0.4
6338	13249	820.854	0.2
6338	13656	821.758617404718	0.9
6338	14710	920.794	0.5
6338	15083	921.494	0.7
6338	15323	922.298795033573	0.8
6338	15418	923.204785380261	0.9
6338	15444	923.610327049547	0.4
6338	15469	924.014480361085	0.4
6338	16250	1020.842	0.5
6338	16569	1021.542	0.7
6338	16687	1021.952866294842	0.4
6338	16768	1022.459211508221	0.5
6338	17618	1120.767	0.4
6338	17762	1121.067	0.3
6338	17867	1121.268638398882	0.2
6338	18255	1122.083617232241	0.8
6338	19414	1220.987	0.6
6338	19524	1221.187	0.2
6338	19635	1221.39653268456	0.2
6338	19857	1221.906195543077	0.5
6338	20880	1320.715	0.3
6338	21089	1321.115	0.4
6338	21197	1321.317212674771	0.2
6338	22130	1420.439	0
6338	22484	1420.840020892977	0.4
6338	22639	1421.140448426432	0.3
6338	23656	1520.567	0.1
6338	23852	1520.867	0.3
6338	24282	1521.776752258849	0.9
6338	24372	1522.081174698551	0.3
6338	25234	1620.615	0.1
6338	26016	1622.015	1.4
6338	26106	1622.331349856699	0.3
6338	26145	1622.638871940138	0.3
6338	26798	1720.754	0.2
6338	27285	1721.654	0.9
6338	27443	1722.159596840071	0.5
6338	27507	1722.56563569884	0.4
6338	27551	1722.970645461149	0.4
6338	28375	1820.885	0.3
6338	28605	1821.285	0.4
6338	28772	1821.59264487815	0.3
6338	28925	1821.9961286233	0.4
6338	28978	1822.205305115753	0.2
6338	29070	1822.725512107202	0.5
6338	29949	1920.914	0.3
6338	30112	1921.216051350614	0.3
6338	30562	1922.328623026544	1.1
6338	30678	1922.841061152768	0.5
6338	30753	1923.35030827524	0.5
6338	30825	1924.051793040354	0.7
6338	31663	2021.051	0.4
6338	32064	2021.851	0.8
6338	32152	2022.056372785688	0.2
6338	32236	2022.362102906858	0.3
6338	32286	2022.568169172369	0.2
6338	33162	2120.975	0.3
6338	33463	2121.575	0.6
6338	33721	2122.181145881919	0.6
6338	34470	2220.899	0.2
6338	35061	2222.099	1.2
6338	36033	2320.926	0.2
6338	36367	2321.626	0.7
6338	36529	2322.029334387692	0.4
6338	36627	2322.332876290149	0.3
6338	37341	2420.863	0.1
6338	37531	2421.163	0.3
6338	37780	2421.668558767304	0.5
6338	38796	2520.976	0.2
6338	38986	2521.276	0.3
6338	39195	2521.684309211924	0.4
6338	40102	2620.809	0
6338	40418	2621.209	0.4
6338	40745	2621.811121148824	0.6
6338	41809	2721.041	0.2
6338	41980	2721.341	0.3
6338	42092	2721.547627950961	0.2
6338	42354	2722.054992150845	0.5
6338	43735	2821.779	0.9
6338	43931	2822.279	0.5
6338	44001	2822.487171559972	0.2
6338	44188	2823.192281546471	0.7
6338	44256	2823.500788584763	0.3
6338	44307	2823.801455714303	0.3
6338	44363	2824.202123957167	0.4
6338	45112	2921.226	0.3
6338	45457	2922.026	0.8
6338	45697	2922.830003478218	0.8
6338	45763	2923.23337778168	0.4
6338	45822	2924.041199881727	0.8
6338	45874	2924.84799449406	0.8
6338	45894	2925.449405041713	0.6
6338	46487	3021.061	0.1
6338	46966	3021.961	0.9
6338	47185	3022.562477831583	0.6
6338	47314	3023.269040881335	0.7
6338	48166	3121.29	0.3
6338	48708	3122.39	1.1
6338	48945	3123.294425597605	0.9
6338	48999	3123.804012727718	0.5
6338	49030	3124.510563851369	0.7
6339	146	20.102	1
6339	351	20.402	2
6339	513	20.708293062712	2
6339	1804	120.534	5
6339	2112	120.934	3
6339	2278	121.234509715368	2
6339	3342	220.472	4
6339	3491	220.672	1
6339	3708	220.981580620075	2
6339	3932	221.387758364642	3
6339	4924	320.301	2
6339	5166	320.601	2
6339	5493	321.006857842052	3
6339	6607	420.431	3
6339	6993	421.031	5
6339	7132	421.331543156368	2
6339	8129	520.265	1
6339	8466	520.665	3
6339	8884	521.374466504906	6
6339	8997	521.686242389822	2
6339	9128	522.190768087735	4
6339	9650	620.209	0
6339	9855	620.409	1
6339	11915	720.918	7
6339	12064	721.218	2
6339	12311	721.819462211271	5
6339	13021	820.466	2
6339	13308	820.966	4
6339	13514	821.373680431394	3
6339	13723	821.980093597928	5
6339	13796	822.387298236244	3
6339	13848	822.987778482173	5
6339	13856	823.291517009906	2
6339	14365	920.329845319106	3
6339	14687	920.73872778532	3
6339	14740	920.81	5
6339	14931	921.148424342934	3
6339	14972	921.21	3
6339	15073	921.450310828863	2
6339	16074	1020.615	3
6339	16417	1021.215	5
6339	17435	1120.545	2
6339	17883	1121.345	7
6339	18043	1121.651208870152	2
6339	18228	1122.059326784363	3
6339	18327	1122.363421382165	2
6339	18377	1122.663963178271	2
6339	18422	1122.969740914153	2
6339	19684	1221.496	11
6339	19839	1221.896	3
6339	19979	1222.301068131238	3
6339	20102	1222.904507165368	5
6339	20136	1223.509245173906	5
6339	20152	1223.711389327743	1
6339	20970	1320.834	4
6339	21264	1321.434	5
6339	21354	1321.641117159222	1
6339	22308	1420.548	1
6339	22505	1420.848	2
6339	22960	1421.950530969511	10
6339	23745	1520.683	2
6339	24181	1521.483	7
6339	24378	1522.089581588904	5
6339	24468	1522.593286233285	4
6339	24516	1522.999029739607	3
6339	25336	1620.724	2
6339	25751	1621.424	6
6339	25955	1621.83399780357	3
6339	26036	1622.041693529199	1
6339	26613	1720.543	0
6339	26974	1721.043	4
6339	27129	1721.347263677143	2
6339	28518	1821.16	6
6339	28730	1821.56	3
6339	28825	1821.765741732174	1
6339	28956	1822.174573411489	3
6339	29788	1920.707	1
6339	29922	1920.907	1
6339	30206	1921.415109018765	4
6339	30307	1921.62432189383	1
6339	30385	1921.827550320181	1
6339	30460	1922.028345780135	1
6339	30540	1922.235803388478	1
6339	31314	2020.636	0
6339	31641	2021.03989573758	3
6339	33190	2121.052	4
6339	33519	2121.752	6
6339	34364	2220.786	1
6339	34629	2221.186	3
6339	34728	2221.389602144834	1
6339	34968	2221.893245854394	4
6339	35873	2320.723	0
6339	36313	2321.523	7
6339	37456	2421.047	3
6339	37799	2421.747	6
6339	38126	2422.552106186813	7
6339	38958	2521.194	4
6339	39380	2522.094	8
6339	39561	2522.698239403461	5
6339	40265	2620.93	1
6339	40502	2621.33	3
6339	40614	2621.532546662725	1
6339	40827	2621.937885594097	3
6339	41818	2721.046	2
6339	41988	2721.346	2
6339	42157	2721.654753947715	2
6339	42274	2721.862196680466	1
6339	43289	2820.977	1
6339	43479	2821.277	2
6339	43610	2821.486735740642	1
6339	44806	2920.902	0
6339	45131	2921.302	3
6339	45314	2921.625460327839	2
6339	46503	3021.136	2
6339	46931	3021.936	7
6339	47043	3022.153726026183	1
6339	48030	3121.17	2
6339	48761	3122.57	13
6339	48881	3122.971695325532	3
6339	48925	3123.176142237104	1
6340	146	20.102	0.875
6340	351	20.402	0.75
6340	513	20.708293062712	0.79999999701977
6340	1804	120.534	0.375
6340	2112	120.934	0.76923076808453
6340	2278	121.234509715368	0.8823529407382
6340	3342	220.472	0.5
6340	3491	220.672	0.88888888806105
6340	3708	220.981580620075	0.77777777612209
6340	3932	221.387758364642	0.79999999701977
6340	4924	320.301	0.75
6340	5166	320.601	0.77777777612209
6340	5493	321.006857842052	0.78571428358555
6340	6607	420.431	0.625
6340	6993	421.031	0.61538460850716
6340	7132	421.331543156368	0.8823529407382
6340	8129	520.265	0.875
6340	8466	520.665	0.66666665673256
6340	8884	521.374466504906	0.66666665673256
6340	8997	521.686242389822	0.91666666418314
6340	9128	522.190768087735	0.86206896603107
6340	9650	620.209	1
6340	9855	620.409	0.875
6340	11915	720.918	0.30000001192093
6340	12064	721.218	0.85714285075665
6340	12311	721.819462211271	0.79999999701977
6340	13021	820.466	0.75
6340	13308	820.966	0.5
6340	13514	821.373680431394	0.78571428358555
6340	13723	821.980093597928	0.81481482088566
6340	13796	822.387298236244	0.90909090638161
6340	13848	822.987778482173	0.86842104792595
6340	13856	823.291517009906	0.9473684206605
6340	14365	920.329845319106	0.625
6340	14687	920.73872778532	0.625
6340	14740	920.81	0.44444441795349
6340	14931	921.148424342934	0.72727271914482
6340	14972	921.21	0.75
6340	15073	921.450310828863	0.85714285075665
6340	16074	1020.615	0.625
6340	16417	1021.215	0.54545453190804
6340	17435	1120.545	0.75
6340	17883	1121.345	0.36363637447357
6340	18043	1121.651208870152	0.84615384042263
6340	18228	1122.059326784363	0.85714285075665
6340	18327	1122.363421382165	0.9333333298564
6340	18377	1122.663963178271	0.93548387289047
6340	18422	1122.969740914153	0.93548387289047
6340	19684	1221.496	0.15384614467621
6340	19839	1221.896	0.84210526943207
6340	19979	1222.301068131238	0.88000000268221
6340	20102	1222.904507165368	0.86842104792595
6340	20136	1223.509245173906	0.86842104792595
6340	20152	1223.711389327743	0.97368421033025
6340	20970	1320.834	0.5
6340	21264	1321.434	0.66666665673256
6340	21354	1321.641117159222	0.95238095149398
6340	22308	1420.548	0.875
6340	22505	1420.848	0.75
6340	22960	1421.950530969511	0.59999999403954
6340	23745	1520.683	0.75
6340	24181	1521.483	0.53333333134651
6340	24378	1522.089581588904	0.81481482088566
6340	24468	1522.593286233285	0.87878787517548
6340	24516	1522.999029739607	0.9142857119441
6340	25336	1620.724	0.75
6340	25751	1621.424	0.45454543828964
6340	25955	1621.83399780357	0.84210526943207
6340	26036	1622.041693529199	0.95652173832059
6340	26613	1720.543	1
6340	26974	1721.043	0.55555555224419
6340	27129	1721.347263677143	0.77777777612209
6340	28518	1821.16	0.33333331346512
6340	28730	1821.56	0.78571428358555
6340	28825	1821.765741732174	0.95238095149398
6340	28956	1822.174573411489	0.88000000268221
6340	29788	1920.707	0.875
6340	29922	1920.907	0.875
6340	30206	1921.415109018765	0.66666665673256
6340	30307	1921.62432189383	0.9375
6340	30385	1921.827550320181	0.94444444403052
6340	30460	1922.028345780135	0.9473684206605
6340	30540	1922.235803388478	0.9545454531908
6340	31314	2020.636	1
6340	31641	2021.03989573758	0.625
6340	33190	2121.052	0.5
6340	33519	2121.752	0.45454543828964
6340	34364	2220.786	0.875
6340	34629	2221.186	0.625
6340	34728	2221.389602144834	0.875
6340	34968	2221.893245854394	0.75
6340	35873	2320.723	1
6340	36313	2321.523	0.30000001192093
6340	37456	2421.047	0.625
6340	37799	2421.747	0.33333331346512
6340	38126	2422.552106186813	0.73076921701431
6340	38958	2521.194	0.5
6340	39380	2522.094	0.57894736528397
6340	39561	2522.698239403461	0.83870968222618
6340	40265	2620.93	0.875
6340	40502	2621.33	0.625
6340	40614	2621.532546662725	0.875
6340	40827	2621.937885594097	0.8125
6340	41818	2721.046	0.75
6340	41988	2721.346	0.75
6340	42157	2721.654753947715	0.77777777612209
6340	42274	2721.862196680466	0.92857142537832
6340	43289	2820.977	0.875
6340	43479	2821.277	0.75
6340	43610	2821.486735740642	0.89999999850988
6340	44806	2920.902	1
6340	45131	2921.302	0.625
6340	45314	2921.625460327839	0.84615384042263
6340	46503	3021.136	0.75
6340	46931	3021.936	0.30000001192093
6340	47043	3022.153726026183	0.9333333298564
6340	48030	3121.17	0.75
6340	48761	3122.57	0.43478262424469
6340	48881	3122.971695325532	0.89655172079802
6340	48925	3123.176142237104	0.96774193644524
6341	146	20.102	0.1
6341	351	20.402	0.3
6341	513	20.708293062712	0.3
6341	1804	120.534	0.5
6341	2112	120.934	0.4
6341	2278	121.234509715368	0.3
6341	3342	220.472	0.4
6341	3491	220.672	0.2
6341	3708	220.981580620075	0.3
6341	3932	221.387758364642	0.4
6341	4924	320.301	0.2
6341	5166	320.601	0.3
6341	5493	321.006857842052	0.4
6341	6607	420.431	0.3
6341	6993	421.031	0.6
6341	7132	421.331543156368	0.3
6341	8129	520.265	0.1
6341	8466	520.665	0.4
6341	8884	521.374466504906	0.7
6341	8997	521.686242389822	0.3
6341	9128	522.190768087735	0.5
6341	9650	620.209	0
6341	9855	620.409	0.2
6341	11915	720.918	0.7
6341	12064	721.218	0.3
6341	12311	721.819462211271	0.6
6341	13021	820.466	0.2
6341	13308	820.966	0.5
6341	13514	821.373680431394	0.4
6341	13723	821.980093597928	0.6
6341	13796	822.387298236244	0.4
6341	13848	822.987778482173	0.6
6341	13856	823.291517009906	0.3
6341	14365	920.329845319106	0.3
6341	14687	920.73872778532	0.4
6341	14740	920.81	0.5
6341	14931	921.148424342934	0.4
6341	14972	921.21	0.4
6341	15073	921.450310828863	0.3
6341	16074	1020.615	0.3
6341	16417	1021.215	0.6
6341	17435	1120.545	0.2
6341	17883	1121.345	0.8
6341	18043	1121.651208870152	0.3
6341	18228	1122.059326784363	0.4
6341	18327	1122.363421382165	0.3
6341	18377	1122.663963178271	0.3
6341	18422	1122.969740914153	0.3
6341	19684	1221.496	1.1
6341	19839	1221.896	0.4
6341	19979	1222.301068131238	0.4
6341	20102	1222.904507165368	0.6
6341	20136	1223.509245173906	0.6
6341	20152	1223.711389327743	0.2
6341	20970	1320.834	0.4
6341	21264	1321.434	0.6
6341	21354	1321.641117159222	0.2
6341	22308	1420.548	0.1
6341	22505	1420.848	0.3
6341	22960	1421.950530969511	1.1
6341	23745	1520.683	0.2
6341	24181	1521.483	0.8
6341	24378	1522.089581588904	0.6
6341	24468	1522.593286233285	0.5
6341	24516	1522.999029739607	0.4
6341	25336	1620.724	0.2
6341	25751	1621.424	0.7
6341	25955	1621.83399780357	0.4
6341	26036	1622.041693529199	0.2
6341	26613	1720.543	0
6341	26974	1721.043	0.5
6341	27129	1721.347263677143	0.3
6341	28518	1821.16	0.6
6341	28730	1821.56	0.4
6341	28825	1821.765741732174	0.2
6341	28956	1822.174573411489	0.4
6341	29788	1920.707	0.1
6341	29922	1920.907	0.2
6341	30206	1921.415109018765	0.5
6341	30307	1921.62432189383	0.2
6341	30385	1921.827550320181	0.2
6341	30460	1922.028345780135	0.2
6341	30540	1922.235803388478	0.2
6341	31314	2020.636	0
6341	31641	2021.03989573758	0.4
6341	33190	2121.052	0.4
6341	33519	2121.752	0.7
6341	34364	2220.786	0.1
6341	34629	2221.186	0.4
6341	34728	2221.389602144834	0.2
6341	34968	2221.893245854394	0.5
6341	35873	2320.723	0
6341	36313	2321.523	0.8
6341	37456	2421.047	0.3
6341	37799	2421.747	0.7
6341	38126	2422.552106186813	0.8
6341	38958	2521.194	0.4
6341	39380	2522.094	0.9
6341	39561	2522.698239403461	0.6
6341	40265	2620.93	0.1
6341	40502	2621.33	0.4
6341	40614	2621.532546662725	0.2
6341	40827	2621.937885594097	0.4
6341	41818	2721.046	0.2
6341	41988	2721.346	0.3
6341	42157	2721.654753947715	0.3
6341	42274	2721.862196680466	0.2
6341	43289	2820.977	0.1
6341	43479	2821.277	0.3
6341	43610	2821.486735740642	0.2
6341	44806	2920.902	0
6341	45131	2921.302	0.4
6341	45314	2921.625460327839	0.3
6341	46503	3021.136	0.2
6341	46931	3021.936	0.8
6341	47043	3022.153726026183	0.2
6341	48030	3121.17	0.2
6341	48761	3122.57	1.4
6341	48881	3122.971695325532	0.4
6341	48925	3123.176142237104	0.2
6342	213	20.203	2
6342	455	20.603	3
6342	788	21.310864143883	6
6342	1426	120.145	1
6342	1900	120.645	4
6342	2190	121.047638172837	3
6342	3581	220.769	7
6342	3866	221.269	4
6342	4038	221.67046052866	3
6342	4133	221.980379270313	2
6342	4192	222.187923657687	1
6342	5050	320.411	3
6342	5298	320.711	2
6342	5515	321.01485286739	2
6342	5709	321.423910047824	3
6342	5781	321.624273273621	1
6342	7140	421.342	12
6342	7357	422.042	6
6342	7463	422.648763879475	5
6342	7533	423.356179310006	6
6342	7555	423.658194801557	2
6342	7578	423.958344399373	2