file 480674 1369674150                                          
version 2
run Stability-47-20130524-20:22:29-3483
attr configname Stability
attr datetime 20130524-20:22:29
attr experiment Stability
attr inifile omnetpp.ini
attr iterationvars $0=1e2
attr iterationvars2 "$0=1e2, $repetition=7"
attr measurement $0=1e2
attr network Network
attr processid 3483
attr repetition 7
attr replication #7
attr resultdir results
attr runnumber 47
attr seedset 47
vector 4515  Network.dyn_peer[1]  lookupHopsSig:vector  ETV
4515	21937 3963 33 50162 20.2 3219.1 152 0 11 413 1555
vector 4516  Network.dyn_peer[1]  lookupStabilitySig:vector  ETV
4516	25900 6038 33 50162 20.2 3219.1 152 0.5 1 130.75118280016 113.8243247031
vector 4517  Network.dyn_peer[1]  lookupTimeSig:vector  ETV
4517	31938 4262 33 50162 20.2 3219.1 152 0 1.2 53.3 23.07
vector 4512  Network.dyn_peer[0]  lookupHopsSig:vector  ETV
4512	6376 4413 41 49940 20.3 3218.416875162465 169 0 8 396 1294
vector 4513  Network.dyn_peer[0]  lookupStabilitySig:vector  ETV
4513	10789 6401 41 49940 20.3 3218.416875162465 169 0.33333331346512 1 139.945806453 117.3441083669
vector 4514  Network.dyn_peer[0]  lookupTimeSig:vector  ETV
4514	17190 4747 41 49940 20.3 3218.416875162465 169 0 0.9 53.3 21.07
vector 4518  Network.dyn_peer[2]  lookupHopsSig:vector  ETV
4518	36200 4398 58 50114 20.5 3218.924391015521 165 0 8 378 1240
vector 4519  Network.dyn_peer[2]  lookupStabilitySig:vector  ETV
4519	40598 6236 58 50114 20.5 3218.924391015521 165 0.54545453190804 1 138.77649217844 118.20305276534
vector 4520  Network.dyn_peer[2]  lookupTimeSig:vector  ETV
4520	46834 4720 58 50114 20.5 3218.924391015521 165 0 0.9 51.1 20.07
vector 4521  Network.dyn_peer[3]  lookupHopsSig:vector  ETV
4521	51554 5031 73 50388 20.6 3219.914775133485 187 0 9 432 1420
vector 4522  Network.dyn_peer[3]  lookupStabilitySig:vector  ETV
4522	56585 7214 73 50388 20.6 3219.914775133485 187 0.5 1 156.7325349655 133.32867001096
vector 4523  Network.dyn_peer[3]  lookupTimeSig:vector  ETV
4523	63799 5391 73 50388 20.6 3219.914775133485 187 0 1 58.7 23.33
vector 4524  Network.dyn_peer[4]  lookupHopsSig:vector  ETV
4524	69190 4001 88 50089 20.7 3218.9 154 0 9 434 1652
vector 4525  Network.dyn_peer[4]  lookupStabilitySig:vector  ETV
4525	73191 6022 88 50089 20.7 3218.9 154 0.44444441795349 1 133.62437476031 117.23729653825
vector 4526  Network.dyn_peer[4]  lookupTimeSig:vector  ETV
4526	79213 4301 88 50089 20.7 3218.9 154 0 1 55.6 25.08
vector 4527  Network.dyn_peer[5]  lookupHopsSig:vector  ETV
4527	83514 4614 102 50326 20.8 3219.701498548346 174 0 8 431 1593
vector 4528  Network.dyn_peer[5]  lookupStabilitySig:vector  ETV
4528	88128 6716 102 50326 20.8 3219.701498548346 174 0.42857140302658 1 146.28972241469 124.7107392194
vector 4529  Network.dyn_peer[5]  lookupTimeSig:vector  ETV
4529	94844 4958 102 50326 20.8 3219.701498548346 174 0 0.9 57.3 24.79
vector 4530  Network.dyn_peer[6]  lookupHopsSig:vector  ETV
4530	99802 4811 137 50702 21 3220.31167337079 182 0 9 542 2160
vector 4531  Network.dyn_peer[6]  lookupStabilitySig:vector  ETV
4531	104613 7160 137 50702 21 3220.31167337079 182 0.39999997615814 1 158.08253485709 138.80502079076
vector 4532  Network.dyn_peer[6]  lookupTimeSig:vector  ETV
4532	111773 5169 137 50702 21 3220.31167337079 182 0 1 69.1 31.97
vector 4533  Network.dyn_peer[7]  lookupHopsSig:vector  ETV
4533	116942 4401 141 49984 21 3218.516522627115 168 0 10 436 1656
vector 4534  Network.dyn_peer[7]  lookupStabilitySig:vector  ETV
4534	121343 6419 141 49984 21 3218.516522627115 168 0.5 1 140.85087170266 119.93466338323
vector 4535  Network.dyn_peer[7]  lookupTimeSig:vector  ETV
4535	127762 4728 141 49984 21 3218.516522627115 168 0 1.1 57.2 25.52
vector 4536  Network.dyn_peer[8]  lookupHopsSig:vector  ETV
4536	132490 3962 145 49800 21 3218 153 0 8 402 1404
vector 4537  Network.dyn_peer[8]  lookupStabilitySig:vector  ETV
4537	136452 5981 145 49800 21 3218 153 0.59999999403954 1 131.9852397237 114.89258390459
vector 4538  Network.dyn_peer[8]  lookupTimeSig:vector  ETV
4538	142433 4262 145 49800 21 3218 153 0 0.9 52.3 21.99
vector 4539  Network.dyn_peer[9]  lookupHopsSig:vector  ETV
4539	146695 5147 166 50283 21.1 3219.507163792203 191 0 8 443 1387
vector 4540  Network.dyn_peer[9]  lookupStabilitySig:vector  ETV
4540	151842 7240 166 50283 21.1 3219.507163792203 191 0.5 1 158.6766137369 133.6600176304
vector 4541  Network.dyn_peer[9]  lookupTimeSig:vector  ETV
4541	159082 5527 166 50283 21.1 3219.507163792203 191 0 0.9 60.2 23.24
vector 4542  Network.dyn_peer[10]  lookupHopsSig:vector  ETV
4542	164609 3882 232 50063 21.4 3218.811261612055 150 0 7 378 1248
vector 4543  Network.dyn_peer[10]  lookupStabilitySig:vector  ETV
4543	168491 5823 232 50063 21.4 3218.811261612055 150 0.44444441795349 1 125.80188330077 106.86079514522
vector 4544  Network.dyn_peer[10]  lookupTimeSig:vector  ETV
4544	174314 4178 232 50063 21.4 3218.811261612055 150 0 0.8 49.6 19.94
vector 4548  Network.dyn_peer[12]  lookupHopsSig:vector  ETV
4548	195444 4136 236 50842 21.4 3220.916671051378 158 1 11 519 2375
vector 4549  Network.dyn_peer[12]  lookupStabilitySig:vector  ETV
4549	199580 6327 236 50842 21.4 3220.916671051378 158 0.25 0.97297297231853 138.55614608899 122.85630593014
vector 4550  Network.dyn_peer[12]  lookupTimeSig:vector  ETV
4550	205907 4448 236 50842 21.4 3220.916671051378 158 0.1 1.2 64.4 33.12
vector 4545  Network.dyn_peer[11]  lookupHopsSig:vector  ETV
4545	178492 4720 260 50376 21.5 3219.836533248389 178 0 10 542 2262
vector 4546  Network.dyn_peer[11]  lookupStabilitySig:vector  ETV
4546	183212 7160 260 50376 21.5 3219.836533248389 178 0.66666665673256 1 157.77044482343 140.67041456224
vector 4547  Network.dyn_peer[11]  lookupTimeSig:vector  ETV
4547	190372 5072 260 50376 21.5 3219.836533248389 178 0 1.1 68.8 33.18
vector 4551  Network.dyn_peer[13]  lookupHopsSig:vector  ETV
4551	210355 3797 264 50829 21.5 3220.698220401256 148 0 9 443 1777
vector 4552  Network.dyn_peer[13]  lookupStabilitySig:vector  ETV
4552	214152 5792 264 50829 21.5 3220.698220401256 148 0.54545453190804 1 127.13059485517 110.44479009022
vector 4553  Network.dyn_peer[13]  lookupTimeSig:vector  ETV
4553	219944 4087 264 50829 21.5 3220.698220401256 148 0 1 55.7 25.89
vector 4554  Network.dyn_peer[14]  lookupHopsSig:vector  ETV
4554	224031 4123 315 49736 21.7 3217.705509498501 158 0 8 387 1267
vector 4555  Network.dyn_peer[14]  lookupStabilitySig:vector  ETV
4555	228154 6112 315 49736 21.7 3217.705509498501 158 0.5 1 132.14292119816 111.92667558805
vector 4556  Network.dyn_peer[14]  lookupTimeSig:vector  ETV
4556	234266 4435 315 49736 21.7 3217.705509498501 158 0 0.9 51.3 20.37
vector 4560  Network.dyn_peer[16]  lookupHopsSig:vector  ETV
4560	256276 3877 364 50813 21.9 3220.606947376867 150 0 11 442 1732
vector 4561  Network.dyn_peer[16]  lookupStabilitySig:vector  ETV
4561	260153 6007 364 50813 21.9 3220.606947376867 150 0.53333333134651 1 128.06875762343 110.42011317026
vector 4562  Network.dyn_peer[16]  lookupTimeSig:vector  ETV
4562	266160 4172 364 50813 21.9 3220.606947376867 150 0 1.1 55.9 25.41
vector 4563  Network.dyn_peer[17]  lookupHopsSig:vector  ETV
4563	270332 4276 368 50144 21.9 3219.018537128482 163 0 9 532 2242
vector 4564  Network.dyn_peer[17]  lookupStabilitySig:vector  ETV
4564	274608 6497 368 50144 21.9 3219.018537128482 163 0.61538460850716 1 143.34714195505 126.86049056461
vector 4565  Network.dyn_peer[17]  lookupTimeSig:vector  ETV
4565	281105 4600 368 50144 21.9 3219.018537128482 163 0 0.9 66.3 32.01
vector 4566  Network.dyn_peer[18]  lookupHopsSig:vector  ETV
4566	285705 4299 432 50313 22.1 3219.619502997211 164 0 10 514 2108
vector 4567  Network.dyn_peer[18]  lookupStabilitySig:vector  ETV
4567	290004 6503 432 50313 22.1 3219.619502997211 164 0.59999999403954 1 145.8153965883 130.39131545151
vector 4568  Network.dyn_peer[18]  lookupTimeSig:vector  ETV
4568	296507 4617 432 50313 22.1 3219.619502997211 164 0 1.1 64.6 30.72
vector 4557  Network.dyn_peer[15]  lookupHopsSig:vector  ETV
4557	238701 4878 461 50356 22.2 3219.800230753985 183 0 8 546 2094
vector 4558  Network.dyn_peer[15]  lookupStabilitySig:vector  ETV
4558	243579 7455 461 50356 22.2 3219.800230753985 183 0.61111110448837 1 162.30720340274 144.94598941363
vector 4559  Network.dyn_peer[15]  lookupTimeSig:vector  ETV
4559	251034 5242 461 50356 22.2 3219.800230753985 183 0 0.9 69.7 31.09
vector 4569  Network.dyn_peer[19]  lookupHopsSig:vector  ETV
4569	301124 3810 487 50151 22.3 3219.027070944452 146 0 7 350 1122
vector 4570  Network.dyn_peer[19]  lookupStabilitySig:vector  ETV
4570	304934 5668 487 50151 22.3 3219.027070944452 146 0.5714285671711 1 123.25806005672 105.25277910471
vector 4571  Network.dyn_peer[19]  lookupTimeSig:vector  ETV
4571	310602 4096 487 50151 22.3 3219.027070944452 146 0 0.8 46.4 17.86
vector 4572  Network.dyn_peer[20]  lookupHopsSig:vector  ETV
4572	314698 3451 519 49832 22.4 3218.1 136 0 10 388 1536
vector 4573  Network.dyn_peer[20]  lookupStabilitySig:vector  ETV
4573	318149 5272 519 49832 22.4 3218.1 136 0.27272725105286 1 116.80811469816 101.62213598895
vector 4574  Network.dyn_peer[20]  lookupTimeSig:vector  ETV
4574	323421 3718 519 49832 22.4 3218.1 136 0 1.1 49.2 22.32
vector 4575  Network.dyn_peer[21]  lookupHopsSig:vector  ETV
4575	327139 3509 523 50193 22.4 3219.201196052001 138 0 9 387 1555
vector 4576  Network.dyn_peer[21]  lookupStabilitySig:vector  ETV
4576	330648 5403 523 50193 22.4 3219.201196052001 138 0.46666663885117 1 121.20272343606 107.45556856023
vector 4577  Network.dyn_peer[21]  lookupTimeSig:vector  ETV
4577	336051 3781 523 50193 22.4 3219.201196052001 138 0 1 49.3 22.17
vector 4578  Network.dyn_peer[22]  lookupHopsSig:vector  ETV
4578	339832 4788 577 50393 22.6 3219.922127199514 178 0 9 429 1479
vector 4579  Network.dyn_peer[22]  lookupStabilitySig:vector  ETV
4579	344620 6653 577 50393 22.6 3219.922127199514 178 0.45454543828964 1 148.04484598525 124.80438566177
vector 4580  Network.dyn_peer[22]  lookupTimeSig:vector  ETV
4580	351273 5134 577 50393 22.6 3219.922127199514 178 0 1 57.5 23.81
vector 4581  Network.dyn_peer[23]  lookupHopsSig:vector  ETV
4581	356407 3714 607 50109 22.7 3218.915423504083 144 0 11 423 1667
vector 4582  Network.dyn_peer[23]  lookupStabilitySig:vector  ETV
4582	360121 5716 607 50109 22.7 3218.915423504083 144 0.64285713434219 1 126.11745450087 111.14464626144
vector 4583  Network.dyn_peer[23]  lookupTimeSig:vector  ETV
4583	365837 3999 607 50109 22.7 3218.915423504083 144 0 1.2 53.5 24.51
vector 4584  Network.dyn_peer[24]  lookupHopsSig:vector  ETV
4584	369836 3937 661 49673 22.9 3217.44466395428 152 0 9 408 1546
vector 4585  Network.dyn_peer[24]  lookupStabilitySig:vector  ETV
4585	373773 5887 661 49673 22.9 3217.44466395428 152 0.47058820724487 1 131.86354032531 115.48466085306
vector 4586  Network.dyn_peer[24]  lookupTimeSig:vector  ETV
4586	379660 4233 661 49673 22.9 3217.44466395428 152 0 1 52.8 23.3
vector 4590  Network.dyn_peer[26]  lookupHopsSig:vector  ETV
4590	400271 4262 665 50822 22.9 3220.648934999241 162 0 10 446 1706
vector 4591  Network.dyn_peer[26]  lookupStabilitySig:vector  ETV
4591	404533 6477 665 50822 22.9 3220.648934999241 162 0.5 1 140.9206001889 123.79569155685
vector 4592  Network.dyn_peer[26]  lookupTimeSig:vector  ETV
4592	411010 4577 665 50822 22.9 3220.648934999241 162 0 1 57.5 25.21
vector 4596  Network.dyn_peer[28]  lookupHopsSig:vector  ETV
4596	428884 3226 670 50408 22.9 3220.007650782531 128 0 13 364 1508
vector 4597  Network.dyn_peer[28]  lookupStabilitySig:vector  ETV
4597	432110 4985 670 50408 22.9 3220.007650782531 128 0.59375 1 110.92761355452 97.049279456057
vector 4598  Network.dyn_peer[28]  lookupTimeSig:vector  ETV
4598	437095 3473 670 50408 22.9 3220.007650782531 128 0 1.4 46 21.72
vector 4587  Network.dyn_peer[25]  lookupHopsSig:vector  ETV
4587	383893 4702 699 50839 23 3220.798565614886 176 0 10 458 1672
vector 4588  Network.dyn_peer[25]  lookupStabilitySig:vector  ETV
4588	388595 6633 699 50839 23 3220.798565614886 176 0.5 1 147.68536069989 125.50801909058
vector 4589  Network.dyn_peer[25]  lookupTimeSig:vector  ETV
4589	395228 5043 699 50839 23 3220.798565614886 176 0 1.1 60.1 26.07
vector 4593  Network.dyn_peer[27]  lookupHopsSig:vector  ETV
4593	415587 3672 704 50832 23 3220.70468624411 144 0 10 434 1756
vector 4594  Network.dyn_peer[27]  lookupStabilitySig:vector  ETV
4594	419259 5670 704 50832 23 3220.70468624411 144 0.58333334326744 1 125.69092057459 110.58583280373
vector 4595  Network.dyn_peer[27]  lookupTimeSig:vector  ETV
4595	424929 3955 704 50832 23 3220.70468624411 144 0 1.1 54.5 25.27
vector 4602  Network.dyn_peer[30]  lookupHopsSig:vector  ETV
4602	453575 4280 778 49871 23.2 3218.208159047498 162 0 9 403 1437
vector 4603  Network.dyn_peer[30]  lookupStabilitySig:vector  ETV
4603	457855 6087 778 49871 23.2 3218.208159047498 162 0.61111110448837 1 138.20227168687 119.15469632088
vector 4604  Network.dyn_peer[30]  lookupTimeSig:vector  ETV
4604	463942 4594 778 49871 23.2 3218.208159047498 162 0 1 53.3 22.39
vector 4599  Network.dyn_peer[29]  lookupHopsSig:vector  ETV
4599	440568 3627 858 49822 23.4 3218.027010212134 141 0 11 378 1470
vector 4600  Network.dyn_peer[29]  lookupStabilitySig:vector  ETV
4600	444195 5480 858 49822 23.4 3218.027010212134 141 0.36363637447357 1 121.03814398125 105.49410341156
vector 4601  Network.dyn_peer[29]  lookupTimeSig:vector  ETV
4601	449675 3900 858 49822 23.4 3218.027010212134 141 0 1.1 48.7 21.55
vector 4605  Network.dyn_peer[31]  lookupHopsSig:vector  ETV
4605	468536 3363 896 50287 23.5 3219.508772635664 133 0 10 388 1504
vector 4606  Network.dyn_peer[31]  lookupStabilitySig:vector  ETV
4606	471899 5155 896 50287 23.5 3219.508772635664 133 0.53846153616905 1 115.5997005906 101.28869111183
vector 4607  Network.dyn_peer[31]  lookupTimeSig:vector  ETV
4607	477054 3620 896 50287 23.5 3219.508772635664 133 0 1.1 48.9 22.01
