version 2
run Stability-79-20130524-20:23:27-3483
attr configname Stability
attr datetime 20130524-20:23:27
attr experiment Stability
attr inifile omnetpp.ini
attr iterationvars $0=1e-1
attr iterationvars2 "$0=1e-1, $repetition=9"
attr measurement $0=1e-1
attr network Network
attr processid 3483
attr repetition 9
attr replication #9
attr resultdir results
attr runnumber 79
attr seedset 79

vector 7584  Network.dyn_peer[0]  lookupHopsSig:vector  ETV
vector 7585  Network.dyn_peer[0]  lookupStabilitySig:vector  ETV
vector 7586  Network.dyn_peer[0]  lookupTimeSig:vector  ETV
vector 7587  Network.dyn_peer[1]  lookupHopsSig:vector  ETV
vector 7588  Network.dyn_peer[1]  lookupStabilitySig:vector  ETV
vector 7589  Network.dyn_peer[1]  lookupTimeSig:vector  ETV
vector 7608  Network.dyn_peer[8]  lookupHopsSig:vector  ETV
vector 7609  Network.dyn_peer[8]  lookupStabilitySig:vector  ETV
vector 7610  Network.dyn_peer[8]  lookupTimeSig:vector  ETV
vector 7614  Network.dyn_peer[10]  lookupHopsSig:vector  ETV
vector 7615  Network.dyn_peer[10]  lookupStabilitySig:vector  ETV
vector 7616  Network.dyn_peer[10]  lookupTimeSig:vector  ETV
vector 7623  Network.dyn_peer[13]  lookupHopsSig:vector  ETV
vector 7624  Network.dyn_peer[13]  lookupStabilitySig:vector  ETV
vector 7625  Network.dyn_peer[13]  lookupTimeSig:vector  ETV
vector 7644  Network.dyn_peer[20]  lookupHopsSig:vector  ETV
vector 7645  Network.dyn_peer[20]  lookupStabilitySig:vector  ETV
vector 7646  Network.dyn_peer[20]  lookupTimeSig:vector  ETV
vector 7659  Network.dyn_peer[25]  lookupHopsSig:vector  ETV
vector 7660  Network.dyn_peer[25]  lookupStabilitySig:vector  ETV
vector 7661  Network.dyn_peer[25]  lookupTimeSig:vector  ETV
vector 7617  Network.dyn_peer[11]  lookupHopsSig:vector  ETV
vector 7618  Network.dyn_peer[11]  lookupStabilitySig:vector  ETV
vector 7619  Network.dyn_peer[11]  lookupTimeSig:vector  ETV
vector 7629  Network.dyn_peer[15]  lookupHopsSig:vector  ETV
vector 7630  Network.dyn_peer[15]  lookupStabilitySig:vector  ETV
vector 7631  Network.dyn_peer[15]  lookupTimeSig:vector  ETV
vector 7632  Network.dyn_peer[16]  lookupHopsSig:vector  ETV
vector 7633  Network.dyn_peer[16]  lookupStabilitySig:vector  ETV
vector 7634  Network.dyn_peer[16]  lookupTimeSig:vector  ETV
vector 7635  Network.dyn_peer[17]  lookupHopsSig:vector  ETV
vector 7636  Network.dyn_peer[17]  lookupStabilitySig:vector  ETV
vector 7637  Network.dyn_peer[17]  lookupTimeSig:vector  ETV
vector 7638  Network.dyn_peer[18]  lookupHopsSig:vector  ETV
vector 7639  Network.dyn_peer[18]  lookupStabilitySig:vector  ETV
vector 7640  Network.dyn_peer[18]  lookupTimeSig:vector  ETV
vector 7665  Network.dyn_peer[27]  lookupHopsSig:vector  ETV
vector 7666  Network.dyn_peer[27]  lookupStabilitySig:vector  ETV
vector 7667  Network.dyn_peer[27]  lookupTimeSig:vector  ETV
vector 7671  Network.dyn_peer[29]  lookupHopsSig:vector  ETV
vector 7672  Network.dyn_peer[29]  lookupStabilitySig:vector  ETV
vector 7673  Network.dyn_peer[29]  lookupTimeSig:vector  ETV
vector 7596  Network.dyn_peer[4]  lookupHopsSig:vector  ETV
vector 7597  Network.dyn_peer[4]  lookupStabilitySig:vector  ETV
vector 7598  Network.dyn_peer[4]  lookupTimeSig:vector  ETV
vector 7602  Network.dyn_peer[6]  lookupHopsSig:vector  ETV
vector 7603  Network.dyn_peer[6]  lookupStabilitySig:vector  ETV
vector 7604  Network.dyn_peer[6]  lookupTimeSig:vector  ETV
vector 7605  Network.dyn_peer[7]  lookupHopsSig:vector  ETV
vector 7606  Network.dyn_peer[7]  lookupStabilitySig:vector  ETV
vector 7607  Network.dyn_peer[7]  lookupTimeSig:vector  ETV
vector 7620  Network.dyn_peer[12]  lookupHopsSig:vector  ETV
vector 7621  Network.dyn_peer[12]  lookupStabilitySig:vector  ETV
vector 7622  Network.dyn_peer[12]  lookupTimeSig:vector  ETV
vector 7650  Network.dyn_peer[22]  lookupHopsSig:vector  ETV
vector 7651  Network.dyn_peer[22]  lookupStabilitySig:vector  ETV
vector 7652  Network.dyn_peer[22]  lookupTimeSig:vector  ETV
vector 7590  Network.dyn_peer[2]  lookupHopsSig:vector  ETV
vector 7591  Network.dyn_peer[2]  lookupStabilitySig:vector  ETV
vector 7592  Network.dyn_peer[2]  lookupTimeSig:vector  ETV
vector 7599  Network.dyn_peer[5]  lookupHopsSig:vector  ETV
vector 7600  Network.dyn_peer[5]  lookupStabilitySig:vector  ETV
vector 7601  Network.dyn_peer[5]  lookupTimeSig:vector  ETV
vector 7641  Network.dyn_peer[19]  lookupHopsSig:vector  ETV
vector 7642  Network.dyn_peer[19]  lookupStabilitySig:vector  ETV
vector 7643  Network.dyn_peer[19]  lookupTimeSig:vector  ETV
vector 7656  Network.dyn_peer[24]  lookupHopsSig:vector  ETV
vector 7657  Network.dyn_peer[24]  lookupStabilitySig:vector  ETV
vector 7658  Network.dyn_peer[24]  lookupTimeSig:vector  ETV
vector 7662  Network.dyn_peer[26]  lookupHopsSig:vector  ETV
vector 7663  Network.dyn_peer[26]  lookupStabilitySig:vector  ETV
vector 7664  Network.dyn_peer[26]  lookupTimeSig:vector  ETV
vector 7593  Network.dyn_peer[3]  lookupHopsSig:vector  ETV
vector 7594  Network.dyn_peer[3]  lookupStabilitySig:vector  ETV
vector 7595  Network.dyn_peer[3]  lookupTimeSig:vector  ETV
vector 7626  Network.dyn_peer[14]  lookupHopsSig:vector  ETV
vector 7627  Network.dyn_peer[14]  lookupStabilitySig:vector  ETV
vector 7628  Network.dyn_peer[14]  lookupTimeSig:vector  ETV
vector 7653  Network.dyn_peer[23]  lookupHopsSig:vector  ETV
vector 7654  Network.dyn_peer[23]  lookupStabilitySig:vector  ETV
vector 7655  Network.dyn_peer[23]  lookupTimeSig:vector  ETV
vector 7668  Network.dyn_peer[28]  lookupHopsSig:vector  ETV
vector 7669  Network.dyn_peer[28]  lookupStabilitySig:vector  ETV
vector 7670  Network.dyn_peer[28]  lookupTimeSig:vector  ETV
vector 7674  Network.dyn_peer[30]  lookupHopsSig:vector  ETV
vector 7675  Network.dyn_peer[30]  lookupStabilitySig:vector  ETV
vector 7676  Network.dyn_peer[30]  lookupTimeSig:vector  ETV
vector 7611  Network.dyn_peer[9]  lookupHopsSig:vector  ETV
vector 7612  Network.dyn_peer[9]  lookupStabilitySig:vector  ETV
vector 7613  Network.dyn_peer[9]  lookupTimeSig:vector  ETV
vector 7677  Network.dyn_peer[31]  lookupHopsSig:vector  ETV
vector 7678  Network.dyn_peer[31]  lookupStabilitySig:vector  ETV
vector 7679  Network.dyn_peer[31]  lookupTimeSig:vector  ETV
vector 7647  Network.dyn_peer[21]  lookupHopsSig:vector  ETV
vector 7648  Network.dyn_peer[21]  lookupStabilitySig:vector  ETV
vector 7649  Network.dyn_peer[21]  lookupTimeSig:vector  ETV
7584	29	20.0001	0
7584	395	20.5001	4
7584	531	20.705851756539	1
7584	1655	120.5035	5
7584	2139	121.3035	7
7584	2306	121.610337227083	2
7584	2412	121.912358858877	2
7584	2492	122.221902832028	2
7584	2576	122.624201257831	3
7584	2617	122.929700395922	2
7584	3001	220.0092	0
7584	3393	220.4092	3
7584	3748	220.913094741577	4
7584	4087	221.719654521814	7
7584	5178	320.8113	8
7584	5533	321.6113	7
7584	5613	322.01493236512	3
7584	5659	322.22155846552	1
7584	6692	420.8147	8
7584	6937	421.2147	3
7584	7158	421.821990311397	5
7584	7254	422.231146614842	3
7584	7383	422.939060494012	6
7584	7420	423.239846820669	2
7584	7454	423.643576565068	3
7584	7475	423.950319333933	2
7584	7494	424.357768554165	3
7584	7515	424.867406047039	4
7584	7521	425.269325443651	3
7584	7526	425.574880044956	2
7584	7532	425.977456410508	3
7584	7538	426.382652114021	3
7584	7876	520.0187	0
7584	8686	521.124704300049	10
7584	9943	620.6192	6
7584	10074	620.8192	1
7584	10276	621.126631058681	2
7584	10379	621.329192493835	1
7584	10488	621.633214852651	2
7584	11398	720.2233	2
7584	11641	720.5233	2
7584	13040	820.4249	4
7584	13288	820.7249	2
7584	13535	821.130663831641	3
7584	13859	822.032989260747	8
7584	13919	822.234832308056	1
7584	14549	920.2299	2
7584	14774	920.5299	2
7584	15002	920.831877456237	2
7584	15449	921.833413314166	9
7584	15569	922.240496220594	3
7584	15634	922.558281031497	2
7584	15679	922.862798298983	2
7584	15720	923.370913157457	4
7584	15733	923.577908051449	1
7584	16202	1020.134	1
7584	16443	1020.434	2
7584	16998	1021.337331962912	8
7584	17781	1120.1353	1
7584	18502	1120.951875801966	7
7584	19694	1220.438	4
7584	20243	1221.338	8
7584	20473	1221.845294638836	4
7584	20569	1222.355239289378	4
7584	20610	1222.760180770324	3
7584	20634	1223.061351918759	2
7584	21522	1320.6432	6
7584	21655	1320.8432	1
7584	21846	1321.145442884389	2
7584	22087	1321.753916159369	5
7584	22818	1420.344098192424	3
7584	22837	1420.3451	3
7584	23318	1421.0451	6
7584	23339	1421.047318451831	6
7584	24163	1520.2471	2
7584	24799	1521.148251239988	8
7584	25041	1521.8491280319	6
7584	25105	1522.15529767335	2
7584	25217	1523.059663669889	8
7584	25261	1523.765916784152	6
7584	25283	1524.371288627714	5
7584	25298	1524.879179151097	4
7584	25732	1620.1528	1
7584	26406	1621.1528	9
7584	26585	1621.554091504811	3
7584	26702	1621.959348932978	3
7584	27256	1720.1548	1
7584	27771	1720.856946494351	6
7584	27898	1721.062150625635	1
7584	28864	1820.1564	1
7584	29220	1820.5564	3
7584	29403	1820.759978895158	1
7584	29722	1821.466605458619	6
7584	30466	1920.1604	1
7584	30874	1920.6604	4
7584	31040	1920.867932685494	1
7584	31977	2020.1624	1
7584	32314	2020.5624	3
7584	33297	2120.0653	0
7584	33561	2120.2653	1
7584	33895	2120.672207616097	3
7584	34051	2120.881841062621	1
7584	34413	2121.669804163117	4
7584	34512	2122.071353745651	3
7584	34578	2122.378652598324	2
7584	34608	2122.680029977768	2
7584	34637	2123.088275372028	3
7584	34664	2123.594238180162	4
7584	34683	2123.994368428692	3
7584	34697	2124.298366681921	2
7584	34707	2124.508321252373	1
7584	34941	2220.0685	0
7584	35390	2220.5685	4
7584	35580	2220.775607157863	1
7584	37163	2321.0716	10
7584	37371	2321.4716	3
7584	37521	2321.879033980521	3
7584	37588	2322.3853033618	4
7584	38307	2420.4773	4
7584	38761	2421.27793960113	7
7584	39849	2520.4783	4
7584	40200	2520.9783	4
7584	40404	2521.285811116764	2
7584	41640	2620.7814	7
7584	41750	2620.9814	1
7584	41968	2621.390916979269	3
7584	42927	2720.4849	4
7584	43489	2721.4849	9
7584	44444	2820.5882	5
7584	44815	2821.1882	5
7584	44952	2821.495452463405	2
7584	45059	2821.800721082705	2
7584	45673	2920.1919	1
7584	46375	2921.100753462019	8
7584	47165	3020.0934	0
7584	47641	3020.5934	4
7584	48292	3021.801262066822	11
7584	49127	3120.3975	3
7584	49345	3120.6975	2
7584	49523	3120.905102865386	1
7585	29	20.0001	1
7585	395	20.5001	0.5
7585	531	20.705851756539	0.90909090638161
7585	1655	120.5035	0.375
7585	2139	121.3035	0.36363637447357
7585	2306	121.610337227083	0.89999999850988
7585	2412	121.912358858877	0.93103448301554
7585	2492	122.221902832028	0.93103448301554
7585	2576	122.624201257831	0.91176470369101
7585	2617	122.929700395922	0.94594594463706
7585	3001	220.0092	1
7585	3393	220.4092	0.625
7585	3748	220.913094741577	0.66666665673256
7585	4087	221.719654521814	0.74074074625969
7585	5178	320.8113	0
7585	5533	321.6113	0.73076921701431
7585	5613	322.01493236512	0.89285714179277
7585	5659	322.22155846552	0.9666666649282
7585	6692	420.8147	0.19999998807907
7585	6937	421.2147	0.84999999403954
7585	7158	421.821990311397	0.81481482088566
7585	7254	422.231146614842	0.89999999850988
7585	7383	422.939060494012	0.81818181276321
7585	7420	423.239846820669	0.9411764703691
7585	7454	423.643576565068	0.91666666418314
7585	7475	423.950319333933	0.94594594463706
7585	7494	424.357768554165	0.91891892254353
7585	7515	424.867406047039	0.89743589609861
7585	7521	425.269325443651	0.92307692021132
7585	7526	425.574880044956	0.94871794804931
7585	7532	425.977456410508	0.92307692021132
7585	7538	426.382652114021	0.92307692021132
7585	7876	520.0187	1
7585	8686	521.124704300049	0.23076921701431
7585	9943	620.6192	0.25
7585	10074	620.8192	0.88888888806105
7585	10276	621.126631058681	0.86666665971279
7585	10379	621.329192493835	0.94999999925494
7585	10488	621.633214852651	0.91304347664118
7585	11398	720.2233	0.75
7585	11641	720.5233	0.75
7585	13040	820.4249	0.5
7585	13288	820.7249	0.79999999701977
7585	13535	821.130663831641	0.76923076808453
7585	13859	822.032989260747	0.65217390656471
7585	13919	822.234832308056	0.96296296268702
7585	14549	920.2299	0.75
7585	14774	920.5299	0.75
7585	15002	920.831877456237	0.75
7585	15449	921.833413314166	0.5714285671711
7585	15569	922.240496220594	0.88888888806105
7585	15634	922.558281031497	0.93548387289047
7585	15679	922.862798298983	0.9411764703691
7585	15720	923.370913157457	0.89189188927412
7585	15733	923.577908051449	0.97297297231853
7585	16202	1020.134	0.875
7585	16443	1020.434	0.75
7585	16998	1021.337331962912	0.57894736528397
7585	17781	1120.1353	0.875
7585	18502	1120.951875801966	0.53333333134651
7585	19694	1220.438	0.5
7585	20243	1221.338	0.5294117629528
7585	20473	1221.845294638836	0.84615384042263
7585	20569	1222.355239289378	0.8823529407382
7585	20610	1222.760180770324	0.9142857119441
7585	20634	1223.061351918759	0.94444444403052
7585	21522	1320.6432	0.39999997615814
7585	21655	1320.8432	0.89999999850988
7585	21846	1321.145442884389	0.83333332836628
7585	22087	1321.753916159369	0.78260870277882
7585	22818	1420.344098192424	0.625
7585	22837	1420.3451	0.625
7585	23318	1421.0451	0.53846153616905
7585	23339	1421.047318451831	0.625
7585	24163	1520.2471	0.75
7585	24799	1521.148251239988	0.57894736528397
7585	25041	1521.8491280319	0.79999999701977
7585	25105	1522.15529767335	0.9375
7585	25217	1523.059663669889	0.7647058814764
7585	25261	1523.765916784152	0.83783784508705
7585	25283	1524.371288627714	0.86842104792595
7585	25298	1524.879179151097	0.89743589609861
7585	25732	1620.1528	0.875
7585	26406	1621.1528	0.18181818723679
7585	26585	1621.554091504811	0.84210526943207
7585	26702	1621.959348932978	0.89285714179277
7585	27256	1720.1548	0.875
7585	27771	1720.856946494351	0.33333331346512
7585	27898	1721.062150625635	0.91666666418314
7585	28864	1820.1564	0.875
7585	29220	1820.5564	0.625
7585	29403	1820.759978895158	0.875
7585	29722	1821.466605458619	0.71428570151329
7585	30466	1920.1604	0.875
7585	30874	1920.6604	0.5
7585	31040	1920.867932685494	0.90909090638161
7585	31977	2020.1624	0.875
7585	32314	2020.5624	0.625
7585	33297	2120.0653	1
7585	33561	2120.2653	0.875
7585	33895	2120.672207616097	0.625
7585	34051	2120.881841062621	0.89999999850988
7585	34413	2121.669804163117	0.83333332836628
7585	34512	2122.071353745651	0.88461538404226
7585	34578	2122.378652598324	0.9411764703691
7585	34608	2122.680029977768	0.94594594463706
7585	34637	2123.088275372028	0.91891892254353
7585	34664	2123.594238180162	0.89189188927412
7585	34683	2123.994368428692	0.92105263471603
7585	34697	2124.298366681921	0.9473684206605
7585	34707	2124.508321252373	0.97435897402465
7585	34941	2220.0685	1
7585	35390	2220.5685	0.5
7585	35580	2220.775607157863	0.89999999850988
7585	37163	2321.0716	-0.11111116409302
7585	37371	2321.4716	0.83333332836628
7585	37521	2321.879033980521	0.90322580933571
7585	37588	2322.3853033618	0.88888888806105
7585	38307	2420.4773	0.5
7585	38761	2421.27793960113	0.53333333134651
7585	39849	2520.4783	0.5
7585	40200	2520.9783	0.55555555224419
7585	40404	2521.285811116764	0.86666665971279
7585	41640	2620.7814	0.30000001192093
7585	41750	2620.9814	0.90909090638161
7585	41968	2621.390916979269	0.84210526943207
7585	42927	2720.4849	0.5
7585	43489	2721.4849	0.5714285671711
7585	44444	2820.5882	0.375
7585	44815	2821.1882	0.61538460850716
7585	44952	2821.495452463405	0.8823529407382
7585	45059	2821.800721082705	0.92307692021132
7585	45673	2920.1919	0.875
7585	46375	2921.100753462019	0.27272725105286
7585	47165	3020.0934	1
7585	47641	3020.5934	0.5
7585	48292	3021.801262066822	0.47619044780731
7585	49127	3120.3975	0.625
7585	49345	3120.6975	0.77777777612209
7585	49523	3120.905102865386	0.90909090638161
7586	29	20.0001	0
7586	395	20.5001	0.5
7586	531	20.705851756539	0.2
7586	1655	120.5035	0.5
7586	2139	121.3035	0.8
7586	2306	121.610337227083	0.3
7586	2412	121.912358858877	0.3
7586	2492	122.221902832028	0.3
7586	2576	122.624201257831	0.4
7586	2617	122.929700395922	0.3
7586	3001	220.0092	0
7586	3393	220.4092	0.4
7586	3748	220.913094741577	0.5
7586	4087	221.719654521814	0.8
7586	5178	320.8113	0.8
7586	5533	321.6113	0.8
7586	5613	322.01493236512	0.4
7586	5659	322.22155846552	0.2
7586	6692	420.8147	0.8
7586	6937	421.2147	0.4
7586	7158	421.821990311397	0.6
7586	7254	422.231146614842	0.4
7586	7383	422.939060494012	0.7
7586	7420	423.239846820669	0.3
7586	7454	423.643576565068	0.4
7586	7475	423.950319333933	0.3
7586	7494	424.357768554165	0.4
7586	7515	424.867406047039	0.5
7586	7521	425.269325443651	0.4
7586	7526	425.574880044956	0.3
7586	7532	425.977456410508	0.4
7586	7538	426.382652114021	0.4
7586	7876	520.0187	0
7586	8686	521.124704300049	1.1
7586	9943	620.6192	0.6
7586	10074	620.8192	0.2
7586	10276	621.126631058681	0.3
7586	10379	621.329192493835	0.2
7586	10488	621.633214852651	0.3
7586	11398	720.2233	0.2
7586	11641	720.5233	0.3
7586	13040	820.4249	0.4
7586	13288	820.7249	0.3
7586	13535	821.130663831641	0.4
7586	13859	822.032989260747	0.9
7586	13919	822.234832308056	0.2
7586	14549	920.2299	0.2
7586	14774	920.5299	0.3
7586	15002	920.831877456237	0.3
7586	15449	921.833413314166	1
7586	15569	922.240496220594	0.4
7586	15634	922.558281031497	0.3
7586	15679	922.862798298983	0.3
7586	15720	923.370913157457	0.5
7586	15733	923.577908051449	0.2
7586	16202	1020.134	0.1
7586	16443	1020.434	0.3
7586	16998	1021.337331962912	0.9
7586	17781	1120.1353	0.1
7586	18502	1120.951875801966	0.8
7586	19694	1220.438	0.4
7586	20243	1221.338	0.9
7586	20473	1221.845294638836	0.5
7586	20569	1222.355239289378	0.5
7586	20610	1222.760180770324	0.4
7586	20634	1223.061351918759	0.3
7586	21522	1320.6432	0.6
7586	21655	1320.8432	0.2
7586	21846	1321.145442884389	0.3
7586	22087	1321.753916159369	0.6
7586	22818	1420.344098192424	0.3
7586	22837	1420.3451	0.3
7586	23318	1421.0451	0.7
7586	23339	1421.047318451831	0.7
7586	24163	1520.2471	0.2
7586	24799	1521.148251239988	0.9
7586	25041	1521.8491280319	0.7
7586	25105	1522.15529767335	0.3
7586	25217	1523.059663669889	0.9
7586	25261	1523.765916784152	0.7
7586	25283	1524.371288627714	0.6
7586	25298	1524.879179151097	0.5
7586	25732	1620.1528	0.1
7586	26406	1621.1528	1
7586	26585	1621.554091504811	0.4
7586	26702	1621.959348932978	0.4
7586	27256	1720.1548	0.1
7586	27771	1720.856946494351	0.7
7586	27898	1721.062150625635	0.2
7586	28864	1820.1564	0.1
7586	29220	1820.5564	0.4
7586	29403	1820.759978895158	0.2
7586	29722	1821.466605458619	0.7
7586	30466	1920.1604	0.1
7586	30874	1920.6604	0.5
7586	31040	1920.867932685494	0.2
7586	31977	2020.1624	0.1
7586	32314	2020.5624	0.4
7586	33297	2120.0653	0
7586	33561	2120.2653	0.2
7586	33895	2120.672207616097	0.4
7586	34051	2120.881841062621	0.2
7586	34413	2121.669804163117	0.5
7586	34512	2122.071353745651	0.4
7586	34578	2122.378652598324	0.3
7586	34608	2122.680029977768	0.3
7586	34637	2123.088275372028	0.4
7586	34664	2123.594238180162	0.5
7586	34683	2123.994368428692	0.4
7586	34697	2124.298366681921	0.3
7586	34707	2124.508321252373	0.2
7586	34941	2220.0685	0
7586	35390	2220.5685	0.5
7586	35580	2220.775607157863	0.2
7586	37163	2321.0716	1
7586	37371	2321.4716	0.4
7586	37521	2321.879033980521	0.4
7586	37588	2322.3853033618	0.5
7586	38307	2420.4773	0.4
7586	38761	2421.27793960113	0.8
7586	39849	2520.4783	0.4
7586	40200	2520.9783	0.5
7586	40404	2521.285811116764	0.3
7586	41640	2620.7814	0.7
7586	41750	2620.9814	0.2
7586	41968	2621.390916979269	0.4
7586	42927	2720.4849	0.4
7586	43489	2721.4849	1
7586	44444	2820.5882	0.5
7586	44815	2821.1882	0.6
7586	44952	2821.495452463405	0.3
7586	45059	2821.800721082705	0.3
7586	45673	2920.1919	0.1
7586	46375	2921.100753462019	0.9
7586	47165	3020.0934	0
7586	47641	3020.5934	0.5
7586	48292	3021.801262066822	1.2
7586	49127	3120.3975	0.3
7586	49345	3120.6975	0.3
7586	49523	3120.905102865386	0.2
7587	36	20.0002	0
7587	322	20.306305521109	2
7587	484	20.60635136702	2
7587	591	20.812905058731	1
7587	1799	120.7038	7
7587	1930	120.9038	1
7587	2179	121.313740293793	3
7587	2369	121.721192617725	3
7587	3557	220.613084779959	6
7587	3609	220.708	7
7587	3760	220.916366032361	2
7587	3802	221.008	2
7587	4775	320.3098	3
7587	5357	321.1098	7
7587	5514	321.515110069781	3
7587	5624	322.018898994077	4
7587	5675	322.32190379793	2
7587	6890	421.1148	11
7587	7015	421.4148	2
7587	7124	421.718004292985	2
7587	7229	422.126163786174	3
7587	7299	422.438236276795	2
7587	7400	423.043245008798	5
7587	7456	423.649362490492	5
7587	8499	520.8184	8
7587	8809	521.4184	5
7587	9522	620.1199	1
7587	9700	620.3199	1
7587	9919	620.535992149062	1
7587	10253	621.041298712336	4
7587	11287	720.1224	1
7587	11630	720.5224	3
7587	11997	721.129747410346	5
7587	12119	721.432689603789	2
7587	13137	820.5261	5
7587	13360	820.8261	2
7587	13621	821.33136734726	4
7587	13744	821.637271449606	2
7587	13929	822.243458439948	5
7587	13991	822.54774134509	2
7587	14025	822.955883912439	3
7587	14559	920.2307	2
7587	14852	920.6307	3
7587	15145	921.039744377221	3
7587	15334	921.441069440148	3
7587	16573	1020.6317	6
7587	16772	1020.9317	2
7587	16947	1021.232778823166	2
7587	17059	1021.533506161738	2
7587	17129	1021.73955541599	1
7587	17245	1022.248732561971	4
7587	17313	1022.753536691846	4
7587	17337	1023.055178066898	2
7587	18366	1120.7369	7
7587	18577	1121.1369	3
7587	19528	1220.2382	2
7587	20184	1221.2382	9
7587	20361	1221.543754775465	2
7587	20480	1221.852919895873	2
7587	20926	1320.0423	0
7587	21545	1320.652188610108	5
7587	21875	1321.162110421053	4
7587	22038	1321.565846818493	3
7587	22192	1322.366445654447	7
7587	22239	1322.774315961839	3
7587	22939	1420.4461	4
7587	23331	1421.0461	5
7587	24504	1520.6472	6
7587	24688	1520.9472	2
7587	24823	1521.156940564415	1
7587	24940	1521.456985098712	2
7587	26049	1620.5511	5
7587	26182	1620.7511	1
7587	26451	1621.254057252685	4
7587	27222	1720.1531	1
7587	27454	1720.4531	2
7587	27808	1720.953664774647	4
7587	28106	1721.556157192391	5
7587	29064	1820.3569	3
7587	29436	1820.8569	4
7587	29672	1821.362762857378	4
7587	29823	1821.776821457561	3
7587	29870	1821.982082652651	1
7587	29930	1822.285248956248	2
7587	30817	1920.5611	5
7587	31181	1921.1611	5
7587	32423	2020.6631	6
7587	32773	2021.1631	4
7587	32965	2021.667426644944	4
7587	33050	2022.073144333631	3
7587	33510	2120.1678	1
7587	33738	2120.4678	2
7587	34159	2121.076041696697	5
7587	34403	2121.583876575586	4
7587	34554	2122.191949211371	5
7587	35112	2220.1704	1
7587	35717	2221.0704	8
7587	35908	2221.474141308904	3
7587	36379	2320.0727	0
7587	36916	2320.6727	5
7587	37340	2321.375929661087	6
7587	37864	2420.0752	0
7587	38279	2420.4752	3
7587	38565	2420.879943647226	3
7587	39643	2520.2779	2
7587	40134	2520.8779	5
7587	40285	2521.082336716833	1
7587	40412	2521.288342018939	1
7587	41247	2620.2816	2
7587	41806	2621.0816	7
7587	41918	2621.287278984173	1
7587	42011	2621.495925359567	1
7587	42517	2720.0853	0
7587	42831	2720.3853	2
7587	43166	2720.796184686778	3
7587	43428	2721.29860262005	4
7587	44125	2820.1879	1
7587	44359	2820.4879	2
7587	44654	2820.890136548736	3
7587	45050	2821.79814458527	8
7587	45103	2822.001588524506	1
7587	45219	2823.114644205013	10
7587	45789	2920.2928	2
7587	46400	2921.1928	8
7587	46512	2921.399548519979	1
7587	46634	2921.702340100022	2
7587	47357	3020.1948	1
7587	48022	3021.1948	9
7587	48170	3021.495893172905	2
7587	48399	3022.199268519737	6
7587	49430	3120.7984	7
7587	49836	3121.4984	6
7587	50030	3121.905798673458	3
7588	36	20.0002	1
7588	322	20.306305521109	0.75
7588	484	20.60635136702	0.77777777612209
7588	591	20.812905058731	0.92307692021132
7588	1799	120.7038	0.22222220897675
7588	1930	120.9038	0.88888888806105
7588	2179	121.313740293793	0.76923076808453
7588	2369	121.721192617725	0.88000000268221
7588	3557	220.613084779959	0.25
7588	3609	220.708	0.22222220897675
7588	3760	220.916366032361	0.83333332836628
7588	3802	221.008	0.84615384042263
7588	4775	320.3098	0.625
7588	5357	321.1098	0.53333333134651
7588	5514	321.515110069781	0.86956521868706
7588	5624	322.018898994077	0.86206896603107
7588	5675	322.32190379793	0.93548387289047
7588	6890	421.1148	0.26666665077209
7588	7015	421.4148	0.90909090638161
7588	7124	421.718004292985	0.92000000178814
7588	7229	422.126163786174	0.89655172079802
7588	7299	422.438236276795	0.9375
7588	7400	423.043245008798	0.85294117033482
7588	7456	423.649362490492	0.86111110448837
7588	8499	520.8184	0.19999998807907
7588	8809	521.4184	0.7368420958519
7588	9522	620.1199	0.875
7588	9700	620.3199	0.875
7588	9919	620.535992149062	0.875
7588	10253	621.041298712336	0.71428570151329
7588	11287	720.1224	0.875
7588	11630	720.5224	0.625
7588	11997	721.129747410346	0.70588234066963
7588	12119	721.432689603789	0.89473684132099
7588	13137	820.5261	0.375
7588	13360	820.8261	0.83333332836628
7588	13621	821.33136734726	0.75
7588	13744	821.637271449606	0.89999999850988
7588	13929	822.243458439948	0.8214285671711
7588	13991	822.54774134509	0.9375
7588	14025	822.955883912439	0.9142857119441
7588	14559	920.2307	0.75
7588	14852	920.6307	0.625
7588	15145	921.039744377221	0.69999998807907
7588	15334	921.441069440148	0.78571428358555
7588	16573	1020.6317	0.25
7588	16772	1020.9317	0.83333332836628
7588	16947	1021.232778823166	0.8823529407382
7588	17059	1021.533506161738	0.90476190298796
7588	17129	1021.73955541599	0.95652173832059
7588	17245	1022.248732561971	0.86666665971279
7588	17313	1022.753536691846	0.8823529407382
7588	17337	1023.055178066898	0.94285714253783
7588	18366	1120.7369	0.30000001192093
7588	18577	1121.1369	0.82352940738201
7588	19528	1220.2382	0.75
7588	20184	1221.2382	0.35714286565781
7588	20361	1221.543754775465	0.89999999850988
7588	20480	1221.852919895873	0.92307692021132
7588	20926	1320.0423	1
7588	21545	1320.652188610108	0.5
7588	21875	1321.162110421053	0.71428570151329
7588	22038	1321.565846818493	0.85714285075665
7588	22192	1322.366445654447	0.78125
7588	22239	1322.774315961839	0.91176470369101
7588	22939	1420.4461	0.5
7588	23331	1421.0461	0.64285713434219
7588	24504	1520.6472	0.39999997615814
7588	24688	1520.9472	0.84615384042263
7588	24823	1521.156940564415	0.94999999925494
7588	24940	1521.456985098712	0.90909090638161
7588	26049	1620.5511	0.375
7588	26182	1620.7511	0.875
7588	26451	1621.254057252685	0.63636362552643
7588	27222	1720.1531	0.875
7588	27454	1720.4531	0.75
7588	27808	1720.953664774647	0.59999999403954
7588	28106	1721.556157192391	0.72222220897675
7588	29064	1820.3569	0.625
7588	29436	1820.8569	0.55555555224419
7588	29672	1821.362762857378	0.78947368264198
7588	29823	1821.776821457561	0.88461538404226
7588	29870	1821.982082652651	0.96296296268702
7588	29930	1822.285248956248	0.93103448301554
7588	30817	1920.5611	0.375
7588	31181	1921.1611	0.72222220897675
7588	32423	2020.6631	0.39999997615814
7588	32773	2021.1631	0.7647058814764
7588	32965	2021.667426644944	0.85185185074806
7588	33050	2022.073144333631	0.91176470369101
7588	33510	2120.1678	0.875
7588	33738	2120.4678	0.75
7588	34159	2121.076041696697	0.61538460850716
7588	34403	2121.583876575586	0.83333332836628
7588	34554	2122.191949211371	0.82758620381355
7588	35112	2220.1704	0.875
7588	35717	2221.0704	0.38461536169052
7588	35908	2221.474141308904	0.85714285075665
7588	36379	2320.0727	1
7588	36916	2320.6727	0.375
7588	37340	2321.375929661087	0.59999999403954
7588	37864	2420.0752	1
7588	38279	2420.4752	0.625
7588	38565	2420.879943647226	0.72727271914482
7588	39643	2520.2779	0.75
7588	40134	2520.8779	0.375
7588	40285	2521.082336716833	0.88888888806105
7588	40412	2521.288342018939	0.9375
7588	41247	2620.2816	0.75
7588	41806	2621.0816	0.41666668653488
7588	41918	2621.287278984173	0.9411764703691
7588	42011	2621.495925359567	0.95652173832059
7588	42517	2720.0853	1
7588	42831	2720.3853	0.75
7588	43166	2720.796184686778	0.72727271914482
7588	43428	2721.29860262005	0.77777777612209
7588	44125	2820.1879	0.875
7588	44359	2820.4879	0.75
7588	44654	2820.890136548736	0.625
7588	45050	2821.79814458527	0.68000000715256
7588	45103	2822.001588524506	0.96875
7588	45219	2823.114644205013	0.72222220897675
7588	45789	2920.2928	0.75
7588	46400	2921.1928	0.38461536169052
7588	46512	2921.399548519979	0.9333333298564
7588	46634	2921.702340100022	0.92000000178814
7588	47357	3020.1948	0.875
7588	48022	3021.1948	0.30769228935242
7588	48170	3021.495893172905	0.85714285075665
7588	48399	3022.199268519737	0.79999999701977
7588	49430	3120.7984	0.30000001192093
7588	49836	3121.4984	0.5714285671711
7588	50030	3121.905798673458	0.86956521868706
7589	36	20.0002	0
7589	322	20.306305521109	0.3
7589	484	20.60635136702	0.3
7589	591	20.812905058731	0.2
7589	1799	120.7038	0.7
7589	1930	120.9038	0.2
7589	2179	121.313740293793	0.4
7589	2369	121.721192617725	0.4
7589	3557	220.613084779959	0.6
7589	3609	220.708	0.7
7589	3760	220.916366032361	0.3
7589	3802	221.008	0.3
7589	4775	320.3098	0.3
7589	5357	321.1098	0.8
7589	5514	321.515110069781	0.4
7589	5624	322.018898994077	0.5
7589	5675	322.32190379793	0.3
7589	6890	421.1148	1.1
7589	7015	421.4148	0.3
7589	7124	421.718004292985	0.3
7589	7229	422.126163786174	0.4
7589	7299	422.438236276795	0.3
7589	7400	423.043245008798	0.6
7589	7456	423.649362490492	0.6
7589	8499	520.8184	0.8
7589	8809	521.4184	0.6
7589	9522	620.1199	0.1
7589	9700	620.3199	0.2
7589	9919	620.535992149062	0.2
7589	10253	621.041298712336	0.5
7589	11287	720.1224	0.1
7589	11630	720.5224	0.4
7589	11997	721.129747410346	0.6
7589	12119	721.432689603789	0.3
7589	13137	820.5261	0.5
7589	13360	820.8261	0.3
7589	13621	821.33136734726	0.5
7589	13744	821.637271449606	0.3
7589	13929	822.243458439948	0.6
7589	13991	822.54774134509	0.3
7589	14025	822.955883912439	0.4
7589	14559	920.2307	0.2
7589	14852	920.6307	0.4
7589	15145	921.039744377221	0.4
7589	15334	921.441069440148	0.4
7589	16573	1020.6317	0.6
7589	16772	1020.9317	0.3
7589	16947	1021.232778823166	0.3
7589	17059	1021.533506161738	0.3
7589	17129	1021.73955541599	0.2
7589	17245	1022.248732561971	0.5
7589	17313	1022.753536691846	0.5
7589	17337	1023.055178066898	0.3
7589	18366	1120.7369	0.7
7589	18577	1121.1369	0.4
7589	19528	1220.2382	0.2
7589	20184	1221.2382	1
7589	20361	1221.543754775465	0.3
7589	20480	1221.852919895873	0.3
7589	20926	1320.0423	0
7589	21545	1320.652188610108	0.6
7589	21875	1321.162110421053	0.5
7589	22038	1321.565846818493	0.4
7589	22192	1322.366445654447	0.8
7589	22239	1322.774315961839	0.4
7589	22939	1420.4461	0.4
7589	23331	1421.0461	0.6
7589	24504	1520.6472	0.6
7589	24688	1520.9472	0.3
7589	24823	1521.156940564415	0.2