file 493238 1369674150                                          
version 2
run Stability-48-20130524-20:22:31-3483
attr configname Stability
attr datetime 20130524-20:22:31
attr experiment Stability
attr inifile omnetpp.ini
attr iterationvars $0=1e2
attr iterationvars2 "$0=1e2, $repetition=8"
attr measurement $0=1e2
attr network Network
attr processid 3483
attr repetition 8
attr replication #8
attr resultdir results
attr runnumber 48
attr seedset 48
vector 4608  Network.dyn_peer[0]  lookupHopsSig:vector  ETV
4608	6376 3842 37 51994 20.3 3220.010005351386 147 0 10 414 1638
vector 4609  Network.dyn_peer[0]  lookupStabilitySig:vector  ETV
4609	10218 5735 37 51994 20.3 3220.010005351386 147 0.58333334326744 1 124.9495558273 107.37616507398
vector 4610  Network.dyn_peer[0]  lookupTimeSig:vector  ETV
4610	15953 4129 37 51994 20.3 3220.010005351386 147 0 1.1 52.9 24.19
vector 4611  Network.dyn_peer[1]  lookupHopsSig:vector  ETV
4611	20082 4511 41 51481 20.3 3218.414274343046 171 0 9 504 2086
vector 4612  Network.dyn_peer[1]  lookupStabilitySig:vector  ETV
4612	24593 6874 41 51481 20.3 3218.414274343046 171 0.44444441795349 1 150.07037392072 132.78363499683
vector 4613  Network.dyn_peer[1]  lookupTimeSig:vector  ETV
4613	31467 4845 41 51481 20.3 3218.414274343046 171 0 1 64.3 30.53
vector 4614  Network.dyn_peer[2]  lookupHopsSig:vector  ETV
4614	36312 4634 51 51643 20.4 3218.929582136557 176 0 10 551 2399
vector 4615  Network.dyn_peer[2]  lookupStabilitySig:vector  ETV
4615	40946 6992 51 51643 20.4 3218.929582136557 176 0.55000001192093 1 153.02526112087 134.30763394125
vector 4616  Network.dyn_peer[2]  lookupTimeSig:vector  ETV
4616	47938 4978 51 51643 20.4 3218.929582136557 176 0 1.1 69.5 34.35
vector 4617  Network.dyn_peer[3]  lookupHopsSig:vector  ETV
4617	52916 4297 56 51798 20.4 3219.401851116956 164 0 8 453 1659
vector 4618  Network.dyn_peer[3]  lookupStabilitySig:vector  ETV
4618	57213 6439 56 51798 20.4 3219.401851116956 164 0.59999999403954 1 140.69816748612 122.02654067125
vector 4619  Network.dyn_peer[3]  lookupTimeSig:vector  ETV
4619	63652 4619 56 51798 20.4 3219.401851116956 164 0 0.9 58.5 25.35
vector 4620  Network.dyn_peer[4]  lookupHopsSig:vector  ETV
4620	68271 3930 68 51953 20.5 3219.904838508057 153 0 10 437 1679
vector 4621  Network.dyn_peer[4]  lookupStabilitySig:vector  ETV
4621	72201 5975 68 51953 20.5 3219.904838508057 153 0.47058820724487 1 131.0789350681 113.67139356717
vector 4622  Network.dyn_peer[4]  lookupTimeSig:vector  ETV
4622	78176 4231 68 51953 20.5 3219.904838508057 153 0 1.1 55.8 24.96
vector 4626  Network.dyn_peer[6]  lookupHopsSig:vector  ETV
4626	98749 3951 107 51638 20.8 3218.91388503204 152 0 11 430 1668
vector 4627  Network.dyn_peer[6]  lookupStabilitySig:vector  ETV
4627	102700 5936 107 51638 20.8 3218.91388503204 152 0.47619044780731 1 130.46755639836 113.46612854512
vector 4628  Network.dyn_peer[6]  lookupTimeSig:vector  ETV
4628	108636 4252 107 51638 20.8 3218.91388503204 152 0 1.1 55 24.42
vector 4623  Network.dyn_peer[5]  lookupHopsSig:vector  ETV
4623	82407 4724 123 51951 20.9 3219.904590755982 176 0 10 394 1316
vector 4624  Network.dyn_peer[5]  lookupStabilitySig:vector  ETV
4624	87131 6555 123 51951 20.9 3219.904590755982 176 0.27272725105286 1 147.05210086145 124.59283437871
vector 4625  Network.dyn_peer[5]  lookupTimeSig:vector  ETV
4625	93686 5063 123 51951 20.9 3219.904590755982 176 0 1.1 53.8 21.42
vector 4629  Network.dyn_peer[7]  lookupHopsSig:vector  ETV
4629	112888 4441 127 51997 20.9 3220.015146667182 168 0 9 453 1701
vector 4630  Network.dyn_peer[7]  lookupStabilitySig:vector  ETV
4630	117329 6275 127 51997 20.9 3220.015146667182 168 0.375 1 140.94902460836 119.77264842711
vector 4631  Network.dyn_peer[7]  lookupTimeSig:vector  ETV
4631	123604 4773 127 51997 20.9 3220.015146667182 168 0 0.9 58.9 25.87
vector 4632  Network.dyn_peer[8]  lookupHopsSig:vector  ETV
4632	128377 5180 161 51366 21.1 3218.025843638912 194 0 9 455 1479
vector 4633  Network.dyn_peer[8]  lookupStabilitySig:vector  ETV
4633	133557 7284 161 51366 21.1 3218.025843638912 194 0.55555555224419 1 162.32476728596 137.35711515804
vector 4634  Network.dyn_peer[8]  lookupTimeSig:vector  ETV
4634	140841 5564 161 51366 21.1 3218.025843638912 194 0 1 61.7 24.49
vector 4635  Network.dyn_peer[9]  lookupHopsSig:vector  ETV
4635	146405 4780 165 52376 21.1 3220.70864237667 181 0 10 489 1955
vector 4636  Network.dyn_peer[9]  lookupStabilitySig:vector  ETV
4636	151185 7128 165 52376 21.1 3220.70864237667 181 0.18181818723679 1 156.45004588366 136.94617617438
vector 4637  Network.dyn_peer[9]  lookupTimeSig:vector  ETV
4637	158313 5129 165 52376 21.1 3220.70864237667 181 0 1.1 63.7 29.35
vector 4641  Network.dyn_peer[11]  lookupHopsSig:vector  ETV
4641	177080 3612 224 51911 21.4 3219.8 141 0 12 402 1620
vector 4642  Network.dyn_peer[11]  lookupStabilitySig:vector  ETV
4642	180692 5438 224 51911 21.4 3219.8 141 0.46666663885117 1 117.25601106882 98.886581514563
vector 4643  Network.dyn_peer[11]  lookupTimeSig:vector  ETV
4643	186130 3889 224 51911 21.4 3219.8 141 0 1.3 51.1 23.63
vector 4644  Network.dyn_peer[12]  lookupHopsSig:vector  ETV
4644	190019 4536 228 52390 21.4 3220.824746427811 173 0 10 539 2359
vector 4645  Network.dyn_peer[12]  lookupStabilitySig:vector  ETV
4645	194555 6823 228 52390 21.4 3220.824746427811 173 0.53846153616905 1 149.66870802082 130.89224193746
vector 4646  Network.dyn_peer[12]  lookupTimeSig:vector  ETV
4646	201378 4871 228 52390 21.4 3220.824746427811 173 0 1 67.9 33.69
vector 4638  Network.dyn_peer[10]  lookupHopsSig:vector  ETV
4638	163442 3833 272 51936 21.6 3219.820777645093 148 1 8 371 1255
vector 4639  Network.dyn_peer[10]  lookupStabilitySig:vector  ETV
4639	167275 5676 272 51936 21.6 3219.820777645093 148 0.33333331346512 0.96551724150777 122.25061741471 102.64095227437
vector 4640  Network.dyn_peer[10]  lookupTimeSig:vector  ETV
4640	172951 4129 272 51936 21.6 3219.820777645093 148 0.1 0.9 48.7 19.75
vector 4647  Network.dyn_peer[13]  lookupHopsSig:vector  ETV
4647	206249 4003 317 51976 21.8 3220.00249610712 153 0 13 452 1942
vector 4648  Network.dyn_peer[13]  lookupStabilitySig:vector  ETV
4648	210252 5973 317 51976 21.8 3220.00249610712 153 0.46666663885117 1 131.4947172422 114.46888532554
vector 4649  Network.dyn_peer[13]  lookupTimeSig:vector  ETV
4649	216225 4301 317 51976 21.8 3220.00249610712 153 0 1.4 57.3 27.91
vector 4650  Network.dyn_peer[14]  lookupHopsSig:vector  ETV
4650	220526 3287 321 51508 21.8 3218.508901074388 131 0 10 378 1504
vector 4651  Network.dyn_peer[14]  lookupStabilitySig:vector  ETV
4651	223813 5106 321 51508 21.8 3218.508901074388 131 0.5 1 111.94424759783 96.695658131178
vector 4652  Network.dyn_peer[14]  lookupTimeSig:vector  ETV
4652	228919 3546 321 51508 21.8 3218.508901074388 131 0 1.1 47.7 22.03
vector 4653  Network.dyn_peer[15]  lookupHopsSig:vector  ETV
4653	232465 4770 341 51297 21.9 3217.80808016861 178 0 9 434 1482
vector 4654  Network.dyn_peer[15]  lookupStabilitySig:vector  ETV
4654	237235 6722 341 51297 21.9 3217.80808016861 178 0.42857140302658 1 146.66784388199 122.57928787924
vector 4655  Network.dyn_peer[15]  lookupTimeSig:vector  ETV
4655	243957 5122 341 51297 21.9 3217.80808016861 178 0 1 58 23.64
vector 4659  Network.dyn_peer[17]  lookupHopsSig:vector  ETV
4659	266026 4126 366 52312 22 3220.402780884038 159 0 8 442 1682
vector 4660  Network.dyn_peer[17]  lookupStabilitySig:vector  ETV
4660	270152 6176 366 52312 22 3220.402780884038 159 0.44444441795349 1 136.80820936523 119.05462759671
vector 4661  Network.dyn_peer[17]  lookupTimeSig:vector  ETV
4661	276328 4440 366 52312 22 3220.402780884038 159 0 0.9 56.8 25.04
vector 4662  Network.dyn_peer[18]  lookupHopsSig:vector  ETV
4662	280768 4242 370 52000 22 3220.019824315341 162 0 8 465 1871
vector 4663  Network.dyn_peer[18]  lookupStabilitySig:vector  ETV
4663	285010 6263 370 52000 22 3220.019824315341 162 0.61904761195183 1 139.78267120197 121.88371533242
vector 4664  Network.dyn_peer[18]  lookupTimeSig:vector  ETV
4664	291273 4556 370 52000 22 3220.019824315341 162 0 0.9 59.5 27.85
vector 4665  Network.dyn_peer[19]  lookupHopsSig:vector  ETV
4665	295829 4083 394 51678 22.1 3219.012505973131 156 1 9 419 1499
vector 4666  Network.dyn_peer[19]  lookupStabilitySig:vector  ETV
4666	299912 6138 394 51678 22.1 3219.012505973131 156 0.41666668653488 0.96774193644524 131.43456568196 112.05612550283
vector 4667  Network.dyn_peer[19]  lookupTimeSig:vector  ETV
4667	306050 4391 394 51678 22.1 3219.012505973131 156 0.1 1 54.3 23.23
vector 4656  Network.dyn_peer[16]  lookupHopsSig:vector  ETV
4656	249079 4849 424 51830 22.2 3219.505821734759 181 0 7 434 1476
vector 4657  Network.dyn_peer[16]  lookupStabilitySig:vector  ETV
4657	253928 6889 424 51830 22.2 3219.505821734759 181 0.58823528885841 1 150.84757171758 127.18503989006
vector 4658  Network.dyn_peer[16]  lookupTimeSig:vector  ETV
4658	260817 5209 424 51830 22.2 3219.505821734759 181 0 0.8 58.3 23.77
vector 4668  Network.dyn_peer[20]  lookupHopsSig:vector  ETV
4668	310441 4155 525 51991 22.5 3220.009130769733 159 0 10 452 1768
vector 4669  Network.dyn_peer[20]  lookupStabilitySig:vector  ETV
4669	314596 6137 525 51991 22.5 3220.009130769733 159 0.5 1 134.94111465663 115.90099684641
vector 4670  Network.dyn_peer[20]  lookupTimeSig:vector  ETV
4670	320733 4464 525 51991 22.5 3220.009130769733 159 0 1.1 57.9 26.51
vector 4671  Network.dyn_peer[21]  lookupHopsSig:vector  ETV
4671	325197 3653 530 52332 22.5 3220.4965 143 1 8 441 1793
vector 4672  Network.dyn_peer[21]  lookupStabilitySig:vector  ETV
4672	328850 5650 530 52332 22.5 3220.4965 143 0.5 0.97058823518455 123.48065263964 107.59542886456
vector 4673  Network.dyn_peer[21]  lookupTimeSig:vector  ETV
4673	334500 3939 530 52332 22.5 3220.4965 143 0.1 0.9 55.1 26.13
vector 4674  Network.dyn_peer[22]  lookupHopsSig:vector  ETV
4674	338439 4251 603 52380 22.7 3220.709925381634 162 1 11 507 2201
vector 4675  Network.dyn_peer[22]  lookupStabilitySig:vector  ETV
4675	342690 6503 603 52380 22.7 3220.709925381634 162 -0.11111116409302 0.97435897402465 141.30142325722 125.03267094659
vector 4676  Network.dyn_peer[22]  lookupTimeSig:vector  ETV
4676	349193 4571 603 52380 22.7 3220.709925381634 162 0.1 1.2 63.6 31.46
vector 4677  Network.dyn_peer[23]  lookupHopsSig:vector  ETV
4677	353764 3960 607 51973 22.7 3220.00055524917 152 0 9 387 1395
vector 4678  Network.dyn_peer[23]  lookupStabilitySig:vector  ETV
4678	357724 5853 607 51973 22.7 3220.00055524917 152 0.47058820724487 1 129.6433018744 111.95037375073
vector 4679  Network.dyn_peer[23]  lookupTimeSig:vector  ETV
4679	363577 4256 607 51973 22.7 3220.00055524917 152 0 1 50.7 21.57
vector 4686  Network.dyn_peer[26]  lookupHopsSig:vector  ETV
4686	397536 3892 648 52266 22.8 3220.3 152 1 10 432 1690
vector 4687  Network.dyn_peer[26]  lookupStabilitySig:vector  ETV
4687	401428 5954 648 52266 22.8 3220.3 152 0.25 0.97435897402465 132.54393945262 116.86988658037
vector 4688  Network.dyn_peer[26]  lookupTimeSig:vector  ETV
4688	407382 4193 648 52266 22.8 3220.3 152 0.1 1.1 55.1 24.97
vector 4683  Network.dyn_peer[25]  lookupHopsSig:vector  ETV
4683	382762 4126 684 51439 22.9 3218.304511651198 158 0 8 431 1585
vector 4684  Network.dyn_peer[25]  lookupStabilitySig:vector  ETV
4684	386888 6210 684 51439 22.9 3218.304511651198 158 0.59999999403954 1 136.49169920571 118.99845259915
vector 4685  Network.dyn_peer[25]  lookupTimeSig:vector  ETV
4685	393098 4438 684 51439 22.9 3218.304511651198 158 0 0.9 55.7 24.15
vector 4680  Network.dyn_peer[24]  lookupHopsSig:vector  ETV
4680	367833 4165 720 51744 23 3219.208832306892 159 0 9 440 1736
vector 4681  Network.dyn_peer[24]  lookupStabilitySig:vector  ETV
4681	371998 6291 720 51744 23 3219.208832306892 159 0.625 1 139.72863650695 123.68927794591
vector 4682  Network.dyn_peer[24]  lookupTimeSig:vector  ETV
4682	378289 4473 720 51744 23 3219.208832306892 159 0 1 56.7 25.99
vector 4692  Network.dyn_peer[28]  lookupHopsSig:vector  ETV
4692	426026 4610 814 51681 23.3 3219.027481703425 175 0 8 497 1889
vector 4693  Network.dyn_peer[28]  lookupStabilitySig:vector  ETV
4693	430636 7040 814 51681 23.3 3219.027481703425 175 0.58333334326744 1 155.13140106946 138.33664990938
vector 4694  Network.dyn_peer[28]  lookupTimeSig:vector  ETV
4694	437676 4952 814 51681 23.3 3219.027481703425 175 0 0.9 64 28.56
vector 4695  Network.dyn_peer[29]  lookupHopsSig:vector  ETV
4695	442628 4799 819 51108 23.3 3216.92247111934 180 0 11 470 1796
vector 4696  Network.dyn_peer[29]  lookupStabilitySig:vector  ETV
4696	447427 7030 819 51108 23.3 3216.92247111934 180 0.5769230723381 1 155.46548066847 135.64921252992
vector 4697  Network.dyn_peer[29]  lookupTimeSig:vector  ETV
4697	454457 5152 819 51108 23.3 3216.92247111934 180 0 1.2 61.8 27.66
vector 4701  Network.dyn_peer[31]  lookupHopsSig:vector  ETV
4701	476939 4617 880 51394 23.5 3218.119471471 173 0 9 424 1456
vector 4702  Network.dyn_peer[31]  lookupStabilitySig:vector  ETV
4702	481556 6723 880 51394 23.5 3218.119471471 173 0.59999999403954 1 146.91061078198 126.09317915159
vector 4703  Network.dyn_peer[31]  lookupTimeSig:vector  ETV
4703	488279 4959 880 51394 23.5 3218.119471471 173 0 1 56.5 23.15
vector 4689  Network.dyn_peer[27]  lookupHopsSig:vector  ETV
4689	411575 3996 914 51631 23.6 3218.907409825723 155 1 9 479 1937
vector 4690  Network.dyn_peer[27]  lookupStabilitySig:vector  ETV
4690	415571 6151 914 51631 23.6 3218.907409825723 155 0.5 0.97297297231853 134.94094058499 118.34533163865
vector 4691  Network.dyn_peer[27]  lookupTimeSig:vector  ETV
4691	421722 4304 914 51631 23.6 3218.907409825723 155 0.1 1 60.2 28.38
vector 4698  Network.dyn_peer[30]  lookupHopsSig:vector  ETV
4698	459609 4850 918 51390 23.6 3218.112667842727 184 0 11 551 2327
vector 4699  Network.dyn_peer[30]  lookupStabilitySig:vector  ETV
4699	464459 7271 918 51390 23.6 3218.112667842727 184 0.5 1 161.75559463166 143.44120955276
vector 4700  Network.dyn_peer[30]  lookupTimeSig:vector  ETV
4700	471730 5209 918 51390 23.6 3218.112667842727 184 0 1.2 70.3 33.93
