version 2
run Stability-1-20130524-20:20:59-3483
attr configname Stability
attr datetime 20130524-20:20:59
attr experiment Stability
attr inifile omnetpp.ini
attr iterationvars $0=1e6
attr iterationvars2 "$0=1e6, $repetition=1"
attr measurement $0=1e6
attr network Network
attr processid 3483
attr repetition 1
attr replication #1
attr resultdir results
attr runnumber 1
attr seedset 1

vector 96  Network.dyn_peer[0]  lookupHopsSig:vector  ETV
vector 97  Network.dyn_peer[0]  lookupStabilitySig:vector  ETV
vector 98  Network.dyn_peer[0]  lookupTimeSig:vector  ETV
vector 99  Network.dyn_peer[1]  lookupHopsSig:vector  ETV
vector 100  Network.dyn_peer[1]  lookupStabilitySig:vector  ETV
vector 101  Network.dyn_peer[1]  lookupTimeSig:vector  ETV
vector 102  Network.dyn_peer[2]  lookupHopsSig:vector  ETV
vector 103  Network.dyn_peer[2]  lookupStabilitySig:vector  ETV
vector 104  Network.dyn_peer[2]  lookupTimeSig:vector  ETV
vector 105  Network.dyn_peer[3]  lookupHopsSig:vector  ETV
vector 106  Network.dyn_peer[3]  lookupStabilitySig:vector  ETV
vector 107  Network.dyn_peer[3]  lookupTimeSig:vector  ETV
vector 108  Network.dyn_peer[4]  lookupHopsSig:vector  ETV
vector 109  Network.dyn_peer[4]  lookupStabilitySig:vector  ETV
vector 110  Network.dyn_peer[4]  lookupTimeSig:vector  ETV
vector 111  Network.dyn_peer[5]  lookupHopsSig:vector  ETV
vector 112  Network.dyn_peer[5]  lookupStabilitySig:vector  ETV
vector 113  Network.dyn_peer[5]  lookupTimeSig:vector  ETV
vector 114  Network.dyn_peer[6]  lookupHopsSig:vector  ETV
vector 115  Network.dyn_peer[6]  lookupStabilitySig:vector  ETV
vector 116  Network.dyn_peer[6]  lookupTimeSig:vector  ETV
vector 117  Network.dyn_peer[7]  lookupHopsSig:vector  ETV
vector 118  Network.dyn_peer[7]  lookupStabilitySig:vector  ETV
vector 119  Network.dyn_peer[7]  lookupTimeSig:vector  ETV
vector 120  Network.dyn_peer[8]  lookupHopsSig:vector  ETV
vector 121  Network.dyn_peer[8]  lookupStabilitySig:vector  ETV
vector 122  Network.dyn_peer[8]  lookupTimeSig:vector  ETV
vector 123  Network.dyn_peer[9]  lookupHopsSig:vector  ETV
vector 124  Network.dyn_peer[9]  lookupStabilitySig:vector  ETV
vector 125  Network.dyn_peer[9]  lookupTimeSig:vector  ETV
vector 126  Network.dyn_peer[10]  lookupHopsSig:vector  ETV
vector 127  Network.dyn_peer[10]  lookupStabilitySig:vector  ETV
vector 128  Network.dyn_peer[10]  lookupTimeSig:vector  ETV
vector 129  Network.dyn_peer[11]  lookupHopsSig:vector  ETV
vector 130  Network.dyn_peer[11]  lookupStabilitySig:vector  ETV
vector 131  Network.dyn_peer[11]  lookupTimeSig:vector  ETV
vector 132  Network.dyn_peer[12]  lookupHopsSig:vector  ETV
vector 133  Network.dyn_peer[12]  lookupStabilitySig:vector  ETV
vector 134  Network.dyn_peer[12]  lookupTimeSig:vector  ETV
vector 135  Network.dyn_peer[13]  lookupHopsSig:vector  ETV
vector 136  Network.dyn_peer[13]  lookupStabilitySig:vector  ETV
vector 137  Network.dyn_peer[13]  lookupTimeSig:vector  ETV
vector 138  Network.dyn_peer[14]  lookupHopsSig:vector  ETV
vector 139  Network.dyn_peer[14]  lookupStabilitySig:vector  ETV
vector 140  Network.dyn_peer[14]  lookupTimeSig:vector  ETV
vector 141  Network.dyn_peer[15]  lookupHopsSig:vector  ETV
vector 142  Network.dyn_peer[15]  lookupStabilitySig:vector  ETV
vector 143  Network.dyn_peer[15]  lookupTimeSig:vector  ETV
vector 144  Network.dyn_peer[16]  lookupHopsSig:vector  ETV
vector 145  Network.dyn_peer[16]  lookupStabilitySig:vector  ETV
vector 146  Network.dyn_peer[16]  lookupTimeSig:vector  ETV
vector 147  Network.dyn_peer[17]  lookupHopsSig:vector  ETV
vector 148  Network.dyn_peer[17]  lookupStabilitySig:vector  ETV
vector 149  Network.dyn_peer[17]  lookupTimeSig:vector  ETV
vector 150  Network.dyn_peer[18]  lookupHopsSig:vector  ETV
vector 151  Network.dyn_peer[18]  lookupStabilitySig:vector  ETV
vector 152  Network.dyn_peer[18]  lookupTimeSig:vector  ETV
vector 153  Network.dyn_peer[19]  lookupHopsSig:vector  ETV
vector 154  Network.dyn_peer[19]  lookupStabilitySig:vector  ETV
vector 155  Network.dyn_peer[19]  lookupTimeSig:vector  ETV
vector 156  Network.dyn_peer[20]  lookupHopsSig:vector  ETV
vector 157  Network.dyn_peer[20]  lookupStabilitySig:vector  ETV
vector 158  Network.dyn_peer[20]  lookupTimeSig:vector  ETV
vector 159  Network.dyn_peer[21]  lookupHopsSig:vector  ETV
vector 160  Network.dyn_peer[21]  lookupStabilitySig:vector  ETV
vector 161  Network.dyn_peer[21]  lookupTimeSig:vector  ETV
vector 162  Network.dyn_peer[22]  lookupHopsSig:vector  ETV
vector 163  Network.dyn_peer[22]  lookupStabilitySig:vector  ETV
vector 164  Network.dyn_peer[22]  lookupTimeSig:vector  ETV
vector 165  Network.dyn_peer[23]  lookupHopsSig:vector  ETV
vector 166  Network.dyn_peer[23]  lookupStabilitySig:vector  ETV
vector 167  Network.dyn_peer[23]  lookupTimeSig:vector  ETV
vector 168  Network.dyn_peer[24]  lookupHopsSig:vector  ETV
vector 169  Network.dyn_peer[24]  lookupStabilitySig:vector  ETV
vector 170  Network.dyn_peer[24]  lookupTimeSig:vector  ETV
vector 171  Network.dyn_peer[25]  lookupHopsSig:vector  ETV
vector 172  Network.dyn_peer[25]  lookupStabilitySig:vector  ETV
vector 173  Network.dyn_peer[25]  lookupTimeSig:vector  ETV
vector 174  Network.dyn_peer[26]  lookupHopsSig:vector  ETV
vector 175  Network.dyn_peer[26]  lookupStabilitySig:vector  ETV
vector 176  Network.dyn_peer[26]  lookupTimeSig:vector  ETV
vector 177  Network.dyn_peer[27]  lookupHopsSig:vector  ETV
vector 178  Network.dyn_peer[27]  lookupStabilitySig:vector  ETV
vector 179  Network.dyn_peer[27]  lookupTimeSig:vector  ETV
vector 180  Network.dyn_peer[28]  lookupHopsSig:vector  ETV
vector 181  Network.dyn_peer[28]  lookupStabilitySig:vector  ETV
vector 182  Network.dyn_peer[28]  lookupTimeSig:vector  ETV
vector 183  Network.dyn_peer[29]  lookupHopsSig:vector  ETV
vector 184  Network.dyn_peer[29]  lookupStabilitySig:vector  ETV
vector 185  Network.dyn_peer[29]  lookupTimeSig:vector  ETV
vector 186  Network.dyn_peer[30]  lookupHopsSig:vector  ETV
vector 187  Network.dyn_peer[30]  lookupStabilitySig:vector  ETV
vector 188  Network.dyn_peer[30]  lookupTimeSig:vector  ETV
vector 189  Network.dyn_peer[31]  lookupHopsSig:vector  ETV
vector 190  Network.dyn_peer[31]  lookupStabilitySig:vector  ETV
vector 191  Network.dyn_peer[31]  lookupTimeSig:vector  ETV
96	42	1020.2	2
96	46	1020.5	2
96	50	1020.702730499773	1
96	55	1020.905021235969	1
96	1326	33020.1	1
96	1330	33020.4	2
96	1334	33020.605528219733	1
96	1339	33020.915204898989	2
96	2631	65020.2	2
96	2634	65020.4	1
96	2639	65020.709053923119	2
96	2644	65021.018711191168	2
96	3966	97020	0
96	3970	97020.3	2
96	3975	97020.510165451175	1
96	3980	97020.725204954078	1
96	5296	129020	0
96	5299	129020.2	1
96	5303	129020.405855786588	1
96	5311	129020.634184588511	1
96	6632	161020.2	2
96	6635	161020.4	1
96	6639	161020.603535348686	1
96	6645	161020.814469242813	1
96	7962	193020.1	1
96	7966	193020.4	2
96	7970	193020.608281353616	1
96	7975	193020.818483274936	1
96	9313	225020.1	1
96	9316	225020.3	1
96	9321	225020.60388616427	2
96	9325	225020.810022051193	1
96	10619	257020.2	2
96	10624	257020.508633160607	2
96	10629	257020.808890695434	2
96	10633	257021.01785769144	1
96	11956	289020.1	1
96	11959	289020.3	1
96	11965	289020.613755209073	2
96	11971	289020.927544184356	2
96	13285	321020	0
96	13289	321020.201938477649	1
96	13295	321020.51947592536	2
96	13299	321020.722567184362	1
96	14585	353020.1	1
96	14588	353020.3	1
96	14592	353020.508065915168	1
96	14599	353020.720433676485	1
96	15949	385020.1	1
96	15953	385020.4	2
96	15957	385020.605180325652	1
96	15962	385020.813380029736	1
96	17249	417020.1	1
96	17252	417020.3	1
96	17257	417020.608067468171	2
96	17262	417020.810768559229	1
96	18550	449020.1	1
96	18560	449020.345443487864	1
96	18564	449020.549593083144	1
96	18571	449020.765063006119	1
96	19846	481020.1	1
96	19849	481020.3	1
96	19853	481020.507471374049	1
96	19859	481020.728323542669	1
96	21140	513020.1	1
96	21144	513020.4	2
96	21149	513020.612186879109	1
96	21154	513020.822126204338	1
96	22451	545020.1	1
96	22455	545020.4	2
96	22459	545020.609976282499	1
96	22463	545020.818675390251	1
96	23767	577020.2	2
96	23771	577020.5	2
96	23775	577020.703861046745	1
96	23792	577020.971541222586	1
96	25082	609020.1	1
96	25085	609020.3	1
96	25089	609020.502796211813	1
96	25095	609020.712225072503	1
96	26430	641020.2	2
96	26433	641020.4	1
96	26438	641020.709630182452	2
96	26454	641020.988682614266	1
96	27738	673020.2	2
96	27742	673020.406539929357	1
96	27747	673020.715013343202	2
96	27752	673021.017796936502	2
96	29050	705020.1	1
96	29055	705020.40486424576	2
96	29059	705020.606262605278	1
96	29064	705020.818741321424	1
96	30409	737020	0
96	30413	737020.3	2
96	30417	737020.505119992282	1
96	30422	737020.709914225541	1
96	31717	769020.1	1
96	31720	769020.3	1
96	31724	769020.505089025511	1
96	31733	769020.740523864635	1
96	33041	801020.2	2
96	33044	801020.4	1
96	33053	801020.62068704218	1
96	33058	801020.837763443976	1
96	34373	833020.1	1
96	34378	833020.313816558641	1
96	34382	833020.52378896986	1
96	34386	833020.730884862021	1
96	35758	865020.1	1
96	35761	865020.3	1
96	35768	865020.52121150388	1
96	35788	865020.83023002641	1
96	37099	897020	0
96	37103	897020.3	2
96	37107	897020.507862693259	1
96	37118	897020.845974699182	2
96	38463	929020.1	1
96	38466	929020.3	1
96	38472	929020.604287803305	2
96	38482	929020.839211611191	1
96	39794	961020.1	1
96	39797	961020.3	1
96	39803	961020.603408907692	2
96	39808	961020.81796949231	1
96	41102	993020.2	2
96	41105	993020.4	1
96	41120	993020.757667246689	2
96	41124	993020.965605078043	1
97	42	1020.2	0.75
97	46	1020.5	0.75
97	50	1020.702730499773	0.875
97	55	1020.905021235969	0.875
97	1326	33020.1	0.875
97	1330	33020.4	0.75
97	1334	33020.605528219733	0.875
97	1339	33020.915204898989	0.75
97	2631	65020.2	0.75
97	2634	65020.4	0.875
97	2639	65020.709053923119	0.75
97	2644	65021.018711191168	0.75
97	3966	97020	1
97	3970	97020.3	0.75
97	3975	97020.510165451175	0.875
97	3980	97020.725204954078	0.875
97	5296	129020	1
97	5299	129020.2	0.875
97	5303	129020.405855786588	0.875
97	5311	129020.634184588511	0.875
97	6632	161020.2	0.75
97	6635	161020.4	0.875
97	6639	161020.603535348686	0.875
97	6645	161020.814469242813	0.875
97	7962	193020.1	0.875
97	7966	193020.4	0.75
97	7970	193020.608281353616	0.875
97	7975	193020.818483274936	0.875
97	9313	225020.1	0.875
97	9316	225020.3	0.875
97	9321	225020.60388616427	0.75
97	9325	225020.810022051193	0.875
97	10619	257020.2	0.75
97	10624	257020.508633160607	0.75
97	10629	257020.808890695434	0.75
97	10633	257021.01785769144	0.875
97	11956	289020.1	0.875
97	11959	289020.3	0.875
97	11965	289020.613755209073	0.75
97	11971	289020.927544184356	0.75
97	13285	321020	1
97	13289	321020.201938477649	0.875
97	13295	321020.51947592536	0.75
97	13299	321020.722567184362	0.875
97	14585	353020.1	0.875
97	14588	353020.3	0.875
97	14592	353020.508065915168	0.875
97	14599	353020.720433676485	0.875
97	15949	385020.1	0.875
97	15953	385020.4	0.75
97	15957	385020.605180325652	0.875
97	15962	385020.813380029736	0.875
97	17249	417020.1	0.875
97	17252	417020.3	0.875
97	17257	417020.608067468171	0.75
97	17262	417020.810768559229	0.875
97	18550	449020.1	0.875
97	18560	449020.345443487864	0.875
97	18564	449020.549593083144	0.875
97	18571	449020.765063006119	0.875
97	19846	481020.1	0.875
97	19849	481020.3	0.875
97	19853	481020.507471374049	0.875
97	19859	481020.728323542669	0.875
97	21140	513020.1	0.875
97	21144	513020.4	0.75
97	21149	513020.612186879109	0.875
97	21154	513020.822126204338	0.875
97	22451	545020.1	0.875
97	22455	545020.4	0.75
97	22459	545020.609976282499	0.875
97	22463	545020.818675390251	0.875
97	23767	577020.2	0.75
97	23771	577020.5	0.75
97	23775	577020.703861046745	0.875
97	23792	577020.971541222586	0.875
97	25082	609020.1	0.875
97	25085	609020.3	0.875
97	25089	609020.502796211813	0.875
97	25095	609020.712225072503	0.875
97	26430	641020.2	0.75
97	26433	641020.4	0.875
97	26438	641020.709630182452	0.75
97	26454	641020.988682614266	0.875
97	27738	673020.2	0.75
97	27742	673020.406539929357	0.875
97	27747	673020.715013343202	0.75
97	27752	673021.017796936502	0.75
97	29050	705020.1	0.875
97	29055	705020.40486424576	0.75
97	29059	705020.606262605278	0.875
97	29064	705020.818741321424	0.875
97	30409	737020	1
97	30413	737020.3	0.75
97	30417	737020.505119992282	0.875
97	30422	737020.709914225541	0.875
97	31717	769020.1	0.875
97	31720	769020.3	0.875
97	31724	769020.505089025511	0.875
97	31733	769020.740523864635	0.875
97	33041	801020.2	0.75
97	33044	801020.4	0.875
97	33053	801020.62068704218	0.875
97	33058	801020.837763443976	0.875
97	34373	833020.1	0.875
97	34378	833020.313816558641	0.875
97	34382	833020.52378896986	0.875
97	34386	833020.730884862021	0.875
97	35758	865020.1	0.875
97	35761	865020.3	0.875
97	35768	865020.52121150388	0.875
97	35788	865020.83023002641	0.875
97	37099	897020	1
97	37103	897020.3	0.75
97	37107	897020.507862693259	0.875
97	37118	897020.845974699182	0.75
97	38463	929020.1	0.875
97	38466	929020.3	0.875
97	38472	929020.604287803305	0.75
97	38482	929020.839211611191	0.875
97	39794	961020.1	0.875
97	39797	961020.3	0.875
97	39803	961020.603408907692	0.75
97	39808	961020.81796949231	0.875
97	41102	993020.2	0.75
97	41105	993020.4	0.875
97	41120	993020.757667246689	0.75
97	41124	993020.965605078043	0.875
98	42	1020.2	0.2
98	46	1020.5	0.3
98	50	1020.702730499773	0.2
98	55	1020.905021235969	0.2
98	1326	33020.1	0.1
98	1330	33020.4	0.3
98	1334	33020.605528219733	0.2
98	1339	33020.915204898989	0.3
98	2631	65020.2	0.2
98	2634	65020.4	0.2
98	2639	65020.709053923119	0.3
98	2644	65021.018711191168	0.3
98	3966	97020	0
98	3970	97020.3	0.3
98	3975	97020.510165451175	0.2
98	3980	97020.725204954078	0.2
98	5296	129020	0
98	5299	129020.2	0.2
98	5303	129020.405855786588	0.2
98	5311	129020.634184588511	0.2
98	6632	161020.2	0.2
98	6635	161020.4	0.2
98	6639	161020.603535348686	0.2
98	6645	161020.814469242813	0.2
98	7962	193020.1	0.1
98	7966	193020.4	0.3
98	7970	193020.608281353616	0.2
98	7975	193020.818483274936	0.2
98	9313	225020.1	0.1
98	9316	225020.3	0.2
98	9321	225020.60388616427	0.3
98	9325	225020.810022051193	0.2
98	10619	257020.2	0.2
98	10624	257020.508633160607	0.3
98	10629	257020.808890695434	0.3
98	10633	257021.01785769144	0.2
98	11956	289020.1	0.1
98	11959	289020.3	0.2
98	11965	289020.613755209073	0.3
98	11971	289020.927544184356	0.3
98	13285	321020	0
98	13289	321020.201938477649	0.2
98	13295	321020.51947592536	0.3
98	13299	321020.722567184362	0.2
98	14585	353020.1	0.1
98	14588	353020.3	0.2
98	14592	353020.508065915168	0.2
98	14599	353020.720433676485	0.2
98	15949	385020.1	0.1
98	15953	385020.4	0.3
98	15957	385020.605180325652	0.2
98	15962	385020.813380029736	0.2
98	17249	417020.1	0.1
98	17252	417020.3	0.2
98	17257	417020.608067468171	0.3
98	17262	417020.810768559229	0.2
98	18550	449020.1	0.1
98	18560	449020.345443487864	0.2
98	18564	449020.549593083144	0.2
98	18571	449020.765063006119	0.2
98	19846	481020.1	0.1
98	19849	481020.3	0.2
98	19853	481020.507471374049	0.2
98	19859	481020.728323542669	0.2
98	21140	513020.1	0.1
98	21144	513020.4	0.3
98	21149	513020.612186879109	0.2
98	21154	513020.822126204338	0.2
98	22451	545020.1	0.1
98	22455	545020.4	0.3
98	22459	545020.609976282499	0.2
98	22463	545020.818675390251	0.2
98	23767	577020.2	0.2
98	23771	577020.5	0.3
98	23775	577020.703861046745	0.2
98	23792	577020.971541222586	0.2
98	25082	609020.1	0.1
98	25085	609020.3	0.2
98	25089	609020.502796211813	0.2
98	25095	609020.712225072503	0.2
98	26430	641020.2	0.2
98	26433	641020.4	0.2
98	26438	641020.709630182452	0.3
98	26454	641020.988682614266	0.2
98	27738	673020.2	0.2
98	27742	673020.406539929357	0.2
98	27747	673020.715013343202	0.3
98	27752	673021.017796936502	0.3
98	29050	705020.1	0.1
98	29055	705020.40486424576	0.3
98	29059	705020.606262605278	0.2
98	29064	705020.818741321424	0.2
98	30409	737020	0
98	30413	737020.3	0.3
98	30417	737020.505119992282	0.2
98	30422	737020.709914225541	0.2
98	31717	769020.1	0.1
98	31720	769020.3	0.2
98	31724	769020.505089025511	0.2
98	31733	769020.740523864635	0.2
98	33041	801020.2	0.2
98	33044	801020.4	0.2
98	33053	801020.62068704218	0.2
98	33058	801020.837763443976	0.2
98	34373	833020.1	0.1
98	34378	833020.313816558641	0.2
98	34382	833020.52378896986	0.2
98	34386	833020.730884862021	0.2
98	35758	865020.1	0.1
98	35761	865020.3	0.2
98	35768	865020.52121150388	0.2
98	35788	865020.83023002641	0.2
98	37099	897020	0
98	37103	897020.3	0.3
98	37107	897020.507862693259	0.2
98	37118	897020.845974699182	0.3
98	38463	929020.1	0.1
98	38466	929020.3	0.2
98	38472	929020.604287803305	0.3
98	38482	929020.839211611191	0.2
98	39794	961020.1	0.1
98	39797	961020.3	0.2
98	39803	961020.603408907692	0.3
98	39808	961020.81796949231	0.2
98	41102	993020.2	0.2
98	41105	993020.4	0.2
98	41120	993020.757667246689	0.3
98	41124	993020.965605078043	0.2
99	82	2020.2	2
99	85	2020.4	1
99	90	2020.700983468363	2
99	94	2020.90691412353	1
99	1366	34020.2	2
99	1370	34020.401241733171	1
99	1376	34020.706369795253	2
99	1385	34020.938329143948	1
99	2672	66020.3	3
99	2675	66020.5	1
99	2680	66020.708926353274	1
99	2687	66020.92680551561	1
99	4006	98020.1	1
99	4010	98020.4	2
99	4014	98020.607702387291	1
99	4038	98021.011971442774	2
99	5337	130020.1	1
99	5341	130020.4	2
99	5346	130020.608161032348	1
99	5352	130020.826234714437	1
99	6672	162020.2	2
99	6675	162020.4	1
99	6681	162020.712851229286	2
99	6686	162021.020183680003	2
99	8002	194020.2	2
99	8006	194020.5	2
99	8011	194020.710254258205	1
99	8019	194021.022894692936	2
99	9352	226020.2	2
99	9357	226020.6	3
99	9363	226020.808925109483	1
99	9367	226021.01041957743	1
99	10661	258020.3	3
99	10665	258020.505035095131	1
99	10673	258020.726291761823	1
99	10682	258020.954957338347	1
99	11997	290020.1	1
99	12000	290020.3	1
99	12005	290020.604967526977	2
99	12021	290020.866972042971	1
99	13326	322020.2	2
99	13331	322020.6	3
99	13335	322020.806888452589	1
99	13343	322021.120816161995	2
99	14624	354020	0
99	14627	354020.2	1
99	14632	354020.504599567325	2
99	14637	354020.716469234156	1
99	15988	386020.1	1
99	15992	386020.4	2
99	15996	386020.605764560268	1
99	16000	386020.81032099452	1
99	17290	418020.3	3
99	17293	418020.5	1
99	17298	418020.712301360342	1
99	17304	418020.934835733324	1
99	18598	450020.2	2
99	18601	450020.4	1
99	18605	450020.603234791934	1
99	18610	450020.818060592258	1
99	19885	482020.1	1
99	19888	482020.3	1
99	19894	482020.616304681065	2
99	19899	482020.831099479011	1
99	21180	514020.1	1
99	21183	514020.3	1
99	21188	514020.608781227164	2
99	21192	514020.814118304734	1
99	22489	546020.1	1
99	22493	546020.4	2
99	22497	546020.601722665447	1
99	22501	546020.806425654703	1
99	23818	578020.1	1
99	23821	578020.3	1
99	23825	578020.506279619266	1
99	23829	578020.70737974805	1
99	25122	610020.2	2
99	25125	610020.4	1
99	25129	610020.606600152219	1
99	25135	610020.820274132344	1
99	26479	642020	0
99	26483	642020.3	2
99	26487	642020.505216593078	1
99	26494	642020.825968302397	2
99	27779	674020.2	2
99	27784	674020.50569424173	2
99	27789	674020.811903765573	2
99	27796	674021.026687633369	1
99	29091	706020.2	2
99	29095	706020.5	2
99	29100	706020.708984729407	1
99	29106	706020.918844088402	1
99	30449	738020.2	2
99	30454	738020.503005340071	2
99	30463	738020.728035111286	1
99	30468	738021.033252923405	2
99	31759	770020.1	1
99	31762	770020.3	1
99	31768	770020.516959546372	1
99	31772	770020.722876740564	1
99	33083	802020	0
99	33088	802020.4	3
99	33093	802020.702568962438	2
99	33098	802021.011156113558	2
99	34412	834020.1	1
99	34415	834020.3	1
99	34419	834020.509635975605	1
99	34424	834020.713672948162	1
99	35814	866020.1	1
99	35817	866020.3	1
99	35822	866020.605578704394	2
99	35827	866020.811772443064	1
99	37144	898020.1	1
99	37148	898020.4	2
99	37154	898020.605945310621	1
99	37158	898020.813163029202	1
99	38507	930020	0
99	38510	930020.2	1
99	38515	930020.509961414337	2
99	38520	930020.814856938172	2
99	39834	962020.1	1
99	39837	962020.3	1
99	39842	962020.508399278952	1
99	39847	962020.715157382876	1
99	41150	994020.1	1
99	41153	994020.3	1
99	41157	994020.509036275481	1
99	41161	994020.71782928392	1
100	82	2020.2	0.75
100	85	2020.4	0.875
100	90	2020.700983468363	0.75
100	94	2020.90691412353	0.875
100	1366	34020.2	0.75
100	1370	34020.401241733171	0.875
100	1376	34020.706369795253	0.75
100	1385	34020.938329143948	0.875
100	2672	66020.3	0.625
100	2675	66020.5	0.875
100	2680	66020.708926353274	0.875
100	2687	66020.92680551561	0.875
100	4006	98020.1	0.875
100	4010	98020.4	0.75
100	4014	98020.607702387291	0.875
100	4038	98021.011971442774	0.75
100	5337	130020.1	0.875
100	5341	130020.4	0.75
100	5346	130020.608161032348	0.875
100	5352	130020.826234714437	0.875
100	6672	162020.2	0.75
100	6675	162020.4	0.875
100	6681	162020.712851229286	0.75
100	6686	162021.020183680003	0.75
100	8002	194020.2	0.75
100	8006	194020.5	0.75
100	8011	194020.710254258205	0.875
100	8019	194021.022894692936	0.75
100	9352	226020.2	0.75
100	9357	226020.6	0.625
100	9363	226020.808925109483	0.875
100	9367	226021.01041957743	0.875
100	10661	258020.3	0.625
100	10665	258020.505035095131	0.875
100	10673	258020.726291761823	0.875
100	10682	258020.954957338347	0.875
100	11997	290020.1	0.875
100	12000	290020.3	0.875
100	12005	290020.604967526977	0.75
100	12021	290020.866972042971	0.875
100	13326	322020.2	0.75
100	13331	322020.6	0.625
100	13335	322020.806888452589	0.875
100	13343	322021.120816161995	0.75
100	14624	354020	1
100	14627	354020.2	0.875
100	14632	354020.504599567325	0.75
100	14637	354020.716469234156	0.875
100	15988	386020.1	0.875
100	15992	386020.4	0.75
100	15996	386020.605764560268	0.875
100	16000	386020.81032099452	0.875
100	17290	418020.3	0.625
100	17293	418020.5	0.875
100	17298	418020.712301360342	0.875
100	17304	418020.934835733324	0.875
100	18598	450020.2	0.75
100	18601	450020.4	0.875
100	18605	450020.603234791934	0.875
100	18610	450020.818060592258	0.875
100	19885	482020.1	0.875
100	19888	482020.3	0.875
100	19894	482020.616304681065	0.75
100	19899	482020.831099479011	0.875
100	21180	514020.1	0.875
100	21183	514020.3	0.875
100	21188	514020.608781227164	0.75
100	21192	514020.814118304734	0.875
100	22489	546020.1	0.875
100	22493	546020.4	0.75
100	22497	546020.601722665447	0.875
100	22501	546020.806425654703	0.875
100	23818	578020.1	0.875
100	23821	578020.3	0.875
100	23825	578020.506279619266	0.875
100	23829	578020.70737974805	0.875
100	25122	610020.2	0.75
100	25125	610020.4	0.875
100	25129	610020.606600152219	0.875
100	25135	610020.820274132344	0.875
100	26479	642020	1
100	26483	642020.3	0.75
100	26487	642020.505216593078	0.875
100	26494	642020.825968302397	0.75
100	27779	674020.2	0.75
100	27784	674020.50569424173	0.75
100	27789	674020.811903765573	0.75
100	27796	674021.026687633369	0.875
100	29091	706020.2	0.75
100	29095	706020.5	0.75
100	29100	706020.708984729407	0.875
100	29106	706020.918844088402	0.875
100	30449	738020.2	0.75
100	30454	738020.503005340071	0.75
100	30463	738020.728035111286	0.875
100	30468	738021.033252923405	0.75
100	31759	770020.1	0.875
100	31762	770020.3	0.875
100	31768	770020.516959546372	0.875
100	31772	770020.722876740564	0.875
100	33083	802020	1
100	33088	802020.4	0.625
100	33093	802020.702568962438	0.75
100	33098	802021.011156113558	0.75
100	34412	834020.1	0.875
100	34415	834020.3	0.875
100	34419	834020.509635975605	0.875
100	34424	834020.713672948162	0.875
100	35814	866020.1	0.875
100	35817	866020.3	0.875
100	35822	866020.605578704394	0.75
100	35827	866020.811772443064	0.875
100	37144	898020.1	0.875
100	37148	898020.4	0.75
100	37154	898020.605945310621	0.875
100	37158	898020.813163029202	0.875
100	38507	930020	1
100	38510	930020.2	0.875
100	38515	930020.509961414337	0.75
100	38520	930020.814856938172	0.75
100	39834	962020.1	0.875
100	39837	962020.3	0.875
100	39842	962020.508399278952	0.875
100	39847	962020.715157382876	0.875
100	41150	994020.1	0.875
100	41153	994020.3	0.875
100	41157	994020.509036275481	0.875
100	41161	994020.71782928392	0.875
101	82	2020.2	0.2
101	85	2020.4	0.2
101	90	2020.700983468363	0.3
101	94	2020.90691412353	0.2
101	1366	34020.2	0.2
101	1370	34020.401241733171	0.2
101	1376	34020.706369795253	0.3
101	1385	34020.938329143948	0.2
101	2672	66020.3	0.3
101	2675	66020.5	0.2
101	2680	66020.708926353274	0.2
101	2687	66020.92680551561	0.2
101	4006	98020.1	0.1
101	4010	98020.4	0.3
101	4014	98020.607702387291	0.2
101	4038	98021.011971442774	0.3
101	5337	130020.1	0.1
101	5341	130020.4	0.3
101	5346	130020.608161032348	0.2
101	5352	130020.826234714437	0.2
101	6672	162020.2	0.2
101	6675	162020.4	0.2
101	6681	162020.712851229286	0.3
101	6686	162021.020183680003	0.3
101	8002	194020.2	0.2
101	8006	194020.5	0.3
101	8011	194020.710254258205	0.2
101	8019	194021.022894692936	0.3
101	9352	226020.2	0.2
101	9357	226020.6	0.4
101	9363	226020.808925109483	0.2
101	9367	226021.01041957743	0.2
101	10661	258020.3	0.3
101	10665	258020.505035095131	0.2
101	10673	258020.726291761823	0.2
101	10682	258020.954957338347	0.2
101	11997	290020.1	0.1
101	12000	290020.3	0.2
101	12005	290020.604967526977	0.3
101	12021	290020.866972042971	0.2
101	13326	322020.2	0.2
101	13331	322020.6	0.4
101	13335	322020.806888452589	0.2
101	13343	322021.120816161995	0.3
101	14624	354020	0
101	14627	354020.2	0.2
101	14632	354020.504599567325	0.3
101	14637	354020.716469234156	0.2
101	15988	386020.1	0.1
101	15992	386020.4	0.3
101	15996	386020.605764560268	0.2
101	16000	386020.81032099452	0.2
101	17290	418020.3	0.3
101	17293	418020.5	0.2
101	17298	418020.712301360342	0.2
101	17304	418020.934835733324	0.2
101	18598	450020.2	0.2
101	18601	450020.4	0.2
101	18605	450020.603234791934	0.2
101	18610	450020.818060592258	0.2
101	19885	482020.1	0.1
101	19888	482020.3	0.2
101	19894	482020.616304681065	0.3
101	19899	482020.831099479011	0.2
101	21180	514020.1	0.1
101	21183	514020.3	0.2
101	21188	514020.608781227164	0.3
101	21192	514020.814118304734	0.2
101	22489	546020.1	0.1
101	22493	546020.4	0.3
101	22497	546020.601722665447	0.2
101	22501	546020.806425654703	0.2
101	23818	578020.1	0.1
101	23821	578020.3	0.2
101	23825	578020.506279619266	0.2
101	23829	578020.70737974805	0.2
101	25122	610020.2	0.2
101	25125	610020.4	0.2
101	25129	610020.606600152219	0.2
101	25135	610020.820274132344	0.2
101	26479	642020	0
101	26483	642020.3	0.3
101	26487	642020.505216593078	0.2
101	26494	642020.825968302397	0.3
101	27779	674020.2	0.2
101	27784	674020.50569424173	0.3
101	27789	674020.811903765573	0.3
101	27796	674021.026687633369	0.2
101	29091	706020.2	0.2
101	29095	706020.5	0.3
101	29100	706020.708984729407	0.2
101	29106	706020.918844088402	0.2
101	30449	738020.2	0.2
101	30454	738020.503005340071	0.3
101	30463	738020.728035111286	0.2
101	30468	738021.033252923405	0.3
101	31759	770020.1	0.1
101	31762	770020.3	0.2
101	31768	770020.516959546372	0.2
101	31772	770020.722876740564	0.2
101	33083	802020	0
101	33088	802020.4	0.4
101	33093	802020.702568962438	0.3
101	33098	802021.011156113558	0.3
101	34412	834020.1	0.1
101	34415	834020.3	0.2
101	34419	834020.509635975605	0.2
101	34424	834020.713672948162	0.2
101	35814	866020.1	0.1
101	35817	866020.3	0.2
101	35822	866020.605578704394	0.3
101	35827	866020.811772443064	0.2
101	37144	898020.1	0.1
101	37148	898020.4	0.3
101	37154	898020.605945310621	0.2
101	37158	898020.813163029202	0.2
101	38507	930020	0
101	38510	930020.2	0.2
101	38515	930020.509961414337	0.3
101	38520	930020.814856938172	0.3
101	39834	962020.1	0.1
101	39837	962020.3	0.2
101	39842	962020.508399278952	0.2
101	39847	962020.715157382876	0.2
101	41150	994020.1	0.1
101	41153	994020.3	0.2
101	41157	994020.509036275481	0.2
101	41161	994020.71782928392	0.2
102	121	3020.2	2
102	124	3020.4	1
102	128	3020.609578895319	1
102	132	3020.813696774108	1
102	1411	35020.1	1
102	1414	35020.3	1
102	1418	35020.508129949716	1
102	1423	35020.719033876463	1
102	2712	67020	0
102	2717	67020.4	3
102	2722	67020.705991103083	2
102	2726	67020.909127211386	1
102	4065	99020.2	2
102	4070	99020.50359560304	2
102	4075	99020.812608687399	2
102	4079	99021.018149008933	1
102	5377	131020	0
102	5380	131020.2	1
102	5385	131020.504335923301	2
102	5391	131020.809907216165	2
102	6712	163020.1	1
102	6717	163020.401630894236	2
102	6722	163020.703844861231	2
102	6727	163020.907811925517	1
102	8046	195020.2	2
102	8053	195020.426155715294	1
102	8057	195020.631661107701	1
102	8065	195020.857683572681	1
102	9393	227020.1	1
102	9397	227020.4	2
102	9401	227020.601363451117	1
102	9407	227020.81970983235	1
102	10707	259020	0
102	10711	259020.200832026335	1
102	10716	259020.413084544904	1
102	10722	259020.630536574264	1
102	12047	291020.1	1
102	12054	291020.420675236982	2
102	12059	291020.723158144283	2
102	12065	291020.940918116677	1
102	13369	323020.1	1
102	13372	323020.3	1
102	13378	323020.512985750543	1
102	13383	323020.814971665559	2
102	14664	355020.2	2
102	14668	355020.40867987747	1
102	14673	355020.624316429264	1
102	14679	355020.834419500597	1
102	16026	387020.1	1
102	16030	387020.4	2
102	16035	387020.707397399158	2
102	16040	387020.922738354284	1
102	17330	419020.1	1
102	17333	419020.3	1
102	17338	419020.6017742954	2
102	17342	419020.80495979895	1
102	18637	451020.2	2
102	18640	451020.4	1
102	18645	451020.705823969074	2
102	18650	451020.915019209563	1
102	19925	483020.1	1
102	19929	483020.309285785546	1
102	19935	483020.619631711713	2
102	19940	483020.826032622009	1
102	21218	515020.1	1
102	21221	515020.3	1
102	21225	515020.504932771904	1
102	21229	515020.711087542645	1
102	22528	547020.2	2
102	22533	547020.6	3
102	22539	547020.902419392361	2
102	22544	547021.113809131743	1
102	23856	579020.2	2
102	23860	579020.5	2
102	23864	579020.70029528748	1
102	23869	579021.000863382925	2
102	25162	611020.2	2
102	25165	611020.4	1
102	25169	611020.605824398563	1
102	25176	611020.922637444707	2
102	26520	643020.1	1
102	26524	643020.4	2
102	26531	643020.614292802963	1
102	26539	643020.847657135979	1
102	27822	675020.1	1
102	27825	675020.3	1
102	27830	675020.513794459956	1
102	27834	675020.722541887992	1
102	29133	707020.2	2
102	29137	707020.5	2
102	29144	707020.716931742957	1
102	29159	707020.960499551839	1
102	30495	739020.2	2
102	30499	739020.5	2
102	30503	739020.708568021904	1
102	30507	739020.917994006261	1
102	31799	771020.2	2
102	31802	771020.4	1