file 356278 1369419663                                          
version 2
run Stability-3-20130524-20:21:02-3483
attr configname Stability
attr datetime 20130524-20:21:02
attr experiment Stability
attr inifile omnetpp.ini
attr iterationvars $0=1e6
attr iterationvars2 "$0=1e6, $repetition=3"
attr measurement $0=1e6
attr network Network
attr processid 3483
attr repetition 3
attr replication #3
attr resultdir results
attr runnumber 3
attr seedset 3

vector 288  Network.dyn_peer[0]  lookupHopsSig:vector  ETV
vector 289  Network.dyn_peer[0]  lookupStabilitySig:vector  ETV
vector 290  Network.dyn_peer[0]  lookupTimeSig:vector  ETV
vector 291  Network.dyn_peer[1]  lookupHopsSig:vector  ETV
vector 292  Network.dyn_peer[1]  lookupStabilitySig:vector  ETV
vector 293  Network.dyn_peer[1]  lookupTimeSig:vector  ETV
vector 294  Network.dyn_peer[2]  lookupHopsSig:vector  ETV
vector 295  Network.dyn_peer[2]  lookupStabilitySig:vector  ETV
vector 296  Network.dyn_peer[2]  lookupTimeSig:vector  ETV
vector 297  Network.dyn_peer[3]  lookupHopsSig:vector  ETV
vector 298  Network.dyn_peer[3]  lookupStabilitySig:vector  ETV
vector 299  Network.dyn_peer[3]  lookupTimeSig:vector  ETV
vector 300  Network.dyn_peer[4]  lookupHopsSig:vector  ETV
vector 301  Network.dyn_peer[4]  lookupStabilitySig:vector  ETV
vector 302  Network.dyn_peer[4]  lookupTimeSig:vector  ETV
vector 303  Network.dyn_peer[5]  lookupHopsSig:vector  ETV
vector 304  Network.dyn_peer[5]  lookupStabilitySig:vector  ETV
vector 305  Network.dyn_peer[5]  lookupTimeSig:vector  ETV
vector 306  Network.dyn_peer[6]  lookupHopsSig:vector  ETV
vector 307  Network.dyn_peer[6]  lookupStabilitySig:vector  ETV
vector 308  Network.dyn_peer[6]  lookupTimeSig:vector  ETV
vector 309  Network.dyn_peer[7]  lookupHopsSig:vector  ETV
vector 310  Network.dyn_peer[7]  lookupStabilitySig:vector  ETV
vector 311  Network.dyn_peer[7]  lookupTimeSig:vector  ETV
vector 312  Network.dyn_peer[8]  lookupHopsSig:vector  ETV
vector 313  Network.dyn_peer[8]  lookupStabilitySig:vector  ETV
vector 314  Network.dyn_peer[8]  lookupTimeSig:vector  ETV
vector 315  Network.dyn_peer[9]  lookupHopsSig:vector  ETV
vector 316  Network.dyn_peer[9]  lookupStabilitySig:vector  ETV
vector 317  Network.dyn_peer[9]  lookupTimeSig:vector  ETV
vector 318  Network.dyn_peer[10]  lookupHopsSig:vector  ETV
vector 319  Network.dyn_peer[10]  lookupStabilitySig:vector  ETV
vector 320  Network.dyn_peer[10]  lookupTimeSig:vector  ETV
vector 321  Network.dyn_peer[11]  lookupHopsSig:vector  ETV
vector 322  Network.dyn_peer[11]  lookupStabilitySig:vector  ETV
vector 323  Network.dyn_peer[11]  lookupTimeSig:vector  ETV
vector 324  Network.dyn_peer[12]  lookupHopsSig:vector  ETV
vector 325  Network.dyn_peer[12]  lookupStabilitySig:vector  ETV
vector 326  Network.dyn_peer[12]  lookupTimeSig:vector  ETV
vector 327  Network.dyn_peer[13]  lookupHopsSig:vector  ETV
vector 328  Network.dyn_peer[13]  lookupStabilitySig:vector  ETV
vector 329  Network.dyn_peer[13]  lookupTimeSig:vector  ETV
vector 330  Network.dyn_peer[14]  lookupHopsSig:vector  ETV
vector 331  Network.dyn_peer[14]  lookupStabilitySig:vector  ETV
vector 332  Network.dyn_peer[14]  lookupTimeSig:vector  ETV
vector 333  Network.dyn_peer[15]  lookupHopsSig:vector  ETV
vector 334  Network.dyn_peer[15]  lookupStabilitySig:vector  ETV
vector 335  Network.dyn_peer[15]  lookupTimeSig:vector  ETV
vector 336  Network.dyn_peer[16]  lookupHopsSig:vector  ETV
vector 337  Network.dyn_peer[16]  lookupStabilitySig:vector  ETV
vector 338  Network.dyn_peer[16]  lookupTimeSig:vector  ETV
vector 339  Network.dyn_peer[17]  lookupHopsSig:vector  ETV
vector 340  Network.dyn_peer[17]  lookupStabilitySig:vector  ETV
vector 341  Network.dyn_peer[17]  lookupTimeSig:vector  ETV
vector 342  Network.dyn_peer[18]  lookupHopsSig:vector  ETV
vector 343  Network.dyn_peer[18]  lookupStabilitySig:vector  ETV
vector 344  Network.dyn_peer[18]  lookupTimeSig:vector  ETV
vector 345  Network.dyn_peer[19]  lookupHopsSig:vector  ETV
vector 346  Network.dyn_peer[19]  lookupStabilitySig:vector  ETV
vector 347  Network.dyn_peer[19]  lookupTimeSig:vector  ETV
vector 348  Network.dyn_peer[20]  lookupHopsSig:vector  ETV
vector 349  Network.dyn_peer[20]  lookupStabilitySig:vector  ETV
vector 350  Network.dyn_peer[20]  lookupTimeSig:vector  ETV
vector 351  Network.dyn_peer[21]  lookupHopsSig:vector  ETV
vector 352  Network.dyn_peer[21]  lookupStabilitySig:vector  ETV
vector 353  Network.dyn_peer[21]  lookupTimeSig:vector  ETV
vector 354  Network.dyn_peer[22]  lookupHopsSig:vector  ETV
vector 355  Network.dyn_peer[22]  lookupStabilitySig:vector  ETV
vector 356  Network.dyn_peer[22]  lookupTimeSig:vector  ETV
vector 357  Network.dyn_peer[23]  lookupHopsSig:vector  ETV
vector 358  Network.dyn_peer[23]  lookupStabilitySig:vector  ETV
vector 359  Network.dyn_peer[23]  lookupTimeSig:vector  ETV
vector 360  Network.dyn_peer[24]  lookupHopsSig:vector  ETV
vector 361  Network.dyn_peer[24]  lookupStabilitySig:vector  ETV
vector 362  Network.dyn_peer[24]  lookupTimeSig:vector  ETV
vector 363  Network.dyn_peer[25]  lookupHopsSig:vector  ETV
vector 364  Network.dyn_peer[25]  lookupStabilitySig:vector  ETV
vector 365  Network.dyn_peer[25]  lookupTimeSig:vector  ETV
vector 366  Network.dyn_peer[26]  lookupHopsSig:vector  ETV
vector 367  Network.dyn_peer[26]  lookupStabilitySig:vector  ETV
vector 368  Network.dyn_peer[26]  lookupTimeSig:vector  ETV
vector 369  Network.dyn_peer[27]  lookupHopsSig:vector  ETV
vector 370  Network.dyn_peer[27]  lookupStabilitySig:vector  ETV
vector 371  Network.dyn_peer[27]  lookupTimeSig:vector  ETV
vector 372  Network.dyn_peer[28]  lookupHopsSig:vector  ETV
vector 373  Network.dyn_peer[28]  lookupStabilitySig:vector  ETV
vector 374  Network.dyn_peer[28]  lookupTimeSig:vector  ETV
vector 375  Network.dyn_peer[29]  lookupHopsSig:vector  ETV
vector 376  Network.dyn_peer[29]  lookupStabilitySig:vector  ETV
vector 377  Network.dyn_peer[29]  lookupTimeSig:vector  ETV
vector 378  Network.dyn_peer[30]  lookupHopsSig:vector  ETV
vector 379  Network.dyn_peer[30]  lookupStabilitySig:vector  ETV
vector 380  Network.dyn_peer[30]  lookupTimeSig:vector  ETV
vector 381  Network.dyn_peer[31]  lookupHopsSig:vector  ETV
vector 382  Network.dyn_peer[31]  lookupStabilitySig:vector  ETV
vector 383  Network.dyn_peer[31]  lookupTimeSig:vector  ETV
288	6277 3364 41 41084 1020.2 993021.009674551152 128 0 2 167 259
289	9641 3802 41 41084 1020.2 993021.009674551152 128 0.75 1 107.125 90.296875
290	13443 3606 41 41084 1020.2 993021.009674551152 128 0 0.3 26.3 6.13
291	17049 3458 84 41123 2020 994020.712047075982 128 0 2 158 226
292	20507 3920 84 41123 2020 994020.712047075982 128 0.75 1 108.25 92.03125
293	24427 3706 84 41123 2020 994020.712047075982 128 0 0.3 25.4 5.64
294	28133 3366 123 41161 3020.2 995020.71907231097 128 0 3 179 291
295	31499 3823 123 41161 3020.2 995020.71907231097 128 0.625 1 105.625 87.796875
296	35322 3618 123 41161 3020.2 995020.71907231097 128 0 0.3 27.5 6.57
297	38940 3403 165 41200 4020.1 996020.904993154036 128 0 3 175 277
298	42343 3855 165 41200 4020.1 996020.904993154036 128 0.625 1 106.125 88.578125
299	46198 3653 165 41200 4020.1 996020.904993154036 128 0 0.4 27.1 6.33
300	49851 3434 205 41237 5020.2 997020.713326189375 128 0 3 166 250
301	53285 3895 205 41237 5020.2 997020.713326189375 128 0.625 1 107.25 90.40625
302	57180 3684 205 41237 5020.2 997020.713326189375 128 0 0.4 26.2 5.98
303	60864 3370 255 41278 6020.1 998021.02115213747 128 0 3 181 307
304	64234 3835 255 41278 6020.1 998021.02115213747 128 0.625 1 105.375 87.546875
305	68069 3622 255 41278 6020.1 998021.02115213747 128 0 0.3 27.7 6.65
306	71691 3357 294 41320 7020.1 999020.922035688826 128 0 3 175 287
307	75048 3798 294 41320 7020.1 999020.922035688826 128 0.625 1 106.125 88.734375
308	78846 3601 294 41320 7020.1 999020.922035688826 128 0 0.3 27.1 6.45
309	82447 3402 331 41360 8020 1000020.816338844461 128 0 2 169 261
310	85849 3848 331 41360 8020 1000020.816338844461 128 0.75 1 106.875 89.828125
311	89697 3648 331 41360 8020 1000020.816338844461 128 0 0.3 26.5 6.23
312	93345 3398 372 41404 9020.1 1001020.827714833433 128 0 2 162 244
313	96743 3841 372 41404 9020.1 1001020.827714833433 128 0.75 1 107.75 91.3125
314	100584 3640 372 41404 9020.1 1001020.827714833433 128 0 0.3 25.8 5.92
315	104224 3422 412 41456 10020 1002020.969980227544 128 0 3 182 302
316	107646 3871 412 41456 10020 1002020.969980227544 128 0.625 1 105.25 87.21875
317	111517 3672 412 41456 10020 1002020.969980227544 128 0 0.3 27.8 6.68
318	115189 3432 451 41504 11020.2 1003020.768715466899 128 1 2 174 266
319	118621 3898 451 41504 11020.2 1003020.768715466899 128 0.75 0.875 106.25 88.65625
320	122519 3688 451 41504 11020.2 1003020.768715466899 128 0.1 0.3 27 6.12
321	126207 3376 494 41545 12020.2 1004020.919042935512 128 0 2 164 248
322	129583 3822 494 41545 12020.2 1004020.919042935512 128 0.75 1 107.5 90.875
323	133405 3620 494 41545 12020.2 1004020.919042935512 128 0 0.3 26 5.96
324	137025 3413 534 41586 13020.1 1005020.829613877062 128 0 3 172 272
325	140438 3865 534 41586 13020.1 1005020.829613877062 128 0.625 1 106.5 89.25
326	144303 3661 534 41586 13020.1 1005020.829613877062 128 0 0.4 26.8 6.24
327	147964 3397 583 41627 14020.2 1006020.816920233031 128 0 2 164 246
328	151361 3848 583 41627 14020.2 1006020.816920233031 128 0.75 1 107.5 90.84375
329	155209 3643 583 41627 14020.2 1006020.816920233031 128 0 0.3 26 5.94
330	158852 3399 622 41666 15020.2 1007020.908410965124 128 0 3 165 247
331	162251 3861 622 41666 15020.2 1007020.908410965124 128 0.625 1 107.375 90.609375
332	166112 3649 622 41666 15020.2 1007020.908410965124 128 0 0.4 26.1 5.85
333	169761 3395 660 41710 16020.2 1008020.846753701408 128 0 3 170 270
334	173156 3846 660 41710 16020.2 1008020.846753701408 128 0.625 1 106.75 89.71875
335	177002 3641 660 41710 16020.2 1008020.846753701408 128 0 0.4 26.6 6.24
336	180643 3436 700 41754 17020.1 1009020.842606328166 128 0 2 160 236
337	184079 3886 700 41754 17020.1 1009020.842606328166 128 0.75 1 108 91.6875
338	187965 3680 700 41754 17020.1 1009020.842606328166 128 0 0.3 25.6 5.8
339	191645 3417 739 41800 18020.2 1010020.945796438774 128 0 3 166 258
340	195062 3872 739 41800 18020.2 1010020.945796438774 128 0.625 1 107.25 90.53125
341	198934 3663 739 41800 18020.2 1010020.945796438774 128 0 0.4 26.2 6.08
342	202597 3461 781 41842 19020.2 1011021.014410924988 128 0 3 184 308
343	206058 3915 781 41842 19020.2 1011021.014410924988 128 0.625 1 105 86.8125
344	209973 3713 781 41842 19020.2 1011021.014410924988 128 0 0.4 28 6.72
345	213686 3436 834 41884 20020.3 1012020.74213668855 128 0 3 172 278
346	217122 3887 834 41884 20020.3 1012020.74213668855 128 0.625 1 106.5 89.34375
347	221009 3682 834 41884 20020.3 1012020.74213668855 128 0 0.3 26.8 6.3
348	224691 3443 877 41924 21020.1 1013020.924658455523 128 0 3 183 301
349	228134 3894 877 41924 21020.1 1013020.924658455523 128 0.625 1 105.125 86.953125
350	232028 3695 877 41924 21020.1 1013020.924658455523 128 0 0.3 27.9 6.67
351	235723 3405 921 41971 22020.2 1014020.859094382899 128 0 2 171 263
352	239128 3859 921 41971 22020.2 1014020.859094382899 128 0.75 1 106.625 89.359375
353	242987 3655 921 41971 22020.2 1014020.859094382899 128 0 0.3 26.7 6.15
354	246642 3380 961 42011 23020.1 1015020.911197097051 128 0 3 164 246
355	250022 3838 961 42011 23020.1 1015020.911197097051 128 0.625 1 107.5 90.84375
356	253860 3628 961 42011 23020.1 1015020.911197097051 128 0 0.4 26 5.92
357	257488 3445 1003 42060 24020.1 1016020.864236312148 128 0 2 170 258
358	260933 3905 1003 42060 24020.1 1016020.864236312148 128 0.75 1 106.75 89.53125
359	264838 3697 1003 42060 24020.1 1016020.864236312148 128 0 0.3 26.6 6.02
360	268535 3439 1042 42100 25020.1 1017020.808816728323 128 0 2 167 253
361	271974 3892 1042 42100 25020.1 1017020.808816728323 128 0.75 1 107.125 90.203125
362	275866 3687 1042 42100 25020.1 1017020.808816728323 128 0 0.3 26.3 6.15
363	279553 3419 1080 42143 26020 1018020.840715731584 128 0 3 174 280
364	282972 3871 1080 42143 26020 1018020.840715731584 128 0.625 1 106.25 88.875
365	286843 3667 1080 42143 26020 1018020.840715731584 128 0 0.4 27 6.34
366	290510 3419 1119 42186 27020.1 1019020.851076513962 128 0 2 168 254
367	293929 3876 1119 42186 27020.1 1019020.851076513962 128 0.75 1 107 89.96875
368	297805 3669 1119 42186 27020.1 1019020.851076513962 128 0 0.3 26.4 6.06
369	301474 3392 1158 42225 28020.1 1020020.719478733466 128 0 3 169 269
370	304866 3839 1158 42225 28020.1 1020020.719478733466 128 0.625 1 106.875 89.953125
371	308705 3636 1158 42225 28020.1 1020020.719478733466 128 0 0.4 26.5 6.23
372	312341 3420 1202 42270 29020.1 1021020.929673789869 128 0 3 174 276
373	315761 3868 1202 42270 29020.1 1021020.929673789869 128 0.625 1 106.25 88.8125
374	319629 3668 1202 42270 29020.1 1021020.929673789869 128 0 0.4 27 6.36
375	323297 3440 1242 42319 30020.2 1022020.951414154834 128 0 2 180 290
376	326737 3885 1242 42319 30020.2 1022020.951414154834 128 0.75 1 105.5 87.53125
377	330622 3690 1242 42319 30020.2 1022020.951414154834 128 0 0.3 27.6 6.5
378	334312 3440 1284 42360 31020.1 1023020.828068732788 128 0 3 168 268
379	337752 3897 1284 42360 31020.1 1023020.828068732788 128 0.625 1 107 90.1875
380	341649 3686 1284 42360 31020.1 1023020.828068732788 128 0 0.3 26.4 6.08
381	345335 3423 1323 42398 32020.1 1024020.714744456141 128 0 3 168 266
382	348758 3857 1323 42398 32020.1 1024020.714744456141 128 0.625 1 107 90.15625
383	352615 3663 1323 42398 32020.1 1024020.714744456141 128 0 0.3 26.4 6.24
