version 2
run Stability-16-20130524-20:21:23-3483
attr configname Stability
attr datetime 20130524-20:21:23
attr experiment Stability
attr inifile omnetpp.ini
attr iterationvars $0=1e5
attr iterationvars2 "$0=1e5, $repetition=6"
attr measurement $0=1e5
attr network Network
attr processid 3483
attr repetition 6
attr replication #6
attr resultdir results
attr runnumber 16
attr seedset 16

vector 1536  Network.dyn_peer[0]  lookupHopsSig:vector  ETV
vector 1537  Network.dyn_peer[0]  lookupStabilitySig:vector  ETV
vector 1538  Network.dyn_peer[0]  lookupTimeSig:vector  ETV
vector 1539  Network.dyn_peer[1]  lookupHopsSig:vector  ETV
vector 1540  Network.dyn_peer[1]  lookupStabilitySig:vector  ETV
vector 1541  Network.dyn_peer[1]  lookupTimeSig:vector  ETV
vector 1542  Network.dyn_peer[2]  lookupHopsSig:vector  ETV
vector 1543  Network.dyn_peer[2]  lookupStabilitySig:vector  ETV
vector 1544  Network.dyn_peer[2]  lookupTimeSig:vector  ETV
vector 1545  Network.dyn_peer[3]  lookupHopsSig:vector  ETV
vector 1546  Network.dyn_peer[3]  lookupStabilitySig:vector  ETV
vector 1547  Network.dyn_peer[3]  lookupTimeSig:vector  ETV
vector 1548  Network.dyn_peer[4]  lookupHopsSig:vector  ETV
vector 1549  Network.dyn_peer[4]  lookupStabilitySig:vector  ETV
vector 1550  Network.dyn_peer[4]  lookupTimeSig:vector  ETV
vector 1551  Network.dyn_peer[5]  lookupHopsSig:vector  ETV
vector 1552  Network.dyn_peer[5]  lookupStabilitySig:vector  ETV
vector 1553  Network.dyn_peer[5]  lookupTimeSig:vector  ETV
vector 1554  Network.dyn_peer[6]  lookupHopsSig:vector  ETV
vector 1555  Network.dyn_peer[6]  lookupStabilitySig:vector  ETV
vector 1556  Network.dyn_peer[6]  lookupTimeSig:vector  ETV
vector 1557  Network.dyn_peer[7]  lookupHopsSig:vector  ETV
vector 1558  Network.dyn_peer[7]  lookupStabilitySig:vector  ETV
vector 1559  Network.dyn_peer[7]  lookupTimeSig:vector  ETV
vector 1560  Network.dyn_peer[8]  lookupHopsSig:vector  ETV
vector 1561  Network.dyn_peer[8]  lookupStabilitySig:vector  ETV
vector 1562  Network.dyn_peer[8]  lookupTimeSig:vector  ETV
vector 1563  Network.dyn_peer[9]  lookupHopsSig:vector  ETV
vector 1564  Network.dyn_peer[9]  lookupStabilitySig:vector  ETV
vector 1565  Network.dyn_peer[9]  lookupTimeSig:vector  ETV
vector 1566  Network.dyn_peer[10]  lookupHopsSig:vector  ETV
vector 1567  Network.dyn_peer[10]  lookupStabilitySig:vector  ETV
vector 1568  Network.dyn_peer[10]  lookupTimeSig:vector  ETV
vector 1569  Network.dyn_peer[11]  lookupHopsSig:vector  ETV
vector 1570  Network.dyn_peer[11]  lookupStabilitySig:vector  ETV
vector 1571  Network.dyn_peer[11]  lookupTimeSig:vector  ETV
vector 1572  Network.dyn_peer[12]  lookupHopsSig:vector  ETV
vector 1573  Network.dyn_peer[12]  lookupStabilitySig:vector  ETV
vector 1574  Network.dyn_peer[12]  lookupTimeSig:vector  ETV
vector 1575  Network.dyn_peer[13]  lookupHopsSig:vector  ETV
vector 1576  Network.dyn_peer[13]  lookupStabilitySig:vector  ETV
vector 1577  Network.dyn_peer[13]  lookupTimeSig:vector  ETV
vector 1578  Network.dyn_peer[14]  lookupHopsSig:vector  ETV
vector 1579  Network.dyn_peer[14]  lookupStabilitySig:vector  ETV
vector 1580  Network.dyn_peer[14]  lookupTimeSig:vector  ETV
vector 1581  Network.dyn_peer[15]  lookupHopsSig:vector  ETV
vector 1582  Network.dyn_peer[15]  lookupStabilitySig:vector  ETV
vector 1583  Network.dyn_peer[15]  lookupTimeSig:vector  ETV
vector 1584  Network.dyn_peer[16]  lookupHopsSig:vector  ETV
vector 1585  Network.dyn_peer[16]  lookupStabilitySig:vector  ETV
vector 1586  Network.dyn_peer[16]  lookupTimeSig:vector  ETV
vector 1587  Network.dyn_peer[17]  lookupHopsSig:vector  ETV
vector 1588  Network.dyn_peer[17]  lookupStabilitySig:vector  ETV
vector 1589  Network.dyn_peer[17]  lookupTimeSig:vector  ETV
vector 1590  Network.dyn_peer[18]  lookupHopsSig:vector  ETV
vector 1591  Network.dyn_peer[18]  lookupStabilitySig:vector  ETV
vector 1592  Network.dyn_peer[18]  lookupTimeSig:vector  ETV
vector 1593  Network.dyn_peer[19]  lookupHopsSig:vector  ETV
vector 1594  Network.dyn_peer[19]  lookupStabilitySig:vector  ETV
vector 1595  Network.dyn_peer[19]  lookupTimeSig:vector  ETV
vector 1596  Network.dyn_peer[20]  lookupHopsSig:vector  ETV
vector 1597  Network.dyn_peer[20]  lookupStabilitySig:vector  ETV
vector 1598  Network.dyn_peer[20]  lookupTimeSig:vector  ETV
vector 1599  Network.dyn_peer[21]  lookupHopsSig:vector  ETV
vector 1600  Network.dyn_peer[21]  lookupStabilitySig:vector  ETV
vector 1601  Network.dyn_peer[21]  lookupTimeSig:vector  ETV
vector 1602  Network.dyn_peer[22]  lookupHopsSig:vector  ETV
vector 1603  Network.dyn_peer[22]  lookupStabilitySig:vector  ETV
vector 1604  Network.dyn_peer[22]  lookupTimeSig:vector  ETV
vector 1605  Network.dyn_peer[23]  lookupHopsSig:vector  ETV
vector 1606  Network.dyn_peer[23]  lookupStabilitySig:vector  ETV
vector 1607  Network.dyn_peer[23]  lookupTimeSig:vector  ETV
vector 1608  Network.dyn_peer[24]  lookupHopsSig:vector  ETV
vector 1609  Network.dyn_peer[24]  lookupStabilitySig:vector  ETV
vector 1610  Network.dyn_peer[24]  lookupTimeSig:vector  ETV
vector 1611  Network.dyn_peer[25]  lookupHopsSig:vector  ETV
vector 1612  Network.dyn_peer[25]  lookupStabilitySig:vector  ETV
vector 1613  Network.dyn_peer[25]  lookupTimeSig:vector  ETV
vector 1614  Network.dyn_peer[26]  lookupHopsSig:vector  ETV
vector 1615  Network.dyn_peer[26]  lookupStabilitySig:vector  ETV
vector 1616  Network.dyn_peer[26]  lookupTimeSig:vector  ETV
vector 1617  Network.dyn_peer[27]  lookupHopsSig:vector  ETV
vector 1618  Network.dyn_peer[27]  lookupStabilitySig:vector  ETV
vector 1619  Network.dyn_peer[27]  lookupTimeSig:vector  ETV
vector 1620  Network.dyn_peer[28]  lookupHopsSig:vector  ETV
vector 1621  Network.dyn_peer[28]  lookupStabilitySig:vector  ETV
vector 1622  Network.dyn_peer[28]  lookupTimeSig:vector  ETV
vector 1623  Network.dyn_peer[29]  lookupHopsSig:vector  ETV
vector 1624  Network.dyn_peer[29]  lookupStabilitySig:vector  ETV
vector 1625  Network.dyn_peer[29]  lookupTimeSig:vector  ETV
vector 1626  Network.dyn_peer[30]  lookupHopsSig:vector  ETV
vector 1627  Network.dyn_peer[30]  lookupStabilitySig:vector  ETV
vector 1628  Network.dyn_peer[30]  lookupTimeSig:vector  ETV
vector 1629  Network.dyn_peer[31]  lookupHopsSig:vector  ETV
vector 1630  Network.dyn_peer[31]  lookupStabilitySig:vector  ETV
vector 1631  Network.dyn_peer[31]  lookupTimeSig:vector  ETV
1536	32	120	0
1536	35	120.2	1
1536	39	120.407671904223	1
1536	46	120.630145265475	1
1536	1056	3320.1	1
1536	1059	3320.3	1
1536	1063	3320.508114014121	1
1536	1067	3320.712789962556	1
1536	2082	6520.2	2
1536	2086	6520.5	2
1536	2091	6520.804509251303	2
1536	2095	6521.00766470966	1
1536	3134	9720	0
1536	3137	9720.2	1
1536	3143	9720.419273209645	1
1536	3147	9720.626473184301	1
1536	4142	12920	0
1536	4145	12920.2	1
1536	4149	12920.40116773307	1
1536	4154	12920.610748059797	1
1536	5176	16120.2	2
1536	5182	16120.414470418633	1
1536	5188	16120.626300686258	1
1536	5193	16120.837730127984	1
1536	6200	19320.1	1
1536	6203	19320.3	1
1536	6207	19320.503582186477	1
1536	6214	19320.71283712692	1
1536	7228	22520.1	1
1536	7232	22520.305112123126	1
1536	7237	22520.515006143922	1
1536	7241	22520.715010237035	1
1536	8258	25720.1	1
1536	8261	25720.3	1
1536	8266	25720.508316149398	1
1536	8271	25720.712315190006	1
1536	9272	28920.1	1
1536	9275	28920.3	1
1536	9282	28920.5190054719	1
1536	9286	28920.724037252386	1
1536	10292	32120.1	1
1536	10296	32120.301298480317	1
1536	10306	32120.627787136975	2
1536	10310	32120.831648094094	1
1536	11355	35320.1	1
1536	11358	35320.3	1
1536	11364	35320.610352090848	2
1536	11370	35320.922713827894	2
1536	12393	38520.2	2
1536	12398	38520.508291371897	2
1536	12404	38520.823433801828	2
1536	12408	38521.025503685046	1
1536	13442	41720.2	2
1536	13448	41720.419971182492	1
1536	13455	41720.738497214522	2
1536	13469	41721.091132726032	2
1536	14489	44920.1	1
1536	14492	44920.3	1
1536	14496	44920.506457256949	1
1536	14500	44920.710164894272	1
1536	15528	48120.1	1
1536	15532	48120.4	2
1536	15537	48120.600970603283	1
1536	15542	48120.81187885488	1
1536	16552	51320.2	2
1536	16555	51320.4	1
1536	16559	51320.60631748306	1
1536	16563	51320.814588407987	1
1536	17588	54520.2	2
1536	17591	54520.4	1
1536	17595	54520.603134051559	1
1536	17599	54520.803273635935	1
1536	18611	57720.2	2
1536	18614	57720.4	1
1536	18618	57720.601292300487	1
1536	18622	57720.805349321625	1
1536	19661	60920.1	1
1536	19666	60920.405748979984	2
1536	19671	60920.709924947583	2
1536	19678	60920.929830842093	1
1536	20663	64120.1	1
1536	20666	64120.3	1
1536	20670	64120.509001767784	1
1536	20675	64120.817285901989	2
1536	21726	67320.2	2
1536	21730	67320.407151522892	1
1536	21735	67320.716437373861	2
1536	21739	67320.925529120749	1
1536	22743	70520.1	1
1536	22747	70520.4	2
1536	22753	70520.711346729219	2
1536	22758	70520.916580351271	1
1536	23755	73720.2	2
1536	23759	73720.408906804095	1
1536	23765	73720.62247227212	1
1536	23770	73720.825930393065	1
1536	24802	76920.2	2
1536	24806	76920.5	2
1536	24810	76920.709100763699	1
1536	24815	76920.921667948505	1
1536	25876	80120.1	1
1536	25879	80120.3	1
1536	25883	80120.509702214386	1
1536	25888	80120.715350834346	1
1536	26915	83320	0
1536	26918	83320.2	1
1536	26922	83320.404938308869	1
1536	26927	83320.616399544325	1
1536	27914	86520.1	1
1536	27918	86520.4	2
1536	27923	86520.706177917937	2
1536	27930	86521.01230184483	2
1536	28948	89720.1	1
1536	28952	89720.4	2
1536	28961	89720.634577059091	1
1536	28966	89720.83933977976	1
1536	29953	92920.1	1
1536	29957	92920.4	2
1536	29961	92920.605230765747	1
1536	29967	92920.912538436947	2
1536	30994	96120.1	1
1536	30998	96120.302033228094	1
1536	31004	96120.610696602053	2
1536	31009	96120.817699338808	1
1536	32080	99320.2	2
1536	32084	99320.406447102418	1
1536	32092	99320.732208926573	2
1536	32096	99320.935846497104	1
1537	32	120	1
1537	35	120.2	0.875
1537	39	120.407671904223	0.875
1537	46	120.630145265475	0.875
1537	1056	3320.1	0.875
1537	1059	3320.3	0.875
1537	1063	3320.508114014121	0.875
1537	1067	3320.712789962556	0.875
1537	2082	6520.2	0.75
1537	2086	6520.5	0.75
1537	2091	6520.804509251303	0.75
1537	2095	6521.00766470966	0.875
1537	3134	9720	1
1537	3137	9720.2	0.875
1537	3143	9720.419273209645	0.875
1537	3147	9720.626473184301	0.875
1537	4142	12920	1
1537	4145	12920.2	0.875
1537	4149	12920.40116773307	0.875
1537	4154	12920.610748059797	0.875
1537	5176	16120.2	0.75
1537	5182	16120.414470418633	0.875
1537	5188	16120.626300686258	0.875
1537	5193	16120.837730127984	0.875
1537	6200	19320.1	0.875
1537	6203	19320.3	0.875
1537	6207	19320.503582186477	0.875
1537	6214	19320.71283712692	0.875
1537	7228	22520.1	0.875
1537	7232	22520.305112123126	0.875
1537	7237	22520.515006143922	0.875
1537	7241	22520.715010237035	0.875
1537	8258	25720.1	0.875
1537	8261	25720.3	0.875
1537	8266	25720.508316149398	0.875
1537	8271	25720.712315190006	0.875
1537	9272	28920.1	0.875
1537	9275	28920.3	0.875
1537	9282	28920.5190054719	0.875
1537	9286	28920.724037252386	0.875
1537	10292	32120.1	0.875
1537	10296	32120.301298480317	0.875
1537	10306	32120.627787136975	0.75
1537	10310	32120.831648094094	0.875
1537	11355	35320.1	0.875
1537	11358	35320.3	0.875
1537	11364	35320.610352090848	0.75
1537	11370	35320.922713827894	0.75
1537	12393	38520.2	0.75
1537	12398	38520.508291371897	0.75
1537	12404	38520.823433801828	0.75
1537	12408	38521.025503685046	0.875
1537	13442	41720.2	0.75
1537	13448	41720.419971182492	0.875
1537	13455	41720.738497214522	0.75
1537	13469	41721.091132726032	0.75
1537	14489	44920.1	0.875
1537	14492	44920.3	0.875
1537	14496	44920.506457256949	0.875
1537	14500	44920.710164894272	0.875
1537	15528	48120.1	0.875
1537	15532	48120.4	0.75
1537	15537	48120.600970603283	0.875
1537	15542	48120.81187885488	0.875
1537	16552	51320.2	0.75
1537	16555	51320.4	0.875
1537	16559	51320.60631748306	0.875
1537	16563	51320.814588407987	0.875
1537	17588	54520.2	0.75
1537	17591	54520.4	0.875
1537	17595	54520.603134051559	0.875
1537	17599	54520.803273635935	0.875
1537	18611	57720.2	0.75
1537	18614	57720.4	0.875
1537	18618	57720.601292300487	0.875
1537	18622	57720.805349321625	0.875
1537	19661	60920.1	0.875
1537	19666	60920.405748979984	0.75
1537	19671	60920.709924947583	0.75
1537	19678	60920.929830842093	0.875
1537	20663	64120.1	0.875
1537	20666	64120.3	0.875
1537	20670	64120.509001767784	0.875
1537	20675	64120.817285901989	0.75
1537	21726	67320.2	0.75
1537	21730	67320.407151522892	0.875
1537	21735	67320.716437373861	0.75
1537	21739	67320.925529120749	0.875
1537	22743	70520.1	0.875
1537	22747	70520.4	0.75
1537	22753	70520.711346729219	0.75
1537	22758	70520.916580351271	0.875
1537	23755	73720.2	0.75
1537	23759	73720.408906804095	0.875
1537	23765	73720.62247227212	0.875
1537	23770	73720.825930393065	0.875
1537	24802	76920.2	0.75
1537	24806	76920.5	0.75
1537	24810	76920.709100763699	0.875
1537	24815	76920.921667948505	0.875
1537	25876	80120.1	0.875
1537	25879	80120.3	0.875
1537	25883	80120.509702214386	0.875
1537	25888	80120.715350834346	0.875
1537	26915	83320	1
1537	26918	83320.2	0.875
1537	26922	83320.404938308869	0.875
1537	26927	83320.616399544325	0.875
1537	27914	86520.1	0.875
1537	27918	86520.4	0.75
1537	27923	86520.706177917937	0.75
1537	27930	86521.01230184483	0.75
1537	28948	89720.1	0.875
1537	28952	89720.4	0.75
1537	28961	89720.634577059091	0.875
1537	28966	89720.83933977976	0.875
1537	29953	92920.1	0.875
1537	29957	92920.4	0.75
1537	29961	92920.605230765747	0.875
1537	29967	92920.912538436947	0.75
1537	30994	96120.1	0.875
1537	30998	96120.302033228094	0.875
1537	31004	96120.610696602053	0.75
1537	31009	96120.817699338808	0.875
1537	32080	99320.2	0.75
1537	32084	99320.406447102418	0.875
1537	32092	99320.732208926573	0.75
1537	32096	99320.935846497104	0.875
1538	32	120	0
1538	35	120.2	0.2
1538	39	120.407671904223	0.2
1538	46	120.630145265475	0.2
1538	1056	3320.1	0.1
1538	1059	3320.3	0.2
1538	1063	3320.508114014121	0.2
1538	1067	3320.712789962556	0.2
1538	2082	6520.2	0.2
1538	2086	6520.5	0.3
1538	2091	6520.804509251303	0.3
1538	2095	6521.00766470966	0.2
1538	3134	9720	0
1538	3137	9720.2	0.2
1538	3143	9720.419273209645	0.2
1538	3147	9720.626473184301	0.2
1538	4142	12920	0
1538	4145	12920.2	0.2
1538	4149	12920.40116773307	0.2
1538	4154	12920.610748059797	0.2
1538	5176	16120.2	0.2
1538	5182	16120.414470418633	0.2
1538	5188	16120.626300686258	0.2
1538	5193	16120.837730127984	0.2
1538	6200	19320.1	0.1
1538	6203	19320.3	0.2
1538	6207	19320.503582186477	0.2
1538	6214	19320.71283712692	0.2
1538	7228	22520.1	0.1
1538	7232	22520.305112123126	0.2
1538	7237	22520.515006143922	0.2
1538	7241	22520.715010237035	0.2
1538	8258	25720.1	0.1
1538	8261	25720.3	0.2
1538	8266	25720.508316149398	0.2
1538	8271	25720.712315190006	0.2
1538	9272	28920.1	0.1
1538	9275	28920.3	0.2
1538	9282	28920.5190054719	0.2
1538	9286	28920.724037252386	0.2
1538	10292	32120.1	0.1
1538	10296	32120.301298480317	0.2
1538	10306	32120.627787136975	0.3
1538	10310	32120.831648094094	0.2
1538	11355	35320.1	0.1
1538	11358	35320.3	0.2
1538	11364	35320.610352090848	0.3
1538	11370	35320.922713827894	0.3
1538	12393	38520.2	0.2
1538	12398	38520.508291371897	0.3
1538	12404	38520.823433801828	0.3
1538	12408	38521.025503685046	0.2
1538	13442	41720.2	0.2
1538	13448	41720.419971182492	0.2
1538	13455	41720.738497214522	0.3
1538	13469	41721.091132726032	0.3
1538	14489	44920.1	0.1
1538	14492	44920.3	0.2
1538	14496	44920.506457256949	0.2
1538	14500	44920.710164894272	0.2
1538	15528	48120.1	0.1
1538	15532	48120.4	0.3
1538	15537	48120.600970603283	0.2
1538	15542	48120.81187885488	0.2
1538	16552	51320.2	0.2
1538	16555	51320.4	0.2
1538	16559	51320.60631748306	0.2
1538	16563	51320.814588407987	0.2
1538	17588	54520.2	0.2
1538	17591	54520.4	0.2
1538	17595	54520.603134051559	0.2
1538	17599	54520.803273635935	0.2
1538	18611	57720.2	0.2
1538	18614	57720.4	0.2
1538	18618	57720.601292300487	0.2
1538	18622	57720.805349321625	0.2
1538	19661	60920.1	0.1
1538	19666	60920.405748979984	0.3
1538	19671	60920.709924947583	0.3
1538	19678	60920.929830842093	0.2
1538	20663	64120.1	0.1
1538	20666	64120.3	0.2
1538	20670	64120.509001767784	0.2
1538	20675	64120.817285901989	0.3
1538	21726	67320.2	0.2
1538	21730	67320.407151522892	0.2
1538	21735	67320.716437373861	0.3
1538	21739	67320.925529120749	0.2
1538	22743	70520.1	0.1
1538	22747	70520.4	0.3
1538	22753	70520.711346729219	0.3
1538	22758	70520.916580351271	0.2
1538	23755	73720.2	0.2
1538	23759	73720.408906804095	0.2
1538	23765	73720.62247227212	0.2
1538	23770	73720.825930393065	0.2
1538	24802	76920.2	0.2
1538	24806	76920.5	0.3
1538	24810	76920.709100763699	0.2
1538	24815	76920.921667948505	0.2
1538	25876	80120.1	0.1
1538	25879	80120.3	0.2
1538	25883	80120.509702214386	0.2
1538	25888	80120.715350834346	0.2
1538	26915	83320	0
1538	26918	83320.2	0.2
1538	26922	83320.404938308869	0.2
1538	26927	83320.616399544325	0.2
1538	27914	86520.1	0.1
1538	27918	86520.4	0.3
1538	27923	86520.706177917937	0.3
1538	27930	86521.01230184483	0.3
1538	28948	89720.1	0.1
1538	28952	89720.4	0.3
1538	28961	89720.634577059091	0.2
1538	28966	89720.83933977976	0.2
1538	29953	92920.1	0.1
1538	29957	92920.4	0.3
1538	29961	92920.605230765747	0.2
1538	29967	92920.912538436947	0.3
1538	30994	96120.1	0.1
1538	30998	96120.302033228094	0.2
1538	31004	96120.610696602053	0.3
1538	31009	96120.817699338808	0.2
1538	32080	99320.2	0.2
1538	32084	99320.406447102418	0.2
1538	32092	99320.732208926573	0.3
1538	32096	99320.935846497104	0.2
1539	64	220.2	2
1539	67	220.4	1
1539	74	220.705696130018	2
1539	78	220.912546374523	1
1539	1085	3420.2	2
1539	1088	3420.4	1
1539	1093	3420.70197477186	2
1539	1097	3420.90376377727	1
1539	2112	6620.1	1
1539	2116	6620.4	2
1539	2127	6620.629785242294	1
1539	2132	6620.840878786517	1
1539	3164	9820.1	1
1539	3168	9820.4	2
1539	3173	9820.611358143409	1
1539	3181	9820.834286113913	1
1539	4171	13020.1	1
1539	4177	13020.403295810734	2
1539	4181	13020.60372553154	1
1539	4187	13020.817167165938	1
1539	5210	16220.1	1
1539	5216	16220.407804135535	2
1539	5220	16220.617389804673	1
1539	5227	16220.835389471365	1
1539	6232	19420.2	2
1539	6236	19420.40255415752	1
1539	6241	19420.611516307682	1
1539	6245	19420.814902163912	1
1539	7259	22620.2	2
1539	7263	22620.5	2
1539	7267	22620.706924463992	1
1539	7271	22620.906982474817	1
1539	8289	25820.2	2
1539	8292	25820.4	1
1539	8296	25820.602384810228	1
1539	8302	25820.804191361871	1
1539	9303	29020.1	1
1539	9307	29020.309086939138	1
1539	9312	29020.612225887402	2
1539	9316	29020.813501942776	1
1539	10326	32220	0
1539	10330	32220.3	2
1539	10339	32220.530626730738	1
1539	10345	32220.736339113397	1
1539	11388	35420.2	2
1539	11392	35420.5	2
1539	11398	35420.818757310158	2
1539	11402	35421.020285059369	1
1539	12425	38620.1	1
1539	12428	38620.3	1
1539	12432	38620.501756426941	1
1539	12436	38620.703485205983	1
1539	13486	41820.1	1
1539	13490	41820.4	2
1539	13494	41820.607449170378	1
1539	13499	41820.821669950761	1
1539	14517	45020.1	1
1539	14520	45020.3	1
1539	14524	45020.502541909739	1
1539	14528	45020.707235848635	1
1539	15559	48220.1	1
1539	15562	48220.3	1
1539	15567	48220.601284484427	2
1539	15571	48220.806792568177	1
1539	16580	51420.1	1
1539	16583	51420.3	1
1539	16587	51420.500010623082	1
1539	16594	51420.72278559627	1
1539	17616	54620.1	1
1539	17620	54620.4	2
1539	17624	54620.604453695064	1
1539	17630	54620.818781940192	1
1539	18639	57820.1	1
1539	18643	57820.4	2
1539	18648	57820.708779345112	2
1539	18653	57821.011966874696	2
1539	19694	61020	0
1539	19699	61020.208314883791	1
1539	19704	61020.426212816739	1
1539	19709	61020.633348625541	1
1539	20692	64220.1	1
1539	20697	64220.404569763268	2
1539	20702	64220.71167087481	2
1539	20709	64220.936045896899	1
1539	21756	67420.1	1
1539	21760	67420.4	2
1539	21766	67420.715240850664	2
1539	21770	67420.918181191651	1
1539	22775	70620.1	1
1539	22779	70620.301741742969	1
1539	22784	70620.512575511564	1
1539	22796	70620.738243652384	1
1539	23788	73820.2	2
1539	23791	73820.4	1
1539	23797	73820.710014433343	2
1539	23802	73820.918966051376	1
1539	24832	77020.1	1
1539	24835	77020.3	1
1539	24839	77020.507481551221	1
1539	24844	77020.807650030478	2
1539	25906	80220.2	2
1539	25910	80220.5	2
1539	25914	80220.708739778362	1
1539	25923	80220.946356214609	1
1539	26945	83420.2	2
1539	26949	83420.5	2
1539	26953	83420.704038357278	1
1539	26957	83420.907886618279	1
1539	27947	86620.1	1
1539	27951	86620.4	2
1539	27956	86620.615923836717	1
1539	27960	86620.817549382456	1
1539	28983	89820.1	1
1539	28987	89820.4	2
1539	28991	89820.606328557257	1
1539	28995	89820.806540047782	1
1539	29985	93020.2	2
1539	29991	93020.506724364184	2
1539	29995	93020.708755246111	1
1539	30002	93020.923595701221	1
1539	31026	96220.1	1
1539	31029	96220.3	1
1539	31038	96220.54045693336	1
1539	31048	96220.863477213326	2
1539	32114	99420.2	2
1539	32119	99420.409747046587	1
1539	32124	99420.622675280725	1
1539	32129	99420.923468166583	2
1540	64	220.2	0.75
1540	67	220.4	0.875
1540	74	220.705696130018	0.75
1540	78	220.912546374523	0.875
1540	1085	3420.2	0.75
1540	1088	3420.4	0.875
1540	1093	3420.70197477186	0.75
1540	1097	3420.90376377727	0.875
1540	2112	6620.1	0.875
1540	2116	6620.4	0.75
1540	2127	6620.629785242294	0.875
1540	2132	6620.840878786517	0.875
1540	3164	9820.1	0.875
1540	3168	9820.4	0.75
1540	3173	9820.611358143409	0.875
1540	3181	9820.834286113913	0.875
1540	4171	13020.1	0.875
1540	4177	13020.403295810734	0.75
1540	4181	13020.60372553154	0.875
1540	4187	13020.817167165938	0.875
1540	5210	16220.1	0.875
1540	5216	16220.407804135535	0.75
1540	5220	16220.617389804673	0.875
1540	5227	16220.835389471365	0.875
1540	6232	19420.2	0.75
1540	6236	19420.40255415752	0.875
1540	6241	19420.611516307682	0.875
1540	6245	19420.814902163912	0.875
1540	7259	22620.2	0.75
1540	7263	22620.5	0.75
1540	7267	22620.706924463992	0.875
1540	7271	22620.906982474817	0.875
1540	8289	25820.2	0.75
1540	8292	25820.4	0.875
1540	8296	25820.602384810228	0.875
1540	8302	25820.804191361871	0.875
1540	9303	29020.1	0.875
1540	9307	29020.309086939138	0.875
1540	9312	29020.612225887402	0.75
1540	9316	29020.813501942776	0.875
1540	10326	32220	1
1540	10330	32220.3	0.75
1540	10339	32220.530626730738	0.875
1540	10345	32220.736339113397	0.875
1540	11388	35420.2	0.75
1540	11392	35420.5	0.75
1540	11398	35420.818757310158	0.75
1540	11402	35421.020285059369	0.875
1540	12425	38620.1	0.875
1540	12428	38620.3	0.875
1540	12432	38620.501756426941	0.875
1540	12436	38620.703485205983	0.875
1540	13486	41820.1	0.875
1540	13490	41820.4	0.75
1540	13494	41820.607449170378	0.875
1540	13499	41820.821669950761	0.875
1540	14517	45020.1	0.875
1540	14520	45020.3	0.875
1540	14524	45020.502541909739	0.875
1540	14528	45020.707235848635	0.875
1540	15559	48220.1	0.875
1540	15562	48220.3	0.875
1540	15567	48220.601284484427	0.75
1540	15571	48220.806792568177	0.875
1540	16580	51420.1	0.875
1540	16583	51420.3	0.875
1540	16587	51420.500010623082	0.875
1540	16594	51420.72278559627	0.875
1540	17616	54620.1	0.875
1540	17620	54620.4	0.75
1540	17624	54620.604453695064	0.875
1540	17630	54620.818781940192	0.875
1540	18639	57820.1	0.875
1540	18643	57820.4	0.75
1540	18648	57820.708779345112	0.75
1540	18653	57821.011966874696	0.75
1540	19694	61020	1
1540	19699	61020.208314883791	0.875
1540	19704	61020.426212816739	0.875
1540	19709	61020.633348625541	0.875
1540	20692	64220.1	0.875
1540	20697	64220.404569763268	0.75
1540	20702	64220.71167087481	0.75
1540	20709	64220.936045896899	0.875
1540	21756	67420.1	0.875
1540	21760	67420.4	0.75
1540	21766	67420.715240850664	0.75
1540	21770	67420.918181191651	0.875
1540	22775	70620.1	0.875
1540	22779	70620.301741742969	0.875
1540	22784	70620.512575511564	0.875
1540	22796	70620.738243652384	0.875
1540	23788	73820.2	0.75
1540	23791	73820.4	0.875
1540	23797	73820.710014433343	0.75
1540	23802	73820.918966051376	0.875
1540	24832	77020.1	0.875
1540	24835	77020.3	0.875
1540	24839	77020.507481551221	0.875
1540	24844	77020.807650030478	0.75
1540	25906	80220.2	0.75
1540	25910	80220.5	0.75
1540	25914	80220.708739778362	0.875
1540	25923	80220.946356214609	0.875
1540	26945	83420.2	0.75
1540	26949	83420.5	0.75
1540	26953	83420.704038357278	0.875
1540	26957	83420.907886618279	0.875
1540	27947	86620.1	0.875
1540	27951	86620.4	0.75
1540	27956	86620.615923836717	0.875
1540	27960	86620.817549382456	0.875
1540	28983	89820.1	0.875
1540	28987	89820.4	0.75
1540	28991	89820.606328557257	0.875
1540	28995	89820.806540047782	0.875
1540	29985	93020.2	0.75
1540	29991	93020.506724364184	0.75
1540	29995	93020.708755246111	0.875
1540	30002	93020.923595701221	0.875
1540	31026	96220.1	0.875
1540	31029	96220.3	0.875
1540	31038	96220.54045693336	0.875
1540	31048	96220.863477213326	0.75
1540	32114	99420.2	0.75
1540	32119	99420.409747046587	0.875
1540	32124	99420.622675280725	0.875
1540	32129	99420.923468166583	0.75
1541	64	220.2	0.2
1541	67	220.4	0.2
1541	74	220.705696130018	0.3
1541	78	220.912546374523	0.2
1541	1085	3420.2	0.2
1541	1088	3420.4	0.2
1541	1093	3420.70197477186	0.3
1541	1097	3420.90376377727	0.2
1541	2112	6620.1	0.1
1541	2116	6620.4	0.3
1541	2127	6620.629785242294	0.2
1541	2132	6620.840878786517	0.2
1541	3164	9820.1	0.1
1541	3168	9820.4	0.3
1541	3173	9820.611358143409	0.2
1541	3181	9820.834286113913	0.2
1541	4171	13020.1	0.1
1541	4177	13020.403295810734	0.3
1541	4181	13020.60372553154	0.2
1541	4187	13020.817167165938	0.2
1541	5210	16220.1	0.1
1541	5216	16220.407804135535	0.3
1541	5220	16220.617389804673	0.2
1541	5227	16220.835389471365	0.2
1541	6232	19420.2	0.2
1541	6236	19420.40255415752	0.2
1541	6241	19420.611516307682	0.2
1541	6245	19420.814902163912	0.2
1541	7259	22620.2	0.2
1541	7263	22620.5	0.3
1541	7267	22620.706924463992	0.2
1541	7271	22620.906982474817	0.2
1541	8289	25820.2	0.2
1541	8292	25820.4	0.2
1541	8296	25820.602384810228	0.2
1541	8302	25820.804191361871	0.2
1541	9303	29020.1	0.1
1541	9307	29020.309086939138	0.2
1541	9312	29020.612225887402	0.3
1541	9316	29020.813501942776	0.2
1541	10326	32220	0
1541	10330	32220.3	0.3
1541	10339	32220.530626730738	0.2
1541	10345	32220.736339113397	0.2
1541	11388	35420.2	0.2
1541	11392	35420.5	0.3
1541	11398	35420.818757310158	0.3
1541	11402	35421.020285059369	0.2
1541	12425	38620.1	0.1
1541	12428	38620.3	0.2
1541	12432	38620.501756426941	0.2
1541	12436	38620.703485205983	0.2
1541	13486	41820.1	0.1
1541	13490	41820.4	0.3
1541	13494	41820.607449170378	0.2
1541	13499	41820.821669950761	0.2
1541	14517	45020.1	0.1
1541	14520	45020.3	0.2
1541	14524	45020.502541909739	0.2
1541	14528	45020.707235848635	0.2
1541	15559	48220.1	0.1
1541	15562	48220.3	0.2
1541	15567	48220.601284484427	0.3
1541	15571	48220.806792568177	0.2
1541	16580	51420.1	0.1
1541	16583	51420.3	0.2
1541	16587	51420.500010623082	0.2
1541	16594	51420.72278559627	0.2
1541	17616	54620.1	0.1
1541	17620	54620.4	0.3
1541	17624	54620.604453695064	0.2
1541	17630	54620.818781940192	0.2
1541	18639	57820.1	0.1
1541	18643	57820.4	0.3
1541	18648	57820.708779345112	0.3
1541	18653	57821.011966874696	0.3
1541	19694	61020	0
1541	19699	61020.208314883791	0.2
1541	19704	61020.426212816739	0.2
1541	19709	61020.633348625541	0.2
1541	20692	64220.1	0.1
1541	20697	64220.404569763268	0.3
1541	20702	64220.71167087481	0.3
1541	20709	64220.936045896899	0.2
1541	21756	67420.1	0.1
1541	21760	67420.4	0.3
1541	21766	67420.715240850664	0.3
1541	21770	67420.918181191651	0.2
1541	22775	70620.1	0.1
1541	22779	70620.301741742969	0.2
1541	22784	70620.512575511564	0.2
1541	22796	70620.738243652384	0.2
1541	23788	73820.2	0.2
1541	23791	73820.4	0.2
1541	23797	73820.710014433343	0.3
1541	23802	73820.918966051376	0.2
1541	24832	77020.1	0.1
1541	24835	77020.3	0.2
1541	24839	77020.507481551221	0.2
1541	24844	77020.807650030478	0.3
1541	25906	80220.2	0.2
1541	25910	80220.5	0.3
1541	25914	80220.708739778362	0.2
1541	25923	80220.946356214609	0.2
1541	26945	83420.2	0.2
1541	26949	83420.5	0.3
1541	26953	83420.704038357278	0.2
1541	26957	83420.907886618279	0.2
1541	27947	86620.1	0.1
1541	27951	86620.4	0.3
1541	27956	86620.615923836717	0.2
1541	27960	86620.817549382456	0.2
1541	28983	89820.1	0.1
1541	28987	89820.4	0.3
1541	28991	89820.606328557257	0.2
1541	28995	89820.806540047782	0.2
1541	29985	93020.2	0.2
1541	29991	93020.506724364184	0.3
1541	29995	93020.708755246111	0.2
1541	30002	93020.923595701221	0.2
1541	31026	96220.1	0.1
1541	31029	96220.3	0.2
1541	31038	96220.54045693336	0.2
1541	31048	96220.863477213326	0.3
1541	32114	99420.2	0.2
1541	32119	99420.409747046587	0.2
1541	32124	99420.622675280725	0.2
1541	32129	99420.923468166583	0.3
1542	95	320.1	1
1542	99	320.4	2
1542	103	320.608280347194	1
1542	109	320.919101224079	2
1542	1114	3520.1	1
1542	1117	3520.3	1
1542	1121	3520.503446042207	1
1542	1125	3520.709426351182	1
1542	2149	6720.1	1
1542	2153	6720.4	2
1542	2161	6720.725320188603	2
1542	2166	6720.939079832573	1
1542	3198	9920.1	1
1542	3201	9920.3	1
1542	3205	9920.507408156343	1
1542	3210	9920.813304822933	2
1542	4204	13120.1	1
1542	4208	13120.303800949642	1
1542	4212	13120.50792016866	1
1542	4217	13120.808287491678	2
1542	5244	16320.1	1
1542	5248	16320.308736895606	1
1542	5256	16320.642600852462	2
1542	5265	16320.880622281354	1
1542	6262	19520.1	1
1542	6266	19520.4	2
1542	6271	19520.708240616626	2
1542	6280	19520.937254951052	1
1542	7289	22720.2	2
1542	7294	22720.412016534516	1
1542	7300	22720.622694602276	1
1542	7305	22720.925614521457	2
1542	8320	25920.2	2
1542	8324	25920.5	2
1542	8330	25920.719903222601	1
1542	8335	25920.932393400371	1
1542	9334	29120.2	2
1542	9338	29120.5	2
1542	9342	29120.701136642144	1
1542	9347	29120.914020089864	1
1542	10363	32320.2	2
1542	10367	32320.402362675974	1
1542	10372	32320.608033253949	1
1542	10376	32320.814611205135	1
1542	11419	35520.1	1
1542	11422	35520.3	1
1542	11431	35520.533302022041	1
1542	11437	35520.751947957464	1
1542	12452	38720	0
1542	12456	38720.3	2
1542	12460	38720.505628334095	1
1542	12465	38720.709861214814	1
1542	13516	41920.1	1
1542	13520	41920.4	2
1542	13525	41920.70425243973	2
1542	13529	41920.909881011009	1
1542	14545	45120.1	1
1542	14549	45120.4	2
1542	14555	45120.621122720382	1
1542	14571	45120.988504918438	2
1542	15588	48320.1	1
1542	15592	48320.4	2
1542	15597	48320.610332087301	1
1542	15601	48320.813147873288	1
1542	16610	51520	0
1542	16613	51520.2	1