version 2
run Stability-67-20130524-20:23:05-3483
attr configname Stability
attr datetime 20130524-20:23:05
attr experiment Stability
attr inifile omnetpp.ini
attr iterationvars $0=1e0
attr iterationvars2 "$0=1e0, $repetition=7"
attr measurement $0=1e0
attr network Network
attr processid 3483
attr repetition 7
attr replication #7
attr resultdir results
attr runnumber 67
attr seedset 67

vector 6456  Network.dyn_peer[8]  lookupHopsSig:vector  ETV
vector 6457  Network.dyn_peer[8]  lookupStabilitySig:vector  ETV
vector 6458  Network.dyn_peer[8]  lookupTimeSig:vector  ETV
vector 6483  Network.dyn_peer[17]  lookupHopsSig:vector  ETV
vector 6484  Network.dyn_peer[17]  lookupStabilitySig:vector  ETV
vector 6485  Network.dyn_peer[17]  lookupTimeSig:vector  ETV
vector 6438  Network.dyn_peer[2]  lookupHopsSig:vector  ETV
vector 6439  Network.dyn_peer[2]  lookupStabilitySig:vector  ETV
vector 6440  Network.dyn_peer[2]  lookupTimeSig:vector  ETV
vector 6444  Network.dyn_peer[4]  lookupHopsSig:vector  ETV
vector 6445  Network.dyn_peer[4]  lookupStabilitySig:vector  ETV
vector 6446  Network.dyn_peer[4]  lookupTimeSig:vector  ETV
vector 6459  Network.dyn_peer[9]  lookupHopsSig:vector  ETV
vector 6460  Network.dyn_peer[9]  lookupStabilitySig:vector  ETV
vector 6461  Network.dyn_peer[9]  lookupTimeSig:vector  ETV
vector 6477  Network.dyn_peer[15]  lookupHopsSig:vector  ETV
vector 6478  Network.dyn_peer[15]  lookupStabilitySig:vector  ETV
vector 6479  Network.dyn_peer[15]  lookupTimeSig:vector  ETV
vector 6489  Network.dyn_peer[19]  lookupHopsSig:vector  ETV
vector 6490  Network.dyn_peer[19]  lookupStabilitySig:vector  ETV
vector 6491  Network.dyn_peer[19]  lookupTimeSig:vector  ETV
vector 6495  Network.dyn_peer[21]  lookupHopsSig:vector  ETV
vector 6496  Network.dyn_peer[21]  lookupStabilitySig:vector  ETV
vector 6497  Network.dyn_peer[21]  lookupTimeSig:vector  ETV
vector 6501  Network.dyn_peer[23]  lookupHopsSig:vector  ETV
vector 6502  Network.dyn_peer[23]  lookupStabilitySig:vector  ETV
vector 6503  Network.dyn_peer[23]  lookupTimeSig:vector  ETV
vector 6507  Network.dyn_peer[25]  lookupHopsSig:vector  ETV
vector 6508  Network.dyn_peer[25]  lookupStabilitySig:vector  ETV
vector 6509  Network.dyn_peer[25]  lookupTimeSig:vector  ETV
vector 6513  Network.dyn_peer[27]  lookupHopsSig:vector  ETV
vector 6514  Network.dyn_peer[27]  lookupStabilitySig:vector  ETV
vector 6515  Network.dyn_peer[27]  lookupTimeSig:vector  ETV
vector 6516  Network.dyn_peer[28]  lookupHopsSig:vector  ETV
vector 6517  Network.dyn_peer[28]  lookupStabilitySig:vector  ETV
vector 6518  Network.dyn_peer[28]  lookupTimeSig:vector  ETV
vector 6435  Network.dyn_peer[1]  lookupHopsSig:vector  ETV
vector 6436  Network.dyn_peer[1]  lookupStabilitySig:vector  ETV
vector 6437  Network.dyn_peer[1]  lookupTimeSig:vector  ETV
vector 6441  Network.dyn_peer[3]  lookupHopsSig:vector  ETV
vector 6442  Network.dyn_peer[3]  lookupStabilitySig:vector  ETV
vector 6443  Network.dyn_peer[3]  lookupTimeSig:vector  ETV
vector 6447  Network.dyn_peer[5]  lookupHopsSig:vector  ETV
vector 6448  Network.dyn_peer[5]  lookupStabilitySig:vector  ETV
vector 6449  Network.dyn_peer[5]  lookupTimeSig:vector  ETV
vector 6462  Network.dyn_peer[10]  lookupHopsSig:vector  ETV
vector 6463  Network.dyn_peer[10]  lookupStabilitySig:vector  ETV
vector 6464  Network.dyn_peer[10]  lookupTimeSig:vector  ETV
vector 6468  Network.dyn_peer[12]  lookupHopsSig:vector  ETV
vector 6469  Network.dyn_peer[12]  lookupStabilitySig:vector  ETV
vector 6470  Network.dyn_peer[12]  lookupTimeSig:vector  ETV
vector 6471  Network.dyn_peer[13]  lookupHopsSig:vector  ETV
vector 6472  Network.dyn_peer[13]  lookupStabilitySig:vector  ETV
vector 6473  Network.dyn_peer[13]  lookupTimeSig:vector  ETV
vector 6498  Network.dyn_peer[22]  lookupHopsSig:vector  ETV
vector 6499  Network.dyn_peer[22]  lookupStabilitySig:vector  ETV
vector 6500  Network.dyn_peer[22]  lookupTimeSig:vector  ETV
vector 6519  Network.dyn_peer[29]  lookupHopsSig:vector  ETV
vector 6520  Network.dyn_peer[29]  lookupStabilitySig:vector  ETV
vector 6521  Network.dyn_peer[29]  lookupTimeSig:vector  ETV
vector 6450  Network.dyn_peer[6]  lookupHopsSig:vector  ETV
vector 6451  Network.dyn_peer[6]  lookupStabilitySig:vector  ETV
vector 6452  Network.dyn_peer[6]  lookupTimeSig:vector  ETV
vector 6453  Network.dyn_peer[7]  lookupHopsSig:vector  ETV
vector 6454  Network.dyn_peer[7]  lookupStabilitySig:vector  ETV
vector 6455  Network.dyn_peer[7]  lookupTimeSig:vector  ETV
vector 6465  Network.dyn_peer[11]  lookupHopsSig:vector  ETV
vector 6466  Network.dyn_peer[11]  lookupStabilitySig:vector  ETV
vector 6467  Network.dyn_peer[11]  lookupTimeSig:vector  ETV
vector 6474  Network.dyn_peer[14]  lookupHopsSig:vector  ETV
vector 6475  Network.dyn_peer[14]  lookupStabilitySig:vector  ETV
vector 6476  Network.dyn_peer[14]  lookupTimeSig:vector  ETV
vector 6480  Network.dyn_peer[16]  lookupHopsSig:vector  ETV
vector 6481  Network.dyn_peer[16]  lookupStabilitySig:vector  ETV
vector 6482  Network.dyn_peer[16]  lookupTimeSig:vector  ETV
vector 6492  Network.dyn_peer[20]  lookupHopsSig:vector  ETV
vector 6493  Network.dyn_peer[20]  lookupStabilitySig:vector  ETV
vector 6494  Network.dyn_peer[20]  lookupTimeSig:vector  ETV
vector 6510  Network.dyn_peer[26]  lookupHopsSig:vector  ETV
vector 6511  Network.dyn_peer[26]  lookupStabilitySig:vector  ETV
vector 6512  Network.dyn_peer[26]  lookupTimeSig:vector  ETV
vector 6432  Network.dyn_peer[0]  lookupHopsSig:vector  ETV
vector 6433  Network.dyn_peer[0]  lookupStabilitySig:vector  ETV
vector 6434  Network.dyn_peer[0]  lookupTimeSig:vector  ETV
vector 6504  Network.dyn_peer[24]  lookupHopsSig:vector  ETV
vector 6505  Network.dyn_peer[24]  lookupStabilitySig:vector  ETV
vector 6506  Network.dyn_peer[24]  lookupTimeSig:vector  ETV
vector 6522  Network.dyn_peer[30]  lookupHopsSig:vector  ETV
vector 6523  Network.dyn_peer[30]  lookupStabilitySig:vector  ETV
vector 6524  Network.dyn_peer[30]  lookupTimeSig:vector  ETV
vector 6486  Network.dyn_peer[18]  lookupHopsSig:vector  ETV
vector 6487  Network.dyn_peer[18]  lookupStabilitySig:vector  ETV
vector 6488  Network.dyn_peer[18]  lookupTimeSig:vector  ETV
vector 6525  Network.dyn_peer[31]  lookupHopsSig:vector  ETV
vector 6526  Network.dyn_peer[31]  lookupStabilitySig:vector  ETV
vector 6527  Network.dyn_peer[31]  lookupTimeSig:vector  ETV
6432	339	20.401	4
6432	494	20.701	2
6432	693	21.113815977427	3
6432	833	21.432766338893	2
6432	1607	120.35	3
6432	1814	120.65	2
6432	2214	121.350514057915	4
6432	2308	121.552652435459	1
6432	3571	220.564	5
6432	4031	221.364	7
6432	5318	321.009	9
6432	5590	321.509	4
6432	5830	322.318248788265	7
6432	5885	322.727097520735	3
6432	5917	323.027122534927	2
6432	5982	323.831366924933	7
6432	5993	324.140836176442	2
6432	6009	324.648988171867	4
6432	6019	325.055791681734	3
6432	6854	420.655	5
6432	7013	420.955	2
6432	7135	421.160023454362	1
6432	7295	421.560048182066	3
6432	8150	520.469	3
6432	8485	520.969	4
6432	9626	620.291	1
6432	9794	620.491	1
6432	10175	621.09653270648	5
6432	11314	720.421	2
6432	11664	720.921	4
6432	11888	721.33011998504	3
6432	12007	721.632530016555	2
6432	12066	721.833017228264	1
6432	12709	820.367	1
6432	12873	820.567	1
6432	13198	821.170938721376	5
6432	14503	920.581	3
6432	14832	921.088143884499	4
6432	15130	921.688572717496	5
6432	16053	1020.52	2
6432	16417	1021.126306868449	5
6432	17427	1120.542	2
6432	17773	1121.142	5
6432	17874	1121.343940109957	1
6432	18980	1220.479	1
6432	19210	1220.779	2
6432	20422	1320.704	3
6432	20669	1321.104	3
6432	20959	1321.710339912377	5
6432	21104	1322.11668735795	3
6432	21247	1322.619164708841	4
6432	21387	1323.326635394121	6
6432	21452	1323.730625567512	3
6432	21476	1323.932388391726	1
6432	21499	1324.235674733164	2
6432	21520	1324.437957125146	1
6432	21532	1324.639756499543	1
6432	22121	1420.563	1
6432	22325	1420.863	2
6432	22837	1421.968331236114	10
6432	23839	1520.881	4
6432	24271	1521.781	8
6432	24433	1522.181611116066	3
6432	24493	1522.385285143566	1
6432	24570	1522.695289482525	2
6432	24659	1523.198644348533	4
6432	25383	1620.62	1
6432	25974	1621.72	10
6432	26805	1720.634	1
6432	26942	1720.834	1
6432	27217	1721.255905788067	3
6432	28294	1820.761	2
6432	28555	1821.161	3
6432	28696	1821.468556858775	2
6432	28781	1821.669639511274	1
6432	29829	1920.696	1
6432	30277	1921.496	7
6432	30519	1922.09904986193	5
6432	30566	1922.305841612998	1
6432	30627	1922.710274154688	3
6432	31370	2020.849	2
6432	31701	2021.449	5
6432	32068	2022.358444583087	8
6432	32963	2120.971	3
6432	33307	2121.671	6
6432	33478	2122.08088721702	3
6432	34134	2220.697	0
6432	34487	2221.211414211068	4
6432	34694	2221.613588834494	3
6432	35725	2320.717	0
6432	35977	2321.026929814421	2
6432	36114	2321.235015384775	1
6432	36209	2321.438402381542	1
6432	37678	2421.047	3
6432	38044	2421.747	6
6432	38203	2422.055263254305	2
6432	38938	2520.785	0
6432	39222	2521.185	3
6432	39362	2521.487970454685	2
6432	39537	2521.812627023348	2
6432	40647	2621.01	2
6432	40900	2621.41	3
6432	41046	2621.710609837619	2
6432	41154	2621.918333437181	1
6432	42045	2720.942	1
6432	42448	2721.642	6
6432	43762	2821.17	3
6432	44005	2821.57	3
6432	44229	2822.072845551953	4
6432	45257	2921.208	3
6432	45621	2921.908	6
6432	45834	2922.413773452116	4
6432	45914	2922.714761668527	2
6432	46005	2923.224047929818	4
6432	46653	3021.056	1
6432	47033	3021.756	6
6432	47121	3021.9579384312	1
6432	48270	3121.267	3
6432	48843	3122.567	12
6432	48926	3122.969478896842	3
6433	339	20.401	0.5
6433	494	20.701	0.75
6433	693	21.113815977427	0.79999999701977
6433	833	21.432766338893	0.92307692021132
6433	1607	120.35	0.625
6433	1814	120.65	0.75
6433	2214	121.350514057915	0.75
6433	2308	121.552652435459	0.94999999925494
6433	3571	220.564	0.44444441795349
6433	4031	221.364	0.69565218687057
6433	5318	321.009	0
6433	5590	321.509	0.75
6433	5830	322.318248788265	0.77419355511665
6433	5885	322.727097520735	0.90909090638161
6433	5917	323.027122534927	0.9411764703691
6433	5982	323.831366924933	0.81578947603703
6433	5993	324.140836176442	0.9473684206605
6433	6009	324.648988171867	0.89473684132099
6433	6019	325.055791681734	0.92105263471603
6433	6854	420.655	0.375
6433	7013	420.955	0.75
6433	7135	421.160023454362	0.92307692021132
6433	7295	421.560048182066	0.84999999403954
6433	8150	520.469	0.625
6433	8485	520.969	0.66666665673256
6433	9626	620.291	0.875
6433	9794	620.491	0.875
6433	10175	621.09653270648	0.54545453190804
6433	11314	720.421	0.75
6433	11664	720.921	0.55555555224419
6433	11888	721.33011998504	0.8125
6433	12007	721.632530016555	0.90909090638161
6433	12066	721.833017228264	0.96153846010566
6433	12709	820.367	0.875
6433	12873	820.567	0.875
6433	13198	821.170938721376	0.44444441795349
6433	14503	920.581	0.625
6433	14832	921.088143884499	0.55555555224419
6433	15130	921.688572717496	0.70588234066963
6433	16053	1020.52	0.75
6433	16417	1021.126306868449	0.375
6433	17427	1120.542	0.75
6433	17773	1121.142	0.44444441795349
6433	17874	1121.343940109957	0.92307692021132
6433	18980	1220.479	0.875
6433	19210	1220.779	0.75
6433	20422	1320.704	0.625
6433	20669	1321.104	0.66666665673256
6433	20959	1321.710339912377	0.70588234066963
6433	21104	1322.11668735795	0.85714285075665
6433	21247	1322.619164708841	0.84000000357628
6433	21387	1323.326635394121	0.79999999701977
6433	21452	1323.730625567512	0.9142857119441
6433	21476	1323.932388391726	0.97142857126892
6433	21499	1324.235674733164	0.94444444403052
6433	21520	1324.437957125146	0.97222222201526
6433	21532	1324.639756499543	0.97222222201526
6433	22121	1420.563	0.875
6433	22325	1420.863	0.75
6433	22837	1421.968331236114	0.52380952239037
6433	23839	1520.881	0.5
6433	24271	1521.781	0.42857140302658
6433	24433	1522.181611116066	0.86363635957241
6433	24493	1522.385285143566	0.96000000089407
6433	24570	1522.695289482525	0.93103448301554
6433	24659	1523.198644348533	0.87096774578094
6433	25383	1620.62	0.875
6433	25974	1621.72	0.28571426868439
6433	26805	1720.634	0.875
6433	26942	1720.834	0.875
6433	27217	1721.255905788067	0.69999998807907
6433	28294	1820.761	0.75
6433	28555	1821.161	0.66666665673256
6433	28696	1821.468556858775	0.83333332836628
6433	28781	1821.669639511274	0.92857142537832
6433	29829	1920.696	0.875
6433	30277	1921.496	0.30000001192093
6433	30519	1922.09904986193	0.80769230425358
6433	30566	1922.305841612998	0.96551724150777
6433	30627	1922.710274154688	0.91666666418314
6433	31370	2020.849	0.75
6433	31701	2021.449	0.44444441795349
6433	32068	2022.358444583087	0.70370370149612
6433	32963	2120.971	0.625
6433	33307	2121.671	0.5714285671711
6433	33478	2122.08088721702	0.86363635957241
6433	34134	2220.697	1
6433	34487	2221.211414211068	0.5
6433	34694	2221.613588834494	0.72727271914482
6433	35725	2320.717	1
6433	35977	2321.026929814421	0.75
6433	36114	2321.235015384775	0.875
6433	36209	2321.438402381542	0.89999999850988
6433	37678	2421.047	0.625
6433	38044	2421.747	0.45454543828964
6433	38203	2422.055263254305	0.8823529407382
6433	38938	2520.785	1
6433	39222	2521.185	0.625
6433	39362	2521.487970454685	0.75
6433	39537	2521.812627023348	0.81818181276321
6433	40647	2621.01	0.75
6433	40900	2621.41	0.625
6433	41046	2621.710609837619	0.77777777612209
6433	41154	2621.918333437181	0.91666666418314
6433	42045	2720.942	0.875
6433	42448	2721.642	0.33333331346512
6433	43762	2821.17	0.625
6433	44005	2821.57	0.66666665673256
6433	44229	2822.072845551953	0.75
6433	45257	2921.208	0.625
6433	45621	2921.908	0.39999997615814
6433	45834	2922.413773452116	0.81818181276321
6433	45914	2922.714761668527	0.92857142537832
6433	46005	2923.224047929818	0.87878787517548
6433	46653	3021.056	0.875
6433	47033	3021.756	0.39999997615814
6433	47121	3021.9579384312	0.92307692021132
6433	48270	3121.267	0.625
6433	48843	3122.567	0.52000001072884
6433	48926	3122.969478896842	0.89999999850988
6434	339	20.401	0.4
6434	494	20.701	0.3
6434	693	21.113815977427	0.4
6434	833	21.432766338893	0.3
6434	1607	120.35	0.3
6434	1814	120.65	0.3
6434	2214	121.350514057915	0.5
6434	2308	121.552652435459	0.2
6434	3571	220.564	0.5
6434	4031	221.364	0.8
6434	5318	321.009	0.9
6434	5590	321.509	0.5
6434	5830	322.318248788265	0.8
6434	5885	322.727097520735	0.4
6434	5917	323.027122534927	0.3
6434	5982	323.831366924933	0.8
6434	5993	324.140836176442	0.3
6434	6009	324.648988171867	0.5
6434	6019	325.055791681734	0.4
6434	6854	420.655	0.5
6434	7013	420.955	0.3
6434	7135	421.160023454362	0.2
6434	7295	421.560048182066	0.4
6434	8150	520.469	0.3
6434	8485	520.969	0.5
6434	9626	620.291	0.1
6434	9794	620.491	0.2
6434	10175	621.09653270648	0.6
6434	11314	720.421	0.2
6434	11664	720.921	0.5
6434	11888	721.33011998504	0.4
6434	12007	721.632530016555	0.3
6434	12066	721.833017228264	0.2
6434	12709	820.367	0.1
6434	12873	820.567	0.2
6434	13198	821.170938721376	0.6
6434	14503	920.581	0.3
6434	14832	921.088143884499	0.5
6434	15130	921.688572717496	0.6
6434	16053	1020.52	0.2
6434	16417	1021.126306868449	0.6
6434	17427	1120.542	0.2
6434	17773	1121.142	0.6
6434	17874	1121.343940109957	0.2
6434	18980	1220.479	0.1
6434	19210	1220.779	0.3
6434	20422	1320.704	0.3
6434	20669	1321.104	0.4
6434	20959	1321.710339912377	0.6
6434	21104	1322.11668735795	0.4
6434	21247	1322.619164708841	0.5
6434	21387	1323.326635394121	0.7
6434	21452	1323.730625567512	0.4
6434	21476	1323.932388391726	0.2
6434	21499	1324.235674733164	0.3
6434	21520	1324.437957125146	0.2
6434	21532	1324.639756499543	0.2
6434	22121	1420.563	0.1
6434	22325	1420.863	0.3
6434	22837	1421.968331236114	1.1
6434	23839	1520.881	0.4
6434	24271	1521.781	0.9
6434	24433	1522.181611116066	0.4
6434	24493	1522.385285143566	0.2
6434	24570	1522.695289482525	0.3
6434	24659	1523.198644348533	0.5
6434	25383	1620.62	0.1
6434	25974	1621.72	1.1
6434	26805	1720.634	0.1
6434	26942	1720.834	0.2
6434	27217	1721.255905788067	0.4
6434	28294	1820.761	0.2
6434	28555	1821.161	0.4
6434	28696	1821.468556858775	0.3
6434	28781	1821.669639511274	0.2
6434	29829	1920.696	0.1
6434	30277	1921.496	0.8
6434	30519	1922.09904986193	0.6
6434	30566	1922.305841612998	0.2
6434	30627	1922.710274154688	0.4
6434	31370	2020.849	0.2
6434	31701	2021.449	0.6
6434	32068	2022.358444583087	0.9
6434	32963	2120.971	0.3
6434	33307	2121.671	0.7
6434	33478	2122.08088721702	0.4
6434	34134	2220.697	0
6434	34487	2221.211414211068	0.5
6434	34694	2221.613588834494	0.4
6434	35725	2320.717	0
6434	35977	2321.026929814421	0.3
6434	36114	2321.235015384775	0.2
6434	36209	2321.438402381542	0.2
6434	37678	2421.047	0.3
6434	38044	2421.747	0.7
6434	38203	2422.055263254305	0.3
6434	38938	2520.785	0
6434	39222	2521.185	0.4
6434	39362	2521.487970454685	0.3
6434	39537	2521.812627023348	0.3
6434	40647	2621.01	0.2
6434	40900	2621.41	0.4
6434	41046	2621.710609837619	0.3
6434	41154	2621.918333437181	0.2
6434	42045	2720.942	0.1
6434	42448	2721.642	0.7
6434	43762	2821.17	0.3
6434	44005	2821.57	0.4
6434	44229	2822.072845551953	0.5
6434	45257	2921.208	0.3
6434	45621	2921.908	0.7
6434	45834	2922.413773452116	0.5
6434	45914	2922.714761668527	0.3
6434	46005	2923.224047929818	0.5
6434	46653	3021.056	0.1
6434	47033	3021.756	0.7
6434	47121	3021.9579384312	0.2
6434	48270	3121.267	0.3
6434	48843	3122.567	1.3
6434	48926	3122.969478896842	0.4
6435	207	20.202	2
6435	848	21.502	12
6435	896	21.710011208761	1
6435	937	21.916478810896	1
6435	2225	121.358	13
6435	2538	122.258	8
6435	2591	122.467266631392	1
6435	2629	122.677234657115	1
6435	2673	122.888301837427	1
6435	2712	123.197591616219	2
6435	2739	123.401140200778	1
6435	2767	123.704905311228	2
6435	3450	220.389	3
6435	4008	221.289	8
6435	4770	320.207	1
6435	4928	320.407	1
6435	5503	321.310425219184	8
6435	5604	321.517404450608	1
6435	6681	420.434	3
6435	6981	420.934	4
6435	7233	421.441253617073	4
6435	7407	422.045696926305	5
6435	8173	520.478	3
6435	8454	520.878	3
6435	9620	620.289	1
6435	9860	620.589	2
6435	10055	620.894149753463	2
6435	10241	621.202451254574	2
6435	11483	720.625	4
6435	11722	721.028856655715	3
6435	12082	721.931921332182	8
6435	12804	820.469	2
6435	12993	820.769	2
6435	13435	821.675789261347	8
6435	13646	822.47770441155	7
6435	14282	920.303	0
6435	14969	921.303	9
6435	16177	1020.715	4
6435	16621	1021.615	8
6435	16713	1021.920399488912	2
6435	16773	1022.323809178926	3
6435	16794	1022.531435434408	1
6435	17481	1120.569	2
6435	17806	1121.169	5
6435	17994	1121.575997283743	3
6435	18065	1121.77886839868	1
6435	18128	1121.988256296866	1
6435	18202	1122.304078562269	2
6435	19031	1220.496	1
6435	19170	1220.699716574707	1
6435	19430	1221.143043569294	3
6435	20349	1320.607	2
6435	20501	1320.807	1
6435	20777	1321.316654003411	4
6435	21035	1321.922398544437	5
6435	21135	1322.223213902768	2
6435	21275	1322.726461789515	4
6435	21322	1322.926847485131	1
6435	22100	1420.555	1
6435	22527	1421.255	6
6435	22748	1421.758543898463	4
6435	23639	1520.574	1
6435	24260	1521.774	11
6435	24401	1522.076836810026	2
6435	24518	1522.482264119486	3
6435	24626	1522.988676652295	4
6435	24670	1523.290430136866	2
6435	25635	1621.021	5
6435	25928	1621.621	5
6435	26031	1621.822292031782	1
6435	26205	1622.433609241536	5
6435	26237	1622.640230564833	1
6435	26265	1622.948151546953	2
6435	26271	1623.150420359332	1
6435	26283	1623.753985511018	5
6435	26289	1624.156600786219	3
6435	27057	1720.959	4
6435	27166	1721.159	1
6435	28210	1820.659	1
6435	28436	1820.959	2
6435	28863	1821.859305081012	8
6435	29845	1920.7	1
6435	30281	1921.5	7
6435	30425	1921.80716880361	2
6435	30544	1922.207527441868	3
6435	31342	2020.839	2
6435	31532	2021.139	2
6435	31704	2021.45030895937	2
6435	31958	2021.958891972349	4
6435	32889	2120.865	2
6435	33160	2121.365	4
6435	33492	2122.166135544476	7
6435	34302	2220.899	2
6435	34621	2221.499	5
6435	34862	2222.000118989856	4
6435	34966	2222.303732729607	2
6435	35107	2222.8057655461	4
6435	35176	2223.311719214085	4
6435	35213	2223.719019127113	3
6435	35246	2224.325706938788	5
6435	35277	2224.830711729793	4
6435	35296	2225.438993209401	5
6435	35819	2320.745	0
6435	36026	2321.045396527317	2
6435	36309	2321.650161748614	5
6435	37602	2420.948	2
6435	37910	2421.448	4
6435	38047	2421.749274034604	2
6435	38328	2422.450578670891	6
6435	39135	2520.998	2
6435	39378	2521.498	4
6435	39574	2521.901551436853	3
6435	39763	2522.406494444381	4
6435	40922	2621.424	6
6435	41114	2621.824	3
6435	41317	2622.333253307591	4
6435	41371	2622.538505672192	1
6435	42153	2721.058	2
6435	42609	2721.958	8
6435	42781	2722.358709545346	3
6435	42861	2722.660781039247	2
6435	42929	2722.969951481291	2
6435	43680	2820.993	1
6435	44083	2821.693	6
6435	44250	2822.093446676602	3
6435	44391	2822.508009279738	3
6435	44466	2822.923694109874	3
6435	44518	2823.430791315379	4
6435	44537	2823.744244361193	2
6435	45416	2921.429	5
6435	45650	2921.929	4
6435	45747	2922.133111918343	1
6435	46957	3021.64	7
6435	47179	3022.142184107287	4
6435	47342	3022.548092057464	3
6435	47467	3022.956220182665	3
6435	47552	3023.461750230079	4
6435	48095	3120.989	0
6435	48508	3121.689	6
6435	48613	3121.898205482795	1
6436	207	20.202	0.75
6436	848	21.502	0.55555555224419
6436	896	21.710011208761	0.96774193644524
6436	937	21.916478810896	0.97058823518455
6436	2225	121.358	0.1875
6436	2538	122.258	0.70370370149612
6436	2591	122.467266631392	0.96551724150777
6436	2629	122.677234657115	0.96551724150777
6436	2673	122.888301837427	0.96774193644524
6436	2712	123.197591616219	0.9375
6436	2739	123.401140200778	0.97058823518455
6436	2767	123.704905311228	0.9411764703691
6436	3450	220.389	0.625
6436	4008	221.289	0.59999999403954
6436	4770	320.207	0.875
6436	4928	320.407	0.875
6436	5503	321.310425219184	0.42857140302658
6436	5604	321.517404450608	0.9411764703691
6436	6681	420.434	0.625
6436	6981	420.934	0.5
6436	7233	421.441253617073	0.75
6436	7407	422.045696926305	0.83333332836628
6436	8173	520.478	0.625
6436	8454	520.878	0.69999998807907
6436	9620	620.289	0.875
6436	9860	620.589	0.75
6436	10055	620.894149753463	0.75
6436	10241	621.202451254574	0.86666665971279
6436	11483	720.625	0.5
6436	11722	721.028856655715	0.66666665673256
6436	12082	721.931921332182	0.71428570151329
6436	12804	820.469	0.75
6436	12993	820.769	0.75
6436	13435	821.675789261347	0.57894736528397
6436	13646	822.47770441155	0.77419355511665
6436	14282	920.303	1
6436	14969	921.303	0.25
6436	16177	1020.715	0.5
6436	16621	1021.615	0.55555555224419
6436	16713	1021.920399488912	0.92857142537832
6436	16773	1022.323809178926	0.9142857119441
6436	16794	1022.531435434408	0.97142857126892
6436	17481	1120.569	0.75
6436	17806	1121.169	0.44444441795349
6436	17994	1121.575997283743	0.85714285075665
6436	18065	1121.77886839868	0.95833333209157
6436	18128	1121.988256296866	0.96296296268702
6436	18202	1122.304078562269	0.93548387289047
6436	19031	1220.496	0.875
6436	19170	1220.699716574707	0.875
6436	19430	1221.143043569294	0.72727271914482
6436	20349	1320.607	0.75
6436	20501	1320.807	0.875
6436	20777	1321.316654003411	0.66666665673256
6436	21035	1321.922398544437	0.7368420958519
6436	21135	1322.223213902768	0.90476190298796
6436	21275	1322.726461789515	0.84000000357628
6436	21322	1322.926847485131	0.96428571268916
6436	22100	1420.555	0.875
6436	22527	1421.255	0.39999997615814
6436	22748	1421.758543898463	0.75
6436	23639	1520.574	0.875
6436	24260	1521.774	0.15384614467621
6436	24401	1522.076836810026	0.89999999850988
6436	24518	1522.482264119486	0.88888888806105
6436	24626	1522.988676652295	0.86666665971279
6436	24670	1523.290430136866	0.9375
6436	25635	1621.021	0.44444441795349
6436	25928	1621.621	0.64285713434219
6436	26031	1621.822292031782	0.94444444403052
6436	26205	1622.433609241536	0.84375
6436	26237	1622.640230564833	0.97058823518455
6436	26265	1622.948151546953	0.94871794804931
6436	26271	1623.150420359332	0.97435897402465
6436	26283	1623.753985511018	0.87179486453533
6436	26289	1624.156600786219	0.92307692021132
6436	27057	1720.959	0.5
6436	27166	1721.159	0.875
6436	28210	1820.659	0.875
6436	28436	1820.959	0.75
6436	28863	1821.859305081012	0.55555555224419
6436	29845	1920.7	0.875
6436	30281	1921.5	0.30000001192093
6436	30425	1921.80716880361	0.8823529407382
6436	30544	1922.207527441868	0.88461538404226
6436	31342	2020.839	0.75
6436	31532	2021.139	0.75
6436	31704	2021.45030895937	0.77777777612209
6436	31958	2021.958891972349	0.79999999701977
6436	32889	2120.865	0.75
6436	33160	2121.365	0.55555555224419
6436	33492	2122.166135544476	0.69565218687057
6436	34302	2220.899	0.75
6436	34621	2221.499	0.54545453190804
6436	34862	2222.000118989856	0.78947368264198
6436	34966	2222.303732729607	0.89999999850988
6436	35107	2222.8057655461	0.87096774578094
6436	35176	2223.311719214085	0.88571428507566
6436	35213	2223.719019127113	0.91666666418314
6436	35246	2224.325706938788	0.86486487090588
6436	35277	2224.830711729793	0.89473684132099
6436	35296	2225.438993209401	0.87179486453533
6436	35819	2320.745	1
6436	36026	2321.045396527317	0.75
6436	36309	2321.650161748614	0.54545453190804
6436	37602	2420.948	0.75
6436	37910	2421.448	0.55555555224419
6436	38047	2421.749274034604	0.81818181276321
6436	38328	2422.450578670891	0.79999999701977
6436	39135	2520.998	0.75
6436	39378	2521.498	0.5
6436	39574	2521.901551436853	0.76923076808453
6436	39763	2522.406494444381	0.84000000357628
6436	40922	2621.424	0.25
6436	41114	2621.824	0.69999998807907
6436	41317	2622.333253307591	0.84615384042263
6436	41371	2622.538505672192	0.96428571268916
6436	42153	2721.058	0.75
6436	42609	2721.958	0.33333331346512
6436	42781	2722.358709545346	0.86363635957241
6436	42861	2722.660781039247	0.92592592537403
6436	42929	2722.969951481291	0.9375
6436	43680	2820.993	0.875
6436	44083	2821.693	0.45454543828964
6436	44250	2822.093446676602	0.82352940738201
6436	44391	2822.508009279738	0.89285714179277
6436	44466	2822.923694109874	0.90625
6436	44518	2823.430791315379	0.88888888806105
6436	44537	2823.744244361193	0.94594594463706
6436	45416	2921.429	0.375
6436	45650	2921.929	0.69230768084526
6436	45747	2922.133111918343	0.9411764703691
6436	46957	3021.64	0.125
6436	47179	3022.142184107287	0.71428570151329
6436	47342	3022.548092057464	0.86363635957241
6436	47467	3022.956220182665	0.90322580933571
6436	47552	3023.461750230079	0.88571428507566
6436	48095	3120.989	1
6436	48508	3121.689	0.33333331346512
6436	48613	3121.898205482795	0.88888888806105
6437	207	20.202	0.2
6437	848	21.502	1.3
6437	896	21.710011208761	0.2
6437	937	21.916478810896	0.2
6437	2225	121.358	1.3
6437	2538	122.258	0.9
6437	2591	122.467266631392	0.2
6437	2629	122.677234657115	0.2
6437	2673	122.888301837427	0.2
6437	2712	123.197591616219	0.3
6437	2739	123.401140200778	0.2
6437	2767	123.704905311228	0.3
6437	3450	220.389	0.3
6437	4008	221.289	0.9
6437	4770	320.207	0.1
6437	4928	320.407	0.2
6437	5503	321.310425219184	0.9
6437	5604	321.517404450608	0.2
6437	6681	420.434	0.3
6437	6981	420.934	0.5
6437	7233	421.441253617073	0.5
6437	7407	422.045696926305	0.6
6437	8173	520.478	0.3
6437	8454	520.878	0.4
6437	9620	620.289	0.1
6437	9860	620.589	0.3
6437	10055	620.894149753463	0.3
6437	10241	621.202451254574	0.3
6437	11483	720.625	0.4
6437	11722	721.028856655715	0.4
6437	12082	721.931921332182	0.9
6437	12804	820.469	0.2
6437	12993	820.769	0.3
6437	13435	821.675789261347	0.9
6437	13646	822.47770441155	0.8
6437	14282	920.303	0
6437	14969	921.303	1
6437	16177	1020.715	0.4
6437	16621	1021.615	0.9
6437	16713	1021.920399488912	0.3
6437	16773	1022.323809178926	0.4
6437	16794	1022.531435434408	0.2
6437	17481	1120.569	0.2
6437	17806	1121.169	0.6
6437	17994	1121.575997283743	0.4
6437	18065	1121.77886839868	0.2
6437	18128	1121.988256296866	0.2
6437	18202	1122.304078562269	0.3
6437	19031	1220.496	0.1
6437	19170	1220.699716574707	0.2
6437	19430	1221.143043569294	0.4
6437	20349	1320.607	0.2
6437	20501	1320.807	0.2
6437	20777	1321.316654003411	0.5
6437	21035	1321.922398544437	0.6
6437	21135	1322.223213902768	0.3
6437	21275	1322.726461789515	0.5
6437	21322	1322.926847485131	0.2
6437	22100	1420.555	0.1
6437	22527	1421.255	0.7
6437	22748	1421.758543898463	0.5
6437	23639	1520.574	0.1
6437	24260	1521.774	1.2
6437	24401	1522.076836810026	0.3
6437	24518	1522.482264119486	0.4
6437	24626	1522.988676652295	0.5
6437	24670	1523.290430136866	0.3
6437	25635	1621.021	0.5
6437	25928	1621.621	0.6
6437	26031	1621.822292031782	0.2
6437	26205	1622.433609241536	0.6
6437	26237	1622.640230564833	0.2
6437	26265	1622.948151546953	0.3
6437	26271	1623.150420359332	0.2
6437	26283	1623.753985511018	0.6
6437	26289	1624.156600786219	0.4
6437	27057	1720.959	0.4
6437	27166	1721.159	0.2
6437	28210	1820.659	0.1
6437	28436	1820.959	0.3
6437	28863	1821.859305081012	0.9
6437	29845	1920.7	0.1
6437	30281	1921.5	0.8
6437	30425	1921.80716880361	0.3
6437	30544	1922.207527441868	0.4
6437	31342	2020.839	0.2
6437	31532	2021.139	0.3
6437	31704	2021.45030895937	0.3
6437	31958	2021.958891972349	0.5
6437	32889	2120.865	0.2
6437	33160	2121.365	0.5
6437	33492	2122.166135544476	0.8
6437	34302	2220.899	0.2
6437	34621	2221.499	0.6
6437	34862	2222.000118989856	0.5
6437	34966	2222.303732729607	0.3
6437	35107	2222.8057655461	0.5
6437	35176	2223.311719214085	0.5
6437	35213	2223.719019127113	0.4
6437	35246	2224.325706938788	0.6
6437	35277	2224.830711729793	0.5
6437	35296	2225.438993209401	0.6
6437	35819	2320.745	0
6437	36026	2321.045396527317	0.3
6437	36309	2321.650161748614	0.6
6437	37602	2420.948	0.2
6437	37910	2421.448	0.5
6437	38047	2421.749274034604	0.3
6437	38328	2422.450578670891	0.7
6437	39135	2520.998	0.2
6437	39378	2521.498	0.5
6437	39574	2521.901551436853	0.4
6437	39763	2522.406494444381	0.5
6437	40922	2621.424	0.6
6437	41114	2621.824	0.4
6437	41317	2622.333253307591	0.5
6437	41371	2622.538505672192	0.2
6437	42153	2721.058	0.2
6437	42609	2721.958	0.9
6437	42781	2722.358709545346	0.4
6437	42861	2722.660781039247	0.3
6437	42929	2722.969951481291	0.3
6437	43680	2820.993	0.1
6437	44083	2821.693	0.7
6437	44250	2822.093446676602	0.4
6437	44391	2822.508009279738	0.4
6437	44466	2822.923694109874	0.4
6437	44518	2823.430791315379	0.5
6437	44537	2823.744244361193	0.3
6437	45416	2921.429	0.5
6437	45650	2921.929	0.5
6437	45747	2922.133111918343	0.2
6437	46957	3021.64	0.7
6437	47179	3022.142184107287	0.5
6437	47342	3022.548092057464	0.4
6437	47467	3022.956220182665	0.4
6437	47552	3023.461750230079	0.5
6437	48095	3120.989	0
6437	48508	3121.689	0.7