version 2
run Stability-46-20130524-20:22:27-3483
attr configname Stability
attr datetime 20130524-20:22:27
attr experiment Stability
attr inifile omnetpp.ini
attr iterationvars $0=1e2
attr iterationvars2 "$0=1e2, $repetition=6"
attr measurement $0=1e2
attr network Network
attr processid 3483
attr repetition 6
attr replication #6
attr resultdir results
attr runnumber 46
attr seedset 46

vector 4416  Network.dyn_peer[0]  lookupHopsSig:vector  ETV
vector 4417  Network.dyn_peer[0]  lookupStabilitySig:vector  ETV
vector 4418  Network.dyn_peer[0]  lookupTimeSig:vector  ETV
vector 4419  Network.dyn_peer[1]  lookupHopsSig:vector  ETV
vector 4420  Network.dyn_peer[1]  lookupStabilitySig:vector  ETV
vector 4421  Network.dyn_peer[1]  lookupTimeSig:vector  ETV
vector 4422  Network.dyn_peer[2]  lookupHopsSig:vector  ETV
vector 4423  Network.dyn_peer[2]  lookupStabilitySig:vector  ETV
vector 4424  Network.dyn_peer[2]  lookupTimeSig:vector  ETV
vector 4425  Network.dyn_peer[3]  lookupHopsSig:vector  ETV
vector 4426  Network.dyn_peer[3]  lookupStabilitySig:vector  ETV
vector 4427  Network.dyn_peer[3]  lookupTimeSig:vector  ETV
vector 4428  Network.dyn_peer[4]  lookupHopsSig:vector  ETV
vector 4429  Network.dyn_peer[4]  lookupStabilitySig:vector  ETV
vector 4430  Network.dyn_peer[4]  lookupTimeSig:vector  ETV
vector 4431  Network.dyn_peer[5]  lookupHopsSig:vector  ETV
vector 4432  Network.dyn_peer[5]  lookupStabilitySig:vector  ETV
vector 4433  Network.dyn_peer[5]  lookupTimeSig:vector  ETV
vector 4434  Network.dyn_peer[6]  lookupHopsSig:vector  ETV
vector 4435  Network.dyn_peer[6]  lookupStabilitySig:vector  ETV
vector 4436  Network.dyn_peer[6]  lookupTimeSig:vector  ETV
vector 4437  Network.dyn_peer[7]  lookupHopsSig:vector  ETV
vector 4438  Network.dyn_peer[7]  lookupStabilitySig:vector  ETV
vector 4439  Network.dyn_peer[7]  lookupTimeSig:vector  ETV
vector 4440  Network.dyn_peer[8]  lookupHopsSig:vector  ETV
vector 4441  Network.dyn_peer[8]  lookupStabilitySig:vector  ETV
vector 4442  Network.dyn_peer[8]  lookupTimeSig:vector  ETV
vector 4449  Network.dyn_peer[11]  lookupHopsSig:vector  ETV
vector 4450  Network.dyn_peer[11]  lookupStabilitySig:vector  ETV
vector 4451  Network.dyn_peer[11]  lookupTimeSig:vector  ETV
vector 4443  Network.dyn_peer[9]  lookupHopsSig:vector  ETV
vector 4444  Network.dyn_peer[9]  lookupStabilitySig:vector  ETV
vector 4445  Network.dyn_peer[9]  lookupTimeSig:vector  ETV
vector 4446  Network.dyn_peer[10]  lookupHopsSig:vector  ETV
vector 4447  Network.dyn_peer[10]  lookupStabilitySig:vector  ETV
vector 4448  Network.dyn_peer[10]  lookupTimeSig:vector  ETV
vector 4452  Network.dyn_peer[12]  lookupHopsSig:vector  ETV
vector 4453  Network.dyn_peer[12]  lookupStabilitySig:vector  ETV
vector 4454  Network.dyn_peer[12]  lookupTimeSig:vector  ETV
vector 4455  Network.dyn_peer[13]  lookupHopsSig:vector  ETV
vector 4456  Network.dyn_peer[13]  lookupStabilitySig:vector  ETV
vector 4457  Network.dyn_peer[13]  lookupTimeSig:vector  ETV
vector 4464  Network.dyn_peer[16]  lookupHopsSig:vector  ETV
vector 4465  Network.dyn_peer[16]  lookupStabilitySig:vector  ETV
vector 4466  Network.dyn_peer[16]  lookupTimeSig:vector  ETV
vector 4458  Network.dyn_peer[14]  lookupHopsSig:vector  ETV
vector 4459  Network.dyn_peer[14]  lookupStabilitySig:vector  ETV
vector 4460  Network.dyn_peer[14]  lookupTimeSig:vector  ETV
vector 4461  Network.dyn_peer[15]  lookupHopsSig:vector  ETV
vector 4462  Network.dyn_peer[15]  lookupStabilitySig:vector  ETV
vector 4463  Network.dyn_peer[15]  lookupTimeSig:vector  ETV
vector 4467  Network.dyn_peer[17]  lookupHopsSig:vector  ETV
vector 4468  Network.dyn_peer[17]  lookupStabilitySig:vector  ETV
vector 4469  Network.dyn_peer[17]  lookupTimeSig:vector  ETV
vector 4470  Network.dyn_peer[18]  lookupHopsSig:vector  ETV
vector 4471  Network.dyn_peer[18]  lookupStabilitySig:vector  ETV
vector 4472  Network.dyn_peer[18]  lookupTimeSig:vector  ETV
vector 4479  Network.dyn_peer[21]  lookupHopsSig:vector  ETV
vector 4480  Network.dyn_peer[21]  lookupStabilitySig:vector  ETV
vector 4481  Network.dyn_peer[21]  lookupTimeSig:vector  ETV
vector 4476  Network.dyn_peer[20]  lookupHopsSig:vector  ETV
vector 4477  Network.dyn_peer[20]  lookupStabilitySig:vector  ETV
vector 4478  Network.dyn_peer[20]  lookupTimeSig:vector  ETV
vector 4473  Network.dyn_peer[19]  lookupHopsSig:vector  ETV
vector 4474  Network.dyn_peer[19]  lookupStabilitySig:vector  ETV
vector 4475  Network.dyn_peer[19]  lookupTimeSig:vector  ETV
vector 4482  Network.dyn_peer[22]  lookupHopsSig:vector  ETV
vector 4483  Network.dyn_peer[22]  lookupStabilitySig:vector  ETV
vector 4484  Network.dyn_peer[22]  lookupTimeSig:vector  ETV
vector 4485  Network.dyn_peer[23]  lookupHopsSig:vector  ETV
vector 4486  Network.dyn_peer[23]  lookupStabilitySig:vector  ETV
vector 4487  Network.dyn_peer[23]  lookupTimeSig:vector  ETV
vector 4488  Network.dyn_peer[24]  lookupHopsSig:vector  ETV
vector 4489  Network.dyn_peer[24]  lookupStabilitySig:vector  ETV
vector 4490  Network.dyn_peer[24]  lookupTimeSig:vector  ETV
vector 4497  Network.dyn_peer[27]  lookupHopsSig:vector  ETV
vector 4498  Network.dyn_peer[27]  lookupStabilitySig:vector  ETV
vector 4499  Network.dyn_peer[27]  lookupTimeSig:vector  ETV
vector 4494  Network.dyn_peer[26]  lookupHopsSig:vector  ETV
vector 4495  Network.dyn_peer[26]  lookupStabilitySig:vector  ETV
vector 4496  Network.dyn_peer[26]  lookupTimeSig:vector  ETV
vector 4491  Network.dyn_peer[25]  lookupHopsSig:vector  ETV
vector 4492  Network.dyn_peer[25]  lookupStabilitySig:vector  ETV
vector 4493  Network.dyn_peer[25]  lookupTimeSig:vector  ETV
vector 4500  Network.dyn_peer[28]  lookupHopsSig:vector  ETV
vector 4501  Network.dyn_peer[28]  lookupStabilitySig:vector  ETV
vector 4502  Network.dyn_peer[28]  lookupTimeSig:vector  ETV
vector 4503  Network.dyn_peer[29]  lookupHopsSig:vector  ETV
vector 4504  Network.dyn_peer[29]  lookupStabilitySig:vector  ETV
vector 4505  Network.dyn_peer[29]  lookupTimeSig:vector  ETV
vector 4509  Network.dyn_peer[31]  lookupHopsSig:vector  ETV
vector 4510  Network.dyn_peer[31]  lookupStabilitySig:vector  ETV
vector 4511  Network.dyn_peer[31]  lookupTimeSig:vector  ETV
vector 4506  Network.dyn_peer[30]  lookupHopsSig:vector  ETV
vector 4507  Network.dyn_peer[30]  lookupStabilitySig:vector  ETV
vector 4508  Network.dyn_peer[30]  lookupTimeSig:vector  ETV
4416	37	20.3	2
4416	74	20.6	2
4416	132	20.902349503873	2
4416	212	21.306484180885	3
4416	452	22.30996527997	3
4416	648	22.918254544273	5
4416	851	23.427127162694	4
4416	1058	24.028356563421	5
4416	1128	24.335622090359	2
4416	1672	123.6	1
4416	1718	123.9	2
4416	1753	124.100504396918	1
4416	1800	124.304917249234	1
4416	2537	126.902106459378	4
4416	2727	127.911584885085	9
4416	2761	128.120130333271	1
4416	3280	226.6	1
4416	3302	226.8	1
4416	3356	227.102823954485	2
4416	3421	227.412531176914	2
4416	4012	229.400647286288	2
4416	4198	230.003533835077	5
4416	4347	230.508183401395	4
4416	4925	329.7	2
4416	4957	329.906482749681	1
4416	5015	330.230511117565	2
4416	5097	330.544989896982	2
4416	5150	330.753114212909	1
4416	5610	332.006799571921	4
4416	5892	332.710747044197	6
4416	6556	432.8	2
4416	6621	433.206618583961	3
4416	6701	433.610385104314	3
4416	7122	435.208327910744	1
4416	7239	435.512419826886	2
4416	8140	536	2
4416	8164	536.2	1
4416	8248	536.603691319436	3
4416	8353	537.012406578807	3
4416	9032	539.401048433182	4
4416	9094	539.704246737763	2
4416	9185	540.216693691915	4
4416	9232	540.624283026944	3
4416	9249	540.934166342189	2
4416	9275	541.442464774804	4
4416	9291	541.950367994295	4
4416	9754	639.2	1
4416	9827	639.602761521479	3
4416	9897	639.903200945022	2
4416	11285	742.3	1
4416	11325	742.6	2
4416	11412	742.938546219733	2
4416	12838	845.1	1
4416	12853	845.3	1
4416	12883	845.509437329503	1
4416	12964	845.826909502573	2
4416	13349	847.302495986067	2
4416	13508	847.708466112976	3
4416	14461	948.2	2
4416	14492	948.5	2
4416	14540	948.708110086617	1
4416	14593	949.009821409738	2
4416	14676	949.312542242595	2
4416	14724	949.517080252541	1
4416	14850	950.004891147292	2
4416	14993	950.50670821296	4
4416	15065	950.714398677921	1
4416	15249	951.303487805332	4
4416	15319	951.505258581534	1
4416	15439	952.206434235147	6
4416	15906	1051.4	0
4416	15943	1051.7	2
4416	16032	1052.113113579318	3
4416	16094	1052.415217554707	2
4416	17530	1154.7	2
4416	17552	1154.9	1
4416	17648	1155.314245910168	3
4416	17836	1156.109780879996	3
4416	17895	1156.31129486489	1
4416	18053	1156.807461071738	2
4416	18151	1157.111417101367	2
4416	19049	1257.7	2
4416	19093	1258	2
4416	19136	1258.20685951038	1
4416	19190	1258.422363452861	1
4416	19286	1258.801687991234	1
4416	19389	1259.109810436483	2
4416	19491	1259.413598065474	2
4416	19844	1260.601751586897	1
4416	19912	1260.804428181408	1
4416	20030	1261.2144281488	3
4416	20128	1261.719364146294	4
4416	20181	1262.029069618903	2
4416	20741	1360.6	1
4416	20755	1360.8	1
4416	20794	1361.002298600834	1
4416	20851	1361.308285855645	2
4416	20946	1361.716960637177	3
4416	22500	1463.9	2
4416	22537	1464.108689393817	1
4416	22570	1464.312832640892	1
4416	22616	1464.520225616051	1
4416	24052	1567.1	2
4416	24092	1567.322244135501	1
4416	24167	1567.728658932297	3
4416	24794	1570.100944292941	2
4416	24965	1570.910854942225	7
4416	25605	1670.1	2
4416	25629	1670.3	1
4416	25662	1670.500894080114	1
4416	25738	1670.814871786709	2
4416	25850	1671.319784908578	4
4416	25981	1671.804981753504	2
4416	26136	1672.308969988309	4
4416	26332	1672.916222156719	5
4416	27282	1773.7	3
4416	27368	1774.1	3
4416	27500	1774.51039372179	3
4416	28900	1876.4	1
4416	28951	1876.7	2
4416	29015	1877.008455235664	2
4416	30328	1979.4	2
4416	30371	1979.7	2
4416	30440	1980.003828256709	2
4416	30483	1980.209431265614	1
4416	31158	1982.609733612155	4
4416	31222	1982.910663715807	2
4416	31256	1983.116962830248	1
4416	31289	1983.31925066828	1
4416	31919	2082.9	3
4416	32025	2083.4	4
4416	32115	2083.700457281193	2
4416	32178	2083.90570267881	1
4416	33544	2186.2	1
4416	33637	2186.6	3
4416	33747	2187.005513622534	3
4416	33856	2187.412371688328	3
4416	34996	2289.5	2
4416	35059	2289.8	2
4416	35145	2290.201507377971	3
4416	35303	2290.720386897233	4
4416	36666	2392.8	3
4416	36796	2393.3	4
4416	36910	2393.60976126526	2
4416	37080	2394.118599401842	4
4416	38357	2495.9	0
4416	38463	2496.4	4
4416	38560	2496.708694609629	2
4416	38641	2496.910819819031	1
4416	38704	2497.1157821965	1
4416	39883	2598.9	1
4416	39932	2599.1	1
4416	40007	2599.323780970989	1
4416	40084	2599.550262887612	1
4416	40179	2599.858679947866	2
4416	41305	2701.6	1
4416	41373	2702	3
4416	41487	2702.406191199328	3
4416	42838	2804.5	2
4416	42902	2804.804308801933	2
4416	43020	2805.316701390278	4
4416	44375	2907.3	1
4416	44453	2907.8	4
4416	45963	3010.1	0
4416	45978	3010.3	1
4416	46004	3010.505479059533	1
4416	46037	3010.710110485629	1
4416	47332	3113.2	1
4416	47344	3113.4	1
4416	47385	3113.702289835454	2
4416	47495	3114.210400996342	3
4416	47614	3114.7186268091	4
4416	47693	3115.027243939413	2
4416	48043	3116.20820605328	4
4416	48157	3116.61437325725	3
4416	48262	3117.019681871737	3
4416	48775	3216.3	1
4416	48793	3216.509156536858	1
4416	48857	3216.909662983568	3
4416	48931	3217.311767754335	3
4416	49077	3217.906476613676	3
4416	49224	3218.414578316357	4
4416	49352	3218.818682307164	3
4416	49524	3219.327738695683	4
4417	37	20.3	0.75
4417	74	20.6	0.75
4417	132	20.902349503873	0.75
4417	212	21.306484180885	0.72727271914482
4417	452	22.30996527997	0.84210526943207
4417	648	22.918254544273	0.75
4417	851	23.427127162694	0.84000000357628
4417	1058	24.028356563421	0.84848484396935
4417	1128	24.335622090359	0.94444444403052
4417	1672	123.6	0.875
4417	1718	123.9	0.75
4417	1753	124.100504396918	0.875
4417	1800	124.304917249234	0.89999999850988
4417	2537	126.902106459378	0.86206896603107
4417	2727	127.911584885085	0.73529410362244
4417	2761	128.120130333271	0.97142857126892
4417	3280	226.6	0.875
4417	3302	226.8	0.875
4417	3356	227.102823954485	0.75
4417	3421	227.412531176914	0.77777777612209
4417	4012	229.400647286288	0.92307692021132
4417	4198	230.003533835077	0.82758620381355
4417	4347	230.508183401395	0.87878787517548
4417	4925	329.7	0.75
4417	4957	329.906482749681	0.875
4417	5015	330.230511117565	0.75
4417	5097	330.544989896982	0.75
4417	5150	330.753114212909	0.88888888806105
4417	5610	332.006799571921	0.75
4417	5892	332.710747044197	0.76000000536442
4417	6556	432.8	0.75
4417	6621	433.206618583961	0.625
4417	6701	433.610385104314	0.69999998807907
4417	7122	435.208327910744	0.95238095149398
4417	7239	435.512419826886	0.91666666418314
4417	8140	536	0.75
4417	8164	536.2	0.875
4417	8248	536.603691319436	0.66666665673256
4417	8353	537.012406578807	0.75
4417	9032	539.401048433182	0.87878787517548
4417	9094	539.704246737763	0.94285714253783
4417	9185	540.216693691915	0.89189188927412
4417	9232	540.624283026944	0.92105263471603
4417	9249	540.934166342189	0.9473684206605
4417	9275	541.442464774804	0.89473684132099
4417	9291	541.950367994295	0.89743589609861
4417	9754	639.2	0.875
4417	9827	639.602761521479	0.66666665673256
4417	9897	639.903200945022	0.83333332836628
4417	11285	742.3	0.875
4417	11325	742.6	0.75
4417	11412	742.938546219733	0.77777777612209
4417	12838	845.1	0.875
4417	12853	845.3	0.875
4417	12883	845.509437329503	0.875
4417	12964	845.826909502573	0.75
4417	13349	847.302495986067	0.8823529407382
4417	13508	847.708466112976	0.85714285075665
4417	14461	948.2	0.75
4417	14492	948.5	0.75
4417	14540	948.708110086617	0.875
4417	14593	949.009821409738	0.75
4417	14676	949.312542242595	0.81818181276321
4417	14724	949.517080252541	0.90909090638161
4417	14850	950.004891147292	0.875
4417	14993	950.50670821296	0.79999999701977
4417	15065	950.714398677921	0.95652173832059
4417	15249	951.303487805332	0.83333332836628
4417	15319	951.505258581534	0.96428571268916
4417	15439	952.206434235147	0.8125
4417	15906	1051.4	1
4417	15943	1051.7	0.75
4417	16032	1052.113113579318	0.66666665673256
4417	16094	1052.415217554707	0.81818181276321
4417	17530	1154.7	0.75
4417	17552	1154.9	0.875
4417	17648	1155.314245910168	0.69999998807907
4417	17836	1156.109780879996	0.8125
4417	17895	1156.31129486489	0.9375
4417	18053	1156.807461071738	0.89999999850988
4417	18151	1157.111417101367	0.90909090638161
4417	19049	1257.7	0.75
4417	19093	1258	0.75
4417	19136	1258.20685951038	0.875
4417	19190	1258.422363452861	0.88888888806105
4417	19286	1258.801687991234	0.90909090638161
4417	19389	1259.109810436483	0.85714285075665
4417	19491	1259.413598065474	0.88888888806105
4417	19844	1260.601751586897	0.96153846010566
4417	19912	1260.804428181408	0.96296296268702
4417	20030	1261.2144281488	0.89999999850988
4417	20128	1261.719364146294	0.87878787517548
4417	20181	1262.029069618903	0.9411764703691
4417	20741	1360.6	0.875
4417	20755	1360.8	0.875
4417	20794	1361.002298600834	0.875
4417	20851	1361.308285855645	0.75
4417	20946	1361.716960637177	0.69999998807907
4417	22500	1463.9	0.75
4417	22537	1464.108689393817	0.875
4417	22570	1464.312832640892	0.875
4417	22616	1464.520225616051	0.90909090638161
4417	24052	1567.1	0.75
4417	24092	1567.322244135501	0.875
4417	24167	1567.728658932297	0.69999998807907
4417	24794	1570.100944292941	0.92857142537832
4417	24965	1570.910854942225	0.79999999701977
4417	25605	1670.1	0.75
4417	25629	1670.3	0.875
4417	25662	1670.500894080114	0.875
4417	25738	1670.814871786709	0.79999999701977
4417	25850	1671.319784908578	0.71428570151329
4417	25981	1671.804981753504	0.86666665971279
4417	26136	1672.308969988309	0.81818181276321
4417	26332	1672.916222156719	0.81481482088566
4417	27282	1773.7	0.69999998807907
4417	27368	1774.1	0.72727271914482
4417	27500	1774.51039372179	0.75
4417	28900	1876.4	0.875
4417	28951	1876.7	0.77777777612209
4417	29015	1877.008455235664	0.79999999701977
4417	30328	1979.4	0.75
4417	30371	1979.7	0.75
4417	30440	1980.003828256709	0.79999999701977
4417	30483	1980.209431265614	0.92307692021132
4417	31158	1982.609733612155	0.87096774578094
4417	31222	1982.910663715807	0.9411764703691
4417	31256	1983.116962830248	0.97058823518455
4417	31289	1983.31925066828	0.97142857126892
4417	31919	2082.9	0.625
4417	32025	2083.4	0.63636362552643
4417	32115	2083.700457281193	0.84615384042263
4417	32178	2083.90570267881	0.9411764703691
4417	33544	2186.2	0.875
4417	33637	2186.6	0.69999998807907
4417	33747	2187.005513622534	0.8125
4417	33856	2187.412371688328	0.83333332836628
4417	34996	2289.5	0.77777777612209
4417	35059	2289.8	0.86666665971279
4417	35145	2290.201507377971	0.8125
4417	35303	2290.720386897233	0.77777777612209
4417	36666	2392.8	0.75
4417	36796	2393.3	0.71428570151329
4417	36910	2393.60976126526	0.875
4417	37080	2394.118599401842	0.81818181276321
4417	38357	2495.9	1
4417	38463	2496.4	0.73333331942558
4417	38560	2496.708694609629	0.8823529407382
4417	38641	2496.910819819031	0.9473684206605
4417	38704	2497.1157821965	0.94999999925494
4417	39883	2598.9	0.91666666418314
4417	39932	2599.1	0.92307692021132
4417	40007	2599.323780970989	0.92857142537832
4417	40084	2599.550262887612	0.9333333298564
4417	40179	2599.858679947866	0.875
4417	41305	2701.6	0.89999999850988
4417	41373	2702	0.72727271914482
4417	41487	2702.406191199328	0.76923076808453
4417	42838	2804.5	0.75
4417	42902	2804.804308801933	0.77777777612209
4417	43020	2805.316701390278	0.63636362552643
4417	44375	2907.3	0.875
4417	44453	2907.8	0.55555555224419
4417	45963	3010.1	1
4417	45978	3010.3	0.875
4417	46004	3010.505479059533	0.875
4417	46037	3010.710110485629	0.875
4417	47332	3113.2	0.875
4417	47344	3113.4	0.875
4417	47385	3113.702289835454	0.75
4417	47495	3114.210400996342	0.69999998807907
4417	47614	3114.7186268091	0.7647058814764
4417	47693	3115.027243939413	0.88888888806105
4417	48043	3116.20820605328	0.85185185074806
4417	48157	3116.61437325725	0.89655172079802
4417	48262	3117.019681871737	0.90625
4417	48775	3216.3	0.875
4417	48793	3216.509156536858	0.875
4417	48857	3216.909662983568	0.625
4417	48931	3217.311767754335	0.72727271914482
4417	49077	3217.906476613676	0.76923076808453
4417	49224	3218.414578316357	0.77777777612209
4417	49352	3218.818682307164	0.84999999403954
4417	49524	3219.327738695683	0.81818181276321
4418	37	20.3	0.2
4418	74	20.6	0.3
4418	132	20.902349503873	0.3
4418	212	21.306484180885	0.4
4418	452	22.30996527997	0.4
4418	648	22.918254544273	0.6
4418	851	23.427127162694	0.5
4418	1058	24.028356563421	0.6
4418	1128	24.335622090359	0.3
4418	1672	123.6	0.1
4418	1718	123.9	0.3
4418	1753	124.100504396918	0.2
4418	1800	124.304917249234	0.2
4418	2537	126.902106459378	0.5
4418	2727	127.911584885085	1
4418	2761	128.120130333271	0.2
4418	3280	226.6	0.1
4418	3302	226.8	0.2
4418	3356	227.102823954485	0.3
4418	3421	227.412531176914	0.3
4418	4012	229.400647286288	0.3
4418	4198	230.003533835077	0.6
4418	4347	230.508183401395	0.5
4418	4925	329.7	0.2
4418	4957	329.906482749681	0.2
4418	5015	330.230511117565	0.3
4418	5097	330.544989896982	0.3
4418	5150	330.753114212909	0.2
4418	5610	332.006799571921	0.5
4418	5892	332.710747044197	0.7
4418	6556	432.8	0.2
4418	6621	433.206618583961	0.4
4418	6701	433.610385104314	0.4
4418	7122	435.208327910744	0.2
4418	7239	435.512419826886	0.3
4418	8140	536	0.2
4418	8164	536.2	0.2
4418	8248	536.603691319436	0.4
4418	8353	537.012406578807	0.4
4418	9032	539.401048433182	0.5
4418	9094	539.704246737763	0.3
4418	9185	540.216693691915	0.5
4418	9232	540.624283026944	0.4
4418	9249	540.934166342189	0.3
4418	9275	541.442464774804	0.5
4418	9291	541.950367994295	0.5
4418	9754	639.2	0.1
4418	9827	639.602761521479	0.4
4418	9897	639.903200945022	0.3
4418	11285	742.3	0.1
4418	11325	742.6	0.3
4418	11412	742.938546219733	0.3
4418	12838	845.1	0.1
4418	12853	845.3	0.2
4418	12883	845.509437329503	0.2
4418	12964	845.826909502573	0.3
4418	13349	847.302495986067	0.3
4418	13508	847.708466112976	0.4
4418	14461	948.2	0.2
4418	14492	948.5	0.3
4418	14540	948.708110086617	0.2
4418	14593	949.009821409738	0.3
4418	14676	949.312542242595	0.3
4418	14724	949.517080252541	0.2
4418	14850	950.004891147292	0.3
4418	14993	950.50670821296	0.5
4418	15065	950.714398677921	0.2
4418	15249	951.303487805332	0.5
4418	15319	951.505258581534	0.2
4418	15439	952.206434235147	0.7
4418	15906	1051.4	0
4418	15943	1051.7	0.3
4418	16032	1052.113113579318	0.4
4418	16094	1052.415217554707	0.3
4418	17530	1154.7	0.2
4418	17552	1154.9	0.2
4418	17648	1155.314245910168	0.4
4418	17836	1156.109780879996	0.4
4418	17895	1156.31129486489	0.2
4418	18053	1156.807461071738	0.3
4418	18151	1157.111417101367	0.3
4418	19049	1257.7	0.2
4418	19093	1258	0.3
4418	19136	1258.20685951038	0.2
4418	19190	1258.422363452861	0.2
4418	19286	1258.801687991234	0.2
4418	19389	1259.109810436483	0.3
4418	19491	1259.413598065474	0.3
4418	19844	1260.601751586897	0.2
4418	19912	1260.804428181408	0.2
4418	20030	1261.2144281488	0.4
4418	20128	1261.719364146294	0.5
4418	20181	1262.029069618903	0.3
4418	20741	1360.6	0.1
4418	20755	1360.8	0.2
4418	20794	1361.002298600834	0.2
4418	20851	1361.308285855645	0.3
4418	20946	1361.716960637177	0.4
4418	22500	1463.9	0.2
4418	22537	1464.108689393817	0.2
4418	22570	1464.312832640892	0.2
4418	22616	1464.520225616051	0.2
4418	24052	1567.1	0.2
4418	24092	1567.322244135501	0.2
4418	24167	1567.728658932297	0.4
4418	24794	1570.100944292941	0.3
4418	24965	1570.910854942225	0.8
4418	25605	1670.1	0.2
4418	25629	1670.3	0.2
4418	25662	1670.500894080114	0.2
4418	25738	1670.814871786709	0.3
4418	25850	1671.319784908578	0.5
4418	25981	1671.804981753504	0.3
4418	26136	1672.308969988309	0.5
4418	26332	1672.916222156719	0.6
4418	27282	1773.7	0.3
4418	27368	1774.1	0.4
4418	27500	1774.51039372179	0.4
4418	28900	1876.4	0.1
4418	28951	1876.7	0.3
4418	29015	1877.008455235664	0.3
4418	30328	1979.4	0.2
4418	30371	1979.7	0.3
4418	30440	1980.003828256709	0.3
4418	30483	1980.209431265614	0.2
4418	31158	1982.609733612155	0.5
4418	31222	1982.910663715807	0.3
4418	31256	1983.116962830248	0.2
4418	31289	1983.31925066828	0.2
4418	31919	2082.9	0.3
4418	32025	2083.4	0.5
4418	32115	2083.700457281193	0.3
4418	32178	2083.90570267881	0.2
4418	33544	2186.2	0.1
4418	33637	2186.6	0.4
4418	33747	2187.005513622534	0.4
4418	33856	2187.412371688328	0.4
4418	34996	2289.5	0.2
4418	35059	2289.8	0.3
4418	35145	2290.201507377971	0.4
4418	35303	2290.720386897233	0.5
4418	36666	2392.8	0.3
4418	36796	2393.3	0.5
4418	36910	2393.60976126526	0.3
4418	37080	2394.118599401842	0.5
4418	38357	2495.9	0
4418	38463	2496.4	0.5
4418	38560	2496.708694609629	0.3
4418	38641	2496.910819819031	0.2
4418	38704	2497.1157821965	0.2
4418	39883	2598.9	0.1
4418	39932	2599.1	0.2
4418	40007	2599.323780970989	0.2
4418	40084	2599.550262887612	0.2
4418	40179	2599.858679947866	0.3
4418	41305	2701.6	0.1
4418	41373	2702	0.4
4418	41487	2702.406191199328	0.4
4418	42838	2804.5	0.2
4418	42902	2804.804308801933	0.3
4418	43020	2805.316701390278	0.5
4418	44375	2907.3	0.1
4418	44453	2907.8	0.5
4418	45963	3010.1	0
4418	45978	3010.3	0.2
4418	46004	3010.505479059533	0.2
4418	46037	3010.710110485629	0.2
4418	47332	3113.2	0.1
4418	47344	3113.4	0.2
4418	47385	3113.702289835454	0.3
4418	47495	3114.210400996342	0.4
4418	47614	3114.7186268091	0.5
4418	47693	3115.027243939413	0.3
4418	48043	3116.20820605328	0.5
4418	48157	3116.61437325725	0.4
4418	48262	3117.019681871737	0.4
4418	48775	3216.3	0.1
4418	48793	3216.509156536858	0.2
4418	48857	3216.909662983568	0.4
4418	48931	3217.311767754335	0.4
4418	49077	3217.906476613676	0.4
4418	49224	3218.414578316357	0.5
4418	49352	3218.818682307164	0.4
4418	49524	3219.327738695683	0.5
4419	47	20.4	2
4419	83	20.611595234927	1
4419	161	21.017819607609	3
4419	192	21.218751346605	1
4419	901	23.604312447845	2
4419	997	23.904388560578	2
4419	1137	24.404519876024	4
4419	1661	123.5	1
4419	1732	124	4
4419	1777	124.203684284612	1
4419	1859	124.604357328037	3
4419	1961	125.011556193207	3
4419	2213	125.812396421262	7
4419	3543	227.9	1
4419	3701	228.5	5
4419	3894	229.101881022539	5
4419	4125	229.711426320895	5
4419	4218	230.012281483483	2
4419	5436	331.6	1
4419	5589	332	3
4419	5794	332.500248623427	4
4419	6802	434.1	1
4419	6896	434.5	3
4419	7086	435.105717993618	5
4419	7164	435.3145727591	1
4419	8311	536.9	0
4419	8386	537.2	2
4419	8492	537.602717756165	3
4419	9822	639.6	1
4419	9887	639.9	2
4419	9962	640.215155498669	2
4419	11353	742.7	2
4419	11439	743.1	3
4419	11582	743.603325891846	4
4419	12932	845.7	2
4419	13040	846.208647780173	4
4419	13119	846.513433915661	2
4419	13733	848.404808646559	8
4419	13872	848.912307171725	4
4419	13947	849.416659211869	4
4419	14500	948.5	1
4419	14534	948.7	1
4419	14621	949.103637310647	3
4419	15901	1051.4	2
4419	15942	1051.7	2
4419	15991	1051.903097607984	1
4419	17488	1154.3	1
4419	17504	1154.5	1
4419	17560	1154.905161484866	3
4419	17596	1155.105437332321	1
4419	17642	1155.305546818865	1
4419	19038	1257.6	2
4419	19059	1257.8	1
4419	19111	1258.102142834676	2
4419	19222	1258.528060458316	3
4419	19963	1261.001486327999	3
4419	20759	1360.8	2
4419	20785	1361	1
4419	20833	1361.208736786672	1
4419	20874	1361.41979960404	1
4419	22478	1463.7	2
4419	22496	1463.9	1
4419	22540	1464.110841288433	1
4419	22592	1464.420915083406	2
4419	22955	1465.90770336026	4
4419	23068	1466.211349539376	2
4419	23239	1466.703703731512	3
4419	23315	1466.909570567581	1
4419	24020	1566.8	1
4419	24035	1567	1
4419	24070	1567.208516467064	1
4419	24108	1567.413083142698	1
4419	25584	1669.9	2
4419	25618	1670.2	2
4419	25669	1670.508865542376	2
4419	25736	1670.811583515847	2
4419	27177	1773	0
4419	27192	1773.2	1
4419	27262	1773.606103093361	3
4419	27318	1773.827571835973	1
4419	27475	1774.413495481987	3
4419	27537	1774.626415606491	1
4419	27650	1775.031286905576	3
4419	28876	1876.2	1
4419	28921	1876.503908180699	2
4419	28975	1876.80776210538	2
4419	29019	1877.023407425536	1
4419	29612	1879.400593261648	5
4419	29697	1879.707205039816	2
4419	29765	1880.016770623153	2
4419	30332	1979.4	1
4419	30356	1979.600324409774	1
4419	30398	1979.811549031027	1
4419	30832	1981.507304890118	6
4419	30936	1981.820383795752	2
4419	31832	2082.3	1
4419	31853	2082.5	1
4419	31891	2082.708533243662	1
4419	31972	2083.110601550225	3
4419	32015	2083.31844753512	1
4419	32176	2083.905670077381	1
4419	32295	2084.316648264542	3
4419	32461	2084.819979381946	4
4419	32736	2085.623244134293	7
4419	33439	2185.6	2
4419	33486	2185.9	2
4419	33596	2186.415112665371	4
4419	33703	2186.826310961847	3
4419	33756	2187.028758470865	1
4419	34922	2289.2	1
4419	35022	2289.604630561848	3
4419	36479	2391.7	1
4419	36499	2391.904148962327	1
4419	36549	2392.20468640789	2
4419	36609	2392.506277363454	2
4419	38130	2494.7	1
4419	38144	2494.9	1
4419	38228	2495.317161299555	3
4419	38274	2495.563451594564	1
4419	39717	2598	2
4419	39777	2598.400945099459	3
4419	39822	2598.605704437088	1
4419	40241	2600.010728894208	5
4419	40385	2600.418692401511	3
4419	40535	2600.826854277971	3
4419	40697	2601.44004480316	5
4419	41215	2701	1
4419	41236	2701.2	1
4419	41272	2701.401175498727	1
4419	41313	2701.611402504198	1
4419	41532	2702.602635138269	3
4419	41669	2703.108391805811	4
4419	41916	2703.90490337647	5
4419	42082	2704.514632118248	5
4419	42165	2704.922927075842	3
4419	42782	2804.1	1
4419	42819	2804.4	2
4419	42881	2804.70096153099	2
4419	42964	2805.101061980988	3
4419	43050	2805.401352313603	2
4419	43499	2807.000185101898	3
4419	43665	2807.604508532979	5
4419	43715	2807.807527203962	1
4419	43785	2808.213336536902	3
4419	44481	2907.9	4
4419	44543	2908.2	2
4419	44593	2908.403216386087	1
4419	44637	2908.611091842186	1
4419	44727	2908.917910857191	2
4419	44794	2909.124447361412	1
4419	44860	2909.331559775718	1
4419	46243	3011.7	3
4419	46366	3012.200451266528	4
4419	46448	3012.503251356461	2
4419	46509	3012.708051622162	1
4419	46660	3013.211648987511	4
4419	46705	3013.42086833575	1
4419	47705	3115.1	0
4419	47803	3115.5	3
4419	47992	3116.014407779487	4
4419	49152	3218.2	3
4419	49264	3218.6	3
4419	49378	3218.909134044889	2
4419	49619	3219.616079579018	6
4420	47	20.4	0.75
4420	83	20.611595234927	0.875
4420	161	21.017819607609	0.625
4420	192	21.218751346605	0.89999999850988
4420	901	23.604312447845	0.92307692021132
4420	997	23.904388560578	0.92307692021132
4420	1137	24.404519876024	0.88888888806105
4420	1661	123.5	0.875
4420	1732	124	0.5
4420	1777	124.203684284612	0.88888888806105
4420	1859	124.604357328037	0.72727271914482
4420	1961	125.011556193207	0.79999999701977
4420	2213	125.812396421262	0.69565218687057
4420	3543	227.9	0.92307692021132
4420	3701	228.5	0.72222220897675
4420	3894	229.101881022539	0.78260870277882
4420	4125	229.711426320895	0.8214285671711
4420	4218	230.012281483483	0.93103448301554
4420	5436	331.6	0.91666666418314
4420	5589	332	0.8125
4420	5794	332.500248623427	0.82608695328236
4420	6802	434.1	0.9375
4420	6896	434.5	0.8125
4420	7086	435.105717993618	0.76190476119518
4420	7164	435.3145727591	0.95238095149398
4420	8311	536.9	1
4420	8386	537.2	0.85714285075665
4420	8492	537.602717756165	0.8125
4420	9822	639.6	0.88888888806105
4420	9887	639.9	0.83333332836628
4420	9962	640.215155498669	0.86666665971279
4420	11353	742.7	0.77777777612209
4420	11439	743.1	0.69999998807907
4420	11582	743.603325891846	0.71428570151329
4420	12932	845.7	0.75
4420	13040	846.208647780173	0.63636362552643
4420	13119	846.513433915661	0.83333332836628
4420	13733	848.404808646559	0.70370370149612
4420	13872	848.912307171725	0.86666665971279
4420	13947	849.416659211869	0.89473684132099
4420	14500	948.5	0.875
4420	14534	948.7	0.875
4420	14621	949.103637310647	0.66666665673256
4420	15901	1051.4	0.75
4420	15942	1051.7	0.75
4420	15991	1051.903097607984	0.875
4420	17488	1154.3	0.875
4420	17504	1154.5	0.875
4420	17560	1154.905161484866	0.625
4420	17596	1155.105437332321	0.88888888806105
4420	17642	1155.305546818865	0.88888888806105
4420	19038	1257.6	0.75
4420	19059	1257.8	0.875
4420	19111	1258.102142834676	0.75
4420	19222	1258.528060458316	0.69999998807907
4420	19963	1261.001486327999	0.88888888806105
4420	20759	1360.8	0.75
4420	20785	1361	0.875
4420	20833	1361.208736786672	0.875
4420	20874	1361.41979960404	0.875
4420	22478	1463.7	0.75
4420	22496	1463.9	0.875
4420	22540	1464.110841288433	0.875
4420	22592	1464.420915083406	0.77777777612209
4420	22955	1465.90770336026	0.78947368264198
4420	23068	1466.211349539376	0.90476190298796