version 2
run Stability-14-20130524-20:21:20-3483
attr configname Stability
attr datetime 20130524-20:21:20
attr experiment Stability
attr inifile omnetpp.ini
attr iterationvars $0=1e5
attr iterationvars2 "$0=1e5, $repetition=4"
attr measurement $0=1e5
attr network Network
attr processid 3483
attr repetition 4
attr replication #4
attr resultdir results
attr runnumber 14
attr seedset 14

vector 1344  Network.dyn_peer[0]  lookupHopsSig:vector  ETV
vector 1345  Network.dyn_peer[0]  lookupStabilitySig:vector  ETV
vector 1346  Network.dyn_peer[0]  lookupTimeSig:vector  ETV
vector 1347  Network.dyn_peer[1]  lookupHopsSig:vector  ETV
vector 1348  Network.dyn_peer[1]  lookupStabilitySig:vector  ETV
vector 1349  Network.dyn_peer[1]  lookupTimeSig:vector  ETV
vector 1350  Network.dyn_peer[2]  lookupHopsSig:vector  ETV
vector 1351  Network.dyn_peer[2]  lookupStabilitySig:vector  ETV
vector 1352  Network.dyn_peer[2]  lookupTimeSig:vector  ETV
vector 1353  Network.dyn_peer[3]  lookupHopsSig:vector  ETV
vector 1354  Network.dyn_peer[3]  lookupStabilitySig:vector  ETV
vector 1355  Network.dyn_peer[3]  lookupTimeSig:vector  ETV
vector 1356  Network.dyn_peer[4]  lookupHopsSig:vector  ETV
vector 1357  Network.dyn_peer[4]  lookupStabilitySig:vector  ETV
vector 1358  Network.dyn_peer[4]  lookupTimeSig:vector  ETV
vector 1359  Network.dyn_peer[5]  lookupHopsSig:vector  ETV
vector 1360  Network.dyn_peer[5]  lookupStabilitySig:vector  ETV
vector 1361  Network.dyn_peer[5]  lookupTimeSig:vector  ETV
vector 1362  Network.dyn_peer[6]  lookupHopsSig:vector  ETV
vector 1363  Network.dyn_peer[6]  lookupStabilitySig:vector  ETV
vector 1364  Network.dyn_peer[6]  lookupTimeSig:vector  ETV
vector 1365  Network.dyn_peer[7]  lookupHopsSig:vector  ETV
vector 1366  Network.dyn_peer[7]  lookupStabilitySig:vector  ETV
vector 1367  Network.dyn_peer[7]  lookupTimeSig:vector  ETV
vector 1368  Network.dyn_peer[8]  lookupHopsSig:vector  ETV
vector 1369  Network.dyn_peer[8]  lookupStabilitySig:vector  ETV
vector 1370  Network.dyn_peer[8]  lookupTimeSig:vector  ETV
vector 1371  Network.dyn_peer[9]  lookupHopsSig:vector  ETV
vector 1372  Network.dyn_peer[9]  lookupStabilitySig:vector  ETV
vector 1373  Network.dyn_peer[9]  lookupTimeSig:vector  ETV
vector 1374  Network.dyn_peer[10]  lookupHopsSig:vector  ETV
vector 1375  Network.dyn_peer[10]  lookupStabilitySig:vector  ETV
vector 1376  Network.dyn_peer[10]  lookupTimeSig:vector  ETV
vector 1377  Network.dyn_peer[11]  lookupHopsSig:vector  ETV
vector 1378  Network.dyn_peer[11]  lookupStabilitySig:vector  ETV
vector 1379  Network.dyn_peer[11]  lookupTimeSig:vector  ETV
vector 1380  Network.dyn_peer[12]  lookupHopsSig:vector  ETV
vector 1381  Network.dyn_peer[12]  lookupStabilitySig:vector  ETV
vector 1382  Network.dyn_peer[12]  lookupTimeSig:vector  ETV
vector 1383  Network.dyn_peer[13]  lookupHopsSig:vector  ETV
vector 1384  Network.dyn_peer[13]  lookupStabilitySig:vector  ETV
vector 1385  Network.dyn_peer[13]  lookupTimeSig:vector  ETV
vector 1386  Network.dyn_peer[14]  lookupHopsSig:vector  ETV
vector 1387  Network.dyn_peer[14]  lookupStabilitySig:vector  ETV
vector 1388  Network.dyn_peer[14]  lookupTimeSig:vector  ETV
vector 1389  Network.dyn_peer[15]  lookupHopsSig:vector  ETV
vector 1390  Network.dyn_peer[15]  lookupStabilitySig:vector  ETV
vector 1391  Network.dyn_peer[15]  lookupTimeSig:vector  ETV
vector 1392  Network.dyn_peer[16]  lookupHopsSig:vector  ETV
vector 1393  Network.dyn_peer[16]  lookupStabilitySig:vector  ETV
vector 1394  Network.dyn_peer[16]  lookupTimeSig:vector  ETV
vector 1395  Network.dyn_peer[17]  lookupHopsSig:vector  ETV
vector 1396  Network.dyn_peer[17]  lookupStabilitySig:vector  ETV
vector 1397  Network.dyn_peer[17]  lookupTimeSig:vector  ETV
vector 1398  Network.dyn_peer[18]  lookupHopsSig:vector  ETV
vector 1399  Network.dyn_peer[18]  lookupStabilitySig:vector  ETV
vector 1400  Network.dyn_peer[18]  lookupTimeSig:vector  ETV
vector 1401  Network.dyn_peer[19]  lookupHopsSig:vector  ETV
vector 1402  Network.dyn_peer[19]  lookupStabilitySig:vector  ETV
vector 1403  Network.dyn_peer[19]  lookupTimeSig:vector  ETV
vector 1404  Network.dyn_peer[20]  lookupHopsSig:vector  ETV
vector 1405  Network.dyn_peer[20]  lookupStabilitySig:vector  ETV
vector 1406  Network.dyn_peer[20]  lookupTimeSig:vector  ETV
vector 1407  Network.dyn_peer[21]  lookupHopsSig:vector  ETV
vector 1408  Network.dyn_peer[21]  lookupStabilitySig:vector  ETV
vector 1409  Network.dyn_peer[21]  lookupTimeSig:vector  ETV
vector 1410  Network.dyn_peer[22]  lookupHopsSig:vector  ETV
vector 1411  Network.dyn_peer[22]  lookupStabilitySig:vector  ETV
vector 1412  Network.dyn_peer[22]  lookupTimeSig:vector  ETV
vector 1413  Network.dyn_peer[23]  lookupHopsSig:vector  ETV
vector 1414  Network.dyn_peer[23]  lookupStabilitySig:vector  ETV
vector 1415  Network.dyn_peer[23]  lookupTimeSig:vector  ETV
vector 1416  Network.dyn_peer[24]  lookupHopsSig:vector  ETV
vector 1417  Network.dyn_peer[24]  lookupStabilitySig:vector  ETV
vector 1418  Network.dyn_peer[24]  lookupTimeSig:vector  ETV
vector 1419  Network.dyn_peer[25]  lookupHopsSig:vector  ETV
vector 1420  Network.dyn_peer[25]  lookupStabilitySig:vector  ETV
vector 1421  Network.dyn_peer[25]  lookupTimeSig:vector  ETV
vector 1422  Network.dyn_peer[26]  lookupHopsSig:vector  ETV
vector 1423  Network.dyn_peer[26]  lookupStabilitySig:vector  ETV
vector 1424  Network.dyn_peer[26]  lookupTimeSig:vector  ETV
vector 1425  Network.dyn_peer[27]  lookupHopsSig:vector  ETV
vector 1426  Network.dyn_peer[27]  lookupStabilitySig:vector  ETV
vector 1427  Network.dyn_peer[27]  lookupTimeSig:vector  ETV
vector 1428  Network.dyn_peer[28]  lookupHopsSig:vector  ETV
vector 1429  Network.dyn_peer[28]  lookupStabilitySig:vector  ETV
vector 1430  Network.dyn_peer[28]  lookupTimeSig:vector  ETV
vector 1431  Network.dyn_peer[29]  lookupHopsSig:vector  ETV
vector 1432  Network.dyn_peer[29]  lookupStabilitySig:vector  ETV
vector 1433  Network.dyn_peer[29]  lookupTimeSig:vector  ETV
vector 1434  Network.dyn_peer[30]  lookupHopsSig:vector  ETV
vector 1435  Network.dyn_peer[30]  lookupStabilitySig:vector  ETV
vector 1436  Network.dyn_peer[30]  lookupTimeSig:vector  ETV
vector 1437  Network.dyn_peer[31]  lookupHopsSig:vector  ETV
vector 1438  Network.dyn_peer[31]  lookupStabilitySig:vector  ETV
vector 1439  Network.dyn_peer[31]  lookupTimeSig:vector  ETV
1344	33	120.2	2
1344	37	120.5	2
1344	42	120.802650786044	2
1344	46	121.004470863632	1
1344	1067	3320.2	2
1344	1070	3320.4	1
1344	1076	3320.613970226024	1
1344	1082	3320.834281197494	1
1344	2098	6520	0
1344	2104	6520.310260371225	2
1344	2110	6520.618639854524	2
1344	2115	6520.928013170983	2
1344	3182	9720.2	2
1344	3185	9720.4	1
1344	3191	9720.712656220055	2
1344	3201	9720.954025574887	1
1344	4234	12920.1	1
1344	4237	12920.3	1
1344	4241	12920.503979086354	1
1344	4246	12920.715872016606	1
1344	5269	16120.2	2
1344	5273	16120.5	2
1344	5278	16120.808056808048	2
1344	5282	16121.01212227976	1
1344	6278	19320.2	2
1344	6281	19320.4	1
1344	6287	19320.618104517386	1
1344	6291	19320.828100989629	1
1344	7339	22520.1	1
1344	7343	22520.4	2
1344	7347	22520.609052975967	1
1344	7355	22520.923174414703	2
1344	8347	25720.1	1
1344	8351	25720.4	2
1344	8357	25720.613812606522	1
1344	8362	25720.816006660531	1
1344	9374	28920.2	2
1344	9377	28920.4	1
1344	9387	28920.636540118655	1
1344	9394	28920.85783945329	1
1344	10444	32120.1	1
1344	10450	32120.408294037657	2
1344	10455	32120.711402174017	2
1344	10460	32120.91713040432	1
1344	11488	35320.1	1
1344	11492	35320.305385534972	1
1344	11502	35320.536316129483	1
1344	11507	35320.748833725001	1
1344	12526	38520.2	2
1344	12529	38520.4	1
1344	12533	38520.608672688249	1
1344	12538	38520.824032336074	1
1344	13603	41720.1	1
1344	13606	41720.3	1
1344	13610	41720.500656732404	1
1344	13616	41720.716575074066	1
1344	14641	44920.1	1
1344	14645	44920.4	2
1344	14650	44920.708882297617	2
1344	14656	44920.924903352613	1
1344	15663	48120.2	2
1344	15667	48120.5	2
1344	15671	48120.705765508727	1
1344	15678	48120.923298979999	1
1344	16683	51320.1	1
1344	16686	51320.3	1
1344	16690	51320.507477065573	1
1344	16694	51320.711755972808	1
1344	17716	54520.1	1
1344	17720	54520.4	2
1344	17726	54520.615311455861	1
1344	17731	54520.920597299697	2
1344	18750	57720.1	1
1344	18753	57720.3	1
1344	18757	57720.50046047941	1
1344	18761	57720.7039680452	1
1344	19759	60920.1	1
1344	19762	60920.3	1
1344	19766	60920.505366268046	1
1344	19772	60920.711504782833	1
1344	20801	64120	0
1344	20806	64120.217977594923	1
1344	20811	64120.431316137026	1
1344	20817	64120.652580146323	1
1344	21860	67320	0
1344	21866	67320.221300336904	1
1344	21872	67320.528555817308	2
1344	21881	67320.758557942879	1
1344	22928	70520.1	1
1344	22931	70520.3	1
1344	22935	70520.505281314232	1
1344	22941	70520.815493390614	2
1344	23975	73720.2	2
1344	23979	73720.5	2
1344	23984	73720.809342553899	2
1344	23990	73721.02111009501	1
1344	25060	76920.1	1
1344	25065	76920.406173989796	2
1344	25071	76920.815764688611	3
1344	25075	76921.022837573512	1
1344	26086	80120.1	1
1344	26091	80120.5	3
1344	26095	80120.706988531511	1
1344	26099	80120.914686217807	1
1344	27114	83320.1	1
1344	27119	83320.312559316574	1
1344	27124	83320.616265389992	2
1344	27131	83320.838013701524	1
1344	28188	86520.2	2
1344	28193	86520.508654520993	2
1344	28198	86520.724419040976	1
1344	28205	86520.937494033453	1
1344	29215	89720.2	2
1344	29219	89720.5	2
1344	29225	89720.81201724332	2
1344	29229	89721.014404551812	1
1344	30257	92920.1	1
1344	30260	92920.3	1
1344	30272	92920.54665633055	1
1344	30281	92920.87942130112	2
1344	31309	96120.1	1
1344	31316	96120.409402281782	2
1344	31320	96120.617922879697	1
1344	31334	96120.880611494306	1
1344	32377	99320.1	1
1344	32381	99320.30895866289	1
1344	32387	99320.62291694655	2
1344	32399	99320.858825836104	1
1345	33	120.2	0.75
1345	37	120.5	0.75
1345	42	120.802650786044	0.75
1345	46	121.004470863632	0.875
1345	1067	3320.2	0.75
1345	1070	3320.4	0.875
1345	1076	3320.613970226024	0.875
1345	1082	3320.834281197494	0.875
1345	2098	6520	1
1345	2104	6520.310260371225	0.75
1345	2110	6520.618639854524	0.75
1345	2115	6520.928013170983	0.75
1345	3182	9720.2	0.75
1345	3185	9720.4	0.875
1345	3191	9720.712656220055	0.75
1345	3201	9720.954025574887	0.875
1345	4234	12920.1	0.875
1345	4237	12920.3	0.875
1345	4241	12920.503979086354	0.875
1345	4246	12920.715872016606	0.875
1345	5269	16120.2	0.75
1345	5273	16120.5	0.75
1345	5278	16120.808056808048	0.75
1345	5282	16121.01212227976	0.875
1345	6278	19320.2	0.75
1345	6281	19320.4	0.875
1345	6287	19320.618104517386	0.875
1345	6291	19320.828100989629	0.875
1345	7339	22520.1	0.875
1345	7343	22520.4	0.75
1345	7347	22520.609052975967	0.875
1345	7355	22520.923174414703	0.75
1345	8347	25720.1	0.875
1345	8351	25720.4	0.75
1345	8357	25720.613812606522	0.875
1345	8362	25720.816006660531	0.875
1345	9374	28920.2	0.75
1345	9377	28920.4	0.875
1345	9387	28920.636540118655	0.875
1345	9394	28920.85783945329	0.875
1345	10444	32120.1	0.875
1345	10450	32120.408294037657	0.75
1345	10455	32120.711402174017	0.75
1345	10460	32120.91713040432	0.875
1345	11488	35320.1	0.875
1345	11492	35320.305385534972	0.875
1345	11502	35320.536316129483	0.875
1345	11507	35320.748833725001	0.875
1345	12526	38520.2	0.75
1345	12529	38520.4	0.875
1345	12533	38520.608672688249	0.875
1345	12538	38520.824032336074	0.875
1345	13603	41720.1	0.875
1345	13606	41720.3	0.875
1345	13610	41720.500656732404	0.875
1345	13616	41720.716575074066	0.875
1345	14641	44920.1	0.875
1345	14645	44920.4	0.75
1345	14650	44920.708882297617	0.75
1345	14656	44920.924903352613	0.875
1345	15663	48120.2	0.75
1345	15667	48120.5	0.75
1345	15671	48120.705765508727	0.875
1345	15678	48120.923298979999	0.875
1345	16683	51320.1	0.875
1345	16686	51320.3	0.875
1345	16690	51320.507477065573	0.875
1345	16694	51320.711755972808	0.875
1345	17716	54520.1	0.875
1345	17720	54520.4	0.75
1345	17726	54520.615311455861	0.875
1345	17731	54520.920597299697	0.75
1345	18750	57720.1	0.875
1345	18753	57720.3	0.875
1345	18757	57720.50046047941	0.875
1345	18761	57720.7039680452	0.875
1345	19759	60920.1	0.875
1345	19762	60920.3	0.875
1345	19766	60920.505366268046	0.875
1345	19772	60920.711504782833	0.875
1345	20801	64120	1
1345	20806	64120.217977594923	0.875
1345	20811	64120.431316137026	0.875
1345	20817	64120.652580146323	0.875
1345	21860	67320	1
1345	21866	67320.221300336904	0.875
1345	21872	67320.528555817308	0.75
1345	21881	67320.758557942879	0.875
1345	22928	70520.1	0.875
1345	22931	70520.3	0.875
1345	22935	70520.505281314232	0.875
1345	22941	70520.815493390614	0.75
1345	23975	73720.2	0.75
1345	23979	73720.5	0.75
1345	23984	73720.809342553899	0.75
1345	23990	73721.02111009501	0.875
1345	25060	76920.1	0.875
1345	25065	76920.406173989796	0.75
1345	25071	76920.815764688611	0.625
1345	25075	76921.022837573512	0.875
1345	26086	80120.1	0.875
1345	26091	80120.5	0.625
1345	26095	80120.706988531511	0.875
1345	26099	80120.914686217807	0.875
1345	27114	83320.1	0.875
1345	27119	83320.312559316574	0.875
1345	27124	83320.616265389992	0.75
1345	27131	83320.838013701524	0.875
1345	28188	86520.2	0.75
1345	28193	86520.508654520993	0.75
1345	28198	86520.724419040976	0.875
1345	28205	86520.937494033453	0.875
1345	29215	89720.2	0.75
1345	29219	89720.5	0.75
1345	29225	89720.81201724332	0.75
1345	29229	89721.014404551812	0.875
1345	30257	92920.1	0.875
1345	30260	92920.3	0.875
1345	30272	92920.54665633055	0.875
1345	30281	92920.87942130112	0.75
1345	31309	96120.1	0.875
1345	31316	96120.409402281782	0.75
1345	31320	96120.617922879697	0.875
1345	31334	96120.880611494306	0.875
1345	32377	99320.1	0.875
1345	32381	99320.30895866289	0.875
1345	32387	99320.62291694655	0.75
1345	32399	99320.858825836104	0.875
1346	33	120.2	0.2
1346	37	120.5	0.3
1346	42	120.802650786044	0.3
1346	46	121.004470863632	0.2
1346	1067	3320.2	0.2
1346	1070	3320.4	0.2
1346	1076	3320.613970226024	0.2
1346	1082	3320.834281197494	0.2
1346	2098	6520	0
1346	2104	6520.310260371225	0.3
1346	2110	6520.618639854524	0.3
1346	2115	6520.928013170983	0.3
1346	3182	9720.2	0.2
1346	3185	9720.4	0.2
1346	3191	9720.712656220055	0.3
1346	3201	9720.954025574887	0.2
1346	4234	12920.1	0.1
1346	4237	12920.3	0.2
1346	4241	12920.503979086354	0.2
1346	4246	12920.715872016606	0.2
1346	5269	16120.2	0.2
1346	5273	16120.5	0.3
1346	5278	16120.808056808048	0.3
1346	5282	16121.01212227976	0.2
1346	6278	19320.2	0.2
1346	6281	19320.4	0.2
1346	6287	19320.618104517386	0.2
1346	6291	19320.828100989629	0.2
1346	7339	22520.1	0.1
1346	7343	22520.4	0.3
1346	7347	22520.609052975967	0.2
1346	7355	22520.923174414703	0.3
1346	8347	25720.1	0.1
1346	8351	25720.4	0.3
1346	8357	25720.613812606522	0.2
1346	8362	25720.816006660531	0.2
1346	9374	28920.2	0.2
1346	9377	28920.4	0.2
1346	9387	28920.636540118655	0.2
1346	9394	28920.85783945329	0.2
1346	10444	32120.1	0.1
1346	10450	32120.408294037657	0.3
1346	10455	32120.711402174017	0.3
1346	10460	32120.91713040432	0.2
1346	11488	35320.1	0.1
1346	11492	35320.305385534972	0.2
1346	11502	35320.536316129483	0.2
1346	11507	35320.748833725001	0.2
1346	12526	38520.2	0.2
1346	12529	38520.4	0.2
1346	12533	38520.608672688249	0.2
1346	12538	38520.824032336074	0.2
1346	13603	41720.1	0.1
1346	13606	41720.3	0.2
1346	13610	41720.500656732404	0.2
1346	13616	41720.716575074066	0.2
1346	14641	44920.1	0.1
1346	14645	44920.4	0.3
1346	14650	44920.708882297617	0.3
1346	14656	44920.924903352613	0.2
1346	15663	48120.2	0.2
1346	15667	48120.5	0.3
1346	15671	48120.705765508727	0.2
1346	15678	48120.923298979999	0.2
1346	16683	51320.1	0.1
1346	16686	51320.3	0.2
1346	16690	51320.507477065573	0.2
1346	16694	51320.711755972808	0.2
1346	17716	54520.1	0.1
1346	17720	54520.4	0.3
1346	17726	54520.615311455861	0.2
1346	17731	54520.920597299697	0.3
1346	18750	57720.1	0.1
1346	18753	57720.3	0.2
1346	18757	57720.50046047941	0.2
1346	18761	57720.7039680452	0.2
1346	19759	60920.1	0.1
1346	19762	60920.3	0.2
1346	19766	60920.505366268046	0.2
1346	19772	60920.711504782833	0.2
1346	20801	64120	0
1346	20806	64120.217977594923	0.2
1346	20811	64120.431316137026	0.2
1346	20817	64120.652580146323	0.2
1346	21860	67320	0
1346	21866	67320.221300336904	0.2
1346	21872	67320.528555817308	0.3
1346	21881	67320.758557942879	0.2
1346	22928	70520.1	0.1
1346	22931	70520.3	0.2
1346	22935	70520.505281314232	0.2
1346	22941	70520.815493390614	0.3
1346	23975	73720.2	0.2
1346	23979	73720.5	0.3
1346	23984	73720.809342553899	0.3
1346	23990	73721.02111009501	0.2
1346	25060	76920.1	0.1
1346	25065	76920.406173989796	0.3
1346	25071	76920.815764688611	0.4
1346	25075	76921.022837573512	0.2
1346	26086	80120.1	0.1
1346	26091	80120.5	0.4
1346	26095	80120.706988531511	0.2
1346	26099	80120.914686217807	0.2
1346	27114	83320.1	0.1
1346	27119	83320.312559316574	0.2
1346	27124	83320.616265389992	0.3
1346	27131	83320.838013701524	0.2
1346	28188	86520.2	0.2
1346	28193	86520.508654520993	0.3
1346	28198	86520.724419040976	0.2
1346	28205	86520.937494033453	0.2
1346	29215	89720.2	0.2
1346	29219	89720.5	0.3
1346	29225	89720.81201724332	0.3
1346	29229	89721.014404551812	0.2
1346	30257	92920.1	0.1
1346	30260	92920.3	0.2
1346	30272	92920.54665633055	0.2
1346	30281	92920.87942130112	0.3
1346	31309	96120.1	0.1
1346	31316	96120.409402281782	0.3
1346	31320	96120.617922879697	0.2
1346	31334	96120.880611494306	0.2
1346	32377	99320.1	0.1
1346	32381	99320.30895866289	0.2
1346	32387	99320.62291694655	0.3
1346	32399	99320.858825836104	0.2
1347	63	220.1	1
1347	68	220.401704022136	2
1347	74	220.621241002912	1
1347	79	220.828974688697	1
1347	1100	3420.2	2
1347	1104	3420.5	2
1347	1109	3420.718734589258	1
1347	1116	3420.943306189102	1
1347	2132	6620.1	1
1347	2137	6620.40670387505	2
1347	2143	6620.61752877546	1
1347	2148	6620.924031166955	2
1347	3219	9820.2	2
1347	3224	9820.6	3
1347	3228	9820.801999478226	1
1347	3232	9821.010978347831	1
1347	4262	13020	0
1347	4265	13020.2	1
1347	4276	13020.439119297295	1
1347	4281	13020.74702912855	2
1347	5299	16220.1	1
1347	5302	16220.3	1
1347	5308	16220.521817282182	1
1347	5312	16220.726556859798	1
1347	6309	19420.2	2
1347	6313	19420.403114394273	1
1347	6317	19420.61187780755	1
1347	6323	19420.833995177766	1
1347	7373	22620.2	2
1347	7377	22620.5	2
1347	7382	22620.808912682582	2
1347	7387	22621.117841069318	2
1347	8379	25820.1	1
1347	8383	25820.302928908974	1
1347	8387	25820.503137588197	1
1347	8394	25820.711912996296	1
1347	9411	29020.1	1
1347	9417	29020.312239146774	1
1347	9421	29020.520967250402	1
1347	9425	29020.728584471743	1
1347	10477	32220.1	1
1347	10481	32220.4	2
1347	10486	32220.708281144991	2
1347	10492	32220.921834239481	1
1347	11524	35420.1	1
1347	11528	35420.4	2
1347	11532	35420.605636655713	1
1347	11546	35420.864146983812	1
1347	12555	38620.1	1
1347	12559	38620.306193927584	1
1347	12564	38620.518700231393	1
1347	12575	38620.851384120912	2
1347	13634	41820.2	2
1347	13638	41820.5	2
1347	13642	41820.70678350178	1
1347	13647	41821.016187767914	2
1347	14673	45020.1	1
1347	14676	45020.3	1
1347	14681	45020.600539252425	2
1347	14688	45020.827055878436	1
1347	15696	48220.2	2
1347	15700	48220.5	2
1347	15705	48220.806728264549	2
1347	15711	48221.016279604361	1
1347	16711	51420.1	1
1347	16715	51420.301995496859	1
1347	16720	51420.513406364595	1
1347	16726	51420.91813504424	3
1347	17748	54620.1	1
1347	17752	54620.4	2
1347	17757	54620.606397108612	1
1347	17762	54620.815251809594	1
1347	18778	57820.1	1
1347	18782	57820.4	2
1347	18787	57820.613214553733	1
1347	18794	57820.838505036269	1
1347	19790	61020.2	2
1347	19793	61020.4	1
1347	19797	61020.600044065527	1
1347	19803	61020.817785965737	1
1347	20835	64220.2	2
1347	20839	64220.402282969274	1
1347	20844	64220.706042900828	2
1347	20855	64220.94727761371	1
1347	21898	67420.1	1
1347	21902	67420.4	2
1347	21906	67420.609797493903	1
1347	21913	67420.927606124808	2
1347	22959	70620.2	2
1347	22962	70620.4	1
1347	22967	70620.701994356496	2
1347	22971	70620.911926542526	1
1347	24007	73820.1	1
1347	24010	73820.3	1
1347	24014	73820.506047995791	1
1347	24019	73820.720521630206	1
1347	25092	77020.1	1
1347	25096	77020.307629344107	1
1347	25103	77020.720273931947	3
1347	25110	77020.947008080288	1
1347	26117	80220.2	2
1347	26123	80220.513138389526	2
1347	26134	80220.849823912683	2
1347	26138	80221.051253881308	1
1347	27148	83420.1	1
1347	27152	83420.307837423882	1
1347	27157	83420.521249396571	1
1347	27162	83420.727272958385	1
1347	28222	86620.1	1
1347	28227	86620.408568997953	2
1347	28232	86620.7086999445	2
1347	28238	86620.92190387043	1
1347	29245	89820	0
1347	29248	89820.2	1
1347	29253	89820.409066678906	1
1347	29257	89820.618864839867	1
1347	30299	93020.2	2
1347	30302	93020.4	1
1347	30306	93020.606082126025	1
1347	30318	93020.948234452198	2
1347	31352	96220.2	2
1347	31355	96220.4	1
1347	31361	96220.710132781935	2
1347	31367	96220.922217324074	1
1347	32417	99420.2	2
1347	32421	99420.5	2
1347	32426	99420.806825421815	2
1347	32432	99421.016989244737	1
1348	63	220.1	0.875
1348	68	220.401704022136	0.75
1348	74	220.621241002912	0.875
1348	79	220.828974688697	0.875
1348	1100	3420.2	0.75
1348	1104	3420.5	0.75
1348	1109	3420.718734589258	0.875
1348	1116	3420.943306189102	0.875
1348	2132	6620.1	0.875
1348	2137	6620.40670387505	0.75
1348	2143	6620.61752877546	0.875
1348	2148	6620.924031166955	0.75
1348	3219	9820.2	0.75
1348	3224	9820.6	0.625
1348	3228	9820.801999478226	0.875
1348	3232	9821.010978347831	0.875
1348	4262	13020	1
1348	4265	13020.2	0.875
1348	4276	13020.439119297295	0.875
1348	4281	13020.74702912855	0.75
1348	5299	16220.1	0.875
1348	5302	16220.3	0.875
1348	5308	16220.521817282182	0.875
1348	5312	16220.726556859798	0.875
1348	6309	19420.2	0.75
1348	6313	19420.403114394273	0.875
1348	6317	19420.61187780755	0.875
1348	6323	19420.833995177766	0.875
1348	7373	22620.2	0.75
1348	7377	22620.5	0.75
1348	7382	22620.808912682582	0.75
1348	7387	22621.117841069318	0.75
1348	8379	25820.1	0.875
1348	8383	25820.302928908974	0.875
1348	8387	25820.503137588197	0.875
1348	8394	25820.711912996296	0.875
1348	9411	29020.1	0.875
1348	9417	29020.312239146774	0.875
1348	9421	29020.520967250402	0.875
1348	9425	29020.728584471743	0.875
1348	10477	32220.1	0.875
1348	10481	32220.4	0.75
1348	10486	32220.708281144991	0.75
1348	10492	32220.921834239481	0.875
1348	11524	35420.1	0.875
1348	11528	35420.4	0.75
1348	11532	35420.605636655713	0.875
1348	11546	35420.864146983812	0.875
1348	12555	38620.1	0.875
1348	12559	38620.306193927584	0.875
1348	12564	38620.518700231393	0.875
1348	12575	38620.851384120912	0.75
1348	13634	41820.2	0.75
1348	13638	41820.5	0.75
1348	13642	41820.70678350178	0.875
1348	13647	41821.016187767914	0.75
1348	14673	45020.1	0.875
1348	14676	45020.3	0.875
1348	14681	45020.600539252425	0.75
1348	14688	45020.827055878436	0.875
1348	15696	48220.2	0.75
1348	15700	48220.5	0.75
1348	15705	48220.806728264549	0.75
1348	15711	48221.016279604361	0.875
1348	16711	51420.1	0.875
1348	16715	51420.301995496859	0.875
1348	16720	51420.513406364595	0.875
1348	16726	51420.91813504424	0.625
1348	17748	54620.1	0.875
1348	17752	54620.4	0.75
1348	17757	54620.606397108612	0.875
1348	17762	54620.815251809594	0.875
1348	18778	57820.1	0.875
1348	18782	57820.4	0.75
1348	18787	57820.613214553733	0.875
1348	18794	57820.838505036269	0.875
1348	19790	61020.2	0.75
1348	19793	61020.4	0.875
1348	19797	61020.600044065527	0.875
1348	19803	61020.817785965737	0.875
1348	20835	64220.2	0.75
1348	20839	64220.402282969274	0.875
1348	20844	64220.706042900828	0.75
1348	20855	64220.94727761371	0.875
1348	21898	67420.1	0.875
1348	21902	67420.4	0.75
1348	21906	67420.609797493903	0.875
1348	21913	67420.927606124808	0.75
1348	22959	70620.2	0.75
1348	22962	70620.4	0.875
1348	22967	70620.701994356496	0.75
1348	22971	70620.911926542526	0.875
1348	24007	73820.1	0.875
1348	24010	73820.3	0.875
1348	24014	73820.506047995791	0.875
1348	24019	73820.720521630206	0.875
1348	25092	77020.1	0.875
1348	25096	77020.307629344107	0.875
1348	25103	77020.720273931947	0.625
1348	25110	77020.947008080288	0.875
1348	26117	80220.2	0.75
1348	26123	80220.513138389526	0.75
1348	26134	80220.849823912683	0.75
1348	26138	80221.051253881308	0.875
1348	27148	83420.1	0.875
1348	27152	83420.307837423882	0.875
1348	27157	83420.521249396571	0.875
1348	27162	83420.727272958385	0.875
1348	28222	86620.1	0.875
1348	28227	86620.408568997953	0.75
1348	28232	86620.7086999445	0.75
1348	28238	86620.92190387043	0.875
1348	29245	89820	1
1348	29248	89820.2	0.875
1348	29253	89820.409066678906	0.875
1348	29257	89820.618864839867	0.875
1348	30299	93020.2	0.75
1348	30302	93020.4	0.875
1348	30306	93020.606082126025	0.875
1348	30318	93020.948234452198	0.75
1348	31352	96220.2	0.75
1348	31355	96220.4	0.875
1348	31361	96220.710132781935	0.75
1348	31367	96220.922217324074	0.875
1348	32417	99420.2	0.75
1348	32421	99420.5	0.75
1348	32426	99420.806825421815	0.75
1348	32432	99421.016989244737	0.875
1349	63	220.1	0.1
1349	68	220.401704022136	0.3
1349	74	220.621241002912	0.2
1349	79	220.828974688697	0.2
1349	1100	3420.2	0.2
1349	1104	3420.5	0.3
1349	1109	3420.718734589258	0.2
1349	1116	3420.943306189102	0.2
1349	2132	6620.1	0.1
1349	2137	6620.40670387505	0.3
1349	2143	6620.61752877546	0.2
1349	2148	6620.924031166955	0.3
1349	3219	9820.2	0.2
1349	3224	9820.6	0.4
1349	3228	9820.801999478226	0.2
1349	3232	9821.010978347831	0.2
1349	4262	13020	0
1349	4265	13020.2	0.2
1349	4276	13020.439119297295	0.2
1349	4281	13020.74702912855	0.3
1349	5299	16220.1	0.1
1349	5302	16220.3	0.2
1349	5308	16220.521817282182	0.2
1349	5312	16220.726556859798	0.2
1349	6309	19420.2	0.2
1349	6313	19420.403114394273	0.2
1349	6317	19420.61187780755	0.2
1349	6323	19420.833995177766	0.2
1349	7373	22620.2	0.2
1349	7377	22620.5	0.3
1349	7382	22620.808912682582	0.3
1349	7387	22621.117841069318	0.3
1349	8379	25820.1	0.1
1349	8383	25820.302928908974	0.2
1349	8387	25820.503137588197	0.2
1349	8394	25820.711912996296	0.2
1349	9411	29020.1	0.1
1349	9417	29020.312239146774	0.2
1349	9421	29020.520967250402	0.2
1349	9425	29020.728584471743	0.2
1349	10477	32220.1	0.1
1349	10481	32220.4	0.3
1349	10486	32220.708281144991	0.3
1349	10492	32220.921834239481	0.2
1349	11524	35420.1	0.1
1349	11528	35420.4	0.3
1349	11532	35420.605636655713	0.2
1349	11546	35420.864146983812	0.2
1349	12555	38620.1	0.1
1349	12559	38620.306193927584	0.2
1349	12564	38620.518700231393	0.2
1349	12575	38620.851384120912	0.3
1349	13634	41820.2	0.2
1349	13638	41820.5	0.3
1349	13642	41820.70678350178	0.2
1349	13647	41821.016187767914	0.3
1349	14673	45020.1	0.1
1349	14676	45020.3	0.2
1349	14681	45020.600539252425	0.3
1349	14688	45020.827055878436	0.2
1349	15696	48220.2	0.2
1349	15700	48220.5	0.3
1349	15705	48220.806728264549	0.3
1349	15711	48221.016279604361	0.2
1349	16711	51420.1	0.1
1349	16715	51420.301995496859	0.2
1349	16720	51420.513406364595	0.2
1349	16726	51420.91813504424	0.4
1349	17748	54620.1	0.1
1349	17752	54620.4	0.3
1349	17757	54620.606397108612	0.2
1349	17762	54620.815251809594	0.2
1349	18778	57820.1	0.1
1349	18782	57820.4	0.3
1349	18787	57820.613214553733	0.2
1349	18794	57820.838505036269	0.2
1349	19790	61020.2	0.2
1349	19793	61020.4	0.2
1349	19797	61020.600044065527	0.2
1349	19803	61020.817785965737	0.2
1349	20835	64220.2	0.2
1349	20839	64220.402282969274	0.2
1349	20844	64220.706042900828	0.3
1349	20855	64220.94727761371	0.2
1349	21898	67420.1	0.1
1349	21902	67420.4	0.3
1349	21906	67420.609797493903	0.2
1349	21913	67420.927606124808	0.3
1349	22959	70620.2	0.2
1349	22962	70620.4	0.2
1349	22967	70620.701994356496	0.3
1349	22971	70620.911926542526	0.2
1349	24007	73820.1	0.1
1349	24010	73820.3	0.2
1349	24014	73820.506047995791	0.2
1349	24019	73820.720521630206	0.2
1349	25092	77020.1	0.1
1349	25096	77020.307629344107	0.2
1349	25103	77020.720273931947	0.4
1349	25110	77020.947008080288	0.2
1349	26117	80220.2	0.2
1349	26123	80220.513138389526	0.3
1349	26134	80220.849823912683	0.3
1349	26138	80221.051253881308	0.2
1349	27148	83420.1	0.1
1349	27152	83420.307837423882	0.2
1349	27157	83420.521249396571	0.2
1349	27162	83420.727272958385	0.2
1349	28222	86620.1	0.1
1349	28227	86620.408568997953	0.3
1349	28232	86620.7086999445	0.3
1349	28238	86620.92190387043	0.2
1349	29245	89820	0
1349	29248	89820.2	0.2
1349	29253	89820.409066678906	0.2
1349	29257	89820.618864839867	0.2
1349	30299	93020.2	0.2
1349	30302	93020.4	0.2
1349	30306	93020.606082126025	0.2
1349	30318	93020.948234452198	0.3
1349	31352	96220.2	0.2
1349	31355	96220.4	0.2
1349	31361	96220.710132781935	0.3
1349	31367	96220.922217324074	0.2
1349	32417	99420.2	0.2
1349	32421	99420.5	0.3
1349	32426	99420.806825421815	0.3
1349	32432	99421.016989244737	0.2
1350	96	320.1	1
1350	100	320.4	2
1350	104	320.609152509148	1
1350	108	320.816467320378	1
1350	1134	3520.2	2
1350	1137	3520.4	1
1350	1148	3520.634440774943	1
1350	1155	3520.856698982529	1
1350	2165	6720.1	1
1350	2168	6720.3	1
1350	2172	6720.508348547043	1
1350	2180	6720.737272792219	1
1350	3250	9920.2	2
1350	3253	9920.4	1
1350	3257	9920.601789762906	1
1350	3261	9920.806203591781	1
1350	4298	13120.1	1
1350	4301	13120.3	1
1350	4307	13120.612758025501	2
1350	4312	13120.818773637934	1
1350	5329	16320.1	1
1350	5333	16320.4	2
1350	5339	16320.610006606422	1
1350	5344	16320.827283449979	1
1350	6340	19520.1	1
1350	6344	19520.4	2
1350	6350	19520.611190317541	1
1350	6358	19520.842494313672	1
1350	7405	22720.2	2
1350	7408	22720.4	1
1350	7415	22720.621606933939	1
1350	7421	22720.839406260498	1
1350	8412	25920.2	2
1350	8415	25920.4	1
1350	8421	25920.709218091852	2
1350	8425	25920.919216762698	1
1350	9442	29120.1	1
1350	9445	29120.3	1
1350	9452	29120.523518370156	1
1350	9457	29120.727453186752	1
1350	10510	32320.2	2
1350	10513	32320.4	1
1350	10518	32320.708771037936	2
1350	10523	32320.917127216545	1
1350	11564	35520.2	2
1350	11567	35520.4	1
1350	11571	35520.607830287616	1
1350	11576	35520.909948546129	2
1350	12592	38720.1	1
1350	12597	38720.5	3
1350	12601	38720.707863781787	1
1350	12609	38720.92158088868	1
1350	13664	41920.1	1
1350	13668	41920.4	2
1350	13672	41920.606307921237	1
1350	13678	41920.8207024175	1
1350	14705	45120.1	1
1350	14709	45120.4	2
1350	14713	45120.607082274542	1
1350	14717	45120.815350591775	1
1350	15728	48320.1	1
1350	15732	48320.4	2
1350	15736	48320.601681831867	1
1350	15740	48320.807792832235	1