file 356222 1369674149                                          
version 2
run Stability-1-20130524-20:20:59-3483
attr configname Stability
attr datetime 20130524-20:20:59
attr experiment Stability
attr inifile omnetpp.ini
attr iterationvars $0=1e6
attr iterationvars2 "$0=1e6, $repetition=1"
attr measurement $0=1e6
attr network Network
attr processid 3483
attr repetition 1
attr replication #1
attr resultdir results
attr runnumber 1
attr seedset 1
vector 96  Network.dyn_peer[0]  lookupHopsSig:vector  ETV
96	6273 3251 42 41124 1020.2 993020.965605078043 128 0 2 160 234
vector 97  Network.dyn_peer[0]  lookupStabilitySig:vector  ETV
97	9524 3706 42 41124 1020.2 993020.965605078043 128 0.75 1 108 91.65625
vector 98  Network.dyn_peer[0]  lookupTimeSig:vector  ETV
98	13230 3497 42 41124 1020.2 993020.965605078043 128 0 0.3 25.6 5.78
vector 99  Network.dyn_peer[1]  lookupHopsSig:vector  ETV
99	16727 3233 82 41161 2020.2 994020.71782928392 128 0 3 176 292
vector 100  Network.dyn_peer[1]  lookupStabilitySig:vector  ETV
100	19960 3817 82 41161 2020.2 994020.71782928392 128 0.625 1 106 88.5625
vector 101  Network.dyn_peer[1]  lookupTimeSig:vector  ETV
101	23777 3609 82 41161 2020.2 994020.71782928392 128 0 0.4 27.2 6.5
vector 102  Network.dyn_peer[2]  lookupHopsSig:vector  ETV
102	27386 3417 121 41201 3020.2 995020.819894353605 128 0 3 172 274
vector 103  Network.dyn_peer[2]  lookupStabilitySig:vector  ETV
103	30803 3871 121 41201 3020.2 995020.819894353605 128 0.625 1 106.5 89.28125
vector 104  Network.dyn_peer[2]  lookupTimeSig:vector  ETV
104	34674 3665 121 41201 3020.2 995020.819894353605 128 0 0.4 26.8 6.28
vector 105  Network.dyn_peer[3]  lookupHopsSig:vector  ETV
105	38339 3393 158 41239 4020.1 996020.715756263603 128 0 3 172 272
vector 106  Network.dyn_peer[3]  lookupStabilitySig:vector  ETV
106	41732 3845 158 41239 4020.1 996020.715756263603 128 0.625 1 106.5 89.25
vector 107  Network.dyn_peer[3]  lookupTimeSig:vector  ETV
107	45577 3641 158 41239 4020.1 996020.715756263603 128 0 0.4 26.8 6.32
vector 108  Network.dyn_peer[4]  lookupHopsSig:vector  ETV
108	49218 3400 201 41283 5020.2 997020.830501290372 128 0 3 157 231
vector 109  Network.dyn_peer[4]  lookupStabilitySig:vector  ETV
109	52618 3857 201 41283 5020.2 997020.830501290372 128 0.625 1 108.375 92.359375
vector 110  Network.dyn_peer[4]  lookupTimeSig:vector  ETV
110	56475 3644 201 41283 5020.2 997020.830501290372 128 0 0.4 25.3 5.79
vector 111  Network.dyn_peer[5]  lookupHopsSig:vector  ETV
111	60119 3386 241 41324 6020.2 998020.819928862228 128 0 2 170 266
vector 112  Network.dyn_peer[5]  lookupStabilitySig:vector  ETV
112	63505 3826 241 41324 6020.2 998020.819928862228 128 0.75 1 106.75 89.65625
vector 113  Network.dyn_peer[5]  lookupTimeSig:vector  ETV
113	67331 3630 241 41324 6020.2 998020.819928862228 128 0 0.3 26.6 6.18
vector 114  Network.dyn_peer[6]  lookupHopsSig:vector  ETV
114	70961 3421 281 41369 7020.1 999020.928723123975 128 0 3 163 247
vector 115  Network.dyn_peer[6]  lookupStabilitySig:vector  ETV
115	74382 3877 281 41369 7020.1 999020.928723123975 128 0.625 1 107.625 91.109375
vector 116  Network.dyn_peer[6]  lookupTimeSig:vector  ETV
116	78259 3667 281 41369 7020.1 999020.928723123975 128 0 0.4 25.9 5.99
vector 117  Network.dyn_peer[7]  lookupHopsSig:vector  ETV
117	81926 3422 332 41408 8020.1 1000020.908735773197 128 0 3 163 243
vector 118  Network.dyn_peer[7]  lookupStabilitySig:vector  ETV
118	85348 3881 332 41408 8020.1 1000020.908735773197 128 0.625 1 107.625 91.046875
vector 119  Network.dyn_peer[7]  lookupTimeSig:vector  ETV
119	89229 3670 332 41408 8020.1 1000020.908735773197 128 0 0.4 25.9 5.95
vector 120  Network.dyn_peer[8]  lookupHopsSig:vector  ETV
120	92899 3454 370 41449 9020.1 1001020.815806907569 128 1 3 176 282
vector 121  Network.dyn_peer[8]  lookupStabilitySig:vector  ETV
121	96353 3928 370 41449 9020.1 1001020.815806907569 128 0.625 0.875 106 88.40625
vector 122  Network.dyn_peer[8]  lookupTimeSig:vector  ETV
122	100281 3710 370 41449 9020.1 1001020.815806907569 128 0.1 0.4 27.2 6.36
vector 123  Network.dyn_peer[9]  lookupHopsSig:vector  ETV
123	103991 3451 408 41489 10020.1 1002020.721423147203 128 0 3 170 260
vector 124  Network.dyn_peer[9]  lookupStabilitySig:vector  ETV
124	107442 3913 408 41489 10020.1 1002020.721423147203 128 0.625 1 106.75 89.5625
vector 125  Network.dyn_peer[9]  lookupTimeSig:vector  ETV
125	111355 3703 408 41489 10020.1 1002020.721423147203 128 0 0.4 26.6 6.1
vector 126  Network.dyn_peer[10]  lookupHopsSig:vector  ETV
126	115058 3487 448 41532 11020.1 1003020.644594925344 128 0 2 163 241
vector 127  Network.dyn_peer[10]  lookupStabilitySig:vector  ETV
127	118545 3944 448 41532 11020.1 1003020.644594925344 128 0.75 1 107.625 91.015625
vector 128  Network.dyn_peer[10]  lookupTimeSig:vector  ETV
128	122489 3735 448 41532 11020.1 1003020.644594925344 128 0 0.3 25.9 5.85
vector 129  Network.dyn_peer[11]  lookupHopsSig:vector  ETV
129	126224 3440 485 41572 12020 1004020.919100147605 128 0 3 169 271
vector 130  Network.dyn_peer[11]  lookupStabilitySig:vector  ETV
130	129664 3889 485 41572 12020 1004020.919100147605 128 0.625 1 106.875 89.984375
vector 131  Network.dyn_peer[11]  lookupTimeSig:vector  ETV
131	133553 3684 485 41572 12020 1004020.919100147605 128 0 0.4 26.5 6.23
vector 132  Network.dyn_peer[12]  lookupHopsSig:vector  ETV
132	137237 3427 527 41614 13020 1005021.029161500311 128 0 3 172 274
vector 133  Network.dyn_peer[12]  lookupStabilitySig:vector  ETV
133	140664 3881 527 41614 13020 1005021.029161500311 128 0.625 1 106.5 89.28125
vector 134  Network.dyn_peer[12]  lookupTimeSig:vector  ETV
134	144545 3675 527 41614 13020 1005021.029161500311 128 0 0.4 26.8 6.32
vector 135  Network.dyn_peer[13]  lookupHopsSig:vector  ETV
135	148220 3413 568 41654 14020 1006020.720068545574 128 0 3 175 281
vector 136  Network.dyn_peer[13]  lookupStabilitySig:vector  ETV
136	151633 3869 568 41654 14020 1006020.720068545574 128 0.625 1 106.125 88.640625
vector 137  Network.dyn_peer[13]  lookupTimeSig:vector  ETV
137	155502 3663 568 41654 14020 1006020.720068545574 128 0 0.4 27.1 6.45
vector 138  Network.dyn_peer[14]  lookupHopsSig:vector  ETV
138	159165 3399 607 41695 15020.1 1007021.008399893535 128 0 3 176 280
vector 139  Network.dyn_peer[14]  lookupStabilitySig:vector  ETV
139	162564 3857 607 41695 15020.1 1007021.008399893535 128 0.625 1 106 88.375
vector 140  Network.dyn_peer[14]  lookupTimeSig:vector  ETV
140	166421 3651 607 41695 15020.1 1007021.008399893535 128 0 0.4 27.2 6.32
vector 141  Network.dyn_peer[15]  lookupHopsSig:vector  ETV
141	170072 3412 646 41741 16020.2 1008020.947563096451 128 0 2 170 260
vector 142  Network.dyn_peer[15]  lookupStabilitySig:vector  ETV
142	173484 3867 646 41741 16020.2 1008020.947563096451 128 0.75 1 106.75 89.5625
vector 143  Network.dyn_peer[15]  lookupTimeSig:vector  ETV
143	177351 3662 646 41741 16020.2 1008020.947563096451 128 0 0.3 26.6 6.16
vector 144  Network.dyn_peer[16]  lookupHopsSig:vector  ETV
144	181013 3434 687 41787 17020.2 1009020.838622606652 128 0 3 160 236
vector 145  Network.dyn_peer[16]  lookupStabilitySig:vector  ETV
145	184447 3905 687 41787 17020.2 1009020.838622606652 128 0.625 1 108 91.6875
vector 146  Network.dyn_peer[16]  lookupTimeSig:vector  ETV
146	188352 3684 687 41787 17020.2 1009020.838622606652 128 0 0.4 25.6 5.64
vector 147  Network.dyn_peer[17]  lookupHopsSig:vector  ETV
147	192036 3397 727 41826 18020.1 1010020.91425665615 128 0 3 177 289
vector 148  Network.dyn_peer[17]  lookupStabilitySig:vector  ETV
148	195433 3839 727 41826 18020.1 1010020.91425665615 128 0.625 1 105.875 88.265625
vector 149  Network.dyn_peer[17]  lookupTimeSig:vector  ETV
149	199272 3643 727 41826 18020.1 1010020.91425665615 128 0 0.4 27.3 6.59
vector 150  Network.dyn_peer[18]  lookupHopsSig:vector  ETV
150	202915 3427 773 41875 19020.2 1011020.775379018607 128 0 2 159 227
vector 151  Network.dyn_peer[18]  lookupStabilitySig:vector  ETV
151	206342 3893 773 41875 19020.2 1011020.775379018607 128 0.75 1 108.125 91.796875
vector 152  Network.dyn_peer[18]  lookupTimeSig:vector  ETV
152	210235 3677 773 41875 19020.2 1011020.775379018607 128 0 0.3 25.5 5.65
vector 153  Network.dyn_peer[19]  lookupHopsSig:vector  ETV
153	213912 3415 810 41913 20020 1012020.806830435953 128 0 3 161 239
vector 154  Network.dyn_peer[19]  lookupStabilitySig:vector  ETV
154	217327 3871 810 41913 20020 1012020.806830435953 128 0.625 1 107.875 91.484375
vector 155  Network.dyn_peer[19]  lookupTimeSig:vector  ETV
155	221198 3661 810 41913 20020 1012020.806830435953 128 0 0.4 25.7 5.79
vector 156  Network.dyn_peer[20]  lookupHopsSig:vector  ETV
156	224859 3431 852 41952 21020.1 1013020.904970517318 128 0 2 171 267
vector 157  Network.dyn_peer[20]  lookupStabilitySig:vector  ETV
157	228290 3875 852 41952 21020.1 1013020.904970517318 128 0.75 1 106.625 89.421875
vector 158  Network.dyn_peer[20]  lookupTimeSig:vector  ETV
158	232165 3677 852 41952 21020.1 1013020.904970517318 128 0 0.3 26.7 6.15
vector 159  Network.dyn_peer[21]  lookupHopsSig:vector  ETV
159	235842 3391 891 41994 22020.2 1014020.911863860691 128 0 3 175 283
vector 160  Network.dyn_peer[21]  lookupStabilitySig:vector  ETV
160	239233 3842 891 41994 22020.2 1014020.911863860691 128 0.625 1 106.125 88.671875
vector 161  Network.dyn_peer[21]  lookupTimeSig:vector  ETV
161	243075 3639 891 41994 22020.2 1014020.911863860691 128 0 0.4 27.1 6.35
vector 162  Network.dyn_peer[22]  lookupHopsSig:vector  ETV
162	246714 3395 931 42036 23020.2 1015021.109585251789 128 0 3 177 285
vector 163  Network.dyn_peer[22]  lookupStabilitySig:vector  ETV
163	250109 3847 931 42036 23020.2 1015021.109585251789 128 0.625 1 105.875 88.203125
vector 164  Network.dyn_peer[22]  lookupTimeSig:vector  ETV
164	253956 3645 931 42036 23020.2 1015021.109585251789 128 0 0.4 27.3 6.51
vector 165  Network.dyn_peer[23]  lookupHopsSig:vector  ETV
165	257601 3428 968 42079 24020.1 1016020.743390560518 128 0 2 166 250
vector 166  Network.dyn_peer[23]  lookupStabilitySig:vector  ETV
166	261029 3882 968 42079 24020.1 1016020.743390560518 128 0.75 1 107.25 90.40625
vector 167  Network.dyn_peer[23]  lookupTimeSig:vector  ETV
167	264911 3676 968 42079 24020.1 1016020.743390560518 128 0 0.3 26.2 5.96
vector 168  Network.dyn_peer[24]  lookupHopsSig:vector  ETV
168	268587 3380 1007 42117 25020.1 1017020.810023342507 128 0 3 178 284
vector 169  Network.dyn_peer[24]  lookupStabilitySig:vector  ETV
169	271967 3834 1007 42117 25020.1 1017020.810023342507 128 0.625 1 105.75 87.9375
vector 170  Network.dyn_peer[24]  lookupTimeSig:vector  ETV
170	275801 3632 1007 42117 25020.1 1017020.810023342507 128 0 0.4 27.4 6.48
vector 171  Network.dyn_peer[25]  lookupHopsSig:vector  ETV
171	279433 3414 1047 42161 26020.1 1018021.023588743592 128 0 3 166 260
vector 172  Network.dyn_peer[25]  lookupStabilitySig:vector  ETV
172	282847 3850 1047 42161 26020.1 1018021.023588743592 128 0.625 1 107.25 90.5625
vector 173  Network.dyn_peer[25]  lookupTimeSig:vector  ETV
173	286697 3654 1047 42161 26020.1 1018021.023588743592 128 0 0.4 26.2 6.16
vector 174  Network.dyn_peer[26]  lookupHopsSig:vector  ETV
174	290351 3406 1087 42205 27020.1 1019021.116589605675 128 0 3 174 280
vector 175  Network.dyn_peer[26]  lookupStabilitySig:vector  ETV
175	293757 3858 1087 42205 27020.1 1019021.116589605675 128 0.625 1 106.25 88.875
vector 176  Network.dyn_peer[26]  lookupTimeSig:vector  ETV
176	297615 3654 1087 42205 27020.1 1019021.116589605675 128 0 0.4 27 6.46
vector 177  Network.dyn_peer[27]  lookupHopsSig:vector  ETV
177	301269 3356 1129 42244 28020.1 1020020.81628718488 128 0 3 172 266
vector 178  Network.dyn_peer[27]  lookupStabilitySig:vector  ETV
178	304625 3816 1129 42244 28020.1 1020020.81628718488 128 0.625 1 106.5 89.15625
vector 179  Network.dyn_peer[27]  lookupTimeSig:vector  ETV
179	308441 3608 1129 42244 28020.1 1020020.81628718488 128 0 0.4 26.8 6.26
vector 180  Network.dyn_peer[28]  lookupHopsSig:vector  ETV
180	312049 3456 1171 42285 29020.2 1021020.820581765539 128 1 2 179 281
vector 181  Network.dyn_peer[28]  lookupStabilitySig:vector  ETV
181	315505 3917 1171 42285 29020.2 1021020.820581765539 128 0.75 0.875 105.625 87.640625
vector 182  Network.dyn_peer[28]  lookupTimeSig:vector  ETV
182	319422 3712 1171 42285 29020.2 1021020.820581765539 128 0.1 0.3 27.5 6.39
vector 183  Network.dyn_peer[29]  lookupHopsSig:vector  ETV
183	323134 3448 1209 42327 30020 1022020.829602433691 128 0 3 171 279
vector 184  Network.dyn_peer[29]  lookupStabilitySig:vector  ETV
184	326582 3897 1209 42327 30020 1022020.829602433691 128 0.625 1 106.625 89.609375
vector 185  Network.dyn_peer[29]  lookupTimeSig:vector  ETV
185	330479 3692 1209 42327 30020 1022020.829602433691 128 0 0.4 26.7 6.25
vector 186  Network.dyn_peer[30]  lookupHopsSig:vector  ETV
186	334171 3419 1249 42368 31020.1 1023020.837899154501 128 0 3 178 300
vector 187  Network.dyn_peer[30]  lookupStabilitySig:vector  ETV
187	337590 3875 1249 42368 31020.1 1023020.837899154501 128 0.625 1 105.75 88.1875
vector 188  Network.dyn_peer[30]  lookupTimeSig:vector  ETV
188	341465 3667 1249 42368 31020.1 1023020.837899154501 128 0 0.4 27.4 6.54
vector 189  Network.dyn_peer[31]  lookupHopsSig:vector  ETV
189	345132 3472 1288 42406 32020.2 1024020.81010793785 128 0 3 168 266
vector 190  Network.dyn_peer[31]  lookupStabilitySig:vector  ETV
190	348604 3906 1288 42406 32020.2 1024020.81010793785 128 0.625 1 107 90.15625
vector 191  Network.dyn_peer[31]  lookupTimeSig:vector  ETV
191	352510 3712 1288 42406 32020.2 1024020.81010793785 128 0 0.4 26.4 6.18
