file 792939 1369419727                                          
version 2
run Stability-36-20130524-20:22:05-3483
attr configname Stability
attr datetime 20130524-20:22:05
attr experiment Stability
attr inifile omnetpp.ini
attr iterationvars $0=1e3
attr iterationvars2 "$0=1e3, $repetition=6"
attr measurement $0=1e3
attr network Network
attr processid 3483
attr repetition 6
attr replication #6
attr resultdir results
attr runnumber 36
attr seedset 36

vector 3456  Network.dyn_peer[0]  lookupHopsSig:vector  ETV
vector 3457  Network.dyn_peer[0]  lookupStabilitySig:vector  ETV
vector 3458  Network.dyn_peer[0]  lookupTimeSig:vector  ETV
vector 3459  Network.dyn_peer[1]  lookupHopsSig:vector  ETV
vector 3460  Network.dyn_peer[1]  lookupStabilitySig:vector  ETV
vector 3461  Network.dyn_peer[1]  lookupTimeSig:vector  ETV
vector 3462  Network.dyn_peer[2]  lookupHopsSig:vector  ETV
vector 3463  Network.dyn_peer[2]  lookupStabilitySig:vector  ETV
vector 3464  Network.dyn_peer[2]  lookupTimeSig:vector  ETV
vector 3465  Network.dyn_peer[3]  lookupHopsSig:vector  ETV
vector 3466  Network.dyn_peer[3]  lookupStabilitySig:vector  ETV
vector 3467  Network.dyn_peer[3]  lookupTimeSig:vector  ETV
vector 3468  Network.dyn_peer[4]  lookupHopsSig:vector  ETV
vector 3469  Network.dyn_peer[4]  lookupStabilitySig:vector  ETV
vector 3470  Network.dyn_peer[4]  lookupTimeSig:vector  ETV
vector 3471  Network.dyn_peer[5]  lookupHopsSig:vector  ETV
vector 3472  Network.dyn_peer[5]  lookupStabilitySig:vector  ETV
vector 3473  Network.dyn_peer[5]  lookupTimeSig:vector  ETV
vector 3474  Network.dyn_peer[6]  lookupHopsSig:vector  ETV
vector 3475  Network.dyn_peer[6]  lookupStabilitySig:vector  ETV
vector 3476  Network.dyn_peer[6]  lookupTimeSig:vector  ETV
vector 3477  Network.dyn_peer[7]  lookupHopsSig:vector  ETV
vector 3478  Network.dyn_peer[7]  lookupStabilitySig:vector  ETV
vector 3479  Network.dyn_peer[7]  lookupTimeSig:vector  ETV
vector 3480  Network.dyn_peer[8]  lookupHopsSig:vector  ETV
vector 3481  Network.dyn_peer[8]  lookupStabilitySig:vector  ETV
vector 3482  Network.dyn_peer[8]  lookupTimeSig:vector  ETV
vector 3483  Network.dyn_peer[9]  lookupHopsSig:vector  ETV
vector 3484  Network.dyn_peer[9]  lookupStabilitySig:vector  ETV
vector 3485  Network.dyn_peer[9]  lookupTimeSig:vector  ETV
vector 3486  Network.dyn_peer[10]  lookupHopsSig:vector  ETV
vector 3487  Network.dyn_peer[10]  lookupStabilitySig:vector  ETV
vector 3488  Network.dyn_peer[10]  lookupTimeSig:vector  ETV
vector 3489  Network.dyn_peer[11]  lookupHopsSig:vector  ETV
vector 3490  Network.dyn_peer[11]  lookupStabilitySig:vector  ETV
vector 3491  Network.dyn_peer[11]  lookupTimeSig:vector  ETV
vector 3492  Network.dyn_peer[12]  lookupHopsSig:vector  ETV
vector 3493  Network.dyn_peer[12]  lookupStabilitySig:vector  ETV
vector 3494  Network.dyn_peer[12]  lookupTimeSig:vector  ETV
vector 3495  Network.dyn_peer[13]  lookupHopsSig:vector  ETV
vector 3496  Network.dyn_peer[13]  lookupStabilitySig:vector  ETV
vector 3497  Network.dyn_peer[13]  lookupTimeSig:vector  ETV
vector 3498  Network.dyn_peer[14]  lookupHopsSig:vector  ETV
vector 3499  Network.dyn_peer[14]  lookupStabilitySig:vector  ETV
vector 3500  Network.dyn_peer[14]  lookupTimeSig:vector  ETV
vector 3501  Network.dyn_peer[15]  lookupHopsSig:vector  ETV
vector 3502  Network.dyn_peer[15]  lookupStabilitySig:vector  ETV
vector 3503  Network.dyn_peer[15]  lookupTimeSig:vector  ETV
vector 3504  Network.dyn_peer[16]  lookupHopsSig:vector  ETV
vector 3505  Network.dyn_peer[16]  lookupStabilitySig:vector  ETV
vector 3506  Network.dyn_peer[16]  lookupTimeSig:vector  ETV
vector 3507  Network.dyn_peer[17]  lookupHopsSig:vector  ETV
vector 3508  Network.dyn_peer[17]  lookupStabilitySig:vector  ETV
vector 3509  Network.dyn_peer[17]  lookupTimeSig:vector  ETV
vector 3510  Network.dyn_peer[18]  lookupHopsSig:vector  ETV
vector 3511  Network.dyn_peer[18]  lookupStabilitySig:vector  ETV
vector 3512  Network.dyn_peer[18]  lookupTimeSig:vector  ETV
vector 3513  Network.dyn_peer[19]  lookupHopsSig:vector  ETV
vector 3514  Network.dyn_peer[19]  lookupStabilitySig:vector  ETV
vector 3515  Network.dyn_peer[19]  lookupTimeSig:vector  ETV
vector 3516  Network.dyn_peer[20]  lookupHopsSig:vector  ETV
vector 3517  Network.dyn_peer[20]  lookupStabilitySig:vector  ETV
vector 3518  Network.dyn_peer[20]  lookupTimeSig:vector  ETV
vector 3519  Network.dyn_peer[21]  lookupHopsSig:vector  ETV
vector 3520  Network.dyn_peer[21]  lookupStabilitySig:vector  ETV
vector 3521  Network.dyn_peer[21]  lookupTimeSig:vector  ETV
vector 3522  Network.dyn_peer[22]  lookupHopsSig:vector  ETV
vector 3523  Network.dyn_peer[22]  lookupStabilitySig:vector  ETV
vector 3524  Network.dyn_peer[22]  lookupTimeSig:vector  ETV
vector 3525  Network.dyn_peer[23]  lookupHopsSig:vector  ETV
vector 3526  Network.dyn_peer[23]  lookupStabilitySig:vector  ETV
vector 3527  Network.dyn_peer[23]  lookupTimeSig:vector  ETV
vector 3528  Network.dyn_peer[24]  lookupHopsSig:vector  ETV
vector 3529  Network.dyn_peer[24]  lookupStabilitySig:vector  ETV
vector 3530  Network.dyn_peer[24]  lookupTimeSig:vector  ETV
vector 3531  Network.dyn_peer[25]  lookupHopsSig:vector  ETV
vector 3532  Network.dyn_peer[25]  lookupStabilitySig:vector  ETV
vector 3533  Network.dyn_peer[25]  lookupTimeSig:vector  ETV
vector 3534  Network.dyn_peer[26]  lookupHopsSig:vector  ETV
vector 3535  Network.dyn_peer[26]  lookupStabilitySig:vector  ETV
vector 3536  Network.dyn_peer[26]  lookupTimeSig:vector  ETV
vector 3537  Network.dyn_peer[27]  lookupHopsSig:vector  ETV
vector 3538  Network.dyn_peer[27]  lookupStabilitySig:vector  ETV
vector 3539  Network.dyn_peer[27]  lookupTimeSig:vector  ETV
vector 3540  Network.dyn_peer[28]  lookupHopsSig:vector  ETV
vector 3541  Network.dyn_peer[28]  lookupStabilitySig:vector  ETV
vector 3542  Network.dyn_peer[28]  lookupTimeSig:vector  ETV
vector 3543  Network.dyn_peer[29]  lookupHopsSig:vector  ETV
vector 3544  Network.dyn_peer[29]  lookupStabilitySig:vector  ETV
vector 3545  Network.dyn_peer[29]  lookupTimeSig:vector  ETV
vector 3546  Network.dyn_peer[30]  lookupHopsSig:vector  ETV
vector 3547  Network.dyn_peer[30]  lookupStabilitySig:vector  ETV
vector 3548  Network.dyn_peer[30]  lookupTimeSig:vector  ETV
vector 3549  Network.dyn_peer[31]  lookupHopsSig:vector  ETV
vector 3550  Network.dyn_peer[31]  lookupStabilitySig:vector  ETV
vector 3551  Network.dyn_peer[31]  lookupTimeSig:vector  ETV
3456	6376 7285 31 67294 21.1 3911.841672879321 263 0 9 599 1869
3457	13661 10881 31 67294 21.1 3911.841672879321 263 0.66666665673256 1 235.84987123124 212.42656430061
3458	24542 7807 31 67294 21.1 3911.841672879321 263 0 1 82.9 31.67
3459	32349 8050 52 68004 22.1 4014.74010614037 286 0 7 634 1900
3460	40399 12021 52 68004 22.1 4014.74010614037 286 0.5 1 254.66077392548 227.97583434692
3461	52420 8620 52 68004 22.1 4014.74010614037 286 0 0.8 88.6 32.68
3462	61040 6263 81 65809 23.2 3886.116843065809 228 0 9 520 1578
3463	67303 9553 81 65809 23.2 3886.116843065809 228 0.63636362552643 1 202.85746116377 181.40794718117
3464	76856 6715 81 65809 23.2 3886.116843065809 228 0 1 71.6 26.76
3465	83571 7606 101 66344 24 3896.941385069362 273 0 9 603 1763
3466	91177 11564 101 66344 24 3896.941385069362 273 0.66666665673256 1 245.6132007055 221.77556605903
3467	102741 8146 101 66344 24 3896.941385069362 273 0 1 84.4 30.92
3468	110887 7116 123 65994 25 3889.608614100939 256 0 8 566 1672
3469	118003 10506 123 65994 25 3889.608614100939 256 0.73333331942558 1 229.79077720828 207.01552043158
3470	128509 7620 123 65994 25 3889.608614100939 256 0 0.9 79 29
3471	136129 6535 145 65854 26.2 3887.051656551324 237 0 8 557 1759
3472	142664 9898 145 65854 26.2 3887.051656551324 237 0.44444441795349 1 208.36311308295 184.33070752877
3473	152562 7007 145 65854 26.2 3887.051656551324 237 0 0.9 76.1 29.07
3474	159569 6790 170 66450 27.2 3899.32535964538 245 1 7 549 1617
3475	166359 10373 170 66450 27.2 3899.32535964538 245 0.69565218687057 0.97368421033025 219.98810111172 198.24752496452
3476	176732 7280 170 66450 27.2 3899.32535964538 245 0.1 0.8 76.2 27.7
3477	184012 5895 211 66362 28.1 3897.317163912552 217 0 7 510 1584
3478	189907 9024 211 66362 28.1 3897.317163912552 217 0.72727271914482 1 193.45256730169 173.05929753355
3479	198931 6325 211 66362 28.1 3897.317163912552 217 0 0.8 69.5 26.47
3480	205256 6878 259 66098 29.2 3892.218303768356 251 0 7 548 1604
3481	212134 10204 259 66098 29.2 3892.218303768356 251 0.69999998807907 1 223.583771253 199.92162202522
3482	222338 7378 259 66098 29.2 3892.218303768356 251 0 0.8 76.7 27.83
3483	229716 6675 289 66339 30.2 3896.823864446711 244 0 8 586 2032
3484	236391 9987 289 66339 30.2 3896.823864446711 244 0.66666665673256 1 218.22061298788 196.0748230457
3485	246378 7153 289 66339 30.2 3896.823864446711 244 0 0.9 79.8 32.94
3486	253531 7101 327 67590 31.1 3917.442138257867 256 0 7 625 2039
3487	260632 10723 327 67590 31.1 3917.442138257867 256 0.71428570151329 1 230.19379091449 207.77586861182
3488	271355 7609 327 67590 31.1 3917.442138257867 256 0 0.8 84.9 33.61
3489	278964 7574 408 66131 32.1 3893.022854186438 271 0 9 578 1682
3490	286538 11153 408 66131 32.1 3893.022854186438 271 0.71428570151329 1 243.71320457757 220.12572573978
3491	297691 8108 408 66131 32.1 3893.022854186438 271 0 1 81.7 29.61
3492	305799 6527 510 66243 33.3 3895.631211535573 237 1 10 558 1774
3493	312326 9548 510 66243 33.3 3895.631211535573 237 0.625 0.97222222201526 208.8752737157 185.1607741818
3494	321874 7000 510 66243 33.3 3895.631211535573 237 0.1 1.1 76 29.1
3495	328874 7292 549 66460 34.2 3899.443386309555 265 0 8 564 1662
3496	336166 11065 549 66460 34.2 3899.443386309555 265 0.69999998807907 1 238.59835068323 215.75341399813
3497	347231 7818 549 66460 34.2 3899.443386309555 265 0 0.9 79.7 28.79
3498	355049 6486 605 67578 35.5 3916.860795585339 235 0 8 542 1664
3499	361535 9569 605 67578 35.5 3916.860795585339 235 0.625 1 209.43118817545 187.52895180522
3500	371104 6950 605 67578 35.5 3916.860795585339 235 0 0.9 74.5 28.09
3501	378054 6954 642 66287 36.3 3896.026260240431 250 1 9 559 1691
3502	385008 10361 642 66287 36.3 3896.026260240431 250 0.5 0.97435897402465 223.54274174757 200.92778091041
3503	395369 7452 642 66287 36.3 3896.026260240431 250 0.1 1 77.6 28.8
3504	402821 7305 708 66984 37.2 3908.262712657562 262 0 6 604 1754
3505	410126 11106 708 66984 37.2 3908.262712657562 262 0.63636362552643 1 234.87248027697 211.42518344094
3506	421232 7825 708 66984 37.2 3908.262712657562 262 0 0.7 83.4 30.7
3507	429057 5984 832 66786 38.4 3904.831730609396 218 0 8 499 1549
3508	435041 8838 832 66786 38.4 3904.831730609396 218 0.59999999403954 1 193.87138845958 173.36686387628
3509	443879 6414 832 66786 38.4 3904.831730609396 218 0 0.9 68.4 25.82
3510	450293 6793 870 66663 39.1 3902.417332839056 244 0 7 533 1521
3511	457086 10231 870 66663 39.1 3902.417332839056 244 0.69230768084526 1 222.52378601953 203.54135450775
3512	467317 7277 870 66663 39.1 3902.417332839056 244 0 0.8 74.5 26.71
3513	474594 5995 947 66652 40.4 3902.220615838411 218 0 8 502 1544
3514	480589 9003 947 66652 40.4 3902.220615838411 218 0.66666665673256 1 193.84263784625 173.14938099998
3515	489592 6429 947 66652 40.4 3902.220615838411 218 0 0.9 68.8 26.2
3516	496021 6313 1004 66998 41.2 3908.430435932039 230 1 10 571 1899
3517	502334 9628 1004 66998 41.2 3908.430435932039 230 0.625 0.97368421033025 204.56300784461 182.87767046854
3518	511962 6772 1004 66998 41.2 3908.430435932039 230 0.1 1.1 76.9 30.89
3519	518734 6445 1085 67297 42.5 3911.919326808059 232 0 10 571 1975
3520	525179 9611 1085 67297 42.5 3911.919326808059 232 0.71428570151329 1 206.26950615831 184.23993240593
3521	534790 6900 1085 67297 42.5 3911.919326808059 232 0 1.1 77.1 31.85
3522	541690 6610 1164 66858 43.3 3906.120999056058 239 0 7 556 1726
3523	548300 10032 1164 66858 43.3 3906.120999056058 239 0.66666665673256 1 214.53358523175 193.25894008647
3524	558332 7086 1164 66858 43.3 3906.120999056058 239 0 0.8 76.3 28.99
3525	565418 7350 1255 67283 44.2 3911.741783980257 263 0 7 604 1822
3526	572768 10864 1255 67283 44.2 3911.741783980257 263 0.66666665673256 1 236.5868914146 213.62722719308
3527	583632 7874 1255 67283 44.2 3911.741783980257 263 0 0.8 83.5 31.15
3528	591506 6591 1308 67500 45.1 3914.902996234316 238 0 8 558 1782
3529	598097 9893 1308 67500 45.1 3914.902996234316 238 0.72727271914482 1 213.96320267767 193.13210044453
3530	607990 7065 1308 67500 45.1 3914.902996234316 238 0 0.9 76.4 29.68
3531	615055 7167 1372 66956 46.4 3907.846520185351 257 0 8 619 1939
3532	622222 10744 1372 66956 46.4 3907.846520185351 257 0.58333334326744 1 229.98416387476 206.84126349002
3533	632966 7677 1372 66956 46.4 3907.846520185351 257 0 0.9 84.4 32.68
3534	640643 7455 1429 67093 47.2 3909.853986521063 266 0 7 590 1742
3535	648098 11025 1429 67093 47.2 3909.853986521063 266 0.71428570151329 1 239.87995101139 217.05334380153
3536	659123 7985 1429 67093 47.2 3909.853986521063 266 0 0.8 82.4 30.08
3537	667108 6723 1510 67392 48.2 3913.211014336188 242 0 6 571 1715
3538	673831 10139 1510 67392 48.2 3913.211014336188 242 0.64285713434219 1 217.97243433632 196.96607951604
3539	683970 7205 1510 67392 48.2 3913.211014336188 242 0 0.7 78.1 29.35
3540	691175 8181 1638 66007 49.6 3889.940334962216 288 0 9 699 2295
3541	699356 12104 1638 66007 49.6 3889.940334962216 288 0.55555555224419 1 259.01019405387 233.99101293157
3542	711460 8749 1638 66007 49.6 3889.940334962216 288 0 1 95.6 37.94
3543	720209 6098 1702 67381 50.3 3913.148472857191 221 0 7 525 1683
3544	726307 8831 1702 67381 50.3 3913.148472857191 221 0.66666665673256 1 197.54891825095 177.40157322994
3545	735138 6534 1702 67381 50.3 3913.148472857191 221 0 0.8 71.4 27.66
3546	741672 8044 1829 67980 51.2 4013.707585468419 285 0 7 698 2232
3547	749716 11541 1829 67980 51.2 4013.707585468419 285 0.375 1 253.92261654511 227.45471290931
3548	761257 8612 1829 67980 51.2 4013.707585468419 285 0 0.8 95 37.24
3549	769869 6428 1916 65991 52.1 3889.547430263922 232 0 8 555 1783
3550	776297 9754 1916 65991 52.1 3889.547430263922 232 0.5 1 208.48505469598 188.20554106979
3551	786051 6888 1916 65991 52.1 3889.547430263922 232 0 0.8 75.5 29.31
