version 2
run Stability-89-20130524-20:23:44-3483
attr configname Stability
attr datetime 20130524-20:23:44
attr experiment Stability
attr inifile omnetpp.ini
attr iterationvars $0=1e-2
attr iterationvars2 "$0=1e-2, $repetition=9"
attr measurement $0=1e-2
attr network Network
attr processid 3483
attr repetition 9
attr replication #9
attr resultdir results
attr runnumber 89
attr seedset 89

vector 8631  Network.dyn_peer[29]  lookupHopsSig:vector  ETV
vector 8632  Network.dyn_peer[29]  lookupStabilitySig:vector  ETV
vector 8633  Network.dyn_peer[29]  lookupTimeSig:vector  ETV
vector 8550  Network.dyn_peer[2]  lookupHopsSig:vector  ETV
vector 8551  Network.dyn_peer[2]  lookupStabilitySig:vector  ETV
vector 8552  Network.dyn_peer[2]  lookupTimeSig:vector  ETV
vector 8562  Network.dyn_peer[6]  lookupHopsSig:vector  ETV
vector 8563  Network.dyn_peer[6]  lookupStabilitySig:vector  ETV
vector 8564  Network.dyn_peer[6]  lookupTimeSig:vector  ETV
vector 8565  Network.dyn_peer[7]  lookupHopsSig:vector  ETV
vector 8566  Network.dyn_peer[7]  lookupStabilitySig:vector  ETV
vector 8567  Network.dyn_peer[7]  lookupTimeSig:vector  ETV
vector 8568  Network.dyn_peer[8]  lookupHopsSig:vector  ETV
vector 8569  Network.dyn_peer[8]  lookupStabilitySig:vector  ETV
vector 8570  Network.dyn_peer[8]  lookupTimeSig:vector  ETV
vector 8571  Network.dyn_peer[9]  lookupHopsSig:vector  ETV
vector 8572  Network.dyn_peer[9]  lookupStabilitySig:vector  ETV
vector 8573  Network.dyn_peer[9]  lookupTimeSig:vector  ETV
vector 8589  Network.dyn_peer[15]  lookupHopsSig:vector  ETV
vector 8590  Network.dyn_peer[15]  lookupStabilitySig:vector  ETV
vector 8591  Network.dyn_peer[15]  lookupTimeSig:vector  ETV
vector 8595  Network.dyn_peer[17]  lookupHopsSig:vector  ETV
vector 8596  Network.dyn_peer[17]  lookupStabilitySig:vector  ETV
vector 8597  Network.dyn_peer[17]  lookupTimeSig:vector  ETV
vector 8601  Network.dyn_peer[19]  lookupHopsSig:vector  ETV
vector 8602  Network.dyn_peer[19]  lookupStabilitySig:vector  ETV
vector 8603  Network.dyn_peer[19]  lookupTimeSig:vector  ETV
vector 8613  Network.dyn_peer[23]  lookupHopsSig:vector  ETV
vector 8614  Network.dyn_peer[23]  lookupStabilitySig:vector  ETV
vector 8615  Network.dyn_peer[23]  lookupTimeSig:vector  ETV
vector 8544  Network.dyn_peer[0]  lookupHopsSig:vector  ETV
vector 8545  Network.dyn_peer[0]  lookupStabilitySig:vector  ETV
vector 8546  Network.dyn_peer[0]  lookupTimeSig:vector  ETV
vector 8547  Network.dyn_peer[1]  lookupHopsSig:vector  ETV
vector 8548  Network.dyn_peer[1]  lookupStabilitySig:vector  ETV
vector 8549  Network.dyn_peer[1]  lookupTimeSig:vector  ETV
vector 8574  Network.dyn_peer[10]  lookupHopsSig:vector  ETV
vector 8575  Network.dyn_peer[10]  lookupStabilitySig:vector  ETV
vector 8576  Network.dyn_peer[10]  lookupTimeSig:vector  ETV
vector 8583  Network.dyn_peer[13]  lookupHopsSig:vector  ETV
vector 8584  Network.dyn_peer[13]  lookupStabilitySig:vector  ETV
vector 8585  Network.dyn_peer[13]  lookupTimeSig:vector  ETV
vector 8598  Network.dyn_peer[18]  lookupHopsSig:vector  ETV
vector 8599  Network.dyn_peer[18]  lookupStabilitySig:vector  ETV
vector 8600  Network.dyn_peer[18]  lookupTimeSig:vector  ETV
vector 8604  Network.dyn_peer[20]  lookupHopsSig:vector  ETV
vector 8605  Network.dyn_peer[20]  lookupStabilitySig:vector  ETV
vector 8606  Network.dyn_peer[20]  lookupTimeSig:vector  ETV
vector 8619  Network.dyn_peer[25]  lookupHopsSig:vector  ETV
vector 8620  Network.dyn_peer[25]  lookupStabilitySig:vector  ETV
vector 8621  Network.dyn_peer[25]  lookupTimeSig:vector  ETV
vector 8622  Network.dyn_peer[26]  lookupHopsSig:vector  ETV
vector 8623  Network.dyn_peer[26]  lookupStabilitySig:vector  ETV
vector 8624  Network.dyn_peer[26]  lookupTimeSig:vector  ETV
vector 8625  Network.dyn_peer[27]  lookupHopsSig:vector  ETV
vector 8626  Network.dyn_peer[27]  lookupStabilitySig:vector  ETV
vector 8627  Network.dyn_peer[27]  lookupTimeSig:vector  ETV
vector 8628  Network.dyn_peer[28]  lookupHopsSig:vector  ETV
vector 8629  Network.dyn_peer[28]  lookupStabilitySig:vector  ETV
vector 8630  Network.dyn_peer[28]  lookupTimeSig:vector  ETV
vector 8637  Network.dyn_peer[31]  lookupHopsSig:vector  ETV
vector 8638  Network.dyn_peer[31]  lookupStabilitySig:vector  ETV
vector 8639  Network.dyn_peer[31]  lookupTimeSig:vector  ETV
vector 8556  Network.dyn_peer[4]  lookupHopsSig:vector  ETV
vector 8557  Network.dyn_peer[4]  lookupStabilitySig:vector  ETV
vector 8558  Network.dyn_peer[4]  lookupTimeSig:vector  ETV
vector 8559  Network.dyn_peer[5]  lookupHopsSig:vector  ETV
vector 8560  Network.dyn_peer[5]  lookupStabilitySig:vector  ETV
vector 8561  Network.dyn_peer[5]  lookupTimeSig:vector  ETV
vector 8586  Network.dyn_peer[14]  lookupHopsSig:vector  ETV
vector 8587  Network.dyn_peer[14]  lookupStabilitySig:vector  ETV
vector 8588  Network.dyn_peer[14]  lookupTimeSig:vector  ETV
vector 8607  Network.dyn_peer[21]  lookupHopsSig:vector  ETV
vector 8608  Network.dyn_peer[21]  lookupStabilitySig:vector  ETV
vector 8609  Network.dyn_peer[21]  lookupTimeSig:vector  ETV
vector 8616  Network.dyn_peer[24]  lookupHopsSig:vector  ETV
vector 8617  Network.dyn_peer[24]  lookupStabilitySig:vector  ETV
vector 8618  Network.dyn_peer[24]  lookupTimeSig:vector  ETV
vector 8634  Network.dyn_peer[30]  lookupHopsSig:vector  ETV
vector 8635  Network.dyn_peer[30]  lookupStabilitySig:vector  ETV
vector 8636  Network.dyn_peer[30]  lookupTimeSig:vector  ETV
vector 8577  Network.dyn_peer[11]  lookupHopsSig:vector  ETV
vector 8578  Network.dyn_peer[11]  lookupStabilitySig:vector  ETV
vector 8579  Network.dyn_peer[11]  lookupTimeSig:vector  ETV
vector 8580  Network.dyn_peer[12]  lookupHopsSig:vector  ETV
vector 8581  Network.dyn_peer[12]  lookupStabilitySig:vector  ETV
vector 8582  Network.dyn_peer[12]  lookupTimeSig:vector  ETV
vector 8610  Network.dyn_peer[22]  lookupHopsSig:vector  ETV
vector 8611  Network.dyn_peer[22]  lookupStabilitySig:vector  ETV
vector 8612  Network.dyn_peer[22]  lookupTimeSig:vector  ETV
vector 8553  Network.dyn_peer[3]  lookupHopsSig:vector  ETV
vector 8554  Network.dyn_peer[3]  lookupStabilitySig:vector  ETV
vector 8555  Network.dyn_peer[3]  lookupTimeSig:vector  ETV
vector 8592  Network.dyn_peer[16]  lookupHopsSig:vector  ETV
vector 8593  Network.dyn_peer[16]  lookupStabilitySig:vector  ETV
vector 8594  Network.dyn_peer[16]  lookupTimeSig:vector  ETV
8544	197	20.20001	2
8544	391	20.50001	2
8544	648	21.00760409382	4
8544	767	21.309475605728	2
8544	882	21.709567344696	3
8544	1687	220.10047	1
8544	1857	220.40047	2
8544	2950	420.00065	0
8544	3319	420.409304804639	3
8544	4474	620.10096	1
8544	4665	620.40096	2
8544	4853	620.708971907467	2
8544	5072	621.216364506665	4
8544	6423	820.40136	5
8544	6745	821.10136	6
8544	7616	1020.00161	0
8544	7974	1020.50161	4
8544	8257	1021.003687632774	4
8544	8367	1021.212319084586	1
8544	9398	1220.20195	3
8544	9671	1220.70195	4
8544	9880	1221.105336943936	3
8544	9996	1221.406763830649	2
8544	10072	1221.615539765915	1
8544	10977	1420.2023	3
8544	11344	1421.0023	7
8544	11450	1421.309576746379	2
8544	12748	1620.90256	10
8544	13021	1621.603470539298	6
8544	13732	1820.00288	0
8544	13895	1820.20288	1
8544	14040	1820.414517472325	1
8544	15338	2020.30305	4
8544	15617	2020.80305	4
8544	15768	2021.10582830745	2
8544	15898	2021.50970126395	3
8544	16833	2220.10349	1
8544	17210	2220.80349	6
8544	17455	2221.412238798917	5
8544	17534	2221.81510221001	3
8544	17560	2222.02294160475	1
8544	18381	2420.30389	4
8544	18672	2421.00389	6
8544	18753	2421.208873859248	1
8544	18913	2421.821037564018	5
8544	19569	2620.00411	0
8544	19857	2620.40411	3
8544	20255	2621.308723109899	8
8544	21021	2820.10439	1
8544	21310	2820.60439	4
8544	22755	3020.30456	3
8544	23028	3020.90456	5
8544	23136	3021.117912369409	1
8544	24147	3220.10491	1
8544	24621	3221.009425037566	8
8544	24773	3221.415908741428	3
8544	25646	3420.10524	1
8544	25877	3420.50524	3
8544	26060	3420.908259213532	3
8544	26981	3620.10548	1
8544	27171	3620.40548	2
8544	27549	3621.207314832668	7
8544	27654	3621.518690085544	2
8544	27696	3621.725839974067	1
8544	28654	3820.20591	2
8544	29165	3821.30591	10
8544	30111	4020.20612	2
8544	30294	4020.50612	2
8544	31612	4220.30636	4
8544	31881	4220.80636	4
8544	32122	4221.310758198353	4
8544	32366	4222.124484323145	7
8544	33324	4420.30682	3
8544	33828	4421.414625713628	10
8544	34687	4620.2071	3
8544	34938	4620.7071	4
8544	35050	4620.913591880451	1
8544	36248	4820.40729	5
8544	36424	4820.70729	2
8544	36605	4821.111598098689	3
8544	36744	4821.420740178496	2
8544	36800	4821.625921983489	1
8544	36828	4821.832140059059	1
8544	36858	4822.141342265533	2
8544	36875	4822.347006996254	1
8544	36893	4822.554273427527	1
8544	36909	4822.75955182085	1
8544	36941	4823.167424505783	3
8544	37801	5020.20778	2
8544	38073	5020.80778	5
8544	38403	5021.614820935105	7
8544	38496	5021.917653166475	2
8544	39558	5220.408	4
8544	39796	5220.908	4
8544	39885	5221.112136083053	1
8544	39982	5221.327235353582	1
8544	40160	5222.027249705695	6
8544	41043	5420.20836	3
8544	41288	5420.70836	4
8544	41481	5421.116099176615	3
8544	41563	5421.332007483523	1
8544	42478	5620.20861	2
8544	42796	5620.80861	5
8544	43007	5621.319574059603	4
8544	43951	5820.20888	2
8544	44199	5820.60888	3
8544	44361	5820.922644538035	2
8544	44522	5821.428892640709	4
8544	45475	6020.20918	2
8544	45688	6020.60918	3
8544	45884	6021.013538061538	3
8544	46085	6021.521454144403	4
8544	46825	6220.10952	1
8544	47203	6220.90952	7
8544	47334	6221.2130501226	2
8544	47416	6221.428236692433	1
8544	47460	6221.630811466929	1
8544	47520	6221.940871783296	2
8545	197	20.20001	0.75
8545	391	20.50001	0.75
8545	648	21.00760409382	0.71428570151329
8545	767	21.309475605728	0.89473684132099
8545	882	21.709567344696	0.875
8545	1687	220.10047	0.875
8545	1857	220.40047	0.75
8545	2950	420.00065	1
8545	3319	420.409304804639	0.66666665673256
8545	4474	620.10096	0.875
8545	4665	620.40096	0.75
8545	4853	620.708971907467	0.77777777612209
8545	5072	621.216364506665	0.77777777612209
8545	6423	820.40136	0.375
8545	6745	821.10136	0.5
8545	7616	1020.00161	1
8545	7974	1020.50161	0.5
8545	8257	1021.003687632774	0.59999999403954
8545	8367	1021.212319084586	0.94444444403052
8545	9398	1220.20195	0.625
8545	9671	1220.70195	0.5
8545	9880	1221.105336943936	0.75
8545	9996	1221.406763830649	0.8823529407382
8545	10072	1221.615539765915	0.9545454531908
8545	10977	1420.2023	0.625
8545	11344	1421.0023	0.53333333134651
8545	11450	1421.309576746379	0.89473684132099
8545	12748	1620.90256	-0.11111116409302
8545	13021	1621.603470539298	0.71428570151329
8545	13732	1820.00288	1
8545	13895	1820.20288	0.875
8545	14040	1820.414517472325	0.875
8545	15338	2020.30305	0.5
8545	15617	2020.80305	0.5
8545	15768	2021.10582830745	0.84615384042263
8545	15898	2021.50970126395	0.86363635957241
8545	16833	2220.10349	0.875
8545	17210	2220.80349	0.5
8545	17455	2221.412238798917	0.78260870277882
8545	17534	2221.81510221001	0.89655172079802
8545	17560	2222.02294160475	0.96875
8545	18381	2420.30389	0.5
8545	18672	2421.00389	0.53846153616905
8545	18753	2421.208873859248	0.9333333298564
8545	18913	2421.821037564018	0.79166667163372
8545	19569	2620.00411	1
8545	19857	2620.40411	0.625
8545	20255	2621.308723109899	0.63636362552643
8545	21021	2820.10439	0.875
8545	21310	2820.60439	0.55555555224419
8545	22755	3020.30456	0.625
8545	23028	3020.90456	0.58333334326744
8545	23136	3021.117912369409	0.92857142537832
8545	24147	3220.10491	0.875
8545	24621	3221.009425037566	0.27272725105286
8545	24773	3221.415908741428	0.82352940738201
8545	25646	3420.10524	0.875
8545	25877	3420.50524	0.625
8545	26060	3420.908259213532	0.66666665673256
8545	26981	3620.10548	0.875
8545	27171	3620.40548	0.75
8545	27549	3621.207314832668	0.61111110448837
8545	27654	3621.518690085544	0.91304347664118
8545	27696	3621.725839974067	0.95652173832059
8545	28654	3820.20591	0.75
8545	29165	3821.30591	0.33333331346512
8545	30111	4020.20612	0.75
8545	30294	4020.50612	0.75
8545	31612	4220.30636	0.5
8545	31881	4220.80636	0.55555555224419
8545	32122	4221.310758198353	0.73333331942558
8545	32366	4222.124484323145	0.71999999880791
8545	33324	4420.30682	0.625
8545	33828	4421.414625713628	0.56521740555763
8545	34687	4620.2071	0.625
8545	34938	4620.7071	0.5
8545	35050	4620.913591880451	0.91666666418314
8545	36248	4820.40729	0.375
8545	36424	4820.70729	0.79999999701977
8545	36605	4821.111598098689	0.75
8545	36744	4821.420740178496	0.89473684132099
8545	36800	4821.625921983489	0.96551724150777
8545	36828	4821.832140059059	0.9666666649282
8545	36858	4822.141342265533	0.9333333298564
8545	36875	4822.347006996254	0.96774193644524
8545	36893	4822.554273427527	0.96774193644524
8545	36909	4822.75955182085	0.96774193644524
8545	36941	4823.167424505783	0.90322580933571
8545	37801	5020.20778	0.75
8545	38073	5020.80778	0.5
8545	38403	5021.614820935105	0.58823528885841
8545	38496	5021.917653166475	0.91304347664118
8545	39558	5220.408	0.5
8545	39796	5220.908	0.63636362552643
8545	39885	5221.112136083053	0.92307692021132
8545	39982	5221.327235353582	0.94444444403052
8545	40160	5222.027249705695	0.79310344159603
8545	41043	5420.20836	0.625
8545	41288	5420.70836	0.5
8545	41481	5421.116099176615	0.8125
8545	41563	5421.332007483523	0.95833333209157
8545	42478	5620.20861	0.75
8545	42796	5620.80861	0.44444441795349
8545	43007	5621.319574059603	0.80952380597591
8545	43951	5820.20888	0.75
8545	44199	5820.60888	0.625
8545	44361	5820.922644538035	0.83333332836628
8545	44522	5821.428892640709	0.80952380597591
8545	45475	6020.20918	0.75
8545	45688	6020.60918	0.66666665673256
8545	45884	6021.013538061538	0.75
8545	46085	6021.521454144403	0.84000000357628
8545	46825	6220.10952	0.875
8545	47203	6220.90952	0.30000001192093
8545	47334	6221.2130501226	0.875
8545	47416	6221.428236692433	0.95652173832059
8545	47460	6221.630811466929	0.95652173832059
8545	47520	6221.940871783296	0.9333333298564
8546	197	20.20001	0.2
8546	391	20.50001	0.3
8546	648	21.00760409382	0.5
8546	767	21.309475605728	0.3
8546	882	21.709567344696	0.4
8546	1687	220.10047	0.1
8546	1857	220.40047	0.3
8546	2950	420.00065	0
8546	3319	420.409304804639	0.4
8546	4474	620.10096	0.1
8546	4665	620.40096	0.3
8546	4853	620.708971907467	0.3
8546	5072	621.216364506665	0.5
8546	6423	820.40136	0.4
8546	6745	821.10136	0.7
8546	7616	1020.00161	0
8546	7974	1020.50161	0.5
8546	8257	1021.003687632774	0.5
8546	8367	1021.212319084586	0.2
8546	9398	1220.20195	0.2
8546	9671	1220.70195	0.5
8546	9880	1221.105336943936	0.4
8546	9996	1221.406763830649	0.3
8546	10072	1221.615539765915	0.2
8546	10977	1420.2023	0.2
8546	11344	1421.0023	0.8
8546	11450	1421.309576746379	0.3
8546	12748	1620.90256	0.9
8546	13021	1621.603470539298	0.7
8546	13732	1820.00288	0
8546	13895	1820.20288	0.2
8546	14040	1820.414517472325	0.2
8546	15338	2020.30305	0.3
8546	15617	2020.80305	0.5
8546	15768	2021.10582830745	0.3
8546	15898	2021.50970126395	0.4
8546	16833	2220.10349	0.1
8546	17210	2220.80349	0.7
8546	17455	2221.412238798917	0.6
8546	17534	2221.81510221001	0.4
8546	17560	2222.02294160475	0.2
8546	18381	2420.30389	0.3
8546	18672	2421.00389	0.7
8546	18753	2421.208873859248	0.2
8546	18913	2421.821037564018	0.6
8546	19569	2620.00411	0
8546	19857	2620.40411	0.4
8546	20255	2621.308723109899	0.9
8546	21021	2820.10439	0.1
8546	21310	2820.60439	0.5
8546	22755	3020.30456	0.3
8546	23028	3020.90456	0.6
8546	23136	3021.117912369409	0.2
8546	24147	3220.10491	0.1
8546	24621	3221.009425037566	0.9
8546	24773	3221.415908741428	0.4
8546	25646	3420.10524	0.1
8546	25877	3420.50524	0.4
8546	26060	3420.908259213532	0.4
8546	26981	3620.10548	0.1
8546	27171	3620.40548	0.3
8546	27549	3621.207314832668	0.8
8546	27654	3621.518690085544	0.3
8546	27696	3621.725839974067	0.2
8546	28654	3820.20591	0.2
8546	29165	3821.30591	1.1
8546	30111	4020.20612	0.2
8546	30294	4020.50612	0.3
8546	31612	4220.30636	0.3
8546	31881	4220.80636	0.5
8546	32122	4221.310758198353	0.5
8546	32366	4222.124484323145	0.8
8546	33324	4420.30682	0.3
8546	33828	4421.414625713628	1.1
8546	34687	4620.2071	0.2
8546	34938	4620.7071	0.5
8546	35050	4620.913591880451	0.2
8546	36248	4820.40729	0.4
8546	36424	4820.70729	0.3
8546	36605	4821.111598098689	0.4
8546	36744	4821.420740178496	0.3
8546	36800	4821.625921983489	0.2
8546	36828	4821.832140059059	0.2
8546	36858	4822.141342265533	0.3
8546	36875	4822.347006996254	0.2
8546	36893	4822.554273427527	0.2
8546	36909	4822.75955182085	0.2
8546	36941	4823.167424505783	0.4
8546	37801	5020.20778	0.2
8546	38073	5020.80778	0.6
8546	38403	5021.614820935105	0.8
8546	38496	5021.917653166475	0.3
8546	39558	5220.408	0.4
8546	39796	5220.908	0.5
8546	39885	5221.112136083053	0.2
8546	39982	5221.327235353582	0.2
8546	40160	5222.027249705695	0.7
8546	41043	5420.20836	0.2
8546	41288	5420.70836	0.5
8546	41481	5421.116099176615	0.4
8546	41563	5421.332007483523	0.2
8546	42478	5620.20861	0.2
8546	42796	5620.80861	0.6
8546	43007	5621.319574059603	0.5
8546	43951	5820.20888	0.2
8546	44199	5820.60888	0.4
8546	44361	5820.922644538035	0.3
8546	44522	5821.428892640709	0.5
8546	45475	6020.20918	0.2
8546	45688	6020.60918	0.4
8546	45884	6021.013538061538	0.4
8546	46085	6021.521454144403	0.5
8546	46825	6220.10952	0.1
8546	47203	6220.90952	0.8
8546	47334	6221.2130501226	0.3
8546	47416	6221.428236692433	0.2
8546	47460	6221.630811466929	0.2
8546	47520	6221.940871783296	0.3
8547	202	20.20002	2
8547	334	20.40002	1
8547	729	21.209597277277	7
8547	1779	220.30039	3
8547	1951	220.60039	2
8547	2267	221.406676792741	7
8547	2343	221.810209582914	3
8547	2370	222.111424156995	2
8547	3306	420.4009	5
8547	3498	420.9009	4
8547	3725	421.510039651322	5
8547	4395	620.00111	0
8547	4501	620.10111	0
8547	4868	620.71871243263	5
8547	6353	820.30126	3
8547	6743	821.10126	7
8547	6888	821.518716661299	3
8547	6961	822.021171232603	4
8547	7011	822.526115214597	4
8547	7054	823.037588949016	4
8547	7078	823.338231052759	2
8547	7095	823.841297032898	4
8547	7913	1020.30181	3
8547	8102	1020.70181	3
8547	8268	1021.00805959883	2
8547	9328	1220.10187	1
8547	9623	1220.60187	4
8547	9797	1220.911646804028	2
8547	10017	1221.429969499125	4
8547	10895	1420.10225	1
8547	11139	1420.50225	3
8547	11501	1421.50666302197	9
8547	11610	1422.011109824742	4
8547	12486	1620.40265	5
8547	12697	1620.80265	3
8547	12921	1621.304987993741	4
8547	13049	1621.713896287933	3
8547	13841	1820.1029	1
8547	14102	1820.6029	4
8547	14195	1820.804620381129	1
8547	14357	1821.212098126291	3
8547	15409	2020.40318	5
8547	15889	2021.505610934461	10
8547	15952	2021.808080700184	2
8547	15996	2022.008893148263	1
8547	16848	2220.10352	1
8547	17255	2220.90352	7
8547	17394	2221.212332988731	2
8547	17465	2221.421003328778	1
8547	17512	2221.623843912558	1
8547	18312	2420.20383	2
8547	18560	2420.70425464392	4
8547	18882	2421.705026725449	9
8547	18971	2422.219477768655	4
8547	19014	2422.629453802616	3
8547	19827	2620.3042	4
8547	20000	2620.7042	3
8547	20155	2621.012380078691	2
8547	20349	2621.630596458061	5
8547	21104	2820.20446	2
8547	21337	2820.617167999532	3
8547	21431	2820.83263434171	1
8547	21605	2821.238641569225	3
8547	22777	3020.30468	3
8547	23074	3021.00468	6
8547	23291	3021.60895659586	5
8547	24233	3220.205	2
8547	24559	3220.905	6
8547	24850	3221.712289641136	7
8547	25727	3420.20529	3
8547	25883	3420.50529	2
8547	25974	3420.708646858987	1
8547	26089	3420.921897440258	1
8547	26869	3620.00549	0
8547	27274	3620.60549	6
8547	27402	3620.814359734317	1
8547	28550	3820.10577	1
8547	28846	3820.60577	4
8547	28964	3820.814352298648	1
8547	29109	3821.119637056636	2
8547	29257	3821.528577997228	3
8547	30123	4020.2062	2
8547	30471	4020.9062	6
8547	30676	4021.513487302757	5
8547	30753	4021.916226745271	3
8547	30789	4022.226150409066	2
8547	31707	4220.40659	4
8547	31941	4220.90659	4
8547	32133	4221.316233106792	3
8547	33198	4420.10673	1
8547	33428	4420.50673	3
8547	33768	4421.215961665183	6
8547	34739	4620.30703	3
8547	35160	4621.30703	9
8547	35241	4621.6135911172	2
8547	35286	4622.11962803326	4
8547	35298	4622.32176416684	1
8547	36116	4820.10749	1
8547	36332	4820.50749	3
8547	36564	4821.011384345615	4
8547	36736	4821.417286809222	3
8547	37774	5020.20767	2
8547	37933	5020.50767	2
8547	38040	5020.715108510358	1
8547	38277	5021.230670523775	4
8547	38387	5021.53251469109	2
8547	39253	5220.00793	0
8547	39740	5220.80793	8
8547	40103	5221.725047979039	8
8547	41096	5420.30831	3
8547	41590	5421.50831	11
8547	41643	5421.812754361915	2
8547	41674	5422.113203865277	2
8547	42498	5620.20868	2
8547	42841	5620.90868	6
8547	42968	5621.210995779051	2
8547	44013	5820.30886	3
8547	44328	5820.90886	5
8547	44467	5821.222037525619	2
8547	44568	5821.623362553473	3
8547	45418	6020.1092	1
8547	45691	6020.6092	4
8547	45852	6020.918266192523	2
8547	46018	6021.31942768414	3
8547	46867	6220.20944	2
8547	46989	6220.40944	1
8547	47142	6220.713050140557	2
8547	47228	6220.919580688991	1
8548	202	20.20002	0.75
8548	334	20.40002	0.875
8548	729	21.209597277277	0.5625
8548	1779	220.30039	0.625
8548	1951	220.60039	0.81818181276321
8548	2267	221.406676792741	0.70833334326744
8548	2343	221.810209582914	0.89655172079802
8548	2370	222.111424156995	0.93939393758774
8548	3306	420.4009	0.44444441795349
8548	3498	420.9009	0.63636362552643
8548	3725	421.510039651322	0.79166667163372
8548	4395	620.00111	1
8548	4501	620.10111	1
8548	4868	620.71871243263	0.44444441795349
8548	6353	820.30126	0.625
8548	6743	821.10126	0.41666668653488
8548	6888	821.518716661299	0.88461538404226
8548	6961	822.021171232603	0.86206896603107
8548	7011	822.526115214597	0.86666665971279
8548	7054	823.037588949016	0.87096774578094
8548	7078	823.338231052759	0.93939393758774
8548	7095	823.841297032898	0.8823529407382
8548	7913	1020.30181	0.625
8548	8102	1020.70181	0.625
8548	8268	1021.00805959883	0.79999999701977
8548	9328	1220.10187	0.875
8548	9623	1220.60187	0.5
8548	9797	1220.911646804028	0.77777777612209
8548	10017	1221.429969499125	0.77777777612209
8548	10895	1420.10225	0.875
8548	11139	1420.50225	0.625
8548	11501	1421.50666302197	0.5714285671711
8548	11610	1422.011109824742	0.85714285075665
8548	12486	1620.40265	0.375
8548	12697	1620.80265	0.66666665673256
8548	12921	1621.304987993741	0.73333331942558
8548	13049	1621.713896287933	0.86956521868706
8548	13841	1820.1029	0.875
8548	14102	1820.6029	0.55555555224419
8548	14195	1820.804620381129	0.89999999850988
8548	14357	1821.212098126291	0.85714285075665
8548	15409	2020.40318	0.375
8548	15889	2021.505610934461	0.52380952239037
8548	15952	2021.808080700184	0.91666666418314
8548	15996	2022.008893148263	0.96000000089407
8548	16848	2220.10352	0.875
8548	17255	2220.90352	0.41666668653488
8548	17394	2221.212332988731	0.875
8548	17465	2221.421003328778	0.95652173832059
8548	17512	2221.623843912558	0.96153846010566
8548	18312	2420.20383	0.75
8548	18560	2420.70425464392	0.59999999403954
8548	18882	2421.705026725449	0.60869565606117
8548	18971	2422.219477768655	0.85185185074806
8548	19014	2422.629453802616	0.90909090638161
8548	19827	2620.3042	0.5
8548	20000	2620.7042	0.625
8548	20155	2621.012380078691	0.84615384042263
8548	20349	2621.630596458061	0.82758620381355
8548	21104	2820.20446	0.75
8548	21337	2820.617167999532	0.69999998807907
8548	21431	2820.83263434171	0.90909090638161
8548	21605	2821.238641569225	0.85714285075665
8548	22777	3020.30468	0.625
8548	23074	3021.00468	0.53846153616905
8548	23291	3021.60895659586	0.78260870277882
8548	24233	3220.205	0.75
8548	24559	3220.905	0.45454543828964
8548	24850	3221.712289641136	0.68181818723679
8548	25727	3420.20529	0.625
8548	25883	3420.50529	0.75
8548	25974	3420.708646858987	0.875
8548	26089	3420.921897440258	0.91666666418314
8548	26869	3620.00549	1
8548	27274	3620.60549	0.33333331346512
8548	27402	3620.814359734317	0.89999999850988
8548	28550	3820.10577	0.875
8548	28846	3820.60577	0.5
8548	28964	3820.814352298648	0.875
8548	29109	3821.119637056636	0.83333332836628
8548	29257	3821.528577997228	0.86956521868706
8548	30123	4020.2062	0.75
8548	30471	4020.9062	0.5
8548	30676	4021.513487302757	0.79166667163372
8548	30753	4021.916226745271	0.89655172079802
8548	30789	4022.226150409066	0.9375
8548	31707	4220.40659	0.5
8548	31941	4220.90659	0.63636362552643
8548	32133	4221.316233106792	0.8125
8548	33198	4420.10673	0.875
8548	33428	4420.50673	0.625
8548	33768	4421.215961665183	0.625
8548	34739	4620.30703	0.625
8548	35160	4621.30703	0.52631577849388
8548	35241	4621.6135911172	0.92857142537832
8548	35286	4622.11962803326	0.875
8548	35298	4622.32176416684	0.96875
8548	36116	4820.10749	0.875
8548	36332	4820.50749	0.625
8548	36564	4821.011384345615	0.66666665673256
8548	36736	4821.417286809222	0.84210526943207
8548	37774	5020.20767	0.75
8548	37933	5020.50767	0.75
8548	38040	5020.715108510358	0.89999999850988
8548	38277	5021.230670523775	0.69230768084526
8548	38387	5021.53251469109	0.875
8548	39253	5220.00793	1
8548	39740	5220.80793	0.19999998807907
8548	40103	5221.725047979039	0.66666665673256
8548	41096	5420.30831	0.625
8548	41590	5421.50831	0.5769230723381
8548	41643	5421.812754361915	0.9333333298564
8548	41674	5422.113203865277	0.93548387289047
8548	42498	5620.20868	0.75
8548	42841	5620.90868	0.45454543828964
8548	42968	5621.210995779051	0.88888888806105
8548	44013	5820.30886	0.625
8548	44328	5820.90886	0.54545453190804
8548	44467	5821.222037525619	0.89473684132099
8548	44568	5821.623362553473	0.86956521868706
8548	45418	6020.1092	0.875
8548	45691	6020.6092	0.55555555224419
8548	45852	6020.918266192523	0.83333332836628
8548	46018	6021.31942768414	0.82352940738201
8548	46867	6220.20944	0.75
8548	46989	6220.40944	0.875
8548	47142	6220.713050140557	0.79999999701977
8548	47228	6220.919580688991	0.89999999850988
8549	202	20.20002	0.2
8549	334	20.40002	0.2
8549	729	21.209597277277	0.8
8549	1779	220.30039	0.3
8549	1951	220.60039	0.3
8549	2267	221.406676792741	0.8
8549	2343	221.810209582914	0.4
8549	2370	222.111424156995	0.3
8549	3306	420.4009	0.4
8549	3498	420.9009	0.5
8549	3725	421.510039651322	0.6
8549	4395	620.00111	0
8549	4501	620.10111	0.1
8549	4868	620.71871243263	0.6
8549	6353	820.30126	0.3
8549	6743	821.10126	0.8
8549	6888	821.518716661299	0.4
8549	6961	822.021171232603	0.5
8549	7011	822.526115214597	0.5
8549	7054	823.037588949016	0.5
8549	7078	823.338231052759	0.3
8549	7095	823.841297032898	0.5
8549	7913	1020.30181	0.3
8549	8102	1020.70181	0.4
8549	8268	1021.00805959883	0.3
8549	9328	1220.10187	0.1
8549	9623	1220.60187	0.5
8549	9797	1220.911646804028	0.3
8549	10017	1221.429969499125	0.5
8549	10895	1420.10225	0.1
8549	11139	1420.50225	0.4
8549	11501	1421.50666302197	1
8549	11610	1422.011109824742	0.5
8549	12486	1620.40265	0.4
8549	12697	1620.80265	0.4
8549	12921	1621.304987993741	0.5
8549	13049	1621.713896287933	0.4
8549	13841	1820.1029	0.1
8549	14102	1820.6029	0.5
8549	14195	1820.804620381129	0.2
8549	14357	1821.212098126291	0.4
8549	15409	2020.40318	0.4
8549	15889	2021.505610934461	1.1
8549	15952	2021.808080700184	0.3
8549	15996	2022.008893148263	0.2
8549	16848	2220.10352	0.1
8549	17255	2220.90352	0.8
8549	17394	2221.212332988731	0.3
8549	17465	2221.421003328778	0.2
8549	17512	2221.623843912558	0.2
8549	18312	2420.20383	0.2
8549	18560	2420.70425464392	0.5
8549	18882	2421.705026725449	1
8549	18971	2422.219477768655	0.5
8549	19014	2422.629453802616	0.4
8549	19827	2620.3042	0.3
8549	20000	2620.7042	0.4
8549	20155	2621.012380078691	0.3
8549	20349	2621.630596458061	0.6
8549	21104	2820.20446	0.2
8549	21337	2820.617167999532	0.4
8549	21431	2820.83263434171	0.2
8549	21605	2821.238641569225	0.4
8549	22777	3020.30468	0.3
8549	23074	3021.00468	0.7
8549	23291	3021.60895659586	0.6
8549	24233	3220.205	0.2
8549	24559	3220.905	0.7
8549	24850	3221.712289641136	0.8
8549	25727	3420.20529	0.2
8549	25883	3420.50529	0.3
8549	25974	3420.708646858987	0.2
8549	26089	3420.921897440258	0.2
8549	26869	3620.00549	0
8549	27274	3620.60549	0.6
8549	27402	3620.814359734317	0.2
8549	28550	3820.10577	0.1
8549	28846	3820.60577	0.5
8549	28964	3820.814352298648	0.2
8549	29109	3821.119637056636	0.3
8549	29257	3821.528577997228	0.4
8549	30123	4020.2062	0.2
8549	30471	4020.9062	0.7
8549	30676	4021.513487302757	0.6
8549	30753	4021.916226745271	0.4
8549	30789	4022.226150409066	0.3
8549	31707	4220.40659	0.4
8549	31941	4220.90659	0.5
8549	32133	4221.316233106792	0.4
8549	33198	4420.10673	0.1
8549	33428	4420.50673	0.4
8549	33768	4421.215961665183	0.7
8549	34739	4620.30703	0.3
8549	35160	4621.30703	1
8549	35241	4621.6135911172	0.3
8549	35286	4622.11962803326	0.5
8549	35298	4622.32176416684	0.2
8549	36116	4820.10749	0.1
8549	36332	4820.50749	0.4
8549	36564	4821.011384345615	0.5
8549	36736	4821.417286809222	0.4
8549	37774	5020.20767	0.2
8549	37933	5020.50767	0.3
8549	38040	5020.715108510358	0.2
8549	38277	5021.230670523775	0.5
8549	38387	5021.53251469109	0.3
8549	39253	5220.00793	0
8549	39740	5220.80793	0.8
8549	40103	5221.725047979039	0.9
8549	41096	5420.30831	0.3
8549	41590	5421.50831	1.2
8549	41643	5421.812754361915	0.3
8549	41674	5422.113203865277	0.3
8549	42498	5620.20868	0.2
8549	42841	5620.90868	0.7
8549	42968	5621.210995779051	0.3
8549	44013	5820.30886	0.3
8549	44328	5820.90886	0.6
8549	44467	5821.222037525619	0.3
8549	44568	5821.623362553473	0.4
8549	45418	6020.1092	0.1
8549	45691	6020.6092	0.5
8549	45852	6020.918266192523	0.3
8549	46018	6021.31942768414	0.4
8549	46867	6220.20944	0.2
8549	46989	6220.40944	0.2
8549	47142	6220.713050140557	0.3
8549	47228	6220.919580688991	0.2
8550	130	20.10003	1
8550	393	20.50003	3
8550	817	21.502918216739	9
8550	933	22.003862969187	4
8550	1581	220.00053	0
8550	1894	220.413363280967	3
8550	1987	220.621451373123	1
8550	3086	420.10068	1
8550	3404	420.70068	5
8550	3668	421.310227523417	5
8550	3753	421.618334470818	2
8550	4561	620.20113	2
8550	4785	620.60113	3
8550	4890	620.803836767618	1
8550	5185	621.612355090989	7
8550	6657	820.90138	10
8550	6747	821.10138	1
8550	6862	821.418146193138	2
8550	6932	821.727755795345	2
8550	6955	821.936527036754	1
8550	7019	822.542213184763	5
8550	8048	1020.60177	6
8550	8340	1021.20177	5
8550	8459	1021.602934695075	3
8550	8547	1022.212666430399	5
8550	8583	1022.613088015571	3
8550	8611	1023.015109830789	3
8550	8633	1023.423296696931	3
8550	8649	1023.73090251369	2
8550	9425	1220.2021	2
8550	10120	1221.9021	16
8550	10174	1222.405169951038	4