version 2
run Stability-69-20130524-20:23:09-3483
attr configname Stability
attr datetime 20130524-20:23:09
attr experiment Stability
attr inifile omnetpp.ini
attr iterationvars $0=1e0
attr iterationvars2 "$0=1e0, $repetition=9"
attr measurement $0=1e0
attr network Network
attr processid 3483
attr repetition 9
attr replication #9
attr resultdir results
attr runnumber 69
attr seedset 69

vector 6699  Network.dyn_peer[25]  lookupHopsSig:vector  ETV
vector 6700  Network.dyn_peer[25]  lookupStabilitySig:vector  ETV
vector 6701  Network.dyn_peer[25]  lookupTimeSig:vector  ETV
vector 6630  Network.dyn_peer[2]  lookupHopsSig:vector  ETV
vector 6631  Network.dyn_peer[2]  lookupStabilitySig:vector  ETV
vector 6632  Network.dyn_peer[2]  lookupTimeSig:vector  ETV
vector 6648  Network.dyn_peer[8]  lookupHopsSig:vector  ETV
vector 6649  Network.dyn_peer[8]  lookupStabilitySig:vector  ETV
vector 6650  Network.dyn_peer[8]  lookupTimeSig:vector  ETV
vector 6651  Network.dyn_peer[9]  lookupHopsSig:vector  ETV
vector 6652  Network.dyn_peer[9]  lookupStabilitySig:vector  ETV
vector 6653  Network.dyn_peer[9]  lookupTimeSig:vector  ETV
vector 6654  Network.dyn_peer[10]  lookupHopsSig:vector  ETV
vector 6655  Network.dyn_peer[10]  lookupStabilitySig:vector  ETV
vector 6656  Network.dyn_peer[10]  lookupTimeSig:vector  ETV
vector 6660  Network.dyn_peer[12]  lookupHopsSig:vector  ETV
vector 6661  Network.dyn_peer[12]  lookupStabilitySig:vector  ETV
vector 6662  Network.dyn_peer[12]  lookupTimeSig:vector  ETV
vector 6672  Network.dyn_peer[16]  lookupHopsSig:vector  ETV
vector 6673  Network.dyn_peer[16]  lookupStabilitySig:vector  ETV
vector 6674  Network.dyn_peer[16]  lookupTimeSig:vector  ETV
vector 6675  Network.dyn_peer[17]  lookupHopsSig:vector  ETV
vector 6676  Network.dyn_peer[17]  lookupStabilitySig:vector  ETV
vector 6677  Network.dyn_peer[17]  lookupTimeSig:vector  ETV
vector 6678  Network.dyn_peer[18]  lookupHopsSig:vector  ETV
vector 6679  Network.dyn_peer[18]  lookupStabilitySig:vector  ETV
vector 6680  Network.dyn_peer[18]  lookupTimeSig:vector  ETV
vector 6717  Network.dyn_peer[31]  lookupHopsSig:vector  ETV
vector 6718  Network.dyn_peer[31]  lookupStabilitySig:vector  ETV
vector 6719  Network.dyn_peer[31]  lookupTimeSig:vector  ETV
vector 6645  Network.dyn_peer[7]  lookupHopsSig:vector  ETV
vector 6646  Network.dyn_peer[7]  lookupStabilitySig:vector  ETV
vector 6647  Network.dyn_peer[7]  lookupTimeSig:vector  ETV
vector 6657  Network.dyn_peer[11]  lookupHopsSig:vector  ETV
vector 6658  Network.dyn_peer[11]  lookupStabilitySig:vector  ETV
vector 6659  Network.dyn_peer[11]  lookupTimeSig:vector  ETV
vector 6669  Network.dyn_peer[15]  lookupHopsSig:vector  ETV
vector 6670  Network.dyn_peer[15]  lookupStabilitySig:vector  ETV
vector 6671  Network.dyn_peer[15]  lookupTimeSig:vector  ETV
vector 6681  Network.dyn_peer[19]  lookupHopsSig:vector  ETV
vector 6682  Network.dyn_peer[19]  lookupStabilitySig:vector  ETV
vector 6683  Network.dyn_peer[19]  lookupTimeSig:vector  ETV
vector 6684  Network.dyn_peer[20]  lookupHopsSig:vector  ETV
vector 6685  Network.dyn_peer[20]  lookupStabilitySig:vector  ETV
vector 6686  Network.dyn_peer[20]  lookupTimeSig:vector  ETV
vector 6687  Network.dyn_peer[21]  lookupHopsSig:vector  ETV
vector 6688  Network.dyn_peer[21]  lookupStabilitySig:vector  ETV
vector 6689  Network.dyn_peer[21]  lookupTimeSig:vector  ETV
vector 6690  Network.dyn_peer[22]  lookupHopsSig:vector  ETV
vector 6691  Network.dyn_peer[22]  lookupStabilitySig:vector  ETV
vector 6692  Network.dyn_peer[22]  lookupTimeSig:vector  ETV
vector 6705  Network.dyn_peer[27]  lookupHopsSig:vector  ETV
vector 6706  Network.dyn_peer[27]  lookupStabilitySig:vector  ETV
vector 6707  Network.dyn_peer[27]  lookupTimeSig:vector  ETV
vector 6642  Network.dyn_peer[6]  lookupHopsSig:vector  ETV
vector 6643  Network.dyn_peer[6]  lookupStabilitySig:vector  ETV
vector 6644  Network.dyn_peer[6]  lookupTimeSig:vector  ETV
vector 6693  Network.dyn_peer[23]  lookupHopsSig:vector  ETV
vector 6694  Network.dyn_peer[23]  lookupStabilitySig:vector  ETV
vector 6695  Network.dyn_peer[23]  lookupTimeSig:vector  ETV
vector 6696  Network.dyn_peer[24]  lookupHopsSig:vector  ETV
vector 6697  Network.dyn_peer[24]  lookupStabilitySig:vector  ETV
vector 6698  Network.dyn_peer[24]  lookupTimeSig:vector  ETV
vector 6702  Network.dyn_peer[26]  lookupHopsSig:vector  ETV
vector 6703  Network.dyn_peer[26]  lookupStabilitySig:vector  ETV
vector 6704  Network.dyn_peer[26]  lookupTimeSig:vector  ETV
vector 6708  Network.dyn_peer[28]  lookupHopsSig:vector  ETV
vector 6709  Network.dyn_peer[28]  lookupStabilitySig:vector  ETV
vector 6710  Network.dyn_peer[28]  lookupTimeSig:vector  ETV
vector 6639  Network.dyn_peer[5]  lookupHopsSig:vector  ETV
vector 6640  Network.dyn_peer[5]  lookupStabilitySig:vector  ETV
vector 6641  Network.dyn_peer[5]  lookupTimeSig:vector  ETV
vector 6711  Network.dyn_peer[29]  lookupHopsSig:vector  ETV
vector 6712  Network.dyn_peer[29]  lookupStabilitySig:vector  ETV
vector 6713  Network.dyn_peer[29]  lookupTimeSig:vector  ETV
vector 6714  Network.dyn_peer[30]  lookupHopsSig:vector  ETV
vector 6715  Network.dyn_peer[30]  lookupStabilitySig:vector  ETV
vector 6716  Network.dyn_peer[30]  lookupTimeSig:vector  ETV
vector 6636  Network.dyn_peer[4]  lookupHopsSig:vector  ETV
vector 6637  Network.dyn_peer[4]  lookupStabilitySig:vector  ETV
vector 6638  Network.dyn_peer[4]  lookupTimeSig:vector  ETV
vector 6663  Network.dyn_peer[13]  lookupHopsSig:vector  ETV
vector 6664  Network.dyn_peer[13]  lookupStabilitySig:vector  ETV
vector 6665  Network.dyn_peer[13]  lookupTimeSig:vector  ETV
vector 6666  Network.dyn_peer[14]  lookupHopsSig:vector  ETV
vector 6667  Network.dyn_peer[14]  lookupStabilitySig:vector  ETV
vector 6668  Network.dyn_peer[14]  lookupTimeSig:vector  ETV
vector 6624  Network.dyn_peer[0]  lookupHopsSig:vector  ETV
vector 6625  Network.dyn_peer[0]  lookupStabilitySig:vector  ETV
vector 6626  Network.dyn_peer[0]  lookupTimeSig:vector  ETV
vector 6627  Network.dyn_peer[1]  lookupHopsSig:vector  ETV
vector 6628  Network.dyn_peer[1]  lookupStabilitySig:vector  ETV
vector 6629  Network.dyn_peer[1]  lookupTimeSig:vector  ETV
vector 6633  Network.dyn_peer[3]  lookupHopsSig:vector  ETV
vector 6634  Network.dyn_peer[3]  lookupStabilitySig:vector  ETV
vector 6635  Network.dyn_peer[3]  lookupTimeSig:vector  ETV
6624	440	20.601	6
6624	637	21.001	3
6624	905	21.610826123695	5
6624	1005	22.015829610927	3
6624	1765	120.456	4
6624	1921	120.656	1
6624	2177	121.059929245311	3
6624	2499	121.675158706908	5
6624	3820	221.076	10
6624	3998	221.476	3
6624	4127	221.880423162185	3
6624	4200	222.184664454889	2
6624	4275	222.59361765163	3
6624	4325	222.995750877815	3
6624	4365	223.405266349829	3
6624	4390	223.70823781973	2
6624	4409	223.911974950346	1
6624	5178	320.521	4
6624	5366	320.821	2
6624	6670	420.428	3
6624	7131	421.228	7
6624	8309	520.564	4
6624	8691	521.164	5
6624	10025	620.791	6
6624	10436	621.596121990432	7
6624	11057	720.236	0
6624	11397	720.639203829864	3
6624	11508	720.839496924668	1
6624	12517	820.351	1
6624	13076	821.151	7
6624	13264	821.552401615708	3
6624	13401	821.955402125903	3
6624	14465	920.796	5
6624	14698	921.196	3
6624	14951	921.804706691956	5
6624	15012	922.011524065391	1
6624	15092	922.422706904457	3
6624	15123	922.633406425925	1
6624	15160	923.042432341816	3
6624	15185	923.354726483889	2
6624	15797	1020.439	1
6624	15965	1020.639	1
6624	16400	1021.466224901302	7
6624	17340	1120.447	1
6624	17609	1120.847	3
6624	17810	1121.250782749774	3
6624	18933	1220.775	4
6624	19092	1221.075	2
6624	19237	1221.384550034939	2
6624	20316	1320.808	4
6624	20418	1321.008	1
6624	20519	1321.217064151144	1
6624	20753	1321.722893525342	4
6624	21758	1420.646	2
6624	22224	1421.446	7
6624	22408	1421.755992552287	2
6624	22578	1422.26399589502	4
6624	23355	1520.583	1
6624	23883	1521.483	8
6624	24069	1521.892314913924	3
6624	25107	1621.113	6
6624	25410	1621.813	6
6624	25547	1622.228324756808	3
6624	26162	1720.552	0
6624	26420	1720.952	3
6624	26531	1721.161952049739	1
6624	27719	1820.66	1
6624	28196	1821.467236651333	7
6624	28295	1821.676644275462	1
6624	28525	1822.579694169171	8
6624	29396	1920.815	2
6624	29925	1921.915	10
6624	30772	2020.832	2
6624	31201	2021.632	7
6624	32262	2120.754	1
6624	32473	2121.054	2
6624	32676	2121.462484326421	3
6624	32971	2122.171254838336	6
6624	33926	2221	3
6624	34168	2221.5	4
6624	34431	2222.103048158711	5
6624	35241	2320.826	1
6624	35536	2321.326	4
6624	35623	2321.52617172021	1
6624	35723	2321.732704233322	1
6624	36598	2420.851	1
6624	36896	2421.351	4
6624	37054	2421.655775105726	2
6624	37357	2422.358938101281	6
6624	37479	2422.76434287155	3
6624	38424	2521.297	5
6624	38530	2521.497	1
6624	38674	2521.805993153953	2
6624	39939	2621.418	6
6624	40155	2621.818	3
6624	40314	2622.125257154432	2
6624	40453	2622.430968726092	2
6624	40636	2622.942061517285	4
6624	40750	2623.444603013766	4
6624	42002	2722.06	12
6624	42143	2722.462675960343	3
6624	42211	2722.7697536059	2
6624	42253	2723.176381663626	3
6624	42309	2723.986172946413	7
6624	42320	2724.290679119798	2
6624	42337	2724.992684324707	6
6624	42965	2821.1	2
6624	43644	2822.5	13
6624	43727	2822.912913045207	3
6624	44383	2921.127	2
6624	44685	2921.727	5
6624	45597	3020.935	0
6624	45774	3021.135	1
6624	46017	3021.543944582617	3
6624	46191	3021.853690969174	2
6624	46301	3022.063603554381	1
6624	47385	3121.166	2
6624	47619	3121.571619539644	3
6624	47750	3121.875098369802	2
6624	47830	3122.078223740955	1
6625	440	20.601	0.25
6625	637	21.001	0.75
6625	905	21.610826123695	0.79166667163372
6625	1005	22.015829610927	0.90625
6625	1765	120.456	0.5
6625	1921	120.656	0.875
6625	2177	121.059929245311	0.72727271914482
6625	2499	121.675158706908	0.76190476119518
6625	3820	221.076	0.23076921701431
6625	3998	221.476	0.83333332836628
6625	4127	221.880423162185	0.88000000268221
6625	4200	222.184664454889	0.92307692021132
6625	4275	222.59361765163	0.89999999850988
6625	4325	222.995750877815	0.90625
6625	4365	223.405266349829	0.9142857119441
6625	4390	223.70823781973	0.94285714253783
6625	4409	223.911974950346	0.97142857126892
6625	5178	320.521	0.55555555224419
6625	5366	320.821	0.81818181276321
6625	6670	420.428	0.625
6625	7131	421.228	0.5625
6625	8309	520.564	0.5
6625	8691	521.164	0.58333334326744
6625	10025	620.791	0.39999997615814
6625	10436	621.596121990432	0.73076921701431
6625	11057	720.236	1
6625	11397	720.639203829864	0.66666665673256
6625	11508	720.839496924668	0.89999999850988
6625	12517	820.351	0.875
6625	13076	821.151	0.36363637447357
6625	13264	821.552401615708	0.84999999403954
6625	13401	821.955402125903	0.875
6625	14465	920.796	0.375
6625	14698	921.196	0.76923076808453
6625	14951	921.804706691956	0.78260870277882
6625	15012	922.011524065391	0.96551724150777
6625	15092	922.422706904457	0.90625
6625	15123	922.633406425925	0.97058823518455
6625	15160	923.042432341816	0.9142857119441
6625	15185	923.354726483889	0.94444444403052
6625	15797	1020.439	0.875
6625	15965	1020.639	0.875
6625	16400	1021.466224901302	0.46153843402863
6625	17340	1120.447	0.875
6625	17609	1120.847	0.66666665673256
6625	17810	1121.250782749774	0.69999998807907
6625	18933	1220.775	0.5
6625	19092	1221.075	0.77777777612209
6625	19237	1221.384550034939	0.83333332836628
6625	20316	1320.808	0.55555555224419
6625	20418	1321.008	0.88888888806105
6625	20519	1321.217064151144	0.91666666418314
6625	20753	1321.722893525342	0.78947368264198
6625	21758	1420.646	0.75
6625	22224	1421.446	0.30000001192093
6625	22408	1421.755992552287	0.89473684132099
6625	22578	1422.26399589502	0.84000000357628
6625	23355	1520.583	0.875
6625	23883	1521.483	0.27272725105286
6625	24069	1521.892314913924	0.875
6625	25107	1621.113	0.33333331346512
6625	25410	1621.813	0.69999998807907
6625	25547	1622.228324756808	0.90322580933571
6625	26162	1720.552	1
6625	26420	1720.952	0.625
6625	26531	1721.161952049739	0.88888888806105
6625	27719	1820.66	0.875
6625	28196	1821.467236651333	0.41666668653488
6625	28295	1821.676644275462	0.9375
6625	28525	1822.579694169171	0.75757575035095
6625	29396	1920.815	0.75
6625	29925	1921.915	0.4736841917038
6625	30772	2020.832	0.75
6625	31201	2021.632	0.30000001192093
6625	32262	2120.754	0.875
6625	32473	2121.054	0.75
6625	32676	2121.462484326421	0.69999998807907
6625	32971	2122.171254838336	0.76000000536442
6625	33926	2221	0.625
6625	34168	2221.5	0.63636362552643
6625	34431	2222.103048158711	0.75
6625	35241	2320.826	0.875
6625	35536	2321.326	0.55555555224419
6625	35623	2321.52617172021	0.88888888806105
6625	35723	2321.732704233322	0.92857142537832
6625	36598	2420.851	0.875
6625	36896	2421.351	0.55555555224419
6625	37054	2421.655775105726	0.79999999701977
6625	37357	2422.358938101281	0.69999998807907
6625	37479	2422.76434287155	0.89285714179277
6625	38424	2521.297	0.5
6625	38530	2521.497	0.89999999850988
6625	38674	2521.805993153953	0.89473684132099
6625	39939	2621.418	0.25
6625	40155	2621.818	0.66666665673256
6625	40314	2622.125257154432	0.86666665971279
6625	40453	2622.430968726092	0.875
6625	40636	2622.942061517285	0.84615384042263
6625	40750	2623.444603013766	0.86666665971279
6625	42002	2722.06	0.25
6625	42143	2722.462675960343	0.86956521868706
6625	42211	2722.7697536059	0.93548387289047
6625	42253	2723.176381663626	0.9142857119441
6625	42309	2723.986172946413	0.81081080436707
6625	42320	2724.290679119798	0.94594594463706
6625	42337	2724.992684324707	0.84615384042263
6625	42965	2821.1	0.75
6625	43644	2822.5	0.35000002384186
6625	43727	2822.912913045207	0.9142857119441
6625	44383	2921.127	0.75
6625	44685	2921.727	0.58333334326744
6625	45597	3020.935	1
6625	45774	3021.135	0.875
6625	46017	3021.543944582617	0.625
6625	46191	3021.853690969174	0.79999999701977
6625	46301	3022.063603554381	0.91666666418314
6625	47385	3121.166	0.75
6625	47619	3121.571619539644	0.625
6625	47750	3121.875098369802	0.81818181276321
6625	47830	3122.078223740955	0.92307692021132
6626	440	20.601	0.6
6626	637	21.001	0.4
6626	905	21.610826123695	0.6
6626	1005	22.015829610927	0.4
6626	1765	120.456	0.4
6626	1921	120.656	0.2
6626	2177	121.059929245311	0.4
6626	2499	121.675158706908	0.6
6626	3820	221.076	1
6626	3998	221.476	0.4
6626	4127	221.880423162185	0.4
6626	4200	222.184664454889	0.3
6626	4275	222.59361765163	0.4
6626	4325	222.995750877815	0.4
6626	4365	223.405266349829	0.4
6626	4390	223.70823781973	0.3
6626	4409	223.911974950346	0.2
6626	5178	320.521	0.4
6626	5366	320.821	0.3
6626	6670	420.428	0.3
6626	7131	421.228	0.8
6626	8309	520.564	0.4
6626	8691	521.164	0.6
6626	10025	620.791	0.6
6626	10436	621.596121990432	0.8
6626	11057	720.236	0
6626	11397	720.639203829864	0.4
6626	11508	720.839496924668	0.2
6626	12517	820.351	0.1
6626	13076	821.151	0.8
6626	13264	821.552401615708	0.4
6626	13401	821.955402125903	0.4
6626	14465	920.796	0.5
6626	14698	921.196	0.4
6626	14951	921.804706691956	0.6
6626	15012	922.011524065391	0.2
6626	15092	922.422706904457	0.4
6626	15123	922.633406425925	0.2
6626	15160	923.042432341816	0.4
6626	15185	923.354726483889	0.3
6626	15797	1020.439	0.1
6626	15965	1020.639	0.2
6626	16400	1021.466224901302	0.8
6626	17340	1120.447	0.1
6626	17609	1120.847	0.4
6626	17810	1121.250782749774	0.4
6626	18933	1220.775	0.4
6626	19092	1221.075	0.3
6626	19237	1221.384550034939	0.3
6626	20316	1320.808	0.4
6626	20418	1321.008	0.2
6626	20519	1321.217064151144	0.2
6626	20753	1321.722893525342	0.5
6626	21758	1420.646	0.2
6626	22224	1421.446	0.8
6626	22408	1421.755992552287	0.3
6626	22578	1422.26399589502	0.5
6626	23355	1520.583	0.1
6626	23883	1521.483	0.9
6626	24069	1521.892314913924	0.4
6626	25107	1621.113	0.6
6626	25410	1621.813	0.7
6626	25547	1622.228324756808	0.4
6626	26162	1720.552	0
6626	26420	1720.952	0.4
6626	26531	1721.161952049739	0.2
6626	27719	1820.66	0.1
6626	28196	1821.467236651333	0.8
6626	28295	1821.676644275462	0.2
6626	28525	1822.579694169171	0.9
6626	29396	1920.815	0.2
6626	29925	1921.915	1.1
6626	30772	2020.832	0.2
6626	31201	2021.632	0.8
6626	32262	2120.754	0.1
6626	32473	2121.054	0.3
6626	32676	2121.462484326421	0.4
6626	32971	2122.171254838336	0.7
6626	33926	2221	0.3
6626	34168	2221.5	0.5
6626	34431	2222.103048158711	0.6
6626	35241	2320.826	0.1
6626	35536	2321.326	0.5
6626	35623	2321.52617172021	0.2
6626	35723	2321.732704233322	0.2
6626	36598	2420.851	0.1
6626	36896	2421.351	0.5
6626	37054	2421.655775105726	0.3
6626	37357	2422.358938101281	0.7
6626	37479	2422.76434287155	0.4
6626	38424	2521.297	0.5
6626	38530	2521.497	0.2
6626	38674	2521.805993153953	0.3
6626	39939	2621.418	0.6
6626	40155	2621.818	0.4
6626	40314	2622.125257154432	0.3
6626	40453	2622.430968726092	0.3
6626	40636	2622.942061517285	0.5
6626	40750	2623.444603013766	0.5
6626	42002	2722.06	1.2
6626	42143	2722.462675960343	0.4
6626	42211	2722.7697536059	0.3
6626	42253	2723.176381663626	0.4
6626	42309	2723.986172946413	0.8
6626	42320	2724.290679119798	0.3
6626	42337	2724.992684324707	0.7
6626	42965	2821.1	0.2
6626	43644	2822.5	1.4
6626	43727	2822.912913045207	0.4
6626	44383	2921.127	0.2
6626	44685	2921.727	0.6
6626	45597	3020.935	0
6626	45774	3021.135	0.2
6626	46017	3021.543944582617	0.4
6626	46191	3021.853690969174	0.3
6626	46301	3022.063603554381	0.2
6626	47385	3121.166	0.2
6626	47619	3121.571619539644	0.4
6626	47750	3121.875098369802	0.3
6626	47830	3122.078223740955	0.2
6627	490	20.702	7
6627	858	21.502	7
6627	933	21.705113570713	1
6627	998	22.005123650086	2
6627	1051	22.711300077157	6
6627	1062	22.920073501505	1
6627	1521	120.162	1
6627	1853	120.562	3
6627	2073	120.865027390881	2
6627	2192	121.066198437728	1
6627	2454	121.572905346941	4
6627	2976	220.072	0
6627	3381	220.472	3
6627	3768	220.977285641904	4
6627	4076	221.681294138351	6
6627	4759	320.107	0
6627	5047	320.407	2
6627	5269	320.712236413415	2
6627	5442	320.947446712315	1
6627	6677	420.43	3
6627	7081	421.13	6
6627	7213	421.435008123521	2
6627	8244	520.466	3
6627	8574	520.966	4
6627	8698	521.169919709159	1
6627	9474	620.192	0
6627	9718	620.392	1
6627	9908	620.600179088954	1
6627	10123	620.909451689566	2
6627	11209	720.42	2
6627	11363	720.62	1
6627	12511	820.349	1
6627	12838	820.749	3
6627	13028	821.055526735713	2
6627	14233	920.482	2
6627	14514	920.882	3
6627	15580	1020.311	0
6627	15811	1020.511	1
6627	16222	1021.125223181325	5
6627	17331	1120.443	1
6627	17607	1120.845593293164	3
6627	17976	1121.654989184219	7
6627	18890	1220.69	3
6627	19110	1221.09	3
6627	19328	1221.591254040286	4
6627	20178	1320.612	2
6627	20471	1321.112	4
6627	20951	1322.418170928236	12
6627	21723	1420.558	1
6627	21902	1420.858	2
6627	22205	1421.363171541615	4
6627	22424	1421.768204111027	3
6627	22498	1421.973590913627	1
6627	22554	1422.175305270216	1
6627	22679	1422.683939601062	4
6627	22741	1423.089013557492	3
6627	23521	1520.792	3
6627	23734	1521.192	3
6627	23902	1521.497334968443	2
6627	24126	1522.105202545009	5
6627	24699	1620.519	0
6627	24993	1620.919	3
6627	25492	1622.025121822833	10
6627	26133	1720.545	0
6627	26458	1721.045	4
6627	26678	1721.54759524401	4
6627	26812	1721.855055837742	2
6627	26991	1722.461486744665	5
6627	27912	1820.881	3
6627	28164	1821.381	4
6627	29265	1920.693	1
6627	29476	1920.993	2
6627	29722	1921.498265625833	4
6627	30008	1922.200014537697	6
6627	30131	1922.704509032588	4
6627	30930	2021.046	4
6627	31172	2021.546	4
6627	31353	2021.952298841126	3
6627	32354	2120.864	2
6627	32720	2121.564	6
6627	33014	2122.373874025073	7
6627	33697	2220.704	0
6627	33859	2220.904	1
6627	34353	2221.907424837959	9
6627	34437	2222.108197025424	1
6627	34607	2223.011073294477	8
6627	35342	2320.941	2
6627	35817	2321.941	9
6627	35931	2322.342377776898	3
6627	35997	2322.75219631302	3
6627	36817	2421.172	4
6627	37205	2421.972	7
6627	37412	2422.47292614599	4
6627	37510	2422.881397168389	3
6627	37552	2423.182414955638	2
6627	37587	2423.68681414391	4
6627	37604	2423.8965651302	1
6627	37618	2424.301085948679	3
6627	37630	2424.607611142769	2
6627	38202	2520.906	1
6627	38435	2521.306	3
6627	38547	2521.507547781652	1
6627	38718	2521.911269100737	3
6627	39771	2621.12	3
6627	39944	2621.42	2
6627	40060	2621.629710554669	1
6627	41398	2720.938	1
6627	41881	2721.838	8
6627	42901	2821.07	2
6627	43023	2821.27	1
6627	43383	2821.9705631414	6
6627	43537	2822.28025258263	2
6627	44707	2921.807	9
6627	44927	2922.407	5
6627	45039	2922.910256211371	4
6627	45066	2923.117051558897	1
6627	45104	2923.418659700771	2
6627	45122	2923.627018623159	1
6627	45147	2924.132000590497	4
6627	45153	2924.332466105135	1
6627	45998	3021.461	5
6627	46100	3021.661	1
6627	46528	3022.674565084213	9
6627	47765	3121.881	9
6627	48132	3122.881	9
6627	48200	3123.08814191467	1
6627	48318	3123.596242772267	4
6628	490	20.702	0.22222220897675
6628	858	21.502	0.65000000596046
6628	933	21.705113570713	0.96296296268702
6628	998	22.005123650086	0.9375
6628	1051	22.711300077157	0.83783784508705
6628	1062	22.920073501505	0.97368421033025
6628	1521	120.162	0.875
6628	1853	120.562	0.625
6628	2073	120.865027390881	0.79999999701977
6628	2192	121.066198437728	0.90909090638161
6628	2454	121.572905346941	0.75
6628	2976	220.072	1
6628	3381	220.472	0.625
6628	3768	220.977285641904	0.69230768084526
6628	4076	221.681294138351	0.71428570151329
6628	4759	320.107	1
6628	5047	320.407	0.75
6628	5269	320.712236413415	0.77777777612209
6628	5442	320.947446712315	0.92307692021132
6628	6677	420.43	0.625
6628	7081	421.13	0.5
6628	7213	421.435008123521	0.88888888806105
6628	8244	520.466	0.625
6628	8574	520.966	0.55555555224419
6628	8698	521.169919709159	0.92307692021132
6628	9474	620.192	1
6628	9718	620.392	0.875
6628	9908	620.600179088954	0.875
6628	10123	620.909451689566	0.79999999701977
6628	11209	720.42	0.75
6628	11363	720.62	0.875
6628	12511	820.349	0.875
6628	12838	820.749	0.625
6628	13028	821.055526735713	0.79999999701977
6628	14233	920.482	0.75
6628	14514	920.882	0.625
6628	15580	1020.311	1
6628	15811	1020.511	0.875
6628	16222	1021.125223181325	0.44444441795349
6628	17331	1120.443	0.875
6628	17607	1120.845593293164	0.66666665673256
6628	17976	1121.654989184219	0.70833334326744
6628	18890	1220.69	0.625
6628	19110	1221.09	0.66666665673256
6628	19328	1221.591254040286	0.75
6628	20178	1320.612	0.75
6628	20471	1321.112	0.63636362552643
6628	20951	1322.418170928236	0.61290323734283
6628	21723	1420.558	0.875
6628	21902	1420.858	0.75
6628	22205	1421.363171541615	0.59999999403954
6628	22424	1421.768204111027	0.84999999403954
6628	22498	1421.973590913627	0.95652173832059
6628	22554	1422.175305270216	0.95833333209157
6628	22679	1422.683939601062	0.86206896603107
6628	22741	1423.089013557492	0.90909090638161
6628	23521	1520.792	0.625
6628	23734	1521.192	0.66666665673256
6628	23902	1521.497334968443	0.84615384042263
6628	24126	1522.105202545009	0.83333332836628
6628	24699	1620.519	1
6628	24993	1620.919	0.625
6628	25492	1622.025121822833	0.59999999403954
6628	26133	1720.545	1
6628	26458	1721.045	0.5
6628	26678	1721.54759524401	0.66666665673256
6628	26812	1721.855055837742	0.8823529407382
6628	26991	1722.461486744665	0.83333332836628
6628	27912	1820.881	0.625
6628	28164	1821.381	0.59999999403954
6628	29265	1920.693	0.875
6628	29476	1920.993	0.75
6628	29722	1921.498265625833	0.59999999403954
6628	30008	1922.200014537697	0.72727271914482
6628	30131	1922.704509032588	0.87878787517548
6628	30930	2021.046	0.5
6628	31172	2021.546	0.59999999403954
6628	31353	2021.952298841126	0.84999999403954
6628	32354	2120.864	0.75
6628	32720	2121.564	0.45454543828964
6628	33014	2122.373874025073	0.75862069427967
6628	33697	2220.704	1
6628	33859	2220.904	0.875
6628	34353	2221.907424837959	0.47058820724487
6628	34437	2222.108197025424	0.95238095149398
6628	34607	2223.011073294477	0.77142857015133
6628	35342	2320.941	0.75
6628	35817	2321.941	0.55000001192093
6628	35931	2322.342377776898	0.89999999850988
6628	35997	2322.75219631302	0.91176470369101
6628	36817	2421.172	0.5
6628	37205	2421.972	0.5
6628	37412	2422.47292614599	0.85185185074806
6628	37510	2422.881397168389	0.90322580933571
6628	37552	2423.182414955638	0.94285714253783
6628	37587	2423.68681414391	0.89189188927412
6628	37604	2423.8965651302	0.97297297231853
6628	37618	2424.301085948679	0.92105263471603
6628	37630	2424.607611142769	0.9473684206605
6628	38202	2520.906	0.875
6628	38435	2521.306	0.69999998807907
6628	38547	2521.507547781652	0.90909090638161
6628	38718	2521.911269100737	0.85714285075665
6628	39771	2621.12	0.625
6628	39944	2621.42	0.75
6628	40060	2621.629710554669	0.875
6628	41398	2720.938	0.875
6628	41881	2721.838	0.11111110448837
6628	42901	2821.07	0.75
6628	43023	2821.27	0.875
6628	43383	2821.9705631414	0.39999997615814
6628	43537	2822.28025258263	0.85714285075665
6628	44707	2921.807	0.30769228935242
6628	44927	2922.407	0.79166667163372
6628	45039	2922.910256211371	0.875
6628	45066	2923.117051558897	0.96969696879387
6628	45104	2923.418659700771	0.94285714253783
6628	45122	2923.627018623159	0.97222222201526
6628	45147	2924.132000590497	0.89473684132099
6628	45153	2924.332466105135	0.97368421033025
6628	45998	3021.461	0.375
6628	46100	3021.661	0.875
6628	46528	3022.674565084213	0.66666665673256
6628	47765	3121.881	0.18181818723679
6628	48132	3122.881	0.5714285671711
6628	48200	3123.08814191467	0.96296296268702
6628	48318	3123.596242772267	0.87096774578094
6629	490	20.702	0.7
6629	858	21.502	0.8
6629	933	21.705113570713	0.2
6629	998	22.005123650086	0.3
6629	1051	22.711300077157	0.7
6629	1062	22.920073501505	0.2
6629	1521	120.162	0.1
6629	1853	120.562	0.4
6629	2073	120.865027390881	0.3
6629	2192	121.066198437728	0.2
6629	2454	121.572905346941	0.5
6629	2976	220.072	0
6629	3381	220.472	0.4
6629	3768	220.977285641904	0.5
6629	4076	221.681294138351	0.7
6629	4759	320.107	0
6629	5047	320.407	0.3
6629	5269	320.712236413415	0.3
6629	5442	320.947446712315	0.2
6629	6677	420.43	0.3
6629	7081	421.13	0.7
6629	7213	421.435008123521	0.3
6629	8244	520.466	0.3
6629	8574	520.966	0.5
6629	8698	521.169919709159	0.2
6629	9474	620.192	0
6629	9718	620.392	0.2
6629	9908	620.600179088954	0.2
6629	10123	620.909451689566	0.3
6629	11209	720.42	0.2
6629	11363	720.62	0.2
6629	12511	820.349	0.1
6629	12838	820.749	0.4
6629	13028	821.055526735713	0.3
6629	14233	920.482	0.2
6629	14514	920.882	0.4
6629	15580	1020.311	0
6629	15811	1020.511	0.2
6629	16222	1021.125223181325	0.6
6629	17331	1120.443	0.1
6629	17607	1120.845593293164	0.4
6629	17976	1121.654989184219	0.8
6629	18890	1220.69	0.3
6629	19110	1221.09	0.4
6629	19328	1221.591254040286	0.5
6629	20178	1320.612	0.2
6629	20471	1321.112	0.5
6629	20951	1322.418170928236	1.3
6629	21723	1420.558	0.1
6629	21902	1420.858	0.3
6629	22205	1421.363171541615	0.5
6629	22424	1421.768204111027	0.4
6629	22498	1421.973590913627	0.2
6629	22554	1422.175305270216	0.2
6629	22679	1422.683939601062	0.5
6629	22741	1423.089013557492	0.4
6629	23521	1520.792	0.3
6629	23734	1521.192	0.4
6629	23902	1521.497334968443	0.3
6629	24126	1522.105202545009	0.6
6629	24699	1620.519	0
6629	24993	1620.919	0.4
6629	25492	1622.025121822833	1.1
6629	26133	1720.545	0
6629	26458	1721.045	0.5
6629	26678	1721.54759524401	0.5
6629	26812	1721.855055837742	0.3
6629	26991	1722.461486744665	0.6
6629	27912	1820.881	0.3
6629	28164	1821.381	0.5
6629	29265	1920.693	0.1
6629	29476	1920.993	0.3
6629	29722	1921.498265625833	0.5
6629	30008	1922.200014537697	0.7
6629	30131	1922.704509032588	0.5
6629	30930	2021.046	0.4
6629	31172	2021.546	0.5
6629	31353	2021.952298841126	0.4
6629	32354	2120.864	0.2
6629	32720	2121.564	0.7
6629	33014	2122.373874025073	0.8
6629	33697	2220.704	0
6629	33859	2220.904	0.2
6629	34353	2221.907424837959	1
6629	34437	2222.108197025424	0.2
6629	34607	2223.011073294477	0.9
6629	35342	2320.941	0.2
6629	35817	2321.941	1
6629	35931	2322.342377776898	0.4
6629	35997	2322.75219631302	0.4
6629	36817	2421.172	0.4
6629	37205	2421.972	0.8
6629	37412	2422.47292614599	0.5
6629	37510	2422.881397168389	0.4
6629	37552	2423.182414955638	0.3
6629	37587	2423.68681414391	0.5
6629	37604	2423.8965651302	0.2
6629	37618	2424.301085948679	0.4
6629	37630	2424.607611142769	0.3
6629	38202	2520.906	0.1
6629	38435	2521.306	0.4
6629	38547	2521.507547781652	0.2
6629	38718	2521.911269100737	0.4
6629	39771	2621.12	0.3
6629	39944	2621.42	0.3
6629	40060	2621.629710554669	0.2
6629	41398	2720.938	0.1
6629	41881	2721.838	0.9
6629	42901	2821.07	0.2
6629	43023	2821.27	0.2
6629	43383	2821.9705631414	0.7
6629	43537	2822.28025258263	0.3
6629	44707	2921.807	0.9
6629	44927	2922.407	0.6
6629	45039	2922.910256211371	0.5
6629	45066	2923.117051558897	0.2
6629	45104	2923.418659700771	0.3
6629	45122	2923.627018623159	0.2
6629	45147	2924.132000590497	0.5
6629	45153	2924.332466105135	0.2
6629	45998	3021.461	0.5
6629	46100	3021.661	0.2
6629	46528	3022.674565084213	1
6629	47765	3121.881	0.9
6629	48132	3122.881	1
6629	48200	3123.08814191467	0.2
6629	48318	3123.596242772267	0.5
6630	127	20.103	1
6630	326	20.403	2
6630	540	20.805570920181	3
6630	648	21.010574646423	1
6630	1724	120.436	4
6630	2092	120.936	4
6630	2468	121.641392949269	6
6630	2983	220.073	0
6630	3554	220.673	5
6630	4244	222.375331420318	16
6630	5623	321.315	12
6630	5785	321.715	3
6630	5840	321.920690247539	1
6630	5896	322.128183306769	1
6630	5932	322.335140807751	1
6630	5974	322.74358830531	3
6630	6003	323.145260023482	3
6630	6026	323.549330157633	3
6630	6041	323.84961622145	2
6630	6713	420.454	3
6630	7172	421.261317469954	7
6630	8057	520.265	1
6630	8238	520.465	1
6630	8387	520.668421975197	1
6630	8598	520.977366803756	2
6630	9796	620.488	3
6630	10097	620.888	3
6630	10315	621.29086524449	3
6630	10998	720.224	0
6630	11433	720.724991809547	4
6630	11543	720.929776058174	1
6630	11754	721.434791387554	4
6630	12922	820.861	6
6630	13374	821.861	9
6630	13469	822.26421139249	3
6630	13512	822.57172753074	2
6630	13598	823.17910814685	5
6630	14476	920.803	5
6630	14705	921.203	3
6630	14917	921.708197721403	4
6630	15045	922.209139079129	4
6630	15132	922.71153523855	4
6630	15174	923.215125707339	4
6630	15200	923.715902288425	4
6630	15901	1020.54	2
6630	16090	1020.84	2
6630	16440	1021.56050488425	6
6630	16650	1022.164367952282	5
6630	17259	1120.362	0
6630	17692	1120.962	5
6630	17840	1121.271168382305	2
6630	18025	1121.780460585721	4
6630	18897	1220.693	3
6630	19066	1220.993	2
6630	19403	1221.807955695471	7
6630	20007	1320.417	0
6630	20333	1320.817	3