version 2
run Stability-59-20130524-20:22:51-3483
attr configname Stability
attr datetime 20130524-20:22:51
attr experiment Stability
attr inifile omnetpp.ini
attr iterationvars $0=1e1
attr iterationvars2 "$0=1e1, $repetition=9"
attr measurement $0=1e1
attr network Network
attr processid 3483
attr repetition 9
attr replication #9
attr resultdir results
attr runnumber 59
attr seedset 59

vector 5670  Network.dyn_peer[2]  lookupHopsSig:vector  ETV
vector 5671  Network.dyn_peer[2]  lookupStabilitySig:vector  ETV
vector 5672  Network.dyn_peer[2]  lookupTimeSig:vector  ETV
vector 5673  Network.dyn_peer[3]  lookupHopsSig:vector  ETV
vector 5674  Network.dyn_peer[3]  lookupStabilitySig:vector  ETV
vector 5675  Network.dyn_peer[3]  lookupTimeSig:vector  ETV
vector 5676  Network.dyn_peer[4]  lookupHopsSig:vector  ETV
vector 5677  Network.dyn_peer[4]  lookupStabilitySig:vector  ETV
vector 5678  Network.dyn_peer[4]  lookupTimeSig:vector  ETV
vector 5679  Network.dyn_peer[5]  lookupHopsSig:vector  ETV
vector 5680  Network.dyn_peer[5]  lookupStabilitySig:vector  ETV
vector 5681  Network.dyn_peer[5]  lookupTimeSig:vector  ETV
vector 5718  Network.dyn_peer[18]  lookupHopsSig:vector  ETV
vector 5719  Network.dyn_peer[18]  lookupStabilitySig:vector  ETV
vector 5720  Network.dyn_peer[18]  lookupTimeSig:vector  ETV
vector 5664  Network.dyn_peer[0]  lookupHopsSig:vector  ETV
vector 5665  Network.dyn_peer[0]  lookupStabilitySig:vector  ETV
vector 5666  Network.dyn_peer[0]  lookupTimeSig:vector  ETV
vector 5667  Network.dyn_peer[1]  lookupHopsSig:vector  ETV
vector 5668  Network.dyn_peer[1]  lookupStabilitySig:vector  ETV
vector 5669  Network.dyn_peer[1]  lookupTimeSig:vector  ETV
vector 5697  Network.dyn_peer[11]  lookupHopsSig:vector  ETV
vector 5698  Network.dyn_peer[11]  lookupStabilitySig:vector  ETV
vector 5699  Network.dyn_peer[11]  lookupTimeSig:vector  ETV
vector 5712  Network.dyn_peer[16]  lookupHopsSig:vector  ETV
vector 5713  Network.dyn_peer[16]  lookupStabilitySig:vector  ETV
vector 5714  Network.dyn_peer[16]  lookupTimeSig:vector  ETV
vector 5685  Network.dyn_peer[7]  lookupHopsSig:vector  ETV
vector 5686  Network.dyn_peer[7]  lookupStabilitySig:vector  ETV
vector 5687  Network.dyn_peer[7]  lookupTimeSig:vector  ETV
vector 5691  Network.dyn_peer[9]  lookupHopsSig:vector  ETV
vector 5692  Network.dyn_peer[9]  lookupStabilitySig:vector  ETV
vector 5693  Network.dyn_peer[9]  lookupTimeSig:vector  ETV
vector 5727  Network.dyn_peer[21]  lookupHopsSig:vector  ETV
vector 5728  Network.dyn_peer[21]  lookupStabilitySig:vector  ETV
vector 5729  Network.dyn_peer[21]  lookupTimeSig:vector  ETV
vector 5736  Network.dyn_peer[24]  lookupHopsSig:vector  ETV
vector 5737  Network.dyn_peer[24]  lookupStabilitySig:vector  ETV
vector 5738  Network.dyn_peer[24]  lookupTimeSig:vector  ETV
vector 5682  Network.dyn_peer[6]  lookupHopsSig:vector  ETV
vector 5683  Network.dyn_peer[6]  lookupStabilitySig:vector  ETV
vector 5684  Network.dyn_peer[6]  lookupTimeSig:vector  ETV
vector 5688  Network.dyn_peer[8]  lookupHopsSig:vector  ETV
vector 5689  Network.dyn_peer[8]  lookupStabilitySig:vector  ETV
vector 5690  Network.dyn_peer[8]  lookupTimeSig:vector  ETV
vector 5748  Network.dyn_peer[28]  lookupHopsSig:vector  ETV
vector 5749  Network.dyn_peer[28]  lookupStabilitySig:vector  ETV
vector 5750  Network.dyn_peer[28]  lookupTimeSig:vector  ETV
vector 5751  Network.dyn_peer[29]  lookupHopsSig:vector  ETV
vector 5752  Network.dyn_peer[29]  lookupStabilitySig:vector  ETV
vector 5753  Network.dyn_peer[29]  lookupTimeSig:vector  ETV
vector 5700  Network.dyn_peer[12]  lookupHopsSig:vector  ETV
vector 5701  Network.dyn_peer[12]  lookupStabilitySig:vector  ETV
vector 5702  Network.dyn_peer[12]  lookupTimeSig:vector  ETV
vector 5703  Network.dyn_peer[13]  lookupHopsSig:vector  ETV
vector 5704  Network.dyn_peer[13]  lookupStabilitySig:vector  ETV
vector 5705  Network.dyn_peer[13]  lookupTimeSig:vector  ETV
vector 5733  Network.dyn_peer[23]  lookupHopsSig:vector  ETV
vector 5734  Network.dyn_peer[23]  lookupStabilitySig:vector  ETV
vector 5735  Network.dyn_peer[23]  lookupTimeSig:vector  ETV
vector 5715  Network.dyn_peer[17]  lookupHopsSig:vector  ETV
vector 5716  Network.dyn_peer[17]  lookupStabilitySig:vector  ETV
vector 5717  Network.dyn_peer[17]  lookupTimeSig:vector  ETV
vector 5745  Network.dyn_peer[27]  lookupHopsSig:vector  ETV
vector 5746  Network.dyn_peer[27]  lookupStabilitySig:vector  ETV
vector 5747  Network.dyn_peer[27]  lookupTimeSig:vector  ETV
vector 5721  Network.dyn_peer[19]  lookupHopsSig:vector  ETV
vector 5722  Network.dyn_peer[19]  lookupStabilitySig:vector  ETV
vector 5723  Network.dyn_peer[19]  lookupTimeSig:vector  ETV
vector 5694  Network.dyn_peer[10]  lookupHopsSig:vector  ETV
vector 5695  Network.dyn_peer[10]  lookupStabilitySig:vector  ETV
vector 5696  Network.dyn_peer[10]  lookupTimeSig:vector  ETV
vector 5709  Network.dyn_peer[15]  lookupHopsSig:vector  ETV
vector 5710  Network.dyn_peer[15]  lookupStabilitySig:vector  ETV
vector 5711  Network.dyn_peer[15]  lookupTimeSig:vector  ETV
vector 5742  Network.dyn_peer[26]  lookupHopsSig:vector  ETV
vector 5743  Network.dyn_peer[26]  lookupStabilitySig:vector  ETV
vector 5744  Network.dyn_peer[26]  lookupTimeSig:vector  ETV
vector 5754  Network.dyn_peer[30]  lookupHopsSig:vector  ETV
vector 5755  Network.dyn_peer[30]  lookupStabilitySig:vector  ETV
vector 5756  Network.dyn_peer[30]  lookupTimeSig:vector  ETV
vector 5739  Network.dyn_peer[25]  lookupHopsSig:vector  ETV
vector 5740  Network.dyn_peer[25]  lookupStabilitySig:vector  ETV
vector 5741  Network.dyn_peer[25]  lookupTimeSig:vector  ETV
vector 5724  Network.dyn_peer[20]  lookupHopsSig:vector  ETV
vector 5725  Network.dyn_peer[20]  lookupStabilitySig:vector  ETV
vector 5726  Network.dyn_peer[20]  lookupTimeSig:vector  ETV
vector 5730  Network.dyn_peer[22]  lookupHopsSig:vector  ETV
vector 5731  Network.dyn_peer[22]  lookupStabilitySig:vector  ETV
vector 5732  Network.dyn_peer[22]  lookupTimeSig:vector  ETV
vector 5706  Network.dyn_peer[14]  lookupHopsSig:vector  ETV
vector 5707  Network.dyn_peer[14]  lookupStabilitySig:vector  ETV
vector 5708  Network.dyn_peer[14]  lookupTimeSig:vector  ETV
vector 5757  Network.dyn_peer[31]  lookupHopsSig:vector  ETV
vector 5758  Network.dyn_peer[31]  lookupStabilitySig:vector  ETV
vector 5759  Network.dyn_peer[31]  lookupTimeSig:vector  ETV
5664	121	20.21	2
5664	332	20.51487828833	2
5664	537	20.919455633372	3
5664	1777	120.62	3
5664	2001	120.922689455798	2
5664	2169	121.227848671003	2
5664	2430	121.835932742928	5
5664	3173	220.78	0
5664	3615	221.48	6
5664	3759	221.780161175732	2
5664	4971	321.28	3
5664	5773	322.98	16
5664	5849	323.186120395066	1
5664	5962	323.78894701132	5
5664	5992	324.092375004709	2
5664	6048	324.693937229838	5
5664	6079	325.206018647937	4
5664	6894	421.83	3
5664	7300	422.73	8
5664	8068	521.91	2
5664	8264	522.21	2
5664	8369	522.410351707057	1
5664	8646	523.028181526385	5
5664	8797	523.628630248437	5
5664	9677	622.54	4
5664	10029	623.34	7
5664	10198	624.045720160235	6
5664	10249	624.551947118273	4
5664	10276	625.052879886097	4
5664	10289	625.459898531006	3
5664	10299	625.865861179355	3
5664	10311	626.272897057879	3
5664	10317	626.473253572311	1
5664	10332	626.974668070774	4
5664	11199	722.98	5
5664	11555	723.78	7
5664	12443	822.86	2
5664	12548	823.06	1
5664	12814	823.56449032068	4
5664	13068	824.167119204671	5
5664	13870	923.02	1
5664	14289	923.728157022574	6
5664	15385	1023.11	0
5664	15546	1023.41	2
5664	16065	1024.411099304701	9
5664	16196	1024.717680018064	2
5664	17142	1123.85	3
5664	17521	1124.55	6
5664	17703	1124.957067744771	3
5664	18605	1224.33	4
5664	19027	1225.13	7
5664	19223	1225.738352968383	5
5664	19288	1226.047336673345	2
5664	20038	1324.47	2
5664	20621	1325.679145633678	11
5664	20735	1325.994187710107	2
5664	20799	1326.298059706001	2
5664	20836	1326.602272936471	2
5664	20873	1326.909514859534	2
5664	21766	1425.02	4
5664	21968	1425.42	3
5664	22058	1425.641023114841	1
5664	23008	1525.08	3
5664	23234	1525.48	3
5664	23555	1526.182830449589	6
5664	23739	1527.189618535707	9
5664	23755	1527.394654376669	1
5664	24567	1625.45	2
5664	24791	1625.85	3
5664	24952	1626.16543697283	2
5664	25158	1626.770386238895	5
5664	25888	1725.43	0
5664	26029	1725.63	1
5664	26363	1726.235634348061	5
5664	26444	1726.443706620257	1
5664	27446	1825.86	2
5664	27696	1826.2631408172	3
5664	28068	1827.168776921079	8
5664	29111	1926.62	6
5664	29393	1927.22	5
5664	29575	1927.828911399496	5
5664	30357	2026.58	2
5664	30877	2027.58	9
5664	30966	2027.7939624034	1
5664	31122	2028.401563398781	5
5664	32224	2127.48	7
5664	32323	2127.68	1
5664	32527	2128.188109897593	4
5664	32631	2128.595229907656	3
5664	32682	2128.902710513149	2
5664	32708	2129.11197908512	1
5664	32729	2129.515294804639	3
5664	33597	2227.43	3
5664	33754	2227.73	2
5664	33928	2228.135212769508	3
5664	34042	2228.442233404048	2
5664	34114	2228.64289193058	1
5664	34205	2229.049277958221	3
5664	34926	2327.48	1
5664	35198	2327.98	4
5664	35524	2328.68045955914	6
5664	36463	2427.67	1
5664	36862	2428.37	6
5664	37150	2428.977640711757	5
5664	37224	2429.282728992128	2
5664	37294	2429.791857822758	4
5664	37318	2430.093152960589	2
5664	37359	2430.698184892438	5
5664	37379	2431.104077402267	3
5664	37401	2431.505575721412	3
5664	37412	2431.810314802777	2
5664	37430	2432.417285110452	5
5664	37437	2432.918492744455	4
5664	38118	2528.17	1
5664	38464	2528.87	6
5664	38552	2529.076649253491	1
5664	38703	2529.485425622418	3
5664	39557	2628.56	3
5664	39912	2629.26	6
5664	40169	2630.062450374707	7
5664	40189	2630.270695867466	1
5664	40206	2630.478681054319	1
5664	40951	2728.89	2
5664	41249	2729.499134845123	5
5664	41380	2729.80029912535	2
5664	41446	2730.009791427125	1
5664	41517	2730.227581642605	1
5664	42565	2829.25	4
5664	42870	2829.85	5
5664	43142	2830.657123969395	7
5664	43192	2830.960943187321	2
5664	44005	2929.36	1
5664	44287	2929.86	4
5664	44535	2930.360549769669	4
5664	45463	3029.5	1
5664	45848	3030.1	5
5664	46066	3030.603138763171	4
5664	46135	3030.806243826332	1
5664	46946	3129.89	1
5664	47150	3130.19	2
5664	47309	3130.496179179705	2
5664	47427	3130.705623902396	1
5664	47534	3130.918734674126	1
5665	121	20.21	0.75
5665	332	20.51487828833	0.75
5665	537	20.919455633372	0.625
5665	1777	120.62	0.625
5665	2001	120.922689455798	0.75
5665	2169	121.227848671003	0.79999999701977
5665	2430	121.835932742928	0.78260870277882
5665	3173	220.78	1
5665	3615	221.48	0.39999997615814
5665	3759	221.780161175732	0.83333332836628
5665	4971	321.28	0.625
5665	5773	322.98	0.27272725105286
5665	5849	323.186120395066	0.96428571268916
5665	5962	323.78894701132	0.85294117033482
5665	5992	324.092375004709	0.9411764703691
5665	6048	324.693937229838	0.86111110448837
5665	6079	325.206018647937	0.88888888806105
5665	6894	421.83	0.66666665673256
5665	7300	422.73	0.65217390656471
5665	8068	521.91	0.75
5665	8264	522.21	0.75
5665	8369	522.410351707057	0.88888888806105
5665	8646	523.028181526385	0.76190476119518
5665	8797	523.628630248437	0.85714285075665
5665	9677	622.54	0.5
5665	10029	623.34	0.66666665673256
5665	10198	624.045720160235	0.82352940738201
5665	10249	624.551947118273	0.88888888806105
5665	10276	625.052879886097	0.89189188927412
5665	10289	625.459898531006	0.92105263471603
5665	10299	625.865861179355	0.92105263471603
5665	10311	626.272897057879	0.92105263471603
5665	10317	626.473253572311	0.97368421033025
5665	10332	626.974668070774	0.89473684132099
5665	11199	722.98	0.5
5665	11555	723.78	0.71999999880791
5665	12443	822.86	0.75
5665	12548	823.06	0.875
5665	12814	823.56449032068	0.59999999403954
5665	13068	824.167119204671	0.75
5665	13870	923.02	0.875
5665	14289	923.728157022574	0.25
5665	15385	1023.11	1
5665	15546	1023.41	0.75
5665	16065	1024.411099304701	0.4375
5665	16196	1024.717680018064	0.90476190298796
5665	17142	1123.85	0.625
5665	17521	1124.55	0.45454543828964
5665	17703	1124.957067744771	0.89285714179277
5665	18605	1224.33	0.5
5665	19027	1225.13	0.5625
5665	19223	1225.738352968383	0.81481482088566
5665	19288	1226.047336673345	0.93548387289047
5665	20038	1324.47	0.75
5665	20621	1325.679145633678	0.44999998807907
5665	20735	1325.994187710107	0.91666666418314
5665	20799	1326.298059706001	0.9333333298564
5665	20836	1326.602272936471	0.93939393758774
5665	20873	1326.909514859534	0.94285714253783
5665	21766	1425.02	0.5
5665	21968	1425.42	0.79999999701977
5665	22058	1425.641023114841	0.94999999925494
5665	23008	1525.08	0.625
5665	23234	1525.48	0.625
5665	23555	1526.182830449589	0.71428570151329
5665	23739	1527.189618535707	0.74285712838173
5665	23755	1527.394654376669	0.97222222201526
5665	24567	1625.45	0.75
5665	24791	1625.85	0.69999998807907
5665	24952	1626.16543697283	0.8823529407382
5665	25158	1626.770386238895	0.78260870277882
5665	25888	1725.43	1
5665	26029	1725.63	0.875
5665	26363	1726.235634348061	0.58333334326744
5665	26444	1726.443706620257	0.9333333298564
5665	27446	1825.86	0.75
5665	27696	1826.2631408172	0.625
5665	28068	1827.168776921079	0.59999999403954
5665	29111	1926.62	0.25
5665	29393	1927.22	0.72222220897675
5665	29575	1927.828911399496	0.79999999701977
5665	30357	2026.58	0.75
5665	30877	2027.58	0.5
5665	30966	2027.7939624034	0.95652173832059
5665	31122	2028.401563398781	0.85294117033482
5665	32224	2127.48	0.36363637447357
5665	32323	2127.68	0.92307692021132
5665	32527	2128.188109897593	0.85714285075665
5665	32631	2128.595229907656	0.90625
5665	32682	2128.902710513149	0.94285714253783
5665	32708	2129.11197908512	0.97297297231853
5665	32729	2129.515294804639	0.92105263471603
5665	33597	2227.43	0.625
5665	33754	2227.73	0.77777777612209
5665	33928	2228.135212769508	0.8125
5665	34042	2228.442233404048	0.90909090638161
5665	34114	2228.64289193058	0.96000000089407
5665	34205	2229.049277958221	0.90625
5665	34926	2327.48	0.875
5665	35198	2327.98	0.5
5665	35524	2328.68045955914	0.69999998807907
5665	36463	2427.67	0.875
5665	36862	2428.37	0.33333331346512
5665	37150	2428.977640711757	0.79166667163372
5665	37224	2429.282728992128	0.93103448301554
5665	37294	2429.791857822758	0.8823529407382
5665	37318	2430.093152960589	0.94285714253783
5665	37359	2430.698184892438	0.86111110448837
5665	37379	2431.104077402267	0.91666666418314
5665	37401	2431.505575721412	0.91891892254353
5665	37412	2431.810314802777	0.9473684206605
5665	37430	2432.417285110452	0.87179486453533
5665	37437	2432.918492744455	0.89743589609861
5665	38118	2528.17	0.875
5665	38464	2528.87	0.5
5665	38552	2529.076649253491	0.92857142537832
5665	38703	2529.485425622418	0.88888888806105
5665	39557	2628.56	0.625
5665	39912	2629.26	0.39999997615814
5665	40169	2630.062450374707	0.79999999701977
5665	40189	2630.270695867466	0.97222222201526
5665	40206	2630.478681054319	0.97435897402465
5665	40951	2728.89	0.75
5665	41249	2729.499134845123	0.58333334326744
5665	41380	2729.80029912535	0.89999999850988
5665	41446	2730.009791427125	0.94999999925494
5665	41517	2730.227581642605	0.95833333209157
5665	42565	2829.25	0.5
5665	42870	2829.85	0.64285713434219
5665	43142	2830.657123969395	0.77419355511665
5665	43192	2830.960943187321	0.9411764703691
5665	44005	2929.36	0.875
5665	44287	2929.86	0.59999999403954
5665	44535	2930.360549769669	0.7647058814764
5665	45463	3029.5	0.875
5665	45848	3030.1	0.375
5665	46066	3030.603138763171	0.7647058814764
5665	46135	3030.806243826332	0.96000000089407
5665	46946	3129.89	0.875
5665	47150	3130.19	0.75
5665	47309	3130.496179179705	0.75
5665	47427	3130.705623902396	0.90909090638161
5665	47534	3130.918734674126	0.9333333298564
5666	121	20.21	0.2
5666	332	20.51487828833	0.3
5666	537	20.919455633372	0.4
5666	1777	120.62	0.3
5666	2001	120.922689455798	0.3
5666	2169	121.227848671003	0.3
5666	2430	121.835932742928	0.6
5666	3173	220.78	0
5666	3615	221.48	0.7
5666	3759	221.780161175732	0.3
5666	4971	321.28	0.3
5666	5773	322.98	1.7
5666	5849	323.186120395066	0.2
5666	5962	323.78894701132	0.6
5666	5992	324.092375004709	0.3
5666	6048	324.693937229838	0.6
5666	6079	325.206018647937	0.5
5666	6894	421.83	0.3
5666	7300	422.73	0.9
5666	8068	521.91	0.2
5666	8264	522.21	0.3
5666	8369	522.410351707057	0.2
5666	8646	523.028181526385	0.6
5666	8797	523.628630248437	0.6
5666	9677	622.54	0.4
5666	10029	623.34	0.8
5666	10198	624.045720160235	0.7
5666	10249	624.551947118273	0.5
5666	10276	625.052879886097	0.5
5666	10289	625.459898531006	0.4
5666	10299	625.865861179355	0.4
5666	10311	626.272897057879	0.4
5666	10317	626.473253572311	0.2
5666	10332	626.974668070774	0.5
5666	11199	722.98	0.5
5666	11555	723.78	0.8
5666	12443	822.86	0.2
5666	12548	823.06	0.2
5666	12814	823.56449032068	0.5
5666	13068	824.167119204671	0.6
5666	13870	923.02	0.1
5666	14289	923.728157022574	0.7
5666	15385	1023.11	0
5666	15546	1023.41	0.3
5666	16065	1024.411099304701	1
5666	16196	1024.717680018064	0.3
5666	17142	1123.85	0.3
5666	17521	1124.55	0.7
5666	17703	1124.957067744771	0.4
5666	18605	1224.33	0.4
5666	19027	1225.13	0.8
5666	19223	1225.738352968383	0.6
5666	19288	1226.047336673345	0.3
5666	20038	1324.47	0.2
5666	20621	1325.679145633678	1.2
5666	20735	1325.994187710107	0.3
5666	20799	1326.298059706001	0.3
5666	20836	1326.602272936471	0.3
5666	20873	1326.909514859534	0.3
5666	21766	1425.02	0.4
5666	21968	1425.42	0.4
5666	22058	1425.641023114841	0.2
5666	23008	1525.08	0.3
5666	23234	1525.48	0.4
5666	23555	1526.182830449589	0.7
5666	23739	1527.189618535707	1
5666	23755	1527.394654376669	0.2
5666	24567	1625.45	0.2
5666	24791	1625.85	0.4
5666	24952	1626.16543697283	0.3
5666	25158	1626.770386238895	0.6
5666	25888	1725.43	0
5666	26029	1725.63	0.2
5666	26363	1726.235634348061	0.6
5666	26444	1726.443706620257	0.2
5666	27446	1825.86	0.2
5666	27696	1826.2631408172	0.4
5666	28068	1827.168776921079	0.9
5666	29111	1926.62	0.6
5666	29393	1927.22	0.6
5666	29575	1927.828911399496	0.6
5666	30357	2026.58	0.2
5666	30877	2027.58	1
5666	30966	2027.7939624034	0.2
5666	31122	2028.401563398781	0.6
5666	32224	2127.48	0.7
5666	32323	2127.68	0.2
5666	32527	2128.188109897593	0.5
5666	32631	2128.595229907656	0.4
5666	32682	2128.902710513149	0.3
5666	32708	2129.11197908512	0.2
5666	32729	2129.515294804639	0.4
5666	33597	2227.43	0.3
5666	33754	2227.73	0.3
5666	33928	2228.135212769508	0.4
5666	34042	2228.442233404048	0.3
5666	34114	2228.64289193058	0.2
5666	34205	2229.049277958221	0.4
5666	34926	2327.48	0.1
5666	35198	2327.98	0.5
5666	35524	2328.68045955914	0.7
5666	36463	2427.67	0.1
5666	36862	2428.37	0.7
5666	37150	2428.977640711757	0.6
5666	37224	2429.282728992128	0.3
5666	37294	2429.791857822758	0.5
5666	37318	2430.093152960589	0.3
5666	37359	2430.698184892438	0.6
5666	37379	2431.104077402267	0.4
5666	37401	2431.505575721412	0.4
5666	37412	2431.810314802777	0.3
5666	37430	2432.417285110452	0.6
5666	37437	2432.918492744455	0.5
5666	38118	2528.17	0.1
5666	38464	2528.87	0.7
5666	38552	2529.076649253491	0.2
5666	38703	2529.485425622418	0.4
5666	39557	2628.56	0.3
5666	39912	2629.26	0.7
5666	40169	2630.062450374707	0.8
5666	40189	2630.270695867466	0.2
5666	40206	2630.478681054319	0.2
5666	40951	2728.89	0.2
5666	41249	2729.499134845123	0.6
5666	41380	2729.80029912535	0.3
5666	41446	2730.009791427125	0.2
5666	41517	2730.227581642605	0.2
5666	42565	2829.25	0.4
5666	42870	2829.85	0.6
5666	43142	2830.657123969395	0.8
5666	43192	2830.960943187321	0.3
5666	44005	2929.36	0.1
5666	44287	2929.86	0.5
5666	44535	2930.360549769669	0.5
5666	45463	3029.5	0.1
5666	45848	3030.1	0.6
5666	46066	3030.603138763171	0.5
5666	46135	3030.806243826332	0.2
5666	46946	3129.89	0.1
5666	47150	3130.19	0.3
5666	47309	3130.496179179705	0.3
5666	47427	3130.705623902396	0.2
5666	47534	3130.918734674126	0.2
5667	131	20.22	2
5667	268	20.42	1
5667	545	20.926718986348	4
5667	806	21.533207722181	5
5667	1927	120.82	4
5667	2265	121.42	5
5667	2394	121.724817987021	2
5667	2532	122.331228504268	5
5667	3308	220.95	1
5667	3551	221.35	3
5667	3927	222.159518338744	7
5667	5034	321.39	3
5667	5160	321.599756003902	1
5667	5255	321.801900091338	1
5667	6582	421.35	1
5667	6708	421.55	1
5667	7108	422.254496912124	6
5667	7195	422.457733866399	1
5667	7344	422.859785468623	3
5667	7435	423.365796513359	4
5667	8428	522.52	7
5667	8556	522.82	2
5667	9425	622.14	2
5667	9553	622.34	1
5667	9922	623.046512297031	6
5667	10076	623.453486562263	3
5667	10865	722.42	1
5667	11058	722.72	2
5667	11156	722.921443347011	1
5667	11365	723.329749903974	3
5667	12239	822.53	0
5667	12590	823.13	5
5667	12796	823.539904998375	3
5667	13797	922.91	1
5667	14132	923.41	4
5667	14532	924.215473182667	7
5667	14676	924.518834896702	2
5667	14825	925.019341932995	4
5667	14853	925.229276491746	1
5667	14896	925.538256515064	2
5667	15596	1023.47	1
5667	16279	1024.975806056391	14
5667	17118	1123.82	2
5667	17340	1124.22	3
5667	17686	1124.928151903657	6
5667	18534	1224.2	3
5667	18860	1224.8	5
5667	19089	1225.300919420854	4
5667	19194	1225.610821406661	2
5667	19316	1226.219318926679	5
5667	20118	1324.6	3
5667	20344	1325.1	4
5667	20583	1325.608799795503	4
5667	20703	1325.922368517654	2
5667	20768	1326.130229254747	1
5667	21556	1424.66	1
5667	21731	1424.966139391174	2
5667	21882	1425.268257712728	2
5667	22809	1524.78	1
5667	23130	1525.28	4
5667	23291	1525.590847929936	2
5667	23399	1525.801535227235	1
5667	24329	1625.13	1
5667	24554	1625.43	2
5667	24730	1625.736812544669	2
5667	24987	1626.244879256572	4
5667	26065	1725.67	3
5667	26280	1726.07	3
5667	26564	1726.777300429071	6
5667	27615	1826.12	4
5667	27947	1826.82	6
5667	28015	1827.02563496683	1
5667	28136	1827.430278268526	3
5667	28831	1926.16	1
5667	29131	1926.66	4
5667	29446	1927.365086663253	6
5667	30259	2026.44	1
5667	30511	2026.84	3
5667	30713	2027.249331386745	3
5667	31679	2126.55	0
5667	31988	2127.057111075443	4
5667	32091	2127.258698529246	1
5667	32214	2127.464244495428	1
5667	33285	2226.95	1
5667	33434	2227.15	1
5667	33815	2227.852938607779	6
5667	33940	2228.154071909872	2
5667	35086	2327.73	5
5667	35422	2328.43	6
5667	35675	2329.236983568256	7
5667	36615	2427.87	2
5667	37059	2428.77	8
5667	37152	2428.977980933168	1
5667	38083	2528.12	2
5667	38654	2529.32	11
5667	38761	2529.728331463634	3
5667	38805	2530.22987383888	4
5667	39676	2628.77	4
5667	39874	2629.17	3
5667	40040	2629.572778662417	3
5667	40106	2629.775944464327	1
5667	40916	2728.85	3
5667	41320	2729.65	7
5667	41492	2730.155420747911	4
5667	41613	2730.657846643139	4
5667	41646	2730.861839753616	1
5667	41680	2731.161951770557	2
5667	41725	2731.669843085841	4
5667	41754	2732.073833533583	3
5667	41766	2732.274076189637	1
5667	41788	2732.783865011665	4
5667	41797	2733.08925626493	2
5667	42477	2829.1	1
5667	42800	2829.7	5
5667	42992	2830.100114352218	3
5667	43156	2830.700678971967	5
5667	43188	2830.910258879799	1
5667	44076	2929.45	2
5667	44234	2929.75	2
5667	44529	2930.352667716594	5
5667	44652	2930.657324685099	2
5667	44737	2931.058328360678	3
5667	45579	3029.63	1
5667	45818	3030.032489881517	3
5667	45957	3030.334769586137	2
5667	46115	3030.738981699346	3
5667	46995	3129.96	2
5667	47238	3130.36	3
5667	47515	3130.86533511558	4
5667	47648	3131.271635721113	3
5667	47718	3131.573199662495	2
5667	47785	3132.179268619209	5
5668	131	20.22	0.75
5668	268	20.42	0.875
5668	545	20.926718986348	0.55555555224419
5668	806	21.533207722181	0.72222220897675
5668	1927	120.82	0.5
5668	2265	121.42	0.54545453190804
5668	2394	121.724817987021	0.90476190298796
5668	2532	122.331228504268	0.83333332836628
5668	3308	220.95	0.875
5668	3551	221.35	0.66666665673256
5668	3927	222.159518338744	0.69565218687057
5668	5034	321.39	0.625
5668	5160	321.599756003902	0.875
5668	5255	321.801900091338	0.875
5668	6582	421.35	0.875
5668	6708	421.55	0.875
5668	7108	422.254496912124	0.53846153616905
5668	7195	422.457733866399	0.9411764703691
5668	7344	422.859785468623	0.88461538404226
5668	7435	423.365796513359	0.8823529407382
5668	8428	522.52	0.36363637447357
5668	8556	522.82	0.86666665971279
5668	9425	622.14	0.75
5668	9553	622.34	0.875
5668	9922	623.046512297031	0.625
5668	10076	623.453486562263	0.86363635957241
5668	10865	722.42	0.875
5668	11058	722.72	0.75
5668	11156	722.921443347011	0.875
5668	11365	723.329749903974	0.75
5668	12239	822.53	1
5668	12590	823.13	0.375
5668	12796	823.539904998375	0.66666665673256
5668	13797	922.91	0.875
5668	14132	923.41	0.5
5668	14532	924.215473182667	0.46153843402863
5668	14676	924.518834896702	0.90476190298796
5668	14825	925.019341932995	0.86666665971279
5668	14853	925.229276491746	0.96875
5668	14896	925.538256515064	0.9411764703691
5668	15596	1023.47	0.875
5668	16279	1024.975806056391	0.5
5668	17118	1123.82	0.75
5668	17340	1124.22	0.625
5668	17686	1124.928151903657	0.76000000536442
5668	18534	1224.2	0.625
5668	18860	1224.8	0.5
5668	19089	1225.300919420854	0.78947368264198
5668	19194	1225.610821406661	0.92307692021132
5668	19316	1226.219318926679	0.85294117033482
5668	20118	1324.6	0.625
5668	20344	1325.1	0.63636362552643
5668	20583	1325.608799795503	0.7647058814764
5668	20703	1325.922368517654	0.91304347664118
5668	20768	1326.130229254747	0.96551724150777
5668	21556	1424.66	0.875
5668	21731	1424.966139391174	0.75
5668	21882	1425.268257712728	0.79999999701977
5668	22809	1524.78	0.875
5668	23130	1525.28	0.5
5668	23291	1525.590847929936	0.77777777612209
5668	23399	1525.801535227235	0.92857142537832
5668	24329	1625.13	0.875
5668	24554	1625.43	0.75
5668	24730	1625.736812544669	0.77777777612209
5668	24987	1626.244879256572	0.7647058814764
5668	26065	1725.67	0.625
5668	26280	1726.07	0.625
5668	26564	1726.777300429071	0.71428570151329
5668	27615	1826.12	0.5
5668	27947	1826.82	0.64705881476402
5668	28015	1827.02563496683	0.94444444403052
5668	28136	1827.430278268526	0.875
5668	28831	1926.16	0.875
5668	29131	1926.66	0.5
5668	29446	1927.365086663253	0.71428570151329
5668	30259	2026.44	0.875
5668	30511	2026.84	0.625
5668	30713	2027.249331386745	0.72727271914482
5668	31679	2126.55	1
5668	31988	2127.057111075443	0.55555555224419
5668	32091	2127.258698529246	0.88888888806105
5668	32214	2127.464244495428	0.89999999850988
5668	33285	2226.95	0.875
5668	33434	2227.15	0.875
5668	33815	2227.852938607779	0.45454543828964
5668	33940	2228.154071909872	0.8823529407382
5668	35086	2327.73	0.375
5668	35422	2328.43	0.59999999403954
5668	35675	2329.236983568256	0.76666666567326
5668	36615	2427.87	0.75
5668	37059	2428.77	0.46666663885117
5668	37152	2428.977980933168	0.95833333209157
5668	38083	2528.12	0.75
5668	38654	2529.32	0.52173912525177
5668	38761	2529.728331463634	0.91176470369101
5668	38805	2530.22987383888	0.89473684132099
5668	39676	2628.77	0.5
5668	39874	2629.17	0.66666665673256
5668	40040	2629.572778662417	0.84210526943207
5668	40106	2629.775944464327	0.96000000089407
5668	40916	2728.85	0.625
5668	41320	2729.65	0.5625
5668	41492	2730.155420747911	0.81818181276321
5668	41613	2730.657846643139	0.87096774578094
5668	41646	2730.861839753616	0.97058823518455
5668	41680	2731.161951770557	0.94285714253783
5668	41725	2731.669843085841	0.88571428507566
5668	41754	2732.073833533583	0.91666666418314
5668	41766	2732.274076189637	0.97297297231853
5668	41788	2732.783865011665	0.89473684132099
5668	41797	2733.08925626493	0.94871794804931
5668	42477	2829.1	0.875
5668	42800	2829.7	0.64285713434219
5668	42992	2830.100114352218	0.84999999403954
5668	43156	2830.700678971967	0.83870968222618
5668	43188	2830.910258879799	0.96969696879387
5668	44076	2929.45	0.75
5668	44234	2929.75	0.77777777612209
5668	44529	2930.352667716594	0.6875
5668	44652	2930.657324685099	0.92307692021132
5668	44737	2931.058328360678	0.89999999850988
5668	45579	3029.63	0.875
5668	45818	3030.032489881517	0.625
5668	45957	3030.334769586137	0.81818181276321
5668	46115	3030.738981699346	0.86363635957241
5668	46995	3129.96	0.75
5668	47238	3130.36	0.625
5668	47515	3130.86533511558	0.73333331942558
5668	47648	3131.271635721113	0.88000000268221
5668	47718	3131.573199662495	0.93548387289047
5668	47785	3132.179268619209	0.85714285075665
5669	131	20.22	0.2
5669	268	20.42	0.2
5669	545	20.926718986348	0.5
5669	806	21.533207722181	0.6
5669	1927	120.82	0.4
5669	2265	121.42	0.6
5669	2394	121.724817987021	0.3
5669	2532	122.331228504268	0.6
5669	3308	220.95	0.1
5669	3551	221.35	0.4
5669	3927	222.159518338744	0.8
5669	5034	321.39	0.3
5669	5160	321.599756003902	0.2
5669	5255	321.801900091338	0.2
5669	6582	421.35	0.1
5669	6708	421.55	0.2
5669	7108	422.254496912124	0.7
5669	7195	422.457733866399	0.2
5669	7344	422.859785468623	0.4
5669	7435	423.365796513359	0.5
5669	8428	522.52	0.7
5669	8556	522.82	0.3
5669	9425	622.14	0.2
5669	9553	622.34	0.2
5669	9922	623.046512297031	0.7
5669	10076	623.453486562263	0.4
5669	10865	722.42	0.1
5669	11058	722.72	0.3
5669	11156	722.921443347011	0.2
5669	11365	723.329749903974	0.4
5669	12239	822.53	0
5669	12590	823.13	0.6
5669	12796	823.539904998375	0.4
5669	13797	922.91	0.1
5669	14132	923.41	0.5
5669	14532	924.215473182667	0.8
5669	14676	924.518834896702	0.3
5669	14825	925.019341932995	0.5
5669	14853	925.229276491746	0.2
5669	14896	925.538256515064	0.3
5669	15596	1023.47	0.1
5669	16279	1024.975806056391	1.5
5669	17118	1123.82	0.2
5669	17340	1124.22	0.4
5669	17686	1124.928151903657	0.7
5669	18534	1224.2	0.3
5669	18860	1224.8	0.6
5669	19089	1225.300919420854	0.5
5669	19194	1225.610821406661	0.3
5669	19316	1226.219318926679	0.6
5669	20118	1324.6	0.3
5669	20344	1325.1	0.5
5669	20583	1325.608799795503	0.5
5669	20703	1325.922368517654	0.3
5669	20768	1326.130229254747	0.2
5669	21556	1424.66	0.1
5669	21731	1424.966139391174	0.3
5669	21882	1425.268257712728	0.3
5669	22809	1524.78	0.1
5669	23130	1525.28	0.5
5669	23291	1525.590847929936	0.3
5669	23399	1525.801535227235	0.2
5669	24329	1625.13	0.1
5669	24554	1625.43	0.3
5669	24730	1625.736812544669	0.3
5669	24987	1626.244879256572	0.5
5669	26065	1725.67	0.3
5669	26280	1726.07	0.4
5669	26564	1726.777300429071	0.7
5669	27615	1826.12	0.4
5669	27947	1826.82	0.7
5669	28015	1827.02563496683	0.2
5669	28136	1827.430278268526	0.4
5669	28831	1926.16	0.1
5669	29131	1926.66	0.5
5669	29446	1927.365086663253	0.7
5669	30259	2026.44	0.1
5669	30511	2026.84	0.4
5669	30713	2027.249331386745	0.4
5669	31679	2126.55	0
5669	31988	2127.057111075443	0.5
5669	32091	2127.258698529246	0.2
5669	32214	2127.464244495428	0.2
5669	33285	2226.95	0.1
5669	33434	2227.15	0.2
5669	33815	2227.852938607779	0.7
5669	33940	2228.154071909872	0.3