version 2
run Stability-50-20130524-20:22:35-3483
attr configname Stability
attr datetime 20130524-20:22:35
attr experiment Stability
attr inifile omnetpp.ini
attr iterationvars $0=1e1
attr iterationvars2 "$0=1e1, $repetition=0"
attr measurement $0=1e1
attr network Network
attr processid 3483
attr repetition 0
attr replication #0
attr resultdir results
attr runnumber 50
attr seedset 50

vector 4809  Network.dyn_peer[3]  lookupHopsSig:vector  ETV
vector 4810  Network.dyn_peer[3]  lookupStabilitySig:vector  ETV
vector 4811  Network.dyn_peer[3]  lookupTimeSig:vector  ETV
vector 4827  Network.dyn_peer[9]  lookupHopsSig:vector  ETV
vector 4828  Network.dyn_peer[9]  lookupStabilitySig:vector  ETV
vector 4829  Network.dyn_peer[9]  lookupTimeSig:vector  ETV
vector 4803  Network.dyn_peer[1]  lookupHopsSig:vector  ETV
vector 4804  Network.dyn_peer[1]  lookupStabilitySig:vector  ETV
vector 4805  Network.dyn_peer[1]  lookupTimeSig:vector  ETV
vector 4815  Network.dyn_peer[5]  lookupHopsSig:vector  ETV
vector 4816  Network.dyn_peer[5]  lookupStabilitySig:vector  ETV
vector 4817  Network.dyn_peer[5]  lookupTimeSig:vector  ETV
vector 4818  Network.dyn_peer[6]  lookupHopsSig:vector  ETV
vector 4819  Network.dyn_peer[6]  lookupStabilitySig:vector  ETV
vector 4820  Network.dyn_peer[6]  lookupTimeSig:vector  ETV
vector 4824  Network.dyn_peer[8]  lookupHopsSig:vector  ETV
vector 4825  Network.dyn_peer[8]  lookupStabilitySig:vector  ETV
vector 4826  Network.dyn_peer[8]  lookupTimeSig:vector  ETV
vector 4857  Network.dyn_peer[19]  lookupHopsSig:vector  ETV
vector 4858  Network.dyn_peer[19]  lookupStabilitySig:vector  ETV
vector 4859  Network.dyn_peer[19]  lookupTimeSig:vector  ETV
vector 4830  Network.dyn_peer[10]  lookupHopsSig:vector  ETV
vector 4831  Network.dyn_peer[10]  lookupStabilitySig:vector  ETV
vector 4832  Network.dyn_peer[10]  lookupTimeSig:vector  ETV
vector 4833  Network.dyn_peer[11]  lookupHopsSig:vector  ETV
vector 4834  Network.dyn_peer[11]  lookupStabilitySig:vector  ETV
vector 4835  Network.dyn_peer[11]  lookupTimeSig:vector  ETV
vector 4836  Network.dyn_peer[12]  lookupHopsSig:vector  ETV
vector 4837  Network.dyn_peer[12]  lookupStabilitySig:vector  ETV
vector 4838  Network.dyn_peer[12]  lookupTimeSig:vector  ETV
vector 4845  Network.dyn_peer[15]  lookupHopsSig:vector  ETV
vector 4846  Network.dyn_peer[15]  lookupStabilitySig:vector  ETV
vector 4847  Network.dyn_peer[15]  lookupTimeSig:vector  ETV
vector 4821  Network.dyn_peer[7]  lookupHopsSig:vector  ETV
vector 4822  Network.dyn_peer[7]  lookupStabilitySig:vector  ETV
vector 4823  Network.dyn_peer[7]  lookupTimeSig:vector  ETV
vector 4851  Network.dyn_peer[17]  lookupHopsSig:vector  ETV
vector 4852  Network.dyn_peer[17]  lookupStabilitySig:vector  ETV
vector 4853  Network.dyn_peer[17]  lookupTimeSig:vector  ETV
vector 4800  Network.dyn_peer[0]  lookupHopsSig:vector  ETV
vector 4801  Network.dyn_peer[0]  lookupStabilitySig:vector  ETV
vector 4802  Network.dyn_peer[0]  lookupTimeSig:vector  ETV
vector 4860  Network.dyn_peer[20]  lookupHopsSig:vector  ETV
vector 4861  Network.dyn_peer[20]  lookupStabilitySig:vector  ETV
vector 4862  Network.dyn_peer[20]  lookupTimeSig:vector  ETV
vector 4806  Network.dyn_peer[2]  lookupHopsSig:vector  ETV
vector 4807  Network.dyn_peer[2]  lookupStabilitySig:vector  ETV
vector 4808  Network.dyn_peer[2]  lookupTimeSig:vector  ETV
vector 4866  Network.dyn_peer[22]  lookupHopsSig:vector  ETV
vector 4867  Network.dyn_peer[22]  lookupStabilitySig:vector  ETV
vector 4868  Network.dyn_peer[22]  lookupTimeSig:vector  ETV
vector 4812  Network.dyn_peer[4]  lookupHopsSig:vector  ETV
vector 4813  Network.dyn_peer[4]  lookupStabilitySig:vector  ETV
vector 4814  Network.dyn_peer[4]  lookupTimeSig:vector  ETV
vector 4842  Network.dyn_peer[14]  lookupHopsSig:vector  ETV
vector 4843  Network.dyn_peer[14]  lookupStabilitySig:vector  ETV
vector 4844  Network.dyn_peer[14]  lookupTimeSig:vector  ETV
vector 4848  Network.dyn_peer[16]  lookupHopsSig:vector  ETV
vector 4849  Network.dyn_peer[16]  lookupStabilitySig:vector  ETV
vector 4850  Network.dyn_peer[16]  lookupTimeSig:vector  ETV
vector 4881  Network.dyn_peer[27]  lookupHopsSig:vector  ETV
vector 4882  Network.dyn_peer[27]  lookupStabilitySig:vector  ETV
vector 4883  Network.dyn_peer[27]  lookupTimeSig:vector  ETV
vector 4890  Network.dyn_peer[30]  lookupHopsSig:vector  ETV
vector 4891  Network.dyn_peer[30]  lookupStabilitySig:vector  ETV
vector 4892  Network.dyn_peer[30]  lookupTimeSig:vector  ETV
vector 4875  Network.dyn_peer[25]  lookupHopsSig:vector  ETV
vector 4876  Network.dyn_peer[25]  lookupStabilitySig:vector  ETV
vector 4877  Network.dyn_peer[25]  lookupTimeSig:vector  ETV
vector 4884  Network.dyn_peer[28]  lookupHopsSig:vector  ETV
vector 4885  Network.dyn_peer[28]  lookupStabilitySig:vector  ETV
vector 4886  Network.dyn_peer[28]  lookupTimeSig:vector  ETV
vector 4839  Network.dyn_peer[13]  lookupHopsSig:vector  ETV
vector 4840  Network.dyn_peer[13]  lookupStabilitySig:vector  ETV
vector 4841  Network.dyn_peer[13]  lookupTimeSig:vector  ETV
vector 4854  Network.dyn_peer[18]  lookupHopsSig:vector  ETV
vector 4855  Network.dyn_peer[18]  lookupStabilitySig:vector  ETV
vector 4856  Network.dyn_peer[18]  lookupTimeSig:vector  ETV
vector 4887  Network.dyn_peer[29]  lookupHopsSig:vector  ETV
vector 4888  Network.dyn_peer[29]  lookupStabilitySig:vector  ETV
vector 4889  Network.dyn_peer[29]  lookupTimeSig:vector  ETV
vector 4878  Network.dyn_peer[26]  lookupHopsSig:vector  ETV
vector 4879  Network.dyn_peer[26]  lookupStabilitySig:vector  ETV
vector 4880  Network.dyn_peer[26]  lookupTimeSig:vector  ETV
vector 4863  Network.dyn_peer[21]  lookupHopsSig:vector  ETV
vector 4864  Network.dyn_peer[21]  lookupStabilitySig:vector  ETV
vector 4865  Network.dyn_peer[21]  lookupTimeSig:vector  ETV
vector 4893  Network.dyn_peer[31]  lookupHopsSig:vector  ETV
vector 4894  Network.dyn_peer[31]  lookupStabilitySig:vector  ETV
vector 4895  Network.dyn_peer[31]  lookupTimeSig:vector  ETV
vector 4869  Network.dyn_peer[23]  lookupHopsSig:vector  ETV
vector 4870  Network.dyn_peer[23]  lookupStabilitySig:vector  ETV
vector 4871  Network.dyn_peer[23]  lookupTimeSig:vector  ETV
vector 4872  Network.dyn_peer[24]  lookupHopsSig:vector  ETV
vector 4873  Network.dyn_peer[24]  lookupStabilitySig:vector  ETV
vector 4874  Network.dyn_peer[24]  lookupTimeSig:vector  ETV
4800	205	20.31	3
4800	334	20.514320022484	1
4800	930	21.918197132383	13
4800	1003	22.224329508064	2
4800	1987	120.91	4
4800	2232	121.41	4
4800	3154	220.89	2
4800	3451	221.39	4
4800	3624	221.698134233176	2
4800	3957	222.798265982919	10
4800	4875	321.59	4
4800	5165	322.19	5
4800	5376	322.797689849955	5
4800	6221	421.78	3
4800	6681	422.68	8
4800	6819	423.184788330222	4
4800	7636	522.1	3
4800	7886	522.6	4
4800	9024	622.21	3
4800	9365	622.83214726682	5
4800	10582	722.4	2
4800	11181	723.5	10
4800	11339	724.108652129876	5
4800	11387	724.610128610084	4
4800	11407	725.310855505597	6
4800	12344	823.39	6
4800	12598	823.89	4
4800	12719	824.201082517818	2
4800	12805	824.410311055731	1
4800	12867	824.61589404857	1
4800	12920	824.825197004999	1
4800	12945	825.028864502321	1
4800	14015	923.69	6
4800	14150	923.99	2
4800	14381	924.59710264702	5
4800	14441	924.800206721419	1
4800	15431	1023.26	0
4800	15758	1023.76	4
4800	15969	1024.169705151112	3
4800	16071	1024.373979741946	1
4800	16861	1123.5	0
4800	17130	1123.9	3
4800	17226	1124.100360969486	1
4800	18258	1223.83	1
4800	18500	1224.23	3
4800	18616	1224.439334006637	1
4800	18812	1224.843925197854	3
4800	19059	1225.485850043196	4
4800	19140	1226.295665562124	7
4800	19144	1226.500890760059	1
4800	19592	1324.18	1
4800	19930	1324.68	4
4800	20074	1324.978269375867	1
4800	20273	1325.385671772637	3
4800	21093	1424.35	0
4800	21251	1424.65	2
4800	21555	1425.156982129658	4
4800	22692	1524.79	1
4800	22843	1524.99	1
4800	23066	1525.395870589462	3
4800	23588	1526.699194304008	12
4800	23635	1526.899340214788	1
4800	24563	1625.71	5
4800	24866	1626.31	5
4800	24940	1626.515363007246	1
4800	25019	1626.722315947364	1
4800	25171	1627.225604616715	4
4800	25214	1627.52981004726	2
4800	25988	1725.83	3
4800	26301	1726.43	5
4800	26382	1726.636796782626	1
4800	26487	1727.046107228208	3
4800	26537	1727.452423382551	3
4800	26548	1727.657794159467	1
4800	26556	1727.961728943546	2
4800	27575	1826.7	8
4800	27665	1826.9	1
4800	27830	1827.503283453553	5
4800	28557	1926.2	1
4800	28748	1926.5	2
4800	29088	1927.211352978604	6
4800	30201	2026.78	5
4800	30545	2027.48	6
4800	30805	2028.193808778853	6
4800	30862	2028.394007967335	1
4800	30907	2028.59491540284	1
4800	30952	2028.802110980414	1
4800	31004	2029.110484319601	2
4800	31037	2029.316106668123	1
4800	31075	2029.516315886109	1
4800	32265	2127.56	8
4800	32524	2128.16	5
4800	32623	2128.565404313751	3
4800	32671	2128.872207269207	2
4800	32696	2129.075173562401	1
4800	33350	2227.08	0
4800	34043	2228.48	13
4800	34141	2228.789108230632	2
4800	34193	2229.098209326907	2
4800	34235	2229.399716759561	2
4800	34298	2230.103850142049	6
4800	34314	2230.310271450394	1
4800	34327	2230.516947170857	1
4800	35286	2327.92	5
4800	35510	2328.42	4
4800	35628	2328.823556443506	3
4800	35667	2329.028744641777	1
4800	35701	2329.435561792502	3
4800	36547	2428.03	3
4800	36817	2428.53	4
4800	36950	2428.832036055279	2
4800	38014	2528.16	3
4800	38409	2528.86	6
4800	38505	2529.068465908868	1
4800	38728	2529.702925579334	5
4800	38764	2529.9103000017	1
4800	39706	2628.63	3
4800	40059	2629.33	6
4800	40918	2728.59	1
4800	41054	2728.79	1
4800	41440	2729.490443301023	6
4800	41621	2729.89981983756	3
4800	41761	2730.507724062644	5
4800	41795	2730.812000050635	2
4800	41818	2731.115978823697	2
4800	41837	2731.517222631673	3
4800	41845	2731.722020627173	1
4800	42555	2829.09	1
4800	42772	2829.49	3
4800	43587	2929.01	0
4800	43828	2929.41	3
4800	44182	2930.111085322163	6
4800	45220	3029.44	1
4800	45412	3029.74	2
4800	45547	3029.947454971962	1
4800	45633	3030.149937943343	1
4800	46580	3129.73	1
4800	46789	3130.03	2
4800	47056	3130.532009348415	4
4800	47146	3130.736346159364	1
4801	205	20.31	0.625
4801	334	20.514320022484	0.88888888806105
4801	930	21.918197132383	0.48000001907349
4801	1003	22.224329508064	0.92307692021132
4801	1987	120.91	0.55555555224419
4801	2232	121.41	0.71428570151329
4801	3154	220.89	0.75
4801	3451	221.39	0.5
4801	3624	221.698134233176	0.86666665971279
4801	3957	222.798265982919	0.69696968793869
4801	4875	321.59	0.5
4801	5165	322.19	0.64285713434219
4801	5376	322.797689849955	0.83870968222618
4801	6221	421.78	0.625
4801	6681	422.68	0.55555555224419
4801	6819	423.184788330222	0.875
4801	7636	522.1	0.625
4801	7886	522.6	0.66666665673256
4801	9024	622.21	0.625
4801	9365	622.83214726682	0.5
4801	10582	722.4	0.75
4801	11181	723.5	0.4736841917038
4801	11339	724.108652129876	0.84848484396935
4801	11387	724.610128610084	0.89473684132099
4801	11407	725.310855505597	0.84210526943207
4801	12344	823.39	0.39999997615814
4801	12598	823.89	0.75
4801	12719	824.201082517818	0.90909090638161
4801	12805	824.410311055731	0.95833333209157
4801	12867	824.61589404857	0.96551724150777
4801	12920	824.825197004999	0.97222222201526
4801	12945	825.028864502321	0.97297297231853
4801	14015	923.69	0.39999997615814
4801	14150	923.99	0.84615384042263
4801	14381	924.59710264702	0.76190476119518
4801	14441	924.800206721419	0.95652173832059
4801	15431	1023.26	1
4801	15758	1023.76	0.5
4801	15969	1024.169705151112	0.72727271914482
4801	16071	1024.373979741946	0.9375
4801	16861	1123.5	1
4801	17130	1123.9	0.625
4801	17226	1124.100360969486	0.875
4801	18258	1223.83	0.875
4801	18500	1224.23	0.625
4801	18616	1224.439334006637	0.875
4801	18812	1224.843925197854	0.75
4801	19059	1225.485850043196	0.85714285075665
4801	19140	1226.295665562124	0.82500000298023
4801	19144	1226.500890760059	0.97499999962747
4801	19592	1324.18	0.875
4801	19930	1324.68	0.5
4801	20074	1324.978269375867	0.89999999850988
4801	20273	1325.385671772637	0.76923076808453
4801	21093	1424.35	1
4801	21251	1424.65	0.75
4801	21555	1425.156982129658	0.63636362552643
4801	22692	1524.79	0.875
4801	22843	1524.99	0.875
4801	23066	1525.395870589462	0.625
4801	23588	1526.699194304008	0.59999999403954
4801	23635	1526.899340214788	0.96875
4801	24563	1625.71	0.375
4801	24866	1626.31	0.6875
4801	24940	1626.515363007246	0.94999999925494
4801	25019	1626.722315947364	0.9545454531908
4801	25171	1627.225604616715	0.87096774578094
4801	25214	1627.52981004726	0.93939393758774
4801	25988	1725.83	0.625
4801	26301	1726.43	0.7368420958519
4801	26382	1726.636796782626	0.95652173832059
4801	26487	1727.046107228208	0.90322580933571
4801	26537	1727.452423382551	0.91891892254353
4801	26548	1727.657794159467	0.97435897402465
4801	26556	1727.961728943546	0.94871794804931
4801	27575	1826.7	0.27272725105286
4801	27665	1826.9	0.9473684206605
4801	27830	1827.503283453553	0.8214285671711
4801	28557	1926.2	0.875
4801	28748	1926.5	0.75
4801	29088	1927.211352978604	0.59999999403954
4801	30201	2026.78	0.375
4801	30545	2027.48	0.64705881476402
4801	30805	2028.193808778853	0.75
4801	30862	2028.394007967335	0.96153846010566
4801	30907	2028.59491540284	0.96296296268702
4801	30952	2028.802110980414	0.96551724150777
4801	31004	2029.110484319601	0.93103448301554
4801	31037	2029.316106668123	0.96551724150777
4801	31075	2029.516315886109	0.96875
4801	32265	2127.56	0.42857140302658
4801	32524	2128.16	0.79166667163372
4801	32623	2128.565404313751	0.90322580933571
4801	32671	2128.872207269207	0.93939393758774
4801	32696	2129.075173562401	0.96969696879387
4801	33350	2227.08	1
4801	34043	2228.48	0.40909093618393
4801	34141	2228.789108230632	0.93103448301554
4801	34193	2229.098209326907	0.93548387289047
4801	34235	2229.399716759561	0.93939393758774
4801	34298	2230.103850142049	0.82857142388821
4801	34314	2230.310271450394	0.97222222201526
4801	34327	2230.516947170857	0.97222222201526
4801	35286	2327.92	0.54545453190804
4801	35510	2328.42	0.80952380597591
4801	35628	2328.823556443506	0.89999999850988
4801	35667	2329.028744641777	0.97058823518455
4801	35701	2329.435561792502	0.91666666418314
4801	36547	2428.03	0.625
4801	36817	2428.53	0.66666665673256
4801	36950	2428.832036055279	0.88888888806105
4801	38014	2528.16	0.625
4801	38409	2528.86	0.5
4801	38505	2529.068465908868	0.9411764703691
4801	38728	2529.702925579334	0.84375
4801	38764	2529.9103000017	0.97058823518455
4801	39706	2628.63	0.66666665673256
4801	40059	2629.33	0.68421053886414
4801	40918	2728.59	0.875
4801	41054	2728.79	0.875
4801	41440	2729.490443301023	0.5
4801	41621	2729.89981983756	0.86363635957241
4801	41761	2730.507724062644	0.85714285075665
4801	41795	2730.812000050635	0.94594594463706
4801	41818	2731.115978823697	0.94594594463706
4801	41837	2731.517222631673	0.92105263471603
4801	41845	2731.722020627173	0.97368421033025
4801	42555	2829.09	0.875
4801	42772	2829.49	0.66666665673256
4801	43587	2929.01	1
4801	43828	2929.41	0.625
4801	44182	2930.111085322163	0.45454543828964
4801	45220	3029.44	0.875
4801	45412	3029.74	0.75
4801	45547	3029.947454971962	0.88888888806105
4801	45633	3030.149937943343	0.88888888806105
4801	46580	3129.73	0.875
4801	46789	3130.03	0.75
4801	47056	3130.532009348415	0.59999999403954
4801	47146	3130.736346159364	0.90909090638161
4802	205	20.31	0.3
4802	334	20.514320022484	0.2
4802	930	21.918197132383	1.4
4802	1003	22.224329508064	0.3
4802	1987	120.91	0.4
4802	2232	121.41	0.5
4802	3154	220.89	0.2
4802	3451	221.39	0.5
4802	3624	221.698134233176	0.3
4802	3957	222.798265982919	1.1
4802	4875	321.59	0.4
4802	5165	322.19	0.6
4802	5376	322.797689849955	0.6
4802	6221	421.78	0.3
4802	6681	422.68	0.9
4802	6819	423.184788330222	0.5
4802	7636	522.1	0.3
4802	7886	522.6	0.5
4802	9024	622.21	0.3
4802	9365	622.83214726682	0.6
4802	10582	722.4	0.2
4802	11181	723.5	1.1
4802	11339	724.108652129876	0.6
4802	11387	724.610128610084	0.5
4802	11407	725.310855505597	0.7
4802	12344	823.39	0.6
4802	12598	823.89	0.5
4802	12719	824.201082517818	0.3
4802	12805	824.410311055731	0.2
4802	12867	824.61589404857	0.2
4802	12920	824.825197004999	0.2
4802	12945	825.028864502321	0.2
4802	14015	923.69	0.6
4802	14150	923.99	0.3
4802	14381	924.59710264702	0.6
4802	14441	924.800206721419	0.2
4802	15431	1023.26	0
4802	15758	1023.76	0.5
4802	15969	1024.169705151112	0.4
4802	16071	1024.373979741946	0.2
4802	16861	1123.5	0
4802	17130	1123.9	0.4
4802	17226	1124.100360969486	0.2
4802	18258	1223.83	0.1
4802	18500	1224.23	0.4
4802	18616	1224.439334006637	0.2
4802	18812	1224.843925197854	0.4
4802	19059	1225.485850043196	0.5
4802	19140	1226.295665562124	0.8
4802	19144	1226.500890760059	0.2
4802	19592	1324.18	0.1
4802	19930	1324.68	0.5
4802	20074	1324.978269375867	0.2
4802	20273	1325.385671772637	0.4
4802	21093	1424.35	0
4802	21251	1424.65	0.3
4802	21555	1425.156982129658	0.5
4802	22692	1524.79	0.1
4802	22843	1524.99	0.2
4802	23066	1525.395870589462	0.4
4802	23588	1526.699194304008	1.3
4802	23635	1526.899340214788	0.2
4802	24563	1625.71	0.5
4802	24866	1626.31	0.6
4802	24940	1626.515363007246	0.2
4802	25019	1626.722315947364	0.2
4802	25171	1627.225604616715	0.5
4802	25214	1627.52981004726	0.3
4802	25988	1725.83	0.3
4802	26301	1726.43	0.6
4802	26382	1726.636796782626	0.2
4802	26487	1727.046107228208	0.4
4802	26537	1727.452423382551	0.4
4802	26548	1727.657794159467	0.2
4802	26556	1727.961728943546	0.3
4802	27575	1826.7	0.8
4802	27665	1826.9	0.2
4802	27830	1827.503283453553	0.6
4802	28557	1926.2	0.1
4802	28748	1926.5	0.3
4802	29088	1927.211352978604	0.7
4802	30201	2026.78	0.5
4802	30545	2027.48	0.7
4802	30805	2028.193808778853	0.7
4802	30862	2028.394007967335	0.2
4802	30907	2028.59491540284	0.2
4802	30952	2028.802110980414	0.2
4802	31004	2029.110484319601	0.3
4802	31037	2029.316106668123	0.2
4802	31075	2029.516315886109	0.2
4802	32265	2127.56	0.8
4802	32524	2128.16	0.6
4802	32623	2128.565404313751	0.4
4802	32671	2128.872207269207	0.3
4802	32696	2129.075173562401	0.2
4802	33350	2227.08	0
4802	34043	2228.48	1.4
4802	34141	2228.789108230632	0.3
4802	34193	2229.098209326907	0.3
4802	34235	2229.399716759561	0.3
4802	34298	2230.103850142049	0.7
4802	34314	2230.310271450394	0.2
4802	34327	2230.516947170857	0.2
4802	35286	2327.92	0.5
4802	35510	2328.42	0.5
4802	35628	2328.823556443506	0.4
4802	35667	2329.028744641777	0.2
4802	35701	2329.435561792502	0.4
4802	36547	2428.03	0.3
4802	36817	2428.53	0.5
4802	36950	2428.832036055279	0.3
4802	38014	2528.16	0.3
4802	38409	2528.86	0.7
4802	38505	2529.068465908868	0.2
4802	38728	2529.702925579334	0.6
4802	38764	2529.9103000017	0.2
4802	39706	2628.63	0.3
4802	40059	2629.33	0.7
4802	40918	2728.59	0.1
4802	41054	2728.79	0.2
4802	41440	2729.490443301023	0.7
4802	41621	2729.89981983756	0.4
4802	41761	2730.507724062644	0.6
4802	41795	2730.812000050635	0.3
4802	41818	2731.115978823697	0.3
4802	41837	2731.517222631673	0.4
4802	41845	2731.722020627173	0.2
4802	42555	2829.09	0.1
4802	42772	2829.49	0.4
4802	43587	2929.01	0
4802	43828	2929.41	0.4
4802	44182	2930.111085322163	0.7
4802	45220	3029.44	0.1
4802	45412	3029.74	0.3
4802	45547	3029.947454971962	0.2
4802	45633	3030.149937943343	0.2
4802	46580	3129.73	0.1
4802	46789	3130.03	0.3
4802	47056	3130.532009348415	0.5
4802	47146	3130.736346159364	0.2
4803	71	20.12	1
4803	289	20.42	2
4803	593	21.022903095476	5
4803	735	21.328306057778	2
4803	1847	120.71	3
4803	1989	120.913343432722	1
4803	2189	121.314746668498	3
4803	3073	220.77	1
4803	3379	221.27	4
4803	3597	221.673911682001	3
4803	4542	321.07	1
4803	4694	321.27	1
4803	5063	321.970336898772	6
4803	5965	421.37	1
4803	6103	421.57	1
4803	6679	422.679624608894	10
4803	6821	423.188635119233	4
4803	6888	423.893660179412	6
4803	7680	522.17	3
4803	7872	522.57	3
4803	7962	522.777085325315	1
4803	8151	523.386455497322	5
4803	9003	622.17	1
4803	9325	622.77	5
4803	9471	623.07476355676	2
4803	9559	623.279905124741	1
4803	10505	722.27	0
4803	10818	722.77	4
4803	11019	723.174175503749	3
4803	11907	822.61	1
4803	12305	823.31	6
4803	12516	823.71036241322	3
4803	12656	824.016960840382	2
4803	12734	824.21854820201	1
4803	12899	824.723961933719	4
4803	13831	923.35	3
4803	14217	924.15	7
4803	14399	924.652555547708	4
4803	14490	924.953232909522	2
4803	15714	1023.69	4
4803	16023	1024.29	5
4803	16149	1024.598993869163	2
4803	16214	1024.806856733569	1
4803	16314	1025.414373861804	5
4803	17219	1124.09	4
4803	17556	1124.79	6
4803	18390	1224.04	2
4803	18948	1225.14	10
4803	19048	1225.440681719484	2
4803	19894	1324.62	4
4803	20244	1325.32	6
4803	20439	1325.834262201841	4
4803	21234	1424.62	1
4803	21428	1424.92	2
4803	21679	1425.428998493144	4
4803	21794	1425.734566762544	2
4803	21918	1426.135473341905	3
4803	21964	1426.337874809808	1
4803	22069	1426.943927336707	5
4803	22785	1524.9	0
4803	23126	1525.5	5
4803	23321	1525.904680807355	3
4803	23543	1526.512350088245	5
4803	24534	1625.66	5
4803	24880	1626.36	6
4803	24997	1626.663221945166	2
4803	25098	1626.969941477965	2
4803	25159	1627.173750225117	1
4803	25894	1725.69	2
4803	26372	1726.59	8
4803	26438	1726.798313770943	1
4803	26514	1727.210076782657	3
4803	27334	1826.24	4
4803	27597	1826.74	4
4803	27799	1827.343776913306	5
4803	27892	1827.849252640523	4
4803	27923	1828.1568286937	2
4803	27941	1828.461980131765	2
4803	27953	1828.965411822759	4
4803	28904	1926.81	6
4803	29284	1927.81	9
4803	30218	2026.81	4
4803	30478	2027.31	4
4803	30565	2027.517508307481	1
4803	30647	2027.722851776813	1
4803	30720	2027.923361419676	1
4803	31855	2126.84	2
4803	32559	2128.24	13
4803	33439	2227.22	2
4803	33984	2228.32	10
4803	35018	2327.44	2
4803	35125	2327.64	1
4803	35437	2328.244882105682	5
4803	36354	2427.72	2
4803	36813	2428.52	7
4803	36902	2428.724170050676	1
4803	37796	2527.83	0
4803	37925	2528.03	1
4803	38057	2528.23502116387	1
4803	38288	2528.641494062107	3
4803	38590	2529.245145097723	5
4803	39554	2628.4	2
4803	40002	2629.2	7
4803	40966	2728.65	2
4803	41641	2729.95	12
4803	42441	2828.93	1
4803	42890	2829.73	7
4803	43122	2830.434303426498	6
4803	43167	2830.84337402638	3
4803	43878	2929.49	2
4803	44124	2929.99	4
4803	44216	2930.194238874251	1
4803	44343	2930.503624756503	2
4803	44419	2930.70767802911	1
4803	44483	2930.917461028156	1
4803	45508	3029.89	4
4803	45754	3030.398446320132	4
4803	45934	3030.90804363917	4
4803	46821	3130.09	3
4803	47171	3130.79	6
4803	47354	3131.293319460456	4
4803	47411	3131.499140140492	1
4803	47445	3131.70260860812	1
4804	71	20.12	0.875
4804	289	20.42	0.75
4804	593	21.022903095476	0.44444441795349
4804	735	21.328306057778	0.8823529407382
4804	1847	120.71	0.625
4804	1989	120.913343432722	0.88888888806105
4804	2189	121.314746668498	0.75
4804	3073	220.77	0.875
4804	3379	221.27	0.5
4804	3597	221.673911682001	0.72727271914482
4804	4542	321.07	0.875
4804	4694	321.27	0.875
4804	5063	321.970336898772	0.39999997615814
4804	5965	421.37	0.875
4804	6103	421.57	0.875
4804	6679	422.679624608894	0.44444441795349
4804	6821	423.188635119233	0.87878787517548
4804	6888	423.893660179412	0.84615384042263
4804	7680	522.17	0.625
4804	7872	522.57	0.75
4804	7962	522.777085325315	0.9375
4804	8151	523.386455497322	0.8214285671711
4804	9003	622.17	0.875
4804	9325	622.77	0.44444441795349
4804	9471	623.07476355676	0.86666665971279
4804	9559	623.279905124741	0.9375
4804	10505	722.27	1
4804	10818	722.77	0.5
4804	11019	723.174175503749	0.69999998807907
4804	11907	822.61	0.875
4804	12305	823.31	0.25
4804	12516	823.71036241322	0.79999999701977
4804	12656	824.016960840382	0.89473684132099
4804	12734	824.21854820201	0.9545454531908
4804	12899	824.723961933719	0.87878787517548
4804	13831	923.35	0.625
4804	14217	924.15	0.5
4804	14399	924.652555547708	0.81818181276321
4804	14490	924.953232909522	0.92307692021132
4804	15714	1023.69	0.5
4804	16023	1024.29	0.61538460850716
4804	16149	1024.598993869163	0.90909090638161
4804	16214	1024.806856733569	0.96428571268916
4804	16314	1025.414373861804	0.85714285075665
4804	17219	1124.09	0.5
4804	17556	1124.79	0.68421053886414
4804	18390	1224.04	0.75
4804	18948	1225.14	0.44444441795349
4804	19048	1225.440681719484	0.92307692021132
4804	19894	1324.62	0.5
4804	20244	1325.32	0.53846153616905
4804	20439	1325.834262201841	0.84000000357628
4804	21234	1424.62	0.875
4804	21428	1424.92	0.75
4804	21679	1425.428998493144	0.7647058814764
4804	21794	1425.734566762544	0.89473684132099
4804	21918	1426.135473341905	0.88461538404226
4804	21964	1426.337874809808	0.96428571268916
4804	22069	1426.943927336707	0.84375
4804	22785	1524.9	1
4804	23126	1525.5	0.5
4804	23321	1525.904680807355	0.82352940738201
4804	23543	1526.512350088245	0.81481482088566
4804	24534	1625.66	0.375
4804	24880	1626.36	0.64705881476402
4804	24997	1626.663221945166	0.90909090638161
4804	25098	1626.969941477965	0.91666666418314
4804	25159	1627.173750225117	0.96551724150777
4804	25894	1725.69	0.75
4804	26372	1726.59	0.65217390656471
4804	26438	1726.798313770943	0.96153846010566
4804	26514	1727.210076782657	0.90909090638161
4804	27334	1826.24	0.5
4804	27597	1826.74	0.69230768084526
4804	27799	1827.343776913306	0.8214285671711
4804	27892	1827.849252640523	0.87878787517548
4804	27923	1828.1568286937	0.94444444403052
4804	27941	1828.461980131765	0.9473684206605
4804	27953	1828.965411822759	0.89743589609861
4804	28904	1926.81	0.33333331346512
4804	29284	1927.81	0.6785714328289
4804	30218	2026.81	0.5
4804	30478	2027.31	0.73333331942558
4804	30565	2027.517508307481	0.94444444403052
4804	30647	2027.722851776813	0.9473684206605
4804	30720	2027.923361419676	0.94999999925494
4804	31855	2126.84	0.75
4804	32559	2128.24	0.51851850748062
4804	33439	2227.22	0.75
4804	33984	2228.32	0.44444441795349
4804	35018	2327.44	0.75
4804	35125	2327.64	0.875
4804	35437	2328.244882105682	0.66666665673256
4804	36354	2427.72	0.75
4804	36813	2428.52	0.41666668653488
4804	36902	2428.724170050676	0.9333333298564
4804	37796	2527.83	1
4804	37925	2528.03	0.875
4804	38057	2528.23502116387	0.875
4804	38288	2528.641494062107	0.69999998807907
4804	38590	2529.245145097723	0.75
4804	39554	2628.4	0.75
4804	40002	2629.2	0.53333333134651
4804	40966	2728.65	0.75
4804	41641	2729.95	0.45454543828964
4804	42441	2828.93	0.875
4804	42890	2829.73	0.46153843402863
4804	43122	2830.434303426498	0.8125
4804	43167	2830.84337402638	0.91891892254353
4804	43878	2929.49	0.77777777612209
4804	44124	2929.99	0.59999999403954
4804	44216	2930.194238874251	0.91666666418314
4804	44343	2930.503624756503	0.89473684132099
4804	44419	2930.70767802911	0.95833333209157
4804	44483	2930.917461028156	0.96153846010566
4804	45508	3029.89	0.5
4804	45754	3030.398446320132	0.63636362552643
4804	45934	3030.90804363917	0.84000000357628
4804	46821	3130.09	0.625
4804	47171	3130.79	0.5714285671711
4804	47354	3131.293319460456	0.83333332836628
4804	47411	3131.499140140492	0.96551724150777
4804	47445	3131.70260860812	0.9666666649282
4805	71	20.12	0.1
4805	289	20.42	0.3
4805	593	21.022903095476	0.6
4805	735	21.328306057778	0.3
4805	1847	120.71	0.3
4805	1989	120.913343432722	0.2
4805	2189	121.314746668498	0.4
4805	3073	220.77	0.1
4805	3379	221.27	0.5
4805	3597	221.673911682001	0.4
4805	4542	321.07	0.1
4805	4694	321.27	0.2
4805	5063	321.970336898772	0.7
4805	5965	421.37	0.1
4805	6103	421.57	0.2
4805	6679	422.679624608894	1.1
4805	6821	423.188635119233	0.5
4805	6888	423.893660179412	0.7
4805	7680	522.17	0.3
4805	7872	522.57	0.4
4805	7962	522.777085325315	0.2
4805	8151	523.386455497322	0.6
4805	9003	622.17	0.1
4805	9325	622.77	0.6
4805	9471	623.07476355676	0.3
4805	9559	623.279905124741	0.2
4805	10505	722.27	0
4805	10818	722.77	0.5
4805	11019	723.174175503749	0.4
4805	11907	822.61	0.1
4805	12305	823.31	0.7
4805	12516	823.71036241322	0.4
4805	12656	824.016960840382	0.3
4805	12734	824.21854820201	0.2
4805	12899	824.723961933719	0.5
4805	13831	923.35	0.3
4805	14217	924.15	0.8
4805	14399	924.652555547708	0.5
4805	14490	924.953232909522	0.3
4805	15714	1023.69	0.4
4805	16023	1024.29	0.6
4805	16149	1024.598993869163	0.3
4805	16214	1024.806856733569	0.2
4805	16314	1025.414373861804	0.6
4805	17219	1124.09	0.4
4805	17556	1124.79	0.7
4805	18390	1224.04	0.2
4805	18948	1225.14	1.1
4805	19048	1225.440681719484	0.3
4805	19894	1324.62	0.4
4805	20244	1325.32	0.7
4805	20439	1325.834262201841	0.5
4805	21234	1424.62	0.1
4805	21428	1424.92	0.3
4805	21679	1425.428998493144	0.5
4805	21794	1425.734566762544	0.3
4805	21918	1426.135473341905	0.4
4805	21964	1426.337874809808	0.2
4805	22069	1426.943927336707	0.6
4805	22785	1524.9	0
4805	23126	1525.5	0.6
4805	23321	1525.904680807355	0.4
4805	23543	1526.512350088245	0.6
4805	24534	1625.66	0.5
4805	24880	1626.36	0.7
4805	24997	1626.663221945166	0.3
4805	25098	1626.969941477965	0.3
4805	25159	1627.173750225117	0.2
4805	25894	1725.69	0.2
4805	26372	1726.59	0.9
4805	26438	1726.798313770943	0.2
4805	26514	1727.210076782657	0.4
4805	27334	1826.24	0.4
4805	27597	1826.74	0.5
4805	27799	1827.343776913306	0.6
4805	27892	1827.849252640523	0.5
4805	27923	1828.1568286937	0.3
4805	27941	1828.461980131765	0.3
4805	27953	1828.965411822759	0.5
4805	28904	1926.81	0.6
4805	29284	1927.81	1
4805	30218	2026.81	0.4
4805	30478	2027.31	0.5
4805	30565	2027.517508307481	0.2
4805	30647	2027.722851776813	0.2
4805	30720	2027.923361419676	0.2
4805	31855	2126.84	0.2
4805	32559	2128.24	1.4
4805	33439	2227.22	0.2
4805	33984	2228.32	1.1
4805	35018	2327.44	0.2
4805	35125	2327.64	0.2
4805	35437	2328.244882105682	0.6
4805	36354	2427.72	0.2
4805	36813	2428.52	0.8
4805	36902	2428.724170050676	0.2
4805	37796	2527.83	0
4805	37925	2528.03	0.2
4805	38057	2528.23502116387	0.2
4805	38288	2528.641494062107	0.4
4805	38590	2529.245145097723	0.6
4805	39554	2628.4	0.2
4805	40002	2629.2	0.8
4805	40966	2728.65	0.2
4805	41641	2729.95	1.3
4805	42441	2828.93	0.1
4805	42890	2829.73	0.8
4805	43122	2830.434303426498	0.7
4805	43167	2830.84337402638	0.4
4805	43878	2929.49	0.2
4805	44124	2929.99	0.5
4805	44216	2930.194238874251	0.2
4805	44343	2930.503624756503	0.3
4805	44419	2930.70767802911	0.2
4805	44483	2930.917461028156	0.2
4805	45508	3029.89	0.4
4805	45754	3030.398446320132	0.5
4805	45934	3030.90804363917	0.5
4805	46821	3130.09	0.3
4805	47171	3130.79	0.7
4805	47354	3131.293319460456	0.5
4805	47411	3131.499140140492	0.2
4805	47445	3131.70260860812	0.2
4806	226	20.33	3
4806	545	20.93156125168	5
4806	697	21.236352414092	2
4806	1829	120.69	3
4806	2074	121.090272843865	3