file 395245 1369674150                                          
version 2
run Stability-57-20130524-20:22:48-3483
attr configname Stability
attr datetime 20130524-20:22:48
attr experiment Stability
attr inifile omnetpp.ini
attr iterationvars $0=1e1
attr iterationvars2 "$0=1e1, $repetition=7"
attr measurement $0=1e1
attr network Network
attr processid 3483
attr repetition 7
attr replication #7
attr resultdir results
attr runnumber 57
attr seedset 57
vector 5493  Network.dyn_peer[7]  lookupHopsSig:vector  ETV
5493	89299 3723 51 47275 20.08 3130.63632432615 142 0 14 476 2336
vector 5494  Network.dyn_peer[7]  lookupStabilitySig:vector  ETV
5494	93022 5296 51 47275 20.08 3130.63632432615 142 0.25 1 110.47079495899 90.142710673291
vector 5495  Network.dyn_peer[7]  lookupTimeSig:vector  ETV
5495	98318 3994 51 47275 20.08 3130.63632432615 142 0 1.5 58.6 32.2
vector 5472  Network.dyn_peer[0]  lookupHopsSig:vector  ETV
5472	6376 3401 63 47347 20.11 3130.768940393143 131 1 12 450 2064
vector 5473  Network.dyn_peer[0]  lookupStabilitySig:vector  ETV
5473	9777 4788 63 47347 20.11 3130.768940393143 131 0.19999998807907 0.97058823518455 98.852128926665 78.958964853275
vector 5474  Network.dyn_peer[0]  lookupTimeSig:vector  ETV
5474	14565 3662 63 47347 20.11 3130.768940393143 131 0.1 1.2 54.9 28.53
vector 5475  Network.dyn_peer[1]  lookupHopsSig:vector  ETV
5475	18227 3253 72 47479 20.12 3131.228740912806 127 0 12 378 1660
vector 5476  Network.dyn_peer[1]  lookupStabilitySig:vector  ETV
5476	21480 4489 72 47479 20.12 3131.228740912806 127 0.125 1 97.406405985355 78.848577978859
vector 5477  Network.dyn_peer[1]  lookupTimeSig:vector  ETV
5477	25969 3502 72 47479 20.12 3131.228740912806 127 0 1.2 47.3 23.43
vector 5505  Network.dyn_peer[11]  lookupHopsSig:vector  ETV
5505	140849 3369 78 47750 20.12 3132.918039154135 131 0 11 405 1955
vector 5506  Network.dyn_peer[11]  lookupStabilitySig:vector  ETV
5506	144218 4664 78 47750 20.12 3132.918039154135 131 0 1 100.93125124089 81.94866157308
vector 5507  Network.dyn_peer[11]  lookupTimeSig:vector  ETV
5507	148882 3617 78 47750 20.12 3132.918039154135 131 0 1.2 50.4 27.3
vector 5481  Network.dyn_peer[3]  lookupHopsSig:vector  ETV
5481	41827 3409 88 47321 20.14 3130.712487748011 132 0 15 419 1957
vector 5482  Network.dyn_peer[3]  lookupStabilitySig:vector  ETV
5482	45236 4800 88 47321 20.14 3130.712487748011 132 0.27272725105286 1 101.40872912854 81.09584525317
vector 5483  Network.dyn_peer[3]  lookupTimeSig:vector  ETV
5483	50036 3663 88 47321 20.14 3130.712487748011 132 0 1.6 51.9 27.63
vector 5487  Network.dyn_peer[5]  lookupHopsSig:vector  ETV
5487	66760 2952 102 47362 20.16 3130.808830954993 117 0 11 369 1739
vector 5488  Network.dyn_peer[5]  lookupStabilitySig:vector  ETV
5488	69712 4099 102 47362 20.16 3130.808830954993 117 0.22222220897675 1 87.352422650903 68.813817817973
vector 5489  Network.dyn_peer[5]  lookupTimeSig:vector  ETV
5489	73811 3174 102 47362 20.16 3130.808830954993 117 0 1.2 45.4 24.24
vector 5526  Network.dyn_peer[18]  lookupHopsSig:vector  ETV
5526	224282 3438 121 47672 20.19 3132.202703843813 134 0 13 456 2180
vector 5527  Network.dyn_peer[18]  lookupStabilitySig:vector  ETV
5527	227720 4827 121 47672 20.19 3132.202703843813 134 0.125 1 102.12510862574 82.004644041989
vector 5528  Network.dyn_peer[18]  lookupTimeSig:vector  ETV
5528	232547 3693 121 47672 20.19 3132.202703843813 134 0 1.4 55.8 30.1
vector 5538  Network.dyn_peer[22]  lookupHopsSig:vector  ETV
5538	273161 3349 144 47612 20.23 3131.866034080131 132 0 11 425 2035
vector 5539  Network.dyn_peer[22]  lookupStabilitySig:vector  ETV
5539	276510 4791 144 47612 20.23 3131.866034080131 132 0.11111110448837 1 101.42963030003 82.593517471883
vector 5540  Network.dyn_peer[22]  lookupTimeSig:vector  ETV
5540	281301 3599 144 47612 20.23 3131.866034080131 132 0 1.2 52.5 28.17
vector 5484  Network.dyn_peer[4]  lookupHopsSig:vector  ETV
5484	53699 3719 155 47757 20.25 3133.060726715148 142 0 12 488 2298
vector 5485  Network.dyn_peer[4]  lookupStabilitySig:vector  ETV
5485	57418 5349 155 47757 20.25 3133.060726715148 142 0.22222220897675 1 109.78353131935 89.314110690824
vector 5486  Network.dyn_peer[4]  lookupTimeSig:vector  ETV
5486	62767 3993 155 47757 20.25 3133.060726715148 142 0 1.3 59.8 31.9
vector 5496  Network.dyn_peer[8]  lookupHopsSig:vector  ETV
5496	102312 3972 181 47356 20.29 3130.788350831084 152 0 12 517 2415
vector 5497  Network.dyn_peer[8]  lookupStabilitySig:vector  ETV
5497	106284 5725 181 47356 20.29 3130.788350831084 152 0.25 1 118.82514533959 97.202862542714
vector 5498  Network.dyn_peer[8]  lookupTimeSig:vector  ETV
5498	112009 4271 181 47356 20.29 3130.788350831084 152 0 1.3 63.7 33.81
vector 5529  Network.dyn_peer[19]  lookupHopsSig:vector  ETV
5529	236240 3744 190 47654 20.3 3132.100005829248 144 0 10 496 2320
vector 5530  Network.dyn_peer[19]  lookupStabilitySig:vector  ETV
5530	239984 5304 190 47654 20.3 3132.100005829248 144 0.11111110448837 1 111.57718908787 90.018248584472
vector 5531  Network.dyn_peer[19]  lookupTimeSig:vector  ETV
5531	245288 4025 190 47654 20.3 3132.100005829248 144 0 1.1 60.8 32.58
vector 5478  Network.dyn_peer[2]  lookupHopsSig:vector  ETV
5478	29471 3525 213 47543 20.33 3131.488165731583 136 0 11 465 2305
vector 5479  Network.dyn_peer[2]  lookupStabilitySig:vector  ETV
5479	32996 5044 213 47543 20.33 3131.488165731583 136 0.19999998807907 1 103.85058208555 83.290796509034
vector 5480  Network.dyn_peer[2]  lookupTimeSig:vector  ETV
5480	38040 3787 213 47543 20.33 3131.488165731583 136 0 1.2 56.9 31.55
vector 5508  Network.dyn_peer[12]  lookupHopsSig:vector  ETV
5508	152499 3260 217 47189 20.33 3130.46 127 0 11 435 2063
vector 5509  Network.dyn_peer[12]  lookupStabilitySig:vector  ETV
5509	155759 4533 217 47189 20.33 3130.46 127 0.15384614467621 1 95.812104454264 75.529709216791
vector 5510  Network.dyn_peer[12]  lookupTimeSig:vector  ETV
5510	160292 3499 217 47189 20.33 3130.46 127 0 1.1 53 28.78
vector 5511  Network.dyn_peer[13]  lookupHopsSig:vector  ETV
5511	163791 3614 224 47422 20.34 3130.995591133408 138 0 10 410 1718
vector 5512  Network.dyn_peer[13]  lookupStabilitySig:vector  ETV
5512	167405 5098 224 47422 20.34 3130.995591133408 138 0.25 1 107.19456423633 86.648159918235
vector 5513  Network.dyn_peer[13]  lookupTimeSig:vector  ETV
5513	172503 3884 224 47422 20.34 3130.995591133408 138 0 1.1 51.6 24.96
vector 5544  Network.dyn_peer[24]  lookupHopsSig:vector  ETV
5544	297726 3324 231 47405 20.35 3130.94474954435 129 0 13 404 1914
vector 5545  Network.dyn_peer[24]  lookupStabilitySig:vector  ETV
5545	301050 4615 231 47405 20.35 3130.94474954435 129 0.27272725105286 1 99.438152931631 80.02437366872
vector 5546  Network.dyn_peer[24]  lookupTimeSig:vector  ETV
5546	305665 3570 231 47405 20.35 3130.94474954435 129 0 1.4 50.1 26.97
vector 5517  Network.dyn_peer[15]  lookupHopsSig:vector  ETV
5517	188708 3495 239 47319 20.36 3130.71 135 0 13 431 2089
vector 5518  Network.dyn_peer[15]  lookupStabilitySig:vector  ETV
5518	192203 4996 239 47319 20.36 3130.71 135 0.25 1 104.31932193041 84.83190008257
vector 5519  Network.dyn_peer[15]  lookupTimeSig:vector  ETV
5519	197199 3745 239 47319 20.36 3130.71 135 0 1.3 53.4 28.68
vector 5547  Network.dyn_peer[25]  lookupHopsSig:vector  ETV
5547	309235 3065 243 47258 20.36 3130.596212205465 121 0 12 352 1618
vector 5548  Network.dyn_peer[25]  lookupStabilitySig:vector  ETV
5548	312300 4164 243 47258 20.36 3130.596212205465 121 0.25 1 92.684739189222 73.610484201306
vector 5549  Network.dyn_peer[25]  lookupTimeSig:vector  ETV
5549	316464 3297 243 47258 20.36 3130.596212205465 121 0 1.3 44.1 23.01
vector 5550  Network.dyn_peer[26]  lookupHopsSig:vector  ETV
5550	319761 3371 252 47399 20.37 3130.931035078112 130 0 11 423 1965
vector 5551  Network.dyn_peer[26]  lookupStabilitySig:vector  ETV
5551	323132 4715 252 47399 20.37 3130.931035078112 130 0.33333331346512 1 99.263845592737 78.672812931422
vector 5552  Network.dyn_peer[26]  lookupTimeSig:vector  ETV
5552	327847 3625 252 47399 20.37 3130.931035078112 130 0 1.2 52.1 27.71
vector 5499  Network.dyn_peer[9]  lookupHopsSig:vector  ETV
5499	116280 3555 265 47402 20.4 3130.941761111013 138 1 12 421 1859
vector 5500  Network.dyn_peer[9]  lookupStabilitySig:vector  ETV
5500	119835 4983 265 47402 20.4 3130.941761111013 138 0.29411762952805 0.97297297231853 107.57712079771 87.035253241263
vector 5501  Network.dyn_peer[9]  lookupTimeSig:vector  ETV
5501	124818 3828 265 47402 20.4 3130.941761111013 138 0.1 1.3 52.7 26.81
vector 5502  Network.dyn_peer[10]  lookupHopsSig:vector  ETV
5502	128646 3481 272 47285 20.41 3130.642743923899 135 1 12 429 2089
vector 5503  Network.dyn_peer[10]  lookupStabilitySig:vector  ETV
5503	132127 4980 272 47285 20.41 3130.642743923899 135 0.11111110448837 0.97368421033025 103.73723913729 84.48366190159
vector 5504  Network.dyn_peer[10]  lookupTimeSig:vector  ETV
5504	137107 3742 272 47285 20.41 3130.642743923899 135 0.1 1.3 53.2 28.96
vector 5520  Network.dyn_peer[16]  lookupHopsSig:vector  ETV
5520	200944 3518 302 47289 20.47 3130.646198660828 136 0 9 442 2026
vector 5521  Network.dyn_peer[16]  lookupStabilitySig:vector  ETV
5521	204462 4997 302 47289 20.47 3130.646198660828 136 0.19999998807907 1 104.94070999511 85.294821306483
vector 5522  Network.dyn_peer[16]  lookupTimeSig:vector  ETV
5522	209459 3776 302 47289 20.47 3130.646198660828 136 0 1 54.6 28.66
vector 5523  Network.dyn_peer[17]  lookupHopsSig:vector  ETV
5523	213235 3192 311 47736 20.48 3132.768805857472 124 0 12 415 2079
vector 5524  Network.dyn_peer[17]  lookupStabilitySig:vector  ETV
5524	216427 4434 311 47736 20.48 3132.768805857472 124 0.11111110448837 1 92.937846887857 73.536721380188
vector 5525  Network.dyn_peer[17]  lookupTimeSig:vector  ETV
5525	220861 3421 311 47736 20.48 3132.768805857472 124 0 1.3 50.7 28.59
vector 5553  Network.dyn_peer[27]  lookupHopsSig:vector  ETV
5553	331472 3764 315 47159 20.48 3130.413370505946 144 1 12 502 2334
vector 5554  Network.dyn_peer[27]  lookupStabilitySig:vector  ETV
5554	335236 5418 315 47159 20.48 3130.413370505946 144 0.33333331346512 0.97368421033025 111.79436727986 90.115472491214
vector 5555  Network.dyn_peer[27]  lookupTimeSig:vector  ETV
5555	340654 4043 315 47159 20.48 3130.413370505946 144 0.1 1.3 61.4 33.06
vector 5559  Network.dyn_peer[29]  lookupHopsSig:vector  ETV
5559	358145 3543 329 47530 20.5 3131.430541084989 137 0 12 462 2158
vector 5560  Network.dyn_peer[29]  lookupStabilitySig:vector  ETV
5560	361688 5056 329 47530 20.5 3131.430541084989 137 0.25 1 104.99043183215 84.618366204837
vector 5561  Network.dyn_peer[29]  lookupTimeSig:vector  ETV
5561	366744 3803 329 47530 20.5 3131.430541084989 137 0 1.3 56.7 30.17
vector 5562  Network.dyn_peer[30]  lookupHopsSig:vector  ETV
5562	370547 3781 336 47789 20.51 3133.895333062138 144 0 10 414 1680
vector 5563  Network.dyn_peer[30]  lookupStabilitySig:vector  ETV
5563	374328 5255 336 47789 20.51 3133.895333062138 144 0.25 1 113.09051400609 92.55501543389
vector 5564  Network.dyn_peer[30]  lookupTimeSig:vector  ETV
5564	379583 4054 336 47789 20.51 3133.895333062138 144 0 1.1 52.6 24.98
vector 5535  Network.dyn_peer[21]  lookupHopsSig:vector  ETV
5535	261450 3389 345 47729 20.52 3132.685386552877 131 1 11 403 1881
vector 5536  Network.dyn_peer[21]  lookupStabilitySig:vector  ETV
5536	264839 4676 345 47729 20.52 3132.685386552877 131 0.11111110448837 0.96969696879387 100.29222891852 81.057032184345
vector 5537  Network.dyn_peer[21]  lookupTimeSig:vector  ETV
5537	269515 3646 345 47729 20.52 3132.685386552877 131 0.1 1.2 50.2 26.14
vector 5565  Network.dyn_peer[31]  lookupHopsSig:vector  ETV
5565	383637 3332 349 47380 20.52 3130.879560517966 130 0 11 427 2067
vector 5566  Network.dyn_peer[31]  lookupStabilitySig:vector  ETV
5566	386969 4695 349 47380 20.52 3130.879560517966 130 0.22222220897675 1 99.402388012037 80.168140063791
vector 5567  Network.dyn_peer[31]  lookupTimeSig:vector  ETV
5567	391664 3581 349 47380 20.52 3130.879560517966 130 0 1.1 52.5 28.51
vector 5541  Network.dyn_peer[23]  lookupHopsSig:vector  ETV
5541	284900 3689 361 47774 20.54 3133.309439292963 142 0 12 438 1954
vector 5542  Network.dyn_peer[23]  lookupStabilitySig:vector  ETV
5542	288589 5174 361 47774 20.54 3133.309439292963 142 0.33333331346512 1 110.25081544556 89.398200441977
vector 5543  Network.dyn_peer[23]  lookupTimeSig:vector  ETV
5543	293763 3963 361 47774 20.54 3133.309439292963 142 0 1.3 54.8 27.88
vector 5514  Network.dyn_peer[14]  lookupHopsSig:vector  ETV
5514	176387 3540 370 47240 20.55 3130.549317730073 137 0 12 474 2452
vector 5515  Network.dyn_peer[14]  lookupStabilitySig:vector  ETV
5515	179927 4987 370 47240 20.55 3130.549317730073 137 0.22222220897675 1 105.35339845158 85.444903832304
vector 5516  Network.dyn_peer[14]  lookupTimeSig:vector  ETV
5516	184914 3794 370 47240 20.55 3130.549317730073 137 0 1.3 57.9 33.37
vector 5532  Network.dyn_peer[20]  lookupHopsSig:vector  ETV
5532	249313 3520 399 47261 20.61 3130.60124412802 136 0 11 404 1838
vector 5533  Network.dyn_peer[20]  lookupStabilitySig:vector  ETV
5533	252833 4838 399 47261 20.61 3130.60124412802 136 0.36363637447357 1 107.22580571659 87.662642389066
vector 5534  Network.dyn_peer[20]  lookupTimeSig:vector  ETV
5534	257671 3779 399 47261 20.61 3130.60124412802 136 0 1.2 50.8 26.28
vector 5490  Network.dyn_peer[6]  lookupHopsSig:vector  ETV
5490	76985 3555 431 47343 20.67 3130.758751649474 136 0 10 435 1945
vector 5491  Network.dyn_peer[6]  lookupStabilitySig:vector  ETV
5491	80540 4941 431 47343 20.67 3130.758751649474 136 0.25 1 104.5698900912 84.048379138241
vector 5492  Network.dyn_peer[6]  lookupTimeSig:vector  ETV
5492	85481 3818 431 47343 20.67 3130.758751649474 136 0 1.1 53.9 27.73
vector 5556  Network.dyn_peer[28]  lookupHopsSig:vector  ETV
5556	344697 3838 495 47804 20.79 3134.703721139297 147 0 12 480 2178
vector 5557  Network.dyn_peer[28]  lookupStabilitySig:vector  ETV
5557	348535 5491 495 47804 20.79 3134.703721139297 147 0.25 1 115.18862290867 94.311838409816
vector 5558  Network.dyn_peer[28]  lookupTimeSig:vector  ETV
5558	354026 4119 495 47804 20.79 3134.703721139297 147 0 1.3 59.5 31.01
