file 493830 1369674150                                          
version 2
run Stability-45-20130524-20:22:25-3483
attr configname Stability
attr datetime 20130524-20:22:25
attr experiment Stability
attr inifile omnetpp.ini
attr iterationvars $0=1e2
attr iterationvars2 "$0=1e2, $repetition=5"
attr measurement $0=1e2
attr network Network
attr processid 3483
attr repetition 5
attr replication #5
attr resultdir results
attr runnumber 45
attr seedset 45
vector 4320  Network.dyn_peer[0]  lookupHopsSig:vector  ETV
4320	6376 4380 37 51306 20.3 3218.109299399002 167 0 6 390 1240
vector 4321  Network.dyn_peer[0]  lookupStabilitySig:vector  ETV
4321	10756 6323 37 51306 20.3 3218.109299399002 167 0.5 1 138.66432883777 116.84040722721
vector 4322  Network.dyn_peer[0]  lookupTimeSig:vector  ETV
4322	17079 4712 37 51306 20.3 3218.109299399002 167 0 0.7 52.5 20.27
vector 4323  Network.dyn_peer[1]  lookupHopsSig:vector  ETV
4323	21791 5343 41 51254 20.3 3217.91403087465 197 0 8 451 1551
vector 4324  Network.dyn_peer[1]  lookupStabilitySig:vector  ETV
4324	27134 7348 41 51254 20.3 3217.91403087465 197 0.44444441795349 1 163.6781477537 138.13179795616
vector 4325  Network.dyn_peer[1]  lookupTimeSig:vector  ETV
4325	34482 5729 41 51254 20.3 3217.91403087465 197 0 0.9 61.6 25.32
vector 4326  Network.dyn_peer[2]  lookupHopsSig:vector  ETV
4326	40211 4006 51 51855 20.4 3219.811537221038 155 0 10 427 1593
vector 4327  Network.dyn_peer[2]  lookupStabilitySig:vector  ETV
4327	44217 6000 51 51855 20.4 3219.811537221038 155 0.55555555224419 1 132.71910516731 114.69369292688
vector 4328  Network.dyn_peer[2]  lookupTimeSig:vector  ETV
4328	50217 4313 51 51855 20.4 3219.811537221038 155 0 1.1 55 24.1
vector 4329  Network.dyn_peer[3]  lookupHopsSig:vector  ETV
4329	54530 4237 63 52347 20.5 3220.805301657374 161 0 10 471 1893
vector 4330  Network.dyn_peer[3]  lookupStabilitySig:vector  ETV
4330	58767 6393 63 52347 20.5 3220.805301657374 161 0.33333331346512 1 136.46084371768 117.22687809965
vector 4331  Network.dyn_peer[3]  lookupTimeSig:vector  ETV
4331	65160 4556 63 52347 20.5 3220.805301657374 161 0 1.1 59.9 27.71
vector 4332  Network.dyn_peer[4]  lookupHopsSig:vector  ETV
4332	69716 3893 87 51498 20.7 3218.707395797215 150 0 9 420 1550
vector 4333  Network.dyn_peer[4]  lookupStabilitySig:vector  ETV
4333	73609 5858 87 51498 20.7 3218.707395797215 150 0.5 1 129.59216818586 112.99306072708
vector 4334  Network.dyn_peer[4]  lookupTimeSig:vector  ETV
4334	79467 4189 87 51498 20.7 3218.707395797215 150 0 1 53.8 23.32
vector 4335  Network.dyn_peer[5]  lookupHopsSig:vector  ETV
4335	83656 4162 104 51680 20.8 3219.304504074733 160 1 7 429 1515
vector 4336  Network.dyn_peer[5]  lookupStabilitySig:vector  ETV
4336	87818 6243 104 51680 20.8 3219.304504074733 160 0.55555555224419 0.96774193644524 135.65982323885 116.29515885872
vector 4337  Network.dyn_peer[5]  lookupTimeSig:vector  ETV
4337	94061 4482 104 51680 20.8 3219.304504074733 160 0.1 0.8 55.7 23.45
vector 4341  Network.dyn_peer[7]  lookupHopsSig:vector  ETV
4341	113937 4046 123 52314 20.9 3220.6973 155 0 12 445 1827
vector 4342  Network.dyn_peer[7]  lookupStabilitySig:vector  ETV
4342	117983 6136 123 52314 20.9 3220.6973 155 0.11111110448837 1 131.65800438449 113.85406158317
vector 4343  Network.dyn_peer[7]  lookupTimeSig:vector  ETV
4343	124119 4349 123 52314 20.9 3220.6973 155 0 1.3 56.7 26.55
vector 4338  Network.dyn_peer[6]  lookupHopsSig:vector  ETV
4338	98543 4396 141 51495 21 3218.704631397484 167 0 9 399 1363
vector 4339  Network.dyn_peer[6]  lookupStabilitySig:vector  ETV
4339	102939 6280 141 51495 21 3218.704631397484 167 0.375 1 140.12730883434 119.20244247763
vector 4340  Network.dyn_peer[6]  lookupTimeSig:vector  ETV
4340	109219 4718 141 51495 21 3218.704631397484 167 0 1 53.4 21.76
vector 4344  Network.dyn_peer[8]  lookupHopsSig:vector  ETV
4344	128468 4546 163 51742 21.1 3219.5 173 0 9 547 2385
vector 4345  Network.dyn_peer[8]  lookupStabilitySig:vector  ETV
4345	133014 6996 163 51742 21.1 3219.5 173 0.68000000715256 1 153.24236818403 136.6519993181
vector 4346  Network.dyn_peer[8]  lookupTimeSig:vector  ETV
4346	140010 4884 163 51742 21.1 3219.5 173 0 1 68.8 33.86
vector 4347  Network.dyn_peer[9]  lookupHopsSig:vector  ETV
4347	144894 4180 182 52354 21.2 3220.820805302384 160 0 12 393 1465
vector 4348  Network.dyn_peer[9]  lookupStabilitySig:vector  ETV
4348	149074 6151 182 52354 21.2 3220.820805302384 160 0.29411762952805 1 132.00222938322 110.99635267112
vector 4349  Network.dyn_peer[9]  lookupTimeSig:vector  ETV
4349	155225 4489 182 52354 21.2 3220.820805302384 160 0 1.2 52 22.3
vector 4350  Network.dyn_peer[10]  lookupHopsSig:vector  ETV
4350	159714 4494 205 51809 21.3 3219.703430605592 168 0 9 375 1193
vector 4351  Network.dyn_peer[10]  lookupStabilitySig:vector  ETV
4351	164208 6391 205 51809 21.3 3219.703430605592 168 0.375 1 139.44719181582 117.68100775259
vector 4352  Network.dyn_peer[10]  lookupTimeSig:vector  ETV
4352	170599 4822 205 51809 21.3 3219.703430605592 168 0 1 51.1 19.67
vector 4353  Network.dyn_peer[11]  lookupHopsSig:vector  ETV
4353	175421 4466 233 51909 21.4 3220.015526363064 169 0 7 426 1396
vector 4354  Network.dyn_peer[11]  lookupStabilitySig:vector  ETV
4354	179887 6484 233 51909 21.4 3220.015526363064 169 0.44444441795349 1 140.3658213485 118.22858598402
vector 4355  Network.dyn_peer[11]  lookupTimeSig:vector  ETV
4355	186371 4802 233 51909 21.4 3220.015526363064 169 0 0.8 56.3 22.39
vector 4356  Network.dyn_peer[12]  lookupHopsSig:vector  ETV
4356	191173 3953 237 52292 21.4 3220.608554418656 152 0 9 433 1657
vector 4357  Network.dyn_peer[12]  lookupStabilitySig:vector  ETV
4357	195126 5870 237 52292 21.4 3220.608554418656 152 0.59999999403954 1 128.350466609 109.77556383505
vector 4358  Network.dyn_peer[12]  lookupTimeSig:vector  ETV
4358	200996 4251 237 52292 21.4 3220.608554418656 152 0 1 55.2 24.42
vector 4359  Network.dyn_peer[13]  lookupHopsSig:vector  ETV
4359	205247 4639 314 52330 21.7 3220.712616957949 176 0 10 548 2312
vector 4360  Network.dyn_peer[13]  lookupStabilitySig:vector  ETV
4360	209886 7091 314 52330 21.7 3220.712616957949 176 0.11111110448837 1 155.18222334795 138.25799264127
vector 4361  Network.dyn_peer[13]  lookupTimeSig:vector  ETV
4361	216977 4980 314 52330 21.7 3220.712616957949 176 0 1 69.1 33.33
vector 4362  Network.dyn_peer[14]  lookupHopsSig:vector  ETV
4362	221957 3857 318 51849 21.7 3219.807651248041 149 1 8 432 1620
vector 4363  Network.dyn_peer[14]  lookupStabilitySig:vector  ETV
4363	225814 5948 318 51849 21.7 3219.807651248041 149 0.54545453190804 0.97297297231853 129.14858481102 112.81807695246
vector 4364  Network.dyn_peer[14]  lookupTimeSig:vector  ETV
4364	231762 4155 318 51849 21.7 3219.807651248041 149 0.1 0.9 54.9 24.11
vector 4365  Network.dyn_peer[15]  lookupHopsSig:vector  ETV
4365	235917 3805 322 51694 21.7 3219.322242853111 147 0 9 431 1725
vector 4366  Network.dyn_peer[15]  lookupStabilitySig:vector  ETV
4366	239722 5860 322 51694 21.7 3219.322242853111 147 0.59999999403954 1 125.71812520176 108.54301888951
vector 4367  Network.dyn_peer[15]  lookupTimeSig:vector  ETV
4367	245582 4095 322 51694 21.7 3219.322242853111 147 0 1 54.6 25.12
vector 4368  Network.dyn_peer[16]  lookupHopsSig:vector  ETV
4368	249677 4584 351 51683 21.8 3219.309186986339 174 1 10 530 2126
vector 4369  Network.dyn_peer[16]  lookupStabilitySig:vector  ETV
4369	254261 7043 351 51683 21.8 3219.309186986339 174 0.63636362552643 0.97435897402465 154.37219874188 137.67526778078
vector 4370  Network.dyn_peer[16]  lookupTimeSig:vector  ETV
4370	261304 4929 351 51683 21.8 3219.309186986339 174 0.1 1.1 67.2 31.36
vector 4371  Network.dyn_peer[17]  lookupHopsSig:vector  ETV
4371	266233 3781 380 51507 21.9 3218.716132071969 146 0 7 333 1019
vector 4372  Network.dyn_peer[17]  lookupStabilitySig:vector  ETV
4372	270014 5608 380 51507 21.9 3218.716132071969 146 0.61538460850716 1 123.91226641461 106.13582985147
vector 4373  Network.dyn_peer[17]  lookupTimeSig:vector  ETV
4373	275622 4069 380 51507 21.9 3218.716132071969 146 0 0.8 44.7 16.87
vector 4374  Network.dyn_peer[18]  lookupHopsSig:vector  ETV
4374	279691 3764 431 52334 22.1 3220.722582351352 146 0 8 465 1937
vector 4375  Network.dyn_peer[18]  lookupStabilitySig:vector  ETV
4375	283455 5741 431 52334 22.1 3220.722582351352 146 0.61111110448837 1 127.01154878363 111.38779691068
vector 4376  Network.dyn_peer[18]  lookupTimeSig:vector  ETV
4376	289196 4052 431 52334 22.1 3220.722582351352 146 0 0.9 57.9 27.81
vector 4377  Network.dyn_peer[19]  lookupHopsSig:vector  ETV
4377	293248 3743 508 51476 22.4 3218.633908685382 145 0 9 422 1676
vector 4378  Network.dyn_peer[19]  lookupStabilitySig:vector  ETV
4378	296991 5749 508 51476 22.4 3218.633908685382 145 0.39999997615814 1 125.34989938885 109.51017762415
vector 4379  Network.dyn_peer[19]  lookupTimeSig:vector  ETV
4379	302740 4029 508 51476 22.4 3218.633908685382 145 0 1 53.5 24.49
vector 4383  Network.dyn_peer[21]  lookupHopsSig:vector  ETV
4383	323038 4778 544 51471 22.5 3218.617737041198 179 0 10 491 1983
vector 4384  Network.dyn_peer[21]  lookupStabilitySig:vector  ETV
4384	327816 7049 544 51471 22.5 3218.617737041198 179 0.5 1 154.87615229376 135.64565173838
vector 4385  Network.dyn_peer[21]  lookupTimeSig:vector  ETV
4385	334865 5120 544 51471 22.5 3218.617737041198 179 0 1 63.8 29.14
vector 4380  Network.dyn_peer[20]  lookupHopsSig:vector  ETV
4380	306769 4706 572 51405 22.6 3218.418310579782 175 0 7 425 1439
vector 4381  Network.dyn_peer[20]  lookupStabilitySig:vector  ETV
4381	311475 6519 572 51405 22.6 3218.418310579782 175 0.39999997615814 1 144.2752710972 120.94615013833
vector 4382  Network.dyn_peer[20]  lookupTimeSig:vector  ETV
4382	317994 5044 572 51405 22.6 3218.418310579782 175 0 0.8 56.8 23.22
vector 4386  Network.dyn_peer[22]  lookupHopsSig:vector  ETV
4386	339985 5071 576 51261 22.6 3217.932995075279 189 0 9 443 1469
vector 4387  Network.dyn_peer[22]  lookupStabilitySig:vector  ETV
4387	345056 7198 576 51261 22.6 3217.932995075279 189 0.5 1 161.29055893794 139.08119234011
vector 4388  Network.dyn_peer[22]  lookupTimeSig:vector  ETV
4388	352254 5441 576 51261 22.6 3217.932995075279 189 0 1 60 24
vector 4389  Network.dyn_peer[23]  lookupHopsSig:vector  ETV
4389	357695 4523 580 51861 22.6 3219.816338663737 170 0 9 427 1469
vector 4390  Network.dyn_peer[23]  lookupStabilitySig:vector  ETV
4390	362218 6554 580 51861 22.6 3219.816338663737 170 0.59999999403954 1 147.33080412447 128.85013193436
vector 4391  Network.dyn_peer[23]  lookupTimeSig:vector  ETV
4391	368772 4857 580 51861 22.6 3219.816338663737 170 0 0.9 56.5 22.91
vector 4395  Network.dyn_peer[25]  lookupHopsSig:vector  ETV
4395	387797 3849 636 52294 22.8 3220.609811031454 150 1 11 500 2318
vector 4396  Network.dyn_peer[25]  lookupStabilitySig:vector  ETV
4396	391646 5984 636 52294 22.8 3220.609811031454 150 0.57894736528397 0.97297297231853 130.78470359184 115.09018855116
vector 4397  Network.dyn_peer[25]  lookupTimeSig:vector  ETV
4397	397630 4146 636 52294 22.8 3220.609811031454 150 0.1 1.2 61.7 32.17
vector 4398  Network.dyn_peer[26]  lookupHopsSig:vector  ETV
4398	401776 4714 640 52366 22.8 3221.03023300549 177 0 9 516 2054
vector 4399  Network.dyn_peer[26]  lookupStabilitySig:vector  ETV
4399	406490 7218 640 52366 22.8 3221.03023300549 177 0.55555555224419 1 156.33684449084 139.02792523453
vector 4400  Network.dyn_peer[26]  lookupTimeSig:vector  ETV
4400	413708 5064 640 52366 22.8 3221.03023300549 177 0 1 66 30.38
vector 4404  Network.dyn_peer[28]  lookupHopsSig:vector  ETV
4404	433476 4127 701 52299 23 3220.612714894361 158 0 9 468 1912
vector 4405  Network.dyn_peer[28]  lookupStabilitySig:vector  ETV
4405	437603 6318 701 52299 23 3220.612714894361 158 0 1 137.77200748026 121.77825288846
vector 4406  Network.dyn_peer[28]  lookupTimeSig:vector  ETV
4406	443921 4435 701 52299 23 3220.612714894361 158 0 1 59.3 27.97
vector 4392  Network.dyn_peer[24]  lookupHopsSig:vector  ETV
4392	373629 4000 734 51235 23.1 3217.830397605736 154 0 10 416 1592
vector 4393  Network.dyn_peer[24]  lookupStabilitySig:vector  ETV
4393	377629 5867 734 51235 23.1 3217.830397605736 154 0.5 1 129.16959548369 109.95419998384
vector 4394  Network.dyn_peer[24]  lookupTimeSig:vector  ETV
4394	383496 4301 734 51235 23.1 3217.830397605736 154 0 1.1 53.8 24.04
vector 4401  Network.dyn_peer[27]  lookupHopsSig:vector  ETV
4401	418772 4068 769 52257 23.2 3220.503276767276 156 1 8 474 1870
vector 4402  Network.dyn_peer[27]  lookupStabilitySig:vector  ETV
4402	422840 6256 769 52257 23.2 3220.503276767276 156 0.22222220897675 0.97142857126892 136.64775789715 120.8537085529
vector 4403  Network.dyn_peer[27]  lookupTimeSig:vector  ETV
4403	429096 4380 769 52257 23.2 3220.503276767276 156 0.1 0.9 59.7 27.17
vector 4407  Network.dyn_peer[29]  lookupHopsSig:vector  ETV
4407	448356 4241 835 51881 23.4 3219.910119718436 162 0 9 455 1661
vector 4408  Network.dyn_peer[29]  lookupStabilitySig:vector  ETV
4408	452597 6458 835 51881 23.4 3219.910119718436 162 0.59999999403954 1 141.44075106084 124.42755703194
vector 4409  Network.dyn_peer[29]  lookupTimeSig:vector  ETV
4409	459055 4561 835 51881 23.4 3219.910119718436 162 0 1 58.5 25.47
vector 4410  Network.dyn_peer[30]  lookupHopsSig:vector  ETV
4410	463616 3497 839 51729 23.4 3219.412814164687 138 0 11 358 1402
vector 4411  Network.dyn_peer[30]  lookupStabilitySig:vector  ETV
4411	467113 5170 839 51729 23.4 3219.412814164687 138 0.47058820724487 1 116.41166629642 99.7404853265
vector 4412  Network.dyn_peer[30]  lookupTimeSig:vector  ETV
4412	472283 3767 839 51729 23.4 3219.412814164687 138 0 1.2 46.4 20.58
vector 4413  Network.dyn_peer[31]  lookupHopsSig:vector  ETV
4413	476050 4933 872 51248 23.5 3217.906509116638 185 1 10 511 1937
vector 4414  Network.dyn_peer[31]  lookupStabilitySig:vector  ETV
4414	480983 7547 872 51248 23.5 3217.906509116638 185 0.59999999403954 0.97435897402465 166.79429277405 151.06138383664
vector 4415  Network.dyn_peer[31]  lookupTimeSig:vector  ETV
4415	488530 5300 872 51248 23.5 3217.906509116638 185 0.1 1 66.4 29.24
