version 2
run Stability-72-20130524-20:23:14-3483
attr configname Stability
attr datetime 20130524-20:23:14
attr experiment Stability
attr inifile omnetpp.ini
attr iterationvars $0=1e-1
attr iterationvars2 "$0=1e-1, $repetition=2"
attr measurement $0=1e-1
attr network Network
attr processid 3483
attr repetition 2
attr replication #2
attr resultdir results
attr runnumber 72
attr seedset 72

vector 6927  Network.dyn_peer[5]  lookupHopsSig:vector  ETV
vector 6928  Network.dyn_peer[5]  lookupStabilitySig:vector  ETV
vector 6929  Network.dyn_peer[5]  lookupTimeSig:vector  ETV
vector 6951  Network.dyn_peer[13]  lookupHopsSig:vector  ETV
vector 6952  Network.dyn_peer[13]  lookupStabilitySig:vector  ETV
vector 6953  Network.dyn_peer[13]  lookupTimeSig:vector  ETV
vector 6999  Network.dyn_peer[29]  lookupHopsSig:vector  ETV
vector 7000  Network.dyn_peer[29]  lookupStabilitySig:vector  ETV
vector 7001  Network.dyn_peer[29]  lookupTimeSig:vector  ETV
vector 7002  Network.dyn_peer[30]  lookupHopsSig:vector  ETV
vector 7003  Network.dyn_peer[30]  lookupStabilitySig:vector  ETV
vector 7004  Network.dyn_peer[30]  lookupTimeSig:vector  ETV
vector 6915  Network.dyn_peer[1]  lookupHopsSig:vector  ETV
vector 6916  Network.dyn_peer[1]  lookupStabilitySig:vector  ETV
vector 6917  Network.dyn_peer[1]  lookupTimeSig:vector  ETV
vector 6918  Network.dyn_peer[2]  lookupHopsSig:vector  ETV
vector 6919  Network.dyn_peer[2]  lookupStabilitySig:vector  ETV
vector 6920  Network.dyn_peer[2]  lookupTimeSig:vector  ETV
vector 6924  Network.dyn_peer[4]  lookupHopsSig:vector  ETV
vector 6925  Network.dyn_peer[4]  lookupStabilitySig:vector  ETV
vector 6926  Network.dyn_peer[4]  lookupTimeSig:vector  ETV
vector 6936  Network.dyn_peer[8]  lookupHopsSig:vector  ETV
vector 6937  Network.dyn_peer[8]  lookupStabilitySig:vector  ETV
vector 6938  Network.dyn_peer[8]  lookupTimeSig:vector  ETV
vector 6963  Network.dyn_peer[17]  lookupHopsSig:vector  ETV
vector 6964  Network.dyn_peer[17]  lookupStabilitySig:vector  ETV
vector 6965  Network.dyn_peer[17]  lookupTimeSig:vector  ETV
vector 6969  Network.dyn_peer[19]  lookupHopsSig:vector  ETV
vector 6970  Network.dyn_peer[19]  lookupStabilitySig:vector  ETV
vector 6971  Network.dyn_peer[19]  lookupTimeSig:vector  ETV
vector 6978  Network.dyn_peer[22]  lookupHopsSig:vector  ETV
vector 6979  Network.dyn_peer[22]  lookupStabilitySig:vector  ETV
vector 6980  Network.dyn_peer[22]  lookupTimeSig:vector  ETV
vector 6993  Network.dyn_peer[27]  lookupHopsSig:vector  ETV
vector 6994  Network.dyn_peer[27]  lookupStabilitySig:vector  ETV
vector 6995  Network.dyn_peer[27]  lookupTimeSig:vector  ETV
vector 7005  Network.dyn_peer[31]  lookupHopsSig:vector  ETV
vector 7006  Network.dyn_peer[31]  lookupStabilitySig:vector  ETV
vector 7007  Network.dyn_peer[31]  lookupTimeSig:vector  ETV
vector 6912  Network.dyn_peer[0]  lookupHopsSig:vector  ETV
vector 6913  Network.dyn_peer[0]  lookupStabilitySig:vector  ETV
vector 6914  Network.dyn_peer[0]  lookupTimeSig:vector  ETV
vector 6921  Network.dyn_peer[3]  lookupHopsSig:vector  ETV
vector 6922  Network.dyn_peer[3]  lookupStabilitySig:vector  ETV
vector 6923  Network.dyn_peer[3]  lookupTimeSig:vector  ETV
vector 6930  Network.dyn_peer[6]  lookupHopsSig:vector  ETV
vector 6931  Network.dyn_peer[6]  lookupStabilitySig:vector  ETV
vector 6932  Network.dyn_peer[6]  lookupTimeSig:vector  ETV
vector 6966  Network.dyn_peer[18]  lookupHopsSig:vector  ETV
vector 6967  Network.dyn_peer[18]  lookupStabilitySig:vector  ETV
vector 6968  Network.dyn_peer[18]  lookupTimeSig:vector  ETV
vector 6975  Network.dyn_peer[21]  lookupHopsSig:vector  ETV
vector 6976  Network.dyn_peer[21]  lookupStabilitySig:vector  ETV
vector 6977  Network.dyn_peer[21]  lookupTimeSig:vector  ETV
vector 6996  Network.dyn_peer[28]  lookupHopsSig:vector  ETV
vector 6997  Network.dyn_peer[28]  lookupStabilitySig:vector  ETV
vector 6998  Network.dyn_peer[28]  lookupTimeSig:vector  ETV
vector 6933  Network.dyn_peer[7]  lookupHopsSig:vector  ETV
vector 6934  Network.dyn_peer[7]  lookupStabilitySig:vector  ETV
vector 6935  Network.dyn_peer[7]  lookupTimeSig:vector  ETV
vector 6939  Network.dyn_peer[9]  lookupHopsSig:vector  ETV
vector 6940  Network.dyn_peer[9]  lookupStabilitySig:vector  ETV
vector 6941  Network.dyn_peer[9]  lookupTimeSig:vector  ETV
vector 6942  Network.dyn_peer[10]  lookupHopsSig:vector  ETV
vector 6943  Network.dyn_peer[10]  lookupStabilitySig:vector  ETV
vector 6944  Network.dyn_peer[10]  lookupTimeSig:vector  ETV
vector 6954  Network.dyn_peer[14]  lookupHopsSig:vector  ETV
vector 6955  Network.dyn_peer[14]  lookupStabilitySig:vector  ETV
vector 6956  Network.dyn_peer[14]  lookupTimeSig:vector  ETV
vector 6960  Network.dyn_peer[16]  lookupHopsSig:vector  ETV
vector 6961  Network.dyn_peer[16]  lookupStabilitySig:vector  ETV
vector 6962  Network.dyn_peer[16]  lookupTimeSig:vector  ETV
vector 6972  Network.dyn_peer[20]  lookupHopsSig:vector  ETV
vector 6973  Network.dyn_peer[20]  lookupStabilitySig:vector  ETV
vector 6974  Network.dyn_peer[20]  lookupTimeSig:vector  ETV
vector 6981  Network.dyn_peer[23]  lookupHopsSig:vector  ETV
vector 6982  Network.dyn_peer[23]  lookupStabilitySig:vector  ETV
vector 6983  Network.dyn_peer[23]  lookupTimeSig:vector  ETV
vector 6984  Network.dyn_peer[24]  lookupHopsSig:vector  ETV
vector 6985  Network.dyn_peer[24]  lookupStabilitySig:vector  ETV
vector 6986  Network.dyn_peer[24]  lookupTimeSig:vector  ETV
vector 6987  Network.dyn_peer[25]  lookupHopsSig:vector  ETV
vector 6988  Network.dyn_peer[25]  lookupStabilitySig:vector  ETV
vector 6989  Network.dyn_peer[25]  lookupTimeSig:vector  ETV
vector 6945  Network.dyn_peer[11]  lookupHopsSig:vector  ETV
vector 6946  Network.dyn_peer[11]  lookupStabilitySig:vector  ETV
vector 6947  Network.dyn_peer[11]  lookupTimeSig:vector  ETV
vector 6948  Network.dyn_peer[12]  lookupHopsSig:vector  ETV
vector 6949  Network.dyn_peer[12]  lookupStabilitySig:vector  ETV
vector 6950  Network.dyn_peer[12]  lookupTimeSig:vector  ETV
vector 6957  Network.dyn_peer[15]  lookupHopsSig:vector  ETV
vector 6958  Network.dyn_peer[15]  lookupStabilitySig:vector  ETV
vector 6959  Network.dyn_peer[15]  lookupTimeSig:vector  ETV
vector 6990  Network.dyn_peer[26]  lookupHopsSig:vector  ETV
vector 6991  Network.dyn_peer[26]  lookupStabilitySig:vector  ETV
vector 6992  Network.dyn_peer[26]  lookupTimeSig:vector  ETV
6912	212	20.2001	2
6912	647	21.0001	7
6912	768	21.300404742688	2
6912	1459	120.1044	1
6912	2018	120.8044	6
6912	2204	121.110776405183	2
6912	3341	220.4073	4
6912	3840	221.2073	7
6912	4002	221.609520273083	3
6912	4110	222.014558968192	3
6912	4810	320.3114	3
6912	5012	320.6114	2
6912	5232	320.91352446053	2
6912	6152	420.2129	2
6912	6336	420.413557119296	1
6912	7053	421.716464521648	12
6912	7749	520.1172	1
6912	8040	520.420777637401	2
6912	8433	520.920848473528	4
6912	9612	620.419	4
6912	9825	620.719	2
6912	10067	621.119503978901	3
6912	10204	621.328634400812	1
6912	11508	720.9228	9
6912	11720	721.4228	4
6912	11825	721.726739182092	2
6912	11945	722.230222809053	4
6912	11990	722.636592849962	3
6912	12023	723.038438982449	3
6912	12064	723.444739412395	3
6912	12099	723.846265923164	3
6912	12127	724.258120394064	3
6912	12438	820.0279	0
6912	12968	820.730154276792	6
6912	13221	821.138029877651	3
6912	13512	821.844933133284	6
6912	14604	920.8297	8
6912	14857	921.3297	4
6912	15070	922.030488744899	6
6912	15121	922.43405807532	3
6912	15641	1020.1336	1
6912	15980	1020.5336	3
6912	16234	1020.842601158439	2
6912	16413	1021.151529783473	2
6912	17472	1120.3349	3
6912	18204	1121.4349	10
6912	18353	1121.839598729242	3
6912	18385	1122.050958865525	1
6912	18420	1122.657410927696	5
6912	19261	1220.7403	7
6912	19500	1221.1403	3
6912	19753	1221.649578910918	4
6912	19871	1222.05688234746	3
6912	20875	1320.6427	6
6912	21218	1321.2427	5
6912	22154	1420.5443	5
6912	22698	1421.4443	8
6912	22820	1421.746970712217	2
6912	22952	1422.248610115596	4
6912	23033	1422.850203669026	5
6912	23077	1423.355502606184	4
6912	23110	1423.765009884352	3
6912	23153	1424.372095999151	5
6912	23173	1424.679651667202	2
6912	23745	1520.2495	2
6912	23903	1520.454381520599	1
6912	24460	1521.263594483057	7
6912	25010	1620.0507	0
6912	25271	1620.254372722121	1
6912	25430	1620.456788404561	1
6912	25926	1621.262055532804	7
6912	26017	1621.466491782977	1
6912	26198	1622.17232528279	6
6912	26996	1720.4552	4
6912	27170	1720.65831765725	1
6912	27291	1720.867087592081	1
6912	27459	1721.167951015398	2
6912	27607	1721.474047957126	2
6912	28692	1820.2567	2
6912	29067	1820.764266365074	4
6912	29263	1821.078905461447	2
6912	29399	1821.282214767672	1
6912	30037	1920.0599	0
6912	30627	1920.6599	5
6912	30913	1921.06284270137	3
6912	31048	1921.369782168111	2
6912	31560	2020.0633	0
6912	32107	2020.6633	5
6912	33768	2120.8652	8
6912	34244	2121.7652	8
6912	34315	2121.967401345637	1
6912	34416	2122.47105612859	4
6912	34488	2122.972503035279	4
6912	34553	2123.480554807862	4
6912	34598	2123.984147085627	4
6912	35486	2220.771	7
6912	35867	2221.471	6
6912	36016	2221.877449475006	3
6912	36080	2222.086643870375	1
6912	37060	2320.6735	6
6912	37253	2320.9735	2
6912	37364	2321.173801378723	1
6912	38786	2420.6753	6
6912	38977	2420.9753	2
6912	39304	2421.580461651012	5
6912	39449	2422.185646143031	5
6912	39508	2422.592890723668	3
6912	39547	2422.99556682458	3
6912	39568	2423.60596578436	5
6912	39576	2424.212928324607	5
6912	40641	2521.1807	11
6912	40786	2521.4807	2
6912	40898	2521.785296765476	2
6912	41031	2522.295107307621	4
6912	41077	2522.496655359662	1
6912	41132	2522.806617268766	2
6912	41178	2523.220093140898	3
6912	41210	2523.521921922045	2
6912	42247	2620.9833	9
6912	42456	2621.3833	3
6912	42571	2621.590191136139	1
6912	43397	2720.485	4
6912	43788	2721.085	5
6912	43971	2721.494167840436	3
6912	44951	2820.2881	2
6912	45521	2821.1881	8
6912	45735	2821.789585006348	5
6912	45775	2821.994333030864	1
6912	46552	2920.3922	3
6912	46839	2920.7922	3
6912	47243	2921.592632334428	7
6912	47412	2922.29621778866	6
6912	48104	3020.3952	3
6912	48236	3020.5952	1
6912	48384	3020.79957751295	1
6912	48728	3021.605326903778	7
6912	49885	3120.5975	5
6912	50184	3121.004117177582	3
6912	50459	3121.607047271995	5
6912	50612	3122.115043018782	4
6913	212	20.2001	0.75
6913	647	21.0001	0.41666668653488
6913	768	21.300404742688	0.89999999850988
6913	1459	120.1044	0.875
6913	2018	120.8044	0.5
6913	2204	121.110776405183	0.8823529407382
6913	3341	220.4073	0.5
6913	3840	221.2073	0.5
6913	4002	221.609520273083	0.85714285075665
6913	4110	222.014558968192	0.89285714179277
6913	4810	320.3114	0.625
6913	5012	320.6114	0.75
6913	5232	320.91352446053	0.83333332836628
6913	6152	420.2129	0.75
6913	6336	420.413557119296	0.875
6913	7053	421.716464521648	0.5
6913	7749	520.1172	0.875
6913	8040	520.420777637401	0.75
6913	8433	520.920848473528	0.63636362552643
6913	9612	620.419	0.5
6913	9825	620.719	0.81818181276321
6913	10067	621.119503978901	0.76923076808453
6913	10204	621.328634400812	0.94444444403052
6913	11508	720.9228	0.18181818723679
6913	11720	721.4228	0.77777777612209
6913	11825	721.726739182092	0.91304347664118
6913	11945	722.230222809053	0.875
6913	11990	722.636592849962	0.91176470369101
6913	12023	723.038438982449	0.91176470369101
6913	12064	723.444739412395	0.9142857119441
6913	12099	723.846265923164	0.9142857119441
6913	12127	724.258120394064	0.92105263471603
6913	12438	820.0279	1
6913	12968	820.730154276792	0.39999997615814
6913	13221	821.138029877651	0.76923076808453
6913	13512	821.844933133284	0.76000000536442
6913	14604	920.8297	0.19999998807907
6913	14857	921.3297	0.7647058814764
6913	15070	922.030488744899	0.8125
6913	15121	922.43405807532	0.90909090638161
6913	15641	1020.1336	0.875
6913	15980	1020.5336	0.625
6913	16234	1020.842601158439	0.79999999701977
6913	16413	1021.151529783473	0.86666665971279
6913	17472	1120.3349	0.625
6913	18204	1121.4349	0.41176468133926
6913	18353	1121.839598729242	0.90322580933571
6913	18385	1122.050958865525	0.97142857126892
6913	18420	1122.657410927696	0.86842104792595
6913	19261	1220.7403	0.125
6913	19500	1221.1403	0.72727271914482
6913	19753	1221.649578910918	0.83333332836628
6913	19871	1222.05688234746	0.90322580933571
6913	20875	1320.6427	0.25
6913	21218	1321.2427	0.6875
6913	22154	1420.5443	0.375
6913	22698	1421.4443	0.57894736528397
6913	22820	1421.746970712217	0.91304347664118
6913	22952	1422.248610115596	0.87096774578094
6913	23033	1422.850203669026	0.85714285075665
6913	23077	1423.355502606184	0.88571428507566
6913	23110	1423.765009884352	0.91666666418314
6913	23153	1424.372095999151	0.86486487090588
6913	23173	1424.679651667202	0.94594594463706
6913	23745	1520.2495	0.75
6913	23903	1520.454381520599	0.875
6913	24460	1521.263594483057	0.61111110448837
6913	25010	1620.0507	1
6913	25271	1620.254372722121	0.875
6913	25430	1620.456788404561	0.875
6913	25926	1621.262055532804	0.5
6913	26017	1621.466491782977	0.95238095149398
6913	26198	1622.17232528279	0.8125
6913	26996	1720.4552	0.5
6913	27170	1720.65831765725	0.91666666418314
6913	27291	1720.867087592081	0.92307692021132
6913	27459	1721.167951015398	0.86666665971279
6913	27607	1721.474047957126	0.875
6913	28692	1820.2567	0.75
6913	29067	1820.764266365074	0.55555555224419
6913	29263	1821.078905461447	0.81818181276321
6913	29399	1821.282214767672	0.9411764703691
6913	30037	1920.0599	1
6913	30627	1920.6599	0.375
6913	30913	1921.06284270137	0.76923076808453
6913	31048	1921.369782168111	0.89999999850988
6913	31560	2020.0633	1
6913	32107	2020.6633	0.375
6913	33768	2120.8652	0.19999998807907
6913	34244	2121.7652	0.61904761195183
6913	34315	2121.967401345637	0.96428571268916
6913	34416	2122.47105612859	0.86666665971279
6913	34488	2122.972503035279	0.87096774578094
6913	34553	2123.480554807862	0.8823529407382
6913	34598	2123.984147085627	0.88571428507566
6913	35486	2220.771	0.30000001192093
6913	35867	2221.471	0.66666665673256
6913	36016	2221.877449475006	0.875
6913	36080	2222.086643870375	0.96551724150777
6913	37060	2320.6735	0.25
6913	37253	2320.9735	0.79999999701977
6913	37364	2321.173801378723	0.9375
6913	38786	2420.6753	0.25
6913	38977	2420.9753	0.77777777612209
6913	39304	2421.580461651012	0.79999999701977
6913	39449	2422.185646143031	0.83870968222618
6913	39508	2422.592890723668	0.90909090638161
6913	39547	2422.99556682458	0.91666666418314
6913	39568	2423.60596578436	0.87179486453533
6913	39576	2424.212928324607	0.87179486453533
6913	40641	2521.1807	0.21428573131561
6913	40786	2521.4807	0.89473684132099
6913	40898	2521.785296765476	0.90909090638161
6913	41031	2522.295107307621	0.84000000357628
6913	41077	2522.496655359662	0.96296296268702
6913	41132	2522.806617268766	0.9375
6913	41178	2523.220093140898	0.90909090638161
6913	41210	2523.521921922045	0.9411764703691
6913	42247	2620.9833	0
6913	42456	2621.3833	0.78571428358555
6913	42571	2621.590191136139	0.94999999925494
6913	43397	2720.485	0.5
6913	43788	2721.085	0.61538460850716
6913	43971	2721.494167840436	0.84210526943207
6913	44951	2820.2881	0.75
6913	45521	2821.1881	0.33333331346512
6913	45735	2821.789585006348	0.82758620381355
6913	45775	2821.994333030864	0.9666666649282
6913	46552	2920.3922	0.66666665673256
6913	46839	2920.7922	0.66666665673256
6913	47243	2921.592632334428	0.63157895207405
6913	47412	2922.29621778866	0.79310344159603
6913	48104	3020.3952	0.66666665673256
6913	48236	3020.5952	0.88888888806105
6913	48384	3020.79957751295	0.91666666418314
6913	48728	3021.605326903778	0.65000000596046
6913	49885	3120.5975	0.375
6913	50184	3121.004117177582	0.66666665673256
6913	50459	3121.607047271995	0.76190476119518
6913	50612	3122.115043018782	0.85714285075665
6914	212	20.2001	0.2
6914	647	21.0001	0.8
6914	768	21.300404742688	0.3
6914	1459	120.1044	0.1
6914	2018	120.8044	0.7
6914	2204	121.110776405183	0.3
6914	3341	220.4073	0.4
6914	3840	221.2073	0.8
6914	4002	221.609520273083	0.4
6914	4110	222.014558968192	0.4
6914	4810	320.3114	0.3
6914	5012	320.6114	0.3
6914	5232	320.91352446053	0.3
6914	6152	420.2129	0.2
6914	6336	420.413557119296	0.2
6914	7053	421.716464521648	1.3
6914	7749	520.1172	0.1
6914	8040	520.420777637401	0.3
6914	8433	520.920848473528	0.5
6914	9612	620.419	0.4
6914	9825	620.719	0.3
6914	10067	621.119503978901	0.4
6914	10204	621.328634400812	0.2
6914	11508	720.9228	0.9
6914	11720	721.4228	0.5
6914	11825	721.726739182092	0.3
6914	11945	722.230222809053	0.5
6914	11990	722.636592849962	0.4
6914	12023	723.038438982449	0.4
6914	12064	723.444739412395	0.4
6914	12099	723.846265923164	0.4
6914	12127	724.258120394064	0.4
6914	12438	820.0279	0
6914	12968	820.730154276792	0.7
6914	13221	821.138029877651	0.4
6914	13512	821.844933133284	0.7
6914	14604	920.8297	0.8
6914	14857	921.3297	0.5
6914	15070	922.030488744899	0.7
6914	15121	922.43405807532	0.4
6914	15641	1020.1336	0.1
6914	15980	1020.5336	0.4
6914	16234	1020.842601158439	0.3
6914	16413	1021.151529783473	0.3
6914	17472	1120.3349	0.3
6914	18204	1121.4349	1.1
6914	18353	1121.839598729242	0.4
6914	18385	1122.050958865525	0.2
6914	18420	1122.657410927696	0.6
6914	19261	1220.7403	0.7
6914	19500	1221.1403	0.4
6914	19753	1221.649578910918	0.5
6914	19871	1222.05688234746	0.4
6914	20875	1320.6427	0.6
6914	21218	1321.2427	0.6
6914	22154	1420.5443	0.5
6914	22698	1421.4443	0.9
6914	22820	1421.746970712217	0.3
6914	22952	1422.248610115596	0.5
6914	23033	1422.850203669026	0.6
6914	23077	1423.355502606184	0.5
6914	23110	1423.765009884352	0.4
6914	23153	1424.372095999151	0.6
6914	23173	1424.679651667202	0.3
6914	23745	1520.2495	0.2
6914	23903	1520.454381520599	0.2
6914	24460	1521.263594483057	0.8
6914	25010	1620.0507	0
6914	25271	1620.254372722121	0.2
6914	25430	1620.456788404561	0.2
6914	25926	1621.262055532804	0.8
6914	26017	1621.466491782977	0.2
6914	26198	1622.17232528279	0.7
6914	26996	1720.4552	0.4
6914	27170	1720.65831765725	0.2
6914	27291	1720.867087592081	0.2
6914	27459	1721.167951015398	0.3
6914	27607	1721.474047957126	0.3
6914	28692	1820.2567	0.2
6914	29067	1820.764266365074	0.5
6914	29263	1821.078905461447	0.3
6914	29399	1821.282214767672	0.2
6914	30037	1920.0599	0
6914	30627	1920.6599	0.6
6914	30913	1921.06284270137	0.4
6914	31048	1921.369782168111	0.3
6914	31560	2020.0633	0
6914	32107	2020.6633	0.6
6914	33768	2120.8652	0.8
6914	34244	2121.7652	0.9
6914	34315	2121.967401345637	0.2
6914	34416	2122.47105612859	0.5
6914	34488	2122.972503035279	0.5
6914	34553	2123.480554807862	0.5
6914	34598	2123.984147085627	0.5
6914	35486	2220.771	0.7
6914	35867	2221.471	0.7
6914	36016	2221.877449475006	0.4
6914	36080	2222.086643870375	0.2
6914	37060	2320.6735	0.6
6914	37253	2320.9735	0.3
6914	37364	2321.173801378723	0.2
6914	38786	2420.6753	0.6
6914	38977	2420.9753	0.3
6914	39304	2421.580461651012	0.6
6914	39449	2422.185646143031	0.6
6914	39508	2422.592890723668	0.4
6914	39547	2422.99556682458	0.4
6914	39568	2423.60596578436	0.6
6914	39576	2424.212928324607	0.6
6914	40641	2521.1807	1.1
6914	40786	2521.4807	0.3
6914	40898	2521.785296765476	0.3
6914	41031	2522.295107307621	0.5
6914	41077	2522.496655359662	0.2
6914	41132	2522.806617268766	0.3
6914	41178	2523.220093140898	0.4
6914	41210	2523.521921922045	0.3
6914	42247	2620.9833	0.9
6914	42456	2621.3833	0.4
6914	42571	2621.590191136139	0.2
6914	43397	2720.485	0.4
6914	43788	2721.085	0.6
6914	43971	2721.494167840436	0.4
6914	44951	2820.2881	0.2
6914	45521	2821.1881	0.9
6914	45735	2821.789585006348	0.6
6914	45775	2821.994333030864	0.2
6914	46552	2920.3922	0.3
6914	46839	2920.7922	0.4
6914	47243	2921.592632334428	0.8
6914	47412	2922.29621778866	0.7
6914	48104	3020.3952	0.3
6914	48236	3020.5952	0.2
6914	48384	3020.79957751295	0.2
6914	48728	3021.605326903778	0.8
6914	49885	3120.5975	0.5
6914	50184	3121.004117177582	0.4
6914	50459	3121.607047271995	0.6
6914	50612	3122.115043018782	0.5
6915	143	20.1002	1
6915	406	20.5002	3
6915	576	20.804266384295	2
6915	708	21.106879275969	2
6915	799	21.313950139288	1
6915	1466	120.1046	1
6915	2023	120.8046	6
6915	2289	121.314473574113	4
6915	2478	122.017737234826	6
6915	3360	220.4083	4
6915	3932	221.4083	9
6915	4042	221.71699901434	2
6915	4117	222.021530522872	2
6915	5315	321.1115	11
6915	5440	321.4115	2
6915	5520	321.619137780534	1
6915	5580	321.926641908451	2
6915	6092	420.1148	1
6915	6937	421.4148	12
6915	7061	421.721393298022	2
6915	7845	520.2173	2
6915	8481	521.0173	7
6915	8658	521.325978999133	2
6915	8854	521.83423062245	4
6915	9391	620.1205	1
6915	10223	621.4205	12
6915	10893	720.1229	1
6915	11448	720.8229	6
6915	11564	721.02293569744	1
6915	11800	721.627921336064	5
6915	11878	721.837510935018	1
6915	12813	820.5267	5
6915	13151	821.035372432587	4
6915	13535	821.937277403706	8
6915	13958	920.0299	0
6915	14608	920.8299	7
6915	14774	921.13019345391	2
6915	14926	921.43724460923	2
6915	16054	1020.6322	6
6915	16475	1021.3322	6
6915	17483	1120.3352	3
6915	17817	1120.7387204794	3
6915	18172	1121.34147347697	5
6915	18316	1121.647992741604	2
6915	19186	1220.6391	6
6915	19375	1220.9391	2
6915	19516	1221.144316694185	1
6915	19843	1221.953878953724	7
6915	20462	1320.1426	1
6915	20946	1320.7426	5
6915	21274	1321.352231225084	5
6915	22510	1421.0449	10
6915	22774	1421.6449	5
6915	22886	1421.947103474058	2
6915	22954	1422.249845602588	2
6915	23012	1422.658112020279	3
6915	23055	1423.066922428627	3
6915	23095	1423.472097139223	3
6915	23739	1520.2493	2
6915	24378	1521.1493	8
6915	24481	1521.35767703698	1
6915	24579	1521.564649986654	1
6915	25322	1620.3515	3
6915	25669	1620.8515	4
6915	25900	1621.253177473743	3
6915	26708	1720.1532	1
6915	27693	1721.7532	15
6915	27794	1722.061527853961	2
6915	27885	1722.370167443676	2
6915	27972	1722.679260985835	2
6915	28046	1723.088364299135	3
6915	28089	1723.393119265527	2
6915	28141	1723.896160769498	4
6915	28990	1820.6586	6
6915	29296	1821.1586	4
6915	29452	1821.462071952714	2
6915	29602	1821.971331565227	4
6915	29700	1822.479989157836	4
6915	30222	1920.1613	1
6915	30357	1920.358574233302	3
6915	30791	1920.8613	6
6915	30932	1921.072961042939	6
6915	31100	1921.563156832522	6
6915	31698	2020.1628	1
6915	32099	2020.6628	4
6915	32488	2021.268964667615	5
6915	32603	2021.57560734952	2
6915	32706	2021.977257639441	3
6915	33267	2120.167	1
6915	33652	2120.667	4
6915	33929	2121.07018651366	3
6915	34183	2121.574643462728	4
6915	35197	2220.3692	3
6915	35525	2220.8692	4
6915	35680	2221.078654196773	1
6915	36968	2320.5718	5
6915	37236	2320.9718	3
6915	37381	2321.17845044273	1
6915	37629	2321.880269309739	6
6915	37747	2322.38839479825	4
6915	38561	2420.3766	3
6915	39217	2421.3766	9
6915	39306	2421.580558453617	1
6915	39374	2421.788212573463	1
6915	39427	2421.997757870396	1
6915	39492	2422.405991808163	3
6915	39525	2422.709152250523	2
6915	39882	2520.0802	0
6915	40203	2520.4802	3
6915	40669	2521.190144424463	6
6915	41665	2620.1813	1
6915	42091	2620.7813	5
6915	42460	2621.385677927307	5
6915	42698	2622.088519098573	6
6915	43138	2720.1862	1
6915	43551	2720.6862	4
6915	43706	2720.89403998416	1
6915	43983	2721.500407220796	5
6915	44141	2722.109127563999	5
6915	44228	2722.521572996611	3
6915	44306	2723.022925148471	4
6915	45328	2820.7892	7
6915	45533	2821.1892	3
6915	46501	2920.3906	3
6915	46897	2920.8906	4
6915	47041	2921.098377891207	1
6915	47296	2921.704715252728	5
6915	47814	3020.0944	0
6915	48292	3020.6944	5
6915	48571	3021.201021480963	4
6915	48739	3021.609562644436	3
6915	49816	3120.4976	4
6915	50123	3120.901876413419	3
6915	50423	3121.505360827883	5
6916	143	20.1002	0.875
6916	406	20.5002	0.625
6916	576	20.804266384295	0.79999999701977
6916	708	21.106879275969	0.875
6916	799	21.313950139288	0.9545454531908
6916	1466	120.1046	0.875
6916	2023	120.8046	0.5
6916	2289	121.314473574113	0.80952380597591
6916	2478	122.017737234826	0.78571428358555
6916	3360	220.4083	0.5
6916	3932	221.4083	0.5
6916	4042	221.71699901434	0.91304347664118
6916	4117	222.021530522872	0.93103448301554
6916	5315	321.1115	0.15384614467621
6916	5440	321.4115	0.89473684132099
6916	5520	321.619137780534	0.96153846010566
6916	5580	321.926641908451	0.93548387289047
6916	6092	420.1148	0.875
6916	6937	421.4148	0.36842107772827
6916	7061	421.721393298022	0.92000000178814
6916	7845	520.2173	0.75
6916	8481	521.0173	0.5
6916	8658	521.325978999133	0.88888888806105
6916	8854	521.83423062245	0.84615384042263
6916	9391	620.1205	0.875
6916	10223	621.4205	0.36842107772827
6916	10893	720.1229	0.875
6916	11448	720.8229	0.39999997615814
6916	11564	721.02293569744	0.9333333298564
6916	11800	721.627921336064	0.77272726595402
6916	11878	721.837510935018	0.96000000089407
6916	12813	820.5267	0.44444441795349
6916	13151	821.035372432587	0.69230768084526
6916	13535	821.937277403706	0.70370370149612
6916	13958	920.0299	1
6916	14608	920.8299	0.30000001192093
6916	14774	921.13019345391	0.83333332836628
6916	14926	921.43724460923	0.89473684132099
6916	16054	1020.6322	0.25
6916	16475	1021.3322	0.66666665673256
6916	17483	1120.3352	0.625
6916	17817	1120.7387204794	0.625
6916	18172	1121.34147347697	0.64285713434219
6916	18316	1121.647992741604	0.92000000178814
6916	19186	1220.6391	0.25
6916	19375	1220.9391	0.77777777612209
6916	19516	1221.144316694185	0.90909090638161
6916	19843	1221.953878953724	0.76666666567326
6916	20462	1320.1426	0.875
6916	20946	1320.7426	0.375
6916	21274	1321.352231225084	0.77272726595402
6916	22510	1421.0449	0.33333331346512
6916	22774	1421.6449	0.77272726595402
6916	22886	1421.947103474058	0.92307692021132
6916	22954	1422.249845602588	0.93548387289047
6916	23012	1422.658112020279	0.91176470369101
6916	23055	1423.066922428627	0.9142857119441
6916	23095	1423.472097139223	0.9142857119441
6916	23739	1520.2493	0.75
6916	24378	1521.1493	0.5
6916	24481	1521.35767703698	0.9473684206605
6916	24579	1521.564649986654	0.95833333209157
6916	25322	1620.3515	0.625
6916	25669	1620.8515	0.5
6916	25900	1621.253177473743	0.69999998807907
6916	26708	1720.1532	0.875
6916	27693	1721.7532	0.16666668653488
6916	27794	1722.061527853961	0.91304347664118
6916	27885	1722.370167443676	0.91666666418314
6916	27972	1722.679260985835	0.92857142537832
6916	28046	1723.088364299135	0.89999999850988
6916	28089	1723.393119265527	0.93939393758774
6916	28141	1723.896160769498	0.88571428507566
6916	28990	1820.6586	0.33333331346512
6916	29296	1821.1586	0.69230768084526
6916	29452	1821.462071952714	0.89473684132099
6916	29602	1821.971331565227	0.85185185074806
6916	29700	1822.479989157836	0.87096774578094
6916	30222	1920.1613	0.875
6916	30357	1920.358574233302	0.625
6916	30791	1920.8613	0.25
6916	30932	1921.072961042939	0.59999999403954
6916	31100	1921.563156832522	0.75
6916	31698	2020.1628	0.875
6916	32099	2020.6628	0.5
6916	32488	2021.268964667615	0.70588234066963
6916	32603	2021.57560734952	0.90909090638161
6916	32706	2021.977257639441	0.88461538404226
6916	33267	2120.167	0.875
6916	33652	2120.667	0.5
6916	33929	2121.07018651366	0.75
6916	34183	2121.574643462728	0.7647058814764
6916	35197	2220.3692	0.66666665673256
6916	35525	2220.8692	0.59999999403954
6916	35680	2221.078654196773	0.91666666418314
6916	36968	2320.5718	0.375
6916	37236	2320.9718	0.69999998807907
6916	37381	2321.17845044273	0.9411764703691
6916	37629	2321.880269309739	0.73913043737411
6916	37747	2322.38839479825	0.86206896603107
6916	38561	2420.3766	0.625
6916	39217	2421.3766	0.55000001192093
6916	39306	2421.580558453617	0.96000000089407
6916	39374	2421.788212573463	0.96296296268702
6916	39427	2421.997757870396	0.96774193644524
6916	39492	2422.405991808163	0.90909090638161
6916	39525	2422.709152250523	0.9411764703691
6916	39882	2520.0802	1
6916	40203	2520.4802	0.66666665673256
6916	40669	2521.190144424463	0.5714285671711
6916	41665	2620.1813	0.875
6916	42091	2620.7813	0.375
6916	42460	2621.385677927307	0.64285713434219
6916	42698	2622.088519098573	0.8125
6916	43138	2720.1862	0.875
6916	43551	2720.6862	0.55555555224419
6916	43706	2720.89403998416	0.90909090638161
6916	43983	2721.500407220796	0.75
6916	44141	2722.109127563999	0.80769230425358
6916	44228	2722.521572996611	0.89285714179277
6916	44306	2723.022925148471	0.87096774578094
6916	45328	2820.7892	0.36363637447357
6916	45533	2821.1892	0.75
6916	46501	2920.3906	0.66666665673256
6916	46897	2920.8906	0.59999999403954
6916	47041	2921.098377891207	0.90909090638161
6916	47296	2921.704715252728	0.76190476119518
6916	47814	3020.0944	1
6916	48292	3020.6944	0.5
6916	48571	3021.201021480963	0.73333331942558
6916	48739	3021.609562644436	0.85714285075665
6916	49816	3120.4976	0.5
6916	50123	3120.901876413419	0.66666665673256
6916	50423	3121.505360827883	0.7368420958519
6917	143	20.1002	0.1
6917	406	20.5002	0.4
6917	576	20.804266384295	0.3
6917	708	21.106879275969	0.3
6917	799	21.313950139288	0.2
6917	1466	120.1046	0.1
6917	2023	120.8046	0.7
6917	2289	121.314473574113	0.5
6917	2478	122.017737234826	0.7
6917	3360	220.4083	0.4
6917	3932	221.4083	1
6917	4042	221.71699901434	0.3
6917	4117	222.021530522872	0.3
6917	5315	321.1115	1.1
6917	5440	321.4115	0.3
6917	5520	321.619137780534	0.2
6917	5580	321.926641908451	0.3
6917	6092	420.1148	0.1
6917	6937	421.4148	1.3
6917	7061	421.721393298022	0.3
6917	7845	520.2173	0.2
6917	8481	521.0173	0.8
6917	8658	521.325978999133	0.3
6917	8854	521.83423062245	0.5
6917	9391	620.1205	0.1
6917	10223	621.4205	1.3
6917	10893	720.1229	0.1
6917	11448	720.8229	0.7
6917	11564	721.02293569744	0.2
6917	11800	721.627921336064	0.6
6917	11878	721.837510935018	0.2
6917	12813	820.5267	0.5
6917	13151	821.035372432587	0.5
6917	13535	821.937277403706	0.9
6917	13958	920.0299	0
6917	14608	920.8299	0.8
6917	14774	921.13019345391	0.3
6917	14926	921.43724460923	0.3
6917	16054	1020.6322	0.6
6917	16475	1021.3322	0.7
6917	17483	1120.3352	0.3
6917	17817	1120.7387204794	0.4
6917	18172	1121.34147347697	0.6
6917	18316	1121.647992741604	0.3
6917	19186	1220.6391	0.6
6917	19375	1220.9391	0.3
6917	19516	1221.144316694185	0.2
6917	19843	1221.953878953724	0.8
6917	20462	1320.1426	0.1
6917	20946	1320.7426	0.6
6917	21274	1321.352231225084	0.6
6917	22510	1421.0449	1
6917	22774	1421.6449	0.6
6917	22886	1421.947103474058	0.3
6917	22954	1422.249845602588	0.3
6917	23012	1422.658112020279	0.4
6917	23055	1423.066922428627	0.4
6917	23095	1423.472097139223	0.4
6917	23739	1520.2493	0.2
6917	24378	1521.1493	0.9
6917	24481	1521.35767703698	0.2
6917	24579	1521.564649986654	0.2
6917	25322	1620.3515	0.3