version 2
run Stability-4-20130524-20:21:03-3483
attr configname Stability
attr datetime 20130524-20:21:03
attr experiment Stability
attr inifile omnetpp.ini
attr iterationvars $0=1e6
attr iterationvars2 "$0=1e6, $repetition=4"
attr measurement $0=1e6
attr network Network
attr processid 3483
attr repetition 4
attr replication #4
attr resultdir results
attr runnumber 4
attr seedset 4

vector 384  Network.dyn_peer[0]  lookupHopsSig:vector  ETV
vector 385  Network.dyn_peer[0]  lookupStabilitySig:vector  ETV
vector 386  Network.dyn_peer[0]  lookupTimeSig:vector  ETV
vector 387  Network.dyn_peer[1]  lookupHopsSig:vector  ETV
vector 388  Network.dyn_peer[1]  lookupStabilitySig:vector  ETV
vector 389  Network.dyn_peer[1]  lookupTimeSig:vector  ETV
vector 390  Network.dyn_peer[2]  lookupHopsSig:vector  ETV
vector 391  Network.dyn_peer[2]  lookupStabilitySig:vector  ETV
vector 392  Network.dyn_peer[2]  lookupTimeSig:vector  ETV
vector 393  Network.dyn_peer[3]  lookupHopsSig:vector  ETV
vector 394  Network.dyn_peer[3]  lookupStabilitySig:vector  ETV
vector 395  Network.dyn_peer[3]  lookupTimeSig:vector  ETV
vector 396  Network.dyn_peer[4]  lookupHopsSig:vector  ETV
vector 397  Network.dyn_peer[4]  lookupStabilitySig:vector  ETV
vector 398  Network.dyn_peer[4]  lookupTimeSig:vector  ETV
vector 399  Network.dyn_peer[5]  lookupHopsSig:vector  ETV
vector 400  Network.dyn_peer[5]  lookupStabilitySig:vector  ETV
vector 401  Network.dyn_peer[5]  lookupTimeSig:vector  ETV
vector 402  Network.dyn_peer[6]  lookupHopsSig:vector  ETV
vector 403  Network.dyn_peer[6]  lookupStabilitySig:vector  ETV
vector 404  Network.dyn_peer[6]  lookupTimeSig:vector  ETV
vector 405  Network.dyn_peer[7]  lookupHopsSig:vector  ETV
vector 406  Network.dyn_peer[7]  lookupStabilitySig:vector  ETV
vector 407  Network.dyn_peer[7]  lookupTimeSig:vector  ETV
vector 408  Network.dyn_peer[8]  lookupHopsSig:vector  ETV
vector 409  Network.dyn_peer[8]  lookupStabilitySig:vector  ETV
vector 410  Network.dyn_peer[8]  lookupTimeSig:vector  ETV
vector 411  Network.dyn_peer[9]  lookupHopsSig:vector  ETV
vector 412  Network.dyn_peer[9]  lookupStabilitySig:vector  ETV
vector 413  Network.dyn_peer[9]  lookupTimeSig:vector  ETV
vector 414  Network.dyn_peer[10]  lookupHopsSig:vector  ETV
vector 415  Network.dyn_peer[10]  lookupStabilitySig:vector  ETV
vector 416  Network.dyn_peer[10]  lookupTimeSig:vector  ETV
vector 417  Network.dyn_peer[11]  lookupHopsSig:vector  ETV
vector 418  Network.dyn_peer[11]  lookupStabilitySig:vector  ETV
vector 419  Network.dyn_peer[11]  lookupTimeSig:vector  ETV
vector 420  Network.dyn_peer[12]  lookupHopsSig:vector  ETV
vector 421  Network.dyn_peer[12]  lookupStabilitySig:vector  ETV
vector 422  Network.dyn_peer[12]  lookupTimeSig:vector  ETV
vector 423  Network.dyn_peer[13]  lookupHopsSig:vector  ETV
vector 424  Network.dyn_peer[13]  lookupStabilitySig:vector  ETV
vector 425  Network.dyn_peer[13]  lookupTimeSig:vector  ETV
vector 426  Network.dyn_peer[14]  lookupHopsSig:vector  ETV
vector 427  Network.dyn_peer[14]  lookupStabilitySig:vector  ETV
vector 428  Network.dyn_peer[14]  lookupTimeSig:vector  ETV
vector 429  Network.dyn_peer[15]  lookupHopsSig:vector  ETV
vector 430  Network.dyn_peer[15]  lookupStabilitySig:vector  ETV
vector 431  Network.dyn_peer[15]  lookupTimeSig:vector  ETV
vector 432  Network.dyn_peer[16]  lookupHopsSig:vector  ETV
vector 433  Network.dyn_peer[16]  lookupStabilitySig:vector  ETV
vector 434  Network.dyn_peer[16]  lookupTimeSig:vector  ETV
vector 435  Network.dyn_peer[17]  lookupHopsSig:vector  ETV
vector 436  Network.dyn_peer[17]  lookupStabilitySig:vector  ETV
vector 437  Network.dyn_peer[17]  lookupTimeSig:vector  ETV
vector 438  Network.dyn_peer[18]  lookupHopsSig:vector  ETV
vector 439  Network.dyn_peer[18]  lookupStabilitySig:vector  ETV
vector 440  Network.dyn_peer[18]  lookupTimeSig:vector  ETV
vector 441  Network.dyn_peer[19]  lookupHopsSig:vector  ETV
vector 442  Network.dyn_peer[19]  lookupStabilitySig:vector  ETV
vector 443  Network.dyn_peer[19]  lookupTimeSig:vector  ETV
vector 444  Network.dyn_peer[20]  lookupHopsSig:vector  ETV
vector 445  Network.dyn_peer[20]  lookupStabilitySig:vector  ETV
vector 446  Network.dyn_peer[20]  lookupTimeSig:vector  ETV
vector 447  Network.dyn_peer[21]  lookupHopsSig:vector  ETV
vector 448  Network.dyn_peer[21]  lookupStabilitySig:vector  ETV
vector 449  Network.dyn_peer[21]  lookupTimeSig:vector  ETV
vector 450  Network.dyn_peer[22]  lookupHopsSig:vector  ETV
vector 451  Network.dyn_peer[22]  lookupStabilitySig:vector  ETV
vector 452  Network.dyn_peer[22]  lookupTimeSig:vector  ETV
vector 453  Network.dyn_peer[23]  lookupHopsSig:vector  ETV
vector 454  Network.dyn_peer[23]  lookupStabilitySig:vector  ETV
vector 455  Network.dyn_peer[23]  lookupTimeSig:vector  ETV
vector 456  Network.dyn_peer[24]  lookupHopsSig:vector  ETV
vector 457  Network.dyn_peer[24]  lookupStabilitySig:vector  ETV
vector 458  Network.dyn_peer[24]  lookupTimeSig:vector  ETV
vector 459  Network.dyn_peer[25]  lookupHopsSig:vector  ETV
vector 460  Network.dyn_peer[25]  lookupStabilitySig:vector  ETV
vector 461  Network.dyn_peer[25]  lookupTimeSig:vector  ETV
vector 462  Network.dyn_peer[26]  lookupHopsSig:vector  ETV
vector 463  Network.dyn_peer[26]  lookupStabilitySig:vector  ETV
vector 464  Network.dyn_peer[26]  lookupTimeSig:vector  ETV
vector 465  Network.dyn_peer[27]  lookupHopsSig:vector  ETV
vector 466  Network.dyn_peer[27]  lookupStabilitySig:vector  ETV
vector 467  Network.dyn_peer[27]  lookupTimeSig:vector  ETV
vector 468  Network.dyn_peer[28]  lookupHopsSig:vector  ETV
vector 469  Network.dyn_peer[28]  lookupStabilitySig:vector  ETV
vector 470  Network.dyn_peer[28]  lookupTimeSig:vector  ETV
vector 471  Network.dyn_peer[29]  lookupHopsSig:vector  ETV
vector 472  Network.dyn_peer[29]  lookupStabilitySig:vector  ETV
vector 473  Network.dyn_peer[29]  lookupTimeSig:vector  ETV
vector 474  Network.dyn_peer[30]  lookupHopsSig:vector  ETV
vector 475  Network.dyn_peer[30]  lookupStabilitySig:vector  ETV
vector 476  Network.dyn_peer[30]  lookupTimeSig:vector  ETV
vector 477  Network.dyn_peer[31]  lookupHopsSig:vector  ETV
vector 478  Network.dyn_peer[31]  lookupStabilitySig:vector  ETV
vector 479  Network.dyn_peer[31]  lookupTimeSig:vector  ETV
384	42	1020.1	1
384	46	1020.4	2
384	51	1020.707333801654	2
384	56	1021.01576908284	2
384	1347	33020.2	2
384	1352	33020.6	3
384	1358	33020.905995148074	2
384	1364	33021.119035457621	1
384	2669	65020.1	1
384	2672	65020.3	1
384	2676	65020.500625669057	1
384	2681	65020.802963473356	2
384	3971	97020.2	2
384	3974	97020.4	1
384	3978	97020.602866870348	1
384	3983	97020.909582681503	2
384	5288	129020.2	2
384	5292	129020.4086318034	1
384	5297	129020.712068006139	2
384	5302	129020.913692112584	1
384	6590	161020.2	2
384	6594	161020.5	2
384	6598	161020.702861701641	1
384	6604	161020.909080809369	1
384	7892	193020.2	2
384	7896	193020.5	2
384	7903	193020.809037892789	2
384	7907	193021.010361561394	1
384	9192	225020.1	1
384	9195	225020.3	1
384	9199	225020.509444378912	1
384	9203	225020.716294280595	1
384	10519	257020.1	1
384	10522	257020.3	1
384	10527	257020.507876844645	1
384	10531	257020.71350611921	1
384	11874	289020	0
384	11879	289020.215376073	1
384	11885	289020.523192172207	2
384	11890	289020.823831190213	2
384	13196	321020.1	1
384	13200	321020.4	2
384	13205	321020.615304956326	1
384	13210	321020.829283302676	1
384	14512	353020.2	2
384	14518	353020.601123005475	3
384	14526	353020.912347383986	2
384	14530	353021.121597767041	1
384	15855	385020.1	1
384	15858	385020.3	1
384	15864	385020.618350845484	2
384	15868	385020.820521686986	1
384	17221	417020.1	1
384	17224	417020.3	1
384	17228	417020.508115514542	1
384	17232	417020.710051805374	1
384	18550	449020	0
384	18553	449020.2	1
384	18559	449020.410445575621	1
384	18563	449020.613728132543	1
384	19872	481020.1	1
384	19876	481020.4	2
384	19880	481020.603796103438	1
384	19884	481020.804941210841	1
384	21199	513020.1	1
384	21209	513020.426419111978	2
384	21214	513020.727418424464	2
384	21221	513020.947498687223	1
384	22512	545020.1	1
384	22517	545020.400982509597	2
384	22521	545020.608815995905	1
384	22525	545020.816407819307	1
384	23821	577020.2	2
384	23825	577020.408734327263	1
384	23829	577020.613219308177	1
384	23834	577020.82401722424	1
384	25125	609020	0
384	25128	609020.2	1
384	25132	609020.400386584212	1
384	25138	609020.615176711267	1
384	26429	641020	0
384	26432	641020.2	1
384	26436	641020.400536518604	1
384	26441	641020.611128805583	1
384	27731	673020.2	2
384	27735	673020.5	2
384	27739	673020.706795330785	1
384	27745	673020.923831869795	1
384	29065	705020.1	1
384	29069	705020.4	2
384	29074	705020.705545130157	2
384	29078	705020.910677152999	1
384	30402	737020.2	2
384	30406	737020.405385902761	1
384	30411	737020.712240472214	2
384	30415	737020.918630906216	1
384	31759	769020.2	2
384	31762	769020.4	1
384	31766	769020.609320427943	1
384	31770	769020.809684233011	1
384	33083	801020.1	1
384	33087	801020.4	2
384	33092	801020.70600177173	2
384	33097	801020.912625760561	1
384	34413	833020.2	2
384	34417	833020.5	2
384	34422	833020.802617429771	2
384	34426	833021.006920278751	1
384	35744	865020	0
384	35747	865020.2	1
384	35752	865020.403382996292	1
384	35756	865020.607513055954	1
384	37072	897020	0
384	37075	897020.2	1
384	37080	897020.401950867414	1
384	37085	897020.610040175663	1
384	38422	929020.1	1
384	38425	929020.3	1
384	38435	929020.540124741354	1
384	38442	929020.759616345408	1
384	39731	961020.2	2
384	39734	961020.4	1
384	39738	961020.602282506811	1
384	39743	961020.903452841135	2
384	41021	993020.2	2
384	41024	993020.4	1
384	41029	993020.700232885628	2
384	41034	993020.905298681501	1
385	42	1020.1	0.875
385	46	1020.4	0.75
385	51	1020.707333801654	0.75
385	56	1021.01576908284	0.75
385	1347	33020.2	0.75
385	1352	33020.6	0.625
385	1358	33020.905995148074	0.75
385	1364	33021.119035457621	0.875
385	2669	65020.1	0.875
385	2672	65020.3	0.875
385	2676	65020.500625669057	0.875
385	2681	65020.802963473356	0.75
385	3971	97020.2	0.75
385	3974	97020.4	0.875
385	3978	97020.602866870348	0.875
385	3983	97020.909582681503	0.75
385	5288	129020.2	0.75
385	5292	129020.4086318034	0.875
385	5297	129020.712068006139	0.75
385	5302	129020.913692112584	0.875
385	6590	161020.2	0.75
385	6594	161020.5	0.75
385	6598	161020.702861701641	0.875
385	6604	161020.909080809369	0.875
385	7892	193020.2	0.75
385	7896	193020.5	0.75
385	7903	193020.809037892789	0.75
385	7907	193021.010361561394	0.875
385	9192	225020.1	0.875
385	9195	225020.3	0.875
385	9199	225020.509444378912	0.875
385	9203	225020.716294280595	0.875
385	10519	257020.1	0.875
385	10522	257020.3	0.875
385	10527	257020.507876844645	0.875
385	10531	257020.71350611921	0.875
385	11874	289020	1
385	11879	289020.215376073	0.875
385	11885	289020.523192172207	0.75
385	11890	289020.823831190213	0.75
385	13196	321020.1	0.875
385	13200	321020.4	0.75
385	13205	321020.615304956326	0.875
385	13210	321020.829283302676	0.875
385	14512	353020.2	0.75
385	14518	353020.601123005475	0.625
385	14526	353020.912347383986	0.75
385	14530	353021.121597767041	0.875
385	15855	385020.1	0.875
385	15858	385020.3	0.875
385	15864	385020.618350845484	0.75
385	15868	385020.820521686986	0.875
385	17221	417020.1	0.875
385	17224	417020.3	0.875
385	17228	417020.508115514542	0.875
385	17232	417020.710051805374	0.875
385	18550	449020	1
385	18553	449020.2	0.875
385	18559	449020.410445575621	0.875
385	18563	449020.613728132543	0.875
385	19872	481020.1	0.875
385	19876	481020.4	0.75
385	19880	481020.603796103438	0.875
385	19884	481020.804941210841	0.875
385	21199	513020.1	0.875
385	21209	513020.426419111978	0.75
385	21214	513020.727418424464	0.75
385	21221	513020.947498687223	0.875
385	22512	545020.1	0.875
385	22517	545020.400982509597	0.75
385	22521	545020.608815995905	0.875
385	22525	545020.816407819307	0.875
385	23821	577020.2	0.75
385	23825	577020.408734327263	0.875
385	23829	577020.613219308177	0.875
385	23834	577020.82401722424	0.875
385	25125	609020	1
385	25128	609020.2	0.875
385	25132	609020.400386584212	0.875
385	25138	609020.615176711267	0.875
385	26429	641020	1
385	26432	641020.2	0.875
385	26436	641020.400536518604	0.875
385	26441	641020.611128805583	0.875
385	27731	673020.2	0.75
385	27735	673020.5	0.75
385	27739	673020.706795330785	0.875
385	27745	673020.923831869795	0.875
385	29065	705020.1	0.875
385	29069	705020.4	0.75
385	29074	705020.705545130157	0.75
385	29078	705020.910677152999	0.875
385	30402	737020.2	0.75
385	30406	737020.405385902761	0.875
385	30411	737020.712240472214	0.75
385	30415	737020.918630906216	0.875
385	31759	769020.2	0.75
385	31762	769020.4	0.875
385	31766	769020.609320427943	0.875
385	31770	769020.809684233011	0.875
385	33083	801020.1	0.875
385	33087	801020.4	0.75
385	33092	801020.70600177173	0.75
385	33097	801020.912625760561	0.875
385	34413	833020.2	0.75
385	34417	833020.5	0.75
385	34422	833020.802617429771	0.75
385	34426	833021.006920278751	0.875
385	35744	865020	1
385	35747	865020.2	0.875
385	35752	865020.403382996292	0.875
385	35756	865020.607513055954	0.875
385	37072	897020	1
385	37075	897020.2	0.875
385	37080	897020.401950867414	0.875
385	37085	897020.610040175663	0.875
385	38422	929020.1	0.875
385	38425	929020.3	0.875
385	38435	929020.540124741354	0.875
385	38442	929020.759616345408	0.875
385	39731	961020.2	0.75
385	39734	961020.4	0.875
385	39738	961020.602282506811	0.875
385	39743	961020.903452841135	0.75
385	41021	993020.2	0.75
385	41024	993020.4	0.875
385	41029	993020.700232885628	0.75
385	41034	993020.905298681501	0.875
386	42	1020.1	0.1
386	46	1020.4	0.3
386	51	1020.707333801654	0.3
386	56	1021.01576908284	0.3
386	1347	33020.2	0.2
386	1352	33020.6	0.4
386	1358	33020.905995148074	0.3
386	1364	33021.119035457621	0.2
386	2669	65020.1	0.1
386	2672	65020.3	0.2
386	2676	65020.500625669057	0.2
386	2681	65020.802963473356	0.3
386	3971	97020.2	0.2
386	3974	97020.4	0.2
386	3978	97020.602866870348	0.2
386	3983	97020.909582681503	0.3
386	5288	129020.2	0.2
386	5292	129020.4086318034	0.2
386	5297	129020.712068006139	0.3
386	5302	129020.913692112584	0.2
386	6590	161020.2	0.2
386	6594	161020.5	0.3
386	6598	161020.702861701641	0.2
386	6604	161020.909080809369	0.2
386	7892	193020.2	0.2
386	7896	193020.5	0.3
386	7903	193020.809037892789	0.3
386	7907	193021.010361561394	0.2
386	9192	225020.1	0.1
386	9195	225020.3	0.2
386	9199	225020.509444378912	0.2
386	9203	225020.716294280595	0.2
386	10519	257020.1	0.1
386	10522	257020.3	0.2
386	10527	257020.507876844645	0.2
386	10531	257020.71350611921	0.2
386	11874	289020	0
386	11879	289020.215376073	0.2
386	11885	289020.523192172207	0.3
386	11890	289020.823831190213	0.3
386	13196	321020.1	0.1
386	13200	321020.4	0.3
386	13205	321020.615304956326	0.2
386	13210	321020.829283302676	0.2
386	14512	353020.2	0.2
386	14518	353020.601123005475	0.4
386	14526	353020.912347383986	0.3
386	14530	353021.121597767041	0.2
386	15855	385020.1	0.1
386	15858	385020.3	0.2
386	15864	385020.618350845484	0.3
386	15868	385020.820521686986	0.2
386	17221	417020.1	0.1
386	17224	417020.3	0.2
386	17228	417020.508115514542	0.2
386	17232	417020.710051805374	0.2
386	18550	449020	0
386	18553	449020.2	0.2
386	18559	449020.410445575621	0.2
386	18563	449020.613728132543	0.2
386	19872	481020.1	0.1
386	19876	481020.4	0.3
386	19880	481020.603796103438	0.2
386	19884	481020.804941210841	0.2
386	21199	513020.1	0.1
386	21209	513020.426419111978	0.3
386	21214	513020.727418424464	0.3
386	21221	513020.947498687223	0.2
386	22512	545020.1	0.1
386	22517	545020.400982509597	0.3
386	22521	545020.608815995905	0.2
386	22525	545020.816407819307	0.2
386	23821	577020.2	0.2
386	23825	577020.408734327263	0.2
386	23829	577020.613219308177	0.2
386	23834	577020.82401722424	0.2
386	25125	609020	0
386	25128	609020.2	0.2
386	25132	609020.400386584212	0.2
386	25138	609020.615176711267	0.2
386	26429	641020	0
386	26432	641020.2	0.2
386	26436	641020.400536518604	0.2
386	26441	641020.611128805583	0.2
386	27731	673020.2	0.2
386	27735	673020.5	0.3
386	27739	673020.706795330785	0.2
386	27745	673020.923831869795	0.2
386	29065	705020.1	0.1
386	29069	705020.4	0.3
386	29074	705020.705545130157	0.3
386	29078	705020.910677152999	0.2
386	30402	737020.2	0.2
386	30406	737020.405385902761	0.2
386	30411	737020.712240472214	0.3
386	30415	737020.918630906216	0.2
386	31759	769020.2	0.2
386	31762	769020.4	0.2
386	31766	769020.609320427943	0.2
386	31770	769020.809684233011	0.2
386	33083	801020.1	0.1
386	33087	801020.4	0.3
386	33092	801020.70600177173	0.3
386	33097	801020.912625760561	0.2
386	34413	833020.2	0.2
386	34417	833020.5	0.3
386	34422	833020.802617429771	0.3
386	34426	833021.006920278751	0.2
386	35744	865020	0
386	35747	865020.2	0.2
386	35752	865020.403382996292	0.2
386	35756	865020.607513055954	0.2
386	37072	897020	0
386	37075	897020.2	0.2
386	37080	897020.401950867414	0.2
386	37085	897020.610040175663	0.2
386	38422	929020.1	0.1
386	38425	929020.3	0.2
386	38435	929020.540124741354	0.2
386	38442	929020.759616345408	0.2
386	39731	961020.2	0.2
386	39734	961020.4	0.2
386	39738	961020.602282506811	0.2
386	39743	961020.903452841135	0.3
386	41021	993020.2	0.2
386	41024	993020.4	0.2
386	41029	993020.700232885628	0.3
386	41034	993020.905298681501	0.2
387	83	2020.2	2
387	87	2020.5	2
387	91	2020.705279088241	1
387	97	2021.023357868843	2
387	1392	34020.3	3
387	1398	34020.700167176614	3
387	1404	34020.921148705153	1
387	1408	34021.126187714984	1
387	2708	66020.2	2
387	2711	66020.4	1
387	2715	66020.604538292386	1
387	2721	66020.908464588651	2
387	4010	98020.2	2
387	4014	98020.5	2
387	4023	98020.826768600189	2
387	4029	98021.033823756692	1
387	5328	130020.1	1
387	5332	130020.4	2
387	5341	130020.724048674744	2
387	5348	130020.939653164108	1
387	6631	162020.2	2
387	6635	162020.404562433916	1
387	6640	162020.713739847375	2
387	6645	162020.921555751544	1
387	7935	194020.3	3
387	7940	194020.7	3
387	7946	194021.008157597796	2
387	7952	194021.21686925691	1
387	9230	226020.2	2
387	9236	226020.510988915299	2
387	9241	226020.723145904759	1
387	9251	226020.96103328851	1
387	10558	258020.2	2
387	10562	258020.407690113265	1
387	10569	258020.718589496833	2
387	10579	258020.964826590949	1
387	11917	290020.2	2
387	11920	290020.4	1
387	11924	290020.609480483748	1
387	11936	290020.843162953023	1
387	13237	322020.2	2
387	13240	322020.4	1
387	13246	322020.624124063959	1
387	13251	322020.931983416513	2
387	14556	354020.1	1
387	14559	354020.3	1
387	14564	354020.609448668358	2
387	14568	354020.81428958594	1
387	15894	386020.1	1
387	15901	386020.320976547548	1
387	15905	386020.522978849211	1
387	15909	386020.729010197136	1
387	17259	418020.2	2
387	17267	418020.516935342045	2
387	17275	418020.751991276037	1
387	17279	418020.958030568278	1
387	18591	450020.3	3
387	18595	450020.6	2
387	18601	450020.907894859828	2
387	18606	450021.118484175667	1
387	19910	482020.1	1
387	19916	482020.414672665255	2
387	19922	482020.725642677593	2
387	19928	482020.939704920742	1
387	21248	514020.2	2
387	21252	514020.402751145956	1
387	21257	514020.606605613621	1
387	21261	514020.808446158543	1
387	22550	546020	0
387	22553	546020.2	1
387	22559	546020.419035582031	1
387	22564	546020.630516673806	1
387	23860	578020.1	1
387	23864	578020.4	2
387	23869	578020.615122246737	1
387	23874	578020.831405901819	1
387	25164	610020.1	1
387	25169	610020.408059110494	2
387	25175	610020.719760940224	2
387	25180	610020.928145784428	1
387	26468	642020.2	2
387	26471	642020.4	1
387	26475	642020.605233636267	1
387	26480	642020.816329014751	1
387	27772	674020.2	2
387	27776	674020.5	2
387	27783	674020.818838652704	2
387	27789	674021.043968408026	1
387	29105	706020.2	2
387	29108	706020.4	1
387	29119	706020.745535396838	2
387	29131	706020.990271378718	1
387	30442	738020.2	2
387	30446	738020.5	2
387	30451	738020.801331364409	2
387	30459	738021.026164488104	1
387	31796	770020.1	1
387	31799	770020.3	1
387	31803	770020.508431532352	1
387	31807	770020.718350306376	1
387	33123	802020.1	1
387	33128	802020.403150467574	2
387	33132	802020.604564245733	1
387	33137	802020.913455441944	2
387	34453	834020.2	2
387	34456	834020.4	1
387	34460	834020.602413500598	1
387	34466	834020.812311664501	1
387	35783	866020.2	2
387	35787	866020.5	2
387	35793	866020.819048032136	2
387	35798	866021.12716122765	2
387	37112	898020.2	2
387	37115	898020.4	1
387	37119	898020.608336454851	1
387	37124	898020.816905139809	1
387	38468	930020.1	1
387	38471	930020.3	1
387	38475	930020.509052029305	1
387	38479	930020.710631843522	1
387	39768	962020	0
387	39771	962020.2	1
387	39775	962020.405912310492	1
387	39779	962020.610268335295	1
387	41061	994020.2	2
387	41065	994020.5	2
387	41070	994020.703068594731	1
387	41080	994021.026860248411	2
388	83	2020.2	0.75
388	87	2020.5	0.75
388	91	2020.705279088241	0.875
388	97	2021.023357868843	0.75
388	1392	34020.3	0.625
388	1398	34020.700167176614	0.625
388	1404	34020.921148705153	0.875
388	1408	34021.126187714984	0.875
388	2708	66020.2	0.75
388	2711	66020.4	0.875
388	2715	66020.604538292386	0.875
388	2721	66020.908464588651	0.75
388	4010	98020.2	0.75
388	4014	98020.5	0.75
388	4023	98020.826768600189	0.75
388	4029	98021.033823756692	0.875
388	5328	130020.1	0.875
388	5332	130020.4	0.75
388	5341	130020.724048674744	0.75
388	5348	130020.939653164108	0.875
388	6631	162020.2	0.75
388	6635	162020.404562433916	0.875
388	6640	162020.713739847375	0.75
388	6645	162020.921555751544	0.875
388	7935	194020.3	0.625
388	7940	194020.7	0.625
388	7946	194021.008157597796	0.75
388	7952	194021.21686925691	0.875
388	9230	226020.2	0.75
388	9236	226020.510988915299	0.75
388	9241	226020.723145904759	0.875
388	9251	226020.96103328851	0.875
388	10558	258020.2	0.75
388	10562	258020.407690113265	0.875
388	10569	258020.718589496833	0.75
388	10579	258020.964826590949	0.875
388	11917	290020.2	0.75
388	11920	290020.4	0.875
388	11924	290020.609480483748	0.875
388	11936	290020.843162953023	0.875
388	13237	322020.2	0.75
388	13240	322020.4	0.875
388	13246	322020.624124063959	0.875
388	13251	322020.931983416513	0.75
388	14556	354020.1	0.875
388	14559	354020.3	0.875
388	14564	354020.609448668358	0.75
388	14568	354020.81428958594	0.875
388	15894	386020.1	0.875
388	15901	386020.320976547548	0.875
388	15905	386020.522978849211	0.875
388	15909	386020.729010197136	0.875
388	17259	418020.2	0.75
388	17267	418020.516935342045	0.75
388	17275	418020.751991276037	0.875
388	17279	418020.958030568278	0.875
388	18591	450020.3	0.625
388	18595	450020.6	0.75
388	18601	450020.907894859828	0.75
388	18606	450021.118484175667	0.875
388	19910	482020.1	0.875
388	19916	482020.414672665255	0.75
388	19922	482020.725642677593	0.75
388	19928	482020.939704920742	0.875
388	21248	514020.2	0.75
388	21252	514020.402751145956	0.875
388	21257	514020.606605613621	0.875
388	21261	514020.808446158543	0.875
388	22550	546020	1
388	22553	546020.2	0.875
388	22559	546020.419035582031	0.875
388	22564	546020.630516673806	0.875
388	23860	578020.1	0.875
388	23864	578020.4	0.75
388	23869	578020.615122246737	0.875
388	23874	578020.831405901819	0.875
388	25164	610020.1	0.875
388	25169	610020.408059110494	0.75
388	25175	610020.719760940224	0.75
388	25180	610020.928145784428	0.875
388	26468	642020.2	0.75
388	26471	642020.4	0.875
388	26475	642020.605233636267	0.875
388	26480	642020.816329014751	0.875
388	27772	674020.2	0.75
388	27776	674020.5	0.75
388	27783	674020.818838652704	0.75
388	27789	674021.043968408026	0.875
388	29105	706020.2	0.75
388	29108	706020.4	0.875
388	29119	706020.745535396838	0.75
388	29131	706020.990271378718	0.875
388	30442	738020.2	0.75
388	30446	738020.5	0.75
388	30451	738020.801331364409	0.75
388	30459	738021.026164488104	0.875
388	31796	770020.1	0.875
388	31799	770020.3	0.875
388	31803	770020.508431532352	0.875
388	31807	770020.718350306376	0.875
388	33123	802020.1	0.875
388	33128	802020.403150467574	0.75
388	33132	802020.604564245733	0.875
388	33137	802020.913455441944	0.75
388	34453	834020.2	0.75
388	34456	834020.4	0.875
388	34460	834020.602413500598	0.875
388	34466	834020.812311664501	0.875
388	35783	866020.2	0.75
388	35787	866020.5	0.75
388	35793	866020.819048032136	0.75
388	35798	866021.12716122765	0.75
388	37112	898020.2	0.75
388	37115	898020.4	0.875
388	37119	898020.608336454851	0.875
388	37124	898020.816905139809	0.875
388	38468	930020.1	0.875
388	38471	930020.3	0.875
388	38475	930020.509052029305	0.875
388	38479	930020.710631843522	0.875
388	39768	962020	1
388	39771	962020.2	0.875
388	39775	962020.405912310492	0.875
388	39779	962020.610268335295	0.875
388	41061	994020.2	0.75
388	41065	994020.5	0.75
388	41070	994020.703068594731	0.875
388	41080	994021.026860248411	0.75
389	83	2020.2	0.2
389	87	2020.5	0.3
389	91	2020.705279088241	0.2
389	97	2021.023357868843	0.3
389	1392	34020.3	0.3
389	1398	34020.700167176614	0.4
389	1404	34020.921148705153	0.2
389	1408	34021.126187714984	0.2
389	2708	66020.2	0.2
389	2711	66020.4	0.2
389	2715	66020.604538292386	0.2
389	2721	66020.908464588651	0.3
389	4010	98020.2	0.2
389	4014	98020.5	0.3
389	4023	98020.826768600189	0.3
389	4029	98021.033823756692	0.2
389	5328	130020.1	0.1
389	5332	130020.4	0.3
389	5341	130020.724048674744	0.3
389	5348	130020.939653164108	0.2
389	6631	162020.2	0.2
389	6635	162020.404562433916	0.2
389	6640	162020.713739847375	0.3
389	6645	162020.921555751544	0.2
389	7935	194020.3	0.3
389	7940	194020.7	0.4
389	7946	194021.008157597796	0.3
389	7952	194021.21686925691	0.2
389	9230	226020.2	0.2
389	9236	226020.510988915299	0.3
389	9241	226020.723145904759	0.2
389	9251	226020.96103328851	0.2
389	10558	258020.2	0.2
389	10562	258020.407690113265	0.2
389	10569	258020.718589496833	0.3
389	10579	258020.964826590949	0.2
389	11917	290020.2	0.2
389	11920	290020.4	0.2
389	11924	290020.609480483748	0.2
389	11936	290020.843162953023	0.2
389	13237	322020.2	0.2
389	13240	322020.4	0.2
389	13246	322020.624124063959	0.2
389	13251	322020.931983416513	0.3
389	14556	354020.1	0.1
389	14559	354020.3	0.2
389	14564	354020.609448668358	0.3
389	14568	354020.81428958594	0.2
389	15894	386020.1	0.1
389	15901	386020.320976547548	0.2
389	15905	386020.522978849211	0.2
389	15909	386020.729010197136	0.2
389	17259	418020.2	0.2
389	17267	418020.516935342045	0.3
389	17275	418020.751991276037	0.2
389	17279	418020.958030568278	0.2
389	18591	450020.3	0.3
389	18595	450020.6	0.3
389	18601	450020.907894859828	0.3
389	18606	450021.118484175667	0.2
389	19910	482020.1	0.1
389	19916	482020.414672665255	0.3
389	19922	482020.725642677593	0.3
389	19928	482020.939704920742	0.2
389	21248	514020.2	0.2
389	21252	514020.402751145956	0.2
389	21257	514020.606605613621	0.2
389	21261	514020.808446158543	0.2
389	22550	546020	0
389	22553	546020.2	0.2
389	22559	546020.419035582031	0.2
389	22564	546020.630516673806	0.2
389	23860	578020.1	0.1
389	23864	578020.4	0.3
389	23869	578020.615122246737	0.2
389	23874	578020.831405901819	0.2
389	25164	610020.1	0.1
389	25169	610020.408059110494	0.3
389	25175	610020.719760940224	0.3
389	25180	610020.928145784428	0.2
389	26468	642020.2	0.2
389	26471	642020.4	0.2
389	26475	642020.605233636267	0.2
389	26480	642020.816329014751	0.2
389	27772	674020.2	0.2
389	27776	674020.5	0.3
389	27783	674020.818838652704	0.3
389	27789	674021.043968408026	0.2
389	29105	706020.2	0.2
389	29108	706020.4	0.2
389	29119	706020.745535396838	0.3
389	29131	706020.990271378718	0.2
389	30442	738020.2	0.2
389	30446	738020.5	0.3
389	30451	738020.801331364409	0.3
389	30459	738021.026164488104	0.2
389	31796	770020.1	0.1
389	31799	770020.3	0.2
389	31803	770020.508431532352	0.2
389	31807	770020.718350306376	0.2
389	33123	802020.1	0.1
389	33128	802020.403150467574	0.3
389	33132	802020.604564245733	0.2
389	33137	802020.913455441944	0.3
389	34453	834020.2	0.2
389	34456	834020.4	0.2
389	34460	834020.602413500598	0.2
389	34466	834020.812311664501	0.2
389	35783	866020.2	0.2
389	35787	866020.5	0.3
389	35793	866020.819048032136	0.3
389	35798	866021.12716122765	0.3
389	37112	898020.2	0.2
389	37115	898020.4	0.2
389	37119	898020.608336454851	0.2
389	37124	898020.816905139809	0.2
389	38468	930020.1	0.1
389	38471	930020.3	0.2
389	38475	930020.509052029305	0.2
389	38479	930020.710631843522	0.2
389	39768	962020	0
389	39771	962020.2	0.2
389	39775	962020.405912310492	0.2
389	39779	962020.610268335295	0.2
389	41061	994020.2	0.2
389	41065	994020.5	0.3
389	41070	994020.703068594731	0.2
389	41080	994021.026860248411	0.3
390	124	3020.2	2
390	127	3020.4	1
390	134	3020.704049236535	2
390	139	3020.907919097311	1
390	1434	35020.1	1
390	1439	35020.402724714612	2
390	1444	35020.704072171072	2
390	1453	35020.936898046214	1
390	2746	67020	0
390	2752	67020.218406051452	1
390	2758	67020.429943088472	1
390	2762	67020.631271508538	1
390	4056	99020.2	2
390	4060	99020.5	2
390	4064	99020.706970514389	1
390	4068	99020.909886657615	1
390	5375	131020.2	2
390	5379	131020.5	2
390	5385	131020.812361930387	2
390	5393	131021.038959628587	1
390	6672	163020.2	2
390	6677	163020.6	3
390	6682	163020.905856877632	2
390	6686	163021.11185299012	1
390	7979	195020.2	2
390	7982	195020.4	1
390	7987	195020.707002771401	2
390	7991	195020.907464129065	1
390	9278	227020.2	2
390	9281	227020.4	1
390	9285	227020.600723698998	1
390	9292	227020.915472903915	2
390	10605	259020.1	1
390	10610	259020.409562059585	2
390	10615	259020.618428473963	1
390	10621	259020.82858740879	1
390	11962	291020.1	1
390	11965	291020.3	1
390	11971	291020.606898466599	2
390	11976	291020.813283709341	1
390	13277	323020.1	1
390	13281	323020.4	2
390	13286	323020.603159799663	1
390	13291	323020.807446723981	1
390	14595	355020.2	2
390	14600	355020.6	3
390	14608	355020.821683005298	1
390	14614	355021.038677858391	1
390	15936	387020.2	2
390	15939	387020.4	1
390	15943	387020.609726240534	1
390	15952	387020.836820840922	1
390	17305	419020.1	1
390	17310	419020.405652088506	2
390	17314	419020.608365169071	1
390	17318	419020.815451111638	1
390	18632	451020.1	1
390	18636	451020.4	2
390	18641	451020.60900494144	1
390	18645	451020.813790820596	1
390	19954	483020.1	1
390	19957	483020.3	1
390	19962	483020.505309978918	1
390	19968	483020.809084227938	2
390	21288	515020.2	2
390	21292	515020.5	2
390	21298	515020.72139013157	1
390	21302	515020.929436632469	1
390	22590	547020.1	1
390	22594	547020.4	2
390	22599	547020.617196715897	1