version 2
run Stability-85-20130524-20:23:37-3483
attr configname Stability
attr datetime 20130524-20:23:37
attr experiment Stability
attr inifile omnetpp.ini
attr iterationvars $0=1e-2
attr iterationvars2 "$0=1e-2, $repetition=5"
attr measurement $0=1e-2
attr network Network
attr processid 3483
attr repetition 5
attr replication #5
attr resultdir results
attr runnumber 85
attr seedset 85

vector 8169  Network.dyn_peer[3]  lookupHopsSig:vector  ETV
vector 8170  Network.dyn_peer[3]  lookupStabilitySig:vector  ETV
vector 8171  Network.dyn_peer[3]  lookupTimeSig:vector  ETV
vector 8175  Network.dyn_peer[5]  lookupHopsSig:vector  ETV
vector 8176  Network.dyn_peer[5]  lookupStabilitySig:vector  ETV
vector 8177  Network.dyn_peer[5]  lookupTimeSig:vector  ETV
vector 8229  Network.dyn_peer[23]  lookupHopsSig:vector  ETV
vector 8230  Network.dyn_peer[23]  lookupStabilitySig:vector  ETV
vector 8231  Network.dyn_peer[23]  lookupTimeSig:vector  ETV
vector 8247  Network.dyn_peer[29]  lookupHopsSig:vector  ETV
vector 8248  Network.dyn_peer[29]  lookupStabilitySig:vector  ETV
vector 8249  Network.dyn_peer[29]  lookupTimeSig:vector  ETV
vector 8166  Network.dyn_peer[2]  lookupHopsSig:vector  ETV
vector 8167  Network.dyn_peer[2]  lookupStabilitySig:vector  ETV
vector 8168  Network.dyn_peer[2]  lookupTimeSig:vector  ETV
vector 8172  Network.dyn_peer[4]  lookupHopsSig:vector  ETV
vector 8173  Network.dyn_peer[4]  lookupStabilitySig:vector  ETV
vector 8174  Network.dyn_peer[4]  lookupTimeSig:vector  ETV
vector 8178  Network.dyn_peer[6]  lookupHopsSig:vector  ETV
vector 8179  Network.dyn_peer[6]  lookupStabilitySig:vector  ETV
vector 8180  Network.dyn_peer[6]  lookupTimeSig:vector  ETV
vector 8184  Network.dyn_peer[8]  lookupHopsSig:vector  ETV
vector 8185  Network.dyn_peer[8]  lookupStabilitySig:vector  ETV
vector 8186  Network.dyn_peer[8]  lookupTimeSig:vector  ETV
vector 8187  Network.dyn_peer[9]  lookupHopsSig:vector  ETV
vector 8188  Network.dyn_peer[9]  lookupStabilitySig:vector  ETV
vector 8189  Network.dyn_peer[9]  lookupTimeSig:vector  ETV
vector 8202  Network.dyn_peer[14]  lookupHopsSig:vector  ETV
vector 8203  Network.dyn_peer[14]  lookupStabilitySig:vector  ETV
vector 8204  Network.dyn_peer[14]  lookupTimeSig:vector  ETV
vector 8205  Network.dyn_peer[15]  lookupHopsSig:vector  ETV
vector 8206  Network.dyn_peer[15]  lookupStabilitySig:vector  ETV
vector 8207  Network.dyn_peer[15]  lookupTimeSig:vector  ETV
vector 8211  Network.dyn_peer[17]  lookupHopsSig:vector  ETV
vector 8212  Network.dyn_peer[17]  lookupStabilitySig:vector  ETV
vector 8213  Network.dyn_peer[17]  lookupTimeSig:vector  ETV
vector 8238  Network.dyn_peer[26]  lookupHopsSig:vector  ETV
vector 8239  Network.dyn_peer[26]  lookupStabilitySig:vector  ETV
vector 8240  Network.dyn_peer[26]  lookupTimeSig:vector  ETV
vector 8241  Network.dyn_peer[27]  lookupHopsSig:vector  ETV
vector 8242  Network.dyn_peer[27]  lookupStabilitySig:vector  ETV
vector 8243  Network.dyn_peer[27]  lookupTimeSig:vector  ETV
vector 8253  Network.dyn_peer[31]  lookupHopsSig:vector  ETV
vector 8254  Network.dyn_peer[31]  lookupStabilitySig:vector  ETV
vector 8255  Network.dyn_peer[31]  lookupTimeSig:vector  ETV
vector 8160  Network.dyn_peer[0]  lookupHopsSig:vector  ETV
vector 8161  Network.dyn_peer[0]  lookupStabilitySig:vector  ETV
vector 8162  Network.dyn_peer[0]  lookupTimeSig:vector  ETV
vector 8163  Network.dyn_peer[1]  lookupHopsSig:vector  ETV
vector 8164  Network.dyn_peer[1]  lookupStabilitySig:vector  ETV
vector 8165  Network.dyn_peer[1]  lookupTimeSig:vector  ETV
vector 8199  Network.dyn_peer[13]  lookupHopsSig:vector  ETV
vector 8200  Network.dyn_peer[13]  lookupStabilitySig:vector  ETV
vector 8201  Network.dyn_peer[13]  lookupTimeSig:vector  ETV
vector 8223  Network.dyn_peer[21]  lookupHopsSig:vector  ETV
vector 8224  Network.dyn_peer[21]  lookupStabilitySig:vector  ETV
vector 8225  Network.dyn_peer[21]  lookupTimeSig:vector  ETV
vector 8235  Network.dyn_peer[25]  lookupHopsSig:vector  ETV
vector 8236  Network.dyn_peer[25]  lookupStabilitySig:vector  ETV
vector 8237  Network.dyn_peer[25]  lookupTimeSig:vector  ETV
vector 8244  Network.dyn_peer[28]  lookupHopsSig:vector  ETV
vector 8245  Network.dyn_peer[28]  lookupStabilitySig:vector  ETV
vector 8246  Network.dyn_peer[28]  lookupTimeSig:vector  ETV
vector 8196  Network.dyn_peer[12]  lookupHopsSig:vector  ETV
vector 8197  Network.dyn_peer[12]  lookupStabilitySig:vector  ETV
vector 8198  Network.dyn_peer[12]  lookupTimeSig:vector  ETV
vector 8217  Network.dyn_peer[19]  lookupHopsSig:vector  ETV
vector 8218  Network.dyn_peer[19]  lookupStabilitySig:vector  ETV
vector 8219  Network.dyn_peer[19]  lookupTimeSig:vector  ETV
vector 8250  Network.dyn_peer[30]  lookupHopsSig:vector  ETV
vector 8251  Network.dyn_peer[30]  lookupStabilitySig:vector  ETV
vector 8252  Network.dyn_peer[30]  lookupTimeSig:vector  ETV
vector 8181  Network.dyn_peer[7]  lookupHopsSig:vector  ETV
vector 8182  Network.dyn_peer[7]  lookupStabilitySig:vector  ETV
vector 8183  Network.dyn_peer[7]  lookupTimeSig:vector  ETV
vector 8190  Network.dyn_peer[10]  lookupHopsSig:vector  ETV
vector 8191  Network.dyn_peer[10]  lookupStabilitySig:vector  ETV
vector 8192  Network.dyn_peer[10]  lookupTimeSig:vector  ETV
vector 8193  Network.dyn_peer[11]  lookupHopsSig:vector  ETV
vector 8194  Network.dyn_peer[11]  lookupStabilitySig:vector  ETV
vector 8195  Network.dyn_peer[11]  lookupTimeSig:vector  ETV
vector 8208  Network.dyn_peer[16]  lookupHopsSig:vector  ETV
vector 8209  Network.dyn_peer[16]  lookupStabilitySig:vector  ETV
vector 8210  Network.dyn_peer[16]  lookupTimeSig:vector  ETV
vector 8214  Network.dyn_peer[18]  lookupHopsSig:vector  ETV
vector 8215  Network.dyn_peer[18]  lookupStabilitySig:vector  ETV
vector 8216  Network.dyn_peer[18]  lookupTimeSig:vector  ETV
vector 8226  Network.dyn_peer[22]  lookupHopsSig:vector  ETV
vector 8227  Network.dyn_peer[22]  lookupStabilitySig:vector  ETV
vector 8228  Network.dyn_peer[22]  lookupTimeSig:vector  ETV
vector 8232  Network.dyn_peer[24]  lookupHopsSig:vector  ETV
vector 8233  Network.dyn_peer[24]  lookupStabilitySig:vector  ETV
vector 8234  Network.dyn_peer[24]  lookupTimeSig:vector  ETV
vector 8220  Network.dyn_peer[20]  lookupHopsSig:vector  ETV
vector 8221  Network.dyn_peer[20]  lookupStabilitySig:vector  ETV
vector 8222  Network.dyn_peer[20]  lookupTimeSig:vector  ETV
8160	219	20.20001	2
8160	500	20.70001	4
8160	851	21.408866480498	6
8160	1042	22.112002863604	6
8160	2141	220.60052	7
8160	2364	221.10052	4
8160	2454	221.303223043872	1
8160	2574	221.710958845718	3
8160	2646	222.020076044786	2
8160	2674	222.223320755741	1
8160	3819	420.90085	10
8160	3921	421.20085	2
8160	4147	422.004181668972	7
8160	4264	422.611166975737	5
8160	4302	422.815538624852	1
8160	4324	423.025533205941	1
8160	4359	423.430948784488	3
8160	5290	620.50119	6
8160	5574	621.20119	6
8160	5740	621.708776069537	4
8160	5786	622.010461929789	2
8160	5810	622.216894573764	1
8160	6597	820.20147	2
8160	6870	820.80147	5
8160	7130	821.507903350602	6
8160	7887	1020.00168	0
8160	8264	1020.60168	6
8160	8650	1021.608796430655	9
8160	9247	1220.00205	0
8160	9574	1220.50205	4
8160	9687	1220.734545786259	1
8160	9897	1221.236917222164	4
8160	11137	1420.2022	2
8160	11420	1420.614334674158	3
8160	11650	1421.223147394507	5
8160	11787	1421.727900455856	4
8160	12709	1620.20259	2
8160	12952	1620.60259	3
8160	13344	1621.504081200191	8
8160	13450	1622.01796196476	4
8160	14480	1820.50296	6
8160	14817	1821.40296	8
8160	14905	1821.805304023922	3
8160	14946	1822.509823867776	6
8160	14966	1823.217461977453	6
8160	14978	1823.619722317206	3
8160	14988	1823.926934796353	2
8160	14997	1824.435423907123	4
8160	15003	1824.842240555258	3
8160	15010	1825.350184777103	4
8160	15014	1825.551585250204	1
8160	15876	2020.40332	4
8160	16137	2021.00332	5
8160	16319	2021.406300358768	3
8160	17211	2220.00344	0
8160	17605	2220.50344	5
8160	17868	2221.004536300196	4
8160	18991	2420.30371	3
8160	19350	2421.10371	7
8160	19532	2421.813133984724	6
8160	20411	2620.50417	6
8160	20740	2621.30417	7
8160	20861	2621.617367057831	2
8160	20963	2622.124289502304	4
8160	21667	2820.10444	1
8160	21946	2820.60444	4
8160	22278	2821.512855697272	8
8160	23151	3020.10474	1
8160	23287	3020.30474	1
8160	23394	3020.505337655137	1
8160	24588	3220.10485	2
8160	24853	3220.50485	3
8160	25051	3220.91267676246	3
8160	25141	3221.11657511476	1
8160	25283	3221.622079798139	4
8160	26307	3420.50531	5
8160	26504	3420.90531	3
8160	26735	3421.506811889983	5
8160	26800	3421.715588506101	1
8160	27521	3620.00562	0
8160	27681	3620.20562	1
8160	28088	3621.014947318947	7
8160	28213	3621.316127987734	2
8160	29166	3820.1059	1
8160	29600	3821.0059	8
8160	29708	3821.215533018111	1
8160	29834	3821.822306018456	5
8160	29873	3822.033978155141	1
8160	30853	4020.40626	4
8160	31221	4021.212156837313	7
8160	31361	4021.617621459251	3
8160	32212	4220.30652	3
8160	32498	4220.907316772779	5
8160	32732	4221.615121371156	6
8160	33556	4420.20683	2
8160	33795	4420.70683	4
8160	33944	4421.107192302975	3
8160	34038	4421.316681907291	1
8160	34121	4421.622140426929	2
8160	35173	4620.60715	7
8160	35332	4620.909617656693	2
8160	35489	4621.417344941739	4
8160	35586	4622.01789804561	5
8160	36514	4820.50748	6
8160	36840	4821.20748	6
8160	36920	4821.414603382373	1
8160	38018	5020.40768	5
8160	38464	5021.40768	9
8160	38614	5022.111302679177	6
8160	39571	5220.20805	3
8160	39885	5220.90805	6
8160	40065	5221.413368677467	4
8160	40188	5221.920253147904	4
8160	40980	5420.10838	1
8160	41137	5420.40838	2
8160	41248	5420.637152785487	1
8160	41626	5421.550707971889	8
8160	42583	5620.30857	3
8160	42747	5620.60857	2
8160	42948	5621.114825634571	4
8160	43047	5621.426777989013	2
8160	44261	5820.30888	4
8160	44486	5820.80888	4
8160	44575	5821.012627339544	1
8160	45603	6020.2091	2
8160	45785	6020.5091	2
8160	46052	6021.016016522649	4
8160	47250	6220.60941	7
8160	47431	6221.00941	3
8160	47523	6221.216916289721	1
8161	219	20.20001	0.75
8161	500	20.70001	0.5
8161	851	21.408866480498	0.69999998807907
8161	1042	22.112002863604	0.79310344159603
8161	2141	220.60052	0.22222220897675
8161	2364	221.10052	0.69230768084526
8161	2454	221.303223043872	0.9473684206605
8161	2574	221.710958845718	0.86956521868706
8161	2646	222.020076044786	0.92857142537832
8161	2674	222.223320755741	0.96428571268916
8161	3819	420.90085	0
8161	3921	421.20085	0.84615384042263
8161	4147	422.004181668972	0.71999999880791
8161	4264	422.611166975737	0.81481482088566
8161	4302	422.815538624852	0.9666666649282
8161	4324	423.025533205941	0.96774193644524
8161	4359	423.430948784488	0.90625
8161	5290	620.50119	0.25
8161	5574	621.20119	0.5714285671711
8161	5740	621.708776069537	0.84000000357628
8161	5786	622.010461929789	0.93103448301554
8161	5810	622.216894573764	0.9666666649282
8161	6597	820.20147	0.75
8161	6870	820.80147	0.5
8161	7130	821.507903350602	0.71428570151329
8161	7887	1020.00168	1
8161	8264	1020.60168	0.33333331346512
8161	8650	1021.608796430655	0.6785714328289
8161	9247	1220.00205	1
8161	9574	1220.50205	0.5
8161	9687	1220.734545786259	0.88888888806105
8161	9897	1221.236917222164	0.69230768084526
8161	11137	1420.2022	0.75
8161	11420	1420.614334674158	0.69999998807907
8161	11650	1421.223147394507	0.72222220897675
8161	11787	1421.727900455856	0.81818181276321
8161	12709	1620.20259	0.75
8161	12952	1620.60259	0.625
8161	13344	1621.504081200191	0.59999999403954
8161	13450	1622.01796196476	0.86206896603107
8161	14480	1820.50296	0.25
8161	14817	1821.40296	0.63636362552643
8161	14905	1821.805304023922	0.90322580933571
8161	14946	1822.509823867776	0.82352940738201
8161	14966	1823.217461977453	0.82352940738201
8161	14978	1823.619722317206	0.91176470369101
8161	14988	1823.926934796353	0.9411764703691
8161	14997	1824.435423907123	0.88571428507566
8161	15003	1824.842240555258	0.9142857119441
8161	15010	1825.350184777103	0.88571428507566
8161	15014	1825.551585250204	0.97142857126892
8161	15876	2020.40332	0.5
8161	16137	2021.00332	0.5
8161	16319	2021.406300358768	0.8125
8161	17211	2220.00344	1
8161	17605	2220.50344	0.375
8161	17868	2221.004536300196	0.71428570151329
8161	18991	2420.30371	0.625
8161	19350	2421.10371	0.53333333134651
8161	19532	2421.813133984724	0.79999999701977
8161	20411	2620.50417	0.25
8161	20740	2621.30417	0.5625
8161	20861	2621.617367057831	0.90476190298796
8161	20963	2622.124289502304	0.85185185074806
8161	21667	2820.10444	0.875
8161	21946	2820.60444	0.5
8161	22278	2821.512855697272	0.70370370149612
8161	23151	3020.10474	0.875
8161	23287	3020.30474	0.875
8161	23394	3020.505337655137	0.875
8161	24588	3220.10485	0.75
8161	24853	3220.50485	0.625
8161	25051	3220.91267676246	0.76923076808453
8161	25141	3221.11657511476	0.9333333298564
8161	25283	3221.622079798139	0.83333332836628
8161	26307	3420.50531	0.375
8161	26504	3420.90531	0.72727271914482
8161	26735	3421.506811889983	0.76190476119518
8161	26800	3421.715588506101	0.96000000089407
8161	27521	3620.00562	1
8161	27681	3620.20562	0.875
8161	28088	3621.014947318947	0.41666668653488
8161	28213	3621.316127987734	0.91304347664118
8161	29166	3820.1059	0.875
8161	29600	3821.0059	0.33333331346512
8161	29708	3821.215533018111	0.94444444403052
8161	29834	3821.822306018456	0.81481482088566
8161	29873	3822.033978155141	0.96551724150777
8161	30853	4020.40626	0.5
8161	31221	4021.212156837313	0.41666668653488
8161	31361	4021.617621459251	0.88000000268221
8161	32212	4220.30652	0.625
8161	32498	4220.907316772779	0.58333334326744
8161	32732	4221.615121371156	0.76923076808453
8161	33556	4420.20683	0.75
8161	33795	4420.70683	0.55555555224419
8161	33944	4421.107192302975	0.72727271914482
8161	34038	4421.316681907291	0.95238095149398
8161	34121	4421.622140426929	0.92592592537403
8161	35173	4620.60715	0.125
8161	35332	4620.909617656693	0.81818181276321
8161	35489	4621.417344941739	0.82608695328236
8161	35586	4622.01789804561	0.83870968222618
8161	36514	4820.50748	0.25
8161	36840	4821.20748	0.625
8161	36920	4821.414603382373	0.95238095149398
8161	38018	5020.40768	0.375
8161	38464	5021.40768	0.59090909361839
8161	38614	5022.111302679177	0.78571428358555
8161	39571	5220.20805	0.625
8161	39885	5220.90805	0.53846153616905
8161	40065	5221.413368677467	0.81818181276321
8161	40188	5221.920253147904	0.87096774578094
8161	40980	5420.10838	0.875
8161	41137	5420.40838	0.75
8161	41248	5420.637152785487	0.875
8161	41626	5421.550707971889	0.59999999403954
8161	42583	5620.30857	0.625
8161	42747	5620.60857	0.77777777612209
8161	42948	5621.114825634571	0.73333331942558
8161	43047	5621.426777989013	0.90476190298796
8161	44261	5820.30888	0.5
8161	44486	5820.80888	0.63636362552643
8161	44575	5821.012627339544	0.91666666418314
8161	45603	6020.2091	0.75
8161	45785	6020.5091	0.75
8161	46052	6021.016016522649	0.71428570151329
8161	47250	6220.60941	0.125
8161	47431	6221.00941	0.75
8161	47523	6221.216916289721	0.9375
8162	219	20.20001	0.2
8162	500	20.70001	0.5
8162	851	21.408866480498	0.7
8162	1042	22.112002863604	0.7
8162	2141	220.60052	0.6
8162	2364	221.10052	0.5
8162	2454	221.303223043872	0.2
8162	2574	221.710958845718	0.4
8162	2646	222.020076044786	0.3
8162	2674	222.223320755741	0.2
8162	3819	420.90085	0.9
8162	3921	421.20085	0.3
8162	4147	422.004181668972	0.8
8162	4264	422.611166975737	0.6
8162	4302	422.815538624852	0.2
8162	4324	423.025533205941	0.2
8162	4359	423.430948784488	0.4
8162	5290	620.50119	0.5
8162	5574	621.20119	0.7
8162	5740	621.708776069537	0.5
8162	5786	622.010461929789	0.3
8162	5810	622.216894573764	0.2
8162	6597	820.20147	0.2
8162	6870	820.80147	0.6
8162	7130	821.507903350602	0.7
8162	7887	1020.00168	0
8162	8264	1020.60168	0.6
8162	8650	1021.608796430655	1
8162	9247	1220.00205	0
8162	9574	1220.50205	0.5
8162	9687	1220.734545786259	0.2
8162	9897	1221.236917222164	0.5
8162	11137	1420.2022	0.2
8162	11420	1420.614334674158	0.4
8162	11650	1421.223147394507	0.6
8162	11787	1421.727900455856	0.5
8162	12709	1620.20259	0.2
8162	12952	1620.60259	0.4
8162	13344	1621.504081200191	0.9
8162	13450	1622.01796196476	0.5
8162	14480	1820.50296	0.5
8162	14817	1821.40296	0.9
8162	14905	1821.805304023922	0.4
8162	14946	1822.509823867776	0.7
8162	14966	1823.217461977453	0.7
8162	14978	1823.619722317206	0.4
8162	14988	1823.926934796353	0.3
8162	14997	1824.435423907123	0.5
8162	15003	1824.842240555258	0.4
8162	15010	1825.350184777103	0.5
8162	15014	1825.551585250204	0.2
8162	15876	2020.40332	0.4
8162	16137	2021.00332	0.6
8162	16319	2021.406300358768	0.4
8162	17211	2220.00344	0
8162	17605	2220.50344	0.5
8162	17868	2221.004536300196	0.5
8162	18991	2420.30371	0.3
8162	19350	2421.10371	0.8
8162	19532	2421.813133984724	0.7
8162	20411	2620.50417	0.5
8162	20740	2621.30417	0.8
8162	20861	2621.617367057831	0.3
8162	20963	2622.124289502304	0.5
8162	21667	2820.10444	0.1
8162	21946	2820.60444	0.5
8162	22278	2821.512855697272	0.9
8162	23151	3020.10474	0.1
8162	23287	3020.30474	0.2
8162	23394	3020.505337655137	0.2
8162	24588	3220.10485	0.1
8162	24853	3220.50485	0.4
8162	25051	3220.91267676246	0.4
8162	25141	3221.11657511476	0.2
8162	25283	3221.622079798139	0.5
8162	26307	3420.50531	0.5
8162	26504	3420.90531	0.4
8162	26735	3421.506811889983	0.6
8162	26800	3421.715588506101	0.2
8162	27521	3620.00562	0
8162	27681	3620.20562	0.2
8162	28088	3621.014947318947	0.8
8162	28213	3621.316127987734	0.3
8162	29166	3820.1059	0.1
8162	29600	3821.0059	0.9
8162	29708	3821.215533018111	0.2
8162	29834	3821.822306018456	0.6
8162	29873	3822.033978155141	0.2
8162	30853	4020.40626	0.4
8162	31221	4021.212156837313	0.8
8162	31361	4021.617621459251	0.4
8162	32212	4220.30652	0.3
8162	32498	4220.907316772779	0.6
8162	32732	4221.615121371156	0.7
8162	33556	4420.20683	0.2
8162	33795	4420.70683	0.5
8162	33944	4421.107192302975	0.4
8162	34038	4421.316681907291	0.2
8162	34121	4421.622140426929	0.3
8162	35173	4620.60715	0.6
8162	35332	4620.909617656693	0.3
8162	35489	4621.417344941739	0.5
8162	35586	4622.01789804561	0.6
8162	36514	4820.50748	0.5
8162	36840	4821.20748	0.7
8162	36920	4821.414603382373	0.2
8162	38018	5020.40768	0.4
8162	38464	5021.40768	1
8162	38614	5022.111302679177	0.7
8162	39571	5220.20805	0.2
8162	39885	5220.90805	0.7
8162	40065	5221.413368677467	0.5
8162	40188	5221.920253147904	0.5
8162	40980	5420.10838	0.1
8162	41137	5420.40838	0.3
8162	41248	5420.637152785487	0.2
8162	41626	5421.550707971889	0.9
8162	42583	5620.30857	0.3
8162	42747	5620.60857	0.3
8162	42948	5621.114825634571	0.5
8162	43047	5621.426777989013	0.3
8162	44261	5820.30888	0.3
8162	44486	5820.80888	0.5
8162	44575	5821.012627339544	0.2
8162	45603	6020.2091	0.2
8162	45785	6020.5091	0.3
8162	46052	6021.016016522649	0.5
8162	47250	6220.60941	0.6
8162	47431	6221.00941	0.4
8162	47523	6221.216916289721	0.2
8163	224	20.20002	2
8163	555	20.80002	5
8163	668	21.002132621669	1
8163	817	21.312176567812	2
8163	1849	220.10041	1
8163	1969	220.30041	1
8163	2254	220.809424405552	4
8163	3447	420.20067	2
8163	3631	420.50067	2
8163	3741	420.701336145759	1
8163	3835	420.906455540435	1
8163	5262	620.50097	6
8163	5453	620.90097	3
8163	5588	621.208461051475	2
8163	5693	621.512980082026	2
8163	5748	621.716202467109	1
8163	5780	621.920240086891	1
8163	5822	622.32994718029	3
8163	6602	820.20148	3
8163	6872	820.80148	5
8163	7038	821.206024259177	3
8163	8105	1020.30162	3
8163	8371	1020.802125583949	4
8163	8588	1021.365594777353	4
8163	8644	1021.580669326239	1
8163	8679	1021.887250565082	2
8163	9263	1220.00209	0
8163	9532	1220.40209	3
8163	9683	1220.723133324262	2
8163	9814	1221.028328743091	2
8163	11322	1420.50218	5
8163	11515	1420.90218	3
8163	11833	1422.009643221533	10
8163	11875	1422.211324281315	1
8163	11899	1422.417986300377	1
8163	11940	1422.825271250804	3
8163	12800	1620.3027	3
8163	12914	1620.505896661237	1
8163	13356	1621.51902455941	9
8163	14418	1820.40287	4
8163	14769	1821.211810039831	7
8163	14853	1821.512447150386	2
8163	14894	1821.712672963975	1
8163	14929	1822.016118693544	2
8163	15869	2020.40329	5
8163	16100	2020.90329	4
8163	16205	2021.110718267146	1
8163	16291	2021.313658614359	1
8163	16402	2021.616679783286	2
8163	17476	2220.30348	4
8163	17706	2220.70348	3
8163	17932	2221.11346104088	3
8163	18038	2221.520836618991	3
8163	18892	2420.10385	1
8163	19006	2420.30385	1
8163	19208	2420.706496539402	3
8163	19331	2421.010016513538	2
8163	20165	2620.10401	1
8163	20614	2621.00401	8
8163	20748	2621.309504865055	2
8163	21643	2820.10433	1
8163	21904	2820.507144064689	3
8163	22039	2820.808606338414	2
8163	22140	2821.016831246681	1
8163	23260	3020.30462	3
8163	23545	3020.90462	5
8163	23630	3021.10875712156	1
8163	24605	3220.10492	1
8163	24733	3220.30492	1
8163	25134	3221.113876726393	7
8163	25238	3221.422823279884	2
8163	26128	3420.20528	2
8163	26271	3420.409913774014	1
8163	26429	3420.722994365122	2
8163	27771	3620.40545	4
8163	27973	3620.80545	3
8163	28123	3621.108000104311	2
8163	29282	3820.3058	3
8163	29523	3820.8058	4
8163	29756	3821.410480518808	5
8163	29844	3821.911810109297	4
8163	29891	3822.215225972505	2
8163	29921	3822.528899210925	2
8163	29936	3822.730866326872	1
8163	30908	4020.50628	6
8163	31159	4021.10628	5
8163	32110	4220.20637	2
8163	32241	4220.40637	1
8163	32380	4220.615534967029	1
8163	32473	4220.817984202917	1
8163	33508	4420.20667	2
8163	33695	4420.50667	2
8163	33963	4421.115892991061	5
8163	34922	4620.20698	3
8163	35107	4620.50698	2
8163	35290	4620.815637157066	2
8163	36252	4820.10725	2
8163	36375	4820.30725	1
8163	36570	4820.608563109763	2
8163	36819	4821.116164206048	4
8163	37944	5020.3076	3
8163	38393	5021.2076	8
8163	38470	5021.410241821603	1
8163	38530	5021.619286291447	1
8163	38598	5021.928180500805	2
8163	38626	5022.130340529904	1
8163	38669	5022.536698186616	3
8163	38692	5022.740150432753	1
8163	38711	5022.949228623291	1
8163	38749	5023.352621790292	3
8163	38776	5023.658618647237	2
8163	39583	5220.20809	2
8163	39758	5220.60809	3
8163	39904	5220.914947210134	2
8163	41051	5420.30821	4
8163	41433	5421.10821	7
8163	41531	5421.311074987107	1
8163	42564	5620.30851	4
8163	42787	5620.70851	3
8163	42958	5621.118066875161	3
8163	43091	5621.622531676669	4
8163	43142	5621.924916821498	2
8163	43200	5622.334096002435	3
8163	44221	5820.20898	2
8163	44530	5820.90898	6
8163	44645	5821.2173147883	2
8163	44748	5821.623598639717	3
8163	45626	6020.20923	2
8163	45991	6020.90923	6
8163	47148	6220.40937	4
8163	47428	6221.00937	5
8163	47514	6221.211304585666	1
8164	224	20.20002	0.75
8164	555	20.80002	0.375
8164	668	21.002132621669	0.90909090638161
8164	817	21.312176567812	0.88888888806105
8164	1849	220.10041	0.875
8164	1969	220.30041	0.875
8164	2254	220.809424405552	0.59999999403954
8164	3447	420.20067	0.75
8164	3631	420.50067	0.75
8164	3741	420.701336145759	0.88888888806105
8164	3835	420.906455540435	0.89999999850988
8164	5262	620.50097	0.25
8164	5453	620.90097	0.75
8164	5588	621.208461051475	0.85714285075665
8164	5693	621.512980082026	0.90476190298796
8164	5748	621.716202467109	0.96000000089407
8164	5780	621.920240086891	0.96551724150777
8164	5822	622.32994718029	0.90322580933571
8164	6602	820.20148	0.625
8164	6872	820.80148	0.5
8164	7038	821.206024259177	0.79999999701977
8164	8105	1020.30162	0.625
8164	8371	1020.802125583949	0.59999999403954
8164	8588	1021.365594777353	0.81818181276321
8164	8644	1021.580669326239	0.96428571268916
8164	8679	1021.887250565082	0.9375
8164	9263	1220.00209	1
8164	9532	1220.40209	0.625
8164	9683	1220.723133324262	0.77777777612209
8164	9814	1221.028328743091	0.81818181276321
8164	11322	1420.50218	0.44444441795349
8164	11515	1420.90218	0.76923076808453
8164	11833	1422.009643221533	0.61538460850716
8164	11875	1422.211324281315	0.96551724150777
8164	11899	1422.417986300377	0.9666666649282
8164	11940	1422.825271250804	0.90909090638161
8164	12800	1620.3027	0.625
8164	12914	1620.505896661237	0.875
8164	13356	1621.51902455941	0.55000001192093
8164	14418	1820.40287	0.5
8164	14769	1821.211810039831	0.63157895207405
8164	14853	1821.512447150386	0.92000000178814
8164	14894	1821.712672963975	0.96551724150777
8164	14929	1822.016118693544	0.9375
8164	15869	2020.40329	0.375
8164	16100	2020.90329	0.59999999403954
8164	16205	2021.110718267146	0.91666666418314
8164	16291	2021.313658614359	0.9333333298564
8164	16402	2021.616679783286	0.90476190298796
8164	17476	2220.30348	0.5
8164	17706	2220.70348	0.625
8164	17932	2221.11346104088	0.83333332836628
8164	18038	2221.520836618991	0.89285714179277
8164	18892	2420.10385	0.875
8164	19006	2420.30385	0.875
8164	19208	2420.706496539402	0.625
8164	19331	2421.010016513538	0.85714285075665
8164	20165	2620.10401	0.875
8164	20614	2621.00401	0.27272725105286
8164	20748	2621.309504865055	0.875
8164	21643	2820.10433	0.875
8164	21904	2820.507144064689	0.625
8164	22039	2820.808606338414	0.79999999701977
8164	22140	2821.016831246681	0.9333333298564
8164	23260	3020.30462	0.625
8164	23545	3020.90462	0.58333334326744
8164	23630	3021.10875712156	0.92307692021132
8164	24605	3220.10492	0.875
8164	24733	3220.30492	0.875
8164	25134	3221.113876726393	0.53333333134651
8164	25238	3221.422823279884	0.90476190298796
8164	26128	3420.20528	0.75
8164	26271	3420.409913774014	0.875
8164	26429	3420.722994365122	0.75
8164	27771	3620.40545	0.5
8164	27973	3620.80545	0.625
8164	28123	3621.108000104311	0.84615384042263
8164	29282	3820.3058	0.625
8164	29523	3820.8058	0.59999999403954
8164	29756	3821.410480518808	0.79166667163372
8164	29844	3821.911810109297	0.85185185074806
8164	29891	3822.215225972505	0.9333333298564
8164	29921	3822.528899210925	0.93548387289047
8164	29936	3822.730866326872	0.96774193644524
8164	30908	4020.50628	0.25
8164	31159	4021.10628	0.44444441795349
8164	32110	4220.20637	0.75
8164	32241	4220.40637	0.875
8164	32380	4220.615534967029	0.88888888806105
8164	32473	4220.817984202917	0.89999999850988
8164	33508	4420.20667	0.75
8164	33695	4420.50667	0.75
8164	33963	4421.115892991061	0.54545453190804
8164	34922	4620.20698	0.625
8164	35107	4620.50698	0.75
8164	35290	4620.815637157066	0.75
8164	36252	4820.10725	0.75
8164	36375	4820.30725	0.875
8164	36570	4820.608563109763	0.75
8164	36819	4821.116164206048	0.69230768084526
8164	37944	5020.3076	0.625
8164	38393	5021.2076	0.5294117629528
8164	38470	5021.410241821603	0.95652173832059
8164	38530	5021.619286291447	0.95833333209157
8164	38598	5021.928180500805	0.92857142537832
8164	38626	5022.130340529904	0.96551724150777
8164	38669	5022.536698186616	0.89999999850988
8164	38692	5022.740150432753	0.96774193644524
8164	38711	5022.949228623291	0.96774193644524
8164	38749	5023.352621790292	0.90322580933571
8164	38776	5023.658618647237	0.9375
8164	39583	5220.20809	0.75
8164	39758	5220.60809	0.625
8164	39904	5220.914947210134	0.85714285075665
8164	41051	5420.30821	0.5
8164	41433	5421.10821	0.30000001192093
8164	41531	5421.311074987107	0.92857142537832
8164	42564	5620.30851	0.5
8164	42787	5620.70851	0.69999998807907
8164	42958	5621.118066875161	0.8125
8164	43091	5621.622531676669	0.84000000357628
8164	43142	5621.924916821498	0.92857142537832
8164	43200	5622.334096002435	0.90322580933571
8164	44221	5820.20898	0.75
8164	44530	5820.90898	0.45454543828964
8164	44645	5821.2173147883	0.8823529407382
8164	44748	5821.623598639717	0.88000000268221
8164	45626	6020.20923	0.75
8164	45991	6020.90923	0.39999997615814
8164	47148	6220.40937	0.5
8164	47428	6221.00937	0.58333334326744
8164	47514	6221.211304585666	0.9333333298564
8165	224	20.20002	0.2
8165	555	20.80002	0.6
8165	668	21.002132621669	0.2
8165	817	21.312176567812	0.3
8165	1849	220.10041	0.1
8165	1969	220.30041	0.2
8165	2254	220.809424405552	0.5
8165	3447	420.20067	0.2
8165	3631	420.50067	0.3
8165	3741	420.701336145759	0.2
8165	3835	420.906455540435	0.2
8165	5262	620.50097	0.5
8165	5453	620.90097	0.4
8165	5588	621.208461051475	0.3
8165	5693	621.512980082026	0.3
8165	5748	621.716202467109	0.2
8165	5780	621.920240086891	0.2
8165	5822	622.32994718029	0.4
8165	6602	820.20148	0.2
8165	6872	820.80148	0.6
8165	7038	821.206024259177	0.4
8165	8105	1020.30162	0.3
8165	8371	1020.802125583949	0.5
8165	8588	1021.365594777353	0.5
8165	8644	1021.580669326239	0.2
8165	8679	1021.887250565082	0.3
8165	9263	1220.00209	0
8165	9532	1220.40209	0.4
8165	9683	1220.723133324262	0.3
8165	9814	1221.028328743091	0.3
8165	11322	1420.50218	0.5
8165	11515	1420.90218	0.4
8165	11833	1422.009643221533	1.1
8165	11875	1422.211324281315	0.2
8165	11899	1422.417986300377	0.2
8165	11940	1422.825271250804	0.4
8165	12800	1620.3027	0.3
8165	12914	1620.505896661237	0.2
8165	13356	1621.51902455941	1
8165	14418	1820.40287	0.4
8165	14769	1821.211810039831	0.8
8165	14853	1821.512447150386	0.3
8165	14894	1821.712672963975	0.2
8165	14929	1822.016118693544	0.3
8165	15869	2020.40329	0.4
8165	16100	2020.90329	0.5
8165	16205	2021.110718267146	0.2
8165	16291	2021.313658614359	0.2
8165	16402	2021.616679783286	0.3
8165	17476	2220.30348	0.3
8165	17706	2220.70348	0.4
8165	17932	2221.11346104088	0.4
8165	18038	2221.520836618991	0.4
8165	18892	2420.10385	0.1
8165	19006	2420.30385	0.2
8165	19208	2420.706496539402	0.4
8165	19331	2421.010016513538	0.3
8165	20165	2620.10401	0.1
8165	20614	2621.00401	0.9
8165	20748	2621.309504865055	0.3
8165	21643	2820.10433	0.1
8165	21904	2820.507144064689	0.4
8165	22039	2820.808606338414	0.3
8165	22140	2821.016831246681	0.2
8165	23260	3020.30462	0.3
8165	23545	3020.90462	0.6
8165	23630	3021.10875712156	0.2
8165	24605	3220.10492	0.1
8165	24733	3220.30492	0.2
8165	25134	3221.113876726393	0.8
8165	25238	3221.422823279884	0.3
8165	26128	3420.20528	0.2
8165	26271	3420.409913774014	0.2
8165	26429	3420.722994365122	0.3
8165	27771	3620.40545	0.4
8165	27973	3620.80545	0.4
8165	28123	3621.108000104311	0.3
8165	29282	3820.3058	0.3
8165	29523	3820.8058	0.5
8165	29756	3821.410480518808	0.6
8165	29844	3821.911810109297	0.5
8165	29891	3822.215225972505	0.3
8165	29921	3822.528899210925	0.3
8165	29936	3822.730866326872	0.2
8165	30908	4020.50628	0.5
8165	31159	4021.10628	0.6
8165	32110	4220.20637	0.2
8165	32241	4220.40637	0.2
8165	32380	4220.615534967029	0.2
8165	32473	4220.817984202917	0.2
8165	33508	4420.20667	0.2
8165	33695	4420.50667	0.3
8165	33963	4421.115892991061	0.6
8165	34922	4620.20698	0.2
8165	35107	4620.50698	0.3
8165	35290	4620.815637157066	0.3
8165	36252	4820.10725	0.1
8165	36375	4820.30725	0.2
8165	36570	4820.608563109763	0.3