version 2
run Stability-55-20130524-20:22:44-3483
attr configname Stability
attr datetime 20130524-20:22:44
attr experiment Stability
attr inifile omnetpp.ini
attr iterationvars $0=1e1
attr iterationvars2 "$0=1e1, $repetition=5"
attr measurement $0=1e1
attr network Network
attr processid 3483
attr repetition 5
attr replication #5
attr resultdir results
attr runnumber 55
attr seedset 55

vector 5283  Network.dyn_peer[1]  lookupHopsSig:vector  ETV
vector 5284  Network.dyn_peer[1]  lookupStabilitySig:vector  ETV
vector 5285  Network.dyn_peer[1]  lookupTimeSig:vector  ETV
vector 5280  Network.dyn_peer[0]  lookupHopsSig:vector  ETV
vector 5281  Network.dyn_peer[0]  lookupStabilitySig:vector  ETV
vector 5282  Network.dyn_peer[0]  lookupTimeSig:vector  ETV
vector 5292  Network.dyn_peer[4]  lookupHopsSig:vector  ETV
vector 5293  Network.dyn_peer[4]  lookupStabilitySig:vector  ETV
vector 5294  Network.dyn_peer[4]  lookupTimeSig:vector  ETV
vector 5301  Network.dyn_peer[7]  lookupHopsSig:vector  ETV
vector 5302  Network.dyn_peer[7]  lookupStabilitySig:vector  ETV
vector 5303  Network.dyn_peer[7]  lookupTimeSig:vector  ETV
vector 5304  Network.dyn_peer[8]  lookupHopsSig:vector  ETV
vector 5305  Network.dyn_peer[8]  lookupStabilitySig:vector  ETV
vector 5306  Network.dyn_peer[8]  lookupTimeSig:vector  ETV
vector 5307  Network.dyn_peer[9]  lookupHopsSig:vector  ETV
vector 5308  Network.dyn_peer[9]  lookupStabilitySig:vector  ETV
vector 5309  Network.dyn_peer[9]  lookupTimeSig:vector  ETV
vector 5340  Network.dyn_peer[20]  lookupHopsSig:vector  ETV
vector 5341  Network.dyn_peer[20]  lookupStabilitySig:vector  ETV
vector 5342  Network.dyn_peer[20]  lookupTimeSig:vector  ETV
vector 5313  Network.dyn_peer[11]  lookupHopsSig:vector  ETV
vector 5314  Network.dyn_peer[11]  lookupStabilitySig:vector  ETV
vector 5315  Network.dyn_peer[11]  lookupTimeSig:vector  ETV
vector 5289  Network.dyn_peer[3]  lookupHopsSig:vector  ETV
vector 5290  Network.dyn_peer[3]  lookupStabilitySig:vector  ETV
vector 5291  Network.dyn_peer[3]  lookupTimeSig:vector  ETV
vector 5322  Network.dyn_peer[14]  lookupHopsSig:vector  ETV
vector 5323  Network.dyn_peer[14]  lookupStabilitySig:vector  ETV
vector 5324  Network.dyn_peer[14]  lookupTimeSig:vector  ETV
vector 5295  Network.dyn_peer[5]  lookupHopsSig:vector  ETV
vector 5296  Network.dyn_peer[5]  lookupStabilitySig:vector  ETV
vector 5297  Network.dyn_peer[5]  lookupTimeSig:vector  ETV
vector 5325  Network.dyn_peer[15]  lookupHopsSig:vector  ETV
vector 5326  Network.dyn_peer[15]  lookupStabilitySig:vector  ETV
vector 5327  Network.dyn_peer[15]  lookupTimeSig:vector  ETV
vector 5298  Network.dyn_peer[6]  lookupHopsSig:vector  ETV
vector 5299  Network.dyn_peer[6]  lookupStabilitySig:vector  ETV
vector 5300  Network.dyn_peer[6]  lookupTimeSig:vector  ETV
vector 5331  Network.dyn_peer[17]  lookupHopsSig:vector  ETV
vector 5332  Network.dyn_peer[17]  lookupStabilitySig:vector  ETV
vector 5333  Network.dyn_peer[17]  lookupTimeSig:vector  ETV
vector 5361  Network.dyn_peer[27]  lookupHopsSig:vector  ETV
vector 5362  Network.dyn_peer[27]  lookupStabilitySig:vector  ETV
vector 5363  Network.dyn_peer[27]  lookupTimeSig:vector  ETV
vector 5334  Network.dyn_peer[18]  lookupHopsSig:vector  ETV
vector 5335  Network.dyn_peer[18]  lookupStabilitySig:vector  ETV
vector 5336  Network.dyn_peer[18]  lookupTimeSig:vector  ETV
vector 5364  Network.dyn_peer[28]  lookupHopsSig:vector  ETV
vector 5365  Network.dyn_peer[28]  lookupStabilitySig:vector  ETV
vector 5366  Network.dyn_peer[28]  lookupTimeSig:vector  ETV
vector 5337  Network.dyn_peer[19]  lookupHopsSig:vector  ETV
vector 5338  Network.dyn_peer[19]  lookupStabilitySig:vector  ETV
vector 5339  Network.dyn_peer[19]  lookupTimeSig:vector  ETV
vector 5310  Network.dyn_peer[10]  lookupHopsSig:vector  ETV
vector 5311  Network.dyn_peer[10]  lookupStabilitySig:vector  ETV
vector 5312  Network.dyn_peer[10]  lookupTimeSig:vector  ETV
vector 5316  Network.dyn_peer[12]  lookupHopsSig:vector  ETV
vector 5317  Network.dyn_peer[12]  lookupStabilitySig:vector  ETV
vector 5318  Network.dyn_peer[12]  lookupTimeSig:vector  ETV
vector 5373  Network.dyn_peer[31]  lookupHopsSig:vector  ETV
vector 5374  Network.dyn_peer[31]  lookupStabilitySig:vector  ETV
vector 5375  Network.dyn_peer[31]  lookupTimeSig:vector  ETV
vector 5286  Network.dyn_peer[2]  lookupHopsSig:vector  ETV
vector 5287  Network.dyn_peer[2]  lookupStabilitySig:vector  ETV
vector 5288  Network.dyn_peer[2]  lookupTimeSig:vector  ETV
vector 5346  Network.dyn_peer[22]  lookupHopsSig:vector  ETV
vector 5347  Network.dyn_peer[22]  lookupStabilitySig:vector  ETV
vector 5348  Network.dyn_peer[22]  lookupTimeSig:vector  ETV
vector 5328  Network.dyn_peer[16]  lookupHopsSig:vector  ETV
vector 5329  Network.dyn_peer[16]  lookupStabilitySig:vector  ETV
vector 5330  Network.dyn_peer[16]  lookupTimeSig:vector  ETV
vector 5319  Network.dyn_peer[13]  lookupHopsSig:vector  ETV
vector 5320  Network.dyn_peer[13]  lookupStabilitySig:vector  ETV
vector 5321  Network.dyn_peer[13]  lookupTimeSig:vector  ETV
vector 5349  Network.dyn_peer[23]  lookupHopsSig:vector  ETV
vector 5350  Network.dyn_peer[23]  lookupStabilitySig:vector  ETV
vector 5351  Network.dyn_peer[23]  lookupTimeSig:vector  ETV
vector 5355  Network.dyn_peer[25]  lookupHopsSig:vector  ETV
vector 5356  Network.dyn_peer[25]  lookupStabilitySig:vector  ETV
vector 5357  Network.dyn_peer[25]  lookupTimeSig:vector  ETV
vector 5367  Network.dyn_peer[29]  lookupHopsSig:vector  ETV
vector 5368  Network.dyn_peer[29]  lookupStabilitySig:vector  ETV
vector 5369  Network.dyn_peer[29]  lookupTimeSig:vector  ETV
vector 5343  Network.dyn_peer[21]  lookupHopsSig:vector  ETV
vector 5344  Network.dyn_peer[21]  lookupStabilitySig:vector  ETV
vector 5345  Network.dyn_peer[21]  lookupTimeSig:vector  ETV
vector 5352  Network.dyn_peer[24]  lookupHopsSig:vector  ETV
vector 5353  Network.dyn_peer[24]  lookupStabilitySig:vector  ETV
vector 5354  Network.dyn_peer[24]  lookupTimeSig:vector  ETV
vector 5370  Network.dyn_peer[30]  lookupHopsSig:vector  ETV
vector 5371  Network.dyn_peer[30]  lookupStabilitySig:vector  ETV
vector 5372  Network.dyn_peer[30]  lookupTimeSig:vector  ETV
vector 5358  Network.dyn_peer[26]  lookupHopsSig:vector  ETV
vector 5359  Network.dyn_peer[26]  lookupStabilitySig:vector  ETV
vector 5360  Network.dyn_peer[26]  lookupTimeSig:vector  ETV
5280	64	20.11	1
5280	291	20.425667661149	2
5280	550	20.928962535951	4
5280	1805	120.54	2
5280	2240	121.24	6
5280	2336	121.446880361833	1
5280	3123	220.7	0
5280	3330	221	2
5280	3750	221.808808741106	7
5280	4694	321.11	1
5280	4970	321.51	3
5280	5121	321.81512362516	2
5280	6295	421.35	1
5280	6499	421.65	2
5280	6686	421.959914738575	2
5280	7712	521.77	2
5280	7906	522.07	2
5280	8082	522.377046039134	2
5280	8315	522.883827116011	4
5280	9298	622.16	2
5280	9601	622.66	4
5280	9833	623.162130548176	4
5280	10772	722.3	1
5280	11240	723.1	7
5280	11472	723.609584103252	4
5280	11582	724.010489551599	3
5280	11618	724.217356829516	1
5280	12558	823.02	3
5280	12847	823.62	5
5280	12944	823.822074861689	1
5280	13030	824.031862159654	1
5280	13098	824.244550496635	1
5280	13159	824.451592597153	1
5280	13199	824.658924833707	1
5280	14377	923.65	6
5280	14564	924.056400418202	3
5280	14665	924.370962218771	2
5280	14724	924.882526838055	4
5280	14741	925.191596908598	2
5280	15587	1023.61	2
5280	15850	1024.11	4
5280	16099	1024.711760947278	5
5280	17135	1123.87	3
5280	17505	1124.571292014475	6
5280	17679	1124.975925441658	3
5280	17803	1125.380152045631	3
5280	17881	1125.984351324702	5
5280	17915	1126.39354178383	3
5280	17934	1126.699973147273	2
5280	17941	1127.102373047355	3
5280	17948	1127.515977019563	3
5280	17954	1127.923484709698	3
5280	18844	1224.54	5
5280	18954	1224.74	1
5280	19224	1225.344992259878	5
5280	19941	1324.24	1
5280	20321	1324.84	5
5280	20480	1325.148858142332	2
5280	21566	1424.61	2
5280	21952	1425.31	6
5280	22131	1425.719676855951	3
5280	22273	1426.126682635107	3
5280	22410	1426.635333607884	4
5280	22484	1427.14421953184	4
5280	22506	1427.450696652663	2
5280	22527	1427.752723284154	2
5280	22552	1428.163731775481	3
5280	23197	1525.05	1
5280	23433	1525.457206648592	3
5280	23734	1526.176105904053	6
5280	24610	1625.45	3
5280	24788	1625.75	2
5280	24885	1625.954647214962	1
5280	25175	1626.657985592903	6
5280	26309	1726.04	6
5280	26595	1726.64	5
5280	26782	1727.248515138416	5
5280	26847	1727.849932284638	5
5280	26878	1728.453118270473	5
5280	26883	1728.762661585715	2
5280	26889	1729.166664425498	3
5280	26896	1729.568996091764	3
5280	26900	1729.774523880497	1
5280	26906	1730.179441333954	3
5280	26912	1730.587925531608	3
5280	26918	1730.988421072966	3
5280	26923	1731.296628339843	2
5280	27682	1826.1	2
5280	27849	1826.4	2
5280	28087	1826.90134311726	4
5280	28302	1827.505787051156	5
5280	28388	1827.915130963776	3
5280	28457	1828.318612184001	3
5280	29481	1926.65	5
5280	29857	1927.45	7
5280	30785	2026.65	3
5280	30946	2026.95	2
5280	31087	2027.257787647994	2
5280	32203	2126.86	3
5280	32502	2127.36	4
5280	33523	2226.93	1
5280	33735	2227.23	2
5280	33854	2227.432184590278	1
5280	34153	2228.040857970255	5
5280	34449	2228.747468458429	6
5280	35207	2327.43	1
5280	35515	2328.03	5
5280	35681	2328.339272430578	2
5280	36498	2427.58	1
5280	36709	2427.88	2
5280	36925	2428.284913786989	3
5280	37447	2429.49322185574	11
5280	37552	2429.997622453646	4
5280	37602	2430.305207312068	2
5280	37674	2430.907542623922	5
5280	37704	2431.416812671339	4
5280	37723	2431.925367089034	4
5280	37733	2432.639590957118	6
5280	37739	2433.039797431838	3
5280	38523	2528.37	3
5280	38630	2528.57	1
5280	38820	2528.970885711815	3
5280	38986	2529.371857676263	3
5280	39755	2628.35	1
5280	40026	2628.85	4
5280	40480	2629.85637479712	9
5280	41439	2728.72	2
5280	41660	2729.12	3
5280	41957	2729.727491529979	5
5280	42191	2730.431728049085	6
5280	43169	2829.33	4
5280	43419	2829.832930240645	4
5280	43585	2830.240495393348	3
5280	44736	2929.41	3
5280	44845	2929.61	1
5280	45140	2930.217390264996	5
5280	45271	2930.624853946298	3
5280	46012	3029.66	2
5280	46373	3030.36	6
5280	46746	3031.362759472522	9
5280	46837	3031.775310129805	3
5280	46874	3031.983556144272	1
5280	47817	3130.37	5
5280	48170	3131.17	7
5280	48264	3131.478865871832	2
5281	64	20.11	0.875
5281	291	20.425667661149	0.75
5281	550	20.928962535951	0.55555555224419
5281	1805	120.54	0.75
5281	2240	121.24	0.53846153616905
5281	2336	121.446880361833	0.92857142537832
5281	3123	220.7	1
5281	3330	221	0.75
5281	3750	221.808808741106	0.53333333134651
5281	4694	321.11	0.875
5281	4970	321.51	0.625
5281	5121	321.81512362516	0.75
5281	6295	421.35	0.875
5281	6499	421.65	0.75
5281	6686	421.959914738575	0.77777777612209
5281	7712	521.77	0.75
5281	7906	522.07	0.75
5281	8082	522.377046039134	0.75
5281	8315	522.883827116011	0.7647058814764
5281	9298	622.16	0.75
5281	9601	622.66	0.55555555224419
5281	9833	623.162130548176	0.59999999403954
5281	10772	722.3	0.875
5281	11240	723.1	0.30000001192093
5281	11472	723.609584103252	0.78947368264198
5281	11582	724.010489551599	0.89285714179277
5281	11618	724.217356829516	0.96774193644524
5281	12558	823.02	0.625
5281	12847	823.62	0.5
5281	12944	823.822074861689	0.9333333298564
5281	13030	824.031862159654	0.9545454531908
5281	13098	824.244550496635	0.96153846010566
5281	13159	824.451592597153	0.96551724150777
5281	13199	824.658924833707	0.96969696879387
5281	14377	923.65	0.33333331346512
5281	14564	924.056400418202	0.86956521868706
5281	14665	924.370962218771	0.93548387289047
5281	14724	924.882526838055	0.89473684132099
5281	14741	925.191596908598	0.9473684206605
5281	15587	1023.61	0.75
5281	15850	1024.11	0.66666665673256
5281	16099	1024.711760947278	0.77272726595402
5281	17135	1123.87	0.625
5281	17505	1124.571292014475	0.5714285671711
5281	17679	1124.975925441658	0.84999999403954
5281	17803	1125.380152045631	0.89285714179277
5281	17881	1125.984351324702	0.85714285075665
5281	17915	1126.39354178383	0.9142857119441
5281	17934	1126.699973147273	0.9473684206605
5281	17941	1127.102373047355	0.92307692021132
5281	17948	1127.515977019563	0.92307692021132
5281	17954	1127.923484709698	0.92307692021132
5281	18844	1224.54	0.375
5281	18954	1224.74	0.875
5281	19224	1225.344992259878	0.72222220897675
5281	19941	1324.24	0.875
5281	20321	1324.84	0.5
5281	20480	1325.148858142332	0.84615384042263
5281	21566	1424.61	0.75
5281	21952	1425.31	0.53846153616905
5281	22131	1425.719676855951	0.82352940738201
5281	22273	1426.126682635107	0.86956521868706
5281	22410	1426.635333607884	0.85714285075665
5281	22484	1427.14421953184	0.88571428507566
5281	22506	1427.450696652663	0.94444444403052
5281	22527	1427.752723284154	0.94444444403052
5281	22552	1428.163731775481	0.91891892254353
5281	23197	1525.05	0.875
5281	23433	1525.457206648592	0.625
5281	23734	1526.176105904053	0.76923076808453
5281	24610	1625.45	0.625
5281	24788	1625.75	0.75
5281	24885	1625.954647214962	0.88888888806105
5281	25175	1626.657985592903	0.75
5281	26309	1726.04	0.25
5281	26595	1726.64	0.6875
5281	26782	1727.248515138416	0.84375
5281	26847	1727.849932284638	0.86111110448837
5281	26878	1728.453118270473	0.87179486453533
5281	26883	1728.762661585715	0.94871794804931
5281	26889	1729.166664425498	0.92307692021132
5281	26896	1729.568996091764	0.92307692021132
5281	26900	1729.774523880497	0.97435897402465
5281	26906	1730.179441333954	0.92307692021132
5281	26912	1730.587925531608	0.92307692021132
5281	26918	1730.988421072966	0.92307692021132
5281	26923	1731.296628339843	0.94871794804931
5281	27682	1826.1	0.75
5281	27849	1826.4	0.75
5281	28087	1826.90134311726	0.73333331942558
5281	28302	1827.505787051156	0.81481482088566
5281	28388	1827.915130963776	0.89655172079802
5281	28457	1828.318612184001	0.90909090638161
5281	29481	1926.65	0.375
5281	29857	1927.45	0.68181818723679
5281	30785	2026.65	0.625
5281	30946	2026.95	0.77777777612209
5281	31087	2027.257787647994	0.83333332836628
5281	32203	2126.86	0.625
5281	32502	2127.36	0.5
5281	33523	2226.93	0.875
5281	33735	2227.23	0.75
5281	33854	2227.432184590278	0.88888888806105
5281	34153	2228.040857970255	0.54545453190804
5281	34449	2228.747468458429	0.77777777612209
5281	35207	2327.43	0.875
5281	35515	2328.03	0.375
5281	35681	2328.339272430578	0.81818181276321
5281	36498	2427.58	0.875
5281	36709	2427.88	0.75
5281	36925	2428.284913786989	0.66666665673256
5281	37447	2429.49322185574	0.62068966031075
5281	37552	2429.997622453646	0.86666665971279
5281	37602	2430.305207312068	0.93548387289047
5281	37674	2430.907542623922	0.86111110448837
5281	37704	2431.416812671339	0.89189188927412
5281	37723	2431.925367089034	0.89743589609861
5281	37733	2432.639590957118	0.84615384042263
5281	37739	2433.039797431838	0.92307692021132
5281	38523	2528.37	0.625
5281	38630	2528.57	0.875
5281	38820	2528.970885711815	0.75
5281	38986	2529.371857676263	0.88461538404226
5281	39755	2628.35	0.875
5281	40026	2628.85	0.5
5281	40480	2629.85637479712	0.59090909361839
5281	41439	2728.72	0.75
5281	41660	2729.12	0.625
5281	41957	2729.727491529979	0.6875
5281	42191	2730.431728049085	0.8125
5281	43169	2829.33	0.5
5281	43419	2829.832930240645	0.69230768084526
5281	43585	2830.240495393348	0.84210526943207
5281	44736	2929.41	0.625
5281	44845	2929.61	0.875
5281	45140	2930.217390264996	0.70588234066963
5281	45271	2930.624853946298	0.86956521868706
5281	46012	3029.66	0.75
5281	46373	3030.36	0.5714285671711
5281	46746	3031.362759472522	0.6785714328289
5281	46837	3031.775310129805	0.89999999850988
5281	46874	3031.983556144272	0.96969696879387
5281	47817	3130.37	0.44444441795349
5281	48170	3131.17	0.69565218687057
5281	48264	3131.478865871832	0.92592592537403
5282	64	20.11	0.1
5282	291	20.425667661149	0.3
5282	550	20.928962535951	0.5
5282	1805	120.54	0.2
5282	2240	121.24	0.7
5282	2336	121.446880361833	0.2
5282	3123	220.7	0
5282	3330	221	0.3
5282	3750	221.808808741106	0.8
5282	4694	321.11	0.1
5282	4970	321.51	0.4
5282	5121	321.81512362516	0.3
5282	6295	421.35	0.1
5282	6499	421.65	0.3
5282	6686	421.959914738575	0.3
5282	7712	521.77	0.2
5282	7906	522.07	0.3
5282	8082	522.377046039134	0.3
5282	8315	522.883827116011	0.5
5282	9298	622.16	0.2
5282	9601	622.66	0.5
5282	9833	623.162130548176	0.5
5282	10772	722.3	0.1
5282	11240	723.1	0.8
5282	11472	723.609584103252	0.5
5282	11582	724.010489551599	0.4
5282	11618	724.217356829516	0.2
5282	12558	823.02	0.3
5282	12847	823.62	0.6
5282	12944	823.822074861689	0.2
5282	13030	824.031862159654	0.2
5282	13098	824.244550496635	0.2
5282	13159	824.451592597153	0.2
5282	13199	824.658924833707	0.2
5282	14377	923.65	0.6
5282	14564	924.056400418202	0.4
5282	14665	924.370962218771	0.3
5282	14724	924.882526838055	0.5
5282	14741	925.191596908598	0.3
5282	15587	1023.61	0.2
5282	15850	1024.11	0.5
5282	16099	1024.711760947278	0.6
5282	17135	1123.87	0.3
5282	17505	1124.571292014475	0.7
5282	17679	1124.975925441658	0.4
5282	17803	1125.380152045631	0.4
5282	17881	1125.984351324702	0.6
5282	17915	1126.39354178383	0.4
5282	17934	1126.699973147273	0.3
5282	17941	1127.102373047355	0.4
5282	17948	1127.515977019563	0.4
5282	17954	1127.923484709698	0.4
5282	18844	1224.54	0.5
5282	18954	1224.74	0.2
5282	19224	1225.344992259878	0.6
5282	19941	1324.24	0.1
5282	20321	1324.84	0.6
5282	20480	1325.148858142332	0.3
5282	21566	1424.61	0.2
5282	21952	1425.31	0.7
5282	22131	1425.719676855951	0.4
5282	22273	1426.126682635107	0.4
5282	22410	1426.635333607884	0.5
5282	22484	1427.14421953184	0.5
5282	22506	1427.450696652663	0.3
5282	22527	1427.752723284154	0.3
5282	22552	1428.163731775481	0.4
5282	23197	1525.05	0.1
5282	23433	1525.457206648592	0.4
5282	23734	1526.176105904053	0.7
5282	24610	1625.45	0.3
5282	24788	1625.75	0.3
5282	24885	1625.954647214962	0.2
5282	25175	1626.657985592903	0.7
5282	26309	1726.04	0.6
5282	26595	1726.64	0.6
5282	26782	1727.248515138416	0.6
5282	26847	1727.849932284638	0.6
5282	26878	1728.453118270473	0.6
5282	26883	1728.762661585715	0.3
5282	26889	1729.166664425498	0.4
5282	26896	1729.568996091764	0.4
5282	26900	1729.774523880497	0.2
5282	26906	1730.179441333954	0.4
5282	26912	1730.587925531608	0.4
5282	26918	1730.988421072966	0.4
5282	26923	1731.296628339843	0.3
5282	27682	1826.1	0.2
5282	27849	1826.4	0.3
5282	28087	1826.90134311726	0.5
5282	28302	1827.505787051156	0.6
5282	28388	1827.915130963776	0.4
5282	28457	1828.318612184001	0.4
5282	29481	1926.65	0.5
5282	29857	1927.45	0.8
5282	30785	2026.65	0.3
5282	30946	2026.95	0.3
5282	31087	2027.257787647994	0.3
5282	32203	2126.86	0.3
5282	32502	2127.36	0.5
5282	33523	2226.93	0.1
5282	33735	2227.23	0.3
5282	33854	2227.432184590278	0.2
5282	34153	2228.040857970255	0.6
5282	34449	2228.747468458429	0.7
5282	35207	2327.43	0.1
5282	35515	2328.03	0.6
5282	35681	2328.339272430578	0.3
5282	36498	2427.58	0.1
5282	36709	2427.88	0.3
5282	36925	2428.284913786989	0.4
5282	37447	2429.49322185574	1.2
5282	37552	2429.997622453646	0.5
5282	37602	2430.305207312068	0.3
5282	37674	2430.907542623922	0.6
5282	37704	2431.416812671339	0.5
5282	37723	2431.925367089034	0.5
5282	37733	2432.639590957118	0.7
5282	37739	2433.039797431838	0.4
5282	38523	2528.37	0.3
5282	38630	2528.57	0.2
5282	38820	2528.970885711815	0.4
5282	38986	2529.371857676263	0.4
5282	39755	2628.35	0.1
5282	40026	2628.85	0.5
5282	40480	2629.85637479712	1
5282	41439	2728.72	0.2
5282	41660	2729.12	0.4
5282	41957	2729.727491529979	0.6
5282	42191	2730.431728049085	0.7
5282	43169	2829.33	0.4
5282	43419	2829.832930240645	0.5
5282	43585	2830.240495393348	0.4
5282	44736	2929.41	0.3
5282	44845	2929.61	0.2
5282	45140	2930.217390264996	0.6
5282	45271	2930.624853946298	0.4
5282	46012	3029.66	0.2
5282	46373	3030.36	0.7
5282	46746	3031.362759472522	1
5282	46837	3031.775310129805	0.4
5282	46874	3031.983556144272	0.2
5282	47817	3130.37	0.5
5282	48170	3131.17	0.8
5282	48264	3131.478865871832	0.3
5283	33	20.02	0
5283	240	20.329079949178	2
5283	556	20.935436878693	5
5283	1651	120.35	0
5283	1906	120.65	2
5283	2341	121.4550067308	7
5283	2510	121.86176575631	3
5283	3345	221.02	2
5283	3716	221.72	6
5283	3872	222.126126288645	3
5283	3958	222.428663811065	2
5283	4874	321.36	2
5283	5143	321.86	4
5283	5580	322.966400749231	10
5283	6469	421.61	2
5283	6796	422.21	5
5283	7023	422.711531859049	4
5283	8053	522.33	6
5283	8249	522.73	3
5283	8435	523.237247572212	4
5283	8524	523.540306778344	2
5283	8626	524.140459354134	5
5283	8658	524.541192269137	3
5283	9439	622.35	2
5283	9782	623.05	6
5283	10005	623.558142228235	4
5283	10065	623.759914144318	1
5283	11015	722.66	3
5283	11314	723.26	5
5283	12432	822.84	3
5283	12668	823.24	3
5283	12902	823.745341466769	4
5283	14078	923.15	3
5283	14321	923.55	3
5283	14481	923.857719562358	2
5283	14639	924.26489293415	3
5283	15388	1023.31	0
5283	15637	1023.71	3
5283	15989	1024.411238786387	6
5283	16892	1123.5	0
5283	17205	1124	4
5283	17421	1124.4095610016	3
5283	17695	1125.014682195833	5
5283	18511	1223.96	1
5283	18908	1224.66	6
5283	19109	1225.068915433529	3
5283	19234	1225.372842320647	2
5283	19885	1324.15	0
5283	20020	1324.352887156782	1
5283	20384	1324.95828550489	5
5283	20637	1325.562291803963	5
5283	21765	1424.91	4
5283	22082	1425.61	6
5283	22321	1426.312320215611	6
5283	22403	1426.614311252131	2
5283	22442	1426.822725876632	1
5283	22479	1427.127165067551	2
5283	22498	1427.332701945522	1
5283	22511	1427.537394754319	1
5283	22545	1428.14105661433	5
5283	23191	1525.04	1
5283	23380	1525.34	2
5283	23579	1525.753041838796	3
5283	23759	1526.261987009849	4
5283	24625	1625.47	3
5283	25107	1626.47	9
5283	26070	1725.6	2
5283	26181	1725.8	1
5283	26291	1726.004755047857	1
5283	26399	1726.206117188445	1
5283	27441	1825.72	1
5283	27762	1826.226407402702	4
5283	28181	1827.1326551404	8
5283	28256	1827.33940026294	1
5283	29316	1926.38	3
5283	29553	1926.78	3
5283	29758	1927.18702227283	3
5283	29904	1927.5911688058	3
5283	30616	2026.4	0
5283	30816	2026.70592047821	2
5283	31020	2027.108308244342	3
5283	32049	2126.63	1
5283	32170	2126.83	1
5283	32487	2127.335608971284	4
5283	32635	2127.643156323828	2
5283	33531	2226.94	1
5283	33741	2227.24	2
5283	34054	2227.840451498206	5
5283	34203	2228.142672793895	2
5283	34423	2228.653415528541	4
5283	35185	2327.41	1
5283	35501	2328.01	5
5283	35809	2328.612512698306	5
5283	36544	2427.66	1
5283	37174	2428.76	10
5283	37310	2429.061803342748	2
5283	38328	2528.07	2
5283	38908	2529.17	10
5283	39052	2529.683283873418	4
5283	39085	2529.891414127916	1
5283	39927	2628.63	3
5283	40069	2628.93	2
5283	40185	2629.130564081582	1
5283	40334	2629.43696863872	2
5283	40505	2629.945421672139	4
5283	41394	2728.66	1
5283	41566	2728.96	2
5283	41786	2729.364427558132	3
5283	42056	2729.972551348253	5
5283	43217	2829.43	6
5283	43313	2829.63	1
5283	43513	2830.0300296806	3
5283	43706	2830.633157848833	5
5283	43777	2830.935405138224	2
5283	43862	2831.444921546006	4
5283	43922	2831.945364963857	4
5283	43948	2832.266741475869	2
5283	43967	2832.4668691995	1
5283	44935	2929.78	5
5283	45075	2930.08	2
5283	45198	2930.385466411716	2
5283	45289	2930.687315510962	2
5283	46194	3029.98	5
5283	46628	3030.988855731294	9
5283	46756	3031.392795125048	3
5283	46817	3031.700391681857	2
5283	46896	3032.209590758249	4
5283	46929	3032.611369770526	3
5283	46947	3032.916599059177	2
5283	46955	3033.124390295199	1
5283	47786	3130.32	4
5283	47945	3130.62	2
5283	48223	3131.323615434628	6
5283	48338	3131.82714668162	4
5283	48388	3132.131668940387	2
5283	48423	3132.343188231932	1
5283	48447	3132.643532983362	2
5284	33	20.02	1
5284	240	20.329079949178	0.75
5284	556	20.935436878693	0.44444441795349
5284	1651	120.35	1
5284	1906	120.65	0.75
5284	2341	121.4550067308	0.5625
5284	2510	121.86176575631	0.88888888806105
5284	3345	221.02	0.75
5284	3716	221.72	0.5714285671711
5284	3872	222.126126288645	0.86956521868706
5284	3958	222.428663811065	0.9333333298564
5284	4874	321.36	0.75
5284	5143	321.86	0.55555555224419
5284	5580	322.966400749231	0.58333334326744
5284	6469	421.61	0.75
5284	6796	422.21	0.5
5284	7023	422.711531859049	0.84000000357628
5284	8053	522.33	0.25
5284	8249	522.73	0.79999999701977
5284	8435	523.237247572212	0.80952380597591
5284	8524	523.540306778344	0.93103448301554
5284	8626	524.140459354134	0.85714285075665
5284	8658	524.541192269137	0.91666666418314
5284	9439	622.35	0.75
5284	9782	623.05	0.39999997615814
5284	10005	623.558142228235	0.83333332836628
5284	10065	623.759914144318	0.96000000089407
5284	11015	722.66	0.625
5284	11314	723.26	0.61538460850716
5284	12432	822.84	0.625
5284	12668	823.24	0.66666665673256
5284	12902	823.745341466769	0.69230768084526
5284	14078	923.15	0.625
5284	14321	923.55	0.66666665673256
5284	14481	923.857719562358	0.84615384042263
5284	14639	924.26489293415	0.89285714179277
5284	15388	1023.31	1
5284	15637	1023.71	0.625
5284	15989	1024.411238786387	0.625
5284	16892	1123.5	1
5284	17205	1124	0.55555555224419
5284	17421	1124.4095610016	0.66666665673256
5284	17695	1125.014682195833	0.76190476119518
5284	18511	1223.96	0.875
5284	18908	1224.66	0.25
5284	19109	1225.068915433529	0.75
5284	19234	1225.372842320647	0.89473684132099
5284	19885	1324.15	1
5284	20020	1324.352887156782	0.875
5284	20384	1324.95828550489	0.5
5284	20637	1325.562291803963	0.79166667163372
5284	21765	1424.91	0.5
5284	22082	1425.61	0.64705881476402
5284	22321	1426.312320215611	0.75
5284	22403	1426.614311252131	0.92857142537832
5284	22442	1426.822725876632	0.96875
5284	22479	1427.127165067551	0.94285714253783
5284	22498	1427.332701945522	0.97222222201526
5284	22511	1427.537394754319	0.97222222201526
5284	22545	1428.14105661433	0.86111110448837
5284	23191	1525.04	0.875
5284	23380	1525.34	0.75
5284	23579	1525.753041838796	0.79999999701977
5284	23759	1526.261987009849	0.85714285075665
5284	24625	1625.47	0.625
5284	25107	1626.47	0.55000001192093
5284	26070	1725.6	0.75
5284	26181	1725.8	0.875
5284	26291	1726.004755047857	0.875
5284	26399	1726.206117188445	0.90909090638161
5284	27441	1825.72	0.875
5284	27762	1826.226407402702	0.5
5284	28181	1827.1326551404	0.59999999403954
5284	28256	1827.33940026294	0.96000000089407
5284	29316	1926.38	0.625
5284	29553	1926.78	0.625
5284	29758	1927.18702227283	0.82352940738201
5284	29904	1927.5911688058	0.88888888806105
5284	30616	2026.4	1
5284	30816	2026.70592047821	0.75
5284	31020	2027.108308244342	0.66666665673256
5284	32049	2126.63	0.875
5284	32170	2126.83	0.875
5284	32487	2127.335608971284	0.5
5284	32635	2127.643156323828	0.77777777612209
5284	33531	2226.94	0.875
5284	33741	2227.24	0.75
5284	34054	2227.840451498206	0.5
5284	34203	2228.142672793895	0.81818181276321
5284	34423	2228.653415528541	0.84000000357628
5284	35185	2327.41	0.875
5284	35501	2328.01	0.375
5284	35809	2328.612512698306	0.7368420958519
5284	36544	2427.66	0.875
5284	37174	2428.76	0.33333331346512
5284	37310	2429.061803342748	0.89473684132099
5284	38328	2528.07	0.75
5284	38908	2529.17	0.375
5284	39052	2529.683283873418	0.87096774578094
5284	39085	2529.891414127916	0.96969696879387
5284	39927	2628.63	0.625
5284	40069	2628.93	0.77777777612209
5284	40185	2629.130564081582	0.88888888806105
5284	40334	2629.43696863872	0.875
5284	40505	2629.945421672139	0.84615384042263
5284	41394	2728.66	0.875
5284	41566	2728.96	0.75
5284	41786	2729.364427558132	0.69999998807907
5284	42056	2729.972551348253	0.77272726595402
5284	43217	2829.43	0.25
5284	43313	2829.63	0.89999999850988
5284	43513	2830.0300296806	0.82352940738201
5284	43706	2830.633157848833	0.81481482088566
5284	43777	2830.935405138224	0.9333333298564
5284	43862	2831.444921546006	0.875
5284	43922	2831.945364963857	0.88888888806105
5284	43948	2832.266741475869	0.94444444403052
5284	43967	2832.4668691995	0.97222222201526
5284	44935	2929.78	0.44444441795349
5284	45075	2930.08	0.875
5284	45198	2930.385466411716	0.90476190298796
5284	45289	2930.687315510962	0.92000000178814
5284	46194	3029.98	0.375
5284	46628	3030.988855731294	0.59090909361839
5284	46756	3031.392795125048	0.89655172079802
5284	46817	3031.700391681857	0.9333333298564
5284	46896	3032.209590758249	0.88571428507566
5284	46929	3032.611369770526	0.91891892254353
5284	46947	3032.916599059177	0.9473684206605
5284	46955	3033.124390295199	0.97368421033025
5284	47786	3130.32	0.55555555224419
5284	47945	3130.62	0.83333332836628
5284	48223	3131.323615434628	0.73913043737411
5284	48338	3131.82714668162	0.87878787517548
5284	48388	3132.131668940387	0.93939393758774
5284	48423	3132.343188231932	0.97142857126892
5284	48447	3132.643532983362	0.94285714253783
5285	33	20.02	0
5285	240	20.329079949178	0.3
5285	556	20.935436878693	0.6
5285	1651	120.35	0
5285	1906	120.65	0.3
5285	2341	121.4550067308	0.8
5285	2510	121.86176575631	0.4
5285	3345	221.02	0.2
5285	3716	221.72	0.7
5285	3872	222.126126288645	0.4
5285	3958	222.428663811065	0.3
5285	4874	321.36	0.2
5285	5143	321.86	0.5
5285	5580	322.966400749231	1.1
5285	6469	421.61	0.2
5285	6796	422.21	0.6
5285	7023	422.711531859049	0.5
5285	8053	522.33	0.6
5285	8249	522.73	0.4
5285	8435	523.237247572212	0.5
5285	8524	523.540306778344	0.3
5285	8626	524.140459354134	0.6
5285	8658	524.541192269137	0.4
5285	9439	622.35	0.2
5285	9782	623.05	0.7
5285	10005	623.558142228235	0.5
5285	10065	623.759914144318	0.2
5285	11015	722.66	0.3
5285	11314	723.26	0.6
5285	12432	822.84	0.3
5285	12668	823.24	0.4
5285	12902	823.745341466769	0.5
5285	14078	923.15	0.3
5285	14321	923.55	0.4
5285	14481	923.857719562358	0.3
5285	14639	924.26489293415	0.4
5285	15388	1023.31	0
5285	15637	1023.71	0.4
5285	15989	1024.411238786387	0.7
5285	16892	1123.5	0
5285	17205	1124	0.5
5285	17421	1124.4095610016	0.4
5285	17695	1125.014682195833	0.6
5285	18511	1223.96	0.1
5285	18908	1224.66	0.7
5285	19109	1225.068915433529	0.4
5285	19234	1225.372842320647	0.3
5285	19885	1324.15	0
5285	20020	1324.352887156782	0.2
5285	20384	1324.95828550489	0.6
5285	20637	1325.562291803963	0.6
5285	21765	1424.91	0.4
5285	22082	1425.61	0.7
5285	22321	1426.312320215611	0.7
5285	22403	1426.614311252131	0.3
5285	22442	1426.822725876632	0.2
5285	22479	1427.127165067551	0.3
5285	22498	1427.332701945522	0.2
5285	22511	1427.537394754319	0.2
5285	22545	1428.14105661433	0.6
5285	23191	1525.04	0.1
5285	23380	1525.34	0.3
5285	23579	1525.753041838796	0.4
5285	23759	1526.261987009849	0.5
5285	24625	1625.47	0.3
5285	25107	1626.47	1
5285	26070	1725.6	0.2
5285	26181	1725.8	0.2
5285	26291	1726.004755047857	0.2