file 420986 1369674151                                          
version 2
run Stability-97-20130524-20:23:59-3483
attr configname Stability
attr datetime 20130524-20:23:59
attr experiment Stability
attr inifile omnetpp.ini
attr iterationvars $0=1e-3
attr iterationvars2 "$0=1e-3, $repetition=7"
attr measurement $0=1e-3
attr network Network
attr processid 3483
attr repetition 7
attr replication #7
attr resultdir results
attr runnumber 97
attr seedset 97
vector 9348  Network.dyn_peer[12]  lookupHopsSig:vector  ETV
9348	161011 3720 67 48525 20.000013 6222.946384528696 134 0 15 478 2764
vector 9349  Network.dyn_peer[12]  lookupStabilitySig:vector  ETV
9349	164731 5038 67 48525 20.000013 6222.946384528696 134 0.10000002384186 1 99.878510417417 79.736229149995
vector 9350  Network.dyn_peer[12]  lookupTimeSig:vector  ETV
9350	169769 3968 67 48525 20.000013 6222.946384528696 134 0 1.6 57.8 36.62
vector 9363  Network.dyn_peer[17]  lookupHopsSig:vector  ETV
9363	227602 3703 86 48571 20.000018 6223.752560931458 133 0 10 468 2346
vector 9364  Network.dyn_peer[17]  lookupStabilitySig:vector  ETV
9364	231305 5087 86 48571 20.000018 6223.752560931458 133 0.125 1 98.528594858944 78.003473527139
vector 9365  Network.dyn_peer[17]  lookupTimeSig:vector  ETV
9365	236392 3951 86 48571 20.000018 6223.752560931458 133 0 1.1 56.6 31.68
vector 9315  Network.dyn_peer[1]  lookupHopsSig:vector  ETV
9315	22075 3275 134 48490 20.100002 6222.718606857712 119 0 10 369 1751
vector 9316  Network.dyn_peer[1]  lookupStabilitySig:vector  ETV
9316	25350 4231 134 48490 20.100002 6222.718606857712 119 0 1 88.517990389839 69.325203651894
vector 9317  Network.dyn_peer[1]  lookupTimeSig:vector  ETV
9317	29581 3499 134 48490 20.100002 6222.718606857712 119 0 1.1 45.3 24.15
vector 9321  Network.dyn_peer[3]  lookupHopsSig:vector  ETV
9321	43739 3551 140 47947 20.100004 6220.905837011517 128 0 11 413 1975
vector 9322  Network.dyn_peer[3]  lookupStabilitySig:vector  ETV
9322	47290 4782 140 47947 20.100004 6220.905837011517 128 -0.22222220897675 1 95.197006780654 75.777915244475
vector 9323  Network.dyn_peer[3]  lookupTimeSig:vector  ETV
9323	52072 3796 140 47947 20.100004 6220.905837011517 128 0 1.1 50.6 27.1
vector 9327  Network.dyn_peer[5]  lookupHopsSig:vector  ETV
9327	67615 4183 146 48173 20.100006 6221.410687015455 149 0 14 471 2341
vector 9328  Network.dyn_peer[5]  lookupStabilitySig:vector  ETV
9328	71798 5700 146 48173 20.100006 6221.410687015455 149 0.125 1 114.88858402707 93.745994844551
vector 9329  Network.dyn_peer[5]  lookupTimeSig:vector  ETV
9329	77498 4464 146 48173 20.100006 6221.410687015455 149 0 1.5 58.5 32.33
vector 9333  Network.dyn_peer[7]  lookupHopsSig:vector  ETV
9333	93118 4327 152 48109 20.100008 6221.22484589949 154 0 13 531 2681
vector 9334  Network.dyn_peer[7]  lookupStabilitySig:vector  ETV
9334	97445 5940 152 48109 20.100008 6221.22484589949 154 0.25 1 117.37974346615 95.641892174183
vector 9335  Network.dyn_peer[7]  lookupTimeSig:vector  ETV
9335	103385 4621 152 48109 20.100008 6221.22484589949 154 0 1.4 64.9 36.39
vector 9336  Network.dyn_peer[8]  lookupHopsSig:vector  ETV
9336	108006 4063 157 48312 20.100009 6221.81248867307 145 0 11 539 2801
vector 9337  Network.dyn_peer[8]  lookupStabilitySig:vector  ETV
9337	112069 5651 157 48312 20.100009 6221.81248867307 145 0.125 1 107.33075546473 85.373330146103
vector 9338  Network.dyn_peer[8]  lookupTimeSig:vector  ETV
9338	117720 4344 157 48312 20.100009 6221.81248867307 145 0 1.2 65.1 38.27
vector 9354  Network.dyn_peer[14]  lookupHopsSig:vector  ETV
9354	187789 4286 167 48339 20.100015 6221.910906633745 152 1 14 519 2661
vector 9355  Network.dyn_peer[14]  lookupStabilitySig:vector  ETV
9355	192075 5973 167 48339 20.100015 6221.910906633745 152 0.25 0.97368421033025 117.40993143432 95.591868919163
vector 9356  Network.dyn_peer[14]  lookupTimeSig:vector  ETV
9356	198048 4579 167 48339 20.100015 6221.910906633745 152 0.1 1.5 63.7 36.41
vector 9375  Network.dyn_peer[21]  lookupHopsSig:vector  ETV
9375	277092 4186 178 48559 20.100022 6223.419769844325 149 0 15 539 2843
vector 9376  Network.dyn_peer[21]  lookupStabilitySig:vector  ETV
9376	281278 5777 178 48559 20.100022 6223.419769844325 149 0.125 1 112.28617725335 90.25682906471
vector 9377  Network.dyn_peer[21]  lookupTimeSig:vector  ETV
9377	287055 4473 178 48559 20.100022 6223.419769844325 149 0 1.6 65.4 38.36
vector 9390  Network.dyn_peer[26]  lookupHopsSig:vector  ETV
9390	341246 3382 187 48366 20.100027 6222.006898326606 122 0 11 407 1941
vector 9391  Network.dyn_peer[26]  lookupStabilitySig:vector  ETV
9391	344628 4636 187 48366 20.100027 6222.006898326606 122 0.125 1 88.58132888563 69.17343695533
vector 9392  Network.dyn_peer[26]  lookupTimeSig:vector  ETV
9392	349264 3617 187 48366 20.100027 6222.006898326606 122 0 1.2 49.2 26.38
vector 9402  Network.dyn_peer[30]  lookupHopsSig:vector  ETV
9402	395923 3946 195 48275 20.100031 6221.708967168783 141 0 11 488 2516
vector 9403  Network.dyn_peer[30]  lookupStabilitySig:vector  ETV
9403	399869 5385 195 48275 20.100031 6221.708967168783 141 0 1 106.12208626233 85.497585681722
vector 9404  Network.dyn_peer[30]  lookupTimeSig:vector  ETV
9404	405254 4209 195 48275 20.100031 6221.708967168783 141 0 1.2 59.2 33.94
vector 9405  Network.dyn_peer[31]  lookupHopsSig:vector  ETV
9405	409463 3370 200 48541 20.100032 6223.141886878776 122 0 11 406 1946
vector 9406  Network.dyn_peer[31]  lookupStabilitySig:vector  ETV
9406	412833 4545 200 48541 20.100032 6223.141886878776 122 0.125 1 89.897494137287 70.679090037712
vector 9407  Network.dyn_peer[31]  lookupTimeSig:vector  ETV
9407	417378 3608 200 48541 20.100032 6223.141886878776 122 0 1.2 49.4 26.38
vector 9318  Network.dyn_peer[2]  lookupHopsSig:vector  ETV
9318	33080 3141 211 47996 20.200003 6221.005462101512 115 0 11 361 1639
vector 9319  Network.dyn_peer[2]  lookupStabilitySig:vector  ETV
9319	36221 4154 211 47996 20.200003 6221.005462101512 115 0.21428573131561 1 84.226228130981 65.108466679903
vector 9320  Network.dyn_peer[2]  lookupTimeSig:vector  ETV
9320	40375 3364 211 47996 20.200003 6221.005462101512 115 0 1.2 44 22.82
vector 9324  Network.dyn_peer[4]  lookupHopsSig:vector  ETV
9324	55868 3409 217 48562 20.200005 6223.42778940096 123 0 11 431 2109
vector 9325  Network.dyn_peer[4]  lookupStabilitySig:vector  ETV
9325	59277 4693 217 48562 20.200005 6223.42778940096 123 0.090909063816071 1 89.701701300219 70.136409444917
vector 9326  Network.dyn_peer[4]  lookupTimeSig:vector  ETV
9326	63970 3645 217 48562 20.200005 6223.42778940096 123 0 1.2 52.1 28.77
vector 9339  Network.dyn_peer[9]  lookupHopsSig:vector  ETV
9339	122064 3622 225 48379 20.20001 6222.017395401154 131 0 13 436 2150
vector 9340  Network.dyn_peer[9]  lookupStabilitySig:vector  ETV
9340	125686 4919 225 48379 20.20001 6222.017395401154 131 0.23529410362244 1 97.772570040077 77.585115866134
vector 9341  Network.dyn_peer[9]  lookupTimeSig:vector  ETV
9341	130605 3869 225 48379 20.20001 6222.017395401154 131 0 1.4 53.3 29.55
vector 9366  Network.dyn_peer[18]  lookupHopsSig:vector  ETV
9366	240343 3452 239 48127 20.200019 6221.306554655707 126 0 16 433 2285
vector 9367  Network.dyn_peer[18]  lookupStabilitySig:vector  ETV
9367	243795 4700 239 48127 20.200019 6221.306554655707 126 -0.11111116409302 1 92.620793227106 73.863778671882
vector 9368  Network.dyn_peer[18]  lookupTimeSig:vector  ETV
9368	248495 3685 239 48127 20.200019 6221.306554655707 126 0 1.7 52.2 30.24
vector 9399  Network.dyn_peer[29]  lookupHopsSig:vector  ETV
9399	380941 4345 254 48320 20.20003 6221.817555744096 154 0 12 535 2625
vector 9400  Network.dyn_peer[29]  lookupStabilitySig:vector  ETV
9400	385286 5995 254 48320 20.20003 6221.817555744096 154 0.22222220897675 1 116.81583919935 94.256443904819
vector 9401  Network.dyn_peer[29]  lookupTimeSig:vector  ETV
9401	391281 4642 254 48320 20.20003 6221.817555744096 154 0 1.3 65.6 36.44
vector 9330  Network.dyn_peer[6]  lookupHopsSig:vector  ETV
9330	81962 3245 274 48332 20.300007 6221.904118318332 118 0 11 416 2204
vector 9331  Network.dyn_peer[6]  lookupStabilitySig:vector  ETV
9331	85207 4441 274 48332 20.300007 6221.904118318332 118 0.22222220897675 1 85.821664609015 66.567454910242
vector 9332  Network.dyn_peer[6]  lookupTimeSig:vector  ETV
9332	89648 3470 274 48332 20.300007 6221.904118318332 118 0 1.2 49.9 29.41
vector 9342  Network.dyn_peer[10]  lookupHopsSig:vector  ETV
9342	134474 4095 281 47987 20.300011 6221.002114277386 147 1 12 485 2389
vector 9343  Network.dyn_peer[10]  lookupStabilitySig:vector  ETV
9343	138569 5583 281 47987 20.300011 6221.002114277386 147 0 0.97368421033025 112.44250795245 91.074746181335
vector 9344  Network.dyn_peer[10]  lookupTimeSig:vector  ETV
9344	144152 4382 281 47987 20.300011 6221.002114277386 147 0.1 1.3 59.5 32.31
vector 9345  Network.dyn_peer[11]  lookupHopsSig:vector  ETV
9345	148534 3653 286 48215 20.300012 6221.512968237001 130 0 17 464 2596
vector 9346  Network.dyn_peer[11]  lookupStabilitySig:vector  ETV
9346	152187 4926 286 48215 20.300012 6221.512968237001 130 0 1 96.158570148051 75.874721741997
vector 9347  Network.dyn_peer[11]  lookupTimeSig:vector  ETV
9347	157113 3898 286 48215 20.300012 6221.512968237001 130 0 1.8 55.8 34.32
vector 9360  Network.dyn_peer[16]  lookupHopsSig:vector  ETV
9360	215806 3459 294 47919 20.300017 6220.900941 126 0 12 382 1818
vector 9361  Network.dyn_peer[16]  lookupStabilitySig:vector  ETV
9361	219265 4636 294 47919 20.300017 6220.900941 126 0.25 1 94.036127584055 74.670217095427
vector 9362  Network.dyn_peer[16]  lookupTimeSig:vector  ETV
9362	223901 3701 294 47919 20.300017 6220.900941 126 0 1.3 47.1 24.93
vector 9372  Network.dyn_peer[20]  lookupHopsSig:vector  ETV
9372	265363 3454 302 48218 20.300021 6221.513831226999 126 0 12 399 1895
vector 9373  Network.dyn_peer[20]  lookupStabilitySig:vector  ETV
9373	268817 4582 302 48218 20.300021 6221.513831226999 126 0.125 1 94.373240996152 75.072801579533
vector 9374  Network.dyn_peer[20]  lookupTimeSig:vector  ETV
9374	273399 3693 302 48218 20.300021 6221.513831226999 126 0 1.3 49.3 26.65
vector 9351  Network.dyn_peer[13]  lookupHopsSig:vector  ETV
9351	173737 4095 340 48345 20.400014 6221.915997469035 146 0 10 473 2235
vector 9352  Network.dyn_peer[13]  lookupStabilitySig:vector  ETV
9352	177832 5581 340 48345 20.400014 6221.915997469035 146 0.25 1 111.27179245092 89.901223151897
vector 9353  Network.dyn_peer[13]  lookupTimeSig:vector  ETV
9353	183413 4376 340 48345 20.400014 6221.915997469035 146 0 1.1 58.6 31.4
vector 9369  Network.dyn_peer[19]  lookupHopsSig:vector  ETV
9369	252180 3840 350 48564 20.40002 6223.42783105782 138 0 13 502 2512
vector 9370  Network.dyn_peer[19]  lookupStabilitySig:vector  ETV
9370	256020 5238 350 48564 20.40002 6223.42783105782 138 0 1 102.63947894983 81.549510079459
vector 9371  Network.dyn_peer[19]  lookupTimeSig:vector  ETV
9371	261258 4105 350 48564 20.40002 6223.42783105782 138 0 1.4 60.6 34.28
vector 9378  Network.dyn_peer[22]  lookupHopsSig:vector  ETV
9378	291528 3484 358 47941 20.400023 6220.904043086677 126 0 11 409 1953
vector 9379  Network.dyn_peer[22]  lookupStabilitySig:vector  ETV
9379	295012 4706 358 47941 20.400023 6220.904043086677 126 -0.11111116409302 1 93.466123789549 74.246556725798
vector 9380  Network.dyn_peer[22]  lookupTimeSig:vector  ETV
9380	299718 3721 358 47941 20.400023 6220.904043086677 126 0 1.2 49.9 26.61
vector 9381  Network.dyn_peer[23]  lookupHopsSig:vector  ETV
9381	303439 3713 363 48353 20.400024 6221.918208166332 134 0 13 460 2298
vector 9382  Network.dyn_peer[23]  lookupStabilitySig:vector  ETV
9382	307152 5095 363 48353 20.400024 6221.918208166332 134 0.125 1 99.293646618724 78.864170851178
vector 9383  Network.dyn_peer[23]  lookupTimeSig:vector  ETV
9383	312247 3969 363 48353 20.400024 6221.918208166332 134 0 1.4 55.9 31.15
vector 9387  Network.dyn_peer[25]  lookupHopsSig:vector  ETV
9387	327624 3964 369 48466 20.400026 6222.526166245137 142 0 11 464 2138
vector 9388  Network.dyn_peer[25]  lookupStabilitySig:vector  ETV
9388	331588 5415 369 48466 20.400026 6222.526166245137 142 0.25 1 106.80232101865 85.554231440321
vector 9389  Network.dyn_peer[25]  lookupTimeSig:vector  ETV
9389	337003 4243 369 48466 20.400026 6222.526166245137 142 0 1.2 57 29.62
vector 9384  Network.dyn_peer[24]  lookupHopsSig:vector  ETV
9384	316216 3568 412 47344 20.500025 6120.93941345869 128 0 6 247 701
vector 9385  Network.dyn_peer[24]  lookupStabilitySig:vector  ETV
9385	319784 4022 412 47344 20.500025 6120.93941345869 128 0.25 1 97.125 77.203125
vector 9386  Network.dyn_peer[24]  lookupTimeSig:vector  ETV
9386	323806 3818 412 47344 20.500025 6120.93941345869 128 0 0.5 32 9.12
vector 9393  Network.dyn_peer[27]  lookupHopsSig:vector  ETV
9393	352881 4297 419 48412 20.500028 6222.210755584582 153 1 11 504 2336
vector 9394  Network.dyn_peer[27]  lookupStabilitySig:vector  ETV
9394	357178 5953 419 48412 20.500028 6222.210755584582 153 0.125 0.97368421033025 116.35523326322 94.740797653523
vector 9395  Network.dyn_peer[27]  lookupTimeSig:vector  ETV
9395	363131 4598 419 48412 20.500028 6222.210755584582 153 0.1 1.2 62.2 32.44
vector 9312  Network.dyn_peer[0]  lookupHopsSig:vector  ETV
9312	6379 4548 444 47989 20.600001 6221.002271412819 161 0 15 572 3240
vector 9313  Network.dyn_peer[0]  lookupStabilitySig:vector  ETV
9313	10927 6299 444 47989 20.600001 6221.002271412819 161 0 1 125.10162356868 103.84578190656
vector 9314  Network.dyn_peer[0]  lookupTimeSig:vector  ETV
9314	17226 4849 444 47989 20.600001 6221.002271412819 161 0 1.4 69.7 42.95
vector 9396  Network.dyn_peer[28]  lookupHopsSig:vector  ETV
9396	367729 3879 467 48497 20.600029 6222.734200405128 140 0 14 463 2417
vector 9397  Network.dyn_peer[28]  lookupStabilitySig:vector  ETV
9397	371608 5192 467 48497 20.600029 6222.734200405128 140 0.125 1 106.96604405716 86.494984910706
vector 9398  Network.dyn_peer[28]  lookupTimeSig:vector  ETV
9398	376800 4141 467 48497 20.600029 6222.734200405128 140 0 1.5 57 33.12
vector 9357  Network.dyn_peer[15]  lookupHopsSig:vector  ETV
9357	202627 3830 498 48375 20.700016 6222.014008027452 137 0 12 451 2223
vector 9358  Network.dyn_peer[15]  lookupStabilitySig:vector  ETV
9358	206457 5255 498 48375 20.700016 6222.014008027452 137 0.125 1 103.35043333843 83.355669764749
vector 9359  Network.dyn_peer[15]  lookupTimeSig:vector  ETV
9359	211712 4094 498 48375 20.700016 6222.014008027452 137 0 1.3 55.5 30.33
