file 423194 1369674149                                          
version 2
run Stability-108-20130524-20:24:18-3483
attr configname Stability
attr datetime 20130524-20:24:18
attr experiment Stability
attr inifile omnetpp.ini
attr iterationvars $0=1e-4
attr iterationvars2 "$0=1e-4, $repetition=8"
attr measurement $0=1e-4
attr network Network
attr processid 3483
attr repetition 8
attr replication #8
attr resultdir results
attr runnumber 108
attr seedset 108
vector 10377  Network.dyn_peer[3]  lookupHopsSig:vector  ETV
10377	45324 3773 38 47568 20.0000004 6221.517235810577 129 0 10 394 1768
vector 10378  Network.dyn_peer[3]  lookupStabilitySig:vector  ETV
10378	49097 4982 38 47568 20.0000004 6221.517235810577 129 0.125 1 98.25206919387 79.197539254792
vector 10379  Network.dyn_peer[3]  lookupTimeSig:vector  ETV
10379	54079 4012 38 47568 20.0000004 6221.517235810577 129 0 1.1 49.1 25.31
vector 10383  Network.dyn_peer[5]  lookupHopsSig:vector  ETV
10383	71663 3950 48 47580 20.0000006 6221.606216854877 135 0 13 461 2373
vector 10384  Network.dyn_peer[5]  lookupStabilitySig:vector  ETV
10384	75613 5284 48 47580 20.0000006 6221.606216854877 135 0.125 1 102.01182742044 81.548531473629
vector 10385  Network.dyn_peer[5]  lookupTimeSig:vector  ETV
10385	80897 4204 48 47580 20.0000006 6221.606216854877 135 0 1.4 56 31.98
vector 10416  Network.dyn_peer[16]  lookupHopsSig:vector  ETV
10416	217065 4153 85 47603 20.0000017 6221.704668305328 142 0 12 466 2294
vector 10417  Network.dyn_peer[16]  lookupStabilitySig:vector  ETV
10417	221218 5722 85 47603 20.0000017 6221.704668305328 142 0 1 108.470206514 89.088599482173
vector 10418  Network.dyn_peer[16]  lookupTimeSig:vector  ETV
10418	226940 4426 85 47603 20.0000017 6221.704668305328 142 0 1.3 57.5 31.23
vector 10368  Network.dyn_peer[0]  lookupHopsSig:vector  ETV
10368	6478 3484 135 47292 20.1000001 6220.801094586969 120 0 10 359 1659
vector 10369  Network.dyn_peer[0]  lookupStabilitySig:vector  ETV
10369	9962 4612 135 47292 20.1000001 6220.801094586969 120 0.25 1 91.075501773506 73.383192803687
vector 10370  Network.dyn_peer[0]  lookupTimeSig:vector  ETV
10370	14574 3717 135 47292 20.1000001 6220.801094586969 120 0 1.1 44.2 22.78
vector 10374  Network.dyn_peer[2]  lookupHopsSig:vector  ETV
10374	33006 3626 141 47198 20.1000003 6220.6000946 125 0 11 390 1836
vector 10375  Network.dyn_peer[2]  lookupStabilitySig:vector  ETV
10375	36632 4829 141 47198 20.1000003 6220.6000946 125 0.18181818723679 1 94.447637949139 75.456616082537
vector 10376  Network.dyn_peer[2]  lookupTimeSig:vector  ETV
10376	41461 3863 141 47198 20.1000003 6220.6000946 125 0 1.2 48.1 25.41
vector 10380  Network.dyn_peer[4]  lookupHopsSig:vector  ETV
10380	58091 3961 147 47505 20.1000005 6221.311018058392 135 0 12 442 2110
vector 10381  Network.dyn_peer[4]  lookupStabilitySig:vector  ETV
10381	62052 5388 147 47505 20.1000005 6221.311018058392 135 0.125 1 102.12858580425 82.412428396541
vector 10382  Network.dyn_peer[4]  lookupTimeSig:vector  ETV
10382	67440 4223 147 47505 20.1000005 6221.311018058392 135 0 1.3 54.1 29.23
vector 10386  Network.dyn_peer[6]  lookupHopsSig:vector  ETV
10386	85101 4266 153 47247 20.1000007 6220.700096 145 0 13 475 2303
vector 10387  Network.dyn_peer[6]  lookupStabilitySig:vector  ETV
10387	89367 5768 153 47247 20.1000007 6220.700096 145 -0.10000002384186 1 110.63907352462 90.099657468543
vector 10388  Network.dyn_peer[6]  lookupTimeSig:vector  ETV
10388	95135 4546 153 47247 20.1000007 6220.700096 145 0 1.4 58.3 31.51
vector 10392  Network.dyn_peer[8]  lookupHopsSig:vector  ETV
10392	111808 4090 159 47613 20.1000009 6221.717693019992 140 0 13 471 2229
vector 10393  Network.dyn_peer[8]  lookupStabilitySig:vector  ETV
10393	115898 5642 159 47613 20.1000009 6221.717693019992 140 0.071428596973419 1 106.78143086471 86.222995750789
vector 10394  Network.dyn_peer[8]  lookupTimeSig:vector  ETV
10394	121540 4362 159 47613 20.1000009 6221.717693019992 140 0 1.3 57.8 30.86
vector 10398  Network.dyn_peer[10]  lookupHopsSig:vector  ETV
10398	138445 3601 165 46763 20.1000011 6121.013571361338 123 0 6 239 685
vector 10399  Network.dyn_peer[10]  lookupStabilitySig:vector  ETV
10399	142046 4037 165 46763 20.1000011 6121.013571361338 123 0.25 1 93.125 73.953125
vector 10400  Network.dyn_peer[10]  lookupTimeSig:vector  ETV
10400	146083 3843 165 46763 20.1000011 6121.013571361338 123 0 0.5 30.8 8.8
vector 10419  Network.dyn_peer[17]  lookupHopsSig:vector  ETV
10419	231366 3785 176 47405 20.1000018 6221.1000941 130 0 17 429 2149
vector 10420  Network.dyn_peer[17]  lookupStabilitySig:vector  ETV
10420	235151 5072 176 47405 20.1000018 6221.1000941 130 0.25 1 98.581712525338 79.087630788877
vector 10421  Network.dyn_peer[17]  lookupTimeSig:vector  ETV
10421	240223 4029 176 47405 20.1000018 6221.1000941 130 0 1.8 52.6 29.5
vector 10422  Network.dyn_peer[18]  lookupHopsSig:vector  ETV
10422	244252 3719 181 47334 20.1000019 6220.9000955 128 0 12 480 2546
vector 10423  Network.dyn_peer[18]  lookupStabilitySig:vector  ETV
10423	247971 4996 181 47334 20.1000019 6220.9000955 128 -0.090909123420715 1 94.419434336945 74.737256632874
vector 10424  Network.dyn_peer[18]  lookupTimeSig:vector  ETV
10424	252967 3965 181 47334 20.1000019 6220.9000955 128 0 1.2 57.2 33.8
vector 10428  Network.dyn_peer[20]  lookupHopsSig:vector  ETV
10428	269370 3876 187 47676 20.1000021 6222.436561313058 132 0 11 440 2164
vector 10429  Network.dyn_peer[20]  lookupStabilitySig:vector  ETV
10429	273246 5141 187 47676 20.1000021 6222.436561313058 132 0 1 99.012957192957 79.75327914214
vector 10430  Network.dyn_peer[20]  lookupTimeSig:vector  ETV
10430	278387 4130 187 47676 20.1000021 6222.436561313058 132 0 1.2 53.6 29.78
vector 10395  Network.dyn_peer[9]  lookupHopsSig:vector  ETV
10395	125902 3683 213 47366 20.200001 6221.0000948 127 0 11 403 1919
vector 10396  Network.dyn_peer[9]  lookupStabilitySig:vector  ETV
10396	129585 4932 213 47366 20.200001 6221.0000948 127 0.125 1 96.193265197799 77.546819057726
vector 10397  Network.dyn_peer[9]  lookupTimeSig:vector  ETV
10397	134517 3928 213 47366 20.200001 6221.0000948 127 0 1.2 49.6 26.8
vector 10401  Network.dyn_peer[11]  lookupHopsSig:vector  ETV
10401	149926 3928 219 47562 20.2000012 6221.512779771198 134 0 12 431 1995
vector 10402  Network.dyn_peer[11]  lookupStabilitySig:vector  ETV
10402	153854 5354 219 47562 20.2000012 6221.512779771198 134 0 1 101.14258440398 81.249357106544
vector 10403  Network.dyn_peer[11]  lookupTimeSig:vector  ETV
10403	159208 4187 219 47562 20.2000012 6221.512779771198 134 0 1.3 53 27.36
vector 10413  Network.dyn_peer[15]  lookupHopsSig:vector  ETV
10413	204945 3551 227 47444 20.2000016 6221.2000932 122 0 13 423 2155
vector 10414  Network.dyn_peer[15]  lookupStabilitySig:vector  ETV
10414	208496 4784 227 47444 20.2000016 6221.2000932 122 0.125 1 90.250582888722 71.08102406845
vector 10415  Network.dyn_peer[15]  lookupTimeSig:vector  ETV
10415	213280 3785 227 47444 20.2000016 6221.2000932 122 0 1.4 51.1 28.91
vector 10425  Network.dyn_peer[19]  lookupHopsSig:vector  ETV
10425	256932 3649 235 47576 20.200002 6221.604165359018 125 0 14 415 2099
vector 10426  Network.dyn_peer[19]  lookupStabilitySig:vector  ETV
10426	260581 4908 235 47576 20.200002 6221.604165359018 125 0.10000002384186 1 93.036322597414 74.449233049813
vector 10427  Network.dyn_peer[19]  lookupTimeSig:vector  ETV
10427	265489 3881 235 47576 20.200002 6221.604165359018 125 0 1.5 50.5 28.63
vector 10431  Network.dyn_peer[21]  lookupHopsSig:vector  ETV
10431	282517 3363 241 47532 20.2000022 6221.407582685815 116 0 15 382 1876
vector 10432  Network.dyn_peer[21]  lookupStabilitySig:vector  ETV
10432	285880 4405 241 47532 20.2000022 6221.407582685815 116 0.25 1 86.014136081562 67.171702624522
vector 10433  Network.dyn_peer[21]  lookupTimeSig:vector  ETV
10433	290285 3587 241 47532 20.2000022 6221.407582685815 116 0 1.6 46.4 25.82
vector 10434  Network.dyn_peer[22]  lookupHopsSig:vector  ETV
10434	293872 3448 246 47523 20.2000023 6221.404551812703 119 0 12 423 2269
vector 10435  Network.dyn_peer[22]  lookupStabilitySig:vector  ETV
10435	297320 4521 246 47523 20.2000023 6221.404551812703 119 0.125 1 87.594193965197 68.476833054549
vector 10436  Network.dyn_peer[22]  lookupTimeSig:vector  ETV
10436	301841 3670 246 47523 20.2000023 6221.404551812703 119 0 1.3 50.8 30.62
vector 10440  Network.dyn_peer[24]  lookupHopsSig:vector  ETV
10440	319523 3799 252 47432 20.2000025 6221.109266941496 131 0 15 438 2322
vector 10441  Network.dyn_peer[24]  lookupStabilitySig:vector  ETV
10441	323322 5110 252 47432 20.2000025 6221.109266941496 131 0.22222220897675 1 99.736809009686 80.725863072389
vector 10442  Network.dyn_peer[24]  lookupTimeSig:vector  ETV
10442	328432 4046 252 47432 20.2000025 6221.109266941496 131 0 1.6 53.7 31.71
vector 10443  Network.dyn_peer[25]  lookupHopsSig:vector  ETV
10443	332478 3362 257 47297 20.2000026 6220.802656759968 116 0 15 372 1850
vector 10444  Network.dyn_peer[25]  lookupStabilitySig:vector  ETV
10444	335840 4472 257 47297 20.2000026 6220.802656759968 116 0 1 85.623710591346 67.50599981138
vector 10445  Network.dyn_peer[25]  lookupTimeSig:vector  ETV
10445	340312 3585 257 47297 20.2000026 6220.802656759968 116 0 1.6 45.1 24.89
vector 10446  Network.dyn_peer[26]  lookupHopsSig:vector  ETV
10446	343897 3921 262 47503 20.2000027 6221.309142872732 133 0 11 422 1922
vector 10447  Network.dyn_peer[26]  lookupStabilitySig:vector  ETV
10447	347818 5235 262 47503 20.2000027 6221.309142872732 133 0.22222220897675 1 101.12413651869 80.802668347645
vector 10448  Network.dyn_peer[26]  lookupTimeSig:vector  ETV
10448	353053 4171 262 47503 20.2000027 6221.309142872732 133 0 1.2 51.8 27.14
vector 10371  Network.dyn_peer[1]  lookupHopsSig:vector  ETV
10371	18291 4307 282 47480 20.3000002 6221.216603868546 147 0 11 475 2139
vector 10372  Network.dyn_peer[1]  lookupStabilitySig:vector  ETV
10372	22598 5818 282 47480 20.3000002 6221.216603868546 147 0.19999998807907 1 112.7769220937 91.407608599252
vector 10373  Network.dyn_peer[1]  lookupTimeSig:vector  ETV
10373	28416 4590 282 47480 20.3000002 6221.216603868546 147 0 1.2 58.5 29.75
vector 10404  Network.dyn_peer[12]  lookupHopsSig:vector  ETV
10404	163395 3636 296 47424 20.3000013 6221.105707545409 125 0 11 433 2099
vector 10405  Network.dyn_peer[12]  lookupStabilitySig:vector  ETV
10405	167031 4899 296 47424 20.3000013 6221.105707545409 125 0 1 92.179128091782 72.691858864079
vector 10406  Network.dyn_peer[12]  lookupTimeSig:vector  ETV
10406	171930 3880 296 47424 20.3000013 6221.105707545409 125 0 1.2 52.2 28.52
vector 10437  Network.dyn_peer[23]  lookupHopsSig:vector  ETV
10437	305511 4098 312 47539 20.3000024 6221.411102217014 140 0 15 453 2183
vector 10438  Network.dyn_peer[23]  lookupStabilitySig:vector  ETV
10438	309609 5546 312 47539 20.3000024 6221.411102217014 140 0.25 1 107.61444850639 86.922072853167
vector 10439  Network.dyn_peer[23]  lookupTimeSig:vector  ETV
10439	315155 4368 312 47539 20.3000024 6221.411102217014 140 0 1.6 56 30.5
vector 10452  Network.dyn_peer[28]  lookupHopsSig:vector  ETV
10452	371503 3836 320 47574 20.3000029 6221.603459277504 132 0 13 433 2055
vector 10453  Network.dyn_peer[28]  lookupStabilitySig:vector  ETV
10453	375339 5226 320 47574 20.3000029 6221.603459277504 132 0.125 1 99.53131182678 79.52666962105
vector 10454  Network.dyn_peer[28]  lookupTimeSig:vector  ETV
10454	380565 4092 320 47574 20.3000029 6221.603459277504 132 0 1.4 53 28.3
vector 10407  Network.dyn_peer[13]  lookupHopsSig:vector  ETV
10407	175810 4079 348 47457 20.4000014 6221.203809750492 139 0 11 471 2279
vector 10408  Network.dyn_peer[13]  lookupStabilitySig:vector  ETV
10408	179889 5563 348 47457 20.4000014 6221.203809750492 139 0.125 1 105.72636212781 85.579432755022
vector 10409  Network.dyn_peer[13]  lookupTimeSig:vector  ETV
10409	185452 4348 348 47457 20.4000014 6221.203809750492 139 0 1.2 57.6 31.5
vector 10410  Network.dyn_peer[14]  lookupHopsSig:vector  ETV
10410	189800 4418 353 47656 20.4000015 6222.109476652718 150 0 11 514 2604
vector 10411  Network.dyn_peer[14]  lookupStabilitySig:vector  ETV
10411	194218 6029 353 47656 20.4000015 6222.109476652718 150 0.125 1 116.20571454056 95.129038320189
vector 10412  Network.dyn_peer[14]  lookupTimeSig:vector  ETV
10412	200247 4698 353 47656 20.4000015 6222.109476652718 150 0 1.2 63.1 35.69
vector 10455  Network.dyn_peer[29]  lookupHopsSig:vector  ETV
10455	384657 3059 370 47673 20.400003 6222.419020416093 107 0 12 353 1759
vector 10456  Network.dyn_peer[29]  lookupStabilitySig:vector  ETV
10456	387716 3963 370 47673 20.400003 6222.419020416093 107 0 1 77.15860979259 59.974801122864
vector 10457  Network.dyn_peer[29]  lookupTimeSig:vector  ETV
10457	391679 3257 370 47673 20.400003 6222.419020416093 107 0 1.3 42.5 23.89
vector 10389  Network.dyn_peer[7]  lookupHopsSig:vector  ETV
10389	99681 3575 394 47587 20.5000008 6221.609591743777 123 0 12 410 1992
vector 10390  Network.dyn_peer[7]  lookupStabilitySig:vector  ETV
10390	103256 4744 394 47587 20.5000008 6221.609591743777 123 0.18181818723679 1 92.13349506259 73.023076786108
vector 10391  Network.dyn_peer[7]  lookupTimeSig:vector  ETV
10391	108000 3808 394 47587 20.5000008 6221.609591743777 123 0 1.3 50 27.28
vector 10449  Network.dyn_peer[27]  lookupHopsSig:vector  ETV
10449	357224 4172 414 47403 20.5000028 6221.100094 142 0 13 504 2840
vector 10450  Network.dyn_peer[27]  lookupStabilitySig:vector  ETV
10450	361396 5670 414 47403 20.5000028 6221.100094 142 0 1 108.40849170648 89.045718509777
vector 10451  Network.dyn_peer[27]  lookupTimeSig:vector  ETV
10451	367066 4437 414 47403 20.5000028 6221.100094 142 0 1.4 61.2 38.14
vector 10458  Network.dyn_peer[30]  lookupHopsSig:vector  ETV
10458	394936 4166 421 47534 20.5000031 6221.408317418103 142 0 9 479 2205
vector 10459  Network.dyn_peer[30]  lookupStabilitySig:vector  ETV
10459	399102 5747 421 47534 20.5000031 6221.408317418103 142 0.11111110448837 1 107.12122746557 86.870868542591
vector 10460  Network.dyn_peer[30]  lookupTimeSig:vector  ETV
10460	404849 4440 421 47534 20.5000031 6221.408317418103 142 0 1 58.6 30.6
vector 10461  Network.dyn_peer[31]  lookupHopsSig:vector  ETV
10461	409289 4082 426 47648 20.5000032 6222.015535986625 139 0 9 447 2027
vector 10462  Network.dyn_peer[31]  lookupStabilitySig:vector  ETV
10462	413371 5475 426 47648 20.5000032 6222.015535986625 139 0.125 1 106.40098695457 86.316706463656
vector 10463  Network.dyn_peer[31]  lookupTimeSig:vector  ETV
10463	418846 4348 426 47648 20.5000032 6222.015535986625 139 0 1 55.2 28.52
