version 2
run Stability-35-20130524-20:22:02-3483
attr configname Stability
attr datetime 20130524-20:22:02
attr experiment Stability
attr inifile omnetpp.ini
attr iterationvars $0=1e3
attr iterationvars2 "$0=1e3, $repetition=5"
attr measurement $0=1e3
attr network Network
attr processid 3483
attr repetition 5
attr replication #5
attr resultdir results
attr runnumber 35
attr seedset 35

vector 3360  Network.dyn_peer[0]  lookupHopsSig:vector  ETV
vector 3361  Network.dyn_peer[0]  lookupStabilitySig:vector  ETV
vector 3362  Network.dyn_peer[0]  lookupTimeSig:vector  ETV
vector 3363  Network.dyn_peer[1]  lookupHopsSig:vector  ETV
vector 3364  Network.dyn_peer[1]  lookupStabilitySig:vector  ETV
vector 3365  Network.dyn_peer[1]  lookupTimeSig:vector  ETV
vector 3366  Network.dyn_peer[2]  lookupHopsSig:vector  ETV
vector 3367  Network.dyn_peer[2]  lookupStabilitySig:vector  ETV
vector 3368  Network.dyn_peer[2]  lookupTimeSig:vector  ETV
vector 3369  Network.dyn_peer[3]  lookupHopsSig:vector  ETV
vector 3370  Network.dyn_peer[3]  lookupStabilitySig:vector  ETV
vector 3371  Network.dyn_peer[3]  lookupTimeSig:vector  ETV
vector 3372  Network.dyn_peer[4]  lookupHopsSig:vector  ETV
vector 3373  Network.dyn_peer[4]  lookupStabilitySig:vector  ETV
vector 3374  Network.dyn_peer[4]  lookupTimeSig:vector  ETV
vector 3375  Network.dyn_peer[5]  lookupHopsSig:vector  ETV
vector 3376  Network.dyn_peer[5]  lookupStabilitySig:vector  ETV
vector 3377  Network.dyn_peer[5]  lookupTimeSig:vector  ETV
vector 3378  Network.dyn_peer[6]  lookupHopsSig:vector  ETV
vector 3379  Network.dyn_peer[6]  lookupStabilitySig:vector  ETV
vector 3380  Network.dyn_peer[6]  lookupTimeSig:vector  ETV
vector 3381  Network.dyn_peer[7]  lookupHopsSig:vector  ETV
vector 3382  Network.dyn_peer[7]  lookupStabilitySig:vector  ETV
vector 3383  Network.dyn_peer[7]  lookupTimeSig:vector  ETV
vector 3384  Network.dyn_peer[8]  lookupHopsSig:vector  ETV
vector 3385  Network.dyn_peer[8]  lookupStabilitySig:vector  ETV
vector 3386  Network.dyn_peer[8]  lookupTimeSig:vector  ETV
vector 3387  Network.dyn_peer[9]  lookupHopsSig:vector  ETV
vector 3388  Network.dyn_peer[9]  lookupStabilitySig:vector  ETV
vector 3389  Network.dyn_peer[9]  lookupTimeSig:vector  ETV
vector 3390  Network.dyn_peer[10]  lookupHopsSig:vector  ETV
vector 3391  Network.dyn_peer[10]  lookupStabilitySig:vector  ETV
vector 3392  Network.dyn_peer[10]  lookupTimeSig:vector  ETV
vector 3393  Network.dyn_peer[11]  lookupHopsSig:vector  ETV
vector 3394  Network.dyn_peer[11]  lookupStabilitySig:vector  ETV
vector 3395  Network.dyn_peer[11]  lookupTimeSig:vector  ETV
vector 3396  Network.dyn_peer[12]  lookupHopsSig:vector  ETV
vector 3397  Network.dyn_peer[12]  lookupStabilitySig:vector  ETV
vector 3398  Network.dyn_peer[12]  lookupTimeSig:vector  ETV
vector 3399  Network.dyn_peer[13]  lookupHopsSig:vector  ETV
vector 3400  Network.dyn_peer[13]  lookupStabilitySig:vector  ETV
vector 3401  Network.dyn_peer[13]  lookupTimeSig:vector  ETV
vector 3402  Network.dyn_peer[14]  lookupHopsSig:vector  ETV
vector 3403  Network.dyn_peer[14]  lookupStabilitySig:vector  ETV
vector 3404  Network.dyn_peer[14]  lookupTimeSig:vector  ETV
vector 3405  Network.dyn_peer[15]  lookupHopsSig:vector  ETV
vector 3406  Network.dyn_peer[15]  lookupStabilitySig:vector  ETV
vector 3407  Network.dyn_peer[15]  lookupTimeSig:vector  ETV
vector 3408  Network.dyn_peer[16]  lookupHopsSig:vector  ETV
vector 3409  Network.dyn_peer[16]  lookupStabilitySig:vector  ETV
vector 3410  Network.dyn_peer[16]  lookupTimeSig:vector  ETV
vector 3411  Network.dyn_peer[17]  lookupHopsSig:vector  ETV
vector 3412  Network.dyn_peer[17]  lookupStabilitySig:vector  ETV
vector 3413  Network.dyn_peer[17]  lookupTimeSig:vector  ETV
vector 3414  Network.dyn_peer[18]  lookupHopsSig:vector  ETV
vector 3415  Network.dyn_peer[18]  lookupStabilitySig:vector  ETV
vector 3416  Network.dyn_peer[18]  lookupTimeSig:vector  ETV
vector 3417  Network.dyn_peer[19]  lookupHopsSig:vector  ETV
vector 3418  Network.dyn_peer[19]  lookupStabilitySig:vector  ETV
vector 3419  Network.dyn_peer[19]  lookupTimeSig:vector  ETV
vector 3420  Network.dyn_peer[20]  lookupHopsSig:vector  ETV
vector 3421  Network.dyn_peer[20]  lookupStabilitySig:vector  ETV
vector 3422  Network.dyn_peer[20]  lookupTimeSig:vector  ETV
vector 3423  Network.dyn_peer[21]  lookupHopsSig:vector  ETV
vector 3424  Network.dyn_peer[21]  lookupStabilitySig:vector  ETV
vector 3425  Network.dyn_peer[21]  lookupTimeSig:vector  ETV
vector 3426  Network.dyn_peer[22]  lookupHopsSig:vector  ETV
vector 3427  Network.dyn_peer[22]  lookupStabilitySig:vector  ETV
vector 3428  Network.dyn_peer[22]  lookupTimeSig:vector  ETV
vector 3429  Network.dyn_peer[23]  lookupHopsSig:vector  ETV
vector 3430  Network.dyn_peer[23]  lookupStabilitySig:vector  ETV
vector 3431  Network.dyn_peer[23]  lookupTimeSig:vector  ETV
vector 3432  Network.dyn_peer[24]  lookupHopsSig:vector  ETV
vector 3433  Network.dyn_peer[24]  lookupStabilitySig:vector  ETV
vector 3434  Network.dyn_peer[24]  lookupTimeSig:vector  ETV
vector 3435  Network.dyn_peer[25]  lookupHopsSig:vector  ETV
vector 3436  Network.dyn_peer[25]  lookupStabilitySig:vector  ETV
vector 3437  Network.dyn_peer[25]  lookupTimeSig:vector  ETV
vector 3438  Network.dyn_peer[26]  lookupHopsSig:vector  ETV
vector 3439  Network.dyn_peer[26]  lookupStabilitySig:vector  ETV
vector 3440  Network.dyn_peer[26]  lookupTimeSig:vector  ETV
vector 3441  Network.dyn_peer[27]  lookupHopsSig:vector  ETV
vector 3442  Network.dyn_peer[27]  lookupStabilitySig:vector  ETV
vector 3443  Network.dyn_peer[27]  lookupTimeSig:vector  ETV
vector 3444  Network.dyn_peer[28]  lookupHopsSig:vector  ETV
vector 3445  Network.dyn_peer[28]  lookupStabilitySig:vector  ETV
vector 3446  Network.dyn_peer[28]  lookupTimeSig:vector  ETV
vector 3447  Network.dyn_peer[29]  lookupHopsSig:vector  ETV
vector 3448  Network.dyn_peer[29]  lookupStabilitySig:vector  ETV
vector 3449  Network.dyn_peer[29]  lookupTimeSig:vector  ETV
vector 3450  Network.dyn_peer[30]  lookupHopsSig:vector  ETV
vector 3451  Network.dyn_peer[30]  lookupStabilitySig:vector  ETV
vector 3452  Network.dyn_peer[30]  lookupTimeSig:vector  ETV
vector 3453  Network.dyn_peer[31]  lookupHopsSig:vector  ETV
vector 3454  Network.dyn_peer[31]  lookupStabilitySig:vector  ETV
vector 3455  Network.dyn_peer[31]  lookupTimeSig:vector  ETV
3360	32	21.2	2
3360	35	21.4	1
3360	39	21.609811451632	1
3360	46	21.919992994699	2
3360	126	24.506191647693	2
3360	135	24.706996309792	1
3360	154	24.936735014266	1
3360	315	28.403873075328	2
3360	342	28.810344000095	3
3360	395	29.320212253024	4
3360	407	29.527255143645	1
3360	424	29.830079574764	2
3360	2184	152	0
3360	2187	152.2	1
3360	2191	152.401044449075	1
3360	2195	152.610762540148	1
3360	4291	283.1	1
3360	4294	283.3	1
3360	4298	283.507926592291	1
3360	4307	283.747670370465	1
3360	5218	306.6334832292	4
3360	5233	306.84355821434	1
3360	5250	307.152325514881	2
3360	6322	414.2	2
3360	6325	414.4	1
3360	6331	414.621378675175	1
3360	6335	414.823699990207	1
3360	7800	446.3	3
3360	7813	446.7	3
3360	7832	447.105831497181	3
3360	7858	447.611515354444	4
3360	7877	448.012214635291	3
3360	7909	448.515380547886	4
3360	7927	448.720718423089	1
3360	7941	448.929947080826	1
3360	7975	449.33248771541	3
3360	10025	578.2	2
3360	10048	578.6	3
3360	10073	579.007869378624	3
3360	10103	579.414526589112	3
3360	10134	579.82164332952	3
3360	10152	580.021699178343	1
3360	12135	708.6	6
3360	12162	709	3
3360	12181	709.208891458208	1
3360	12200	709.410824565607	1
3360	13884	838.4	4
3360	13897	838.9	4
3360	13905	839.107957720363	1
3360	13917	839.414804866439	2
3360	13933	839.91794909798	4
3360	13952	840.218268001362	2
3360	13973	840.524462436557	2
3360	14003	840.924598688022	3
3360	14032	841.230319071348	2
3360	14072	841.635432031768	3
3360	15973	970.1	1
3360	16000	970.7	5
3360	16010	970.906602516872	1
3360	16042	971.509801866688	5
3360	16080	972.011769667403	4
3360	16097	972.220324341547	1
3360	16119	972.521221589401	2
3360	16139	972.8244066662	2
3360	16163	973.127714079139	2
3360	16190	973.429720922266	2
3360	16228	973.930322783165	4
3360	16274	974.432918990742	4
3360	16312	975.03586695523	5
3360	18161	1103.3	3
3360	18178	1103.5	1
3360	18217	1104.201478891186	6
3360	18236	1104.501644644408	2
3360	18297	1105.211228488093	6
3360	20175	1234.1	1
3360	20205	1234.509281962818	3
3360	20225	1234.811756520219	2
3360	20236	1235.011935164831	1
3360	22016	1364.5	5
3360	22034	1364.801899587982	2
3360	22064	1365.103390437243	2
3360	22087	1365.406716436289	2
3360	22115	1365.813896143384	3
3360	22143	1366.121582421801	2
3360	22171	1366.430468315825	2
3360	24240	1495.3	3
3360	24272	1495.7	3
3360	24287	1495.906951256166	1
3360	24306	1496.110892059225	1
3360	24331	1496.412486679246	2
3360	24349	1496.71501501398	2
3360	24366	1497.029206919604	2
3360	24390	1497.345854795324	2
3360	24404	1497.549935351703	1
3360	26331	1626.2	2
3360	26335	1626.5	2
3360	26342	1626.909600093122	3
3360	26350	1627.11704797425	1
3360	26362	1627.425184115939	2
3360	28284	1757.1	1
3360	28291	1757.3	1
3360	28303	1757.501890774699	1
3360	28320	1757.909812117094	3
3360	28335	1758.224705309288	2
3360	28362	1758.800157773667	3
3360	28381	1759.102063264558	2
3360	28400	1759.313889090688	1
3360	28415	1759.617766736705	2
3360	28424	1759.822865475508	1
3360	30281	1888.2	2
3360	30292	1888.4	1
3360	30301	1888.700000597862	2
3360	30313	1889.006944612462	2
3360	30326	1889.414685178759	3
3360	30336	1889.720417408632	2
3360	30343	1889.929069081515	1
3360	31233	1905.106739878663	6
3360	31251	1905.410650744502	2
3360	31285	1906.113947020381	6
3360	31352	1907.015369996906	8
3360	31383	1907.321477738688	2
3360	31428	1907.824397492578	4
3360	31493	1908.430473391052	5
3360	31568	1909.040414413158	5
3360	31605	1909.347122886965	2
3360	31660	1909.951083330835	5
3360	32648	2019.2	2
3360	32661	2019.5	2
3360	32669	2019.703300444355	1
3360	32675	2019.906191636458	1
3360	32758	2020.218165921043	3
3360	32770	2020.2491	1
3360	32785	2020.427799647296	1
3360	32788	2020.476036084521	1
3360	32916	2025.43042245544	1
3360	32935	2025.838016379105	3
3360	32952	2026.051168594825	1
3360	32994	2026.569160416739	4
3360	34804	2150.1	1
3360	34814	2150.336158838653	1
3360	34821	2150.662275347321	2
3360	34833	2150.908844639749	1
3360	35586	2169.717852923444	3
3360	35600	2169.922561023556	1
3360	35622	2170.222937266774	2
3360	35644	2170.535755341504	2
3360	35916	2174.804595555821	1
3360	35931	2175.107315871701	2
3360	35951	2175.30922254806	1
3360	36058	2176.805267575797	2
3360	36083	2177.1136105948	2
3360	36111	2177.422699286978	2
3360	36197	2178.703331051075	3
3360	36217	2179.104643968592	3
3360	36238	2179.306637288724	1
3360	36330	2180.500807990541	1
3360	36350	2180.908955751748	3
3360	36383	2181.314137393319	3
3360	36411	2181.620017835892	2
3360	36459	2182.225744761368	5
3360	36482	2182.531640179501	2
3360	36897	2281.2	2
3360	36900	2281.4	1
3360	36904	2281.606453810429	1
3360	36909	2281.812863009382	1
3360	37555	2297.504100881251	2
3360	37590	2298.013508055696	4
3360	37621	2298.5185165757	4
3360	37632	2298.730568496625	1
3360	38956	2412.1	1
3360	38962	2412.410664695489	2
3360	38966	2412.613588178373	1
3360	38971	2412.92324225812	2
3360	40469	2444.5	5
3360	40502	2445	4
3360	40549	2445.50533727114	4
3360	40590	2446.008861027033	4
3360	40604	2446.21315456272	1
3360	40626	2446.513302790281	2
3360	42514	2575.2	2
3360	42568	2575.9	6
3360	42587	2576.30845942754	3
3360	42611	2576.709048375607	3
3360	42659	2577.411990174889	6
3360	42692	2577.913383796313	4
3360	42716	2578.218123420875	2
3360	42774	2578.933461743895	6
3360	42807	2579.240272800548	2
3360	44826	2707.2	2
3360	44868	2707.9	6
3360	44903	2708.306946511839	3
3360	44948	2709.01851004104	6
3360	44973	2709.428145726794	3
3360	46763	2838.6	6
3360	46772	2838.9	2
3360	46782	2839.104987044876	1
3360	46818	2839.705232442518	5
3360	46862	2840.207378618682	4
3360	46897	2840.711291435837	4
3360	46911	2840.9144556118	1
3360	46925	2841.11894623516	1
3360	47636	2850.504053373902	2
3360	47665	2850.90950232246	3
3360	47707	2851.717932303885	7
3360	47720	2852.11856672651	3
3360	47724	2852.326139337898	1
3360	49001	2970.1	1
3360	49024	2970.6	4
3360	49039	2970.901933164093	2
3360	49054	2971.110031513999	1
3360	49085	2971.614194380338	4
3360	51120	3101.1	1
3360	51131	3101.3	1
3360	51141	3101.601969557935	2
3360	51150	3101.803256578256	1
3360	51173	3102.209562078133	3
3360	51198	3102.722105686708	4
3360	51226	3103.130833522404	3
3360	51261	3103.733635477823	5
3360	51744	3112.210991266499	6
3360	51788	3112.81891461477	5
3360	51806	3113.134410992285	2
3360	51818	3113.441087327633	2
3360	51830	3114.051818190983	5
3360	51838	3114.657339345097	5
3360	51844	3115.057837466393	3
3360	53008	3232.2	2
3360	53019	3232.6	3
3360	53034	3233.00816550194	3
3360	53056	3233.414990001448	3
3360	53066	3233.723206899933	2
3360	53091	3234.126384350299	3
3360	55336	3363.2	2
3360	55369	3363.7	4
3360	55382	3363.904648461721	1
3360	55404	3364.217908433741	2
3360	55416	3364.426175288457	1
3360	57413	3494.2	2
3360	57430	3494.5	2
3360	57438	3494.702212146795	1
3360	57452	3495.009541251711	2
3360	57464	3495.219066952441	1
3360	57479	3495.523411469864	2
3360	57495	3495.827517191191	2
3360	57522	3496.227997172622	3
3360	59730	3624	0
3360	59739	3624.2	1
3360	59753	3624.508400412238	2
3360	59759	3624.712047392268	1
3360	59770	3625.021906568494	2
3360	59786	3625.324958704243	2
3360	59800	3625.52693310052	1
3360	59813	3625.739782976687	1
3360	61875	3755.1	1
3360	61884	3755.4	2
3360	61892	3755.703626203383	2
3360	61907	3756.011323120107	2
3360	61921	3756.214481781068	1
3360	64025	3886.1	1
3360	64033	3886.3	1
3360	64041	3886.502359372435	1
3360	64047	3886.804922877301	2
3360	64486	3897.706289565209	3
3360	64499	3897.910709035908	1
3360	64528	3898.234047555333	2
3361	32	21.2	0.75
3361	35	21.4	0.875
3361	39	21.609811451632	0.875
3361	46	21.919992994699	0.75
3361	126	24.506191647693	0.81818181276321
3361	135	24.706996309792	0.90909090638161
3361	154	24.936735014266	0.90909090638161
3361	315	28.403873075328	0.85714285075665
3361	342	28.810344000095	0.78571428358555
3361	395	29.320212253024	0.75
3361	407	29.527255143645	0.9375
3361	424	29.830079574764	0.8823529407382
3361	2184	152	1
3361	2187	152.2	0.875
3361	2191	152.401044449075	0.875
3361	2195	152.610762540148	0.875
3361	4291	283.1	0.875
3361	4294	283.3	0.875
3361	4298	283.507926592291	0.875
3361	4307	283.747670370465	0.875
3361	5218	306.6334832292	0.87096774578094
3361	5233	306.84355821434	0.96774193644524
3361	5250	307.152325514881	0.93548387289047
3361	6322	414.2	0.75
3361	6325	414.4	0.875
3361	6331	414.621378675175	0.875
3361	6335	414.823699990207	0.875
3361	7800	446.3	0.9142857119441
3361	7813	446.7	0.9142857119441
3361	7832	447.105831497181	0.9142857119441
3361	7858	447.611515354444	0.88571428507566
3361	7877	448.012214635291	0.9142857119441
3361	7909	448.515380547886	0.88571428507566
3361	7927	448.720718423089	0.97222222201526
3361	7941	448.929947080826	0.97222222201526
3361	7975	449.33248771541	0.91666666418314
3361	10025	578.2	0.9411764703691
3361	10048	578.6	0.91176470369101
3361	10073	579.007869378624	0.91176470369101
3361	10103	579.414526589112	0.91176470369101
3361	10134	579.82164332952	0.9142857119441
3361	10152	580.021699178343	0.97142857126892
3361	12135	708.6	0.81818181276321
3361	12162	709	0.90909090638161
3361	12181	709.208891458208	0.97058823518455
3361	12200	709.410824565607	0.97058823518455
3361	13884	838.4	0.85185185074806
3361	13897	838.9	0.85714285075665
3361	13905	839.107957720363	0.96428571268916
3361	13917	839.414804866439	0.92857142537832
3361	13933	839.91794909798	0.85714285075665
3361	13952	840.218268001362	0.92857142537832
3361	13973	840.524462436557	0.92857142537832
3361	14003	840.924598688022	0.89655172079802
3361	14032	841.230319071348	0.93103448301554
3361	14072	841.635432031768	0.89655172079802
3361	15973	970.1	0.96428571268916
3361	16000	970.7	0.8214285671711
3361	16010	970.906602516872	0.96428571268916
3361	16042	971.509801866688	0.8214285671711
3361	16080	972.011769667403	0.85714285075665
3361	16097	972.220324341547	0.96551724150777
3361	16119	972.521221589401	0.93103448301554
3361	16139	972.8244066662	0.93103448301554
3361	16163	973.127714079139	0.93103448301554
3361	16190	973.429720922266	0.93103448301554
3361	16228	973.930322783165	0.86206896603107
3361	16274	974.432918990742	0.86206896603107
3361	16312	975.03586695523	0.83870968222618
3361	18161	1103.3	0.89999999850988
3361	18178	1103.5	0.9666666649282
3361	18217	1104.201478891186	0.80645161867142
3361	18236	1104.501644644408	0.93548387289047
3361	18297	1105.211228488093	0.80645161867142
3361	20175	1234.1	0.9545454531908
3361	20205	1234.509281962818	0.86363635957241
3361	20225	1234.811756520219	0.91304347664118
3361	20236	1235.011935164831	0.95652173832059
3361	22016	1364.5	0.76190476119518
3361	22034	1364.801899587982	0.90476190298796
3361	22064	1365.103390437243	0.90476190298796
3361	22087	1365.406716436289	0.90476190298796
3361	22115	1365.813896143384	0.86363635957241
3361	22143	1366.121582421801	0.90909090638161
3361	22171	1366.430468315825	0.91304347664118
3361	24240	1495.3	0.85714285075665
3361	24272	1495.7	0.85714285075665
3361	24287	1495.906951256166	0.9545454531908
3361	24306	1496.110892059225	0.9545454531908
3361	24331	1496.412486679246	0.91304347664118
3361	24349	1496.71501501398	0.91304347664118
3361	24366	1497.029206919604	0.91304347664118
3361	24390	1497.345854795324	0.91304347664118
3361	24404	1497.549935351703	0.95652173832059
3361	26331	1626.2	0.86666665971279
3361	26335	1626.5	0.86666665971279
3361	26342	1626.909600093122	0.79999999701977
3361	26350	1627.11704797425	0.9333333298564
3361	26362	1627.425184115939	0.86666665971279
3361	28284	1757.1	0.92857142537832
3361	28291	1757.3	0.92857142537832
3361	28303	1757.501890774699	0.92857142537832
3361	28320	1757.909812117094	0.79999999701977
3361	28335	1758.224705309288	0.86666665971279
3361	28362	1758.800157773667	0.8125
3361	28381	1759.102063264558	0.875
3361	28400	1759.313889090688	0.9411764703691
3361	28415	1759.617766736705	0.8823529407382
3361	28424	1759.822865475508	0.9411764703691
3361	30281	1888.2	0.84615384042263
3361	30292	1888.4	0.92857142537832
3361	30301	1888.700000597862	0.86666665971279
3361	30313	1889.006944612462	0.86666665971279
3361	30326	1889.414685178759	0.79999999701977
3361	30336	1889.720417408632	0.86666665971279
3361	30343	1889.929069081515	0.9333333298564
3361	31233	1905.106739878663	0.80645161867142
3361	31251	1905.410650744502	0.93548387289047
3361	31285	1906.113947020381	0.80645161867142
3361	31352	1907.015369996906	0.74193549156189
3361	31383	1907.321477738688	0.93548387289047
3361	31428	1907.824397492578	0.87096774578094
3361	31493	1908.430473391052	0.84375
3361	31568	1909.040414413158	0.84848484396935
3361	31605	1909.347122886965	0.9411764703691
3361	31660	1909.951083330835	0.86111110448837
3361	32648	2019.2	0.85714285075665
3361	32661	2019.5	0.85714285075665
3361	32669	2019.703300444355	0.92857142537832
3361	32675	2019.906191636458	0.92857142537832
3361	32758	2020.218165921043	0.625
3361	32770	2020.2491	0.875
3361	32785	2020.427799647296	0.875
3361	32788	2020.476036084521	0.88888888806105
3361	32916	2025.43042245544	0.92307692021132
3361	32935	2025.838016379105	0.76923076808453
3361	32952	2026.051168594825	0.92307692021132
3361	32994	2026.569160416739	0.69230768084526
3361	34804	2150.1	0.875
3361	34814	2150.336158838653	0.875
3361	34821	2150.662275347321	0.75
3361	34833	2150.908844639749	0.875
3361	35586	2169.717852923444	0.88461538404226
3361	35600	2169.922561023556	0.96153846010566
3361	35622	2170.222937266774	0.92592592537403
3361	35644	2170.535755341504	0.92857142537832
3361	35916	2174.804595555821	0.96774193644524
3361	35931	2175.107315871701	0.93548387289047
3361	35951	2175.30922254806	0.96774193644524
3361	36058	2176.805267575797	0.9411764703691
3361	36083	2177.1136105948	0.9411764703691
3361	36111	2177.422699286978	0.9411764703691
3361	36197	2178.703331051075	0.91666666418314
3361	36217	2179.104643968592	0.91666666418314
3361	36238	2179.306637288724	0.97222222201526
3361	36330	2180.500807990541	0.97297297231853
3361	36350	2180.908955751748	0.91891892254353
3361	36383	2181.314137393319	0.91891892254353
3361	36411	2181.620017835892	0.9473684206605
3361	36459	2182.225744761368	0.86842104792595
3361	36482	2182.531640179501	0.94871794804931
3361	36897	2281.2	0.75
3361	36900	2281.4	0.875
3361	36904	2281.606453810429	0.875
3361	36909	2281.812863009382	0.875
3361	37555	2297.504100881251	0.90909090638161
3361	37590	2298.013508055696	0.83333332836628
3361	37621	2298.5185165757	0.84000000357628
3361	37632	2298.730568496625	0.96000000089407
3361	38956	2412.1	0.875
3361	38962	2412.410664695489	0.75
3361	38966	2412.613588178373	0.875
3361	38971	2412.92324225812	0.75
3361	40469	2444.5	0.83870968222618
3361	40502	2445	0.87096774578094
3361	40549	2445.50533727114	0.875
3361	40590	2446.008861027033	0.87878787517548
3361	40604	2446.21315456272	0.96969696879387
3361	40626	2446.513302790281	0.93939393758774
3361	42514	2575.2	0.93548387289047
3361	42568	2575.9	0.81818181276321
3361	42587	2576.30845942754	0.90909090638161
3361	42611	2576.709048375607	0.90909090638161
3361	42659	2577.411990174889	0.81818181276321
3361	42692	2577.913383796313	0.87878787517548
3361	42716	2578.218123420875	0.93939393758774
3361	42774	2578.933461743895	0.81818181276321
3361	42807	2579.240272800548	0.9411764703691
3361	44826	2707.2	0.9375
3361	44868	2707.9	0.82352940738201
3361	44903	2708.306946511839	0.91176470369101
3361	44948	2709.01851004104	0.82352940738201
3361	44973	2709.428145726794	0.91176470369101
3361	46763	2838.6	0.76923076808453
3361	46772	2838.9	0.92307692021132
3361	46782	2839.104987044876	0.96153846010566
3361	46818	2839.705232442518	0.80769230425358
3361	46862	2840.207378618682	0.84615384042263
3361	46897	2840.711291435837	0.84615384042263
3361	46911	2840.9144556118	0.96296296268702
3361	46925	2841.11894623516	0.96428571268916
3361	47636	2850.504053373902	0.9473684206605
3361	47665	2850.90950232246	0.92105263471603
3361	47707	2851.717932303885	0.82051281630993
3361	47720	2852.11856672651	0.92499999701977
3361	47724	2852.326139337898	0.97499999962747
3361	49001	2970.1	0.96296296268702
3361	49024	2970.6	0.85714285075665
3361	49039	2970.901933164093	0.92857142537832
3361	49054	2971.110031513999	0.96428571268916
3361	49085	2971.614194380338	0.85714285075665
3361	51120	3101.1	0.96296296268702
3361	51131	3101.3	0.96296296268702
3361	51141	3101.601969557935	0.92592592537403
3361	51150	3101.803256578256	0.96296296268702
3361	51173	3102.209562078133	0.89285714179277
3361	51198	3102.722105686708	0.85714285075665
3361	51226	3103.130833522404	0.89285714179277
3361	51261	3103.733635477823	0.8214285671711
3361	51744	3112.210991266499	0.83783784508705
3361	51788	3112.81891461477	0.87179486453533
3361	51806	3113.134410992285	0.94871794804931
3361	51818	3113.441087327633	0.94871794804931
3361	51830	3114.051818190983	0.875
3361	51838	3114.657339345097	0.875
3361	51844	3115.057837466393	0.92499999701977
3361	53008	3232.2	0.89999999850988
3361	53019	3232.6	0.84999999403954
3361	53034	3233.00816550194	0.84999999403954
3361	53056	3233.414990001448	0.85714285075665
3361	53066	3233.723206899933	0.90476190298796
3361	53091	3234.126384350299	0.85714285075665
3361	55336	3363.2	0.89473684132099
3361	55369	3363.7	0.79999999701977
3361	55382	3363.904648461721	0.95238095149398
3361	55404	3364.217908433741	0.90476190298796
3361	55416	3364.426175288457	0.95238095149398
3361	57413	3494.2	0.88888888806105
3361	57430	3494.5	0.89999999850988
3361	57438	3494.702212146795	0.94999999925494
3361	57452	3495.009541251711	0.89999999850988
3361	57464	3495.219066952441	0.94999999925494
3361	57479	3495.523411469864	0.89999999850988
3361	57495	3495.827517191191	0.89999999850988
3361	57522	3496.227997172622	0.84999999403954
3361	59730	3624	1
3361	59739	3624.2	0.91666666418314
3361	59753	3624.508400412238	0.83333332836628
3361	59759	3624.712047392268	0.91666666418314
3361	59770	3625.021906568494	0.84615384042263
3361	59786	3625.324958704243	0.84615384042263
3361	59800	3625.52693310052	0.92307692021132
3361	59813	3625.739782976687	0.92307692021132
3361	61875	3755.1	0.91666666418314
3361	61884	3755.4	0.83333332836628
3361	61892	3755.703626203383	0.83333332836628
3361	61907	3756.011323120107	0.83333332836628
3361	61921	3756.214481781068	0.92307692021132
3361	64025	3886.1	0.91666666418314
3361	64033	3886.3	0.91666666418314
3361	64041	3886.502359372435	0.92307692021132
3361	64047	3886.804922877301	0.84615384042263
3361	64486	3897.706289565209	0.875
3361	64499	3897.910709035908	0.95833333209157
3361	64528	3898.234047555333	0.91666666418314
3362	32	21.2	0.2
3362	35	21.4	0.2
3362	39	21.609811451632	0.2
3362	46	21.919992994699	0.3
3362	126	24.506191647693	0.3
3362	135	24.706996309792	0.2
3362	154	24.936735014266	0.2
3362	315	28.403873075328	0.3
3362	342	28.810344000095	0.4
3362	395	29.320212253024	0.5
3362	407	29.527255143645	0.2
3362	424	29.830079574764	0.3
3362	2184	152	0
3362	2187	152.2	0.2
3362	2191	152.401044449075	0.2
3362	2195	152.610762540148	0.2
3362	4291	283.1	0.1
3362	4294	283.3	0.2
3362	4298	283.507926592291	0.2
3362	4307	283.747670370465	0.2
3362	5218	306.6334832292	0.5
3362	5233	306.84355821434	0.2
3362	5250	307.152325514881	0.3
3362	6322	414.2	0.2
3362	6325	414.4	0.2
3362	6331	414.621378675175	0.2
3362	6335	414.823699990207	0.2
3362	7800	446.3	0.3
3362	7813	446.7	0.4
3362	7832	447.105831497181	0.4
3362	7858	447.611515354444	0.5
3362	7877	448.012214635291	0.4
3362	7909	448.515380547886	0.5
3362	7927	448.720718423089	0.2
3362	7941	448.929947080826	0.2
3362	7975	449.33248771541	0.4
3362	10025	578.2	0.2
3362	10048	578.6	0.4
3362	10073	579.007869378624	0.4
3362	10103	579.414526589112	0.4
3362	10134	579.82164332952	0.4
3362	10152	580.021699178343	0.2
3362	12135	708.6	0.6
3362	12162	709	0.4
3362	12181	709.208891458208	0.2
3362	12200	709.410824565607	0.2
3362	13884	838.4	0.4
3362	13897	838.9	0.5
3362	13905	839.107957720363	0.2
3362	13917	839.414804866439	0.3
3362	13933	839.91794909798	0.5
3362	13952	840.218268001362	0.3
3362	13973	840.524462436557	0.3
3362	14003	840.924598688022	0.4
3362	14032	841.230319071348	0.3
3362	14072	841.635432031768	0.4
3362	15973	970.1	0.1
3362	16000	970.7	0.6
3362	16010	970.906602516872	0.2
3362	16042	971.509801866688	0.6
3362	16080	972.011769667403	0.5
3362	16097	972.220324341547	0.2
3362	16119	972.521221589401	0.3
3362	16139	972.8244066662	0.3
3362	16163	973.127714079139	0.3
3362	16190	973.429720922266	0.3
3362	16228	973.930322783165	0.5
3362	16274	974.432918990742	0.5
3362	16312	975.03586695523	0.6
3362	18161	1103.3	0.3
3362	18178	1103.5	0.2
3362	18217	1104.201478891186	0.7
3362	18236	1104.501644644408	0.3
3362	18297	1105.211228488093	0.7
3362	20175	1234.1	0.1
3362	20205	1234.509281962818	0.4
3362	20225	1234.811756520219	0.3
3362	20236	1235.011935164831	0.2
3362	22016	1364.5	0.5
3362	22034	1364.801899587982	0.3
3362	22064	1365.103390437243	0.3
3362	22087	1365.406716436289	0.3
3362	22115	1365.813896143384	0.4
3362	22143	1366.121582421801	0.3
3362	22171	1366.430468315825	0.3
3362	24240	1495.3	0.3
3362	24272	1495.7	0.4
3362	24287	1495.906951256166	0.2
3362	24306	1496.110892059225	0.2
3362	24331	1496.412486679246	0.3
3362	24349	1496.71501501398	0.3
3362	24366	1497.029206919604	0.3
3362	24390	1497.345854795324	0.3
3362	24404	1497.549935351703	0.2
3362	26331	1626.2	0.2
3362	26335	1626.5	0.3
3362	26342	1626.909600093122	0.4
3362	26350	1627.11704797425	0.2
3362	26362	1627.425184115939	0.3
3362	28284	1757.1	0.1
3362	28291	1757.3	0.2
3362	28303	1757.501890774699	0.2
3362	28320	1757.909812117094	0.4
3362	28335	1758.224705309288	0.3
3362	28362	1758.800157773667	0.4
3362	28381	1759.102063264558	0.3
3362	28400	1759.313889090688	0.2
3362	28415	1759.617766736705	0.3
3362	28424	1759.822865475508	0.2
3362	30281	1888.2	0.2
3362	30292	1888.4	0.2
3362	30301	1888.700000597862	0.3
3362	30313	1889.006944612462	0.3
3362	30326	1889.414685178759	0.4
3362	30336	1889.720417408632	0.3
3362	30343	1889.929069081515	0.2
3362	31233	1905.106739878663	0.7
3362	31251	1905.410650744502	0.3
3362	31285	1906.113947020381	0.7
3362	31352	1907.015369996906	0.9
3362	31383	1907.321477738688	0.3
3362	31428	1907.824397492578	0.5
3362	31493	1908.430473391052	0.6
3362	31568	1909.040414413158	0.6
3362	31605	1909.347122886965	0.3
3362	31660	1909.951083330835	0.6
3362	32648	2019.2	0.2
3362	32661	2019.5	0.3
3362	32669	2019.703300444355	0.2
3362	32675	2019.906191636458	0.2
3362	32758	2020.218165921043	0.3
3362	32770	2020.2491	0.2
3362	32785	2020.427799647296	0.2
3362	32788	2020.476036084521	0.2
3362	32916	2025.43042245544	0.2
3362	32935	2025.838016379105	0.4
3362	32952	2026.051168594825	0.2
3362	32994	2026.569160416739	0.5
3362	34804	2150.1	0.1
3362	34814	2150.336158838653	0.2
3362	34821	2150.662275347321	0.3
3362	34833	2150.908844639749	0.2
3362	35586	2169.717852923444	0.4
3362	35600	2169.922561023556	0.2
3362	35622	2170.222937266774	0.3
3362	35644	2170.535755341504	0.3
3362	35916	2174.804595555821	0.2
3362	35931	2175.107315871701	0.3
3362	35951	2175.30922254806	0.2
3362	36058	2176.805267575797	0.3
3362	36083	2177.1136105948	0.3
3362	36111	2177.422699286978	0.3
3362	36197	2178.703331051075	0.4
3362	36217	2179.104643968592	0.4
3362	36238	2179.306637288724	0.2
3362	36330	2180.500807990541	0.2
3362	36350	2180.908955751748	0.4
3362	36383	2181.314137393319	0.4
3362	36411	2181.620017835892	0.3
3362	36459	2182.225744761368	0.6
3362	36482	2182.531640179501	0.3
3362	36897	2281.2	0.2
3362	36900	2281.4	0.2
3362	36904	2281.606453810429	0.2
3362	36909	2281.812863009382	0.2
3362	37555	2297.504100881251	0.3
3362	37590	2298.013508055696	0.5
3362	37621	2298.5185165757	0.5
3362	37632	2298.730568496625	0.2
3362	38956	2412.1	0.1
3362	38962	2412.410664695489	0.3
3362	38966	2412.613588178373	0.2
3362	38971	2412.92324225812	0.3
3362	40469	2444.5	0.5
3362	40502	2445	0.5
3362	40549	2445.50533727114	0.5
3362	40590	2446.008861027033	0.5
3362	40604	2446.21315456272	0.2
3362	40626	2446.513302790281	0.3
3362	42514	2575.2	0.2
3362	42568	2575.9	0.7
3362	42587	2576.30845942754	0.4