file 403744 1369674151                                          
version 2
run Stability-95-20130524-20:23:55-3483
attr configname Stability
attr datetime 20130524-20:23:55
attr experiment Stability
attr inifile omnetpp.ini
attr iterationvars $0=1e-3
attr iterationvars2 "$0=1e-3, $repetition=5"
attr measurement $0=1e-3
attr network Network
attr processid 3483
attr repetition 5
attr replication #5
attr resultdir results
attr runnumber 95
attr seedset 95
vector 9144  Network.dyn_peer[8]  lookupHopsSig:vector  ETV
9144	109501 3286 54 48000 20.000009 6222.003107737204 120 0 13 388 1966
vector 9145  Network.dyn_peer[8]  lookupStabilitySig:vector  ETV
9145	112787 4370 54 48000 20.000009 6222.003107737204 120 0.36363637447357 1 89.566274741665 70.444609728668
vector 9146  Network.dyn_peer[8]  lookupTimeSig:vector  ETV
9146	117157 3513 54 48000 20.000009 6222.003107737204 120 0 1.4 47.5 26.95
vector 9120  Network.dyn_peer[0]  lookupHopsSig:vector  ETV
9120	6379 3576 128 47759 20.100001 6221.205035123951 129 0 12 427 2087
vector 9121  Network.dyn_peer[0]  lookupStabilitySig:vector  ETV
9121	9955 4895 128 47759 20.100001 6221.205035123951 129 0.090909063816071 1 95.205704165623 75.862161229873
vector 9122  Network.dyn_peer[0]  lookupTimeSig:vector  ETV
9122	14850 3820 128 47759 20.100001 6221.205035123951 129 0 1.3 52.1 28.57
vector 9123  Network.dyn_peer[1]  lookupHopsSig:vector  ETV
9123	18670 3776 133 48091 20.100002 6222.838562257094 136 0 13 439 2141
vector 9124  Network.dyn_peer[1]  lookupStabilitySig:vector  ETV
9124	22446 5068 133 48091 20.100002 6222.838562257094 136 0.125 1 102.79085600004 82.886772017569
vector 9125  Network.dyn_peer[1]  lookupTimeSig:vector  ETV
9125	27514 4035 133 48091 20.100002 6222.838562257094 136 0 1.4 53.6 28.98
vector 9126  Network.dyn_peer[2]  lookupHopsSig:vector  ETV
9126	31549 3898 138 48038 20.100003 6222.22227702076 140 0 16 498 2762
vector 9127  Network.dyn_peer[2]  lookupStabilitySig:vector  ETV
9127	35447 5314 138 48038 20.100003 6222.22227702076 140 0.19999998807907 1 105.46968252212 85.113550726945
vector 9128  Network.dyn_peer[2]  lookupTimeSig:vector  ETV
9128	40761 4157 138 48038 20.100003 6222.22227702076 140 0 1.7 60.4 36.6
vector 9132  Network.dyn_peer[4]  lookupHopsSig:vector  ETV
9132	58097 3461 144 48061 20.100005 6222.418773148922 126 0 10 431 2123
vector 9133  Network.dyn_peer[4]  lookupStabilitySig:vector  ETV
9133	61558 4774 144 48061 20.100005 6222.418773148922 126 0.125 1 93.587234023958 74.829620778773
vector 9134  Network.dyn_peer[4]  lookupTimeSig:vector  ETV
9134	66332 3699 144 48061 20.100005 6222.418773148922 126 0 1.1 52.1 28.83
vector 9135  Network.dyn_peer[5]  lookupHopsSig:vector  ETV
9135	70031 4186 149 48049 20.100006 6222.316874213034 149 0 13 467 2241
vector 9136  Network.dyn_peer[5]  lookupStabilitySig:vector  ETV
9136	74217 5725 149 48049 20.100006 6222.316874213034 149 0.11111110448837 1 115.12835103646 94.49428670882
vector 9137  Network.dyn_peer[5]  lookupTimeSig:vector  ETV
9137	79942 4471 149 48049 20.100006 6222.316874213034 149 0 1.4 57.9 30.75
vector 9138  Network.dyn_peer[6]  lookupHopsSig:vector  ETV
9138	84413 3578 154 47935 20.100007 6221.709401195208 129 0 15 435 2339
vector 9139  Network.dyn_peer[6]  lookupStabilitySig:vector  ETV
9139	87991 4835 154 47935 20.100007 6221.709401195208 129 0.125 1 96.077463056892 76.354297131986
vector 9140  Network.dyn_peer[6]  lookupTimeSig:vector  ETV
9140	92826 3821 154 47935 20.100007 6221.709401195208 129 0 1.6 53.1 31.47
vector 9150  Network.dyn_peer[10]  lookupHopsSig:vector  ETV
9150	135819 3743 162 48031 20.100011 6222.214786344812 134 0 12 456 2316
vector 9151  Network.dyn_peer[10]  lookupStabilitySig:vector  ETV
9151	139562 5012 162 48031 20.100011 6222.214786344812 134 0.076923072338104 1 101.08858393505 80.869758772274
vector 9152  Network.dyn_peer[10]  lookupTimeSig:vector  ETV
9152	144574 3993 162 48031 20.100011 6222.214786344812 134 0 1.2 55.3 31.35
vector 9159  Network.dyn_peer[13]  lookupHopsSig:vector  ETV
9159	172084 3918 169 47932 20.100014 6221.706360550383 140 0 12 466 2496
vector 9160  Network.dyn_peer[13]  lookupStabilitySig:vector  ETV
9160	176002 5380 169 47932 20.100014 6221.706360550383 140 0.090909063816071 1 106.46927459352 86.619363960013
vector 9161  Network.dyn_peer[13]  lookupTimeSig:vector  ETV
9161	181382 4180 169 47932 20.100014 6221.706360550383 140 0 1.3 57 33.4
vector 9162  Network.dyn_peer[14]  lookupHopsSig:vector  ETV
9162	185562 3251 174 47618 20.100015 6220.900955 118 0 11 426 2374
vector 9163  Network.dyn_peer[14]  lookupStabilitySig:vector  ETV
9163	188813 4280 174 47618 20.100015 6220.900955 118 0.27272725105286 1 86.341335332021 67.413031497851
vector 9164  Network.dyn_peer[14]  lookupTimeSig:vector  ETV
9164	193093 3463 174 47618 20.100015 6220.900955 118 0 1.2 50.7 31.51
vector 9174  Network.dyn_peer[18]  lookupHopsSig:vector  ETV
9174	232208 3238 182 47780 20.100019 6221.216719864012 118 0 11 408 2096
vector 9175  Network.dyn_peer[18]  lookupStabilitySig:vector  ETV
9175	235446 4371 182 47780 20.100019 6221.216719864012 118 0.19999998807907 1 86.315386915579 67.40923616448
vector 9176  Network.dyn_peer[18]  lookupTimeSig:vector  ETV
9176	239817 3461 182 47780 20.100019 6221.216719864012 118 0 1.2 49.1 28.39
vector 9180  Network.dyn_peer[20]  lookupHopsSig:vector  ETV
9180	255838 3405 188 47046 20.100021 6120.931781731525 122 1 6 237 649
vector 9181  Network.dyn_peer[20]  lookupStabilitySig:vector  ETV
9181	259243 3837 188 47046 20.100021 6120.931781731525 122 0.25 0.875 92.375 72.890625
vector 9182  Network.dyn_peer[20]  lookupTimeSig:vector  ETV
9182	263080 3649 188 47046 20.100021 6120.931781731525 122 0.1 0.5 30.6 8.62
vector 9183  Network.dyn_peer[21]  lookupHopsSig:vector  ETV
9183	266729 3560 193 47685 20.100022 6221.007106162292 128 0 11 439 2189
vector 9184  Network.dyn_peer[21]  lookupStabilitySig:vector  ETV
9184	270289 4807 193 47685 20.100022 6221.007106162292 128 0.125 1 95.716109031811 76.203702778001
vector 9185  Network.dyn_peer[21]  lookupTimeSig:vector  ETV
9185	275096 3801 193 47685 20.100022 6221.007106162292 128 0 1.2 53.2 29.86
vector 9207  Network.dyn_peer[29]  lookupHopsSig:vector  ETV
9207	366269 3765 205 47926 20.10003 6221.703021628034 135 0 11 465 2307
vector 9208  Network.dyn_peer[29]  lookupStabilitySig:vector  ETV
9208	370034 5129 205 47926 20.10003 6221.703021628034 135 0.125 1 100.49078874849 80.330195009391
vector 9209  Network.dyn_peer[29]  lookupTimeSig:vector  ETV
9209	375163 4025 205 47926 20.10003 6221.703021628034 135 0 1.2 56.3 31.13
vector 9210  Network.dyn_peer[30]  lookupHopsSig:vector  ETV
9210	379188 3913 210 48088 20.100031 6222.828855534357 139 0 13 473 2367
vector 9211  Network.dyn_peer[30]  lookupStabilitySig:vector  ETV
9211	383101 5331 210 48088 20.100031 6222.828855534357 139 0.25 1 105.45503915288 84.903509920291
vector 9212  Network.dyn_peer[30]  lookupTimeSig:vector  ETV
9212	388432 4178 210 48088 20.100031 6222.828855534357 139 0 1.4 57.7 32.77
vector 9129  Network.dyn_peer[3]  lookupHopsSig:vector  ETV
9129	44918 3862 221 47834 20.200004 6221.400946 139 0 10 426 1972
vector 9130  Network.dyn_peer[3]  lookupStabilitySig:vector  ETV
9130	48780 5196 221 47834 20.200004 6221.400946 139 0.125 1 106.77376294136 86.497207146297
vector 9131  Network.dyn_peer[3]  lookupTimeSig:vector  ETV
9131	53976 4121 221 47834 20.200004 6221.400946 139 0 1.1 53 27.84
vector 9141  Network.dyn_peer[7]  lookupHopsSig:vector  ETV
9141	96647 3752 229 47829 20.200008 6221.32881206144 135 0 12 473 2385
vector 9142  Network.dyn_peer[7]  lookupStabilitySig:vector  ETV
9142	100399 5095 229 47829 20.200008 6221.32881206144 135 0.125 1 101.08682296984 81.045423484764
vector 9143  Network.dyn_peer[7]  lookupTimeSig:vector  ETV
9143	105494 4007 229 47829 20.200008 6221.32881206144 135 0 1.3 57.2 32.12
vector 9156  Network.dyn_peer[12]  lookupHopsSig:vector  ETV
9156	160072 3539 238 47832 20.200013 6221.400941 128 0 11 366 1658
vector 9157  Network.dyn_peer[12]  lookupStabilitySig:vector  ETV
9157	163611 4697 238 47832 20.200013 6221.400941 128 0.125 1 97.346258249134 78.667128354918
vector 9158  Network.dyn_peer[12]  lookupTimeSig:vector  ETV
9158	168308 3776 238 47832 20.200013 6221.400941 128 0 1.2 45.8 23.56
vector 9165  Network.dyn_peer[15]  lookupHopsSig:vector  ETV
9165	196556 3696 245 48079 20.200016 6222.615031615158 133 0 13 457 2379
vector 9166  Network.dyn_peer[15]  lookupStabilitySig:vector  ETV
9166	200252 5055 245 48079 20.200016 6222.615031615158 133 0.11111110448837 1 99.904793092981 80.048382146185
vector 9167  Network.dyn_peer[15]  lookupTimeSig:vector  ETV
9167	205307 3951 245 48079 20.200016 6222.615031615158 133 0 1.4 55.5 31.95
vector 9171  Network.dyn_peer[17]  lookupHopsSig:vector  ETV
9171	220851 3308 251 47915 20.200018 6221.614823914947 121 0 13 452 2454
vector 9172  Network.dyn_peer[17]  lookupStabilitySig:vector  ETV
9172	224159 4522 251 47915 20.200018 6221.614823914947 121 0.125 1 87.064769200981 67.172550004213
vector 9173  Network.dyn_peer[17]  lookupTimeSig:vector  ETV
9173	228681 3527 251 47915 20.200018 6221.614823914947 121 0 1.4 53.9 32.89
vector 9195  Network.dyn_peer[25]  lookupHopsSig:vector  ETV
9195	317533 3717 263 47814 20.200026 6221.310240242102 133 0 13 486 2828
vector 9196  Network.dyn_peer[25]  lookupStabilitySig:vector  ETV
9196	321250 5102 263 47814 20.200026 6221.310240242102 133 0.083333313465118 1 99.547067772597 80.715209619676
vector 9197  Network.dyn_peer[25]  lookupTimeSig:vector  ETV
9197	326352 3959 263 47814 20.200026 6221.310240242102 133 0 1.4 58.4 36.78
vector 9204  Network.dyn_peer[28]  lookupHopsSig:vector  ETV
9204	352419 4055 270 47697 20.200029 6221.01102436077 145 0 13 459 2253
vector 9205  Network.dyn_peer[28]  lookupStabilitySig:vector  ETV
9205	356474 5467 270 47697 20.200029 6221.01102436077 145 0 1 111.87977877818 91.298496025194
vector 9206  Network.dyn_peer[28]  lookupTimeSig:vector  ETV
9206	361941 4328 270 47697 20.200029 6221.01102436077 145 0 1.4 57 31.14
vector 9153  Network.dyn_peer[11]  lookupHopsSig:vector  ETV
9153	148567 3346 294 47582 20.300012 6220.801469548533 121 0 15 424 2176
vector 9154  Network.dyn_peer[11]  lookupStabilitySig:vector  ETV
9154	151913 4584 294 47582 20.300012 6220.801469548533 121 0.19999998807907 1 87.854934919626 69.043258760854
vector 9155  Network.dyn_peer[11]  lookupTimeSig:vector  ETV
9155	156497 3575 294 47582 20.300012 6220.801469548533 121 0 1.6 50.7 28.69
vector 9168  Network.dyn_peer[16]  lookupHopsSig:vector  ETV
9168	209258 3378 303 47881 20.300017 6221.509591839859 123 0 11 427 2095
vector 9169  Network.dyn_peer[16]  lookupStabilitySig:vector  ETV
9169	212636 4602 303 47881 20.300017 6221.509591839859 123 0.22222220897675 1 89.335682861507 70.10523176433
vector 9170  Network.dyn_peer[16]  lookupTimeSig:vector  ETV
9170	217238 3613 303 47881 20.300017 6221.509591839859 123 0 1.2 51.4 28.6
vector 9177  Network.dyn_peer[19]  lookupHopsSig:vector  ETV
9177	243278 3666 310 47961 20.30002 6221.806082623842 132 0 13 455 2453
vector 9178  Network.dyn_peer[19]  lookupStabilitySig:vector  ETV
9178	246944 4981 310 47961 20.30002 6221.806082623842 132 0 1 98.720123941079 79.534498647316
vector 9179  Network.dyn_peer[19]  lookupTimeSig:vector  ETV
9179	251925 3913 310 47961 20.30002 6221.806082623842 132 0 1.4 55.3 32.71
vector 9186  Network.dyn_peer[22]  lookupHopsSig:vector  ETV
9186	278897 3276 317 47946 20.300023 6221.715391317261 119 0 10 408 2016
vector 9187  Network.dyn_peer[22]  lookupStabilitySig:vector  ETV
9187	282173 4425 317 47946 20.300023 6221.715391317261 119 0 1 86.566868795082 68.080912427401
vector 9188  Network.dyn_peer[22]  lookupTimeSig:vector  ETV
9188	286598 3506 317 47946 20.300023 6221.715391317261 119 0 1.1 48.8 27.12
vector 9201  Network.dyn_peer[27]  lookupHopsSig:vector  ETV
9201	342399 2943 326 47524 20.300028 6220.700952 108 0 13 356 1826
vector 9202  Network.dyn_peer[27]  lookupStabilitySig:vector  ETV
9202	345342 3927 326 47524 20.300028 6220.700952 108 0 1 77.312941305339 60.173157960974
vector 9203  Network.dyn_peer[27]  lookupTimeSig:vector  ETV
9203	349269 3150 326 47524 20.300028 6220.700952 108 0 1.4 42.7 23.93
vector 9147  Network.dyn_peer[9]  lookupHopsSig:vector  ETV
9147	120670 4373 349 47704 20.40001 6221.018637163718 155 0 13 532 2672
vector 9148  Network.dyn_peer[9]  lookupStabilitySig:vector  ETV
9148	125043 6108 349 47704 20.40001 6221.018637163718 155 0 1 119.42377139814 98.115129186153
vector 9149  Network.dyn_peer[9]  lookupTimeSig:vector  ETV
9149	131151 4668 349 47704 20.40001 6221.018637163718 155 0 1.4 65.1 36.51
vector 9189  Network.dyn_peer[23]  lookupHopsSig:vector  ETV
9189	290104 3901 367 47887 20.400024 6221.51146278678 140 0 12 501 2745
vector 9190  Network.dyn_peer[23]  lookupStabilitySig:vector  ETV
9190	294005 5379 367 47887 20.400024 6221.51146278678 140 0.125 1 105.23125178739 84.851619994339
vector 9191  Network.dyn_peer[23]  lookupTimeSig:vector  ETV
9191	299384 4157 367 47887 20.400024 6221.51146278678 140 0 1.3 60.5 36.59
vector 9213  Network.dyn_peer[31]  lookupHopsSig:vector  ETV
9213	392610 3271 416 47803 20.500032 6221.306304689064 120 0 12 399 2057
vector 9214  Network.dyn_peer[31]  lookupStabilitySig:vector  ETV
9214	395881 4368 416 47803 20.500032 6221.306304689064 120 0.19999998807907 1 88.072080370039 69.686504366862
vector 9215  Network.dyn_peer[31]  lookupTimeSig:vector  ETV
9215	400249 3495 416 47803 20.500032 6221.306304689064 120 0 1.3 48.4 27.72
vector 9192  Network.dyn_peer[24]  lookupHopsSig:vector  ETV
9192	303541 4072 452 47990 20.600025 6221.917881689993 145 0 11 491 2485
vector 9193  Network.dyn_peer[24]  lookupStabilitySig:vector  ETV
9193	307613 5573 452 47990 20.600025 6221.917881689993 145 0.125 1 110.62779719196 89.946501369047
vector 9194  Network.dyn_peer[24]  lookupTimeSig:vector  ETV
9194	313186 4347 452 47990 20.600025 6221.917881689993 145 0 1.2 60.1 33.61
vector 9198  Network.dyn_peer[26]  lookupHopsSig:vector  ETV
9198	330311 3530 458 48104 20.600027 6223.350643855608 127 0 13 419 2063
vector 9199  Network.dyn_peer[26]  lookupStabilitySig:vector  ETV
9199	333841 4787 458 48104 20.600027 6223.350643855608 127 0.18181818723679 1 94.929921321571 75.814382033943
vector 9200  Network.dyn_peer[26]  lookupTimeSig:vector  ETV
9200	338628 3771 458 48104 20.600027 6223.350643855608 127 0 1.4 51.2 28.38
