version 2
run Stability-38-20130524-20:22:10-3483
attr configname Stability
attr datetime 20130524-20:22:10
attr experiment Stability
attr inifile omnetpp.ini
attr iterationvars $0=1e3
attr iterationvars2 "$0=1e3, $repetition=8"
attr measurement $0=1e3
attr network Network
attr processid 3483
attr repetition 8
attr replication #8
attr resultdir results
attr runnumber 38
attr seedset 38

vector 3648  Network.dyn_peer[0]  lookupHopsSig:vector  ETV
vector 3649  Network.dyn_peer[0]  lookupStabilitySig:vector  ETV
vector 3650  Network.dyn_peer[0]  lookupTimeSig:vector  ETV
vector 3651  Network.dyn_peer[1]  lookupHopsSig:vector  ETV
vector 3652  Network.dyn_peer[1]  lookupStabilitySig:vector  ETV
vector 3653  Network.dyn_peer[1]  lookupTimeSig:vector  ETV
vector 3654  Network.dyn_peer[2]  lookupHopsSig:vector  ETV
vector 3655  Network.dyn_peer[2]  lookupStabilitySig:vector  ETV
vector 3656  Network.dyn_peer[2]  lookupTimeSig:vector  ETV
vector 3657  Network.dyn_peer[3]  lookupHopsSig:vector  ETV
vector 3658  Network.dyn_peer[3]  lookupStabilitySig:vector  ETV
vector 3659  Network.dyn_peer[3]  lookupTimeSig:vector  ETV
vector 3660  Network.dyn_peer[4]  lookupHopsSig:vector  ETV
vector 3661  Network.dyn_peer[4]  lookupStabilitySig:vector  ETV
vector 3662  Network.dyn_peer[4]  lookupTimeSig:vector  ETV
vector 3663  Network.dyn_peer[5]  lookupHopsSig:vector  ETV
vector 3664  Network.dyn_peer[5]  lookupStabilitySig:vector  ETV
vector 3665  Network.dyn_peer[5]  lookupTimeSig:vector  ETV
vector 3666  Network.dyn_peer[6]  lookupHopsSig:vector  ETV
vector 3667  Network.dyn_peer[6]  lookupStabilitySig:vector  ETV
vector 3668  Network.dyn_peer[6]  lookupTimeSig:vector  ETV
vector 3669  Network.dyn_peer[7]  lookupHopsSig:vector  ETV
vector 3670  Network.dyn_peer[7]  lookupStabilitySig:vector  ETV
vector 3671  Network.dyn_peer[7]  lookupTimeSig:vector  ETV
vector 3672  Network.dyn_peer[8]  lookupHopsSig:vector  ETV
vector 3673  Network.dyn_peer[8]  lookupStabilitySig:vector  ETV
vector 3674  Network.dyn_peer[8]  lookupTimeSig:vector  ETV
vector 3675  Network.dyn_peer[9]  lookupHopsSig:vector  ETV
vector 3676  Network.dyn_peer[9]  lookupStabilitySig:vector  ETV
vector 3677  Network.dyn_peer[9]  lookupTimeSig:vector  ETV
vector 3678  Network.dyn_peer[10]  lookupHopsSig:vector  ETV
vector 3679  Network.dyn_peer[10]  lookupStabilitySig:vector  ETV
vector 3680  Network.dyn_peer[10]  lookupTimeSig:vector  ETV
vector 3681  Network.dyn_peer[11]  lookupHopsSig:vector  ETV
vector 3682  Network.dyn_peer[11]  lookupStabilitySig:vector  ETV
vector 3683  Network.dyn_peer[11]  lookupTimeSig:vector  ETV
vector 3684  Network.dyn_peer[12]  lookupHopsSig:vector  ETV
vector 3685  Network.dyn_peer[12]  lookupStabilitySig:vector  ETV
vector 3686  Network.dyn_peer[12]  lookupTimeSig:vector  ETV
vector 3687  Network.dyn_peer[13]  lookupHopsSig:vector  ETV
vector 3688  Network.dyn_peer[13]  lookupStabilitySig:vector  ETV
vector 3689  Network.dyn_peer[13]  lookupTimeSig:vector  ETV
vector 3690  Network.dyn_peer[14]  lookupHopsSig:vector  ETV
vector 3691  Network.dyn_peer[14]  lookupStabilitySig:vector  ETV
vector 3692  Network.dyn_peer[14]  lookupTimeSig:vector  ETV
vector 3693  Network.dyn_peer[15]  lookupHopsSig:vector  ETV
vector 3694  Network.dyn_peer[15]  lookupStabilitySig:vector  ETV
vector 3695  Network.dyn_peer[15]  lookupTimeSig:vector  ETV
vector 3696  Network.dyn_peer[16]  lookupHopsSig:vector  ETV
vector 3697  Network.dyn_peer[16]  lookupStabilitySig:vector  ETV
vector 3698  Network.dyn_peer[16]  lookupTimeSig:vector  ETV
vector 3699  Network.dyn_peer[17]  lookupHopsSig:vector  ETV
vector 3700  Network.dyn_peer[17]  lookupStabilitySig:vector  ETV
vector 3701  Network.dyn_peer[17]  lookupTimeSig:vector  ETV
vector 3702  Network.dyn_peer[18]  lookupHopsSig:vector  ETV
vector 3703  Network.dyn_peer[18]  lookupStabilitySig:vector  ETV
vector 3704  Network.dyn_peer[18]  lookupTimeSig:vector  ETV
vector 3705  Network.dyn_peer[19]  lookupHopsSig:vector  ETV
vector 3706  Network.dyn_peer[19]  lookupStabilitySig:vector  ETV
vector 3707  Network.dyn_peer[19]  lookupTimeSig:vector  ETV
vector 3708  Network.dyn_peer[20]  lookupHopsSig:vector  ETV
vector 3709  Network.dyn_peer[20]  lookupStabilitySig:vector  ETV
vector 3710  Network.dyn_peer[20]  lookupTimeSig:vector  ETV
vector 3711  Network.dyn_peer[21]  lookupHopsSig:vector  ETV
vector 3712  Network.dyn_peer[21]  lookupStabilitySig:vector  ETV
vector 3713  Network.dyn_peer[21]  lookupTimeSig:vector  ETV
vector 3714  Network.dyn_peer[22]  lookupHopsSig:vector  ETV
vector 3715  Network.dyn_peer[22]  lookupStabilitySig:vector  ETV
vector 3716  Network.dyn_peer[22]  lookupTimeSig:vector  ETV
vector 3717  Network.dyn_peer[23]  lookupHopsSig:vector  ETV
vector 3718  Network.dyn_peer[23]  lookupStabilitySig:vector  ETV
vector 3719  Network.dyn_peer[23]  lookupTimeSig:vector  ETV
vector 3720  Network.dyn_peer[24]  lookupHopsSig:vector  ETV
vector 3721  Network.dyn_peer[24]  lookupStabilitySig:vector  ETV
vector 3722  Network.dyn_peer[24]  lookupTimeSig:vector  ETV
vector 3723  Network.dyn_peer[25]  lookupHopsSig:vector  ETV
vector 3724  Network.dyn_peer[25]  lookupStabilitySig:vector  ETV
vector 3725  Network.dyn_peer[25]  lookupTimeSig:vector  ETV
vector 3726  Network.dyn_peer[26]  lookupHopsSig:vector  ETV
vector 3727  Network.dyn_peer[26]  lookupStabilitySig:vector  ETV
vector 3728  Network.dyn_peer[26]  lookupTimeSig:vector  ETV
vector 3729  Network.dyn_peer[27]  lookupHopsSig:vector  ETV
vector 3730  Network.dyn_peer[27]  lookupStabilitySig:vector  ETV
vector 3731  Network.dyn_peer[27]  lookupTimeSig:vector  ETV
vector 3732  Network.dyn_peer[28]  lookupHopsSig:vector  ETV
vector 3733  Network.dyn_peer[28]  lookupStabilitySig:vector  ETV
vector 3734  Network.dyn_peer[28]  lookupTimeSig:vector  ETV
vector 3735  Network.dyn_peer[29]  lookupHopsSig:vector  ETV
vector 3736  Network.dyn_peer[29]  lookupStabilitySig:vector  ETV
vector 3737  Network.dyn_peer[29]  lookupTimeSig:vector  ETV
vector 3738  Network.dyn_peer[30]  lookupHopsSig:vector  ETV
vector 3739  Network.dyn_peer[30]  lookupStabilitySig:vector  ETV
vector 3740  Network.dyn_peer[30]  lookupTimeSig:vector  ETV
vector 3741  Network.dyn_peer[31]  lookupHopsSig:vector  ETV
vector 3742  Network.dyn_peer[31]  lookupStabilitySig:vector  ETV
vector 3743  Network.dyn_peer[31]  lookupTimeSig:vector  ETV
3648	32	21	0
3648	35	21.2	1
3648	40	21.412788816607	1
3648	44	21.616244325994	1
3648	567	36.507589431686	2
3648	586	36.917085506789	3
3648	613	37.325154228572	3
3648	888	43.508933788307	3
3648	923	44.015425197262	4
3648	954	44.316931105366	2
3648	982	44.731129066268	3
3648	1154	47.808368938446	6
3648	1195	48.410756417626	5
3648	1203	48.619116555921	1
3648	1900	152.1	1
3648	1904	152.309695603591	1
3648	1908	152.519010775207	1
3648	1913	152.726520014675	1
3648	2642	169.601357493621	4
3648	2669	169.903810911492	2
3648	2714	170.327362908219	3
3648	2860	172.733125734871	3
3648	2903	173.356827237851	5
3648	3338	181.517992627472	1
3648	3383	182.13149658116	5
3648	3399	182.333807651642	1
3648	3431	182.836461937699	4
3648	3450	183.043842439508	1
3648	3498	183.647783842136	5
3648	4036	283.1	1
3648	4040	283.302109139503	1
3648	4044	283.505584799586	1
3648	4051	283.715792749103	1
3648	4057	283.931931780913	1
3648	4464	295.200786130786	1
3648	4501	295.808691879991	5
3648	4514	296.010698468527	1
3648	4547	296.513473247031	4
3648	4894	304.703174898365	4
3648	4904	304.906141528691	1
3648	4930	305.227777000539	2
3648	6279	414.2	2
3648	6284	414.503949541202	2
3648	6289	414.716835519248	1
3648	6296	414.940495858906	1
3648	6312	415.142209033357	1
3648	6318	415.350274054173	1
3648	7653	446.1	1
3648	7680	446.5	3
3648	7709	446.90291521107	3
3648	7750	447.41270515289	4
3648	7771	447.920924057463	4
3648	7786	448.130807389375	1
3648	9708	577.5	5
3648	9765	578.1	5
3648	9785	578.302594198442	1
3648	9826	578.610377938483	2
3648	11733	707.6	6
3648	11742	707.9	2
3648	11754	708.105890307498	1
3648	11781	708.732524701323	5
3648	13564	838.1	1
3648	13606	838.7	5
3648	13626	839.008859461033	2
3648	13648	839.316945811216	2
3648	15875	969.4	4
3648	15895	969.9	4
3648	15908	970.107730049691	1
3648	15919	970.317187661847	1
3648	15950	970.819861388026	4
3648	16007	971.528421571383	6
3648	16030	972.033276135875	4
3648	16057	972.542196668263	4
3648	16077	972.843662513415	2
3648	17988	1101.1	1
3648	18004	1101.4	2
3648	18020	1101.803335950267	3
3648	19893	1232.2	2
3648	19910	1232.8	5
3648	19919	1233.004312482879	1
3648	19937	1233.216209420054	1
3648	22000	1362.4	4
3648	22013	1362.9	4
3648	22023	1363.102818804038	1
3648	22048	1363.604783131742	4
3648	22054	1363.806140390065	1
3648	22074	1364.108631157827	2
3648	23973	1493.4	4
3648	23984	1493.6	1
3648	23995	1493.800451681255	1
3648	24002	1494.009915529202	1
3648	24022	1494.516207634516	4
3648	26383	1624.2	2
3648	26392	1624.6	3
3648	26396	1624.804304519216	1
3648	26406	1625.113157025656	2
3648	26418	1625.322244329206	1
3648	28330	1755.1	1
3648	28339	1755.4	2
3648	28349	1755.704766578064	2
3648	28364	1756.01245919411	2
3648	28376	1756.32001109749	2
3648	28386	1756.623383503606	2
3648	28392	1756.825430359424	1
3648	28421	1757.333165705502	4
3648	28437	1757.639224127214	2
3648	28463	1758.140469806058	4
3648	28482	1758.447249504622	2
3648	28502	1758.750449785428	2
3648	28525	1759.054122409674	2
3648	28545	1759.263735141663	1
3648	29246	1770.701464133244	3
3648	29282	1771.30723809232	5
3648	29294	1771.513520081697	1
3648	29701	1779.907331325088	6
3648	29768	1780.516322988709	5
3648	29829	1781.117822230092	5
3648	29877	1781.719686184236	5
3648	30477	1888.4	4
3648	30498	1888.9	4
3648	30529	1889.305566991451	3
3648	30545	1889.510579499967	1
3648	30567	1890.014298104435	4
3648	30586	1890.315572100403	2
3648	30609	1890.618670109615	2
3648	30632	1890.919420764059	2
3648	30677	1891.423513257006	4
3648	30694	1891.624347163483	1
3648	30706	1891.83276113844	1
3648	30723	1892.037362726109	1
3648	31450	1904.80687064507	2
3648	31471	1905.016103848812	1
3648	31488	1905.226348409765	1
3648	31521	1905.531769558773	2
3648	31543	1905.74819681008	1
3648	31575	1906.05523791659	2
3648	31610	1906.364218768659	2
3648	33022	2021.2	2
3648	33029	2021.5	2
3648	33038	2021.709185029836	1
3648	33048	2021.922940729389	1
3648	33062	2022.135095579476	1
3648	35237	2152.2	2
3648	35240	2152.4	1
3648	35246	2152.804999604779	3
3648	35259	2153.113834495527	2
3648	35265	2153.318721578583	1
3648	37228	2283.1	1
3648	37235	2283.3	1
3648	37239	2283.500556440474	1
3648	37243	2283.705476627344	1
3648	37248	2283.910883833655	1
3648	38262	2305.407928240096	1
3648	38324	2306.214223796056	7
3648	38373	2306.618412348119	3
3648	38406	2306.921611758278	2
3648	39494	2414	0
3648	39497	2414.2	1
3648	39501	2414.40553132802	1
3648	39505	2414.608273947029	1
3648	39510	2414.914067309437	2
3648	40987	2446.5	5
3648	40998	2446.7	1
3648	41020	2447.107102720953	3
3648	41056	2447.412851492517	2
3648	41088	2447.817468181724	3
3648	41111	2448.123689377344	2
3648	41151	2448.631603551841	4
3648	43416	2578.5	5
3648	43425	2578.7	1
3648	43447	2579.106935121661	3
3648	43453	2579.315750857134	1
3648	45471	2709.4	4
3648	45528	2710	5
3648	45594	2710.409903477507	3
3648	45653	2710.815009146844	3
3648	45695	2711.124536380778	2
3648	47529	2838.4	4
3648	47552	2838.8	3
3648	47588	2839.302689529596	4
3648	47620	2839.805130369864	4
3648	47642	2840.113393794242	2
3648	47673	2840.422604456313	2
3648	47701	2841.123958832074	6
3648	49950	2970.5	5
3648	49959	2970.7	1
3648	49989	2971.300046568145	5
3648	50002	2971.603673815189	2
3648	50035	2972.209187046011	5
3648	50090	2973.012844793047	7
3648	50113	2973.320088256283	2
3648	50133	2973.627896061257	2
3648	50148	2973.831761586769	1
3648	52201	3103.2	2
3648	52218	3103.5	2
3648	52234	3103.807149687346	2
3648	52256	3104.115088348981	2
3648	52304	3104.556007391564	3
3648	52360	3105.074840557907	4
3648	54331	3234.1	1
3648	54342	3234.3	1
3648	54357	3234.606382765066	2
3648	54367	3234.915697545534	2
3648	54382	3235.215856151549	2
3648	54403	3235.516450134469	2
3648	54421	3235.921529717014	3
3648	54443	3236.126696065884	1
3648	54475	3236.529162787164	3
3648	54499	3236.829332033381	2
3648	54542	3237.431401178847	5
3648	54874	3243.40936394101	3
3648	54888	3243.618399554709	1
3648	54917	3244.027625638217	3
3648	54939	3244.339547992544	2
3648	56447	3366.2	2
3648	56468	3366.6	3
3648	56491	3367.009397748101	3
3648	56520	3367.420591818212	3
3648	56542	3367.82326207571	3
3648	56565	3368.224832335345	3
3648	56587	3368.532028991866	2
3648	56600	3368.83868685702	2
3648	58737	3497.2	2
3648	58759	3497.5	2
3648	58778	3497.908015989591	3
3648	58797	3498.215671366375	2
3648	58807	3498.418029331991	1
3648	58819	3498.820058768047	3
3648	58997	3503.808310065274	4
3648	59014	3504.013116626737	1
3648	59042	3504.31911540247	2
3648	59065	3504.629010963479	2
3648	59083	3504.935837903734	2
3648	59104	3505.238140264825	2
3648	59133	3505.541220584456	2
3648	59163	3505.959726168466	3
3648	60528	3628.2	2
3648	60536	3628.4	1
3648	60551	3628.812471423597	3
3648	60564	3629.030473302886	1
3648	60584	3629.353080290046	2
3648	60593	3629.563446757776	1
3648	60605	3629.881543700221	2
3648	62719	3759.2	2
3648	62727	3759.40243589255	1
3648	62733	3759.605792558642	1
3648	62741	3759.822407603427	1
3648	62748	3760.031577196086	1
3648	62762	3760.437115671394	3
3648	62772	3760.740656855745	2
3648	62793	3761.150326470642	3
3648	63311	3770.703112676504	2
3648	63328	3771.010543376788	2
3648	63341	3771.216625987986	1
3648	63357	3771.518187373826	2
3648	63373	3771.824099843677	2
3648	63405	3772.329126066299	4
3648	63421	3772.533666983124	1
3648	63554	3775.409090030903	1
3648	63572	3775.814721841006	3
3648	63604	3776.319627173456	4
3648	63616	3776.525169759063	1
3648	63631	3776.732707143138	1
3648	64959	3890.4	4
3648	64965	3890.6	1
3648	64977	3890.824856839343	1
3648	64988	3891.024939419757	1
3649	32	21	1
3649	35	21.2	0.875
3649	40	21.412788816607	0.875
3649	44	21.616244325994	0.875
3649	567	36.507589431686	0.91304347664118
3649	586	36.917085506789	0.86956521868706
3649	613	37.325154228572	0.875
3649	888	43.508933788307	0.89655172079802
3649	923	44.015425197262	0.86206896603107
3649	954	44.316931105366	0.9333333298564
3649	982	44.731129066268	0.90322580933571
3649	1154	47.808368938446	0.8125
3649	1195	48.410756417626	0.85714285075665
3649	1203	48.619116555921	0.97142857126892
3649	1900	152.1	0.875
3649	1904	152.309695603591	0.875
3649	1908	152.519010775207	0.875
3649	1913	152.726520014675	0.875
3649	2642	169.601357493621	0.82608695328236
3649	2669	169.903810911492	0.91666666418314
3649	2714	170.327362908219	0.875
3649	2860	172.733125734871	0.88888888806105
3649	2903	173.356827237851	0.8214285671711
3649	3338	181.517992627472	0.97142857126892
3649	3383	182.13149658116	0.86111110448837
3649	3399	182.333807651642	0.97297297231853
3649	3431	182.836461937699	0.89189188927412
3649	3450	183.043842439508	0.97297297231853
3649	3498	183.647783842136	0.86486487090588
3649	4036	283.1	0.875
3649	4040	283.302109139503	0.875
3649	4044	283.505584799586	0.875
3649	4051	283.715792749103	0.875
3649	4057	283.931931780913	0.875
3649	4464	295.200786130786	0.94444444403052
3649	4501	295.808691879991	0.75
3649	4514	296.010698468527	0.94999999925494
3649	4547	296.513473247031	0.80952380597591
3649	4894	304.703174898365	0.86206896603107
3649	4904	304.906141528691	0.96551724150777
3649	4930	305.227777000539	0.93103448301554
3649	6279	414.2	0.77777777612209
3649	6284	414.503949541202	0.77777777612209
3649	6289	414.716835519248	0.88888888806105
3649	6296	414.940495858906	0.88888888806105
3649	6312	415.142209033357	0.88888888806105
3649	6318	415.350274054173	0.88888888806105
3649	7653	446.1	0.96969696879387
3649	7680	446.5	0.90909090638161
3649	7709	446.90291521107	0.90909090638161
3649	7750	447.41270515289	0.8823529407382
3649	7771	447.920924057463	0.8823529407382
3649	7786	448.130807389375	0.97058823518455
3649	9708	577.5	0.84375
3649	9765	578.1	0.84375
3649	9785	578.302594198442	0.96875
3649	9826	578.610377938483	0.93939393758774
3649	11733	707.6	0.8125
3649	11742	707.9	0.9375
3649	11754	708.105890307498	0.96969696879387
3649	11781	708.732524701323	0.84848484396935
3649	13564	838.1	0.96000000089407
3649	13606	838.7	0.80769230425358
3649	13626	839.008859461033	0.92307692021132
3649	13648	839.316945811216	0.92307692021132
3649	15875	969.4	0.83333332836628
3649	15895	969.9	0.84615384042263
3649	15908	970.107730049691	0.96153846010566
3649	15919	970.317187661847	0.96153846010566
3649	15950	970.819861388026	0.84615384042263
3649	16007	971.528421571383	0.77777777612209
3649	16030	972.033276135875	0.85185185074806
3649	16057	972.542196668263	0.85185185074806
3649	16077	972.843662513415	0.92592592537403
3649	17988	1101.1	0.96000000089407
3649	18004	1101.4	0.92307692021132
3649	18020	1101.803335950267	0.88888888806105
3649	19893	1232.2	0.89999999850988
3649	19910	1232.8	0.75
3649	19919	1233.004312482879	0.94999999925494
3649	19937	1233.216209420054	0.94999999925494
3649	22000	1362.4	0.78947368264198
3649	22013	1362.9	0.78947368264198
3649	22023	1363.102818804038	0.9473684206605
3649	22048	1363.604783131742	0.79999999701977
3649	22054	1363.806140390065	0.94999999925494
3649	22074	1364.108631157827	0.89999999850988
3649	23973	1493.4	0.78947368264198
3649	23984	1493.6	0.9473684206605
3649	23995	1493.800451681255	0.94999999925494
3649	24002	1494.009915529202	0.94999999925494
3649	24022	1494.516207634516	0.79999999701977
3649	26383	1624.2	0.84615384042263
3649	26392	1624.6	0.78571428358555
3649	26396	1624.804304519216	0.92857142537832
3649	26406	1625.113157025656	0.85714285075665
3649	26418	1625.322244329206	0.92857142537832
3649	28330	1755.1	0.92307692021132
3649	28339	1755.4	0.84615384042263
3649	28349	1755.704766578064	0.84615384042263
3649	28364	1756.01245919411	0.85714285075665
3649	28376	1756.32001109749	0.85714285075665
3649	28386	1756.623383503606	0.85714285075665
3649	28392	1756.825430359424	0.92857142537832
3649	28421	1757.333165705502	0.71428570151329
3649	28437	1757.639224127214	0.86666665971279
3649	28463	1758.140469806058	0.73333331942558
3649	28482	1758.447249504622	0.875
3649	28502	1758.750449785428	0.875
3649	28525	1759.054122409674	0.875
3649	28545	1759.263735141663	0.9375
3649	29246	1770.701464133244	0.89285714179277
3649	29282	1771.30723809232	0.82758620381355
3649	29294	1771.513520081697	0.96551724150777
3649	29701	1779.907331325088	0.83783784508705
3649	29768	1780.516322988709	0.86486487090588
3649	29829	1781.117822230092	0.86842104792595
3649	29877	1781.719686184236	0.86842104792595
3649	30477	1888.4	0.75
3649	30498	1888.9	0.75
3649	30529	1889.305566991451	0.8125
3649	30545	1889.510579499967	0.9375
3649	30567	1890.014298104435	0.75
3649	30586	1890.315572100403	0.875
3649	30609	1890.618670109615	0.875
3649	30632	1890.919420764059	0.875
3649	30677	1891.423513257006	0.7647058814764
3649	30694	1891.624347163483	0.94444444403052
3649	30706	1891.83276113844	0.94444444403052
3649	30723	1892.037362726109	0.94444444403052
3649	31450	1904.80687064507	0.93548387289047
3649	31471	1905.016103848812	0.96774193644524
3649	31488	1905.226348409765	0.96774193644524
3649	31521	1905.531769558773	0.93548387289047
3649	31543	1905.74819681008	0.96774193644524
3649	31575	1906.05523791659	0.9375
3649	31610	1906.364218768659	0.9375
3649	33022	2021.2	0.79999999701977
3649	33029	2021.5	0.79999999701977
3649	33038	2021.709185029836	0.89999999850988
3649	33048	2021.922940729389	0.89999999850988
3649	33062	2022.135095579476	0.89999999850988
3649	35237	2152.2	0.79999999701977
3649	35240	2152.4	0.89999999850988
3649	35246	2152.804999604779	0.69999998807907
3649	35259	2153.113834495527	0.79999999701977
3649	35265	2153.318721578583	0.89999999850988
3649	37228	2283.1	0.88888888806105
3649	37235	2283.3	0.89999999850988
3649	37239	2283.500556440474	0.89999999850988
3649	37243	2283.705476627344	0.89999999850988
3649	37248	2283.910883833655	0.89999999850988
3649	38262	2305.407928240096	0.96774193644524
3649	38324	2306.214223796056	0.78125
3649	38373	2306.618412348119	0.90625
3649	38406	2306.921611758278	0.9375
3649	39494	2414	1
3649	39497	2414.2	0.89999999850988
3649	39501	2414.40553132802	0.89999999850988
3649	39505	2414.608273947029	0.89999999850988
3649	39510	2414.914067309437	0.79999999701977
3649	40987	2446.5	0.85294117033482
3649	40998	2446.7	0.97142857126892
3649	41020	2447.107102720953	0.9142857119441
3649	41056	2447.412851492517	0.94285714253783
3649	41088	2447.817468181724	0.9142857119441
3649	41111	2448.123689377344	0.94444444403052
3649	41151	2448.631603551841	0.88888888806105
3649	43416	2578.5	0.85294117033482
3649	43425	2578.7	0.97058823518455
3649	43447	2579.106935121661	0.91666666418314
3649	43453	2579.315750857134	0.97222222201526
3649	45471	2709.4	0.87878787517548
3649	45528	2710	0.84848484396935
3649	45594	2710.409903477507	0.91176470369101
3649	45653	2710.815009146844	0.91176470369101
3649	45695	2711.124536380778	0.9411764703691
3649	47529	2838.4	0.85185185074806
3649	47552	2838.8	0.88888888806105
3649	47588	2839.302689529596	0.85185185074806
3649	47620	2839.805130369864	0.85185185074806
3649	47642	2840.113393794242	0.92592592537403
3649	47673	2840.422604456313	0.92857142537832
3649	47701	2841.123958832074	0.78571428358555
3649	49950	2970.5	0.8214285671711
3649	49959	2970.7	0.96428571268916
3649	49989	2971.300046568145	0.8214285671711
3649	50002	2971.603673815189	0.92857142537832
3649	50035	2972.209187046011	0.8214285671711
3649	50090	2973.012844793047	0.75862069427967
3649	50113	2973.320088256283	0.93103448301554
3649	50133	2973.627896061257	0.93103448301554
3649	50148	2973.831761586769	0.9666666649282
3649	52201	3103.2	0.93103448301554
3649	52218	3103.5	0.93103448301554
3649	52234	3103.807149687346	0.93103448301554
3649	52256	3104.115088348981	0.93103448301554
3649	52304	3104.556007391564	0.89655172079802
3649	52360	3105.074840557907	0.86666665971279
3649	54331	3234.1	0.9545454531908
3649	54342	3234.3	0.9545454531908
3649	54357	3234.606382765066	0.91304347664118
3649	54367	3234.915697545534	0.91304347664118
3649	54382	3235.215856151549	0.91304347664118
3649	54403	3235.516450134469	0.91304347664118
3649	54421	3235.921529717014	0.86956521868706
3649	54443	3236.126696065884	0.95652173832059
3649	54475	3236.529162787164	0.875
3649	54499	3236.829332033381	0.91666666418314
3649	54542	3237.431401178847	0.79166667163372
3649	54874	3243.40936394101	0.90625
3649	54888	3243.618399554709	0.96875
3649	54917	3244.027625638217	0.90625
3649	54939	3244.339547992544	0.9375
3649	56447	3366.2	0.91304347664118
3649	56468	3366.6	0.86956521868706
3649	56491	3367.009397748101	0.86956521868706
3649	56520	3367.420591818212	0.86956521868706
3649	56542	3367.82326207571	0.875
3649	56565	3368.224832335345	0.875
3649	56587	3368.532028991866	0.91666666418314
3649	56600	3368.83868685702	0.91666666418314
3649	58737	3497.2	0.91304347664118
3649	58759	3497.5	0.91666666418314
3649	58778	3497.908015989591	0.875
3649	58797	3498.215671366375	0.91666666418314
3649	58807	3498.418029331991	0.95833333209157
3649	58819	3498.820058768047	0.875
3649	58997	3503.808310065274	0.86206896603107
3649	59014	3504.013116626737	0.96551724150777
3649	59042	3504.31911540247	0.9333333298564
3649	59065	3504.629010963479	0.9333333298564
3649	59083	3504.935837903734	0.9333333298564
3649	59104	3505.238140264825	0.93548387289047
3649	59133	3505.541220584456	0.9375
3649	59163	3505.959726168466	0.90625
3649	60528	3628.2	0.86666665971279
3649	60536	3628.4	0.9333333298564
3649	60551	3628.812471423597	0.79999999701977
3649	60564	3629.030473302886	0.9333333298564
3649	60584	3629.353080290046	0.875
3649	60593	3629.563446757776	0.9375
3649	60605	3629.881543700221	0.875
3649	62719	3759.2	0.875
3649	62727	3759.40243589255	0.9375
3649	62733	3759.605792558642	0.9375
3649	62741	3759.822407603427	0.9375
3649	62748	3760.031577196086	0.9375
3649	62762	3760.437115671394	0.8125
3649	62772	3760.740656855745	0.875
3649	62793	3761.150326470642	0.8125
3649	63311	3770.703112676504	0.92592592537403
3649	63328	3771.010543376788	0.92592592537403
3649	63341	3771.216625987986	0.96296296268702
3649	63357	3771.518187373826	0.92592592537403
3649	63373	3771.824099843677	0.92857142537832
3649	63405	3772.329126066299	0.85714285075665
3649	63421	3772.533666983124	0.96428571268916
3649	63554	3775.409090030903	0.96774193644524
3649	63572	3775.814721841006	0.90322580933571
3649	63604	3776.319627173456	0.875
3649	63616	3776.525169759063	0.96875
3649	63631	3776.732707143138	0.96875
3649	64959	3890.4	0.75
3649	64965	3890.6	0.9375
3649	64977	3890.824856839343	0.9375
3649	64988	3891.024939419757	0.9375
3650	32	21	0
3650	35	21.2	0.2
3650	40	21.412788816607	0.2
3650	44	21.616244325994	0.2
3650	567	36.507589431686	0.3
3650	586	36.917085506789	0.4
3650	613	37.325154228572	0.4
3650	888	43.508933788307	0.4
3650	923	44.015425197262	0.5
3650	954	44.316931105366	0.3
3650	982	44.731129066268	0.4
3650	1154	47.808368938446	0.7
3650	1195	48.410756417626	0.6
3650	1203	48.619116555921	0.2
3650	1900	152.1	0.1
3650	1904	152.309695603591	0.2
3650	1908	152.519010775207	0.2
3650	1913	152.726520014675	0.2
3650	2642	169.601357493621	0.5
3650	2669	169.903810911492	0.3
3650	2714	170.327362908219	0.4
3650	2860	172.733125734871	0.4
3650	2903	173.356827237851	0.6
3650	3338	181.517992627472	0.2
3650	3383	182.13149658116	0.6
3650	3399	182.333807651642	0.2
3650	3431	182.836461937699	0.5
3650	3450	183.043842439508	0.2
3650	3498	183.647783842136	0.6
3650	4036	283.1	0.1
3650	4040	283.302109139503	0.2
3650	4044	283.505584799586	0.2
3650	4051	283.715792749103	0.2
3650	4057	283.931931780913	0.2
3650	4464	295.200786130786	0.2
3650	4501	295.808691879991	0.6
3650	4514	296.010698468527	0.2
3650	4547	296.513473247031	0.5
3650	4894	304.703174898365	0.5
3650	4904	304.906141528691	0.2
3650	4930	305.227777000539	0.3
3650	6279	414.2	0.2
3650	6284	414.503949541202	0.3
3650	6289	414.716835519248	0.2
3650	6296	414.940495858906	0.2
3650	6312	415.142209033357	0.2
3650	6318	415.350274054173	0.2
3650	7653	446.1	0.1
3650	7680	446.5	0.4
3650	7709	446.90291521107	0.4
3650	7750	447.41270515289	0.5
3650	7771	447.920924057463	0.5
3650	7786	448.130807389375	0.2
3650	9708	577.5	0.5
3650	9765	578.1	0.6
3650	9785	578.302594198442	0.2
3650	9826	578.610377938483	0.3
3650	11733	707.6	0.6
3650	11742	707.9	0.3
3650	11754	708.105890307498	0.2
3650	11781	708.732524701323	0.6
3650	13564	838.1	0.1
3650	13606	838.7	0.6
3650	13626	839.008859461033	0.3
3650	13648	839.316945811216	0.3
3650	15875	969.4	0.4
3650	15895	969.9	0.5
3650	15908	970.107730049691	0.2
3650	15919	970.317187661847	0.2
3650	15950	970.819861388026	0.5
3650	16007	971.528421571383	0.7
3650	16030	972.033276135875	0.5
3650	16057	972.542196668263	0.5
3650	16077	972.843662513415	0.3
3650	17988	1101.1	0.1
3650	18004	1101.4	0.3
3650	18020	1101.803335950267	0.4
3650	19893	1232.2	0.2
3650	19910	1232.8	0.6
3650	19919	1233.004312482879	0.2
3650	19937	1233.216209420054	0.2
3650	22000	1362.4	0.4
3650	22013	1362.9	0.5
3650	22023	1363.102818804038	0.2
3650	22048	1363.604783131742	0.5
3650	22054	1363.806140390065	0.2
3650	22074	1364.108631157827	0.3
3650	23973	1493.4	0.4
3650	23984	1493.6	0.2
3650	23995	1493.800451681255	0.2
3650	24002	1494.009915529202	0.2
3650	24022	1494.516207634516	0.5
3650	26383	1624.2	0.2
3650	26392	1624.6	0.4
3650	26396	1624.804304519216	0.2
3650	26406	1625.113157025656	0.3
3650	26418	1625.322244329206	0.2
3650	28330	1755.1	0.1
3650	28339	1755.4	0.3
3650	28349	1755.704766578064	0.3
3650	28364	1756.01245919411	0.3
3650	28376	1756.32001109749	0.3
3650	28386	1756.623383503606	0.3
3650	28392	1756.825430359424	0.2
3650	28421	1757.333165705502	0.5
3650	28437	1757.639224127214	0.3
3650	28463	1758.140469806058	0.5
3650	28482	1758.447249504622	0.3
3650	28502	1758.750449785428	0.3
3650	28525	1759.054122409674	0.3
3650	28545	1759.263735141663	0.2
3650	29246	1770.701464133244	0.4
3650	29282	1771.30723809232	0.6
3650	29294	1771.513520081697	0.2
3650	29701	1779.907331325088	0.7
3650	29768	1780.516322988709	0.6
3650	29829	1781.117822230092	0.6
3650	29877	1781.719686184236	0.6
3650	30477	1888.4	0.4
3650	30498	1888.9	0.5
3650	30529	1889.305566991451	0.4
3650	30545	1889.510579499967	0.2
3650	30567	1890.014298104435	0.5
3650	30586	1890.315572100403	0.3
3650	30609	1890.618670109615	0.3
3650	30632	1890.919420764059	0.3
3650	30677	1891.423513257006	0.5
3650	30694	1891.624347163483	0.2
3650	30706	1891.83276113844	0.2
3650	30723	1892.037362726109	0.2
3650	31450	1904.80687064507	0.3
3650	31471	1905.016103848812	0.2
3650	31488	1905.226348409765	0.2
3650	31521	1905.531769558773	0.3
3650	31543	1905.74819681008	0.2
3650	31575	1906.05523791659	0.3
3650	31610	1906.364218768659	0.3
3650	33022	2021.2	0.2
3650	33029	2021.5	0.3
3650	33038	2021.709185029836	0.2
3650	33048	2021.922940729389	0.2
3650	33062	2022.135095579476	0.2
3650	35237	2152.2	0.2
3650	35240	2152.4	0.2
3650	35246	2152.804999604779	0.4
3650	35259	2153.113834495527	0.3
3650	35265	2153.318721578583	0.2
3650	37228	2283.1	0.1
3650	37235	2283.3	0.2
3650	37239	2283.500556440474	0.2
3650	37243	2283.705476627344	0.2
3650	37248	2283.910883833655	0.2
3650	38262	2305.407928240096	0.2
3650	38324	2306.214223796056	0.8
3650	38373	2306.618412348119	0.4
3650	38406	2306.921611758278	0.3
3650	39494	2414	0
3650	39497	2414.2	0.2
3650	39501	2414.40553132802	0.2
3650	39505	2414.608273947029	0.2
3650	39510	2414.914067309437	0.3
3650	40987	2446.5	0.5
3650	40998	2446.7	0.2
3650	41020	2447.107102720953	0.4
3650	41056	2447.412851492517	0.3
3650	41088	2447.817468181724	0.4
3650	41111	2448.123689377344	0.3
3650	41151	2448.631603551841	0.5
3650	43416	2578.5	0.5
3650	43425	2578.7	0.2
3650	43447	2579.106935121661	0.4
3650	43453	2579.315750857134	0.2
3650	45471	2709.4	0.4
3650	45528	2710	0.6
3650	45594	2710.409903477507	0.4
3650	45653	2710.815009146844	0.4
3650	45695	2711.124536380778	0.3
3650	47529	2838.4	0.4
3650	47552	2838.8	0.4
3650	47588	2839.302689529596	0.5
3650	47620	2839.805130369864	0.5
3650	47642	2840.113393794242	0.3
3650	47673	2840.422604456313	0.3
3650	47701	2841.123958832074	0.7
3650	49950	2970.5	0.5
3650	49959	2970.7	0.2
3650	49989	2971.300046568145	0.6
3650	50002	2971.603673815189	0.3