file 350896 1369674149                                          
version 2
run Stability-10-20130524-20:21:13-3483
attr configname Stability
attr datetime 20130524-20:21:13
attr experiment Stability
attr inifile omnetpp.ini
attr iterationvars $0=1e5
attr iterationvars2 "$0=1e5, $repetition=0"
attr measurement $0=1e5
attr network Network
attr processid 3483
attr repetition 0
attr replication #0
attr resultdir results
attr runnumber 10
attr seedset 10
vector 960  Network.dyn_peer[0]  lookupHopsSig:vector  ETV
960	6336 3265 32 31969 120.1 99320.812213238827 128 0 2 164 250
vector 961  Network.dyn_peer[0]  lookupStabilitySig:vector  ETV
961	9601 3706 32 31969 120.1 99320.812213238827 128 0.75 1 107.5 90.90625
vector 962  Network.dyn_peer[0]  lookupTimeSig:vector  ETV
962	13307 3507 32 31969 120.1 99320.812213238827 128 0 0.3 26 5.96
vector 963  Network.dyn_peer[1]  lookupHopsSig:vector  ETV
963	16814 3291 63 32001 220.2 99420.923878808954 128 0 2 164 242
vector 964  Network.dyn_peer[1]  lookupStabilitySig:vector  ETV
964	20105 3752 63 32001 220.2 99420.923878808954 128 0.75 1 107.5 90.78125
vector 965  Network.dyn_peer[1]  lookupTimeSig:vector  ETV
965	23857 3541 63 32001 220.2 99420.923878808954 128 0 0.3 26 5.9
vector 966  Network.dyn_peer[2]  lookupHopsSig:vector  ETV
966	27398 3252 95 32029 320.1 99520.714900352924 128 0 3 161 241
vector 967  Network.dyn_peer[2]  lookupStabilitySig:vector  ETV
967	30650 3703 95 32029 320.1 99520.714900352924 128 0.625 1 107.875 91.515625
vector 968  Network.dyn_peer[2]  lookupTimeSig:vector  ETV
968	34353 3496 95 32029 320.1 99520.714900352924 128 0 0.4 25.7 5.87
vector 969  Network.dyn_peer[3]  lookupHopsSig:vector  ETV
969	37849 3253 127 32060 420.1 99620.923258115943 128 0 2 171 263
vector 970  Network.dyn_peer[3]  lookupStabilitySig:vector  ETV
970	41102 3707 127 32060 420.1 99620.923258115943 128 0.75 1 106.625 89.359375
vector 971  Network.dyn_peer[3]  lookupTimeSig:vector  ETV
971	44809 3503 127 32060 420.1 99620.923258115943 128 0 0.3 26.7 6.13
vector 972  Network.dyn_peer[4]  lookupHopsSig:vector  ETV
972	48312 3295 161 32095 520.2 99720.82757175736 128 0 2 163 245
vector 973  Network.dyn_peer[4]  lookupStabilitySig:vector  ETV
973	51607 3742 161 32095 520.2 99720.82757175736 128 0.75 1 107.625 91.078125
vector 974  Network.dyn_peer[4]  lookupTimeSig:vector  ETV
974	55349 3539 161 32095 520.2 99720.82757175736 128 0 0.3 25.9 5.95
vector 975  Network.dyn_peer[5]  lookupHopsSig:vector  ETV
975	58888 3272 198 32125 620.1 99820.811065375365 128 0 2 169 253
vector 976  Network.dyn_peer[5]  lookupStabilitySig:vector  ETV
976	62160 3738 198 32125 620.1 99820.811065375365 128 0.75 1 106.875 89.703125
vector 977  Network.dyn_peer[5]  lookupTimeSig:vector  ETV
977	65898 3526 198 32125 620.1 99820.811065375365 128 0 0.3 26.5 5.97
vector 978  Network.dyn_peer[6]  lookupHopsSig:vector  ETV
978	69424 3254 228 32162 720.1 99920.848064857207 128 0 2 168 254
vector 979  Network.dyn_peer[6]  lookupStabilitySig:vector  ETV
979	72678 3711 228 32162 720.1 99920.848064857207 128 0.75 1 107 89.96875
vector 980  Network.dyn_peer[6]  lookupTimeSig:vector  ETV
980	76389 3504 228 32162 720.1 99920.848064857207 128 0 0.3 26.4 6.12
vector 981  Network.dyn_peer[7]  lookupHopsSig:vector  ETV
981	79893 3304 258 32193 820.1 100020.910891284364 128 0 2 166 250
vector 982  Network.dyn_peer[7]  lookupStabilitySig:vector  ETV
982	83197 3758 258 32193 820.1 100020.910891284364 128 0.75 1 107.25 90.40625
vector 983  Network.dyn_peer[7]  lookupTimeSig:vector  ETV
983	86955 3552 258 32193 820.1 100020.910891284364 128 0 0.3 26.2 5.94
vector 984  Network.dyn_peer[8]  lookupHopsSig:vector  ETV
984	90507 3326 290 32229 920.1 100120.847079009663 128 0 2 162 236
vector 985  Network.dyn_peer[8]  lookupStabilitySig:vector  ETV
985	93833 3789 290 32229 920.1 100120.847079009663 128 0.75 1 107.75 91.1875
vector 986  Network.dyn_peer[8]  lookupTimeSig:vector  ETV
986	97622 3576 290 32229 920.1 100120.847079009663 128 0 0.3 25.8 5.8
vector 987  Network.dyn_peer[9]  lookupHopsSig:vector  ETV
987	101198 3347 320 32261 1020.1 100220.923294352419 128 0 2 166 252
vector 988  Network.dyn_peer[9]  lookupStabilitySig:vector  ETV
988	104545 3796 320 32261 1020.1 100220.923294352419 128 0.75 1 107.25 90.4375
vector 989  Network.dyn_peer[9]  lookupTimeSig:vector  ETV
989	108341 3593 320 32261 1020.1 100220.923294352419 128 0 0.3 26.2 6.08
vector 990  Network.dyn_peer[10]  lookupHopsSig:vector  ETV
990	111934 3259 350 32302 1120.2 100320.766981479927 128 0 2 173 275
vector 991  Network.dyn_peer[10]  lookupStabilitySig:vector  ETV
991	115193 3696 350 32302 1120.2 100320.766981479927 128 0.75 1 106.375 89.046875
vector 992  Network.dyn_peer[10]  lookupTimeSig:vector  ETV
992	118889 3503 350 32302 1120.2 100320.766981479927 128 0 0.3 26.9 6.37
vector 993  Network.dyn_peer[11]  lookupHopsSig:vector  ETV
993	122392 3264 384 32334 1220.2 100420.911386528804 128 0 2 172 266
vector 994  Network.dyn_peer[11]  lookupStabilitySig:vector  ETV
994	125656 3717 384 32334 1220.2 100420.911386528804 128 0.75 1 106.5 89.15625
vector 995  Network.dyn_peer[11]  lookupTimeSig:vector  ETV
995	129373 3514 384 32334 1220.2 100420.911386528804 128 0 0.3 26.8 6.24
vector 996  Network.dyn_peer[12]  lookupHopsSig:vector  ETV
996	132887 3288 417 32368 1320.3 100521.024532309629 128 0 3 179 295
vector 997  Network.dyn_peer[12]  lookupStabilitySig:vector  ETV
997	136175 3735 417 32368 1320.3 100521.024532309629 128 0.625 1 105.625 87.859375
vector 998  Network.dyn_peer[12]  lookupTimeSig:vector  ETV
998	139910 3536 417 32368 1320.3 100521.024532309629 128 0 0.3 27.5 6.61
vector 999  Network.dyn_peer[13]  lookupHopsSig:vector  ETV
999	143446 3289 448 32400 1420.1 100620.825689827991 128 0 2 156 220
vector 1000  Network.dyn_peer[13]  lookupStabilitySig:vector  ETV
1000	146735 3881 448 32400 1420.1 100620.825689827991 128 0.75 1 108.5 92.4375
vector 1001  Network.dyn_peer[13]  lookupTimeSig:vector  ETV
1001	150616 3665 448 32400 1420.1 100620.825689827991 128 0 0.3 25.2 5.5
vector 1002  Network.dyn_peer[14]  lookupHopsSig:vector  ETV
1002	154281 3403 477 32433 1520.1 100720.833491728324 128 0 2 160 232
vector 1003  Network.dyn_peer[14]  lookupStabilitySig:vector  ETV
1003	157684 3863 477 32433 1520.1 100720.833491728324 128 0.75 1 108 91.625
vector 1004  Network.dyn_peer[14]  lookupTimeSig:vector  ETV
1004	161547 3651 477 32433 1520.1 100720.833491728324 128 0 0.3 25.6 5.68
vector 1005  Network.dyn_peer[15]  lookupHopsSig:vector  ETV
1005	165198 3388 512 32462 1620.2 100820.718908030326 128 0 3 166 254
vector 1006  Network.dyn_peer[15]  lookupStabilitySig:vector  ETV
1006	168586 3839 512 32462 1620.2 100820.718908030326 128 0.625 1 107.25 90.46875
vector 1007  Network.dyn_peer[15]  lookupTimeSig:vector  ETV
1007	172425 3634 512 32462 1620.2 100820.718908030326 128 0 0.3 26.2 6.02
vector 1008  Network.dyn_peer[16]  lookupHopsSig:vector  ETV
1008	176059 3419 547 32496 1720.2 100920.843590151486 128 0 2 165 245
vector 1009  Network.dyn_peer[16]  lookupStabilitySig:vector  ETV
1009	179478 3879 547 32496 1720.2 100920.843590151486 128 0.75 1 107.375 90.578125
vector 1010  Network.dyn_peer[16]  lookupTimeSig:vector  ETV
1010	183357 3669 547 32496 1720.2 100920.843590151486 128 0 0.3 26.1 5.91
vector 1011  Network.dyn_peer[17]  lookupHopsSig:vector  ETV
1011	187026 3432 577 32529 1820.1 101020.913288682173 128 0 2 166 250
vector 1012  Network.dyn_peer[17]  lookupStabilitySig:vector  ETV
1012	190458 3886 577 32529 1820.1 101020.913288682173 128 0.75 1 107.25 90.40625
vector 1013  Network.dyn_peer[17]  lookupTimeSig:vector  ETV
1013	194344 3680 577 32529 1820.1 101020.913288682173 128 0 0.3 26.2 6
vector 1014  Network.dyn_peer[18]  lookupHopsSig:vector  ETV
1014	198024 3440 608 32563 1920.2 101120.925144932768 128 0 2 167 253
vector 1015  Network.dyn_peer[18]  lookupStabilitySig:vector  ETV
1015	201464 3893 608 32563 1920.2 101120.925144932768 128 0.75 1 107.125 90.203125
vector 1016  Network.dyn_peer[18]  lookupTimeSig:vector  ETV
1016	205357 3688 608 32563 1920.2 101120.925144932768 128 0 0.3 26.3 6.01
vector 1017  Network.dyn_peer[19]  lookupHopsSig:vector  ETV
1017	209045 3362 637 32600 2020.1 101220.764650625478 128 0 2 155 219
vector 1018  Network.dyn_peer[19]  lookupStabilitySig:vector  ETV
1018	212407 3822 637 32600 2020.1 101220.764650625478 128 0.75 1 108.625 92.671875
vector 1019  Network.dyn_peer[19]  lookupTimeSig:vector  ETV
1019	216229 3608 637 32600 2020.1 101220.764650625478 128 0 0.3 25.1 5.51
vector 1020  Network.dyn_peer[20]  lookupHopsSig:vector  ETV
1020	219837 3403 665 32634 2120.1 101320.936036224453 128 0 2 166 248
vector 1021  Network.dyn_peer[20]  lookupStabilitySig:vector  ETV
1021	223240 3862 665 32634 2120.1 101320.936036224453 128 0.75 1 107.25 90.375
vector 1022  Network.dyn_peer[20]  lookupTimeSig:vector  ETV
1022	227102 3653 665 32634 2120.1 101320.936036224453 128 0 0.3 26.2 5.98
vector 1023  Network.dyn_peer[21]  lookupHopsSig:vector  ETV
1023	230755 3425 695 32665 2220.2 101420.813149375046 128 0 2 166 252
vector 1024  Network.dyn_peer[21]  lookupStabilitySig:vector  ETV
1024	234180 3874 695 32665 2220.2 101420.813149375046 128 0.75 1 107.25 90.4375
vector 1025  Network.dyn_peer[21]  lookupTimeSig:vector  ETV
1025	238054 3671 695 32665 2220.2 101420.813149375046 128 0 0.3 26.2 6
vector 1026  Network.dyn_peer[22]  lookupHopsSig:vector  ETV
1026	241725 3403 728 32695 2320.2 101520.817575909985 128 0 2 178 284
vector 1027  Network.dyn_peer[22]  lookupStabilitySig:vector  ETV
1027	245128 3850 728 32695 2320.2 101520.817575909985 128 0.75 1 105.75 87.9375
vector 1028  Network.dyn_peer[22]  lookupTimeSig:vector  ETV
1028	248978 3653 728 32695 2320.2 101520.817575909985 128 0 0.3 27.4 6.4
vector 1029  Network.dyn_peer[23]  lookupHopsSig:vector  ETV
1029	252631 3385 763 32725 2420.1 101620.815714998832 128 0 2 157 233
vector 1030  Network.dyn_peer[23]  lookupStabilitySig:vector  ETV
1030	256016 3823 763 32725 2420.1 101620.815714998832 128 0.75 1 108.375 92.390625
vector 1031  Network.dyn_peer[23]  lookupTimeSig:vector  ETV
1031	259839 3623 763 32725 2420.1 101620.815714998832 128 0 0.3 25.3 5.81
vector 1032  Network.dyn_peer[24]  lookupHopsSig:vector  ETV
1032	263462 3429 797 32759 2520.1 101720.93430698018 128 0 2 170 256
vector 1033  Network.dyn_peer[24]  lookupStabilitySig:vector  ETV
1033	266891 3894 797 32759 2520.1 101720.93430698018 128 0.75 1 106.75 89.5
vector 1034  Network.dyn_peer[24]  lookupTimeSig:vector  ETV
1034	270785 3683 797 32759 2520.1 101720.93430698018 128 0 0.3 26.6 6.06
vector 1035  Network.dyn_peer[25]  lookupHopsSig:vector  ETV
1035	274468 3414 829 32790 2620.2 101821.011532469608 128 0 3 176 288
vector 1036  Network.dyn_peer[25]  lookupStabilitySig:vector  ETV
1036	277882 3852 829 32790 2620.2 101821.011532469608 128 0.625 1 106 88.5
vector 1037  Network.dyn_peer[25]  lookupTimeSig:vector  ETV
1037	281734 3658 829 32790 2620.2 101821.011532469608 128 0 0.3 27.2 6.52
vector 1038  Network.dyn_peer[26]  lookupHopsSig:vector  ETV
1038	285392 3376 870 32824 2720 101920.838324300579 128 0 2 160 236
vector 1039  Network.dyn_peer[26]  lookupStabilitySig:vector  ETV
1039	288768 3826 870 32824 2720 101920.838324300579 128 0.75 1 108 91.6875
vector 1040  Network.dyn_peer[26]  lookupTimeSig:vector  ETV
1040	292594 3620 870 32824 2720 101920.838324300579 128 0 0.3 25.6 5.86
vector 1041  Network.dyn_peer[27]  lookupHopsSig:vector  ETV
1041	296214 3418 898 32861 2820 102021.035217311467 128 0 2 163 241
vector 1042  Network.dyn_peer[27]  lookupStabilitySig:vector  ETV
1042	299632 3875 898 32861 2820 102021.035217311467 128 0.75 1 107.625 91.015625
vector 1043  Network.dyn_peer[27]  lookupTimeSig:vector  ETV
1043	303507 3666 898 32861 2820 102021.035217311467 128 0 0.3 25.9 5.79
vector 1044  Network.dyn_peer[28]  lookupHopsSig:vector  ETV
1044	307173 3417 926 32890 2920.1 102120.714806003771 128 0 2 170 260
vector 1045  Network.dyn_peer[28]  lookupStabilitySig:vector  ETV
1045	310590 3872 926 32890 2920.1 102120.714806003771 128 0.75 1 106.75 89.5625
vector 1046  Network.dyn_peer[28]  lookupTimeSig:vector  ETV
1046	314462 3667 926 32890 2920.1 102120.714806003771 128 0 0.3 26.6 6.08
vector 1047  Network.dyn_peer[29]  lookupHopsSig:vector  ETV
1047	318129 3430 957 32922 3020.1 102220.82493740221 128 0 2 164 244
vector 1048  Network.dyn_peer[29]  lookupStabilitySig:vector  ETV
1048	321559 3886 957 32922 3020.1 102220.82493740221 128 0.75 1 107.5 90.8125
vector 1049  Network.dyn_peer[29]  lookupTimeSig:vector  ETV
1049	325445 3678 957 32922 3020.1 102220.82493740221 128 0 0.3 26 5.92
vector 1050  Network.dyn_peer[30]  lookupHopsSig:vector  ETV
1050	329123 3428 992 32957 3120.1 102320.640487327374 128 0 2 168 254
vector 1051  Network.dyn_peer[30]  lookupStabilitySig:vector  ETV
1051	332551 3885 992 32957 3120.1 102320.640487327374 128 0.75 1 107 89.96875
vector 1052  Network.dyn_peer[30]  lookupTimeSig:vector  ETV
1052	336436 3678 992 32957 3120.1 102320.640487327374 128 0 0.3 26.4 6.04
vector 1053  Network.dyn_peer[31]  lookupHopsSig:vector  ETV
1053	340114 3364 1024 32986 3220.2 102420.711456822873 128 0 2 164 248
vector 1054  Network.dyn_peer[31]  lookupStabilitySig:vector  ETV
1054	343478 3810 1024 32986 3220.2 102420.711456822873 128 0.75 1 107.5 90.875
vector 1055  Network.dyn_peer[31]  lookupTimeSig:vector  ETV
1055	347288 3608 1024 32986 3220.2 102420.711456822873 128 0 0.3 26 6.02
