version 2
run Stability-96-20130524-20:23:57-3483
attr configname Stability
attr datetime 20130524-20:23:57
attr experiment Stability
attr inifile omnetpp.ini
attr iterationvars $0=1e-3
attr iterationvars2 "$0=1e-3, $repetition=6"
attr measurement $0=1e-3
attr network Network
attr processid 3483
attr repetition 6
attr replication #6
attr resultdir results
attr runnumber 96
attr seedset 96

vector 9240  Network.dyn_peer[8]  lookupHopsSig:vector  ETV
vector 9241  Network.dyn_peer[8]  lookupStabilitySig:vector  ETV
vector 9242  Network.dyn_peer[8]  lookupTimeSig:vector  ETV
vector 9261  Network.dyn_peer[15]  lookupHopsSig:vector  ETV
vector 9262  Network.dyn_peer[15]  lookupStabilitySig:vector  ETV
vector 9263  Network.dyn_peer[15]  lookupTimeSig:vector  ETV
vector 9288  Network.dyn_peer[24]  lookupHopsSig:vector  ETV
vector 9289  Network.dyn_peer[24]  lookupStabilitySig:vector  ETV
vector 9290  Network.dyn_peer[24]  lookupTimeSig:vector  ETV
vector 9306  Network.dyn_peer[30]  lookupHopsSig:vector  ETV
vector 9307  Network.dyn_peer[30]  lookupStabilitySig:vector  ETV
vector 9308  Network.dyn_peer[30]  lookupTimeSig:vector  ETV
vector 9219  Network.dyn_peer[1]  lookupHopsSig:vector  ETV
vector 9220  Network.dyn_peer[1]  lookupStabilitySig:vector  ETV
vector 9221  Network.dyn_peer[1]  lookupTimeSig:vector  ETV
vector 9228  Network.dyn_peer[4]  lookupHopsSig:vector  ETV
vector 9229  Network.dyn_peer[4]  lookupStabilitySig:vector  ETV
vector 9230  Network.dyn_peer[4]  lookupTimeSig:vector  ETV
vector 9234  Network.dyn_peer[6]  lookupHopsSig:vector  ETV
vector 9235  Network.dyn_peer[6]  lookupStabilitySig:vector  ETV
vector 9236  Network.dyn_peer[6]  lookupTimeSig:vector  ETV
vector 9237  Network.dyn_peer[7]  lookupHopsSig:vector  ETV
vector 9238  Network.dyn_peer[7]  lookupStabilitySig:vector  ETV
vector 9239  Network.dyn_peer[7]  lookupTimeSig:vector  ETV
vector 9249  Network.dyn_peer[11]  lookupHopsSig:vector  ETV
vector 9250  Network.dyn_peer[11]  lookupStabilitySig:vector  ETV
vector 9251  Network.dyn_peer[11]  lookupTimeSig:vector  ETV
vector 9258  Network.dyn_peer[14]  lookupHopsSig:vector  ETV
vector 9259  Network.dyn_peer[14]  lookupStabilitySig:vector  ETV
vector 9260  Network.dyn_peer[14]  lookupTimeSig:vector  ETV
vector 9267  Network.dyn_peer[17]  lookupHopsSig:vector  ETV
vector 9268  Network.dyn_peer[17]  lookupStabilitySig:vector  ETV
vector 9269  Network.dyn_peer[17]  lookupTimeSig:vector  ETV
vector 9294  Network.dyn_peer[26]  lookupHopsSig:vector  ETV
vector 9295  Network.dyn_peer[26]  lookupStabilitySig:vector  ETV
vector 9296  Network.dyn_peer[26]  lookupTimeSig:vector  ETV
vector 9300  Network.dyn_peer[28]  lookupHopsSig:vector  ETV
vector 9301  Network.dyn_peer[28]  lookupStabilitySig:vector  ETV
vector 9302  Network.dyn_peer[28]  lookupTimeSig:vector  ETV
vector 9216  Network.dyn_peer[0]  lookupHopsSig:vector  ETV
vector 9217  Network.dyn_peer[0]  lookupStabilitySig:vector  ETV
vector 9218  Network.dyn_peer[0]  lookupTimeSig:vector  ETV
vector 9225  Network.dyn_peer[3]  lookupHopsSig:vector  ETV
vector 9226  Network.dyn_peer[3]  lookupStabilitySig:vector  ETV
vector 9227  Network.dyn_peer[3]  lookupTimeSig:vector  ETV
vector 9231  Network.dyn_peer[5]  lookupHopsSig:vector  ETV
vector 9232  Network.dyn_peer[5]  lookupStabilitySig:vector  ETV
vector 9233  Network.dyn_peer[5]  lookupTimeSig:vector  ETV
vector 9243  Network.dyn_peer[9]  lookupHopsSig:vector  ETV
vector 9244  Network.dyn_peer[9]  lookupStabilitySig:vector  ETV
vector 9245  Network.dyn_peer[9]  lookupTimeSig:vector  ETV
vector 9246  Network.dyn_peer[10]  lookupHopsSig:vector  ETV
vector 9247  Network.dyn_peer[10]  lookupStabilitySig:vector  ETV
vector 9248  Network.dyn_peer[10]  lookupTimeSig:vector  ETV
vector 9252  Network.dyn_peer[12]  lookupHopsSig:vector  ETV
vector 9253  Network.dyn_peer[12]  lookupStabilitySig:vector  ETV
vector 9254  Network.dyn_peer[12]  lookupTimeSig:vector  ETV
vector 9255  Network.dyn_peer[13]  lookupHopsSig:vector  ETV
vector 9256  Network.dyn_peer[13]  lookupStabilitySig:vector  ETV
vector 9257  Network.dyn_peer[13]  lookupTimeSig:vector  ETV
vector 9282  Network.dyn_peer[22]  lookupHopsSig:vector  ETV
vector 9283  Network.dyn_peer[22]  lookupStabilitySig:vector  ETV
vector 9284  Network.dyn_peer[22]  lookupTimeSig:vector  ETV
vector 9285  Network.dyn_peer[23]  lookupHopsSig:vector  ETV
vector 9286  Network.dyn_peer[23]  lookupStabilitySig:vector  ETV
vector 9287  Network.dyn_peer[23]  lookupTimeSig:vector  ETV
vector 9303  Network.dyn_peer[29]  lookupHopsSig:vector  ETV
vector 9304  Network.dyn_peer[29]  lookupStabilitySig:vector  ETV
vector 9305  Network.dyn_peer[29]  lookupTimeSig:vector  ETV
vector 9222  Network.dyn_peer[2]  lookupHopsSig:vector  ETV
vector 9223  Network.dyn_peer[2]  lookupStabilitySig:vector  ETV
vector 9224  Network.dyn_peer[2]  lookupTimeSig:vector  ETV
vector 9264  Network.dyn_peer[16]  lookupHopsSig:vector  ETV
vector 9265  Network.dyn_peer[16]  lookupStabilitySig:vector  ETV
vector 9266  Network.dyn_peer[16]  lookupTimeSig:vector  ETV
vector 9273  Network.dyn_peer[19]  lookupHopsSig:vector  ETV
vector 9274  Network.dyn_peer[19]  lookupStabilitySig:vector  ETV
vector 9275  Network.dyn_peer[19]  lookupTimeSig:vector  ETV
vector 9276  Network.dyn_peer[20]  lookupHopsSig:vector  ETV
vector 9277  Network.dyn_peer[20]  lookupStabilitySig:vector  ETV
vector 9278  Network.dyn_peer[20]  lookupTimeSig:vector  ETV
vector 9279  Network.dyn_peer[21]  lookupHopsSig:vector  ETV
vector 9280  Network.dyn_peer[21]  lookupStabilitySig:vector  ETV
vector 9281  Network.dyn_peer[21]  lookupTimeSig:vector  ETV
vector 9297  Network.dyn_peer[27]  lookupHopsSig:vector  ETV
vector 9298  Network.dyn_peer[27]  lookupStabilitySig:vector  ETV
vector 9299  Network.dyn_peer[27]  lookupTimeSig:vector  ETV
vector 9291  Network.dyn_peer[25]  lookupHopsSig:vector  ETV
vector 9292  Network.dyn_peer[25]  lookupStabilitySig:vector  ETV
vector 9293  Network.dyn_peer[25]  lookupTimeSig:vector  ETV
vector 9309  Network.dyn_peer[31]  lookupHopsSig:vector  ETV
vector 9310  Network.dyn_peer[31]  lookupStabilitySig:vector  ETV
vector 9311  Network.dyn_peer[31]  lookupTimeSig:vector  ETV
vector 9270  Network.dyn_peer[18]  lookupHopsSig:vector  ETV
vector 9271  Network.dyn_peer[18]  lookupStabilitySig:vector  ETV
vector 9272  Network.dyn_peer[18]  lookupTimeSig:vector  ETV
9216	211	20.200001	2
9216	459	20.600001	3
9216	805	21.309996985212	6
9216	1440	220.000044	0
9216	1738	220.400044	3
9216	1904	220.704631253665	2
9216	2155	221.211834000365	4
9216	3123	420.10007	1
9216	3381	420.50007	3
9216	3492	420.70883993787	1
9216	4678	620.100093	1
9216	5079	620.708526958869	5
9216	5260	621.119715413111	3
9216	5399	621.520868741033	3
9216	6423	820.300138	3
9216	6590	820.600138	2
9216	6896	821.206577102152	5
9216	8007	1020.400163	4
9216	8275	1020.909270188596	4
9216	9336	1220.300183	3
9216	9448	1220.500183	1
9216	9725	1221.006230610871	4
9216	9878	1221.415183173649	3
9216	10745	1420.20023	2
9216	10872	1420.40023	1
9216	11273	1421.12526270374	6
9216	12378	1620.000247	0
9216	12625	1620.300247	2
9216	12777	1620.504117703431	1
9216	12976	1620.912037062654	3
9216	14117	1820.400275	4
9216	14285	1820.700275	2
9216	14432	1821.000319840599	2
9216	14520	1821.204577083751	1
9216	14603	1821.415982889073	1
9216	14664	1821.625888857602	1
9216	14762	1822.136039381783	4
9216	15687	2020.400323	4
9216	16085	2021.200323	7
9216	16237	2021.600936400528	3
9216	16412	2022.313161695457	6
9216	17266	2220.200354	2
9216	17428	2220.500354	2
9216	17790	2221.302079370245	7
9216	17880	2221.511750974347	1
9216	17948	2221.71683922906	1
9216	17991	2221.916978265597	1
9216	18055	2222.22114159808	2
9216	18081	2222.430208366107	1
9216	18108	2222.636765972544	1
9216	18958	2420.400388	4
9216	19088	2420.700388	2
9216	19375	2421.40247132044	6
9216	19460	2421.609456595824	1
9216	19543	2422.010685759332	3
9216	19595	2422.513962644772	4
9216	20430	2620.300417	3
9216	20624	2620.700417	3
9216	20923	2621.309358243879	5
9216	21073	2621.712631008505	3
9216	21188	2622.14014729067	3
9216	22048	2820.200442	2
9216	22286	2820.600442	3
9216	22528	2821.106507758573	4
9216	23281	3020.000462	0
9216	23637	3020.500462	4
9216	23803	3020.804335829785	2
9216	24013	3021.215992134015	3
9216	25195	3220.300491	3
9216	25477	3220.804007578208	4
9216	25595	3221.012671983144	1
9216	25824	3221.827300832499	7
9216	26939	3421.000537	11
9216	27077	3421.300537	2
9216	27160	3421.509637009629	1
9216	27249	3422.014951007421	4
9216	27289	3422.722233489678	6
9216	28099	3620.300571	3
9216	28691	3621.800571	14
9216	28765	3622.309285013961	4
9216	28779	3622.510600676994	1
9216	29713	3820.600601	6
9216	30066	3821.400601	7
9216	30170	3821.70351178587	2
9216	30239	3822.005224681001	2
9216	30289	3822.3146771595	2
9216	30329	3822.718117207335	3
9216	30363	3823.023025887747	2
9216	30371	3823.224370740962	1
9216	30385	3823.829737632975	5
9216	30391	3824.232908150266	3
9216	30396	3824.537169720305	2
9216	31012	4020.100632	1
9216	31333	4020.700632	5
9216	32594	4220.300632	3
9216	32704	4220.500632	1
9216	33121	4221.407757623445	8
9216	33222	4221.810850785027	3
9216	34022	4420.200683	2
9216	34177	4420.500683	2
9216	34620	4421.501884803514	9
9216	35449	4620.200708	2
9216	36024	4621.400708	11
9216	36167	4621.711480780002	2
9216	36243	4621.91983740634	1
9216	37105	4820.30074	3
9216	37497	4821.10074	7
9216	38437	5020.300758	3
9216	39062	5021.600758	12
9216	40039	5220.300799	3
9216	40189	5220.600799	2
9216	40416	5221.009828060332	3
9216	41851	5420.800813	8
9216	42022	5421.200813	3
9216	42268	5421.907379889137	6
9216	42439	5422.716730905929	7
9216	42472	5423.025808753107	2
9216	42488	5423.537297097545	4
9216	43412	5620.600871	6
9216	43714	5621.300871	6
9216	43803	5621.704989719254	3
9216	43874	5622.111591045326	3
9216	43932	5622.615992574128	4
9216	43993	5623.521658067062	8
9216	44011	5623.923194459652	3
9216	44017	5624.329459599075	3
9216	44023	5624.730609236746	3
9216	44028	5625.031661552702	2
9216	44032	5625.2399234662	1
9216	44040	5625.84703214267	5
9216	44586	5820.000902	0
9216	44938	5820.600902	5
9216	45134	5821.009429678761	3
9216	45242	5821.214271442494	1
9216	45374	5821.621314369022	3
9216	45412	5821.82430198551	1
9216	45490	5822.329435388422	4
9216	46476	6020.400925	5
9216	46795	6021.100925	6
9216	47943	6220.400936	4
9216	48403	6221.400936	9
9216	48537	6221.813063656188	3
9217	211	20.200001	0.75
9217	459	20.600001	0.625
9217	805	21.309996985212	0.71428570151329
9217	1440	220.000044	1
9217	1738	220.400044	0.625
9217	1904	220.704631253665	0.77777777612209
9217	2155	221.211834000365	0.75
9217	3123	420.10007	0.875
9217	3381	420.50007	0.625
9217	3492	420.70883993787	0.88888888806105
9217	4678	620.100093	0.875
9217	5079	620.708526958869	0.58333334326744
9217	5260	621.119715413111	0.79999999701977
9217	5399	621.520868741033	0.875
9217	6423	820.300138	0.625
9217	6590	820.600138	0.75
9217	6896	821.206577102152	0.7368420958519
9217	8007	1020.400163	0.5
9217	8275	1020.909270188596	0.55555555224419
9217	9336	1220.300183	0.625
9217	9448	1220.500183	0.875
9217	9725	1221.006230610871	0.73333331942558
9217	9878	1221.415183173649	0.88461538404226
9217	10745	1420.20023	0.75
9217	10872	1420.40023	0.875
9217	11273	1421.12526270374	0.53846153616905
9217	12378	1620.000247	1
9217	12625	1620.300247	0.75
9217	12777	1620.504117703431	0.875
9217	12976	1620.912037062654	0.72727271914482
9217	14117	1820.400275	0.5
9217	14285	1820.700275	0.83333332836628
9217	14432	1821.000319840599	0.8823529407382
9217	14520	1821.204577083751	0.9473684206605
9217	14603	1821.415982889073	0.95652173832059
9217	14664	1821.625888857602	0.96153846010566
9217	14762	1822.136039381783	0.86206896603107
9217	15687	2020.400323	0.5
9217	16085	2021.200323	0.5
9217	16237	2021.600936400528	0.86956521868706
9217	16412	2022.313161695457	0.79999999701977
9217	17266	2220.200354	0.75
9217	17428	2220.500354	0.75
9217	17790	2221.302079370245	0.5625
9217	17880	2221.511750974347	0.94999999925494
9217	17948	2221.71683922906	0.95833333209157
9217	17991	2221.916978265597	0.96153846010566
9217	18055	2222.22114159808	0.9375
9217	18081	2222.430208366107	0.96969696879387
9217	18108	2222.636765972544	0.97058823518455
9217	18958	2420.400388	0.5
9217	19088	2420.700388	0.75
9217	19375	2421.40247132044	0.625
9217	19460	2421.609456595824	0.95652173832059
9217	19543	2422.010685759332	0.89999999850988
9217	19595	2422.513962644772	0.87878787517548
9217	20430	2620.300417	0.625
9217	20624	2620.700417	0.625
9217	20923	2621.309358243879	0.70588234066963
9217	21073	2621.712631008505	0.85714285075665
9217	21188	2622.14014729067	0.89285714179277
9217	22048	2820.200442	0.75
9217	22286	2820.600442	0.66666665673256
9217	22528	2821.106507758573	0.77777777612209
9217	23281	3020.000462	1
9217	23637	3020.500462	0.5
9217	23803	3020.804335829785	0.79999999701977
9217	24013	3021.215992134015	0.8125
9217	25195	3220.300491	0.625
9217	25477	3220.804007578208	0.59999999403954
9217	25595	3221.012671983144	0.91666666418314
9217	25824	3221.827300832499	0.78787878155708
9217	26939	3421.000537	0.15384614467621
9217	27077	3421.300537	0.89473684132099
9217	27160	3421.509637009629	0.96000000089407
9217	27249	3422.014951007421	0.87878787517548
9217	27289	3422.722233489678	0.83783784508705
9217	28099	3620.300571	0.625
9217	28691	3621.800571	0.5
9217	28765	3622.309285013961	0.88888888806105
9217	28779	3622.510600676994	0.97297297231853
9217	29713	3820.600601	0.33333331346512
9217	30066	3821.400601	0.61111110448837
9217	30170	3821.70351178587	0.91666666418314
9217	30239	3822.005224681001	0.92857142537832
9217	30289	3822.3146771595	0.9375
9217	30329	3822.718117207335	0.90909090638161
9217	30363	3823.023025887747	0.94594594463706
9217	30371	3823.224370740962	0.97297297231853
9217	30385	3823.829737632975	0.86842104792595
9217	30391	3824.232908150266	0.92105263471603
9217	30396	3824.537169720305	0.9473684206605
9217	31012	4020.100632	0.875
9217	31333	4020.700632	0.375
9217	32594	4220.300632	0.625
9217	32704	4220.500632	0.875
9217	33121	4221.407757623445	0.65217390656471
9217	33222	4221.810850785027	0.89655172079802
9217	34022	4420.200683	0.75
9217	34177	4420.500683	0.75
9217	34620	4421.501884803514	0.625
9217	35449	4620.200708	0.75
9217	36024	4621.400708	0.21428573131561
9217	36167	4621.711480780002	0.8823529407382
9217	36243	4621.91983740634	0.96153846010566
9217	37105	4820.30074	0.625
9217	37497	4821.10074	0.5
9217	38437	5020.300758	0.625
9217	39062	5021.600758	0.52000001072884
9217	40039	5220.300799	0.625
9217	40189	5220.600799	0.75
9217	40416	5221.009828060332	0.66666665673256
9217	41851	5420.800813	0
9217	42022	5421.200813	0.78571428358555
9217	42268	5421.907379889137	0.76000000536442
9217	42439	5422.716730905929	0.78125
9217	42472	5423.025808753107	0.94444444403052
9217	42488	5423.537297097545	0.89189188927412
9217	43412	5620.600871	0.33333331346512
9217	43714	5621.300871	0.76000000536442
9217	43803	5621.704989719254	0.89655172079802
9217	43874	5622.111591045326	0.90909090638161
9217	43932	5622.615992574128	0.88888888806105
9217	43993	5623.521658067062	0.77777777612209
9217	44011	5623.923194459652	0.92105263471603
9217	44017	5624.329459599075	0.92105263471603
9217	44023	5624.730609236746	0.92105263471603
9217	44028	5625.031661552702	0.9473684206605
9217	44032	5625.2399234662	0.97368421033025
9217	44040	5625.84703214267	0.86842104792595
9217	44586	5820.000902	1
9217	44938	5820.600902	0.5
9217	45134	5821.009429678761	0.76923076808453
9217	45242	5821.214271442494	0.9473684206605
9217	45374	5821.621314369022	0.88888888806105
9217	45412	5821.82430198551	0.96428571268916
9217	45490	5822.329435388422	0.86666665971279
9217	46476	6020.400925	0.375
9217	46795	6021.100925	0.5
9217	47943	6220.400936	0.5
9217	48403	6221.400936	0.52631577849388
9217	48537	6221.813063656188	0.89999999850988
9218	211	20.200001	0.2
9218	459	20.600001	0.4
9218	805	21.309996985212	0.7
9218	1440	220.000044	0
9218	1738	220.400044	0.4
9218	1904	220.704631253665	0.3
9218	2155	221.211834000365	0.5
9218	3123	420.10007	0.1
9218	3381	420.50007	0.4
9218	3492	420.70883993787	0.2
9218	4678	620.100093	0.1
9218	5079	620.708526958869	0.6
9218	5260	621.119715413111	0.4
9218	5399	621.520868741033	0.4
9218	6423	820.300138	0.3
9218	6590	820.600138	0.3
9218	6896	821.206577102152	0.6
9218	8007	1020.400163	0.4
9218	8275	1020.909270188596	0.5
9218	9336	1220.300183	0.3
9218	9448	1220.500183	0.2
9218	9725	1221.006230610871	0.5
9218	9878	1221.415183173649	0.4
9218	10745	1420.20023	0.2
9218	10872	1420.40023	0.2
9218	11273	1421.12526270374	0.7
9218	12378	1620.000247	0
9218	12625	1620.300247	0.3
9218	12777	1620.504117703431	0.2
9218	12976	1620.912037062654	0.4
9218	14117	1820.400275	0.4
9218	14285	1820.700275	0.3
9218	14432	1821.000319840599	0.3
9218	14520	1821.204577083751	0.2
9218	14603	1821.415982889073	0.2
9218	14664	1821.625888857602	0.2
9218	14762	1822.136039381783	0.5
9218	15687	2020.400323	0.4
9218	16085	2021.200323	0.8
9218	16237	2021.600936400528	0.4
9218	16412	2022.313161695457	0.7
9218	17266	2220.200354	0.2
9218	17428	2220.500354	0.3
9218	17790	2221.302079370245	0.8
9218	17880	2221.511750974347	0.2
9218	17948	2221.71683922906	0.2
9218	17991	2221.916978265597	0.2
9218	18055	2222.22114159808	0.3
9218	18081	2222.430208366107	0.2
9218	18108	2222.636765972544	0.2
9218	18958	2420.400388	0.4
9218	19088	2420.700388	0.3
9218	19375	2421.40247132044	0.7
9218	19460	2421.609456595824	0.2
9218	19543	2422.010685759332	0.4
9218	19595	2422.513962644772	0.5
9218	20430	2620.300417	0.3
9218	20624	2620.700417	0.4
9218	20923	2621.309358243879	0.6
9218	21073	2621.712631008505	0.4
9218	21188	2622.14014729067	0.4
9218	22048	2820.200442	0.2
9218	22286	2820.600442	0.4
9218	22528	2821.106507758573	0.5
9218	23281	3020.000462	0
9218	23637	3020.500462	0.5
9218	23803	3020.804335829785	0.3
9218	24013	3021.215992134015	0.4
9218	25195	3220.300491	0.3
9218	25477	3220.804007578208	0.5
9218	25595	3221.012671983144	0.2
9218	25824	3221.827300832499	0.8
9218	26939	3421.000537	1
9218	27077	3421.300537	0.3
9218	27160	3421.509637009629	0.2
9218	27249	3422.014951007421	0.5
9218	27289	3422.722233489678	0.7
9218	28099	3620.300571	0.3
9218	28691	3621.800571	1.5
9218	28765	3622.309285013961	0.5
9218	28779	3622.510600676994	0.2
9218	29713	3820.600601	0.6
9218	30066	3821.400601	0.8
9218	30170	3821.70351178587	0.3
9218	30239	3822.005224681001	0.3
9218	30289	3822.3146771595	0.3
9218	30329	3822.718117207335	0.4
9218	30363	3823.023025887747	0.3
9218	30371	3823.224370740962	0.2
9218	30385	3823.829737632975	0.6
9218	30391	3824.232908150266	0.4
9218	30396	3824.537169720305	0.3
9218	31012	4020.100632	0.1
9218	31333	4020.700632	0.6
9218	32594	4220.300632	0.3
9218	32704	4220.500632	0.2
9218	33121	4221.407757623445	0.9
9218	33222	4221.810850785027	0.4
9218	34022	4420.200683	0.2
9218	34177	4420.500683	0.3
9218	34620	4421.501884803514	1
9218	35449	4620.200708	0.2
9218	36024	4621.400708	1.2
9218	36167	4621.711480780002	0.3
9218	36243	4621.91983740634	0.2
9218	37105	4820.30074	0.3
9218	37497	4821.10074	0.8
9218	38437	5020.300758	0.3
9218	39062	5021.600758	1.3
9218	40039	5220.300799	0.3
9218	40189	5220.600799	0.3
9218	40416	5221.009828060332	0.4
9218	41851	5420.800813	0.8
9218	42022	5421.200813	0.4
9218	42268	5421.907379889137	0.7
9218	42439	5422.716730905929	0.8
9218	42472	5423.025808753107	0.3
9218	42488	5423.537297097545	0.5
9218	43412	5620.600871	0.6
9218	43714	5621.300871	0.7
9218	43803	5621.704989719254	0.4
9218	43874	5622.111591045326	0.4
9218	43932	5622.615992574128	0.5
9218	43993	5623.521658067062	0.9
9218	44011	5623.923194459652	0.4
9218	44017	5624.329459599075	0.4
9218	44023	5624.730609236746	0.4
9218	44028	5625.031661552702	0.3
9218	44032	5625.2399234662	0.2
9218	44040	5625.84703214267	0.6
9218	44586	5820.000902	0
9218	44938	5820.600902	0.6
9218	45134	5821.009429678761	0.4
9218	45242	5821.214271442494	0.2
9218	45374	5821.621314369022	0.4
9218	45412	5821.82430198551	0.2
9218	45490	5822.329435388422	0.5
9218	46476	6020.400925	0.4
9218	46795	6021.100925	0.7
9218	47943	6220.400936	0.4
9218	48403	6221.400936	1
9218	48537	6221.813063656188	0.4
9219	142	20.100002	1
9219	290	20.300002	1
9219	673	21.004366548714	6
9219	886	21.605366289672	5
9219	1750	220.400052	4
9219	1933	220.800052	3
9219	2173	221.30063253995	4
9219	3133	420.100072	1
9219	3319	420.400072	2
9219	3577	420.90160261486	4
9219	3754	421.302927662623	3
9219	4703	620.100102	1
9219	4951	620.500102	3
9219	5327	621.309171854176	7
9219	6413	820.300132	3
9219	6840	821.100132	7
9219	7859	1020.20016	2
9219	8037	1020.404311072979	1
9219	8178	1020.705949082999	2
9219	8270	1020.906749794553	1
9219	9274	1220.200185	2
9219	9766	1221.10704411989	8
9219	9868	1221.408145975888	2
9219	9953	1221.810788956846	3
9219	9990	1222.014879414807	1
9219	10054	1222.515790252676	4
9219	10997	1420.600238	6
9219	11245	1421.100238	4
9219	11381	1421.409402177968	2
9219	11527	1421.914537264968	4
9219	12505	1620.100257	1
9219	12842	1620.613827755965	4
9219	13149	1621.316609121886	6
9219	14129	1820.400282	4
9219	14468	1821.100282	6
9219	14560	1821.304555085014	1
9219	15614	2020.300316	3
9219	15741	2020.500316	1
9219	15919	2020.805978685649	2
9219	16188	2021.416959332579	5
9219	17188	2220.100346	1
9219	17550	2220.800346	6
9219	17764	2221.207714601749	3
9219	17985	2221.912412675852	6
9219	18947	2420.40038	4
9219	19254	2421.10038	6
9219	20275	2620.100395	1
9219	20641	2620.705313514261	5
9219	21942	2820.100422	1
9219	22158	2820.400422	2
9219	22362	2820.707878411602	2
9219	23497	3020.300454	3
9219	23875	3021.000454	6
9219	24091	3021.411848353979	3
9219	25126	3220.200494	2
9219	25318	3220.500494	2
9219	25471	3220.800683046293	2
9219	26404	3420.100515	1
9219	26526	3420.300515	1
9219	26854	3420.810134073763	4
9219	27934	3620.100545	1
9219	28365	3620.900545	7
9219	28487	3621.109007066436	1
9219	28561	3621.309701983257	1
9219	28718	3621.913511494923	5
9219	29609	3820.400595	4
9219	29895	3821.000595	5
9219	30121	3821.508416684768	4
9219	30215	3821.817968672024	2
9219	30270	3822.123441098804	2
9219	30307	3822.42826453697	2
9219	30335	3822.729480141837	2
9219	30358	3822.93374484436	1
9219	31066	4020.20063	2
9219	31329	4020.70063	4
9219	31423	4020.90129493835	1
9219	32457	4220.100635	1
9219	33051	4221.210136884197	10
9219	33160	4221.513085532907	2
9219	33248	4221.915118806924	3
9219	33945	4420.100684	1
9219	34387	4420.902735853511	7
9219	35253	4620.000696	0
9219	35696	4620.607253179726	5
9219	35875	4621.009055041415	3
9219	36013	4621.314306546943	2
9219	36956	4820.100727	1
9219	37198	4820.500727	3
9219	37390	4820.814415793126	2
9219	37601	4821.321884810298	4
9219	38460	5020.300769	3
9219	38756	5020.900769	5
9219	38906	5021.20181353444	2
9219	38978	5021.403521546584	1
9219	40333	5220.900792	10
9219	40533	5221.300792	3
9219	40640	5221.601648405734	2
9219	40750	5222.206350825004	5
9219	40798	5222.81422042975	5
9219	40821	5223.415399833401	5
9219	41580	5420.200841	2
9219	41790	5420.604355952003	3
9219	41885	5420.807926761653	1
9219	42060	5421.214672137892	3
9219	43119	5620.10085	1
9219	43437	5620.70085	5
9219	43600	5621.00697955155	2
9219	44612	5820.100877	1
9219	44861	5820.500877	3
9219	44999	5820.705781721479	1
9219	46445	6020.400905	4
9219	46627	6020.708317776867	2
9219	46761	6021.008636662973	2
9219	47647	6220.000935	0
9219	47877	6220.300935	2
9219	48298	6221.101345956102	7
9220	142	20.100002	0.875
9220	290	20.300002	0.875
9220	673	21.004366548714	0.53846153616905
9220	886	21.605366289672	0.8214285671711
9220	1750	220.400052	0.5
9220	1933	220.800052	0.66666665673256
9220	2173	221.30063253995	0.77777777612209
9220	3133	420.100072	0.875
9220	3319	420.400072	0.75
9220	3577	420.90160261486	0.59999999403954
9220	3754	421.302927662623	0.82352940738201
9220	4703	620.100102	0.875
9220	4951	620.500102	0.625
9220	5327	621.309171854176	0.61111110448837
9220	6413	820.300132	0.625
9220	6840	821.100132	0.5625
9220	7859	1020.20016	0.75
9220	8037	1020.404311072979	0.875
9220	8178	1020.705949082999	0.75
9220	8270	1020.906749794553	0.88888888806105
9220	9274	1220.200185	0.75
9220	9766	1221.10704411989	0.5294117629528
9220	9868	1221.408145975888	0.92000000178814
9220	9953	1221.810788956846	0.89285714179277
9220	9990	1222.014879414807	0.9666666649282
9220	10054	1222.515790252676	0.8823529407382
9220	10997	1420.600238	0.33333331346512
9220	11245	1421.100238	0.66666665673256
9220	11381	1421.409402177968	0.88888888806105
9220	11527	1421.914537264968	0.82608695328236
9220	12505	1620.100257	0.875
9220	12842	1620.613827755965	0.5
9220	13149	1621.316609121886	0.66666665673256
9220	14129	1820.400282	0.5
9220	14468	1821.100282	0.66666665673256
9220	14560	1821.304555085014	0.94999999925494
9220	15614	2020.300316	0.625
9220	15741	2020.500316	0.875
9220	15919	2020.805978685649	0.81818181276321
9220	16188	2021.416959332579	0.77272726595402
9220	17188	2220.100346	0.875
9220	17550	2220.800346	0.33333331346512
9220	17764	2221.207714601749	0.79999999701977
9220	17985	2221.912412675852	0.76923076808453
9220	18947	2420.40038	0.5
9220	19254	2421.10038	0.45454543828964
9220	20275	2620.100395	0.875
9220	20641	2620.705313514261	0.375
9220	21942	2820.100422	0.875
9220	22158	2820.400422	0.75
9220	22362	2820.707878411602	0.79999999701977
9220	23497	3020.300454	0.625
9220	23875	3021.000454	0.53846153616905
9220	24091	3021.411848353979	0.84999999403954
9220	25126	3220.200494	0.75
9220	25318	3220.500494	0.75
9220	25471	3220.800683046293	0.79999999701977
9220	26404	3420.100515	0.875
9220	26526	3420.300515	0.875
9220	26854	3420.810134073763	0.63636362552643
9220	27934	3620.100545	0.875
9220	28365	3620.900545	0.125
9220	28487	3621.109007066436	0.92857142537832
9220	28561	3621.309701983257	0.9473684206605
9220	28718	3621.913511494923	0.83333332836628
9220	29609	3820.400595	0.5
9220	29895	3821.000595	0.64285713434219
9220	30121	3821.508416684768	0.79999999701977
9220	30215	3821.817968672024	0.92592592537403
9220	30270	3822.123441098804	0.93103448301554
9220	30307	3822.42826453697	0.93939393758774
9220	30335	3822.729480141837	0.93939393758774
9220	30358	3822.93374484436	0.97142857126892
9220	31066	4020.20063	0.75
9220	31329	4020.70063	0.5
9220	31423	4020.90129493835	0.89999999850988
9220	32457	4220.100635	0.875
9220	33051	4221.210136884197	0.44444441795349
9220	33160	4221.513085532907	0.92592592537403
9220	33248	4221.915118806924	0.89999999850988
9220	33945	4420.100684	0.875
9220	34387	4420.902735853511	0.41666668653488
9220	35253	4620.000696	1
9220	35696	4620.607253179726	0.375
9220	35875	4621.009055041415	0.69999998807907
9220	36013	4621.314306546943	0.83333332836628
9220	36956	4820.100727	0.875
9220	37198	4820.500727	0.625
9220	37390	4820.814415793126	0.79999999701977
9220	37601	4821.321884810298	0.84000000357628
9220	38460	5020.300769	0.625
9220	38756	5020.900769	0.5
9220	38906	5021.20181353444	0.875
9220	38978	5021.403521546584	0.94444444403052
9220	40333	5220.900792	-0.25
9220	40533	5221.300792	0.8125
9220	40640	5221.601648405734	0.91304347664118
9220	40750	5222.206350825004	0.85294117033482
9220	40798	5222.81422042975	0.86111110448837
9220	40821	5223.415399833401	0.86486487090588
9220	41580	5420.200841	0.75
9220	41790	5420.604355952003	0.625
9220	41885	5420.807926761653	0.875
9220	42060	5421.214672137892	0.8125
9220	43119	5620.10085	0.875
9220	43437	5620.70085	0.44444441795349
9220	43600	5621.00697955155	0.81818181276321
9220	44612	5820.100877	0.875
9220	44861	5820.500877	0.66666665673256
9220	44999	5820.705781721479	0.90909090638161
9220	46445	6020.400905	0.5
9220	46627	6020.708317776867	0.77777777612209
9220	46761	6021.008636662973	0.79999999701977
9220	47647	6220.000935	1
9220	47877	6220.300935	0.75
9220	48298	6221.101345956102	0.53333333134651
9221	142	20.100002	0.1
9221	290	20.300002	0.2
9221	673	21.004366548714	0.7
9221	886	21.605366289672	0.6
9221	1750	220.400052	0.4
9221	1933	220.800052	0.4
9221	2173	221.30063253995	0.5
9221	3133	420.100072	0.1
9221	3319	420.400072	0.3
9221	3577	420.90160261486	0.5
9221	3754	421.302927662623	0.4
9221	4703	620.100102	0.1
9221	4951	620.500102	0.4
9221	5327	621.309171854176	0.8
9221	6413	820.300132	0.3
9221	6840	821.100132	0.8
9221	7859	1020.20016	0.2
9221	8037	1020.404311072979	0.2
9221	8178	1020.705949082999	0.3
9221	8270	1020.906749794553	0.2
9221	9274	1220.200185	0.2
9221	9766	1221.10704411989	0.9
9221	9868	1221.408145975888	0.3
9221	9953	1221.810788956846	0.4
9221	9990	1222.014879414807	0.2
9221	10054	1222.515790252676	0.5
9221	10997	1420.600238	0.6
9221	11245	1421.100238	0.5
9221	11381	1421.409402177968	0.3
9221	11527	1421.914537264968	0.5
9221	12505	1620.100257	0.1
9221	12842	1620.613827755965	0.5
9221	13149	1621.316609121886	0.7
9221	14129	1820.400282	0.4
9221	14468	1821.100282	0.7
9221	14560	1821.304555085014	0.2
9221	15614	2020.300316	0.3
9221	15741	2020.500316	0.2
9221	15919	2020.805978685649	0.3
9221	16188	2021.416959332579	0.6
9221	17188	2220.100346	0.1
9221	17550	2220.800346	0.7
9221	17764	2221.207714601749	0.4
9221	17985	2221.912412675852	0.7
9221	18947	2420.40038	0.4
9221	19254	2421.10038	0.7
9221	20275	2620.100395	0.1
9221	20641	2620.705313514261	0.6
9221	21942	2820.100422	0.1
9221	22158	2820.400422	0.3
9221	22362	2820.707878411602	0.3
9221	23497	3020.300454	0.3
9221	23875	3021.000454	0.7
9221	24091	3021.411848353979	0.4
9221	25126	3220.200494	0.2
9221	25318	3220.500494	0.3
9221	25471	3220.800683046293	0.3
9221	26404	3420.100515	0.1
9221	26526	3420.300515	0.2
9221	26854	3420.810134073763	0.5
9221	27934	3620.100545	0.1
9221	28365	3620.900545	0.8
9221	28487	3621.109007066436	0.2
9221	28561	3621.309701983257	0.2
9221	28718	3621.913511494923	0.6
9221	29609	3820.400595	0.4
9221	29895	3821.000595	0.6
9221	30121	3821.508416684768	0.5
9221	30215	3821.817968672024	0.3
9221	30270	3822.123441098804	0.3
9221	30307	3822.42826453697	0.3
9221	30335	3822.729480141837	0.3
9221	30358	3822.93374484436	0.2
9221	31066	4020.20063	0.2
9221	31329	4020.70063	0.5
9221	31423	4020.90129493835	0.2
9221	32457	4220.100635	0.1
9221	33051	4221.210136884197	1.1
9221	33160	4221.513085532907	0.3
9221	33248	4221.915118806924	0.4
9221	33945	4420.100684	0.1
9221	34387	4420.902735853511	0.8
9221	35253	4620.000696	0
9221	35696	4620.607253179726	0.6
9221	35875	4621.009055041415	0.4