version 2
run Stability2-33-20130528-01:24:55-24168
attr configname Stability2
attr datetime 20130528-01:24:55
attr experiment Stability2
attr inifile omnetpp.ini
attr iterationvars $0=40
attr iterationvars2 "$0=40, $repetition=3"
attr measurement $0=40
attr network Network
attr processid 24168
attr repetition 3
attr replication #3
attr resultdir results
attr runnumber 33
attr seedset 33

vector 1020033  Network.churner  inGoingSizeSig:vector  ETV
vector 990036  Network.dyn_peer[1]  lookupHopsSig:vector  ETV
vector 990037  Network.dyn_peer[1]  lookupStabilitySig:vector  ETV
vector 990038  Network.dyn_peer[1]  lookupTimeSig:vector  ETV
vector 990042  Network.dyn_peer[3]  lookupHopsSig:vector  ETV
vector 990043  Network.dyn_peer[3]  lookupStabilitySig:vector  ETV
vector 990044  Network.dyn_peer[3]  lookupTimeSig:vector  ETV
vector 990045  Network.dyn_peer[4]  lookupHopsSig:vector  ETV
vector 990046  Network.dyn_peer[4]  lookupStabilitySig:vector  ETV
vector 990047  Network.dyn_peer[4]  lookupTimeSig:vector  ETV
vector 990054  Network.dyn_peer[7]  lookupHopsSig:vector  ETV
vector 990055  Network.dyn_peer[7]  lookupStabilitySig:vector  ETV
vector 990056  Network.dyn_peer[7]  lookupTimeSig:vector  ETV
vector 990060  Network.dyn_peer[9]  lookupHopsSig:vector  ETV
vector 990061  Network.dyn_peer[9]  lookupStabilitySig:vector  ETV
vector 990062  Network.dyn_peer[9]  lookupTimeSig:vector  ETV
vector 990039  Network.dyn_peer[2]  lookupHopsSig:vector  ETV
vector 990040  Network.dyn_peer[2]  lookupStabilitySig:vector  ETV
vector 990041  Network.dyn_peer[2]  lookupTimeSig:vector  ETV
vector 990033  Network.dyn_peer[0]  lookupHopsSig:vector  ETV
vector 990034  Network.dyn_peer[0]  lookupStabilitySig:vector  ETV
vector 990035  Network.dyn_peer[0]  lookupTimeSig:vector  ETV
vector 990066  Network.dyn_peer[11]  lookupHopsSig:vector  ETV
vector 990067  Network.dyn_peer[11]  lookupStabilitySig:vector  ETV
vector 990068  Network.dyn_peer[11]  lookupTimeSig:vector  ETV
vector 990051  Network.dyn_peer[6]  lookupHopsSig:vector  ETV
vector 990052  Network.dyn_peer[6]  lookupStabilitySig:vector  ETV
vector 990053  Network.dyn_peer[6]  lookupTimeSig:vector  ETV
vector 990081  Network.dyn_peer[16]  lookupHopsSig:vector  ETV
vector 990082  Network.dyn_peer[16]  lookupStabilitySig:vector  ETV
vector 990083  Network.dyn_peer[16]  lookupTimeSig:vector  ETV
vector 990063  Network.dyn_peer[10]  lookupHopsSig:vector  ETV
vector 990064  Network.dyn_peer[10]  lookupStabilitySig:vector  ETV
vector 990065  Network.dyn_peer[10]  lookupTimeSig:vector  ETV
vector 990069  Network.dyn_peer[12]  lookupHopsSig:vector  ETV
vector 990070  Network.dyn_peer[12]  lookupStabilitySig:vector  ETV
vector 990071  Network.dyn_peer[12]  lookupTimeSig:vector  ETV
vector 990072  Network.dyn_peer[13]  lookupHopsSig:vector  ETV
vector 990073  Network.dyn_peer[13]  lookupStabilitySig:vector  ETV
vector 990074  Network.dyn_peer[13]  lookupTimeSig:vector  ETV
vector 990075  Network.dyn_peer[14]  lookupHopsSig:vector  ETV
vector 990076  Network.dyn_peer[14]  lookupStabilitySig:vector  ETV
vector 990077  Network.dyn_peer[14]  lookupTimeSig:vector  ETV
vector 990093  Network.dyn_peer[20]  lookupHopsSig:vector  ETV
vector 990094  Network.dyn_peer[20]  lookupStabilitySig:vector  ETV
vector 990095  Network.dyn_peer[20]  lookupTimeSig:vector  ETV
vector 990048  Network.dyn_peer[5]  lookupHopsSig:vector  ETV
vector 990049  Network.dyn_peer[5]  lookupStabilitySig:vector  ETV
vector 990050  Network.dyn_peer[5]  lookupTimeSig:vector  ETV
vector 990078  Network.dyn_peer[15]  lookupHopsSig:vector  ETV
vector 990079  Network.dyn_peer[15]  lookupStabilitySig:vector  ETV
vector 990080  Network.dyn_peer[15]  lookupTimeSig:vector  ETV
vector 990108  Network.dyn_peer[25]  lookupHopsSig:vector  ETV
vector 990109  Network.dyn_peer[25]  lookupStabilitySig:vector  ETV
vector 990110  Network.dyn_peer[25]  lookupTimeSig:vector  ETV
vector 990084  Network.dyn_peer[17]  lookupHopsSig:vector  ETV
vector 990085  Network.dyn_peer[17]  lookupStabilitySig:vector  ETV
vector 990086  Network.dyn_peer[17]  lookupTimeSig:vector  ETV
vector 990087  Network.dyn_peer[18]  lookupHopsSig:vector  ETV
vector 990088  Network.dyn_peer[18]  lookupStabilitySig:vector  ETV
vector 990089  Network.dyn_peer[18]  lookupTimeSig:vector  ETV
vector 990150  Network.dyn_peer[39]  lookupHopsSig:vector  ETV
vector 990151  Network.dyn_peer[39]  lookupStabilitySig:vector  ETV
vector 990152  Network.dyn_peer[39]  lookupTimeSig:vector  ETV
vector 990099  Network.dyn_peer[22]  lookupHopsSig:vector  ETV
vector 990100  Network.dyn_peer[22]  lookupStabilitySig:vector  ETV
vector 990101  Network.dyn_peer[22]  lookupTimeSig:vector  ETV
vector 990129  Network.dyn_peer[32]  lookupHopsSig:vector  ETV
vector 990130  Network.dyn_peer[32]  lookupStabilitySig:vector  ETV
vector 990131  Network.dyn_peer[32]  lookupTimeSig:vector  ETV
vector 990102  Network.dyn_peer[23]  lookupHopsSig:vector  ETV
vector 990103  Network.dyn_peer[23]  lookupStabilitySig:vector  ETV
vector 990104  Network.dyn_peer[23]  lookupTimeSig:vector  ETV
vector 990105  Network.dyn_peer[24]  lookupHopsSig:vector  ETV
vector 990106  Network.dyn_peer[24]  lookupStabilitySig:vector  ETV
vector 990107  Network.dyn_peer[24]  lookupTimeSig:vector  ETV
vector 990165  Network.dyn_peer[44]  lookupHopsSig:vector  ETV
vector 990166  Network.dyn_peer[44]  lookupStabilitySig:vector  ETV
vector 990167  Network.dyn_peer[44]  lookupTimeSig:vector  ETV
vector 990114  Network.dyn_peer[27]  lookupHopsSig:vector  ETV
vector 990115  Network.dyn_peer[27]  lookupStabilitySig:vector  ETV
vector 990116  Network.dyn_peer[27]  lookupTimeSig:vector  ETV
vector 990057  Network.dyn_peer[8]  lookupHopsSig:vector  ETV
vector 990058  Network.dyn_peer[8]  lookupStabilitySig:vector  ETV
vector 990059  Network.dyn_peer[8]  lookupTimeSig:vector  ETV
vector 990096  Network.dyn_peer[21]  lookupHopsSig:vector  ETV
vector 990097  Network.dyn_peer[21]  lookupStabilitySig:vector  ETV
vector 990098  Network.dyn_peer[21]  lookupTimeSig:vector  ETV
vector 990138  Network.dyn_peer[35]  lookupHopsSig:vector  ETV
vector 990139  Network.dyn_peer[35]  lookupStabilitySig:vector  ETV
vector 990140  Network.dyn_peer[35]  lookupTimeSig:vector  ETV
vector 990198  Network.dyn_peer[55]  lookupHopsSig:vector  ETV
vector 990199  Network.dyn_peer[55]  lookupStabilitySig:vector  ETV
vector 990200  Network.dyn_peer[55]  lookupTimeSig:vector  ETV
vector 990111  Network.dyn_peer[26]  lookupHopsSig:vector  ETV
vector 990112  Network.dyn_peer[26]  lookupStabilitySig:vector  ETV
vector 990113  Network.dyn_peer[26]  lookupTimeSig:vector  ETV
vector 990204  Network.dyn_peer[57]  lookupHopsSig:vector  ETV
vector 990205  Network.dyn_peer[57]  lookupStabilitySig:vector  ETV
vector 990206  Network.dyn_peer[57]  lookupTimeSig:vector  ETV
vector 990174  Network.dyn_peer[47]  lookupHopsSig:vector  ETV
vector 990175  Network.dyn_peer[47]  lookupStabilitySig:vector  ETV
vector 990176  Network.dyn_peer[47]  lookupTimeSig:vector  ETV
vector 990207  Network.dyn_peer[58]  lookupHopsSig:vector  ETV
vector 990208  Network.dyn_peer[58]  lookupStabilitySig:vector  ETV
vector 990209  Network.dyn_peer[58]  lookupTimeSig:vector  ETV
vector 990090  Network.dyn_peer[19]  lookupHopsSig:vector  ETV
vector 990091  Network.dyn_peer[19]  lookupStabilitySig:vector  ETV
vector 990092  Network.dyn_peer[19]  lookupTimeSig:vector  ETV
vector 990153  Network.dyn_peer[40]  lookupHopsSig:vector  ETV
vector 990154  Network.dyn_peer[40]  lookupStabilitySig:vector  ETV
vector 990155  Network.dyn_peer[40]  lookupTimeSig:vector  ETV
vector 990276  Network.dyn_peer[81]  lookupHopsSig:vector  ETV
vector 990277  Network.dyn_peer[81]  lookupStabilitySig:vector  ETV
vector 990278  Network.dyn_peer[81]  lookupTimeSig:vector  ETV
vector 990192  Network.dyn_peer[53]  lookupHopsSig:vector  ETV
vector 990193  Network.dyn_peer[53]  lookupStabilitySig:vector  ETV
vector 990194  Network.dyn_peer[53]  lookupTimeSig:vector  ETV
vector 990225  Network.dyn_peer[64]  lookupHopsSig:vector  ETV
vector 990226  Network.dyn_peer[64]  lookupStabilitySig:vector  ETV
vector 990227  Network.dyn_peer[64]  lookupTimeSig:vector  ETV
vector 990228  Network.dyn_peer[65]  lookupHopsSig:vector  ETV
vector 990229  Network.dyn_peer[65]  lookupStabilitySig:vector  ETV
vector 990230  Network.dyn_peer[65]  lookupTimeSig:vector  ETV
vector 990144  Network.dyn_peer[37]  lookupHopsSig:vector  ETV
vector 990145  Network.dyn_peer[37]  lookupStabilitySig:vector  ETV
vector 990146  Network.dyn_peer[37]  lookupTimeSig:vector  ETV
vector 990147  Network.dyn_peer[38]  lookupHopsSig:vector  ETV
vector 990148  Network.dyn_peer[38]  lookupStabilitySig:vector  ETV
vector 990149  Network.dyn_peer[38]  lookupTimeSig:vector  ETV
vector 990120  Network.dyn_peer[29]  lookupHopsSig:vector  ETV
vector 990121  Network.dyn_peer[29]  lookupStabilitySig:vector  ETV
vector 990122  Network.dyn_peer[29]  lookupTimeSig:vector  ETV
vector 990186  Network.dyn_peer[51]  lookupHopsSig:vector  ETV
vector 990187  Network.dyn_peer[51]  lookupStabilitySig:vector  ETV
vector 990188  Network.dyn_peer[51]  lookupTimeSig:vector  ETV
vector 990246  Network.dyn_peer[71]  lookupHopsSig:vector  ETV
vector 990247  Network.dyn_peer[71]  lookupStabilitySig:vector  ETV
vector 990248  Network.dyn_peer[71]  lookupTimeSig:vector  ETV
vector 990219  Network.dyn_peer[62]  lookupHopsSig:vector  ETV
vector 990220  Network.dyn_peer[62]  lookupStabilitySig:vector  ETV
vector 990221  Network.dyn_peer[62]  lookupTimeSig:vector  ETV
vector 990132  Network.dyn_peer[33]  lookupHopsSig:vector  ETV
vector 990133  Network.dyn_peer[33]  lookupStabilitySig:vector  ETV
vector 990134  Network.dyn_peer[33]  lookupTimeSig:vector  ETV
vector 990255  Network.dyn_peer[74]  lookupHopsSig:vector  ETV
vector 990256  Network.dyn_peer[74]  lookupStabilitySig:vector  ETV
vector 990257  Network.dyn_peer[74]  lookupTimeSig:vector  ETV
vector 990177  Network.dyn_peer[48]  lookupHopsSig:vector  ETV
vector 990178  Network.dyn_peer[48]  lookupStabilitySig:vector  ETV
vector 990179  Network.dyn_peer[48]  lookupTimeSig:vector  ETV
vector 990123  Network.dyn_peer[30]  lookupHopsSig:vector  ETV
vector 990124  Network.dyn_peer[30]  lookupStabilitySig:vector  ETV
vector 990125  Network.dyn_peer[30]  lookupTimeSig:vector  ETV
vector 990159  Network.dyn_peer[42]  lookupHopsSig:vector  ETV
vector 990160  Network.dyn_peer[42]  lookupStabilitySig:vector  ETV
vector 990161  Network.dyn_peer[42]  lookupTimeSig:vector  ETV
vector 990258  Network.dyn_peer[75]  lookupHopsSig:vector  ETV
vector 990259  Network.dyn_peer[75]  lookupStabilitySig:vector  ETV
vector 990260  Network.dyn_peer[75]  lookupTimeSig:vector  ETV
vector 990240  Network.dyn_peer[69]  lookupHopsSig:vector  ETV
vector 990241  Network.dyn_peer[69]  lookupStabilitySig:vector  ETV
vector 990242  Network.dyn_peer[69]  lookupTimeSig:vector  ETV
vector 990213  Network.dyn_peer[60]  lookupHopsSig:vector  ETV
vector 990214  Network.dyn_peer[60]  lookupStabilitySig:vector  ETV
vector 990215  Network.dyn_peer[60]  lookupTimeSig:vector  ETV
vector 990162  Network.dyn_peer[43]  lookupHopsSig:vector  ETV
vector 990163  Network.dyn_peer[43]  lookupStabilitySig:vector  ETV
vector 990164  Network.dyn_peer[43]  lookupTimeSig:vector  ETV
vector 990222  Network.dyn_peer[63]  lookupHopsSig:vector  ETV
vector 990223  Network.dyn_peer[63]  lookupStabilitySig:vector  ETV
vector 990224  Network.dyn_peer[63]  lookupTimeSig:vector  ETV
vector 990312  Network.dyn_peer[93]  lookupHopsSig:vector  ETV
vector 990313  Network.dyn_peer[93]  lookupStabilitySig:vector  ETV
vector 990314  Network.dyn_peer[93]  lookupTimeSig:vector  ETV
vector 990294  Network.dyn_peer[87]  lookupHopsSig:vector  ETV
vector 990295  Network.dyn_peer[87]  lookupStabilitySig:vector  ETV
vector 990296  Network.dyn_peer[87]  lookupTimeSig:vector  ETV
vector 990156  Network.dyn_peer[41]  lookupHopsSig:vector  ETV
vector 990157  Network.dyn_peer[41]  lookupStabilitySig:vector  ETV
vector 990158  Network.dyn_peer[41]  lookupTimeSig:vector  ETV
vector 990216  Network.dyn_peer[61]  lookupHopsSig:vector  ETV
vector 990217  Network.dyn_peer[61]  lookupStabilitySig:vector  ETV
vector 990218  Network.dyn_peer[61]  lookupTimeSig:vector  ETV
vector 990249  Network.dyn_peer[72]  lookupHopsSig:vector  ETV
vector 990250  Network.dyn_peer[72]  lookupStabilitySig:vector  ETV
vector 990251  Network.dyn_peer[72]  lookupTimeSig:vector  ETV
vector 990309  Network.dyn_peer[92]  lookupHopsSig:vector  ETV
vector 990310  Network.dyn_peer[92]  lookupStabilitySig:vector  ETV
vector 990311  Network.dyn_peer[92]  lookupTimeSig:vector  ETV
vector 990282  Network.dyn_peer[83]  lookupHopsSig:vector  ETV
vector 990283  Network.dyn_peer[83]  lookupStabilitySig:vector  ETV
vector 990284  Network.dyn_peer[83]  lookupTimeSig:vector  ETV
vector 990327  Network.dyn_peer[98]  lookupHopsSig:vector  ETV
vector 990328  Network.dyn_peer[98]  lookupStabilitySig:vector  ETV
vector 990329  Network.dyn_peer[98]  lookupTimeSig:vector  ETV
vector 990210  Network.dyn_peer[59]  lookupHopsSig:vector  ETV
vector 990211  Network.dyn_peer[59]  lookupStabilitySig:vector  ETV
vector 990212  Network.dyn_peer[59]  lookupTimeSig:vector  ETV
vector 990126  Network.dyn_peer[31]  lookupHopsSig:vector  ETV
vector 990127  Network.dyn_peer[31]  lookupStabilitySig:vector  ETV
vector 990128  Network.dyn_peer[31]  lookupTimeSig:vector  ETV
vector 990279  Network.dyn_peer[82]  lookupHopsSig:vector  ETV
vector 990280  Network.dyn_peer[82]  lookupStabilitySig:vector  ETV
vector 990281  Network.dyn_peer[82]  lookupTimeSig:vector  ETV
vector 990399  Network.dyn_peer[122]  lookupHopsSig:vector  ETV
vector 990400  Network.dyn_peer[122]  lookupStabilitySig:vector  ETV
vector 990401  Network.dyn_peer[122]  lookupTimeSig:vector  ETV
vector 990342  Network.dyn_peer[103]  lookupHopsSig:vector  ETV
vector 990343  Network.dyn_peer[103]  lookupStabilitySig:vector  ETV
vector 990344  Network.dyn_peer[103]  lookupTimeSig:vector  ETV
vector 990135  Network.dyn_peer[34]  lookupHopsSig:vector  ETV
vector 990136  Network.dyn_peer[34]  lookupStabilitySig:vector  ETV
vector 990137  Network.dyn_peer[34]  lookupTimeSig:vector  ETV
vector 990195  Network.dyn_peer[54]  lookupHopsSig:vector  ETV
vector 990196  Network.dyn_peer[54]  lookupStabilitySig:vector  ETV
vector 990197  Network.dyn_peer[54]  lookupTimeSig:vector  ETV
vector 990261  Network.dyn_peer[76]  lookupHopsSig:vector  ETV
vector 990262  Network.dyn_peer[76]  lookupStabilitySig:vector  ETV
vector 990263  Network.dyn_peer[76]  lookupTimeSig:vector  ETV
vector 990117  Network.dyn_peer[28]  lookupHopsSig:vector  ETV
vector 990118  Network.dyn_peer[28]  lookupStabilitySig:vector  ETV
vector 990119  Network.dyn_peer[28]  lookupTimeSig:vector  ETV
vector 990267  Network.dyn_peer[78]  lookupHopsSig:vector  ETV
vector 990268  Network.dyn_peer[78]  lookupStabilitySig:vector  ETV
vector 990269  Network.dyn_peer[78]  lookupTimeSig:vector  ETV
vector 990297  Network.dyn_peer[88]  lookupHopsSig:vector  ETV
vector 990298  Network.dyn_peer[88]  lookupStabilitySig:vector  ETV
vector 990299  Network.dyn_peer[88]  lookupTimeSig:vector  ETV
vector 990363  Network.dyn_peer[110]  lookupHopsSig:vector  ETV
vector 990364  Network.dyn_peer[110]  lookupStabilitySig:vector  ETV
vector 990365  Network.dyn_peer[110]  lookupTimeSig:vector  ETV
vector 990189  Network.dyn_peer[52]  lookupHopsSig:vector  ETV
vector 990190  Network.dyn_peer[52]  lookupStabilitySig:vector  ETV
vector 990191  Network.dyn_peer[52]  lookupTimeSig:vector  ETV
vector 990168  Network.dyn_peer[45]  lookupHopsSig:vector  ETV
vector 990169  Network.dyn_peer[45]  lookupStabilitySig:vector  ETV
vector 990170  Network.dyn_peer[45]  lookupTimeSig:vector  ETV
vector 990171  Network.dyn_peer[46]  lookupHopsSig:vector  ETV
vector 990172  Network.dyn_peer[46]  lookupStabilitySig:vector  ETV
vector 990173  Network.dyn_peer[46]  lookupTimeSig:vector  ETV
vector 990231  Network.dyn_peer[66]  lookupHopsSig:vector  ETV
vector 990232  Network.dyn_peer[66]  lookupStabilitySig:vector  ETV
vector 990233  Network.dyn_peer[66]  lookupTimeSig:vector  ETV
vector 990234  Network.dyn_peer[67]  lookupHopsSig:vector  ETV
vector 990235  Network.dyn_peer[67]  lookupStabilitySig:vector  ETV
vector 990236  Network.dyn_peer[67]  lookupTimeSig:vector  ETV
vector 990264  Network.dyn_peer[77]  lookupHopsSig:vector  ETV
vector 990265  Network.dyn_peer[77]  lookupStabilitySig:vector  ETV
vector 990266  Network.dyn_peer[77]  lookupTimeSig:vector  ETV
vector 990357  Network.dyn_peer[108]  lookupHopsSig:vector  ETV
vector 990358  Network.dyn_peer[108]  lookupStabilitySig:vector  ETV
vector 990359  Network.dyn_peer[108]  lookupTimeSig:vector  ETV
vector 990180  Network.dyn_peer[49]  lookupHopsSig:vector  ETV
vector 990181  Network.dyn_peer[49]  lookupStabilitySig:vector  ETV
vector 990182  Network.dyn_peer[49]  lookupTimeSig:vector  ETV
vector 990243  Network.dyn_peer[70]  lookupHopsSig:vector  ETV
vector 990244  Network.dyn_peer[70]  lookupStabilitySig:vector  ETV
vector 990245  Network.dyn_peer[70]  lookupTimeSig:vector  ETV
vector 990432  Network.dyn_peer[133]  lookupHopsSig:vector  ETV
vector 990433  Network.dyn_peer[133]  lookupStabilitySig:vector  ETV
vector 990434  Network.dyn_peer[133]  lookupTimeSig:vector  ETV
vector 990405  Network.dyn_peer[124]  lookupHopsSig:vector  ETV
vector 990406  Network.dyn_peer[124]  lookupStabilitySig:vector  ETV
vector 990407  Network.dyn_peer[124]  lookupTimeSig:vector  ETV
vector 990471  Network.dyn_peer[146]  lookupHopsSig:vector  ETV
vector 990472  Network.dyn_peer[146]  lookupStabilitySig:vector  ETV
vector 990473  Network.dyn_peer[146]  lookupTimeSig:vector  ETV
vector 990501  Network.dyn_peer[156]  lookupHopsSig:vector  ETV
vector 990502  Network.dyn_peer[156]  lookupStabilitySig:vector  ETV
vector 990503  Network.dyn_peer[156]  lookupTimeSig:vector  ETV
vector 990384  Network.dyn_peer[117]  lookupHopsSig:vector  ETV
vector 990385  Network.dyn_peer[117]  lookupStabilitySig:vector  ETV
vector 990386  Network.dyn_peer[117]  lookupTimeSig:vector  ETV
vector 990417  Network.dyn_peer[128]  lookupHopsSig:vector  ETV
vector 990418  Network.dyn_peer[128]  lookupStabilitySig:vector  ETV
vector 990419  Network.dyn_peer[128]  lookupTimeSig:vector  ETV
vector 990270  Network.dyn_peer[79]  lookupHopsSig:vector  ETV
vector 990271  Network.dyn_peer[79]  lookupStabilitySig:vector  ETV
vector 990272  Network.dyn_peer[79]  lookupTimeSig:vector  ETV
vector 990273  Network.dyn_peer[80]  lookupHopsSig:vector  ETV
vector 990274  Network.dyn_peer[80]  lookupStabilitySig:vector  ETV
vector 990275  Network.dyn_peer[80]  lookupTimeSig:vector  ETV
vector 990396  Network.dyn_peer[121]  lookupHopsSig:vector  ETV
vector 990397  Network.dyn_peer[121]  lookupStabilitySig:vector  ETV
vector 990398  Network.dyn_peer[121]  lookupTimeSig:vector  ETV
vector 990459  Network.dyn_peer[142]  lookupHopsSig:vector  ETV
vector 990460  Network.dyn_peer[142]  lookupStabilitySig:vector  ETV
vector 990461  Network.dyn_peer[142]  lookupTimeSig:vector  ETV
vector 990252  Network.dyn_peer[73]  lookupHopsSig:vector  ETV
vector 990253  Network.dyn_peer[73]  lookupStabilitySig:vector  ETV
vector 990254  Network.dyn_peer[73]  lookupTimeSig:vector  ETV
vector 990345  Network.dyn_peer[104]  lookupHopsSig:vector  ETV
vector 990346  Network.dyn_peer[104]  lookupStabilitySig:vector  ETV
vector 990347  Network.dyn_peer[104]  lookupTimeSig:vector  ETV
vector 990288  Network.dyn_peer[85]  lookupHopsSig:vector  ETV
vector 990289  Network.dyn_peer[85]  lookupStabilitySig:vector  ETV
vector 990290  Network.dyn_peer[85]  lookupTimeSig:vector  ETV
vector 990201  Network.dyn_peer[56]  lookupHopsSig:vector  ETV
vector 990202  Network.dyn_peer[56]  lookupStabilitySig:vector  ETV
vector 990203  Network.dyn_peer[56]  lookupTimeSig:vector  ETV
vector 990321  Network.dyn_peer[96]  lookupHopsSig:vector  ETV
vector 990322  Network.dyn_peer[96]  lookupStabilitySig:vector  ETV
vector 990323  Network.dyn_peer[96]  lookupTimeSig:vector  ETV
vector 990351  Network.dyn_peer[106]  lookupHopsSig:vector  ETV
vector 990352  Network.dyn_peer[106]  lookupStabilitySig:vector  ETV
vector 990353  Network.dyn_peer[106]  lookupTimeSig:vector  ETV
vector 990444  Network.dyn_peer[137]  lookupHopsSig:vector  ETV
vector 990445  Network.dyn_peer[137]  lookupStabilitySig:vector  ETV
vector 990446  Network.dyn_peer[137]  lookupTimeSig:vector  ETV
vector 990474  Network.dyn_peer[147]  lookupHopsSig:vector  ETV
vector 990475  Network.dyn_peer[147]  lookupStabilitySig:vector  ETV
vector 990476  Network.dyn_peer[147]  lookupTimeSig:vector  ETV
vector 990393  Network.dyn_peer[120]  lookupHopsSig:vector  ETV
vector 990394  Network.dyn_peer[120]  lookupStabilitySig:vector  ETV
vector 990395  Network.dyn_peer[120]  lookupTimeSig:vector  ETV
vector 990456  Network.dyn_peer[141]  lookupHopsSig:vector  ETV
vector 990457  Network.dyn_peer[141]  lookupStabilitySig:vector  ETV
vector 990458  Network.dyn_peer[141]  lookupTimeSig:vector  ETV
vector 990285  Network.dyn_peer[84]  lookupHopsSig:vector  ETV
vector 990286  Network.dyn_peer[84]  lookupStabilitySig:vector  ETV
vector 990287  Network.dyn_peer[84]  lookupTimeSig:vector  ETV
vector 990348  Network.dyn_peer[105]  lookupHopsSig:vector  ETV
vector 990349  Network.dyn_peer[105]  lookupStabilitySig:vector  ETV
vector 990350  Network.dyn_peer[105]  lookupTimeSig:vector  ETV
vector 990447  Network.dyn_peer[138]  lookupHopsSig:vector  ETV
vector 990448  Network.dyn_peer[138]  lookupStabilitySig:vector  ETV
vector 990449  Network.dyn_peer[138]  lookupTimeSig:vector  ETV
vector 990507  Network.dyn_peer[158]  lookupHopsSig:vector  ETV
vector 990508  Network.dyn_peer[158]  lookupStabilitySig:vector  ETV
vector 990509  Network.dyn_peer[158]  lookupTimeSig:vector  ETV
vector 990420  Network.dyn_peer[129]  lookupHopsSig:vector  ETV
vector 990421  Network.dyn_peer[129]  lookupStabilitySig:vector  ETV
vector 990422  Network.dyn_peer[129]  lookupTimeSig:vector  ETV
vector 990426  Network.dyn_peer[131]  lookupHopsSig:vector  ETV
vector 990427  Network.dyn_peer[131]  lookupStabilitySig:vector  ETV
vector 990428  Network.dyn_peer[131]  lookupTimeSig:vector  ETV
vector 990546  Network.dyn_peer[171]  lookupHopsSig:vector  ETV
vector 990547  Network.dyn_peer[171]  lookupStabilitySig:vector  ETV
vector 990548  Network.dyn_peer[171]  lookupTimeSig:vector  ETV
vector 990531  Network.dyn_peer[166]  lookupHopsSig:vector  ETV
vector 990532  Network.dyn_peer[166]  lookupStabilitySig:vector  ETV
vector 990533  Network.dyn_peer[166]  lookupTimeSig:vector  ETV
vector 990477  Network.dyn_peer[148]  lookupHopsSig:vector  ETV
vector 990478  Network.dyn_peer[148]  lookupStabilitySig:vector  ETV
vector 990479  Network.dyn_peer[148]  lookupTimeSig:vector  ETV
vector 990360  Network.dyn_peer[109]  lookupHopsSig:vector  ETV
vector 990361  Network.dyn_peer[109]  lookupStabilitySig:vector  ETV
vector 990362  Network.dyn_peer[109]  lookupTimeSig:vector  ETV
vector 990600  Network.dyn_peer[189]  lookupHopsSig:vector  ETV
vector 990601  Network.dyn_peer[189]  lookupStabilitySig:vector  ETV
vector 990602  Network.dyn_peer[189]  lookupTimeSig:vector  ETV
vector 990306  Network.dyn_peer[91]  lookupHopsSig:vector  ETV
vector 990307  Network.dyn_peer[91]  lookupStabilitySig:vector  ETV
vector 990308  Network.dyn_peer[91]  lookupTimeSig:vector  ETV
vector 990576  Network.dyn_peer[181]  lookupHopsSig:vector  ETV
vector 990577  Network.dyn_peer[181]  lookupStabilitySig:vector  ETV
vector 990578  Network.dyn_peer[181]  lookupTimeSig:vector  ETV
vector 990339  Network.dyn_peer[102]  lookupHopsSig:vector  ETV
vector 990340  Network.dyn_peer[102]  lookupStabilitySig:vector  ETV
vector 990341  Network.dyn_peer[102]  lookupTimeSig:vector  ETV
vector 990402  Network.dyn_peer[123]  lookupHopsSig:vector  ETV
vector 990403  Network.dyn_peer[123]  lookupStabilitySig:vector  ETV
vector 990404  Network.dyn_peer[123]  lookupTimeSig:vector  ETV
vector 990462  Network.dyn_peer[143]  lookupHopsSig:vector  ETV
vector 990463  Network.dyn_peer[143]  lookupStabilitySig:vector  ETV
vector 990464  Network.dyn_peer[143]  lookupTimeSig:vector  ETV
vector 990435  Network.dyn_peer[134]  lookupHopsSig:vector  ETV
vector 990436  Network.dyn_peer[134]  lookupStabilitySig:vector  ETV
vector 990437  Network.dyn_peer[134]  lookupTimeSig:vector  ETV
vector 990336  Network.dyn_peer[101]  lookupHopsSig:vector  ETV
vector 990337  Network.dyn_peer[101]  lookupStabilitySig:vector  ETV
vector 990338  Network.dyn_peer[101]  lookupTimeSig:vector  ETV
vector 990372  Network.dyn_peer[113]  lookupHopsSig:vector  ETV
vector 990373  Network.dyn_peer[113]  lookupStabilitySig:vector  ETV
vector 990374  Network.dyn_peer[113]  lookupTimeSig:vector  ETV
vector 990465  Network.dyn_peer[144]  lookupHopsSig:vector  ETV
vector 990466  Network.dyn_peer[144]  lookupStabilitySig:vector  ETV
vector 990467  Network.dyn_peer[144]  lookupTimeSig:vector  ETV
vector 990141  Network.dyn_peer[36]  lookupHopsSig:vector  ETV
vector 990142  Network.dyn_peer[36]  lookupStabilitySig:vector  ETV
vector 990143  Network.dyn_peer[36]  lookupTimeSig:vector  ETV
vector 990324  Network.dyn_peer[97]  lookupHopsSig:vector  ETV
vector 990325  Network.dyn_peer[97]  lookupStabilitySig:vector  ETV
vector 990326  Network.dyn_peer[97]  lookupTimeSig:vector  ETV
vector 990237  Network.dyn_peer[68]  lookupHopsSig:vector  ETV
vector 990238  Network.dyn_peer[68]  lookupStabilitySig:vector  ETV
vector 990239  Network.dyn_peer[68]  lookupTimeSig:vector  ETV
vector 990510  Network.dyn_peer[159]  lookupHopsSig:vector  ETV
vector 990511  Network.dyn_peer[159]  lookupStabilitySig:vector  ETV
vector 990512  Network.dyn_peer[159]  lookupTimeSig:vector  ETV
vector 990333  Network.dyn_peer[100]  lookupHopsSig:vector  ETV
vector 990334  Network.dyn_peer[100]  lookupStabilitySig:vector  ETV
vector 990335  Network.dyn_peer[100]  lookupTimeSig:vector  ETV
vector 990423  Network.dyn_peer[130]  lookupHopsSig:vector  ETV
vector 990424  Network.dyn_peer[130]  lookupStabilitySig:vector  ETV
vector 990425  Network.dyn_peer[130]  lookupTimeSig:vector  ETV
vector 990315  Network.dyn_peer[94]  lookupHopsSig:vector  ETV
vector 990316  Network.dyn_peer[94]  lookupStabilitySig:vector  ETV
vector 990317  Network.dyn_peer[94]  lookupTimeSig:vector  ETV
vector 990585  Network.dyn_peer[184]  lookupHopsSig:vector  ETV
vector 990586  Network.dyn_peer[184]  lookupStabilitySig:vector  ETV
vector 990587  Network.dyn_peer[184]  lookupTimeSig:vector  ETV
vector 990318  Network.dyn_peer[95]  lookupHopsSig:vector  ETV
vector 990319  Network.dyn_peer[95]  lookupStabilitySig:vector  ETV
vector 990320  Network.dyn_peer[95]  lookupTimeSig:vector  ETV
vector 990291  Network.dyn_peer[86]  lookupHopsSig:vector  ETV
vector 990292  Network.dyn_peer[86]  lookupStabilitySig:vector  ETV
vector 990293  Network.dyn_peer[86]  lookupTimeSig:vector  ETV
vector 990354  Network.dyn_peer[107]  lookupHopsSig:vector  ETV
vector 990355  Network.dyn_peer[107]  lookupStabilitySig:vector  ETV
vector 990356  Network.dyn_peer[107]  lookupTimeSig:vector  ETV
vector 990483  Network.dyn_peer[150]  lookupHopsSig:vector  ETV
vector 990484  Network.dyn_peer[150]  lookupStabilitySig:vector  ETV
vector 990485  Network.dyn_peer[150]  lookupTimeSig:vector  ETV
vector 990486  Network.dyn_peer[151]  lookupHopsSig:vector  ETV
vector 990487  Network.dyn_peer[151]  lookupStabilitySig:vector  ETV
vector 990488  Network.dyn_peer[151]  lookupTimeSig:vector  ETV
vector 990369  Network.dyn_peer[112]  lookupHopsSig:vector  ETV
vector 990370  Network.dyn_peer[112]  lookupStabilitySig:vector  ETV
vector 990371  Network.dyn_peer[112]  lookupTimeSig:vector  ETV
vector 990429  Network.dyn_peer[132]  lookupHopsSig:vector  ETV
vector 990430  Network.dyn_peer[132]  lookupStabilitySig:vector  ETV
vector 990431  Network.dyn_peer[132]  lookupTimeSig:vector  ETV
vector 990582  Network.dyn_peer[183]  lookupHopsSig:vector  ETV
vector 990583  Network.dyn_peer[183]  lookupStabilitySig:vector  ETV
vector 990584  Network.dyn_peer[183]  lookupTimeSig:vector  ETV
vector 990528  Network.dyn_peer[165]  lookupHopsSig:vector  ETV
vector 990529  Network.dyn_peer[165]  lookupStabilitySig:vector  ETV
vector 990530  Network.dyn_peer[165]  lookupTimeSig:vector  ETV
vector 990564  Network.dyn_peer[177]  lookupHopsSig:vector  ETV
vector 990565  Network.dyn_peer[177]  lookupStabilitySig:vector  ETV
vector 990566  Network.dyn_peer[177]  lookupTimeSig:vector  ETV
vector 990567  Network.dyn_peer[178]  lookupHopsSig:vector  ETV
vector 990568  Network.dyn_peer[178]  lookupStabilitySig:vector  ETV
vector 990569  Network.dyn_peer[178]  lookupTimeSig:vector  ETV
vector 990513  Network.dyn_peer[160]  lookupHopsSig:vector  ETV
vector 990514  Network.dyn_peer[160]  lookupStabilitySig:vector  ETV
vector 990515  Network.dyn_peer[160]  lookupTimeSig:vector  ETV
vector 990693  Network.dyn_peer[220]  lookupHopsSig:vector  ETV
vector 990694  Network.dyn_peer[220]  lookupStabilitySig:vector  ETV
vector 990695  Network.dyn_peer[220]  lookupTimeSig:vector  ETV
vector 990366  Network.dyn_peer[111]  lookupHopsSig:vector  ETV
vector 990367  Network.dyn_peer[111]  lookupStabilitySig:vector  ETV
vector 990368  Network.dyn_peer[111]  lookupTimeSig:vector  ETV
vector 990666  Network.dyn_peer[211]  lookupHopsSig:vector  ETV
vector 990667  Network.dyn_peer[211]  lookupStabilitySig:vector  ETV
vector 990668  Network.dyn_peer[211]  lookupTimeSig:vector  ETV
vector 990492  Network.dyn_peer[153]  lookupHopsSig:vector  ETV
vector 990493  Network.dyn_peer[153]  lookupStabilitySig:vector  ETV
vector 990494  Network.dyn_peer[153]  lookupTimeSig:vector  ETV
vector 990498  Network.dyn_peer[155]  lookupHopsSig:vector  ETV
vector 990499  Network.dyn_peer[155]  lookupStabilitySig:vector  ETV
vector 990500  Network.dyn_peer[155]  lookupTimeSig:vector  ETV
vector 990678  Network.dyn_peer[215]  lookupHopsSig:vector  ETV