file 146360 1369696967                                          
version 2
run Stability2-12-20130528-01:22:42-24168
attr configname Stability2
attr datetime 20130528-01:22:42
attr experiment Stability2
attr inifile omnetpp.ini
attr iterationvars $0=20
attr iterationvars2 "$0=20, $repetition=2"
attr measurement $0=20
attr network Network
attr processid 24168
attr repetition 2
attr replication #2
attr resultdir results
attr runnumber 12
attr seedset 12

vector 390012  Network.churner  inGoingSizeSig:vector  ETV
vector 360015  Network.dyn_peer[1]  lookupHopsSig:vector  ETV
vector 360016  Network.dyn_peer[1]  lookupStabilitySig:vector  ETV
vector 360017  Network.dyn_peer[1]  lookupTimeSig:vector  ETV
vector 360030  Network.dyn_peer[6]  lookupHopsSig:vector  ETV
vector 360031  Network.dyn_peer[6]  lookupStabilitySig:vector  ETV
vector 360032  Network.dyn_peer[6]  lookupTimeSig:vector  ETV
vector 360012  Network.dyn_peer[0]  lookupHopsSig:vector  ETV
vector 360013  Network.dyn_peer[0]  lookupStabilitySig:vector  ETV
vector 360014  Network.dyn_peer[0]  lookupTimeSig:vector  ETV
vector 360042  Network.dyn_peer[10]  lookupHopsSig:vector  ETV
vector 360043  Network.dyn_peer[10]  lookupStabilitySig:vector  ETV
vector 360044  Network.dyn_peer[10]  lookupTimeSig:vector  ETV
vector 360045  Network.dyn_peer[11]  lookupHopsSig:vector  ETV
vector 360046  Network.dyn_peer[11]  lookupStabilitySig:vector  ETV
vector 360047  Network.dyn_peer[11]  lookupTimeSig:vector  ETV
vector 360018  Network.dyn_peer[2]  lookupHopsSig:vector  ETV
vector 360019  Network.dyn_peer[2]  lookupStabilitySig:vector  ETV
vector 360020  Network.dyn_peer[2]  lookupTimeSig:vector  ETV
vector 360033  Network.dyn_peer[7]  lookupHopsSig:vector  ETV
vector 360034  Network.dyn_peer[7]  lookupStabilitySig:vector  ETV
vector 360035  Network.dyn_peer[7]  lookupTimeSig:vector  ETV
vector 360048  Network.dyn_peer[12]  lookupHopsSig:vector  ETV
vector 360049  Network.dyn_peer[12]  lookupStabilitySig:vector  ETV
vector 360050  Network.dyn_peer[12]  lookupTimeSig:vector  ETV
vector 360051  Network.dyn_peer[13]  lookupHopsSig:vector  ETV
vector 360052  Network.dyn_peer[13]  lookupStabilitySig:vector  ETV
vector 360053  Network.dyn_peer[13]  lookupTimeSig:vector  ETV
vector 360024  Network.dyn_peer[4]  lookupHopsSig:vector  ETV
vector 360025  Network.dyn_peer[4]  lookupStabilitySig:vector  ETV
vector 360026  Network.dyn_peer[4]  lookupTimeSig:vector  ETV
vector 360054  Network.dyn_peer[14]  lookupHopsSig:vector  ETV
vector 360055  Network.dyn_peer[14]  lookupStabilitySig:vector  ETV
vector 360056  Network.dyn_peer[14]  lookupTimeSig:vector  ETV
vector 360027  Network.dyn_peer[5]  lookupHopsSig:vector  ETV
vector 360028  Network.dyn_peer[5]  lookupStabilitySig:vector  ETV
vector 360029  Network.dyn_peer[5]  lookupTimeSig:vector  ETV
vector 360063  Network.dyn_peer[17]  lookupHopsSig:vector  ETV
vector 360064  Network.dyn_peer[17]  lookupStabilitySig:vector  ETV
vector 360065  Network.dyn_peer[17]  lookupTimeSig:vector  ETV
vector 360075  Network.dyn_peer[21]  lookupHopsSig:vector  ETV
vector 360076  Network.dyn_peer[21]  lookupStabilitySig:vector  ETV
vector 360077  Network.dyn_peer[21]  lookupTimeSig:vector  ETV
vector 360081  Network.dyn_peer[23]  lookupHopsSig:vector  ETV
vector 360082  Network.dyn_peer[23]  lookupStabilitySig:vector  ETV
vector 360083  Network.dyn_peer[23]  lookupTimeSig:vector  ETV
vector 360060  Network.dyn_peer[16]  lookupHopsSig:vector  ETV
vector 360061  Network.dyn_peer[16]  lookupStabilitySig:vector  ETV
vector 360062  Network.dyn_peer[16]  lookupTimeSig:vector  ETV
vector 360093  Network.dyn_peer[27]  lookupHopsSig:vector  ETV
vector 360094  Network.dyn_peer[27]  lookupStabilitySig:vector  ETV
vector 360095  Network.dyn_peer[27]  lookupTimeSig:vector  ETV
vector 360021  Network.dyn_peer[3]  lookupHopsSig:vector  ETV
vector 360022  Network.dyn_peer[3]  lookupStabilitySig:vector  ETV
vector 360023  Network.dyn_peer[3]  lookupTimeSig:vector  ETV
vector 360141  Network.dyn_peer[43]  lookupHopsSig:vector  ETV
vector 360142  Network.dyn_peer[43]  lookupStabilitySig:vector  ETV
vector 360143  Network.dyn_peer[43]  lookupTimeSig:vector  ETV
vector 360084  Network.dyn_peer[24]  lookupHopsSig:vector  ETV
vector 360085  Network.dyn_peer[24]  lookupStabilitySig:vector  ETV
vector 360086  Network.dyn_peer[24]  lookupTimeSig:vector  ETV
vector 360117  Network.dyn_peer[35]  lookupHopsSig:vector  ETV
vector 360118  Network.dyn_peer[35]  lookupStabilitySig:vector  ETV
vector 360119  Network.dyn_peer[35]  lookupTimeSig:vector  ETV
vector 360036  Network.dyn_peer[8]  lookupHopsSig:vector  ETV
vector 360037  Network.dyn_peer[8]  lookupStabilitySig:vector  ETV
vector 360038  Network.dyn_peer[8]  lookupTimeSig:vector  ETV
vector 360156  Network.dyn_peer[48]  lookupHopsSig:vector  ETV
vector 360157  Network.dyn_peer[48]  lookupStabilitySig:vector  ETV
vector 360158  Network.dyn_peer[48]  lookupTimeSig:vector  ETV
vector 360162  Network.dyn_peer[50]  lookupHopsSig:vector  ETV
vector 360163  Network.dyn_peer[50]  lookupStabilitySig:vector  ETV
vector 360164  Network.dyn_peer[50]  lookupTimeSig:vector  ETV
vector 360135  Network.dyn_peer[41]  lookupHopsSig:vector  ETV
vector 360136  Network.dyn_peer[41]  lookupStabilitySig:vector  ETV
vector 360137  Network.dyn_peer[41]  lookupTimeSig:vector  ETV
vector 360078  Network.dyn_peer[22]  lookupHopsSig:vector  ETV
vector 360079  Network.dyn_peer[22]  lookupStabilitySig:vector  ETV
vector 360080  Network.dyn_peer[22]  lookupTimeSig:vector  ETV
vector 360138  Network.dyn_peer[42]  lookupHopsSig:vector  ETV
vector 360139  Network.dyn_peer[42]  lookupStabilitySig:vector  ETV
vector 360140  Network.dyn_peer[42]  lookupTimeSig:vector  ETV
vector 360111  Network.dyn_peer[33]  lookupHopsSig:vector  ETV
vector 360112  Network.dyn_peer[33]  lookupStabilitySig:vector  ETV
vector 360113  Network.dyn_peer[33]  lookupTimeSig:vector  ETV
vector 360114  Network.dyn_peer[34]  lookupHopsSig:vector  ETV
vector 360115  Network.dyn_peer[34]  lookupStabilitySig:vector  ETV
vector 360116  Network.dyn_peer[34]  lookupTimeSig:vector  ETV
vector 360057  Network.dyn_peer[15]  lookupHopsSig:vector  ETV
vector 360058  Network.dyn_peer[15]  lookupStabilitySig:vector  ETV
vector 360059  Network.dyn_peer[15]  lookupTimeSig:vector  ETV
vector 360066  Network.dyn_peer[18]  lookupHopsSig:vector  ETV
vector 360067  Network.dyn_peer[18]  lookupStabilitySig:vector  ETV
vector 360068  Network.dyn_peer[18]  lookupTimeSig:vector  ETV
vector 360096  Network.dyn_peer[28]  lookupHopsSig:vector  ETV
vector 360097  Network.dyn_peer[28]  lookupStabilitySig:vector  ETV
vector 360098  Network.dyn_peer[28]  lookupTimeSig:vector  ETV
vector 360132  Network.dyn_peer[40]  lookupHopsSig:vector  ETV
vector 360133  Network.dyn_peer[40]  lookupStabilitySig:vector  ETV
vector 360134  Network.dyn_peer[40]  lookupTimeSig:vector  ETV
vector 360039  Network.dyn_peer[9]  lookupHopsSig:vector  ETV
vector 360040  Network.dyn_peer[9]  lookupStabilitySig:vector  ETV
vector 360041  Network.dyn_peer[9]  lookupTimeSig:vector  ETV
vector 360069  Network.dyn_peer[19]  lookupHopsSig:vector  ETV
vector 360070  Network.dyn_peer[19]  lookupStabilitySig:vector  ETV
vector 360071  Network.dyn_peer[19]  lookupTimeSig:vector  ETV
vector 360099  Network.dyn_peer[29]  lookupHopsSig:vector  ETV
vector 360100  Network.dyn_peer[29]  lookupStabilitySig:vector  ETV
vector 360101  Network.dyn_peer[29]  lookupTimeSig:vector  ETV
vector 360189  Network.dyn_peer[59]  lookupHopsSig:vector  ETV
vector 360190  Network.dyn_peer[59]  lookupStabilitySig:vector  ETV
vector 360191  Network.dyn_peer[59]  lookupTimeSig:vector  ETV
vector 360105  Network.dyn_peer[31]  lookupHopsSig:vector  ETV
vector 360106  Network.dyn_peer[31]  lookupStabilitySig:vector  ETV
vector 360107  Network.dyn_peer[31]  lookupTimeSig:vector  ETV
vector 360129  Network.dyn_peer[39]  lookupHopsSig:vector  ETV
vector 360130  Network.dyn_peer[39]  lookupStabilitySig:vector  ETV
vector 360131  Network.dyn_peer[39]  lookupTimeSig:vector  ETV
vector 360159  Network.dyn_peer[49]  lookupHopsSig:vector  ETV
vector 360160  Network.dyn_peer[49]  lookupStabilitySig:vector  ETV
vector 360161  Network.dyn_peer[49]  lookupTimeSig:vector  ETV
vector 360072  Network.dyn_peer[20]  lookupHopsSig:vector  ETV
vector 360073  Network.dyn_peer[20]  lookupStabilitySig:vector  ETV
vector 360074  Network.dyn_peer[20]  lookupTimeSig:vector  ETV
vector 360108  Network.dyn_peer[32]  lookupHopsSig:vector  ETV
vector 360109  Network.dyn_peer[32]  lookupStabilitySig:vector  ETV
vector 360110  Network.dyn_peer[32]  lookupTimeSig:vector  ETV
vector 360228  Network.dyn_peer[72]  lookupHopsSig:vector  ETV
vector 360229  Network.dyn_peer[72]  lookupStabilitySig:vector  ETV
vector 360230  Network.dyn_peer[72]  lookupTimeSig:vector  ETV
vector 360087  Network.dyn_peer[25]  lookupHopsSig:vector  ETV
vector 360088  Network.dyn_peer[25]  lookupStabilitySig:vector  ETV
vector 360089  Network.dyn_peer[25]  lookupTimeSig:vector  ETV
vector 360120  Network.dyn_peer[36]  lookupHopsSig:vector  ETV
vector 360121  Network.dyn_peer[36]  lookupStabilitySig:vector  ETV
vector 360122  Network.dyn_peer[36]  lookupTimeSig:vector  ETV
vector 360210  Network.dyn_peer[66]  lookupHopsSig:vector  ETV
vector 360211  Network.dyn_peer[66]  lookupStabilitySig:vector  ETV
vector 360212  Network.dyn_peer[66]  lookupTimeSig:vector  ETV
vector 360102  Network.dyn_peer[30]  lookupHopsSig:vector  ETV
vector 360103  Network.dyn_peer[30]  lookupStabilitySig:vector  ETV
vector 360104  Network.dyn_peer[30]  lookupTimeSig:vector  ETV
vector 360177  Network.dyn_peer[55]  lookupHopsSig:vector  ETV
vector 360178  Network.dyn_peer[55]  lookupStabilitySig:vector  ETV
vector 360179  Network.dyn_peer[55]  lookupTimeSig:vector  ETV
vector 360213  Network.dyn_peer[67]  lookupHopsSig:vector  ETV
vector 360214  Network.dyn_peer[67]  lookupStabilitySig:vector  ETV
vector 360215  Network.dyn_peer[67]  lookupTimeSig:vector  ETV
vector 360261  Network.dyn_peer[83]  lookupHopsSig:vector  ETV
vector 360262  Network.dyn_peer[83]  lookupStabilitySig:vector  ETV
vector 360263  Network.dyn_peer[83]  lookupTimeSig:vector  ETV
vector 360321  Network.dyn_peer[103]  lookupHopsSig:vector  ETV
vector 360322  Network.dyn_peer[103]  lookupStabilitySig:vector  ETV
vector 360323  Network.dyn_peer[103]  lookupTimeSig:vector  ETV
vector 360264  Network.dyn_peer[84]  lookupHopsSig:vector  ETV
vector 360265  Network.dyn_peer[84]  lookupStabilitySig:vector  ETV
vector 360266  Network.dyn_peer[84]  lookupTimeSig:vector  ETV
vector 360297  Network.dyn_peer[95]  lookupHopsSig:vector  ETV
vector 360298  Network.dyn_peer[95]  lookupStabilitySig:vector  ETV
vector 360299  Network.dyn_peer[95]  lookupTimeSig:vector  ETV
vector 360090  Network.dyn_peer[26]  lookupHopsSig:vector  ETV
vector 360091  Network.dyn_peer[26]  lookupStabilitySig:vector  ETV
vector 360092  Network.dyn_peer[26]  lookupTimeSig:vector  ETV
vector 360243  Network.dyn_peer[77]  lookupHopsSig:vector  ETV
vector 360244  Network.dyn_peer[77]  lookupStabilitySig:vector  ETV
vector 360245  Network.dyn_peer[77]  lookupTimeSig:vector  ETV
vector 360219  Network.dyn_peer[69]  lookupHopsSig:vector  ETV
vector 360220  Network.dyn_peer[69]  lookupStabilitySig:vector  ETV
vector 360221  Network.dyn_peer[69]  lookupTimeSig:vector  ETV
vector 360312  Network.dyn_peer[100]  lookupHopsSig:vector  ETV
vector 360313  Network.dyn_peer[100]  lookupStabilitySig:vector  ETV
vector 360314  Network.dyn_peer[100]  lookupTimeSig:vector  ETV
vector 360168  Network.dyn_peer[52]  lookupHopsSig:vector  ETV
vector 360169  Network.dyn_peer[52]  lookupStabilitySig:vector  ETV
vector 360170  Network.dyn_peer[52]  lookupTimeSig:vector  ETV
vector 360150  Network.dyn_peer[46]  lookupHopsSig:vector  ETV
vector 360151  Network.dyn_peer[46]  lookupStabilitySig:vector  ETV
vector 360152  Network.dyn_peer[46]  lookupTimeSig:vector  ETV
vector 360123  Network.dyn_peer[37]  lookupHopsSig:vector  ETV
vector 360124  Network.dyn_peer[37]  lookupStabilitySig:vector  ETV
vector 360125  Network.dyn_peer[37]  lookupTimeSig:vector  ETV
vector 360303  Network.dyn_peer[97]  lookupHopsSig:vector  ETV
vector 360304  Network.dyn_peer[97]  lookupStabilitySig:vector  ETV
vector 360305  Network.dyn_peer[97]  lookupTimeSig:vector  ETV
vector 360186  Network.dyn_peer[58]  lookupHopsSig:vector  ETV
vector 360187  Network.dyn_peer[58]  lookupStabilitySig:vector  ETV
vector 360188  Network.dyn_peer[58]  lookupTimeSig:vector  ETV
vector 360147  Network.dyn_peer[45]  lookupHopsSig:vector  ETV
vector 360148  Network.dyn_peer[45]  lookupStabilitySig:vector  ETV
vector 360149  Network.dyn_peer[45]  lookupTimeSig:vector  ETV
vector 360180  Network.dyn_peer[56]  lookupHopsSig:vector  ETV
vector 360181  Network.dyn_peer[56]  lookupStabilitySig:vector  ETV
vector 360182  Network.dyn_peer[56]  lookupTimeSig:vector  ETV
vector 360240  Network.dyn_peer[76]  lookupHopsSig:vector  ETV
vector 360241  Network.dyn_peer[76]  lookupStabilitySig:vector  ETV
vector 360242  Network.dyn_peer[76]  lookupTimeSig:vector  ETV
vector 360300  Network.dyn_peer[96]  lookupHopsSig:vector  ETV
vector 360301  Network.dyn_peer[96]  lookupStabilitySig:vector  ETV
vector 360302  Network.dyn_peer[96]  lookupTimeSig:vector  ETV
vector 360246  Network.dyn_peer[78]  lookupHopsSig:vector  ETV
vector 360247  Network.dyn_peer[78]  lookupStabilitySig:vector  ETV
vector 360248  Network.dyn_peer[78]  lookupTimeSig:vector  ETV
vector 360339  Network.dyn_peer[109]  lookupHopsSig:vector  ETV
vector 360340  Network.dyn_peer[109]  lookupStabilitySig:vector  ETV
vector 360341  Network.dyn_peer[109]  lookupTimeSig:vector  ETV
vector 360222  Network.dyn_peer[70]  lookupHopsSig:vector  ETV
vector 360223  Network.dyn_peer[70]  lookupStabilitySig:vector  ETV
vector 360224  Network.dyn_peer[70]  lookupTimeSig:vector  ETV
vector 360252  Network.dyn_peer[80]  lookupHopsSig:vector  ETV
vector 360253  Network.dyn_peer[80]  lookupStabilitySig:vector  ETV
vector 360254  Network.dyn_peer[80]  lookupTimeSig:vector  ETV
vector 360195  Network.dyn_peer[61]  lookupHopsSig:vector  ETV
vector 360196  Network.dyn_peer[61]  lookupStabilitySig:vector  ETV
vector 360197  Network.dyn_peer[61]  lookupTimeSig:vector  ETV
vector 360171  Network.dyn_peer[53]  lookupHopsSig:vector  ETV
vector 360172  Network.dyn_peer[53]  lookupStabilitySig:vector  ETV
vector 360173  Network.dyn_peer[53]  lookupTimeSig:vector  ETV
vector 360144  Network.dyn_peer[44]  lookupHopsSig:vector  ETV
vector 360145  Network.dyn_peer[44]  lookupStabilitySig:vector  ETV
vector 360146  Network.dyn_peer[44]  lookupTimeSig:vector  ETV
vector 360327  Network.dyn_peer[105]  lookupHopsSig:vector  ETV
vector 360328  Network.dyn_peer[105]  lookupStabilitySig:vector  ETV
vector 360329  Network.dyn_peer[105]  lookupTimeSig:vector  ETV
vector 360360  Network.dyn_peer[116]  lookupHopsSig:vector  ETV
vector 360361  Network.dyn_peer[116]  lookupStabilitySig:vector  ETV
vector 360362  Network.dyn_peer[116]  lookupTimeSig:vector  ETV
vector 360153  Network.dyn_peer[47]  lookupHopsSig:vector  ETV
vector 360154  Network.dyn_peer[47]  lookupStabilitySig:vector  ETV
vector 360155  Network.dyn_peer[47]  lookupTimeSig:vector  ETV
vector 360342  Network.dyn_peer[110]  lookupHopsSig:vector  ETV
vector 360343  Network.dyn_peer[110]  lookupStabilitySig:vector  ETV
vector 360344  Network.dyn_peer[110]  lookupTimeSig:vector  ETV
vector 360225  Network.dyn_peer[71]  lookupHopsSig:vector  ETV
vector 360226  Network.dyn_peer[71]  lookupStabilitySig:vector  ETV
vector 360227  Network.dyn_peer[71]  lookupTimeSig:vector  ETV
vector 360255  Network.dyn_peer[81]  lookupHopsSig:vector  ETV
vector 360256  Network.dyn_peer[81]  lookupStabilitySig:vector  ETV
vector 360257  Network.dyn_peer[81]  lookupTimeSig:vector  ETV
vector 360204  Network.dyn_peer[64]  lookupHopsSig:vector  ETV
vector 360205  Network.dyn_peer[64]  lookupStabilitySig:vector  ETV
vector 360206  Network.dyn_peer[64]  lookupTimeSig:vector  ETV
vector 360234  Network.dyn_peer[74]  lookupHopsSig:vector  ETV
vector 360235  Network.dyn_peer[74]  lookupStabilitySig:vector  ETV
vector 360236  Network.dyn_peer[74]  lookupTimeSig:vector  ETV
vector 360357  Network.dyn_peer[115]  lookupHopsSig:vector  ETV
vector 360358  Network.dyn_peer[115]  lookupStabilitySig:vector  ETV
vector 360359  Network.dyn_peer[115]  lookupTimeSig:vector  ETV
vector 360390  Network.dyn_peer[126]  lookupHopsSig:vector  ETV
vector 360391  Network.dyn_peer[126]  lookupStabilitySig:vector  ETV
vector 360392  Network.dyn_peer[126]  lookupTimeSig:vector  ETV
vector 360363  Network.dyn_peer[117]  lookupHopsSig:vector  ETV
vector 360364  Network.dyn_peer[117]  lookupStabilitySig:vector  ETV
vector 360365  Network.dyn_peer[117]  lookupTimeSig:vector  ETV
vector 360306  Network.dyn_peer[98]  lookupHopsSig:vector  ETV
vector 360307  Network.dyn_peer[98]  lookupStabilitySig:vector  ETV
vector 360308  Network.dyn_peer[98]  lookupTimeSig:vector  ETV
vector 360366  Network.dyn_peer[118]  lookupHopsSig:vector  ETV
vector 360367  Network.dyn_peer[118]  lookupStabilitySig:vector  ETV
vector 360368  Network.dyn_peer[118]  lookupTimeSig:vector  ETV
vector 360309  Network.dyn_peer[99]  lookupHopsSig:vector  ETV
vector 360310  Network.dyn_peer[99]  lookupStabilitySig:vector  ETV
vector 360311  Network.dyn_peer[99]  lookupTimeSig:vector  ETV
vector 360201  Network.dyn_peer[63]  lookupHopsSig:vector  ETV
vector 360202  Network.dyn_peer[63]  lookupStabilitySig:vector  ETV
vector 360203  Network.dyn_peer[63]  lookupTimeSig:vector  ETV
vector 360381  Network.dyn_peer[123]  lookupHopsSig:vector  ETV
vector 360382  Network.dyn_peer[123]  lookupStabilitySig:vector  ETV
vector 360383  Network.dyn_peer[123]  lookupTimeSig:vector  ETV
vector 360270  Network.dyn_peer[86]  lookupHopsSig:vector  ETV
vector 360271  Network.dyn_peer[86]  lookupStabilitySig:vector  ETV
vector 360272  Network.dyn_peer[86]  lookupTimeSig:vector  ETV
vector 360330  Network.dyn_peer[106]  lookupHopsSig:vector  ETV
vector 360331  Network.dyn_peer[106]  lookupStabilitySig:vector  ETV
vector 360332  Network.dyn_peer[106]  lookupTimeSig:vector  ETV
vector 360450  Network.dyn_peer[146]  lookupHopsSig:vector  ETV
vector 360451  Network.dyn_peer[146]  lookupStabilitySig:vector  ETV
vector 360452  Network.dyn_peer[146]  lookupTimeSig:vector  ETV
vector 360126  Network.dyn_peer[38]  lookupHopsSig:vector  ETV
vector 360127  Network.dyn_peer[38]  lookupStabilitySig:vector  ETV
vector 360128  Network.dyn_peer[38]  lookupTimeSig:vector  ETV
vector 360336  Network.dyn_peer[108]  lookupHopsSig:vector  ETV
vector 360337  Network.dyn_peer[108]  lookupStabilitySig:vector  ETV
vector 360338  Network.dyn_peer[108]  lookupTimeSig:vector  ETV
vector 360165  Network.dyn_peer[51]  lookupHopsSig:vector  ETV
vector 360166  Network.dyn_peer[51]  lookupStabilitySig:vector  ETV
vector 360167  Network.dyn_peer[51]  lookupTimeSig:vector  ETV
vector 360237  Network.dyn_peer[75]  lookupHopsSig:vector  ETV
vector 360238  Network.dyn_peer[75]  lookupStabilitySig:vector  ETV
vector 360239  Network.dyn_peer[75]  lookupTimeSig:vector  ETV
vector 360447  Network.dyn_peer[145]  lookupHopsSig:vector  ETV
vector 360448  Network.dyn_peer[145]  lookupStabilitySig:vector  ETV
vector 360449  Network.dyn_peer[145]  lookupTimeSig:vector  ETV
vector 360420  Network.dyn_peer[136]  lookupHopsSig:vector  ETV
vector 360421  Network.dyn_peer[136]  lookupStabilitySig:vector  ETV
vector 360422  Network.dyn_peer[136]  lookupTimeSig:vector  ETV
vector 360183  Network.dyn_peer[57]  lookupHopsSig:vector  ETV
vector 360184  Network.dyn_peer[57]  lookupStabilitySig:vector  ETV
vector 360185  Network.dyn_peer[57]  lookupTimeSig:vector  ETV
vector 360276  Network.dyn_peer[88]  lookupHopsSig:vector  ETV
vector 360277  Network.dyn_peer[88]  lookupStabilitySig:vector  ETV
vector 360278  Network.dyn_peer[88]  lookupTimeSig:vector  ETV
vector 360429  Network.dyn_peer[139]  lookupHopsSig:vector  ETV
vector 360430  Network.dyn_peer[139]  lookupStabilitySig:vector  ETV
vector 360431  Network.dyn_peer[139]  lookupTimeSig:vector  ETV
vector 360282  Network.dyn_peer[90]  lookupHopsSig:vector  ETV
vector 360283  Network.dyn_peer[90]  lookupStabilitySig:vector  ETV
vector 360284  Network.dyn_peer[90]  lookupTimeSig:vector  ETV
vector 360198  Network.dyn_peer[62]  lookupHopsSig:vector  ETV
vector 360199  Network.dyn_peer[62]  lookupStabilitySig:vector  ETV
vector 360200  Network.dyn_peer[62]  lookupTimeSig:vector  ETV
vector 360354  Network.dyn_peer[114]  lookupHopsSig:vector  ETV
vector 360355  Network.dyn_peer[114]  lookupStabilitySig:vector  ETV
vector 360356  Network.dyn_peer[114]  lookupTimeSig:vector  ETV
vector 360207  Network.dyn_peer[65]  lookupHopsSig:vector  ETV
vector 360208  Network.dyn_peer[65]  lookupStabilitySig:vector  ETV
vector 360209  Network.dyn_peer[65]  lookupTimeSig:vector  ETV
vector 360333  Network.dyn_peer[107]  lookupHopsSig:vector  ETV
vector 360334  Network.dyn_peer[107]  lookupStabilitySig:vector  ETV
vector 360335  Network.dyn_peer[107]  lookupTimeSig:vector  ETV
vector 360249  Network.dyn_peer[79]  lookupHopsSig:vector  ETV
vector 360250  Network.dyn_peer[79]  lookupStabilitySig:vector  ETV
vector 360251  Network.dyn_peer[79]  lookupTimeSig:vector  ETV
vector 360369  Network.dyn_peer[119]  lookupHopsSig:vector  ETV
vector 360370  Network.dyn_peer[119]  lookupStabilitySig:vector  ETV
vector 360371  Network.dyn_peer[119]  lookupTimeSig:vector  ETV
vector 360399  Network.dyn_peer[129]  lookupHopsSig:vector  ETV
vector 360400  Network.dyn_peer[129]  lookupStabilitySig:vector  ETV
vector 360401  Network.dyn_peer[129]  lookupTimeSig:vector  ETV
vector 360402  Network.dyn_peer[130]  lookupHopsSig:vector  ETV
vector 360403  Network.dyn_peer[130]  lookupStabilitySig:vector  ETV
vector 360404  Network.dyn_peer[130]  lookupTimeSig:vector  ETV
vector 360432  Network.dyn_peer[140]  lookupHopsSig:vector  ETV
vector 360433  Network.dyn_peer[140]  lookupStabilitySig:vector  ETV
vector 360434  Network.dyn_peer[140]  lookupTimeSig:vector  ETV
vector 360462  Network.dyn_peer[150]  lookupHopsSig:vector  ETV
vector 360463  Network.dyn_peer[150]  lookupStabilitySig:vector  ETV
vector 360464  Network.dyn_peer[150]  lookupTimeSig:vector  ETV
vector 360288  Network.dyn_peer[92]  lookupHopsSig:vector  ETV
vector 360289  Network.dyn_peer[92]  lookupStabilitySig:vector  ETV
vector 360290  Network.dyn_peer[92]  lookupTimeSig:vector  ETV
vector 360318  Network.dyn_peer[102]  lookupHopsSig:vector  ETV
vector 360319  Network.dyn_peer[102]  lookupStabilitySig:vector  ETV
vector 360320  Network.dyn_peer[102]  lookupTimeSig:vector  ETV
vector 360411  Network.dyn_peer[133]  lookupHopsSig:vector  ETV
vector 360412  Network.dyn_peer[133]  lookupStabilitySig:vector  ETV
vector 360413  Network.dyn_peer[133]  lookupTimeSig:vector  ETV
vector 360273  Network.dyn_peer[87]  lookupHopsSig:vector  ETV
vector 360274  Network.dyn_peer[87]  lookupStabilitySig:vector  ETV
vector 360275  Network.dyn_peer[87]  lookupTimeSig:vector  ETV
vector 360528  Network.dyn_peer[172]  lookupHopsSig:vector  ETV
vector 360529  Network.dyn_peer[172]  lookupStabilitySig:vector  ETV
vector 360530  Network.dyn_peer[172]  lookupTimeSig:vector  ETV
vector 360174  Network.dyn_peer[54]  lookupHopsSig:vector  ETV
vector 360175  Network.dyn_peer[54]  lookupStabilitySig:vector  ETV
vector 360176  Network.dyn_peer[54]  lookupTimeSig:vector  ETV
vector 360414  Network.dyn_peer[134]  lookupHopsSig:vector  ETV
vector 360415  Network.dyn_peer[134]  lookupStabilitySig:vector  ETV
vector 360416  Network.dyn_peer[134]  lookupTimeSig:vector  ETV
vector 360387  Network.dyn_peer[125]  lookupHopsSig:vector  ETV
vector 360388  Network.dyn_peer[125]  lookupStabilitySig:vector  ETV
vector 360389  Network.dyn_peer[125]  lookupTimeSig:vector  ETV
vector 360507  Network.dyn_peer[165]  lookupHopsSig:vector  ETV
vector 360508  Network.dyn_peer[165]  lookupStabilitySig:vector  ETV
vector 360509  Network.dyn_peer[165]  lookupTimeSig:vector  ETV
vector 360216  Network.dyn_peer[68]  lookupHopsSig:vector  ETV
vector 360217  Network.dyn_peer[68]  lookupStabilitySig:vector  ETV
vector 360218  Network.dyn_peer[68]  lookupTimeSig:vector  ETV
vector 360315  Network.dyn_peer[101]  lookupHopsSig:vector  ETV
vector 360316  Network.dyn_peer[101]  lookupStabilitySig:vector  ETV
vector 360317  Network.dyn_peer[101]  lookupTimeSig:vector  ETV
vector 360375  Network.dyn_peer[121]  lookupHopsSig:vector  ETV
vector 360376  Network.dyn_peer[121]  lookupStabilitySig:vector  ETV
vector 360377  Network.dyn_peer[121]  lookupTimeSig:vector  ETV
vector 360435  Network.dyn_peer[141]  lookupHopsSig:vector  ETV
vector 360436  Network.dyn_peer[141]  lookupStabilitySig:vector  ETV
vector 360437  Network.dyn_peer[141]  lookupTimeSig:vector  ETV
vector 360468  Network.dyn_peer[152]  lookupHopsSig:vector  ETV
vector 360469  Network.dyn_peer[152]  lookupStabilitySig:vector  ETV
vector 360470  Network.dyn_peer[152]  lookupTimeSig:vector  ETV
vector 360291  Network.dyn_peer[93]  lookupHopsSig:vector  ETV
vector 360292  Network.dyn_peer[93]  lookupStabilitySig:vector  ETV
vector 360293  Network.dyn_peer[93]  lookupTimeSig:vector  ETV
vector 360540  Network.dyn_peer[176]  lookupHopsSig:vector  ETV
vector 360541  Network.dyn_peer[176]  lookupStabilitySig:vector  ETV
vector 360542  Network.dyn_peer[176]  lookupTimeSig:vector  ETV
vector 360423  Network.dyn_peer[137]  lookupHopsSig:vector  ETV
vector 360424  Network.dyn_peer[137]  lookupStabilitySig:vector  ETV
vector 360425  Network.dyn_peer[137]  lookupTimeSig:vector  ETV
vector 360192  Network.dyn_peer[60]  lookupHopsSig:vector  ETV
vector 360193  Network.dyn_peer[60]  lookupStabilitySig:vector  ETV
vector 360194  Network.dyn_peer[60]  lookupTimeSig:vector  ETV
vector 360525  Network.dyn_peer[171]  lookupHopsSig:vector  ETV
vector 360526  Network.dyn_peer[171]  lookupStabilitySig:vector  ETV
vector 360527  Network.dyn_peer[171]  lookupTimeSig:vector  ETV
vector 360555  Network.dyn_peer[181]  lookupHopsSig:vector  ETV
vector 360556  Network.dyn_peer[181]  lookupStabilitySig:vector  ETV
vector 360557  Network.dyn_peer[181]  lookupTimeSig:vector  ETV
vector 360378  Network.dyn_peer[122]  lookupHopsSig:vector  ETV
vector 360379  Network.dyn_peer[122]  lookupStabilitySig:vector  ETV
vector 360380  Network.dyn_peer[122]  lookupTimeSig:vector  ETV
vector 360351  Network.dyn_peer[113]  lookupHopsSig:vector  ETV
vector 360352  Network.dyn_peer[113]  lookupStabilitySig:vector  ETV
vector 360353  Network.dyn_peer[113]  lookupTimeSig:vector  ETV
vector 360441  Network.dyn_peer[143]  lookupHopsSig:vector  ETV
vector 360442  Network.dyn_peer[143]  lookupStabilitySig:vector  ETV
vector 360443  Network.dyn_peer[143]  lookupTimeSig:vector  ETV
vector 360486  Network.dyn_peer[158]  lookupHopsSig:vector  ETV
vector 360487  Network.dyn_peer[158]  lookupStabilitySig:vector  ETV
vector 360488  Network.dyn_peer[158]  lookupTimeSig:vector  ETV
vector 360489  Network.dyn_peer[159]  lookupHopsSig:vector  ETV
vector 360490  Network.dyn_peer[159]  lookupStabilitySig:vector  ETV
vector 360491  Network.dyn_peer[159]  lookupTimeSig:vector  ETV
vector 360465  Network.dyn_peer[151]  lookupHopsSig:vector  ETV
vector 360466  Network.dyn_peer[151]  lookupStabilitySig:vector  ETV
vector 360467  Network.dyn_peer[151]  lookupTimeSig:vector  ETV
vector 360348  Network.dyn_peer[112]  lookupHopsSig:vector  ETV
vector 360349  Network.dyn_peer[112]  lookupStabilitySig:vector  ETV
vector 360350  Network.dyn_peer[112]  lookupTimeSig:vector  ETV
vector 360231  Network.dyn_peer[73]  lookupHopsSig:vector  ETV
vector 360232  Network.dyn_peer[73]  lookupStabilitySig:vector  ETV
vector 360233  Network.dyn_peer[73]  lookupTimeSig:vector  ETV
vector 360501  Network.dyn_peer[163]  lookupHopsSig:vector  ETV
vector 360502  Network.dyn_peer[163]  lookupStabilitySig:vector  ETV
vector 360503  Network.dyn_peer[163]  lookupTimeSig:vector  ETV
vector 360324  Network.dyn_peer[104]  lookupHopsSig:vector  ETV
vector 360325  Network.dyn_peer[104]  lookupStabilitySig:vector  ETV
vector 360326  Network.dyn_peer[104]  lookupTimeSig:vector  ETV
vector 360510  Network.dyn_peer[166]  lookupHopsSig:vector  ETV
vector 360511  Network.dyn_peer[166]  lookupStabilitySig:vector  ETV
vector 360512  Network.dyn_peer[166]  lookupTimeSig:vector  ETV
vector 360543  Network.dyn_peer[177]  lookupHopsSig:vector  ETV
vector 360544  Network.dyn_peer[177]  lookupStabilitySig:vector  ETV
vector 360545  Network.dyn_peer[177]  lookupTimeSig:vector  ETV
vector 360396  Network.dyn_peer[128]  lookupHopsSig:vector  ETV
vector 360397  Network.dyn_peer[128]  lookupStabilitySig:vector  ETV
vector 360398  Network.dyn_peer[128]  lookupTimeSig:vector  ETV
vector 360579  Network.dyn_peer[189]  lookupHopsSig:vector  ETV
vector 360580  Network.dyn_peer[189]  lookupStabilitySig:vector  ETV
vector 360581  Network.dyn_peer[189]  lookupTimeSig:vector  ETV
vector 360492  Network.dyn_peer[160]  lookupHopsSig:vector  ETV
vector 360493  Network.dyn_peer[160]  lookupStabilitySig:vector  ETV
vector 360494  Network.dyn_peer[160]  lookupTimeSig:vector  ETV
vector 360495  Network.dyn_peer[161]  lookupHopsSig:vector  ETV
vector 360496  Network.dyn_peer[161]  lookupStabilitySig:vector  ETV
vector 360497  Network.dyn_peer[161]  lookupTimeSig:vector  ETV
vector 360588  Network.dyn_peer[192]  lookupHopsSig:vector  ETV
vector 360589  Network.dyn_peer[192]  lookupStabilitySig:vector  ETV
vector 360590  Network.dyn_peer[192]  lookupTimeSig:vector  ETV
vector 360453  Network.dyn_peer[147]  lookupHopsSig:vector  ETV
vector 360454  Network.dyn_peer[147]  lookupStabilitySig:vector  ETV
vector 360455  Network.dyn_peer[147]  lookupTimeSig:vector  ETV
vector 360483  Network.dyn_peer[157]  lookupHopsSig:vector  ETV
vector 360484  Network.dyn_peer[157]  lookupStabilitySig:vector  ETV
vector 360485  Network.dyn_peer[157]  lookupTimeSig:vector  ETV