file 2065682 1369697505                                         
version 2
run Stability2-66-20130528-01:31:23-24168
attr configname Stability2
attr datetime 20130528-01:31:23
attr experiment Stability2
attr inifile omnetpp.ini
attr iterationvars $0=200
attr iterationvars2 "$0=200, $repetition=6"
attr measurement $0=200
attr network Network
attr processid 24168
attr repetition 6
attr replication #6
attr resultdir results
attr runnumber 66
attr seedset 66

vector 2010066  Network.churner  inGoingSizeSig:vector  ETV
vector 1980072  Network.dyn_peer[2]  lookupHopsSig:vector  ETV
vector 1980073  Network.dyn_peer[2]  lookupStabilitySig:vector  ETV
vector 1980074  Network.dyn_peer[2]  lookupTimeSig:vector  ETV
vector 1980075  Network.dyn_peer[3]  lookupHopsSig:vector  ETV
vector 1980076  Network.dyn_peer[3]  lookupStabilitySig:vector  ETV
vector 1980077  Network.dyn_peer[3]  lookupTimeSig:vector  ETV
vector 1980078  Network.dyn_peer[4]  lookupHopsSig:vector  ETV
vector 1980079  Network.dyn_peer[4]  lookupStabilitySig:vector  ETV
vector 1980080  Network.dyn_peer[4]  lookupTimeSig:vector  ETV
vector 1980081  Network.dyn_peer[5]  lookupHopsSig:vector  ETV
vector 1980082  Network.dyn_peer[5]  lookupStabilitySig:vector  ETV
vector 1980083  Network.dyn_peer[5]  lookupTimeSig:vector  ETV
vector 1980111  Network.dyn_peer[15]  lookupHopsSig:vector  ETV
vector 1980112  Network.dyn_peer[15]  lookupStabilitySig:vector  ETV
vector 1980113  Network.dyn_peer[15]  lookupTimeSig:vector  ETV
vector 1980093  Network.dyn_peer[9]  lookupHopsSig:vector  ETV
vector 1980094  Network.dyn_peer[9]  lookupStabilitySig:vector  ETV
vector 1980095  Network.dyn_peer[9]  lookupTimeSig:vector  ETV
vector 1980099  Network.dyn_peer[11]  lookupHopsSig:vector  ETV
vector 1980100  Network.dyn_peer[11]  lookupStabilitySig:vector  ETV
vector 1980101  Network.dyn_peer[11]  lookupTimeSig:vector  ETV
vector 1980102  Network.dyn_peer[12]  lookupHopsSig:vector  ETV
vector 1980103  Network.dyn_peer[12]  lookupStabilitySig:vector  ETV
vector 1980104  Network.dyn_peer[12]  lookupTimeSig:vector  ETV
vector 1980084  Network.dyn_peer[6]  lookupHopsSig:vector  ETV
vector 1980085  Network.dyn_peer[6]  lookupStabilitySig:vector  ETV
vector 1980086  Network.dyn_peer[6]  lookupTimeSig:vector  ETV
vector 1980114  Network.dyn_peer[16]  lookupHopsSig:vector  ETV
vector 1980115  Network.dyn_peer[16]  lookupStabilitySig:vector  ETV
vector 1980116  Network.dyn_peer[16]  lookupTimeSig:vector  ETV
vector 1980087  Network.dyn_peer[7]  lookupHopsSig:vector  ETV
vector 1980088  Network.dyn_peer[7]  lookupStabilitySig:vector  ETV
vector 1980089  Network.dyn_peer[7]  lookupTimeSig:vector  ETV
vector 1980090  Network.dyn_peer[8]  lookupHopsSig:vector  ETV
vector 1980091  Network.dyn_peer[8]  lookupStabilitySig:vector  ETV
vector 1980092  Network.dyn_peer[8]  lookupTimeSig:vector  ETV
vector 1980066  Network.dyn_peer[0]  lookupHopsSig:vector  ETV
vector 1980067  Network.dyn_peer[0]  lookupStabilitySig:vector  ETV
vector 1980068  Network.dyn_peer[0]  lookupTimeSig:vector  ETV
vector 1980096  Network.dyn_peer[10]  lookupHopsSig:vector  ETV
vector 1980097  Network.dyn_peer[10]  lookupStabilitySig:vector  ETV
vector 1980098  Network.dyn_peer[10]  lookupTimeSig:vector  ETV
vector 1980126  Network.dyn_peer[20]  lookupHopsSig:vector  ETV
vector 1980127  Network.dyn_peer[20]  lookupStabilitySig:vector  ETV
vector 1980128  Network.dyn_peer[20]  lookupTimeSig:vector  ETV
vector 1980069  Network.dyn_peer[1]  lookupHopsSig:vector  ETV
vector 1980070  Network.dyn_peer[1]  lookupStabilitySig:vector  ETV
vector 1980071  Network.dyn_peer[1]  lookupTimeSig:vector  ETV
vector 1980135  Network.dyn_peer[23]  lookupHopsSig:vector  ETV
vector 1980136  Network.dyn_peer[23]  lookupStabilitySig:vector  ETV
vector 1980137  Network.dyn_peer[23]  lookupTimeSig:vector  ETV
vector 1980138  Network.dyn_peer[24]  lookupHopsSig:vector  ETV
vector 1980139  Network.dyn_peer[24]  lookupStabilitySig:vector  ETV
vector 1980140  Network.dyn_peer[24]  lookupTimeSig:vector  ETV
vector 1980174  Network.dyn_peer[36]  lookupHopsSig:vector  ETV
vector 1980175  Network.dyn_peer[36]  lookupStabilitySig:vector  ETV
vector 1980176  Network.dyn_peer[36]  lookupTimeSig:vector  ETV
vector 1980117  Network.dyn_peer[17]  lookupHopsSig:vector  ETV
vector 1980118  Network.dyn_peer[17]  lookupStabilitySig:vector  ETV
vector 1980119  Network.dyn_peer[17]  lookupTimeSig:vector  ETV
vector 1980156  Network.dyn_peer[30]  lookupHopsSig:vector  ETV
vector 1980157  Network.dyn_peer[30]  lookupStabilitySig:vector  ETV
vector 1980158  Network.dyn_peer[30]  lookupTimeSig:vector  ETV
vector 1980132  Network.dyn_peer[22]  lookupHopsSig:vector  ETV
vector 1980133  Network.dyn_peer[22]  lookupStabilitySig:vector  ETV
vector 1980134  Network.dyn_peer[22]  lookupTimeSig:vector  ETV
vector 1980108  Network.dyn_peer[14]  lookupHopsSig:vector  ETV
vector 1980109  Network.dyn_peer[14]  lookupStabilitySig:vector  ETV
vector 1980110  Network.dyn_peer[14]  lookupTimeSig:vector  ETV
vector 1980147  Network.dyn_peer[27]  lookupHopsSig:vector  ETV
vector 1980148  Network.dyn_peer[27]  lookupStabilitySig:vector  ETV
vector 1980149  Network.dyn_peer[27]  lookupTimeSig:vector  ETV
vector 1980120  Network.dyn_peer[18]  lookupHopsSig:vector  ETV
vector 1980121  Network.dyn_peer[18]  lookupStabilitySig:vector  ETV
vector 1980122  Network.dyn_peer[18]  lookupTimeSig:vector  ETV
vector 1980123  Network.dyn_peer[19]  lookupHopsSig:vector  ETV
vector 1980124  Network.dyn_peer[19]  lookupStabilitySig:vector  ETV
vector 1980125  Network.dyn_peer[19]  lookupTimeSig:vector  ETV
vector 1980183  Network.dyn_peer[39]  lookupHopsSig:vector  ETV
vector 1980184  Network.dyn_peer[39]  lookupStabilitySig:vector  ETV
vector 1980185  Network.dyn_peer[39]  lookupTimeSig:vector  ETV
vector 1980159  Network.dyn_peer[31]  lookupHopsSig:vector  ETV
vector 1980160  Network.dyn_peer[31]  lookupStabilitySig:vector  ETV
vector 1980161  Network.dyn_peer[31]  lookupTimeSig:vector  ETV
vector 1980192  Network.dyn_peer[42]  lookupHopsSig:vector  ETV
vector 1980193  Network.dyn_peer[42]  lookupStabilitySig:vector  ETV
vector 1980194  Network.dyn_peer[42]  lookupTimeSig:vector  ETV
vector 1980105  Network.dyn_peer[13]  lookupHopsSig:vector  ETV
vector 1980106  Network.dyn_peer[13]  lookupStabilitySig:vector  ETV
vector 1980107  Network.dyn_peer[13]  lookupTimeSig:vector  ETV
vector 1980141  Network.dyn_peer[25]  lookupHopsSig:vector  ETV
vector 1980142  Network.dyn_peer[25]  lookupStabilitySig:vector  ETV
vector 1980143  Network.dyn_peer[25]  lookupTimeSig:vector  ETV
vector 1980243  Network.dyn_peer[59]  lookupHopsSig:vector  ETV
vector 1980244  Network.dyn_peer[59]  lookupStabilitySig:vector  ETV
vector 1980245  Network.dyn_peer[59]  lookupTimeSig:vector  ETV
vector 1980195  Network.dyn_peer[43]  lookupHopsSig:vector  ETV
vector 1980196  Network.dyn_peer[43]  lookupStabilitySig:vector  ETV
vector 1980197  Network.dyn_peer[43]  lookupTimeSig:vector  ETV
vector 1980255  Network.dyn_peer[63]  lookupHopsSig:vector  ETV
vector 1980256  Network.dyn_peer[63]  lookupStabilitySig:vector  ETV
vector 1980257  Network.dyn_peer[63]  lookupTimeSig:vector  ETV
vector 1980144  Network.dyn_peer[26]  lookupHopsSig:vector  ETV
vector 1980145  Network.dyn_peer[26]  lookupStabilitySig:vector  ETV
vector 1980146  Network.dyn_peer[26]  lookupTimeSig:vector  ETV
vector 1980177  Network.dyn_peer[37]  lookupHopsSig:vector  ETV
vector 1980178  Network.dyn_peer[37]  lookupStabilitySig:vector  ETV
vector 1980179  Network.dyn_peer[37]  lookupTimeSig:vector  ETV
vector 1980180  Network.dyn_peer[38]  lookupHopsSig:vector  ETV
vector 1980181  Network.dyn_peer[38]  lookupStabilitySig:vector  ETV
vector 1980182  Network.dyn_peer[38]  lookupTimeSig:vector  ETV
vector 1980210  Network.dyn_peer[48]  lookupHopsSig:vector  ETV
vector 1980211  Network.dyn_peer[48]  lookupStabilitySig:vector  ETV
vector 1980212  Network.dyn_peer[48]  lookupTimeSig:vector  ETV
vector 1980198  Network.dyn_peer[44]  lookupHopsSig:vector  ETV
vector 1980199  Network.dyn_peer[44]  lookupStabilitySig:vector  ETV
vector 1980200  Network.dyn_peer[44]  lookupTimeSig:vector  ETV
vector 1980234  Network.dyn_peer[56]  lookupHopsSig:vector  ETV
vector 1980235  Network.dyn_peer[56]  lookupStabilitySig:vector  ETV
vector 1980236  Network.dyn_peer[56]  lookupTimeSig:vector  ETV
vector 1980237  Network.dyn_peer[57]  lookupHopsSig:vector  ETV
vector 1980238  Network.dyn_peer[57]  lookupStabilitySig:vector  ETV
vector 1980239  Network.dyn_peer[57]  lookupTimeSig:vector  ETV
vector 1980153  Network.dyn_peer[29]  lookupHopsSig:vector  ETV
vector 1980154  Network.dyn_peer[29]  lookupStabilitySig:vector  ETV
vector 1980155  Network.dyn_peer[29]  lookupTimeSig:vector  ETV
vector 1980168  Network.dyn_peer[34]  lookupHopsSig:vector  ETV
vector 1980169  Network.dyn_peer[34]  lookupStabilitySig:vector  ETV
vector 1980170  Network.dyn_peer[34]  lookupTimeSig:vector  ETV
vector 1980261  Network.dyn_peer[65]  lookupHopsSig:vector  ETV
vector 1980262  Network.dyn_peer[65]  lookupStabilitySig:vector  ETV
vector 1980263  Network.dyn_peer[65]  lookupTimeSig:vector  ETV
vector 1980150  Network.dyn_peer[28]  lookupHopsSig:vector  ETV
vector 1980151  Network.dyn_peer[28]  lookupStabilitySig:vector  ETV
vector 1980152  Network.dyn_peer[28]  lookupTimeSig:vector  ETV
vector 1980213  Network.dyn_peer[49]  lookupHopsSig:vector  ETV
vector 1980214  Network.dyn_peer[49]  lookupStabilitySig:vector  ETV
vector 1980215  Network.dyn_peer[49]  lookupTimeSig:vector  ETV
vector 1980186  Network.dyn_peer[40]  lookupHopsSig:vector  ETV
vector 1980187  Network.dyn_peer[40]  lookupStabilitySig:vector  ETV
vector 1980188  Network.dyn_peer[40]  lookupTimeSig:vector  ETV
vector 1980165  Network.dyn_peer[33]  lookupHopsSig:vector  ETV
vector 1980166  Network.dyn_peer[33]  lookupStabilitySig:vector  ETV
vector 1980167  Network.dyn_peer[33]  lookupTimeSig:vector  ETV
vector 1980231  Network.dyn_peer[55]  lookupHopsSig:vector  ETV
vector 1980232  Network.dyn_peer[55]  lookupStabilitySig:vector  ETV
vector 1980233  Network.dyn_peer[55]  lookupTimeSig:vector  ETV
vector 1980300  Network.dyn_peer[78]  lookupHopsSig:vector  ETV
vector 1980301  Network.dyn_peer[78]  lookupStabilitySig:vector  ETV
vector 1980302  Network.dyn_peer[78]  lookupTimeSig:vector  ETV
vector 1980129  Network.dyn_peer[21]  lookupHopsSig:vector  ETV
vector 1980130  Network.dyn_peer[21]  lookupStabilitySig:vector  ETV
vector 1980131  Network.dyn_peer[21]  lookupTimeSig:vector  ETV
vector 1980189  Network.dyn_peer[41]  lookupHopsSig:vector  ETV
vector 1980190  Network.dyn_peer[41]  lookupStabilitySig:vector  ETV
vector 1980191  Network.dyn_peer[41]  lookupTimeSig:vector  ETV
vector 1980222  Network.dyn_peer[52]  lookupHopsSig:vector  ETV
vector 1980223  Network.dyn_peer[52]  lookupStabilitySig:vector  ETV
vector 1980224  Network.dyn_peer[52]  lookupTimeSig:vector  ETV
vector 1980345  Network.dyn_peer[93]  lookupHopsSig:vector  ETV
vector 1980346  Network.dyn_peer[93]  lookupStabilitySig:vector  ETV
vector 1980347  Network.dyn_peer[93]  lookupTimeSig:vector  ETV
vector 1980264  Network.dyn_peer[66]  lookupHopsSig:vector  ETV
vector 1980265  Network.dyn_peer[66]  lookupStabilitySig:vector  ETV
vector 1980266  Network.dyn_peer[66]  lookupTimeSig:vector  ETV
vector 1980324  Network.dyn_peer[86]  lookupHopsSig:vector  ETV
vector 1980325  Network.dyn_peer[86]  lookupStabilitySig:vector  ETV
vector 1980326  Network.dyn_peer[86]  lookupTimeSig:vector  ETV
vector 1980357  Network.dyn_peer[97]  lookupHopsSig:vector  ETV
vector 1980358  Network.dyn_peer[97]  lookupStabilitySig:vector  ETV
vector 1980359  Network.dyn_peer[97]  lookupTimeSig:vector  ETV
vector 1980306  Network.dyn_peer[80]  lookupHopsSig:vector  ETV
vector 1980307  Network.dyn_peer[80]  lookupStabilitySig:vector  ETV
vector 1980308  Network.dyn_peer[80]  lookupTimeSig:vector  ETV
vector 1980249  Network.dyn_peer[61]  lookupHopsSig:vector  ETV
vector 1980250  Network.dyn_peer[61]  lookupStabilitySig:vector  ETV
vector 1980251  Network.dyn_peer[61]  lookupTimeSig:vector  ETV
vector 1980309  Network.dyn_peer[81]  lookupHopsSig:vector  ETV
vector 1980310  Network.dyn_peer[81]  lookupStabilitySig:vector  ETV
vector 1980311  Network.dyn_peer[81]  lookupTimeSig:vector  ETV
vector 1980321  Network.dyn_peer[85]  lookupHopsSig:vector  ETV
vector 1980322  Network.dyn_peer[85]  lookupStabilitySig:vector  ETV
vector 1980323  Network.dyn_peer[85]  lookupTimeSig:vector  ETV
vector 1980303  Network.dyn_peer[79]  lookupHopsSig:vector  ETV
vector 1980304  Network.dyn_peer[79]  lookupStabilitySig:vector  ETV
vector 1980305  Network.dyn_peer[79]  lookupTimeSig:vector  ETV
vector 1980171  Network.dyn_peer[35]  lookupHopsSig:vector  ETV
vector 1980172  Network.dyn_peer[35]  lookupStabilitySig:vector  ETV
vector 1980173  Network.dyn_peer[35]  lookupTimeSig:vector  ETV
vector 1980201  Network.dyn_peer[45]  lookupHopsSig:vector  ETV
vector 1980202  Network.dyn_peer[45]  lookupStabilitySig:vector  ETV
vector 1980203  Network.dyn_peer[45]  lookupTimeSig:vector  ETV
vector 1980291  Network.dyn_peer[75]  lookupHopsSig:vector  ETV
vector 1980292  Network.dyn_peer[75]  lookupStabilitySig:vector  ETV
vector 1980293  Network.dyn_peer[75]  lookupTimeSig:vector  ETV
vector 1980204  Network.dyn_peer[46]  lookupHopsSig:vector  ETV
vector 1980205  Network.dyn_peer[46]  lookupStabilitySig:vector  ETV
vector 1980206  Network.dyn_peer[46]  lookupTimeSig:vector  ETV
vector 1980162  Network.dyn_peer[32]  lookupHopsSig:vector  ETV
vector 1980163  Network.dyn_peer[32]  lookupStabilitySig:vector  ETV
vector 1980164  Network.dyn_peer[32]  lookupTimeSig:vector  ETV
vector 1980252  Network.dyn_peer[62]  lookupHopsSig:vector  ETV
vector 1980253  Network.dyn_peer[62]  lookupStabilitySig:vector  ETV
vector 1980254  Network.dyn_peer[62]  lookupTimeSig:vector  ETV
vector 1980342  Network.dyn_peer[92]  lookupHopsSig:vector  ETV
vector 1980343  Network.dyn_peer[92]  lookupStabilitySig:vector  ETV
vector 1980344  Network.dyn_peer[92]  lookupTimeSig:vector  ETV
vector 1980285  Network.dyn_peer[73]  lookupHopsSig:vector  ETV
vector 1980286  Network.dyn_peer[73]  lookupStabilitySig:vector  ETV
vector 1980287  Network.dyn_peer[73]  lookupTimeSig:vector  ETV
vector 1980405  Network.dyn_peer[113]  lookupHopsSig:vector  ETV
vector 1980406  Network.dyn_peer[113]  lookupStabilitySig:vector  ETV
vector 1980407  Network.dyn_peer[113]  lookupTimeSig:vector  ETV
vector 1980333  Network.dyn_peer[89]  lookupHopsSig:vector  ETV
vector 1980334  Network.dyn_peer[89]  lookupStabilitySig:vector  ETV
vector 1980335  Network.dyn_peer[89]  lookupTimeSig:vector  ETV
vector 1980279  Network.dyn_peer[71]  lookupHopsSig:vector  ETV
vector 1980280  Network.dyn_peer[71]  lookupStabilitySig:vector  ETV
vector 1980281  Network.dyn_peer[71]  lookupTimeSig:vector  ETV
vector 1980369  Network.dyn_peer[101]  lookupHopsSig:vector  ETV
vector 1980370  Network.dyn_peer[101]  lookupStabilitySig:vector  ETV
vector 1980371  Network.dyn_peer[101]  lookupTimeSig:vector  ETV
vector 1980372  Network.dyn_peer[102]  lookupHopsSig:vector  ETV
vector 1980373  Network.dyn_peer[102]  lookupStabilitySig:vector  ETV
vector 1980374  Network.dyn_peer[102]  lookupTimeSig:vector  ETV
vector 1980381  Network.dyn_peer[105]  lookupHopsSig:vector  ETV
vector 1980382  Network.dyn_peer[105]  lookupStabilitySig:vector  ETV
vector 1980383  Network.dyn_peer[105]  lookupTimeSig:vector  ETV
vector 1980411  Network.dyn_peer[115]  lookupHopsSig:vector  ETV
vector 1980412  Network.dyn_peer[115]  lookupStabilitySig:vector  ETV
vector 1980413  Network.dyn_peer[115]  lookupTimeSig:vector  ETV
vector 1980297  Network.dyn_peer[77]  lookupHopsSig:vector  ETV
vector 1980298  Network.dyn_peer[77]  lookupStabilitySig:vector  ETV
vector 1980299  Network.dyn_peer[77]  lookupTimeSig:vector  ETV
vector 1980393  Network.dyn_peer[109]  lookupHopsSig:vector  ETV
vector 1980394  Network.dyn_peer[109]  lookupStabilitySig:vector  ETV
vector 1980395  Network.dyn_peer[109]  lookupTimeSig:vector  ETV
vector 1980516  Network.dyn_peer[150]  lookupHopsSig:vector  ETV
vector 1980517  Network.dyn_peer[150]  lookupStabilitySig:vector  ETV
vector 1980518  Network.dyn_peer[150]  lookupTimeSig:vector  ETV
vector 1980225  Network.dyn_peer[53]  lookupHopsSig:vector  ETV
vector 1980226  Network.dyn_peer[53]  lookupStabilitySig:vector  ETV
vector 1980227  Network.dyn_peer[53]  lookupTimeSig:vector  ETV
vector 1980315  Network.dyn_peer[83]  lookupHopsSig:vector  ETV
vector 1980316  Network.dyn_peer[83]  lookupStabilitySig:vector  ETV
vector 1980317  Network.dyn_peer[83]  lookupTimeSig:vector  ETV
vector 1980228  Network.dyn_peer[54]  lookupHopsSig:vector  ETV
vector 1980229  Network.dyn_peer[54]  lookupStabilitySig:vector  ETV
vector 1980230  Network.dyn_peer[54]  lookupTimeSig:vector  ETV
vector 1980501  Network.dyn_peer[145]  lookupHopsSig:vector  ETV
vector 1980502  Network.dyn_peer[145]  lookupStabilitySig:vector  ETV
vector 1980503  Network.dyn_peer[145]  lookupTimeSig:vector  ETV
vector 1980207  Network.dyn_peer[47]  lookupHopsSig:vector  ETV
vector 1980208  Network.dyn_peer[47]  lookupStabilitySig:vector  ETV
vector 1980209  Network.dyn_peer[47]  lookupTimeSig:vector  ETV
vector 1980483  Network.dyn_peer[139]  lookupHopsSig:vector  ETV
vector 1980484  Network.dyn_peer[139]  lookupStabilitySig:vector  ETV
vector 1980485  Network.dyn_peer[139]  lookupTimeSig:vector  ETV
vector 1980246  Network.dyn_peer[60]  lookupHopsSig:vector  ETV
vector 1980247  Network.dyn_peer[60]  lookupStabilitySig:vector  ETV
vector 1980248  Network.dyn_peer[60]  lookupTimeSig:vector  ETV
vector 1980396  Network.dyn_peer[110]  lookupHopsSig:vector  ETV
vector 1980397  Network.dyn_peer[110]  lookupStabilitySig:vector  ETV
vector 1980398  Network.dyn_peer[110]  lookupTimeSig:vector  ETV
vector 1980219  Network.dyn_peer[51]  lookupHopsSig:vector  ETV
vector 1980220  Network.dyn_peer[51]  lookupStabilitySig:vector  ETV
vector 1980221  Network.dyn_peer[51]  lookupTimeSig:vector  ETV
vector 1980375  Network.dyn_peer[103]  lookupHopsSig:vector  ETV
vector 1980376  Network.dyn_peer[103]  lookupStabilitySig:vector  ETV
vector 1980377  Network.dyn_peer[103]  lookupTimeSig:vector  ETV
vector 1980447  Network.dyn_peer[127]  lookupHopsSig:vector  ETV
vector 1980448  Network.dyn_peer[127]  lookupStabilitySig:vector  ETV
vector 1980449  Network.dyn_peer[127]  lookupTimeSig:vector  ETV
vector 1980330  Network.dyn_peer[88]  lookupHopsSig:vector  ETV
vector 1980331  Network.dyn_peer[88]  lookupStabilitySig:vector  ETV
vector 1980332  Network.dyn_peer[88]  lookupTimeSig:vector  ETV
vector 1980453  Network.dyn_peer[129]  lookupHopsSig:vector  ETV
vector 1980454  Network.dyn_peer[129]  lookupStabilitySig:vector  ETV
vector 1980455  Network.dyn_peer[129]  lookupTimeSig:vector  ETV
vector 1980543  Network.dyn_peer[159]  lookupHopsSig:vector  ETV
vector 1980544  Network.dyn_peer[159]  lookupStabilitySig:vector  ETV
vector 1980545  Network.dyn_peer[159]  lookupTimeSig:vector  ETV
vector 1980216  Network.dyn_peer[50]  lookupHopsSig:vector  ETV
vector 1980217  Network.dyn_peer[50]  lookupStabilitySig:vector  ETV
vector 1980218  Network.dyn_peer[50]  lookupTimeSig:vector  ETV
vector 1980276  Network.dyn_peer[70]  lookupHopsSig:vector  ETV
vector 1980277  Network.dyn_peer[70]  lookupStabilitySig:vector  ETV
vector 1980278  Network.dyn_peer[70]  lookupTimeSig:vector  ETV
vector 1980495  Network.dyn_peer[143]  lookupHopsSig:vector  ETV
vector 1980496  Network.dyn_peer[143]  lookupStabilitySig:vector  ETV
vector 1980497  Network.dyn_peer[143]  lookupTimeSig:vector  ETV
vector 1980561  Network.dyn_peer[165]  lookupHopsSig:vector  ETV
vector 1980562  Network.dyn_peer[165]  lookupStabilitySig:vector  ETV
vector 1980563  Network.dyn_peer[165]  lookupTimeSig:vector  ETV
vector 1980327  Network.dyn_peer[87]  lookupHopsSig:vector  ETV
vector 1980328  Network.dyn_peer[87]  lookupStabilitySig:vector  ETV
vector 1980329  Network.dyn_peer[87]  lookupTimeSig:vector  ETV
vector 1980273  Network.dyn_peer[69]  lookupHopsSig:vector  ETV
vector 1980274  Network.dyn_peer[69]  lookupStabilitySig:vector  ETV
vector 1980275  Network.dyn_peer[69]  lookupTimeSig:vector  ETV
vector 1980459  Network.dyn_peer[131]  lookupHopsSig:vector  ETV
vector 1980460  Network.dyn_peer[131]  lookupStabilitySig:vector  ETV
vector 1980461  Network.dyn_peer[131]  lookupTimeSig:vector  ETV
vector 1980462  Network.dyn_peer[132]  lookupHopsSig:vector  ETV
vector 1980463  Network.dyn_peer[132]  lookupStabilitySig:vector  ETV
vector 1980464  Network.dyn_peer[132]  lookupTimeSig:vector  ETV
vector 1980435  Network.dyn_peer[123]  lookupHopsSig:vector  ETV
vector 1980436  Network.dyn_peer[123]  lookupStabilitySig:vector  ETV
vector 1980437  Network.dyn_peer[123]  lookupTimeSig:vector  ETV
vector 1980348  Network.dyn_peer[94]  lookupHopsSig:vector  ETV
vector 1980349  Network.dyn_peer[94]  lookupStabilitySig:vector  ETV
vector 1980350  Network.dyn_peer[94]  lookupTimeSig:vector  ETV
vector 1980531  Network.dyn_peer[155]  lookupHopsSig:vector  ETV
vector 1980532  Network.dyn_peer[155]  lookupStabilitySig:vector  ETV
vector 1980533  Network.dyn_peer[155]  lookupTimeSig:vector  ETV
vector 1980477  Network.dyn_peer[137]  lookupHopsSig:vector  ETV
vector 1980478  Network.dyn_peer[137]  lookupStabilitySig:vector  ETV
vector 1980479  Network.dyn_peer[137]  lookupTimeSig:vector  ETV
vector 1980240  Network.dyn_peer[58]  lookupHopsSig:vector  ETV
vector 1980241  Network.dyn_peer[58]  lookupStabilitySig:vector  ETV
vector 1980242  Network.dyn_peer[58]  lookupTimeSig:vector  ETV
vector 1980399  Network.dyn_peer[111]  lookupHopsSig:vector  ETV
vector 1980400  Network.dyn_peer[111]  lookupStabilitySig:vector  ETV
vector 1980401  Network.dyn_peer[111]  lookupTimeSig:vector  ETV
vector 1980429  Network.dyn_peer[121]  lookupHopsSig:vector  ETV
vector 1980430  Network.dyn_peer[121]  lookupStabilitySig:vector  ETV
vector 1980431  Network.dyn_peer[121]  lookupTimeSig:vector  ETV
vector 1980519  Network.dyn_peer[151]  lookupHopsSig:vector  ETV
vector 1980520  Network.dyn_peer[151]  lookupStabilitySig:vector  ETV
vector 1980521  Network.dyn_peer[151]  lookupTimeSig:vector  ETV
vector 1980282  Network.dyn_peer[72]  lookupHopsSig:vector  ETV
vector 1980283  Network.dyn_peer[72]  lookupStabilitySig:vector  ETV
vector 1980284  Network.dyn_peer[72]  lookupTimeSig:vector  ETV
vector 1980258  Network.dyn_peer[64]  lookupHopsSig:vector  ETV
vector 1980259  Network.dyn_peer[64]  lookupStabilitySig:vector  ETV
vector 1980260  Network.dyn_peer[64]  lookupTimeSig:vector  ETV
vector 1980441  Network.dyn_peer[125]  lookupHopsSig:vector  ETV
vector 1980442  Network.dyn_peer[125]  lookupStabilitySig:vector  ETV
vector 1980443  Network.dyn_peer[125]  lookupTimeSig:vector  ETV
vector 1980354  Network.dyn_peer[96]  lookupHopsSig:vector  ETV
vector 1980355  Network.dyn_peer[96]  lookupStabilitySig:vector  ETV
vector 1980356  Network.dyn_peer[96]  lookupTimeSig:vector  ETV
vector 1980384  Network.dyn_peer[106]  lookupHopsSig:vector  ETV
vector 1980385  Network.dyn_peer[106]  lookupStabilitySig:vector  ETV
vector 1980386  Network.dyn_peer[106]  lookupTimeSig:vector  ETV
vector 1980414  Network.dyn_peer[116]  lookupHopsSig:vector  ETV
vector 1980415  Network.dyn_peer[116]  lookupStabilitySig:vector  ETV
vector 1980416  Network.dyn_peer[116]  lookupTimeSig:vector  ETV
vector 1980528  Network.dyn_peer[154]  lookupHopsSig:vector  ETV
vector 1980529  Network.dyn_peer[154]  lookupStabilitySig:vector  ETV
vector 1980530  Network.dyn_peer[154]  lookupTimeSig:vector  ETV
vector 1980420  Network.dyn_peer[118]  lookupHopsSig:vector  ETV
vector 1980421  Network.dyn_peer[118]  lookupStabilitySig:vector  ETV
vector 1980422  Network.dyn_peer[118]  lookupTimeSig:vector  ETV
vector 1980450  Network.dyn_peer[128]  lookupHopsSig:vector  ETV
vector 1980451  Network.dyn_peer[128]  lookupStabilitySig:vector  ETV
vector 1980452  Network.dyn_peer[128]  lookupTimeSig:vector  ETV
vector 1980480  Network.dyn_peer[138]  lookupHopsSig:vector  ETV
vector 1980481  Network.dyn_peer[138]  lookupStabilitySig:vector  ETV
vector 1980482  Network.dyn_peer[138]  lookupTimeSig:vector  ETV
vector 1980486  Network.dyn_peer[140]  lookupHopsSig:vector  ETV
vector 1980487  Network.dyn_peer[140]  lookupStabilitySig:vector  ETV
vector 1980488  Network.dyn_peer[140]  lookupTimeSig:vector  ETV
vector 1980606  Network.dyn_peer[180]  lookupHopsSig:vector  ETV
vector 1980607  Network.dyn_peer[180]  lookupStabilitySig:vector  ETV
vector 1980608  Network.dyn_peer[180]  lookupTimeSig:vector  ETV
vector 1980351  Network.dyn_peer[95]  lookupHopsSig:vector  ETV
vector 1980352  Network.dyn_peer[95]  lookupStabilitySig:vector  ETV
vector 1980353  Network.dyn_peer[95]  lookupTimeSig:vector  ETV
vector 1980471  Network.dyn_peer[135]  lookupHopsSig:vector  ETV
vector 1980472  Network.dyn_peer[135]  lookupStabilitySig:vector  ETV
vector 1980473  Network.dyn_peer[135]  lookupTimeSig:vector  ETV
vector 1980387  Network.dyn_peer[107]  lookupHopsSig:vector  ETV
vector 1980388  Network.dyn_peer[107]  lookupStabilitySig:vector  ETV
vector 1980389  Network.dyn_peer[107]  lookupTimeSig:vector  ETV
vector 1980270  Network.dyn_peer[68]  lookupHopsSig:vector  ETV
vector 1980271  Network.dyn_peer[68]  lookupStabilitySig:vector  ETV
vector 1980272  Network.dyn_peer[68]  lookupTimeSig:vector  ETV
vector 1980363  Network.dyn_peer[99]  lookupHopsSig:vector  ETV
vector 1980364  Network.dyn_peer[99]  lookupStabilitySig:vector  ETV
vector 1980365  Network.dyn_peer[99]  lookupTimeSig:vector  ETV
vector 1980426  Network.dyn_peer[120]  lookupHopsSig:vector  ETV
vector 1980427  Network.dyn_peer[120]  lookupStabilitySig:vector  ETV
vector 1980428  Network.dyn_peer[120]  lookupTimeSig:vector  ETV
vector 1980339  Network.dyn_peer[91]  lookupHopsSig:vector  ETV
vector 1980340  Network.dyn_peer[91]  lookupStabilitySig:vector  ETV
vector 1980341  Network.dyn_peer[91]  lookupTimeSig:vector  ETV
vector 1980402  Network.dyn_peer[112]  lookupHopsSig:vector  ETV
vector 1980403  Network.dyn_peer[112]  lookupStabilitySig:vector  ETV
vector 1980404  Network.dyn_peer[112]  lookupTimeSig:vector  ETV
vector 1980708  Network.dyn_peer[214]  lookupHopsSig:vector  ETV
vector 1980709  Network.dyn_peer[214]  lookupStabilitySig:vector  ETV
vector 1980710  Network.dyn_peer[214]  lookupTimeSig:vector  ETV
vector 1980510  Network.dyn_peer[148]  lookupHopsSig:vector  ETV
vector 1980511  Network.dyn_peer[148]  lookupStabilitySig:vector  ETV
vector 1980512  Network.dyn_peer[148]  lookupTimeSig:vector  ETV
vector 1980570  Network.dyn_peer[168]  lookupHopsSig:vector  ETV
vector 1980571  Network.dyn_peer[168]  lookupStabilitySig:vector  ETV
vector 1980572  Network.dyn_peer[168]  lookupTimeSig:vector  ETV
vector 1980603  Network.dyn_peer[179]  lookupHopsSig:vector  ETV
vector 1980604  Network.dyn_peer[179]  lookupStabilitySig:vector  ETV
vector 1980605  Network.dyn_peer[179]  lookupTimeSig:vector  ETV
vector 1980576  Network.dyn_peer[170]  lookupHopsSig:vector  ETV
vector 1980577  Network.dyn_peer[170]  lookupStabilitySig:vector  ETV
vector 1980578  Network.dyn_peer[170]  lookupTimeSig:vector  ETV
vector 1980579  Network.dyn_peer[171]  lookupHopsSig:vector  ETV
vector 1980580  Network.dyn_peer[171]  lookupStabilitySig:vector  ETV
vector 1980581  Network.dyn_peer[171]  lookupTimeSig:vector  ETV
vector 1980432  Network.dyn_peer[122]  lookupHopsSig:vector  ETV
vector 1980433  Network.dyn_peer[122]  lookupStabilitySig:vector  ETV
vector 1980434  Network.dyn_peer[122]  lookupTimeSig:vector  ETV
vector 1980705  Network.dyn_peer[213]  lookupHopsSig:vector  ETV
vector 1980706  Network.dyn_peer[213]  lookupStabilitySig:vector  ETV
vector 1980707  Network.dyn_peer[213]  lookupTimeSig:vector  ETV
vector 1980438  Network.dyn_peer[124]  lookupHopsSig:vector  ETV
vector 1980439  Network.dyn_peer[124]  lookupStabilitySig:vector  ETV
vector 1980440  Network.dyn_peer[124]  lookupTimeSig:vector  ETV
vector 1980468  Network.dyn_peer[134]  lookupHopsSig:vector  ETV
vector 1980469  Network.dyn_peer[134]  lookupStabilitySig:vector  ETV
vector 1980470  Network.dyn_peer[134]  lookupTimeSig:vector  ETV
vector 1980594  Network.dyn_peer[176]  lookupHopsSig:vector  ETV
vector 1980595  Network.dyn_peer[176]  lookupStabilitySig:vector  ETV
vector 1980596  Network.dyn_peer[176]  lookupTimeSig:vector  ETV
vector 1980600  Network.dyn_peer[178]  lookupHopsSig:vector  ETV
vector 1980601  Network.dyn_peer[178]  lookupStabilitySig:vector  ETV
vector 1980602  Network.dyn_peer[178]  lookupTimeSig:vector  ETV
vector 1980693  Network.dyn_peer[209]  lookupHopsSig:vector  ETV
vector 1980694  Network.dyn_peer[209]  lookupStabilitySig:vector  ETV
vector 1980695  Network.dyn_peer[209]  lookupTimeSig:vector  ETV
vector 1980312  Network.dyn_peer[82]  lookupHopsSig:vector  ETV
vector 1980313  Network.dyn_peer[82]  lookupStabilitySig:vector  ETV
vector 1980314  Network.dyn_peer[82]  lookupTimeSig:vector  ETV
vector 1980702  Network.dyn_peer[212]  lookupHopsSig:vector  ETV
vector 1980703  Network.dyn_peer[212]  lookupStabilitySig:vector  ETV
vector 1980704  Network.dyn_peer[212]  lookupTimeSig:vector  ETV
vector 1980504  Network.dyn_peer[146]  lookupHopsSig:vector  ETV
vector 1980505  Network.dyn_peer[146]  lookupStabilitySig:vector  ETV
vector 1980506  Network.dyn_peer[146]  lookupTimeSig:vector  ETV
vector 1980804  Network.dyn_peer[246]  lookupHopsSig:vector  ETV
vector 1980805  Network.dyn_peer[246]  lookupStabilitySig:vector  ETV
vector 1980806  Network.dyn_peer[246]  lookupTimeSig:vector  ETV
vector 1980417  Network.dyn_peer[117]  lookupHopsSig:vector  ETV
vector 1980418  Network.dyn_peer[117]  lookupStabilitySig:vector  ETV
vector 1980419  Network.dyn_peer[117]  lookupTimeSig:vector  ETV
vector 1980627  Network.dyn_peer[187]  lookupHopsSig:vector  ETV
vector 1980628  Network.dyn_peer[187]  lookupStabilitySig:vector  ETV