version 2
run Stability2-49-20130528-01:26:54-24168
attr configname Stability2
attr datetime 20130528-01:26:54
attr experiment Stability2
attr inifile omnetpp.ini
attr iterationvars $0=50
attr iterationvars2 "$0=50, $repetition=9"
attr measurement $0=50
attr network Network
attr processid 24168
attr repetition 9
attr replication #9
attr resultdir results
attr runnumber 49
attr seedset 49

vector 1500049  Network.churner  inGoingSizeSig:vector  ETV
vector 1470052  Network.dyn_peer[1]  lookupHopsSig:vector  ETV
vector 1470053  Network.dyn_peer[1]  lookupStabilitySig:vector  ETV
vector 1470054  Network.dyn_peer[1]  lookupTimeSig:vector  ETV
vector 1470061  Network.dyn_peer[4]  lookupHopsSig:vector  ETV
vector 1470062  Network.dyn_peer[4]  lookupStabilitySig:vector  ETV
vector 1470063  Network.dyn_peer[4]  lookupTimeSig:vector  ETV
vector 1470067  Network.dyn_peer[6]  lookupHopsSig:vector  ETV
vector 1470068  Network.dyn_peer[6]  lookupStabilitySig:vector  ETV
vector 1470069  Network.dyn_peer[6]  lookupTimeSig:vector  ETV
vector 1470049  Network.dyn_peer[0]  lookupHopsSig:vector  ETV
vector 1470050  Network.dyn_peer[0]  lookupStabilitySig:vector  ETV
vector 1470051  Network.dyn_peer[0]  lookupTimeSig:vector  ETV
vector 1470079  Network.dyn_peer[10]  lookupHopsSig:vector  ETV
vector 1470080  Network.dyn_peer[10]  lookupStabilitySig:vector  ETV
vector 1470081  Network.dyn_peer[10]  lookupTimeSig:vector  ETV
vector 1470055  Network.dyn_peer[2]  lookupHopsSig:vector  ETV
vector 1470056  Network.dyn_peer[2]  lookupStabilitySig:vector  ETV
vector 1470057  Network.dyn_peer[2]  lookupTimeSig:vector  ETV
vector 1470070  Network.dyn_peer[7]  lookupHopsSig:vector  ETV
vector 1470071  Network.dyn_peer[7]  lookupStabilitySig:vector  ETV
vector 1470072  Network.dyn_peer[7]  lookupTimeSig:vector  ETV
vector 1470073  Network.dyn_peer[8]  lookupHopsSig:vector  ETV
vector 1470074  Network.dyn_peer[8]  lookupStabilitySig:vector  ETV
vector 1470075  Network.dyn_peer[8]  lookupTimeSig:vector  ETV
vector 1470082  Network.dyn_peer[11]  lookupHopsSig:vector  ETV
vector 1470083  Network.dyn_peer[11]  lookupStabilitySig:vector  ETV
vector 1470084  Network.dyn_peer[11]  lookupTimeSig:vector  ETV
vector 1470100  Network.dyn_peer[17]  lookupHopsSig:vector  ETV
vector 1470101  Network.dyn_peer[17]  lookupStabilitySig:vector  ETV
vector 1470102  Network.dyn_peer[17]  lookupTimeSig:vector  ETV
vector 1470076  Network.dyn_peer[9]  lookupHopsSig:vector  ETV
vector 1470077  Network.dyn_peer[9]  lookupStabilitySig:vector  ETV
vector 1470078  Network.dyn_peer[9]  lookupTimeSig:vector  ETV
vector 1470085  Network.dyn_peer[12]  lookupHopsSig:vector  ETV
vector 1470086  Network.dyn_peer[12]  lookupStabilitySig:vector  ETV
vector 1470087  Network.dyn_peer[12]  lookupTimeSig:vector  ETV
vector 1470058  Network.dyn_peer[3]  lookupHopsSig:vector  ETV
vector 1470059  Network.dyn_peer[3]  lookupStabilitySig:vector  ETV
vector 1470060  Network.dyn_peer[3]  lookupTimeSig:vector  ETV
vector 1470088  Network.dyn_peer[13]  lookupHopsSig:vector  ETV
vector 1470089  Network.dyn_peer[13]  lookupStabilitySig:vector  ETV
vector 1470090  Network.dyn_peer[13]  lookupTimeSig:vector  ETV
vector 1470064  Network.dyn_peer[5]  lookupHopsSig:vector  ETV
vector 1470065  Network.dyn_peer[5]  lookupStabilitySig:vector  ETV
vector 1470066  Network.dyn_peer[5]  lookupTimeSig:vector  ETV
vector 1470154  Network.dyn_peer[35]  lookupHopsSig:vector  ETV
vector 1470155  Network.dyn_peer[35]  lookupStabilitySig:vector  ETV
vector 1470156  Network.dyn_peer[35]  lookupTimeSig:vector  ETV
vector 1470097  Network.dyn_peer[16]  lookupHopsSig:vector  ETV
vector 1470098  Network.dyn_peer[16]  lookupStabilitySig:vector  ETV
vector 1470099  Network.dyn_peer[16]  lookupTimeSig:vector  ETV
vector 1470127  Network.dyn_peer[26]  lookupHopsSig:vector  ETV
vector 1470128  Network.dyn_peer[26]  lookupStabilitySig:vector  ETV
vector 1470129  Network.dyn_peer[26]  lookupTimeSig:vector  ETV
vector 1470103  Network.dyn_peer[18]  lookupHopsSig:vector  ETV
vector 1470104  Network.dyn_peer[18]  lookupStabilitySig:vector  ETV
vector 1470105  Network.dyn_peer[18]  lookupTimeSig:vector  ETV
vector 1470106  Network.dyn_peer[19]  lookupHopsSig:vector  ETV
vector 1470107  Network.dyn_peer[19]  lookupStabilitySig:vector  ETV
vector 1470108  Network.dyn_peer[19]  lookupTimeSig:vector  ETV
vector 1470115  Network.dyn_peer[22]  lookupHopsSig:vector  ETV
vector 1470116  Network.dyn_peer[22]  lookupStabilitySig:vector  ETV
vector 1470117  Network.dyn_peer[22]  lookupTimeSig:vector  ETV
vector 1470118  Network.dyn_peer[23]  lookupHopsSig:vector  ETV
vector 1470119  Network.dyn_peer[23]  lookupStabilitySig:vector  ETV
vector 1470120  Network.dyn_peer[23]  lookupTimeSig:vector  ETV
vector 1470094  Network.dyn_peer[15]  lookupHopsSig:vector  ETV
vector 1470095  Network.dyn_peer[15]  lookupStabilitySig:vector  ETV
vector 1470096  Network.dyn_peer[15]  lookupTimeSig:vector  ETV
vector 1470148  Network.dyn_peer[33]  lookupHopsSig:vector  ETV
vector 1470149  Network.dyn_peer[33]  lookupStabilitySig:vector  ETV
vector 1470150  Network.dyn_peer[33]  lookupTimeSig:vector  ETV
vector 1470091  Network.dyn_peer[14]  lookupHopsSig:vector  ETV
vector 1470092  Network.dyn_peer[14]  lookupStabilitySig:vector  ETV
vector 1470093  Network.dyn_peer[14]  lookupTimeSig:vector  ETV
vector 1470130  Network.dyn_peer[27]  lookupHopsSig:vector  ETV
vector 1470131  Network.dyn_peer[27]  lookupStabilitySig:vector  ETV
vector 1470132  Network.dyn_peer[27]  lookupTimeSig:vector  ETV
vector 1470196  Network.dyn_peer[49]  lookupHopsSig:vector  ETV
vector 1470197  Network.dyn_peer[49]  lookupStabilitySig:vector  ETV
vector 1470198  Network.dyn_peer[49]  lookupTimeSig:vector  ETV
vector 1470109  Network.dyn_peer[20]  lookupHopsSig:vector  ETV
vector 1470110  Network.dyn_peer[20]  lookupStabilitySig:vector  ETV
vector 1470111  Network.dyn_peer[20]  lookupTimeSig:vector  ETV
vector 1470181  Network.dyn_peer[44]  lookupHopsSig:vector  ETV
vector 1470182  Network.dyn_peer[44]  lookupStabilitySig:vector  ETV
vector 1470183  Network.dyn_peer[44]  lookupTimeSig:vector  ETV
vector 1470124  Network.dyn_peer[25]  lookupHopsSig:vector  ETV
vector 1470125  Network.dyn_peer[25]  lookupStabilitySig:vector  ETV
vector 1470126  Network.dyn_peer[25]  lookupTimeSig:vector  ETV
vector 1470166  Network.dyn_peer[39]  lookupHopsSig:vector  ETV
vector 1470167  Network.dyn_peer[39]  lookupStabilitySig:vector  ETV
vector 1470168  Network.dyn_peer[39]  lookupTimeSig:vector  ETV
vector 1470139  Network.dyn_peer[30]  lookupHopsSig:vector  ETV
vector 1470140  Network.dyn_peer[30]  lookupStabilitySig:vector  ETV
vector 1470141  Network.dyn_peer[30]  lookupTimeSig:vector  ETV
vector 1470229  Network.dyn_peer[60]  lookupHopsSig:vector  ETV
vector 1470230  Network.dyn_peer[60]  lookupStabilitySig:vector  ETV
vector 1470231  Network.dyn_peer[60]  lookupTimeSig:vector  ETV
vector 1470175  Network.dyn_peer[42]  lookupHopsSig:vector  ETV
vector 1470176  Network.dyn_peer[42]  lookupStabilitySig:vector  ETV
vector 1470177  Network.dyn_peer[42]  lookupTimeSig:vector  ETV
vector 1470238  Network.dyn_peer[63]  lookupHopsSig:vector  ETV
vector 1470239  Network.dyn_peer[63]  lookupStabilitySig:vector  ETV
vector 1470240  Network.dyn_peer[63]  lookupTimeSig:vector  ETV
vector 1470112  Network.dyn_peer[21]  lookupHopsSig:vector  ETV
vector 1470113  Network.dyn_peer[21]  lookupStabilitySig:vector  ETV
vector 1470114  Network.dyn_peer[21]  lookupTimeSig:vector  ETV
vector 1470205  Network.dyn_peer[52]  lookupHopsSig:vector  ETV
vector 1470206  Network.dyn_peer[52]  lookupStabilitySig:vector  ETV
vector 1470207  Network.dyn_peer[52]  lookupTimeSig:vector  ETV
vector 1470121  Network.dyn_peer[24]  lookupHopsSig:vector  ETV
vector 1470122  Network.dyn_peer[24]  lookupStabilitySig:vector  ETV
vector 1470123  Network.dyn_peer[24]  lookupTimeSig:vector  ETV
vector 1470241  Network.dyn_peer[64]  lookupHopsSig:vector  ETV
vector 1470242  Network.dyn_peer[64]  lookupStabilitySig:vector  ETV
vector 1470243  Network.dyn_peer[64]  lookupTimeSig:vector  ETV
vector 1470256  Network.dyn_peer[69]  lookupHopsSig:vector  ETV
vector 1470257  Network.dyn_peer[69]  lookupStabilitySig:vector  ETV
vector 1470258  Network.dyn_peer[69]  lookupTimeSig:vector  ETV
vector 1470142  Network.dyn_peer[31]  lookupHopsSig:vector  ETV
vector 1470143  Network.dyn_peer[31]  lookupStabilitySig:vector  ETV
vector 1470144  Network.dyn_peer[31]  lookupTimeSig:vector  ETV
vector 1470289  Network.dyn_peer[80]  lookupHopsSig:vector  ETV
vector 1470290  Network.dyn_peer[80]  lookupStabilitySig:vector  ETV
vector 1470291  Network.dyn_peer[80]  lookupTimeSig:vector  ETV
vector 1470325  Network.dyn_peer[92]  lookupHopsSig:vector  ETV
vector 1470326  Network.dyn_peer[92]  lookupStabilitySig:vector  ETV
vector 1470327  Network.dyn_peer[92]  lookupTimeSig:vector  ETV
vector 1470178  Network.dyn_peer[43]  lookupHopsSig:vector  ETV
vector 1470179  Network.dyn_peer[43]  lookupStabilitySig:vector  ETV
vector 1470180  Network.dyn_peer[43]  lookupTimeSig:vector  ETV
vector 1470151  Network.dyn_peer[34]  lookupHopsSig:vector  ETV
vector 1470152  Network.dyn_peer[34]  lookupStabilitySig:vector  ETV
vector 1470153  Network.dyn_peer[34]  lookupTimeSig:vector  ETV
vector 1470133  Network.dyn_peer[28]  lookupHopsSig:vector  ETV
vector 1470134  Network.dyn_peer[28]  lookupStabilitySig:vector  ETV
vector 1470135  Network.dyn_peer[28]  lookupTimeSig:vector  ETV
vector 1470136  Network.dyn_peer[29]  lookupHopsSig:vector  ETV
vector 1470137  Network.dyn_peer[29]  lookupStabilitySig:vector  ETV
vector 1470138  Network.dyn_peer[29]  lookupTimeSig:vector  ETV
vector 1470202  Network.dyn_peer[51]  lookupHopsSig:vector  ETV
vector 1470203  Network.dyn_peer[51]  lookupStabilitySig:vector  ETV
vector 1470204  Network.dyn_peer[51]  lookupTimeSig:vector  ETV
vector 1470232  Network.dyn_peer[61]  lookupHopsSig:vector  ETV
vector 1470233  Network.dyn_peer[61]  lookupStabilitySig:vector  ETV
vector 1470234  Network.dyn_peer[61]  lookupTimeSig:vector  ETV
vector 1470331  Network.dyn_peer[94]  lookupHopsSig:vector  ETV
vector 1470332  Network.dyn_peer[94]  lookupStabilitySig:vector  ETV
vector 1470333  Network.dyn_peer[94]  lookupTimeSig:vector  ETV
vector 1470160  Network.dyn_peer[37]  lookupHopsSig:vector  ETV
vector 1470161  Network.dyn_peer[37]  lookupStabilitySig:vector  ETV
vector 1470162  Network.dyn_peer[37]  lookupTimeSig:vector  ETV
vector 1470340  Network.dyn_peer[97]  lookupHopsSig:vector  ETV
vector 1470341  Network.dyn_peer[97]  lookupStabilitySig:vector  ETV
vector 1470342  Network.dyn_peer[97]  lookupTimeSig:vector  ETV
vector 1470292  Network.dyn_peer[81]  lookupHopsSig:vector  ETV
vector 1470293  Network.dyn_peer[81]  lookupStabilitySig:vector  ETV
vector 1470294  Network.dyn_peer[81]  lookupTimeSig:vector  ETV
vector 1470355  Network.dyn_peer[102]  lookupHopsSig:vector  ETV
vector 1470356  Network.dyn_peer[102]  lookupStabilitySig:vector  ETV
vector 1470357  Network.dyn_peer[102]  lookupTimeSig:vector  ETV
vector 1470385  Network.dyn_peer[112]  lookupHopsSig:vector  ETV
vector 1470386  Network.dyn_peer[112]  lookupStabilitySig:vector  ETV
vector 1470387  Network.dyn_peer[112]  lookupTimeSig:vector  ETV
vector 1470358  Network.dyn_peer[103]  lookupHopsSig:vector  ETV
vector 1470359  Network.dyn_peer[103]  lookupStabilitySig:vector  ETV
vector 1470360  Network.dyn_peer[103]  lookupTimeSig:vector  ETV
vector 1470388  Network.dyn_peer[113]  lookupHopsSig:vector  ETV
vector 1470389  Network.dyn_peer[113]  lookupStabilitySig:vector  ETV
vector 1470390  Network.dyn_peer[113]  lookupTimeSig:vector  ETV
vector 1470421  Network.dyn_peer[124]  lookupHopsSig:vector  ETV
vector 1470422  Network.dyn_peer[124]  lookupStabilitySig:vector  ETV
vector 1470423  Network.dyn_peer[124]  lookupTimeSig:vector  ETV
vector 1470157  Network.dyn_peer[36]  lookupHopsSig:vector  ETV
vector 1470158  Network.dyn_peer[36]  lookupStabilitySig:vector  ETV
vector 1470159  Network.dyn_peer[36]  lookupTimeSig:vector  ETV
vector 1470337  Network.dyn_peer[96]  lookupHopsSig:vector  ETV
vector 1470338  Network.dyn_peer[96]  lookupStabilitySig:vector  ETV
vector 1470339  Network.dyn_peer[96]  lookupTimeSig:vector  ETV
vector 1470226  Network.dyn_peer[59]  lookupHopsSig:vector  ETV
vector 1470227  Network.dyn_peer[59]  lookupStabilitySig:vector  ETV
vector 1470228  Network.dyn_peer[59]  lookupTimeSig:vector  ETV
vector 1470349  Network.dyn_peer[100]  lookupHopsSig:vector  ETV
vector 1470350  Network.dyn_peer[100]  lookupStabilitySig:vector  ETV
vector 1470351  Network.dyn_peer[100]  lookupTimeSig:vector  ETV
vector 1470262  Network.dyn_peer[71]  lookupHopsSig:vector  ETV
vector 1470263  Network.dyn_peer[71]  lookupStabilitySig:vector  ETV
vector 1470264  Network.dyn_peer[71]  lookupTimeSig:vector  ETV
vector 1470412  Network.dyn_peer[121]  lookupHopsSig:vector  ETV
vector 1470413  Network.dyn_peer[121]  lookupStabilitySig:vector  ETV
vector 1470414  Network.dyn_peer[121]  lookupTimeSig:vector  ETV
vector 1470442  Network.dyn_peer[131]  lookupHopsSig:vector  ETV
vector 1470443  Network.dyn_peer[131]  lookupStabilitySig:vector  ETV
vector 1470444  Network.dyn_peer[131]  lookupTimeSig:vector  ETV
vector 1470211  Network.dyn_peer[54]  lookupHopsSig:vector  ETV
vector 1470212  Network.dyn_peer[54]  lookupStabilitySig:vector  ETV
vector 1470213  Network.dyn_peer[54]  lookupTimeSig:vector  ETV
vector 1470301  Network.dyn_peer[84]  lookupHopsSig:vector  ETV
vector 1470302  Network.dyn_peer[84]  lookupStabilitySig:vector  ETV
vector 1470303  Network.dyn_peer[84]  lookupTimeSig:vector  ETV
vector 1470214  Network.dyn_peer[55]  lookupHopsSig:vector  ETV
vector 1470215  Network.dyn_peer[55]  lookupStabilitySig:vector  ETV
vector 1470216  Network.dyn_peer[55]  lookupTimeSig:vector  ETV
vector 1470250  Network.dyn_peer[67]  lookupHopsSig:vector  ETV
vector 1470251  Network.dyn_peer[67]  lookupStabilitySig:vector  ETV
vector 1470252  Network.dyn_peer[67]  lookupTimeSig:vector  ETV
vector 1470370  Network.dyn_peer[107]  lookupHopsSig:vector  ETV
vector 1470371  Network.dyn_peer[107]  lookupStabilitySig:vector  ETV
vector 1470372  Network.dyn_peer[107]  lookupTimeSig:vector  ETV
vector 1470223  Network.dyn_peer[58]  lookupHopsSig:vector  ETV
vector 1470224  Network.dyn_peer[58]  lookupStabilitySig:vector  ETV
vector 1470225  Network.dyn_peer[58]  lookupTimeSig:vector  ETV
vector 1470343  Network.dyn_peer[98]  lookupHopsSig:vector  ETV
vector 1470344  Network.dyn_peer[98]  lookupStabilitySig:vector  ETV
vector 1470345  Network.dyn_peer[98]  lookupTimeSig:vector  ETV
vector 1470439  Network.dyn_peer[130]  lookupHopsSig:vector  ETV
vector 1470440  Network.dyn_peer[130]  lookupStabilitySig:vector  ETV
vector 1470441  Network.dyn_peer[130]  lookupTimeSig:vector  ETV
vector 1470298  Network.dyn_peer[83]  lookupHopsSig:vector  ETV
vector 1470299  Network.dyn_peer[83]  lookupStabilitySig:vector  ETV
vector 1470300  Network.dyn_peer[83]  lookupTimeSig:vector  ETV
vector 1470391  Network.dyn_peer[114]  lookupHopsSig:vector  ETV
vector 1470392  Network.dyn_peer[114]  lookupStabilitySig:vector  ETV
vector 1470393  Network.dyn_peer[114]  lookupTimeSig:vector  ETV
vector 1470274  Network.dyn_peer[75]  lookupHopsSig:vector  ETV
vector 1470275  Network.dyn_peer[75]  lookupStabilitySig:vector  ETV
vector 1470276  Network.dyn_peer[75]  lookupTimeSig:vector  ETV
vector 1470454  Network.dyn_peer[135]  lookupHopsSig:vector  ETV
vector 1470455  Network.dyn_peer[135]  lookupStabilitySig:vector  ETV
vector 1470456  Network.dyn_peer[135]  lookupTimeSig:vector  ETV
vector 1470187  Network.dyn_peer[46]  lookupHopsSig:vector  ETV
vector 1470188  Network.dyn_peer[46]  lookupStabilitySig:vector  ETV
vector 1470189  Network.dyn_peer[46]  lookupTimeSig:vector  ETV
vector 1470367  Network.dyn_peer[106]  lookupHopsSig:vector  ETV
vector 1470368  Network.dyn_peer[106]  lookupStabilitySig:vector  ETV
vector 1470369  Network.dyn_peer[106]  lookupTimeSig:vector  ETV
vector 1470280  Network.dyn_peer[77]  lookupHopsSig:vector  ETV
vector 1470281  Network.dyn_peer[77]  lookupStabilitySig:vector  ETV
vector 1470282  Network.dyn_peer[77]  lookupTimeSig:vector  ETV
vector 1470310  Network.dyn_peer[87]  lookupHopsSig:vector  ETV
vector 1470311  Network.dyn_peer[87]  lookupStabilitySig:vector  ETV
vector 1470312  Network.dyn_peer[87]  lookupTimeSig:vector  ETV
vector 1470163  Network.dyn_peer[38]  lookupHopsSig:vector  ETV
vector 1470164  Network.dyn_peer[38]  lookupStabilitySig:vector  ETV
vector 1470165  Network.dyn_peer[38]  lookupTimeSig:vector  ETV
vector 1470253  Network.dyn_peer[68]  lookupHopsSig:vector  ETV
vector 1470254  Network.dyn_peer[68]  lookupStabilitySig:vector  ETV
vector 1470255  Network.dyn_peer[68]  lookupTimeSig:vector  ETV
vector 1470376  Network.dyn_peer[109]  lookupHopsSig:vector  ETV
vector 1470377  Network.dyn_peer[109]  lookupStabilitySig:vector  ETV
vector 1470378  Network.dyn_peer[109]  lookupTimeSig:vector  ETV
vector 1470268  Network.dyn_peer[73]  lookupHopsSig:vector  ETV
vector 1470269  Network.dyn_peer[73]  lookupStabilitySig:vector  ETV
vector 1470270  Network.dyn_peer[73]  lookupTimeSig:vector  ETV
vector 1470334  Network.dyn_peer[95]  lookupHopsSig:vector  ETV
vector 1470335  Network.dyn_peer[95]  lookupStabilitySig:vector  ETV
vector 1470336  Network.dyn_peer[95]  lookupTimeSig:vector  ETV
vector 1470193  Network.dyn_peer[48]  lookupHopsSig:vector  ETV
vector 1470194  Network.dyn_peer[48]  lookupStabilitySig:vector  ETV
vector 1470195  Network.dyn_peer[48]  lookupTimeSig:vector  ETV
vector 1470313  Network.dyn_peer[88]  lookupHopsSig:vector  ETV
vector 1470314  Network.dyn_peer[88]  lookupStabilitySig:vector  ETV
vector 1470315  Network.dyn_peer[88]  lookupTimeSig:vector  ETV
vector 1470286  Network.dyn_peer[79]  lookupHopsSig:vector  ETV
vector 1470287  Network.dyn_peer[79]  lookupStabilitySig:vector  ETV
vector 1470288  Network.dyn_peer[79]  lookupTimeSig:vector  ETV
vector 1470169  Network.dyn_peer[40]  lookupHopsSig:vector  ETV
vector 1470170  Network.dyn_peer[40]  lookupStabilitySig:vector  ETV
vector 1470171  Network.dyn_peer[40]  lookupTimeSig:vector  ETV
vector 1470409  Network.dyn_peer[120]  lookupHopsSig:vector  ETV
vector 1470410  Network.dyn_peer[120]  lookupStabilitySig:vector  ETV
vector 1470411  Network.dyn_peer[120]  lookupTimeSig:vector  ETV
vector 1470145  Network.dyn_peer[32]  lookupHopsSig:vector  ETV
vector 1470146  Network.dyn_peer[32]  lookupStabilitySig:vector  ETV
vector 1470147  Network.dyn_peer[32]  lookupTimeSig:vector  ETV
vector 1470418  Network.dyn_peer[123]  lookupHopsSig:vector  ETV
vector 1470419  Network.dyn_peer[123]  lookupStabilitySig:vector  ETV
vector 1470420  Network.dyn_peer[123]  lookupTimeSig:vector  ETV
vector 1470304  Network.dyn_peer[85]  lookupHopsSig:vector  ETV
vector 1470305  Network.dyn_peer[85]  lookupStabilitySig:vector  ETV
vector 1470306  Network.dyn_peer[85]  lookupTimeSig:vector  ETV
vector 1470394  Network.dyn_peer[115]  lookupHopsSig:vector  ETV
vector 1470395  Network.dyn_peer[115]  lookupStabilitySig:vector  ETV
vector 1470396  Network.dyn_peer[115]  lookupTimeSig:vector  ETV
vector 1470403  Network.dyn_peer[118]  lookupHopsSig:vector  ETV
vector 1470404  Network.dyn_peer[118]  lookupStabilitySig:vector  ETV
vector 1470405  Network.dyn_peer[118]  lookupTimeSig:vector  ETV
vector 1470259  Network.dyn_peer[70]  lookupHopsSig:vector  ETV
vector 1470260  Network.dyn_peer[70]  lookupStabilitySig:vector  ETV
vector 1470261  Network.dyn_peer[70]  lookupTimeSig:vector  ETV
vector 1470352  Network.dyn_peer[101]  lookupHopsSig:vector  ETV
vector 1470353  Network.dyn_peer[101]  lookupStabilitySig:vector  ETV
vector 1470354  Network.dyn_peer[101]  lookupTimeSig:vector  ETV
vector 1470184  Network.dyn_peer[45]  lookupHopsSig:vector  ETV
vector 1470185  Network.dyn_peer[45]  lookupStabilitySig:vector  ETV
vector 1470186  Network.dyn_peer[45]  lookupTimeSig:vector  ETV
vector 1470424  Network.dyn_peer[125]  lookupHopsSig:vector  ETV
vector 1470425  Network.dyn_peer[125]  lookupStabilitySig:vector  ETV
vector 1470426  Network.dyn_peer[125]  lookupTimeSig:vector  ETV
vector 1470190  Network.dyn_peer[47]  lookupHopsSig:vector  ETV
vector 1470191  Network.dyn_peer[47]  lookupStabilitySig:vector  ETV
vector 1470192  Network.dyn_peer[47]  lookupTimeSig:vector  ETV
vector 1470460  Network.dyn_peer[137]  lookupHopsSig:vector  ETV
vector 1470461  Network.dyn_peer[137]  lookupStabilitySig:vector  ETV
vector 1470462  Network.dyn_peer[137]  lookupTimeSig:vector  ETV
vector 1470373  Network.dyn_peer[108]  lookupHopsSig:vector  ETV
vector 1470374  Network.dyn_peer[108]  lookupStabilitySig:vector  ETV
vector 1470375  Network.dyn_peer[108]  lookupTimeSig:vector  ETV
vector 1470466  Network.dyn_peer[139]  lookupHopsSig:vector  ETV
vector 1470467  Network.dyn_peer[139]  lookupStabilitySig:vector  ETV
vector 1470468  Network.dyn_peer[139]  lookupTimeSig:vector  ETV
vector 1470319  Network.dyn_peer[90]  lookupHopsSig:vector  ETV
vector 1470320  Network.dyn_peer[90]  lookupStabilitySig:vector  ETV
vector 1470321  Network.dyn_peer[90]  lookupTimeSig:vector  ETV
vector 1470382  Network.dyn_peer[111]  lookupHopsSig:vector  ETV
vector 1470383  Network.dyn_peer[111]  lookupStabilitySig:vector  ETV
vector 1470384  Network.dyn_peer[111]  lookupTimeSig:vector  ETV
vector 1470445  Network.dyn_peer[132]  lookupHopsSig:vector  ETV
vector 1470446  Network.dyn_peer[132]  lookupStabilitySig:vector  ETV
vector 1470447  Network.dyn_peer[132]  lookupTimeSig:vector  ETV
vector 1470478  Network.dyn_peer[143]  lookupHopsSig:vector  ETV
vector 1470479  Network.dyn_peer[143]  lookupStabilitySig:vector  ETV
vector 1470480  Network.dyn_peer[143]  lookupTimeSig:vector  ETV
vector 1470361  Network.dyn_peer[104]  lookupHopsSig:vector  ETV
vector 1470362  Network.dyn_peer[104]  lookupStabilitySig:vector  ETV
vector 1470363  Network.dyn_peer[104]  lookupTimeSig:vector  ETV
vector 1470217  Network.dyn_peer[56]  lookupHopsSig:vector  ETV
vector 1470218  Network.dyn_peer[56]  lookupStabilitySig:vector  ETV
vector 1470219  Network.dyn_peer[56]  lookupTimeSig:vector  ETV
vector 1470307  Network.dyn_peer[86]  lookupHopsSig:vector  ETV
vector 1470308  Network.dyn_peer[86]  lookupStabilitySig:vector  ETV
vector 1470309  Network.dyn_peer[86]  lookupTimeSig:vector  ETV
vector 1470463  Network.dyn_peer[138]  lookupHopsSig:vector  ETV
vector 1470464  Network.dyn_peer[138]  lookupStabilitySig:vector  ETV
vector 1470465  Network.dyn_peer[138]  lookupTimeSig:vector  ETV
vector 1470436  Network.dyn_peer[129]  lookupHopsSig:vector  ETV
vector 1470437  Network.dyn_peer[129]  lookupStabilitySig:vector  ETV
vector 1470438  Network.dyn_peer[129]  lookupTimeSig:vector  ETV
vector 1470265  Network.dyn_peer[72]  lookupHopsSig:vector  ETV
vector 1470266  Network.dyn_peer[72]  lookupStabilitySig:vector  ETV
vector 1470267  Network.dyn_peer[72]  lookupTimeSig:vector  ETV
vector 1470457  Network.dyn_peer[136]  lookupHopsSig:vector  ETV
vector 1470458  Network.dyn_peer[136]  lookupStabilitySig:vector  ETV
vector 1470459  Network.dyn_peer[136]  lookupTimeSig:vector  ETV
vector 1470400  Network.dyn_peer[117]  lookupHopsSig:vector  ETV
vector 1470401  Network.dyn_peer[117]  lookupStabilitySig:vector  ETV
vector 1470402  Network.dyn_peer[117]  lookupTimeSig:vector  ETV
vector 1470520  Network.dyn_peer[157]  lookupHopsSig:vector  ETV
vector 1470521  Network.dyn_peer[157]  lookupStabilitySig:vector  ETV
vector 1470522  Network.dyn_peer[157]  lookupTimeSig:vector  ETV
vector 1470433  Network.dyn_peer[128]  lookupHopsSig:vector  ETV
vector 1470434  Network.dyn_peer[128]  lookupStabilitySig:vector  ETV
vector 1470435  Network.dyn_peer[128]  lookupTimeSig:vector  ETV
vector 1470556  Network.dyn_peer[169]  lookupHopsSig:vector  ETV
vector 1470557  Network.dyn_peer[169]  lookupStabilitySig:vector  ETV
vector 1470558  Network.dyn_peer[169]  lookupTimeSig:vector  ETV
vector 1470199  Network.dyn_peer[50]  lookupHopsSig:vector  ETV
vector 1470200  Network.dyn_peer[50]  lookupStabilitySig:vector  ETV
vector 1470201  Network.dyn_peer[50]  lookupTimeSig:vector  ETV
vector 1470481  Network.dyn_peer[144]  lookupHopsSig:vector  ETV
vector 1470482  Network.dyn_peer[144]  lookupStabilitySig:vector  ETV
vector 1470483  Network.dyn_peer[144]  lookupTimeSig:vector  ETV
vector 1470316  Network.dyn_peer[89]  lookupHopsSig:vector  ETV
vector 1470317  Network.dyn_peer[89]  lookupStabilitySig:vector  ETV
vector 1470318  Network.dyn_peer[89]  lookupTimeSig:vector  ETV
vector 1470415  Network.dyn_peer[122]  lookupHopsSig:vector  ETV
vector 1470416  Network.dyn_peer[122]  lookupStabilitySig:vector  ETV
vector 1470417  Network.dyn_peer[122]  lookupTimeSig:vector  ETV
vector 1470271  Network.dyn_peer[74]  lookupHopsSig:vector  ETV
vector 1470272  Network.dyn_peer[74]  lookupStabilitySig:vector  ETV
vector 1470273  Network.dyn_peer[74]  lookupTimeSig:vector  ETV
vector 1470571  Network.dyn_peer[174]  lookupHopsSig:vector  ETV
vector 1470572  Network.dyn_peer[174]  lookupStabilitySig:vector  ETV
vector 1470573  Network.dyn_peer[174]  lookupTimeSig:vector  ETV
vector 1470283  Network.dyn_peer[78]  lookupHopsSig:vector  ETV
vector 1470284  Network.dyn_peer[78]  lookupStabilitySig:vector  ETV
vector 1470285  Network.dyn_peer[78]  lookupTimeSig:vector  ETV
vector 1470553  Network.dyn_peer[168]  lookupHopsSig:vector  ETV
vector 1470554  Network.dyn_peer[168]  lookupStabilitySig:vector  ETV
vector 1470555  Network.dyn_peer[168]  lookupTimeSig:vector  ETV
vector 1470346  Network.dyn_peer[99]  lookupHopsSig:vector  ETV
vector 1470347  Network.dyn_peer[99]  lookupStabilitySig:vector  ETV
vector 1470348  Network.dyn_peer[99]  lookupTimeSig:vector  ETV
vector 1470586  Network.dyn_peer[179]  lookupHopsSig:vector  ETV
vector 1470587  Network.dyn_peer[179]  lookupStabilitySig:vector  ETV
vector 1470588  Network.dyn_peer[179]  lookupTimeSig:vector  ETV
vector 1470379  Network.dyn_peer[110]  lookupHopsSig:vector  ETV
vector 1470380  Network.dyn_peer[110]  lookupStabilitySig:vector  ETV
vector 1470381  Network.dyn_peer[110]  lookupTimeSig:vector  ETV
vector 1470172  Network.dyn_peer[41]  lookupHopsSig:vector  ETV
vector 1470173  Network.dyn_peer[41]  lookupStabilitySig:vector  ETV
vector 1470174  Network.dyn_peer[41]  lookupTimeSig:vector  ETV
vector 1470295  Network.dyn_peer[82]  lookupHopsSig:vector  ETV
vector 1470296  Network.dyn_peer[82]  lookupStabilitySig:vector  ETV
vector 1470297  Network.dyn_peer[82]  lookupTimeSig:vector  ETV
vector 1470508  Network.dyn_peer[153]  lookupHopsSig:vector  ETV
vector 1470509  Network.dyn_peer[153]  lookupStabilitySig:vector  ETV
vector 1470510  Network.dyn_peer[153]  lookupTimeSig:vector  ETV
vector 1470511  Network.dyn_peer[154]  lookupHopsSig:vector  ETV
vector 1470512  Network.dyn_peer[154]  lookupStabilitySig:vector  ETV
vector 1470513  Network.dyn_peer[154]  lookupTimeSig:vector  ETV
vector 1470397  Network.dyn_peer[116]  lookupHopsSig:vector  ETV
vector 1470398  Network.dyn_peer[116]  lookupStabilitySig:vector  ETV
vector 1470399  Network.dyn_peer[116]  lookupTimeSig:vector  ETV
vector 1470220  Network.dyn_peer[57]  lookupHopsSig:vector  ETV
vector 1470221  Network.dyn_peer[57]  lookupStabilitySig:vector  ETV
vector 1470222  Network.dyn_peer[57]  lookupTimeSig:vector  ETV
vector 1470529  Network.dyn_peer[160]  lookupHopsSig:vector  ETV
vector 1470530  Network.dyn_peer[160]  lookupStabilitySig:vector  ETV
vector 1470531  Network.dyn_peer[160]  lookupTimeSig:vector  ETV
vector 1470622  Network.dyn_peer[191]  lookupHopsSig:vector  ETV
vector 1470623  Network.dyn_peer[191]  lookupStabilitySig:vector  ETV
vector 1470624  Network.dyn_peer[191]  lookupTimeSig:vector  ETV
vector 1470427  Network.dyn_peer[126]  lookupHopsSig:vector  ETV
vector 1470428  Network.dyn_peer[126]  lookupStabilitySig:vector  ETV
vector 1470429  Network.dyn_peer[126]  lookupTimeSig:vector  ETV
vector 1470487  Network.dyn_peer[146]  lookupHopsSig:vector  ETV
vector 1470488  Network.dyn_peer[146]  lookupStabilitySig:vector  ETV
vector 1470489  Network.dyn_peer[146]  lookupTimeSig:vector  ETV
vector 1470523  Network.dyn_peer[158]  lookupHopsSig:vector  ETV
vector 1470524  Network.dyn_peer[158]  lookupStabilitySig:vector  ETV
vector 1470525  Network.dyn_peer[158]  lookupTimeSig:vector  ETV
vector 1470469  Network.dyn_peer[140]  lookupHopsSig:vector  ETV
vector 1470470  Network.dyn_peer[140]  lookupStabilitySig:vector  ETV
vector 1470471  Network.dyn_peer[140]  lookupTimeSig:vector  ETV
vector 1470649  Network.dyn_peer[200]  lookupHopsSig:vector  ETV
vector 1470650  Network.dyn_peer[200]  lookupStabilitySig:vector  ETV
vector 1470651  Network.dyn_peer[200]  lookupTimeSig:vector  ETV
vector 1470547  Network.dyn_peer[166]  lookupHopsSig:vector  ETV
vector 1470548  Network.dyn_peer[166]  lookupStabilitySig:vector  ETV
vector 1470549  Network.dyn_peer[166]  lookupTimeSig:vector  ETV
vector 1470550  Network.dyn_peer[167]  lookupHopsSig:vector  ETV
vector 1470551  Network.dyn_peer[167]  lookupStabilitySig:vector  ETV
vector 1470552  Network.dyn_peer[167]  lookupTimeSig:vector  ETV
vector 1470493  Network.dyn_peer[148]  lookupHopsSig:vector  ETV
vector 1470494  Network.dyn_peer[148]  lookupStabilitySig:vector  ETV
vector 1470495  Network.dyn_peer[148]  lookupTimeSig:vector  ETV
vector 1470676  Network.dyn_peer[209]  lookupHopsSig:vector  ETV
vector 1470677  Network.dyn_peer[209]  lookupStabilitySig:vector  ETV
vector 1470678  Network.dyn_peer[209]  lookupTimeSig:vector  ETV
vector 1470208  Network.dyn_peer[53]  lookupHopsSig:vector  ETV
vector 1470209  Network.dyn_peer[53]  lookupStabilitySig:vector  ETV
vector 1470210  Network.dyn_peer[53]  lookupTimeSig:vector  ETV
vector 1470718  Network.dyn_peer[223]  lookupHopsSig:vector  ETV
vector 1470719  Network.dyn_peer[223]  lookupStabilitySig:vector  ETV
vector 1470720  Network.dyn_peer[223]  lookupTimeSig:vector  ETV