file 233521 1369697040                                          
version 2
run Stability2-24-20130528-01:23:54-24168
attr configname Stability2
attr datetime 20130528-01:23:54
attr experiment Stability2
attr inifile omnetpp.ini
attr iterationvars $0=30
attr iterationvars2 "$0=30, $repetition=4"
attr measurement $0=30
attr network Network
attr processid 24168
attr repetition 4
attr replication #4
attr resultdir results
attr runnumber 24
attr seedset 24

vector 750024  Network.churner  inGoingSizeSig:vector  ETV
vector 720033  Network.dyn_peer[3]  lookupHopsSig:vector  ETV
vector 720034  Network.dyn_peer[3]  lookupStabilitySig:vector  ETV
vector 720035  Network.dyn_peer[3]  lookupTimeSig:vector  ETV
vector 720036  Network.dyn_peer[4]  lookupHopsSig:vector  ETV
vector 720037  Network.dyn_peer[4]  lookupStabilitySig:vector  ETV
vector 720038  Network.dyn_peer[4]  lookupTimeSig:vector  ETV
vector 720042  Network.dyn_peer[6]  lookupHopsSig:vector  ETV
vector 720043  Network.dyn_peer[6]  lookupStabilitySig:vector  ETV
vector 720044  Network.dyn_peer[6]  lookupTimeSig:vector  ETV
vector 720024  Network.dyn_peer[0]  lookupHopsSig:vector  ETV
vector 720025  Network.dyn_peer[0]  lookupStabilitySig:vector  ETV
vector 720026  Network.dyn_peer[0]  lookupTimeSig:vector  ETV
vector 720030  Network.dyn_peer[2]  lookupHopsSig:vector  ETV
vector 720031  Network.dyn_peer[2]  lookupStabilitySig:vector  ETV
vector 720032  Network.dyn_peer[2]  lookupTimeSig:vector  ETV
vector 720072  Network.dyn_peer[16]  lookupHopsSig:vector  ETV
vector 720073  Network.dyn_peer[16]  lookupStabilitySig:vector  ETV
vector 720074  Network.dyn_peer[16]  lookupTimeSig:vector  ETV
vector 720045  Network.dyn_peer[7]  lookupHopsSig:vector  ETV
vector 720046  Network.dyn_peer[7]  lookupStabilitySig:vector  ETV
vector 720047  Network.dyn_peer[7]  lookupTimeSig:vector  ETV
vector 720081  Network.dyn_peer[19]  lookupHopsSig:vector  ETV
vector 720082  Network.dyn_peer[19]  lookupStabilitySig:vector  ETV
vector 720083  Network.dyn_peer[19]  lookupTimeSig:vector  ETV
vector 720054  Network.dyn_peer[10]  lookupHopsSig:vector  ETV
vector 720055  Network.dyn_peer[10]  lookupStabilitySig:vector  ETV
vector 720056  Network.dyn_peer[10]  lookupTimeSig:vector  ETV
vector 720063  Network.dyn_peer[13]  lookupHopsSig:vector  ETV
vector 720064  Network.dyn_peer[13]  lookupStabilitySig:vector  ETV
vector 720065  Network.dyn_peer[13]  lookupTimeSig:vector  ETV
vector 720066  Network.dyn_peer[14]  lookupHopsSig:vector  ETV
vector 720067  Network.dyn_peer[14]  lookupStabilitySig:vector  ETV
vector 720068  Network.dyn_peer[14]  lookupTimeSig:vector  ETV
vector 720048  Network.dyn_peer[8]  lookupHopsSig:vector  ETV
vector 720049  Network.dyn_peer[8]  lookupStabilitySig:vector  ETV
vector 720050  Network.dyn_peer[8]  lookupTimeSig:vector  ETV
vector 720108  Network.dyn_peer[28]  lookupHopsSig:vector  ETV
vector 720109  Network.dyn_peer[28]  lookupStabilitySig:vector  ETV
vector 720110  Network.dyn_peer[28]  lookupTimeSig:vector  ETV
vector 720051  Network.dyn_peer[9]  lookupHopsSig:vector  ETV
vector 720052  Network.dyn_peer[9]  lookupStabilitySig:vector  ETV
vector 720053  Network.dyn_peer[9]  lookupTimeSig:vector  ETV
vector 720084  Network.dyn_peer[20]  lookupHopsSig:vector  ETV
vector 720085  Network.dyn_peer[20]  lookupStabilitySig:vector  ETV
vector 720086  Network.dyn_peer[20]  lookupTimeSig:vector  ETV
vector 720027  Network.dyn_peer[1]  lookupHopsSig:vector  ETV
vector 720028  Network.dyn_peer[1]  lookupStabilitySig:vector  ETV
vector 720029  Network.dyn_peer[1]  lookupTimeSig:vector  ETV
vector 720057  Network.dyn_peer[11]  lookupHopsSig:vector  ETV
vector 720058  Network.dyn_peer[11]  lookupStabilitySig:vector  ETV
vector 720059  Network.dyn_peer[11]  lookupTimeSig:vector  ETV
vector 720090  Network.dyn_peer[22]  lookupHopsSig:vector  ETV
vector 720091  Network.dyn_peer[22]  lookupStabilitySig:vector  ETV
vector 720092  Network.dyn_peer[22]  lookupTimeSig:vector  ETV
vector 720039  Network.dyn_peer[5]  lookupHopsSig:vector  ETV
vector 720040  Network.dyn_peer[5]  lookupStabilitySig:vector  ETV
vector 720041  Network.dyn_peer[5]  lookupTimeSig:vector  ETV
vector 720069  Network.dyn_peer[15]  lookupHopsSig:vector  ETV
vector 720070  Network.dyn_peer[15]  lookupStabilitySig:vector  ETV
vector 720071  Network.dyn_peer[15]  lookupTimeSig:vector  ETV
vector 720105  Network.dyn_peer[27]  lookupHopsSig:vector  ETV
vector 720106  Network.dyn_peer[27]  lookupStabilitySig:vector  ETV
vector 720107  Network.dyn_peer[27]  lookupTimeSig:vector  ETV
vector 720078  Network.dyn_peer[18]  lookupHopsSig:vector  ETV
vector 720079  Network.dyn_peer[18]  lookupStabilitySig:vector  ETV
vector 720080  Network.dyn_peer[18]  lookupTimeSig:vector  ETV
vector 720060  Network.dyn_peer[12]  lookupHopsSig:vector  ETV
vector 720061  Network.dyn_peer[12]  lookupStabilitySig:vector  ETV
vector 720062  Network.dyn_peer[12]  lookupTimeSig:vector  ETV
vector 720138  Network.dyn_peer[38]  lookupHopsSig:vector  ETV
vector 720139  Network.dyn_peer[38]  lookupStabilitySig:vector  ETV
vector 720140  Network.dyn_peer[38]  lookupTimeSig:vector  ETV
vector 720087  Network.dyn_peer[21]  lookupHopsSig:vector  ETV
vector 720088  Network.dyn_peer[21]  lookupStabilitySig:vector  ETV
vector 720089  Network.dyn_peer[21]  lookupTimeSig:vector  ETV
vector 720117  Network.dyn_peer[31]  lookupHopsSig:vector  ETV
vector 720118  Network.dyn_peer[31]  lookupStabilitySig:vector  ETV
vector 720119  Network.dyn_peer[31]  lookupTimeSig:vector  ETV
vector 720168  Network.dyn_peer[48]  lookupHopsSig:vector  ETV
vector 720169  Network.dyn_peer[48]  lookupStabilitySig:vector  ETV
vector 720170  Network.dyn_peer[48]  lookupTimeSig:vector  ETV
vector 720111  Network.dyn_peer[29]  lookupHopsSig:vector  ETV
vector 720112  Network.dyn_peer[29]  lookupStabilitySig:vector  ETV
vector 720113  Network.dyn_peer[29]  lookupTimeSig:vector  ETV
vector 720114  Network.dyn_peer[30]  lookupHopsSig:vector  ETV
vector 720115  Network.dyn_peer[30]  lookupStabilitySig:vector  ETV
vector 720116  Network.dyn_peer[30]  lookupTimeSig:vector  ETV
vector 720093  Network.dyn_peer[23]  lookupHopsSig:vector  ETV
vector 720094  Network.dyn_peer[23]  lookupStabilitySig:vector  ETV
vector 720095  Network.dyn_peer[23]  lookupTimeSig:vector  ETV
vector 720126  Network.dyn_peer[34]  lookupHopsSig:vector  ETV
vector 720127  Network.dyn_peer[34]  lookupStabilitySig:vector  ETV
vector 720128  Network.dyn_peer[34]  lookupTimeSig:vector  ETV
vector 720099  Network.dyn_peer[25]  lookupHopsSig:vector  ETV
vector 720100  Network.dyn_peer[25]  lookupStabilitySig:vector  ETV
vector 720101  Network.dyn_peer[25]  lookupTimeSig:vector  ETV
vector 720192  Network.dyn_peer[56]  lookupHopsSig:vector  ETV
vector 720193  Network.dyn_peer[56]  lookupStabilitySig:vector  ETV
vector 720194  Network.dyn_peer[56]  lookupTimeSig:vector  ETV
vector 720120  Network.dyn_peer[32]  lookupHopsSig:vector  ETV
vector 720121  Network.dyn_peer[32]  lookupStabilitySig:vector  ETV
vector 720122  Network.dyn_peer[32]  lookupTimeSig:vector  ETV
vector 720240  Network.dyn_peer[72]  lookupHopsSig:vector  ETV
vector 720241  Network.dyn_peer[72]  lookupStabilitySig:vector  ETV
vector 720242  Network.dyn_peer[72]  lookupTimeSig:vector  ETV
vector 720075  Network.dyn_peer[17]  lookupHopsSig:vector  ETV
vector 720076  Network.dyn_peer[17]  lookupStabilitySig:vector  ETV
vector 720077  Network.dyn_peer[17]  lookupTimeSig:vector  ETV
vector 720147  Network.dyn_peer[41]  lookupHopsSig:vector  ETV
vector 720148  Network.dyn_peer[41]  lookupStabilitySig:vector  ETV
vector 720149  Network.dyn_peer[41]  lookupTimeSig:vector  ETV
vector 720207  Network.dyn_peer[61]  lookupHopsSig:vector  ETV
vector 720208  Network.dyn_peer[61]  lookupStabilitySig:vector  ETV
vector 720209  Network.dyn_peer[61]  lookupTimeSig:vector  ETV
vector 720132  Network.dyn_peer[36]  lookupHopsSig:vector  ETV
vector 720133  Network.dyn_peer[36]  lookupStabilitySig:vector  ETV
vector 720134  Network.dyn_peer[36]  lookupTimeSig:vector  ETV
vector 720171  Network.dyn_peer[49]  lookupHopsSig:vector  ETV
vector 720172  Network.dyn_peer[49]  lookupStabilitySig:vector  ETV
vector 720173  Network.dyn_peer[49]  lookupTimeSig:vector  ETV
vector 720216  Network.dyn_peer[64]  lookupHopsSig:vector  ETV
vector 720217  Network.dyn_peer[64]  lookupStabilitySig:vector  ETV
vector 720218  Network.dyn_peer[64]  lookupTimeSig:vector  ETV
vector 720162  Network.dyn_peer[46]  lookupHopsSig:vector  ETV
vector 720163  Network.dyn_peer[46]  lookupStabilitySig:vector  ETV
vector 720164  Network.dyn_peer[46]  lookupTimeSig:vector  ETV
vector 720285  Network.dyn_peer[87]  lookupHopsSig:vector  ETV
vector 720286  Network.dyn_peer[87]  lookupStabilitySig:vector  ETV
vector 720287  Network.dyn_peer[87]  lookupTimeSig:vector  ETV
vector 720261  Network.dyn_peer[79]  lookupHopsSig:vector  ETV
vector 720262  Network.dyn_peer[79]  lookupStabilitySig:vector  ETV
vector 720263  Network.dyn_peer[79]  lookupTimeSig:vector  ETV
vector 720153  Network.dyn_peer[43]  lookupHopsSig:vector  ETV
vector 720154  Network.dyn_peer[43]  lookupStabilitySig:vector  ETV
vector 720155  Network.dyn_peer[43]  lookupTimeSig:vector  ETV
vector 720096  Network.dyn_peer[24]  lookupHopsSig:vector  ETV
vector 720097  Network.dyn_peer[24]  lookupStabilitySig:vector  ETV
vector 720098  Network.dyn_peer[24]  lookupTimeSig:vector  ETV
vector 720219  Network.dyn_peer[65]  lookupHopsSig:vector  ETV
vector 720220  Network.dyn_peer[65]  lookupStabilitySig:vector  ETV
vector 720221  Network.dyn_peer[65]  lookupTimeSig:vector  ETV
vector 720258  Network.dyn_peer[78]  lookupHopsSig:vector  ETV
vector 720259  Network.dyn_peer[78]  lookupStabilitySig:vector  ETV
vector 720260  Network.dyn_peer[78]  lookupTimeSig:vector  ETV
vector 720234  Network.dyn_peer[70]  lookupHopsSig:vector  ETV
vector 720235  Network.dyn_peer[70]  lookupStabilitySig:vector  ETV
vector 720236  Network.dyn_peer[70]  lookupTimeSig:vector  ETV
vector 720324  Network.dyn_peer[100]  lookupHopsSig:vector  ETV
vector 720325  Network.dyn_peer[100]  lookupStabilitySig:vector  ETV
vector 720326  Network.dyn_peer[100]  lookupTimeSig:vector  ETV
vector 720300  Network.dyn_peer[92]  lookupHopsSig:vector  ETV
vector 720301  Network.dyn_peer[92]  lookupStabilitySig:vector  ETV
vector 720302  Network.dyn_peer[92]  lookupTimeSig:vector  ETV
vector 720123  Network.dyn_peer[33]  lookupHopsSig:vector  ETV
vector 720124  Network.dyn_peer[33]  lookupStabilitySig:vector  ETV
vector 720125  Network.dyn_peer[33]  lookupTimeSig:vector  ETV
vector 720183  Network.dyn_peer[53]  lookupHopsSig:vector  ETV
vector 720184  Network.dyn_peer[53]  lookupStabilitySig:vector  ETV
vector 720185  Network.dyn_peer[53]  lookupTimeSig:vector  ETV
vector 720156  Network.dyn_peer[44]  lookupHopsSig:vector  ETV
vector 720157  Network.dyn_peer[44]  lookupStabilitySig:vector  ETV
vector 720158  Network.dyn_peer[44]  lookupTimeSig:vector  ETV
vector 720276  Network.dyn_peer[84]  lookupHopsSig:vector  ETV
vector 720277  Network.dyn_peer[84]  lookupStabilitySig:vector  ETV
vector 720278  Network.dyn_peer[84]  lookupTimeSig:vector  ETV
vector 720249  Network.dyn_peer[75]  lookupHopsSig:vector  ETV
vector 720250  Network.dyn_peer[75]  lookupStabilitySig:vector  ETV
vector 720251  Network.dyn_peer[75]  lookupTimeSig:vector  ETV
vector 720195  Network.dyn_peer[57]  lookupHopsSig:vector  ETV
vector 720196  Network.dyn_peer[57]  lookupStabilitySig:vector  ETV
vector 720197  Network.dyn_peer[57]  lookupTimeSig:vector  ETV
vector 720288  Network.dyn_peer[88]  lookupHopsSig:vector  ETV
vector 720289  Network.dyn_peer[88]  lookupStabilitySig:vector  ETV
vector 720290  Network.dyn_peer[88]  lookupTimeSig:vector  ETV
vector 720291  Network.dyn_peer[89]  lookupHopsSig:vector  ETV
vector 720292  Network.dyn_peer[89]  lookupStabilitySig:vector  ETV
vector 720293  Network.dyn_peer[89]  lookupTimeSig:vector  ETV
vector 720174  Network.dyn_peer[50]  lookupHopsSig:vector  ETV
vector 720175  Network.dyn_peer[50]  lookupStabilitySig:vector  ETV
vector 720176  Network.dyn_peer[50]  lookupTimeSig:vector  ETV
vector 720180  Network.dyn_peer[52]  lookupHopsSig:vector  ETV
vector 720181  Network.dyn_peer[52]  lookupStabilitySig:vector  ETV
vector 720182  Network.dyn_peer[52]  lookupTimeSig:vector  ETV
vector 720243  Network.dyn_peer[73]  lookupHopsSig:vector  ETV
vector 720244  Network.dyn_peer[73]  lookupStabilitySig:vector  ETV
vector 720245  Network.dyn_peer[73]  lookupTimeSig:vector  ETV
vector 720393  Network.dyn_peer[123]  lookupHopsSig:vector  ETV
vector 720394  Network.dyn_peer[123]  lookupStabilitySig:vector  ETV
vector 720395  Network.dyn_peer[123]  lookupTimeSig:vector  ETV
vector 720165  Network.dyn_peer[47]  lookupHopsSig:vector  ETV
vector 720166  Network.dyn_peer[47]  lookupStabilitySig:vector  ETV
vector 720167  Network.dyn_peer[47]  lookupTimeSig:vector  ETV
vector 720405  Network.dyn_peer[127]  lookupHopsSig:vector  ETV
vector 720406  Network.dyn_peer[127]  lookupStabilitySig:vector  ETV
vector 720407  Network.dyn_peer[127]  lookupTimeSig:vector  ETV
vector 720318  Network.dyn_peer[98]  lookupHopsSig:vector  ETV
vector 720319  Network.dyn_peer[98]  lookupStabilitySig:vector  ETV
vector 720320  Network.dyn_peer[98]  lookupTimeSig:vector  ETV
vector 720351  Network.dyn_peer[109]  lookupHopsSig:vector  ETV
vector 720352  Network.dyn_peer[109]  lookupStabilitySig:vector  ETV
vector 720353  Network.dyn_peer[109]  lookupTimeSig:vector  ETV
vector 720177  Network.dyn_peer[51]  lookupHopsSig:vector  ETV
vector 720178  Network.dyn_peer[51]  lookupStabilitySig:vector  ETV
vector 720179  Network.dyn_peer[51]  lookupTimeSig:vector  ETV
vector 720210  Network.dyn_peer[62]  lookupHopsSig:vector  ETV
vector 720211  Network.dyn_peer[62]  lookupStabilitySig:vector  ETV
vector 720212  Network.dyn_peer[62]  lookupTimeSig:vector  ETV
vector 720270  Network.dyn_peer[82]  lookupHopsSig:vector  ETV
vector 720271  Network.dyn_peer[82]  lookupStabilitySig:vector  ETV
vector 720272  Network.dyn_peer[82]  lookupTimeSig:vector  ETV
vector 720129  Network.dyn_peer[35]  lookupHopsSig:vector  ETV
vector 720130  Network.dyn_peer[35]  lookupStabilitySig:vector  ETV
vector 720131  Network.dyn_peer[35]  lookupTimeSig:vector  ETV
vector 720159  Network.dyn_peer[45]  lookupHopsSig:vector  ETV
vector 720160  Network.dyn_peer[45]  lookupStabilitySig:vector  ETV
vector 720161  Network.dyn_peer[45]  lookupTimeSig:vector  ETV
vector 720189  Network.dyn_peer[55]  lookupHopsSig:vector  ETV
vector 720190  Network.dyn_peer[55]  lookupStabilitySig:vector  ETV
vector 720191  Network.dyn_peer[55]  lookupTimeSig:vector  ETV
vector 720339  Network.dyn_peer[105]  lookupHopsSig:vector  ETV
vector 720340  Network.dyn_peer[105]  lookupStabilitySig:vector  ETV
vector 720341  Network.dyn_peer[105]  lookupTimeSig:vector  ETV
vector 720282  Network.dyn_peer[86]  lookupHopsSig:vector  ETV
vector 720283  Network.dyn_peer[86]  lookupStabilitySig:vector  ETV
vector 720284  Network.dyn_peer[86]  lookupTimeSig:vector  ETV
vector 720135  Network.dyn_peer[37]  lookupHopsSig:vector  ETV
vector 720136  Network.dyn_peer[37]  lookupStabilitySig:vector  ETV
vector 720137  Network.dyn_peer[37]  lookupTimeSig:vector  ETV
vector 720375  Network.dyn_peer[117]  lookupHopsSig:vector  ETV
vector 720376  Network.dyn_peer[117]  lookupStabilitySig:vector  ETV
vector 720377  Network.dyn_peer[117]  lookupTimeSig:vector  ETV
vector 720321  Network.dyn_peer[99]  lookupHopsSig:vector  ETV
vector 720322  Network.dyn_peer[99]  lookupStabilitySig:vector  ETV
vector 720323  Network.dyn_peer[99]  lookupTimeSig:vector  ETV
vector 720279  Network.dyn_peer[85]  lookupHopsSig:vector  ETV
vector 720280  Network.dyn_peer[85]  lookupStabilitySig:vector  ETV
vector 720281  Network.dyn_peer[85]  lookupTimeSig:vector  ETV
vector 720312  Network.dyn_peer[96]  lookupHopsSig:vector  ETV
vector 720313  Network.dyn_peer[96]  lookupStabilitySig:vector  ETV
vector 720314  Network.dyn_peer[96]  lookupTimeSig:vector  ETV
vector 720198  Network.dyn_peer[58]  lookupHopsSig:vector  ETV
vector 720199  Network.dyn_peer[58]  lookupStabilitySig:vector  ETV
vector 720200  Network.dyn_peer[58]  lookupTimeSig:vector  ETV
vector 720408  Network.dyn_peer[128]  lookupHopsSig:vector  ETV
vector 720409  Network.dyn_peer[128]  lookupStabilitySig:vector  ETV
vector 720410  Network.dyn_peer[128]  lookupTimeSig:vector  ETV
vector 720381  Network.dyn_peer[119]  lookupHopsSig:vector  ETV
vector 720382  Network.dyn_peer[119]  lookupStabilitySig:vector  ETV
vector 720383  Network.dyn_peer[119]  lookupTimeSig:vector  ETV
vector 720204  Network.dyn_peer[60]  lookupHopsSig:vector  ETV
vector 720205  Network.dyn_peer[60]  lookupStabilitySig:vector  ETV
vector 720206  Network.dyn_peer[60]  lookupTimeSig:vector  ETV
vector 720264  Network.dyn_peer[80]  lookupHopsSig:vector  ETV
vector 720265  Network.dyn_peer[80]  lookupStabilitySig:vector  ETV
vector 720266  Network.dyn_peer[80]  lookupTimeSig:vector  ETV
vector 720294  Network.dyn_peer[90]  lookupHopsSig:vector  ETV
vector 720295  Network.dyn_peer[90]  lookupStabilitySig:vector  ETV
vector 720296  Network.dyn_peer[90]  lookupTimeSig:vector  ETV
vector 720237  Network.dyn_peer[71]  lookupHopsSig:vector  ETV
vector 720238  Network.dyn_peer[71]  lookupStabilitySig:vector  ETV
vector 720239  Network.dyn_peer[71]  lookupTimeSig:vector  ETV
vector 720213  Network.dyn_peer[63]  lookupHopsSig:vector  ETV
vector 720214  Network.dyn_peer[63]  lookupStabilitySig:vector  ETV
vector 720215  Network.dyn_peer[63]  lookupTimeSig:vector  ETV
vector 720333  Network.dyn_peer[103]  lookupHopsSig:vector  ETV
vector 720334  Network.dyn_peer[103]  lookupStabilitySig:vector  ETV
vector 720335  Network.dyn_peer[103]  lookupTimeSig:vector  ETV
vector 720426  Network.dyn_peer[134]  lookupHopsSig:vector  ETV
vector 720427  Network.dyn_peer[134]  lookupStabilitySig:vector  ETV
vector 720428  Network.dyn_peer[134]  lookupTimeSig:vector  ETV
vector 720399  Network.dyn_peer[125]  lookupHopsSig:vector  ETV
vector 720400  Network.dyn_peer[125]  lookupStabilitySig:vector  ETV
vector 720401  Network.dyn_peer[125]  lookupTimeSig:vector  ETV
vector 720372  Network.dyn_peer[116]  lookupHopsSig:vector  ETV
vector 720373  Network.dyn_peer[116]  lookupStabilitySig:vector  ETV
vector 720374  Network.dyn_peer[116]  lookupTimeSig:vector  ETV
vector 720228  Network.dyn_peer[68]  lookupHopsSig:vector  ETV
vector 720229  Network.dyn_peer[68]  lookupStabilitySig:vector  ETV
vector 720230  Network.dyn_peer[68]  lookupTimeSig:vector  ETV
vector 720141  Network.dyn_peer[39]  lookupHopsSig:vector  ETV
vector 720142  Network.dyn_peer[39]  lookupStabilitySig:vector  ETV
vector 720143  Network.dyn_peer[39]  lookupTimeSig:vector  ETV
vector 720231  Network.dyn_peer[69]  lookupHopsSig:vector  ETV
vector 720232  Network.dyn_peer[69]  lookupStabilitySig:vector  ETV
vector 720233  Network.dyn_peer[69]  lookupTimeSig:vector  ETV
vector 720144  Network.dyn_peer[40]  lookupHopsSig:vector  ETV
vector 720145  Network.dyn_peer[40]  lookupStabilitySig:vector  ETV
vector 720146  Network.dyn_peer[40]  lookupTimeSig:vector  ETV
vector 720297  Network.dyn_peer[91]  lookupHopsSig:vector  ETV
vector 720298  Network.dyn_peer[91]  lookupStabilitySig:vector  ETV
vector 720299  Network.dyn_peer[91]  lookupTimeSig:vector  ETV
vector 720420  Network.dyn_peer[132]  lookupHopsSig:vector  ETV
vector 720421  Network.dyn_peer[132]  lookupStabilitySig:vector  ETV
vector 720422  Network.dyn_peer[132]  lookupTimeSig:vector  ETV
vector 720453  Network.dyn_peer[143]  lookupHopsSig:vector  ETV
vector 720454  Network.dyn_peer[143]  lookupStabilitySig:vector  ETV
vector 720455  Network.dyn_peer[143]  lookupTimeSig:vector  ETV
vector 720369  Network.dyn_peer[115]  lookupHopsSig:vector  ETV
vector 720370  Network.dyn_peer[115]  lookupStabilitySig:vector  ETV
vector 720371  Network.dyn_peer[115]  lookupTimeSig:vector  ETV
vector 720222  Network.dyn_peer[66]  lookupHopsSig:vector  ETV
vector 720223  Network.dyn_peer[66]  lookupStabilitySig:vector  ETV
vector 720224  Network.dyn_peer[66]  lookupTimeSig:vector  ETV
vector 720492  Network.dyn_peer[156]  lookupHopsSig:vector  ETV
vector 720493  Network.dyn_peer[156]  lookupStabilitySig:vector  ETV
vector 720494  Network.dyn_peer[156]  lookupTimeSig:vector  ETV
vector 720348  Network.dyn_peer[108]  lookupHopsSig:vector  ETV
vector 720349  Network.dyn_peer[108]  lookupStabilitySig:vector  ETV
vector 720350  Network.dyn_peer[108]  lookupTimeSig:vector  ETV
vector 720411  Network.dyn_peer[129]  lookupHopsSig:vector  ETV
vector 720412  Network.dyn_peer[129]  lookupStabilitySig:vector  ETV
vector 720413  Network.dyn_peer[129]  lookupTimeSig:vector  ETV
vector 720444  Network.dyn_peer[140]  lookupHopsSig:vector  ETV
vector 720445  Network.dyn_peer[140]  lookupStabilitySig:vector  ETV
vector 720446  Network.dyn_peer[140]  lookupTimeSig:vector  ETV
vector 720267  Network.dyn_peer[81]  lookupHopsSig:vector  ETV
vector 720268  Network.dyn_peer[81]  lookupStabilitySig:vector  ETV
vector 720269  Network.dyn_peer[81]  lookupTimeSig:vector  ETV
vector 720327  Network.dyn_peer[101]  lookupHopsSig:vector  ETV
vector 720328  Network.dyn_peer[101]  lookupStabilitySig:vector  ETV
vector 720329  Network.dyn_peer[101]  lookupTimeSig:vector  ETV
vector 720447  Network.dyn_peer[141]  lookupHopsSig:vector  ETV
vector 720448  Network.dyn_peer[141]  lookupStabilitySig:vector  ETV
vector 720449  Network.dyn_peer[141]  lookupTimeSig:vector  ETV
vector 720360  Network.dyn_peer[112]  lookupHopsSig:vector  ETV
vector 720361  Network.dyn_peer[112]  lookupStabilitySig:vector  ETV
vector 720362  Network.dyn_peer[112]  lookupTimeSig:vector  ETV
vector 720306  Network.dyn_peer[94]  lookupHopsSig:vector  ETV
vector 720307  Network.dyn_peer[94]  lookupStabilitySig:vector  ETV
vector 720308  Network.dyn_peer[94]  lookupTimeSig:vector  ETV
vector 720456  Network.dyn_peer[144]  lookupHopsSig:vector  ETV
vector 720457  Network.dyn_peer[144]  lookupStabilitySig:vector  ETV
vector 720458  Network.dyn_peer[144]  lookupTimeSig:vector  ETV
vector 720402  Network.dyn_peer[126]  lookupHopsSig:vector  ETV
vector 720403  Network.dyn_peer[126]  lookupStabilitySig:vector  ETV
vector 720404  Network.dyn_peer[126]  lookupTimeSig:vector  ETV
vector 720345  Network.dyn_peer[107]  lookupHopsSig:vector  ETV
vector 720346  Network.dyn_peer[107]  lookupStabilitySig:vector  ETV
vector 720347  Network.dyn_peer[107]  lookupTimeSig:vector  ETV
vector 720330  Network.dyn_peer[102]  lookupHopsSig:vector  ETV
vector 720331  Network.dyn_peer[102]  lookupStabilitySig:vector  ETV
vector 720332  Network.dyn_peer[102]  lookupTimeSig:vector  ETV
vector 720303  Network.dyn_peer[93]  lookupHopsSig:vector  ETV
vector 720304  Network.dyn_peer[93]  lookupStabilitySig:vector  ETV
vector 720305  Network.dyn_peer[93]  lookupTimeSig:vector  ETV
vector 720513  Network.dyn_peer[163]  lookupHopsSig:vector  ETV
vector 720514  Network.dyn_peer[163]  lookupStabilitySig:vector  ETV
vector 720515  Network.dyn_peer[163]  lookupTimeSig:vector  ETV
vector 720429  Network.dyn_peer[135]  lookupHopsSig:vector  ETV
vector 720430  Network.dyn_peer[135]  lookupStabilitySig:vector  ETV
vector 720431  Network.dyn_peer[135]  lookupTimeSig:vector  ETV
vector 720252  Network.dyn_peer[76]  lookupHopsSig:vector  ETV
vector 720253  Network.dyn_peer[76]  lookupStabilitySig:vector  ETV
vector 720254  Network.dyn_peer[76]  lookupTimeSig:vector  ETV
vector 720315  Network.dyn_peer[97]  lookupHopsSig:vector  ETV
vector 720316  Network.dyn_peer[97]  lookupStabilitySig:vector  ETV
vector 720317  Network.dyn_peer[97]  lookupTimeSig:vector  ETV
vector 720498  Network.dyn_peer[158]  lookupHopsSig:vector  ETV
vector 720499  Network.dyn_peer[158]  lookupStabilitySig:vector  ETV
vector 720500  Network.dyn_peer[158]  lookupTimeSig:vector  ETV
vector 720354  Network.dyn_peer[110]  lookupHopsSig:vector  ETV
vector 720355  Network.dyn_peer[110]  lookupStabilitySig:vector  ETV
vector 720356  Network.dyn_peer[110]  lookupTimeSig:vector  ETV
vector 720384  Network.dyn_peer[120]  lookupHopsSig:vector  ETV
vector 720385  Network.dyn_peer[120]  lookupStabilitySig:vector  ETV
vector 720386  Network.dyn_peer[120]  lookupTimeSig:vector  ETV
vector 720387  Network.dyn_peer[121]  lookupHopsSig:vector  ETV
vector 720388  Network.dyn_peer[121]  lookupStabilitySig:vector  ETV
vector 720389  Network.dyn_peer[121]  lookupTimeSig:vector  ETV
vector 720417  Network.dyn_peer[131]  lookupHopsSig:vector  ETV
vector 720418  Network.dyn_peer[131]  lookupStabilitySig:vector  ETV
vector 720419  Network.dyn_peer[131]  lookupTimeSig:vector  ETV
vector 720255  Network.dyn_peer[77]  lookupHopsSig:vector  ETV
vector 720256  Network.dyn_peer[77]  lookupStabilitySig:vector  ETV
vector 720257  Network.dyn_peer[77]  lookupTimeSig:vector  ETV
vector 720495  Network.dyn_peer[157]  lookupHopsSig:vector  ETV
vector 720496  Network.dyn_peer[157]  lookupStabilitySig:vector  ETV
vector 720497  Network.dyn_peer[157]  lookupTimeSig:vector  ETV
vector 720201  Network.dyn_peer[59]  lookupHopsSig:vector  ETV
vector 720202  Network.dyn_peer[59]  lookupStabilitySig:vector  ETV
vector 720203  Network.dyn_peer[59]  lookupTimeSig:vector  ETV
vector 720414  Network.dyn_peer[130]  lookupHopsSig:vector  ETV
vector 720415  Network.dyn_peer[130]  lookupStabilitySig:vector  ETV
vector 720416  Network.dyn_peer[130]  lookupTimeSig:vector  ETV
vector 720474  Network.dyn_peer[150]  lookupHopsSig:vector  ETV
vector 720475  Network.dyn_peer[150]  lookupStabilitySig:vector  ETV
vector 720476  Network.dyn_peer[150]  lookupTimeSig:vector  ETV
vector 720537  Network.dyn_peer[171]  lookupHopsSig:vector  ETV
vector 720538  Network.dyn_peer[171]  lookupStabilitySig:vector  ETV
vector 720539  Network.dyn_peer[171]  lookupTimeSig:vector  ETV
vector 720528  Network.dyn_peer[168]  lookupHopsSig:vector  ETV
vector 720529  Network.dyn_peer[168]  lookupStabilitySig:vector  ETV
vector 720530  Network.dyn_peer[168]  lookupTimeSig:vector  ETV
vector 720501  Network.dyn_peer[159]  lookupHopsSig:vector  ETV
vector 720502  Network.dyn_peer[159]  lookupStabilitySig:vector  ETV
vector 720503  Network.dyn_peer[159]  lookupTimeSig:vector  ETV
vector 720357  Network.dyn_peer[111]  lookupHopsSig:vector  ETV
vector 720358  Network.dyn_peer[111]  lookupStabilitySig:vector  ETV
vector 720359  Network.dyn_peer[111]  lookupTimeSig:vector  ETV
vector 720507  Network.dyn_peer[161]  lookupHopsSig:vector  ETV
vector 720508  Network.dyn_peer[161]  lookupStabilitySig:vector  ETV
vector 720509  Network.dyn_peer[161]  lookupTimeSig:vector  ETV
vector 720540  Network.dyn_peer[172]  lookupHopsSig:vector  ETV
vector 720541  Network.dyn_peer[172]  lookupStabilitySig:vector  ETV
vector 720542  Network.dyn_peer[172]  lookupTimeSig:vector  ETV
vector 720336  Network.dyn_peer[104]  lookupHopsSig:vector  ETV
vector 720337  Network.dyn_peer[104]  lookupStabilitySig:vector  ETV
vector 720338  Network.dyn_peer[104]  lookupTimeSig:vector  ETV
vector 720606  Network.dyn_peer[194]  lookupHopsSig:vector  ETV
vector 720607  Network.dyn_peer[194]  lookupStabilitySig:vector  ETV
vector 720608  Network.dyn_peer[194]  lookupTimeSig:vector  ETV
vector 720636  Network.dyn_peer[204]  lookupHopsSig:vector  ETV
vector 720637  Network.dyn_peer[204]  lookupStabilitySig:vector  ETV
vector 720638  Network.dyn_peer[204]  lookupTimeSig:vector  ETV
vector 720378  Network.dyn_peer[118]  lookupHopsSig:vector  ETV
vector 720379  Network.dyn_peer[118]  lookupStabilitySig:vector  ETV
vector 720380  Network.dyn_peer[118]  lookupTimeSig:vector  ETV
vector 720621  Network.dyn_peer[199]  lookupHopsSig:vector  ETV
vector 720622  Network.dyn_peer[199]  lookupStabilitySig:vector  ETV
vector 720623  Network.dyn_peer[199]  lookupTimeSig:vector  ETV
vector 720459  Network.dyn_peer[145]  lookupHopsSig:vector  ETV
vector 720460  Network.dyn_peer[145]  lookupStabilitySig:vector  ETV
vector 720461  Network.dyn_peer[145]  lookupTimeSig:vector  ETV
vector 720435  Network.dyn_peer[137]  lookupHopsSig:vector  ETV
vector 720436  Network.dyn_peer[137]  lookupStabilitySig:vector  ETV
vector 720437  Network.dyn_peer[137]  lookupTimeSig:vector  ETV
vector 720681  Network.dyn_peer[219]  lookupHopsSig:vector  ETV
vector 720682  Network.dyn_peer[219]  lookupStabilitySig:vector  ETV
vector 720683  Network.dyn_peer[219]  lookupTimeSig:vector  ETV
vector 720711  Network.dyn_peer[229]  lookupHopsSig:vector  ETV
vector 720712  Network.dyn_peer[229]  lookupStabilitySig:vector  ETV
vector 720713  Network.dyn_peer[229]  lookupTimeSig:vector  ETV
vector 720150  Network.dyn_peer[42]  lookupHopsSig:vector  ETV
vector 720151  Network.dyn_peer[42]  lookupStabilitySig:vector  ETV
vector 720152  Network.dyn_peer[42]  lookupTimeSig:vector  ETV
vector 720273  Network.dyn_peer[83]  lookupHopsSig:vector  ETV
vector 720274  Network.dyn_peer[83]  lookupStabilitySig:vector  ETV
vector 720275  Network.dyn_peer[83]  lookupTimeSig:vector  ETV
vector 720633  Network.dyn_peer[203]  lookupHopsSig:vector  ETV
vector 720634  Network.dyn_peer[203]  lookupStabilitySig:vector  ETV
vector 720635  Network.dyn_peer[203]  lookupTimeSig:vector  ETV
vector 720366  Network.dyn_peer[114]  lookupHopsSig:vector  ETV
vector 720367  Network.dyn_peer[114]  lookupStabilitySig:vector  ETV
vector 720368  Network.dyn_peer[114]  lookupTimeSig:vector  ETV
vector 720666  Network.dyn_peer[214]  lookupHopsSig:vector  ETV
vector 720667  Network.dyn_peer[214]  lookupStabilitySig:vector  ETV
vector 720668  Network.dyn_peer[214]  lookupTimeSig:vector  ETV
vector 720102  Network.dyn_peer[26]  lookupHopsSig:vector  ETV
vector 720103  Network.dyn_peer[26]  lookupStabilitySig:vector  ETV
vector 720104  Network.dyn_peer[26]  lookupTimeSig:vector  ETV
vector 720522  Network.dyn_peer[166]  lookupHopsSig:vector  ETV
vector 720523  Network.dyn_peer[166]  lookupStabilitySig:vector  ETV
vector 720524  Network.dyn_peer[166]  lookupTimeSig:vector  ETV