file 231037 1369933126                                          
version 2
run Stability2-26-20130528-01:24:07-24168
attr configname Stability2
attr datetime 20130528-01:24:07
attr experiment Stability2
attr inifile omnetpp.ini
attr iterationvars $0=30
attr iterationvars2 "$0=30, $repetition=6"
attr measurement $0=30
attr network Network
attr processid 24168
attr repetition 6
attr replication #6
attr resultdir results
attr runnumber 26
attr seedset 26
vector 810026  Network.churner  inGoingSizeSig:vector  ETV
810026	224686 6351 11 6424 20 23 301 0 265 41601 7509451
vector 780026  Network.dyn_peer[0]  lookupHopsSig:vector  ETV
780026	59221 202 18 17990 20.01 27.386135317929 7 0 24 63 1195
vector 780027  Network.dyn_peer[0]  lookupStabilitySig:vector  ETV
780027	59423 265 18 17990 20.01 27.386135317929 7 0 1 5.0400945208967 4.3605637288466
vector 780028  Network.dyn_peer[0]  lookupTimeSig:vector  ETV
780028	59688 212 18 17990 20.01 27.386135317929 7 0 2.5 6.9 13.27
vector 780035  Network.dyn_peer[3]  lookupHopsSig:vector  ETV
780035	61609 220 32 18502 20.04 27.696635883563 8 0 28 68 1212
vector 780036  Network.dyn_peer[3]  lookupStabilitySig:vector  ETV
780036	61829 323 32 18502 20.04 27.696635883563 8 0.19047617912292 1 6.4639179892838 5.6932923223643
vector 780037  Network.dyn_peer[3]  lookupTimeSig:vector  ETV
780037	62152 230 32 18502 20.04 27.696635883563 8 0 2.9 7.5 13.55
vector 780029  Network.dyn_peer[1]  lookupHopsSig:vector  ETV
780029	59900 161 60 18411 20.12 27.641379037958 6 1 32 71 1535
vector 780030  Network.dyn_peer[1]  lookupStabilitySig:vector  ETV
780030	60061 249 60 18411 20.12 27.641379037958 6 0.083333313465118 0.89999999850988 4.0739141479135 3.2245841633584
vector 780031  Network.dyn_peer[1]  lookupTimeSig:vector  ETV
780031	60310 170 60 18411 20.12 27.641379037958 6 0.1 3.3 7.6 16.8
vector 780062  Network.dyn_peer[12]  lookupHopsSig:vector  ETV
780062	68373 187 70 13178 20.13 25.152398567148 7 0 20 38 496
vector 780063  Network.dyn_peer[12]  lookupStabilitySig:vector  ETV
780063	68560 255 70 13178 20.13 25.152398567148 7 0.39393937587738 1 5.7689393684268 5.0061257194614
vector 780064  Network.dyn_peer[12]  lookupTimeSig:vector  ETV
780064	68815 198 70 13178 20.13 25.152398567148 7 0 2.1 4.4 5.78
vector 780065  Network.dyn_peer[13]  lookupHopsSig:vector  ETV
780065	69013 190 78 15526 20.14 26.115441574467 7 0 12 44 416
vector 780066  Network.dyn_peer[13]  lookupStabilitySig:vector  ETV
780066	69203 277 78 15526 20.14 26.115441574467 7 0.39999997615814 1 5.4320352897048 4.4920702421485
vector 780067  Network.dyn_peer[13]  lookupTimeSig:vector  ETV
780067	69480 196 78 15526 20.14 26.115441574467 7 0 1.3 5 5.1
vector 780056  Network.dyn_peer[10]  lookupHopsSig:vector  ETV
780056	66803 247 108 12228 20.21 24.80978104252 9 1 9 33 191
vector 780057  Network.dyn_peer[10]  lookupStabilitySig:vector  ETV
780057	67050 370 108 12228 20.21 24.80978104252 9 0.39999997615814 0.91666666418314 7.081066891551 5.8058431519257
vector 780058  Network.dyn_peer[10]  lookupTimeSig:vector  ETV
780058	67420 263 108 12228 20.21 24.80978104252 9 0.1 1 4.1 2.63
vector 780086  Network.dyn_peer[20]  lookupHopsSig:vector  ETV
780086	73522 202 114 16015 20.21 26.343573694907 7 0 27 55 951
vector 780087  Network.dyn_peer[20]  lookupStabilitySig:vector  ETV
780087	73724 289 114 16015 20.21 26.343573694907 7 0.16666668653488 1 5.1352672143839 4.3078306520378
vector 780088  Network.dyn_peer[20]  lookupTimeSig:vector  ETV
780088	74013 212 114 16015 20.21 26.343573694907 7 0 2.8 6.1 10.67
vector 780038  Network.dyn_peer[4]  lookupHopsSig:vector  ETV
780038	62382 342 141 19923 20.25 28.86415058789 12 2 15 74 688
vector 780039  Network.dyn_peer[4]  lookupStabilitySig:vector  ETV
780039	62724 504 141 19923 20.25 28.86415058789 12 0 0.99009901005775 9.624291758053 8.5806832265191
vector 780040  Network.dyn_peer[4]  lookupTimeSig:vector  ETV
780040	63228 362 141 19923 20.25 28.86415058789 12 0.2 1.6 8.5 8.43
vector 780071  Network.dyn_peer[15]  lookupHopsSig:vector  ETV
780071	70047 251 150 14840 20.26 25.811350681929 9 1 14 46 380
vector 780072  Network.dyn_peer[15]  lookupStabilitySig:vector  ETV
780072	70298 384 150 14840 20.26 25.811350681929 9 0.19999998807907 0.9411764703691 6.8636966757476 5.6980911145402
vector 780073  Network.dyn_peer[15]  lookupTimeSig:vector  ETV
780073	70682 268 150 14840 20.26 25.811350681929 9 0.1 1.5 5.4 4.78
vector 780044  Network.dyn_peer[6]  lookupHopsSig:vector  ETV
780044	63991 192 159 18944 20.27 27.998447471378 7 2 32 73 1505
vector 780045  Network.dyn_peer[6]  lookupStabilitySig:vector  ETV
780045	64183 294 159 18944 20.27 27.998447471378 7 0.39999997615814 0.91079812496901 4.6483633741737 3.2670444053677
vector 780046  Network.dyn_peer[6]  lookupTimeSig:vector  ETV
780046	64477 202 159 18944 20.27 27.998447471378 7 0.2 3.3 7.9 16.53
vector 780047  Network.dyn_peer[7]  lookupHopsSig:vector  ETV
780047	64679 285 170 18518 20.28 27.704115455733 10 1 21 58 648
vector 780048  Network.dyn_peer[7]  lookupStabilitySig:vector  ETV
780048	64964 401 170 18518 20.28 27.704115455733 10 0 0.99324324307963 7.9179635872133 7.0923060746018
vector 780049  Network.dyn_peer[7]  lookupTimeSig:vector  ETV
780049	65365 304 170 18518 20.28 27.704115455733 10 0.2 2.2 6.7 7.69
vector 780050  Network.dyn_peer[8]  lookupHopsSig:vector  ETV
780050	65669 192 180 18607 20.29 27.757210623876 7 2 26 67 1023
vector 780051  Network.dyn_peer[8]  lookupStabilitySig:vector  ETV
780051	65861 282 180 18607 20.29 27.757210623876 7 0.16666668653488 0.96039604023099 4.8283329494298 3.8178823550644
vector 780052  Network.dyn_peer[8]  lookupTimeSig:vector  ETV
780052	66143 204 180 18607 20.29 27.757210623876 7 0.2 2.7 7.3 11.59
vector 780059  Network.dyn_peer[11]  lookupHopsSig:vector  ETV
780059	67683 192 205 17446 20.32 27.076660628289 7 2 28 61 1021
vector 780060  Network.dyn_peer[11]  lookupStabilitySig:vector  ETV
780060	67875 294 205 17446 20.32 27.076660628289 7 0.33333331346512 0.89189188927412 4.7586081176996 3.5556137882929
vector 780061  Network.dyn_peer[11]  lookupTimeSig:vector  ETV
780061	68169 204 205 17446 20.32 27.076660628289 7 0.2 2.9 6.7 11.45
vector 780032  Network.dyn_peer[2]  lookupHopsSig:vector  ETV
780032	60480 316 216 19663 20.33 28.621488278499 11 1 13 66 570
vector 780033  Network.dyn_peer[2]  lookupStabilitySig:vector  ETV
780033	60796 478 216 19663 20.33 28.621488278499 11 0.39999997615814 0.98412698321044 8.8244062494487 7.53146498158
vector 780034  Network.dyn_peer[2]  lookupTimeSig:vector  ETV
780034	61274 335 216 19663 20.33 28.621488278499 11 0.2 1.4 7.6 7.06
vector 780041  Network.dyn_peer[5]  lookupHopsSig:vector  ETV
780041	63590 113 243 14753 20.36 25.771534378415 4 3 22 54 918
vector 780042  Network.dyn_peer[5]  lookupStabilitySig:vector  ETV
780042	63703 170 243 14753 20.36 25.771534378415 4 0.23809522390366 0.84285713732243 2.2445887029171 1.5102379692719
vector 780043  Network.dyn_peer[5]  lookupTimeSig:vector  ETV
780043	63873 118 243 14753 20.36 25.771534378415 4 0.3 2.3 5.7 10.23
vector 780104  Network.dyn_peer[26]  lookupHopsSig:vector  ETV
780104	76774 140 256 11311 20.37 24.495297214663 5 1 19 37 503
vector 780105  Network.dyn_peer[26]  lookupStabilitySig:vector  ETV
780105	76914 213 256 11311 20.37 24.495297214663 5 0.33333331346512 0.92592592537403 3.3092592060566 2.433988431902
vector 780106  Network.dyn_peer[26]  lookupTimeSig:vector  ETV
780106	77127 146 256 11311 20.37 24.495297214663 5 0.1 2 4.1 5.79
vector 780134  Network.dyn_peer[36]  lookupHopsSig:vector  ETV
780134	82490 135 262 18649 20.37 27.790167600927 5 0 25 70 1398
vector 780135  Network.dyn_peer[36]  lookupStabilitySig:vector  ETV
780135	82625 191 262 18649 20.37 27.790167600927 5 0.16666668653488 1 3.5060311481357 2.8743634089245
vector 780136  Network.dyn_peer[36]  lookupTimeSig:vector  ETV
780136	82816 139 262 18649 20.37 27.790167600927 5 0 2.6 7.4 15.42
vector 780077  Network.dyn_peer[17]  lookupHopsSig:vector  ETV
780077	71639 260 273 18421 20.38 27.646531730642 9 1 11 42 296
vector 780078  Network.dyn_peer[17]  lookupStabilitySig:vector  ETV
780078	71899 394 273 18421 20.38 27.646531730642 9 0.39999997615814 0.96153846010566 7.1820515505969 6.0164861394222
vector 780079  Network.dyn_peer[17]  lookupTimeSig:vector  ETV
780079	72293 277 273 18421 20.38 27.646531730642 9 0.2 1.2 5 3.84
vector 780080  Network.dyn_peer[18]  lookupHopsSig:vector  ETV
780080	72570 133 287 15444 20.39 26.077669681439 5 2 19 53 751
vector 780081  Network.dyn_peer[18]  lookupStabilitySig:vector  ETV
780081	72703 206 287 15444 20.39 26.077669681439 5 0.22222220897675 0.89189188927412 3.2290650680661 2.3862048237148
vector 780082  Network.dyn_peer[18]  lookupTimeSig:vector  ETV
780082	72909 137 287 15444 20.39 26.077669681439 5 0.2 2 5.7 8.57
vector 780110  Network.dyn_peer[28]  lookupHopsSig:vector  ETV
780110	77529 132 291 12544 20.39 24.918965099501 5 1 18 37 465
vector 780111  Network.dyn_peer[28]  lookupStabilitySig:vector  ETV
780111	77661 205 291 12544 20.39 24.918965099501 5 0.27999997138977 0.95348837226629 3.8490991964936 3.2757927968681
vector 780112  Network.dyn_peer[28]  lookupTimeSig:vector  ETV
780112	77866 140 291 12544 20.39 24.918965099501 5 0.1 1.9 4.1 5.41
vector 780053  Network.dyn_peer[9]  lookupHopsSig:vector  ETV
780053	66347 127 303 6916 20.4 23.134120073974 5 3 7 24 128
vector 780054  Network.dyn_peer[9]  lookupStabilitySig:vector  ETV
780054	66474 192 303 6916 20.4 23.134120073974 5 0.30000001192093 0.89285714179277 3.1439934894443 2.2657178753049
vector 780055  Network.dyn_peer[9]  lookupTimeSig:vector  ETV
780055	66666 137 303 6916 20.4 23.134120073974 5 0.3 0.8 2.8 1.74
vector 780098  Network.dyn_peer[24]  lookupHopsSig:vector  ETV
780098	75742 164 341 18781 20.45 27.872447271631 6 1 26 71 1311
vector 780099  Network.dyn_peer[24]  lookupStabilitySig:vector  ETV
780099	75906 228 341 18781 20.45 27.872447271631 6 0.25 0.91666666418314 4.1686610206962 3.2057265673762
vector 780100  Network.dyn_peer[24]  lookupTimeSig:vector  ETV
780100	76134 171 341 18781 20.45 27.872447271631 6 0.2 2.7 7.6 14.54
vector 780128  Network.dyn_peer[34]  lookupHopsSig:vector  ETV
780128	81681 158 345 9635 20.45 23.950399869437 6 1 9 27 159
vector 780129  Network.dyn_peer[34]  lookupStabilitySig:vector  ETV
780129	81839 224 345 9635 20.45 23.950399869437 6 0.33333331346512 0.92105263471603 4.2389097511768 3.2704028414563
vector 780130  Network.dyn_peer[34]  lookupTimeSig:vector  ETV
780130	82063 168 345 9635 20.45 23.950399869437 6 0.1 1 3.2 2.16
vector 780074  Network.dyn_peer[16]  lookupHopsSig:vector  ETV
780074	70950 192 363 16811 20.47 26.730710604843 7 1 13 46 412
vector 780075  Network.dyn_peer[16]  lookupStabilitySig:vector  ETV
780075	71142 295 363 16811 20.47 26.730710604843 7 0.33333331346512 0.95652173832059 4.9869191348553 4.0252716644723
vector 780076  Network.dyn_peer[16]  lookupTimeSig:vector  ETV
780076	71437 202 363 16811 20.47 26.730710604843 7 0.2 1.4 5.2 5.04
vector 780116  Network.dyn_peer[30]  lookupHopsSig:vector  ETV
780116	78264 443 400 22163 20.51 33.297884780563 15 2 16 113 1099
vector 780117  Network.dyn_peer[30]  lookupStabilitySig:vector  ETV
780117	78707 663 400 22163 20.51 33.297884780563 15 0.26666665077209 0.98706896509975 13.011969516985 11.794804346045
vector 780118  Network.dyn_peer[30]  lookupTimeSig:vector  ETV
780118	79370 464 400 22163 20.51 33.297884780563 15 0.2 1.7 12.7 13.35
vector 780092  Network.dyn_peer[22]  lookupHopsSig:vector  ETV
780092	74704 130 421 11239 20.53 24.473227845962 5 1 13 28 252
vector 780093  Network.dyn_peer[22]  lookupStabilitySig:vector  ETV
780093	74834 191 421 11239 20.53 24.473227845962 5 0.39999997615814 0.88888888806105 3.2341269478202 2.2745508571379
vector 780094  Network.dyn_peer[22]  lookupTimeSig:vector  ETV
780094	75025 139 421 11239 20.53 24.473227845962 5 0.2 1.4 3.2 3.06
vector 780095  Network.dyn_peer[23]  lookupHopsSig:vector  ETV
780095	75164 164 435 16846 20.54 26.748003617963 6 3 15 60 726
vector 780096  Network.dyn_peer[23]  lookupStabilitySig:vector  ETV
780096	75328 241 435 16846 20.54 26.748003617963 6 0.39999997615814 0.93220338970423 4.072481110692 3.0628939268827
vector 780097  Network.dyn_peer[23]  lookupTimeSig:vector  ETV
780097	75569 173 435 16846 20.54 26.748003617963 6 0.3 1.6 6.5 8.45
vector 780068  Network.dyn_peer[14]  lookupHopsSig:vector  ETV
780068	69676 103 449 11921 20.55 24.699624452465 4 4 14 40 456
vector 780069  Network.dyn_peer[14]  lookupStabilitySig:vector  ETV
780069	69779 160 449 11921 20.55 24.699624452465 4 0.19999998807907 0.87234042584896 2.1784009933472 1.5091963392164
vector 780070  Network.dyn_peer[14]  lookupTimeSig:vector  ETV
780070	69939 108 449 11921 20.55 24.699624452465 4 0.4 1.5 4.3 5.31
vector 780158  Network.dyn_peer[44]  lookupHopsSig:vector  ETV
780158	87268 102 453 15648 20.55 26.162955505548 4 1 23 54 1108
vector 780159  Network.dyn_peer[44]  lookupStabilitySig:vector  ETV
780159	87370 160 453 15648 20.55 26.162955505548 4 0.39473682641983 0.89230769127607 2.9337111786008 2.3088746130084
vector 780160  Network.dyn_peer[44]  lookupTimeSig:vector  ETV
780160	87530 108 453 15648 20.55 26.162955505548 4 0.1 2.4 5.7 12.17
vector 780101  Network.dyn_peer[25]  lookupHopsSig:vector  ETV
780101	76305 134 464 13506 20.56 25.277687534679 5 3 12 46 476
vector 780102  Network.dyn_peer[25]  lookupStabilitySig:vector  ETV
780102	76439 196 464 13506 20.56 25.277687534679 5 0.3125 0.92372881621122 3.2143018618226 2.3653654036586
vector 780103  Network.dyn_peer[25]  lookupTimeSig:vector  ETV
780103	76635 139 464 13506 20.56 25.277687534679 5 0.3 1.3 5 5.66
vector 780137  Network.dyn_peer[37]  lookupHopsSig:vector  ETV
780137	82955 101 486 9415 20.58 23.885322896334 4 2 17 32 402
vector 780138  Network.dyn_peer[37]  lookupStabilitySig:vector  ETV
780138	83056 147 486 9415 20.58 23.885322896334 4 0.28571426868439 0.85714285075665 2.4928571134806 1.7388265027805
vector 780139  Network.dyn_peer[37]  lookupTimeSig:vector  ETV
780139	83203 107 486 9415 20.58 23.885322896334 4 0.2 1.8 3.5 4.65
vector 780083  Network.dyn_peer[19]  lookupHopsSig:vector  ETV
780083	73046 133 513 18529 20.6 27.709154793556 5 4 22 71 1189
vector 780084  Network.dyn_peer[19]  lookupStabilitySig:vector  ETV
780084	73179 204 513 18529 20.6 27.709154793556 5 0.19999998807907 0.93500000238419 3.2179749161005 2.4752779586888
vector 780085  Network.dyn_peer[19]  lookupTimeSig:vector  ETV
780085	73383 139 513 18529 20.6 27.709154793556 5 0.4 2.3 7.5 13.27
vector 780227  Network.dyn_peer[67]  lookupHopsSig:vector  ETV
780227	98370 224 595 18475 20.68 27.678303327127 8 0 14 56 514
vector 780228  Network.dyn_peer[67]  lookupStabilitySig:vector  ETV
780228	98594 303 595 18475 20.68 27.678303327127 8 0.5 1 6.7659728825092 5.8994433780189
vector 780229  Network.dyn_peer[67]  lookupTimeSig:vector  ETV
780229	98897 234 595 18475 20.68 27.678303327127 8 0 1.5 6.3 6.33
vector 780209  Network.dyn_peer[61]  lookupHopsSig:vector  ETV
780209	94892 222 639 15863 20.72 26.267458720745 8 1 13 39 295
vector 780210  Network.dyn_peer[61]  lookupStabilitySig:vector  ETV
780210	95114 327 639 15863 20.72 26.267458720745 8 0.5 0.95967742055655 6.6953270509839 5.7593105988475
vector 780211  Network.dyn_peer[61]  lookupTimeSig:vector  ETV
780211	95441 237 639 15863 20.72 26.267458720745 8 0.1 1.4 4.6 3.78
vector 780122  Network.dyn_peer[32]  lookupHopsSig:vector  ETV
780122	80845 100 652 8931 20.73 23.737047308662 4 1 17 31 387
vector 780123  Network.dyn_peer[32]  lookupStabilitySig:vector  ETV
780123	80945 151 652 8931 20.73 23.737047308662 4 0.19999998807907 0.984375 2.4780931472778 1.9220896228653
vector 780124  Network.dyn_peer[32]  lookupTimeSig:vector  ETV
780124	81096 105 652 8931 20.73 23.737047308662 4 0.2 1.8 3.4 4.44
vector 780182  Network.dyn_peer[52]  lookupHopsSig:vector  ETV
780182	90959 193 656 13969 20.73 25.454225546558 7 2 10 37 253
vector 780183  Network.dyn_peer[52]  lookupStabilitySig:vector  ETV
780183	91152 297 656 13969 20.73 25.454225546558 7 0.33333331346512 0.96721311658621 5.4299114979804 4.542773165461
vector 780184  Network.dyn_peer[52]  lookupTimeSig:vector  ETV
780184	91449 206 656 13969 20.73 25.454225546558 7 0.2 1.1 4.3 3.29
vector 780161  Network.dyn_peer[45]  lookupHopsSig:vector  ETV
780161	87638 70 691 7345 20.76 23.263177562064 3 3 17 26 334
vector 780162  Network.dyn_peer[45]  lookupStabilitySig:vector  ETV
780162	87708 101 691 7345 20.76 23.263177562064 3 0.39999997615814 0.63829788565636 1.5382978618145 0.81742417175989
vector 780163  Network.dyn_peer[45]  lookupTimeSig:vector  ETV
780163	87809 75 691 7345 20.76 23.263177562064 3 0.3 1.8 2.8 3.82
vector 780164  Network.dyn_peer[46]  lookupHopsSig:vector  ETV
780164	87884 131 708 10387 20.77 24.191781404154 5 3 14 33 311
vector 780165  Network.dyn_peer[46]  lookupStabilitySig:vector  ETV
780165	88015 181 708 10387 20.77 24.191781404154 5 0.4375 0.95945946127176 3.5213375613093 2.6821649747784
vector 780166  Network.dyn_peer[46]  lookupTimeSig:vector  ETV
780166	88196 138 708 10387 20.77 24.191781404154 5 0.3 1.5 3.7 3.75
vector 780107  Network.dyn_peer[27]  lookupHopsSig:vector  ETV
780107	77273 69 726 3731 20.78 22.187588482608 3 3 9 17 115
vector 780108  Network.dyn_peer[27]  lookupStabilitySig:vector  ETV
780108	77342 114 726 3731 20.78 22.187588482608 3 0.16666668653488 0.66666665673256 1.4242424368858 0.82139577252039
vector 780109  Network.dyn_peer[27]  lookupTimeSig:vector  ETV
780109	77456 73 726 3731 20.78 22.187588482608 3 0.4 1 1.9 1.41
vector 780143  Network.dyn_peer[39]  lookupHopsSig:vector  ETV
780143	83897 97 755 5450 20.8 22.725470572802 4 4 7 20 106
vector 780144  Network.dyn_peer[39]  lookupStabilitySig:vector  ETV
780144	83994 157 755 5450 20.8 22.725470572802 4 0.33333331346512 0.88571428507566 2.4183229878545 1.6816884019858
vector 780145  Network.dyn_peer[39]  lookupTimeSig:vector  ETV
780145	84151 105 755 5450 20.8 22.725470572802 4 0.4 0.8 2.3 1.41
vector 780206  Network.dyn_peer[60]  lookupHopsSig:vector  ETV
780206	94530 98 767 6838 20.81 23.11233518191 4 2 8 22 148
vector 780207  Network.dyn_peer[60]  lookupStabilitySig:vector  ETV
780207	94628 158 767 6838 20.81 23.11233518191 4 0.46666663885117 0.82608695328236 2.7733737379313 2.0071621197603
vector 780208  Network.dyn_peer[60]  lookupTimeSig:vector  ETV
780208	94786 106 767 6838 20.81 23.11233518191 4 0.2 0.9 2.5 1.91
vector 780125  Network.dyn_peer[33]  lookupHopsSig:vector  ETV
780125	81201 134 808 16868 20.84 26.757235646488 5 5 22 60 898
vector 780126  Network.dyn_peer[33]  lookupStabilitySig:vector  ETV
780126	81335 205 808 16868 20.84 26.757235646488 5 0.16666668653488 0.91124260425568 3.103702917695 2.3063370255493
vector 780127  Network.dyn_peer[33]  lookupTimeSig:vector  ETV
780127	81540 141 808 16868 20.84 26.757235646488 5 0.5 2.3 6.4 10.12
vector 780245  Network.dyn_peer[73]  lookupHopsSig:vector  ETV
780245	102696 165 812 17664 20.84 27.196226193781 6 1 20 58 842
vector 780246  Network.dyn_peer[73]  lookupStabilitySig:vector  ETV
780246	102861 240 812 17664 20.84 27.196226193781 6 0.44444441795349 0.97560975700617 4.8351032026112 4.0890814440466
vector 780247  Network.dyn_peer[73]  lookupTimeSig:vector  ETV
780247	103101 174 812 17664 20.84 27.196226193781 6 0.1 2.1 6.3 9.61
vector 780218  Network.dyn_peer[64]  lookupHopsSig:vector  ETV
780218	97057 220 829 13634 20.85 25.32828090743 8 2 13 36 258
vector 780219  Network.dyn_peer[64]  lookupStabilitySig:vector  ETV
780219	97277 339 829 13634 20.85 25.32828090743 8 0.63636362552643 0.97499999962747 6.6440221685916 5.6212351656599
vector 780220  Network.dyn_peer[64]  lookupTimeSig:vector  ETV
780220	97616 235 829 13634 20.85 25.32828090743 8 0.2 1.4 4.3 3.33
vector 780221  Network.dyn_peer[65]  lookupHopsSig:vector  ETV
780221	97851 40 842 5232 20.86 22.66 2 2 17 19 293
vector 780222  Network.dyn_peer[65]  lookupStabilitySig:vector  ETV
780222	97891 68 842 5232 20.86 22.66 2 0.4848484992981 0.66666665673256 1.1515151560307 0.67952249847059
vector 780223  Network.dyn_peer[65]  lookupTimeSig:vector  ETV
780223	97959 43 842 5232 20.86 22.66 2 0.2 1.8 2 3.28
vector 780089  Network.dyn_peer[21]  lookupHopsSig:vector  ETV
780089	74225 132 925 12590 20.92 24.937998241397 5 5 15 43 427
vector 780090  Network.dyn_peer[21]  lookupStabilitySig:vector  ETV
780090	74357 206 925 12590 20.92 24.937998241397 5 -0.16666662693024 0.95192307606339 2.9249408505857 2.5282222242556
vector 780091  Network.dyn_peer[21]  lookupTimeSig:vector  ETV
780091	74563 141 925 12590 20.92 24.937998241397 5 0.6 1.6 4.7 5.03
vector 780257  Network.dyn_peer[77]  lookupHopsSig:vector  ETV
780257	104507 226 1011 20239 20.98 29.205388982879 8 2 36 77 1623
vector 780258  Network.dyn_peer[77]  lookupStabilitySig:vector  ETV
780258	104733 335 1011 20239 20.98 29.205388982879 8 0.66666665673256 0.98039215616882 6.7146418187767 5.7688482521601
vector 780259  Network.dyn_peer[77]  lookupTimeSig:vector  ETV
780259	105068 240 1011 20239 20.98 29.205388982879 8 0.2 3.7 8.4 17.8
vector 780140  Network.dyn_peer[38]  lookupHopsSig:vector  ETV
780140	83310 165 1032 18029 20.99 27.409536452851 6 5 20 65 939
vector 780141  Network.dyn_peer[38]  lookupStabilitySig:vector  ETV
780141	83475 251 1032 18029 20.99 27.409536452851 6 0.14285713434219 0.9679144397378 4.3714120276272 3.7238063415701
vector 780142  Network.dyn_peer[38]  lookupTimeSig:vector  ETV
780142	83726 171 1032 18029 20.99 27.409536452851 6 0.6 2.1 7 10.62
vector 780290  Network.dyn_peer[88]  lookupHopsSig:vector  ETV
780290	110467 258 1036 20662 20.99 29.744021860273 9 1 16 75 955
vector 780291  Network.dyn_peer[88]  lookupStabilitySig:vector  ETV
780291	110725 389 1036 20662 20.99 29.744021860273 9 0.53571429848671 0.99581589968875 7.9277326981537 7.140150464091
vector 780292  Network.dyn_peer[88]  lookupTimeSig:vector  ETV
780292	111114 272 1036 20662 20.99 29.744021860273 9 0.1 1.7 8.3 11.11
vector 780203  Network.dyn_peer[59]  lookupHopsSig:vector  ETV
780203	93963 159 1055 16514 21 26.574536453472 6 2 7 20 86
vector 780204  Network.dyn_peer[59]  lookupStabilitySig:vector  ETV
780204	94122 237 1055 16514 21 26.574536453472 6 0.42857140302658 0.98795180767775 4.9729893459007 4.3553357995259
vector 780205  Network.dyn_peer[59]  lookupTimeSig:vector  ETV
780205	94359 171 1055 16514 21 26.574536453472 6 0.3 0.8 2.5 1.23
vector 780119  Network.dyn_peer[31]  lookupHopsSig:vector  ETV
780119	79834 287 1081 21760 21.02 31.69035903992 10 5 41 104 2146
vector 780120  Network.dyn_peer[31]  lookupStabilitySig:vector  ETV
780120	80121 419 1081 21760 21.02 31.69035903992 10 0 0.98015872947872 7.8301485162228 6.9852188453908
vector 780121  Network.dyn_peer[31]  lookupTimeSig:vector  ETV
780121	80540 305 1081 21760 21.02 31.69035903992 10 0.6 4.2 11.3 23.49
vector 780155  Network.dyn_peer[43]  lookupHopsSig:vector  ETV
780155	86677 164 1114 16832 21.04 26.740943562557 6 3 20 45 535
vector 780156  Network.dyn_peer[43]  lookupStabilitySig:vector  ETV
780156	86841 252 1114 16832 21.04 26.740943562557 6 0.14285713434219 0.97986577264965 4.3824225999415 3.7150530576617
vector 780157  Network.dyn_peer[43]  lookupTimeSig:vector  ETV
780157	87093 175 1114 16832 21.04 26.740943562557 6 0.4 2.1 5 6.18
vector 780305  Network.dyn_peer[93]  lookupHopsSig:vector  ETV
780305	113178 136 1118 20032 21.04 28.959748247658 5 1 38 76 1946
vector 780306  Network.dyn_peer[93]  lookupStabilitySig:vector  ETV
780306	113314 208 1118 20032 21.04 28.959748247658 5 0.55555555224419 0.96296296268702 4.0900251753628 3.4545124058898
vector 780307  Network.dyn_peer[93]  lookupTimeSig:vector  ETV
780307	113522 143 1118 20032 21.04 28.959748247658 5 0.1 3.9 8 21
vector 780191  Network.dyn_peer[55]  lookupHopsSig:vector  ETV
780191	92498 134 1150 16349 21.06 26.496907519047 5 2 11 27 191
vector 780192  Network.dyn_peer[55]  lookupStabilitySig:vector  ETV
780192	92632 208 1150 16349 21.06 26.496907519047 5 0.28571426868439 0.98319327645004 3.7477845381945 3.1855630636625
vector 780193  Network.dyn_peer[55]  lookupTimeSig:vector  ETV
780193	92840 143 1150 16349 21.06 26.496907519047 5 0.3 1.2 3.1 2.39
vector 780281  Network.dyn_peer[85]  lookupHopsSig:vector  ETV
780281	108679 199 1154 21328 21.06 30.772795417544 7 2 42 93 2287
vector 780282  Network.dyn_peer[85]  lookupStabilitySig:vector  ETV
780282	108878 301 1154 21328 21.06 30.772795417544 7 0.65000000596046 0.97003745287657 6.1342473328113 5.4842154325344
vector 780283  Network.dyn_peer[85]  lookupTimeSig:vector  ETV
780283	109179 208 1154 21328 21.06 30.772795417544 7 0.2 4.3 9.9 24.75
vector 780323  Network.dyn_peer[99]  lookupHopsSig:vector  ETV
780323	117489 223 1218 18136 21.1 27.472094749013 8 1 13 56 496
vector 780324  Network.dyn_peer[99]  lookupStabilitySig:vector  ETV
780324	117712 340 1218 18136 21.1 27.472094749013 8 0.66666665673256 0.95238095149398 6.8636390306056 5.9436914462955
vector 780325  Network.dyn_peer[99]  lookupTimeSig:vector  ETV
780325	118052 235 1218 18136 21.1 27.472094749013 8 0.1 1.4 6.3 6.13
vector 780176  Network.dyn_peer[50]  lookupHopsSig:vector  ETV
780176	89775 131 1233 9873 21.11 24.023091746036 5 1 12 31 255
vector 780177  Network.dyn_peer[50]  lookupStabilitySig:vector  ETV
780177	89906 205 1233 9873 21.11 24.023091746036 5 0.14285713434219 0.95238095149398 3.3739495538175 2.7025966954286
vector 780178  Network.dyn_peer[50]  lookupTimeSig:vector  ETV
780178	90111 140 1233 9873 21.11 24.023091746036 5 0.2 1.3 3.5 3.09
vector 780299  Network.dyn_peer[91]  lookupHopsSig:vector  ETV
780299	111903 256 1253 19331 21.12 28.323937841986 9 2 16 57 493
vector 780300  Network.dyn_peer[91]  lookupStabilitySig:vector  ETV
780300	112159 378 1253 19331 21.12 28.323937841986 9 0.55555555224419 0.98421052657068 7.9664786923677 7.2184538408522
vector 780301  Network.dyn_peer[91]  lookupTimeSig:vector  ETV
780301	112537 273 1253 19331 21.12 28.323937841986 9 0.2 1.7 6.5 6.11
vector 780212  Network.dyn_peer[62]  lookupHopsSig:vector  ETV
780212	95678 228 1274 20832 21.13 29.967477978054 8 2 23 86 1276
vector 780213  Network.dyn_peer[62]  lookupStabilitySig:vector  ETV
780213	95906 335 1274 20832 21.13 29.967477978054 8 0.44444441795349 0.953125 6.4469637982547 5.4397564752454
vector 780214  Network.dyn_peer[62]  lookupTimeSig:vector  ETV
780214	96241 240 1274 20832 21.13 29.967477978054 8 0.3 2.4 9.3 14.45
vector 780302  Network.dyn_peer[92]  lookupHopsSig:vector  ETV
780302	112810 102 1278 11753 21.13 24.639715593528 4 2 18 34 434
vector 780303  Network.dyn_peer[92]  lookupStabilitySig:vector  ETV
780303	112912 159 1278 11753 21.13 24.639715593528 4 0.5714285671711 0.9456521756947 3.1715708486736 2.5943514228277
vector 780304  Network.dyn_peer[92]  lookupTimeSig:vector  ETV
780304	113071 107 1278 11753 21.13 24.639715593528 4 0.2 1.9 3.7 5.01
vector 780224  Network.dyn_peer[66]  lookupHopsSig:vector  ETV
780224	98002 100 1339 5299 21.17 22.684826403516 4 1 6 17 87
vector 780225  Network.dyn_peer[66]  lookupStabilitySig:vector  ETV
780225	98102 160 1339 5299 21.17 22.684826403516 4 0.44444441795349 0.91666666418314 2.9283379539847 2.2755213173131
vector 780226  Network.dyn_peer[66]  lookupTimeSig:vector  ETV
780226	98262 108 1339 5299 21.17 22.684826403516 4 0.2 0.7 2 1.14
vector 780239  Network.dyn_peer[71]  lookupHopsSig:vector  ETV
780239	101869 166 1425 19583 21.22 28.542063231795 6 1 24 69 1207
vector 780240  Network.dyn_peer[71]  lookupStabilitySig:vector  ETV
780240	102035 240 1425 19583 21.22 28.542063231795 6 0.5 0.98550724610686 4.8877236451954 4.189555031134
vector 780241  Network.dyn_peer[71]  lookupTimeSig:vector  ETV
780241	102275 175 1425 19583 21.22 28.542063231795 6 0.2 2.5 7.4 13.4
vector 780242  Network.dyn_peer[72]  lookupHopsSig:vector  ETV
780242	102450 70 1444 4812 21.23 22.539283450923 3 2 9 16 110
vector 780243  Network.dyn_peer[72]  lookupStabilitySig:vector  ETV
780243	102520 102 1444 4812 21.23 22.539283450923 3 0.5 0.93548387289047 2.0441795289516 1.4956404781459
vector 780244  Network.dyn_peer[72]  lookupTimeSig:vector  ETV
780244	102622 74 1444 4812 21.23 22.539283450923 3 0.3 1 1.8 1.34
vector 780188  Network.dyn_peer[54]  lookupHopsSig:vector  ETV
780188	92236 71 1480 7660 21.25 23.357695916839 3 6 13 26 254
vector 780189  Network.dyn_peer[54]  lookupStabilitySig:vector  ETV
780189	92307 115 1480 7660 21.25 23.357695916839 3 0.30000001192093 0.73469388484955 1.7189044356346 1.0979191730806
vector 780190  Network.dyn_peer[54]  lookupTimeSig:vector  ETV
780190	92422 76 1480 7660 21.25 23.357695916839 3 0.7 1.4 2.8 2.94
vector 780284  Network.dyn_peer[86]  lookupHopsSig:vector  ETV
780284	109387 230 1513 21748 21.27 31.658160544851 8 3 26 94 1616
vector 780285  Network.dyn_peer[86]  lookupStabilitySig:vector  ETV
780285	109617 345 1513 21748 21.27 31.658160544851 8 0.59999999403954 0.96183206140995 6.7086983732879 5.7409868187233
vector 780286  Network.dyn_peer[86]  lookupTimeSig:vector  ETV
780286	109962 239 1513 21748 21.27 31.658160544851 8 0.4 2.7 10.1 18.03
vector 780197  Network.dyn_peer[57]  lookupHopsSig:vector  ETV
780197	93224 40 1531 2401 21.28 21.68 2 3 7 10 58
vector 780198  Network.dyn_peer[57]  lookupStabilitySig:vector  ETV
780198	93264 70 1531 2401 21.28 21.68 2 0.30000001192093 0.78571428358555 1.0857142955065 0.70734694258291
vector 780199  Network.dyn_peer[57]  lookupTimeSig:vector  ETV
780199	93334 44 1531 2401 21.28 21.68 2 0.4 0.7 1.1 0.65
vector 780233  Network.dyn_peer[69]  lookupHopsSig:vector  ETV
780233	100588 132 1581 15546 21.3 26.120730217803 5 5 21 50 666
vector 780234  Network.dyn_peer[69]  lookupStabilitySig:vector  ETV
780234	100720 205 1581 15546 21.3 26.120730217803 5 0.39999997615814 0.94594594463706 3.6842431388795 2.9071772094757
vector 780235  Network.dyn_peer[69]  lookupTimeSig:vector  ETV
780235	100925 140 1581 15546 21.3 26.120730217803 5 0.6 2.2 5.4 7.58
vector 780326  Network.dyn_peer[100]  lookupHopsSig:vector  ETV
780326	118287 226 1598 17907 21.31 27.336492137668 8 3 11 56 462