file 949209 1369697272                                          
version 2
run Stability2-53-20130528-01:27:39-24168
attr configname Stability2
attr datetime 20130528-01:27:39
attr experiment Stability2
attr inifile omnetpp.ini
attr iterationvars $0=100
attr iterationvars2 "$0=100, $repetition=3"
attr measurement $0=100
attr network Network
attr processid 24168
attr repetition 3
attr replication #3
attr resultdir results
attr runnumber 53
attr seedset 53

vector 1620053  Network.churner  inGoingSizeSig:vector  ETV
vector 1590056  Network.dyn_peer[1]  lookupHopsSig:vector  ETV
vector 1590057  Network.dyn_peer[1]  lookupStabilitySig:vector  ETV
vector 1590058  Network.dyn_peer[1]  lookupTimeSig:vector  ETV
vector 1590077  Network.dyn_peer[8]  lookupHopsSig:vector  ETV
vector 1590078  Network.dyn_peer[8]  lookupStabilitySig:vector  ETV
vector 1590079  Network.dyn_peer[8]  lookupTimeSig:vector  ETV
vector 1590053  Network.dyn_peer[0]  lookupHopsSig:vector  ETV
vector 1590054  Network.dyn_peer[0]  lookupStabilitySig:vector  ETV
vector 1590055  Network.dyn_peer[0]  lookupTimeSig:vector  ETV
vector 1590062  Network.dyn_peer[3]  lookupHopsSig:vector  ETV
vector 1590063  Network.dyn_peer[3]  lookupStabilitySig:vector  ETV
vector 1590064  Network.dyn_peer[3]  lookupTimeSig:vector  ETV
vector 1590065  Network.dyn_peer[4]  lookupHopsSig:vector  ETV
vector 1590066  Network.dyn_peer[4]  lookupStabilitySig:vector  ETV
vector 1590067  Network.dyn_peer[4]  lookupTimeSig:vector  ETV
vector 1590068  Network.dyn_peer[5]  lookupHopsSig:vector  ETV
vector 1590069  Network.dyn_peer[5]  lookupStabilitySig:vector  ETV
vector 1590070  Network.dyn_peer[5]  lookupTimeSig:vector  ETV
vector 1590071  Network.dyn_peer[6]  lookupHopsSig:vector  ETV
vector 1590072  Network.dyn_peer[6]  lookupStabilitySig:vector  ETV
vector 1590073  Network.dyn_peer[6]  lookupTimeSig:vector  ETV
vector 1590101  Network.dyn_peer[16]  lookupHopsSig:vector  ETV
vector 1590102  Network.dyn_peer[16]  lookupStabilitySig:vector  ETV
vector 1590103  Network.dyn_peer[16]  lookupTimeSig:vector  ETV
vector 1590107  Network.dyn_peer[18]  lookupHopsSig:vector  ETV
vector 1590108  Network.dyn_peer[18]  lookupStabilitySig:vector  ETV
vector 1590109  Network.dyn_peer[18]  lookupTimeSig:vector  ETV
vector 1590074  Network.dyn_peer[7]  lookupHopsSig:vector  ETV
vector 1590075  Network.dyn_peer[7]  lookupStabilitySig:vector  ETV
vector 1590076  Network.dyn_peer[7]  lookupTimeSig:vector  ETV
vector 1590110  Network.dyn_peer[19]  lookupHopsSig:vector  ETV
vector 1590111  Network.dyn_peer[19]  lookupStabilitySig:vector  ETV
vector 1590112  Network.dyn_peer[19]  lookupTimeSig:vector  ETV
vector 1590083  Network.dyn_peer[10]  lookupHopsSig:vector  ETV
vector 1590084  Network.dyn_peer[10]  lookupStabilitySig:vector  ETV
vector 1590085  Network.dyn_peer[10]  lookupTimeSig:vector  ETV
vector 1590086  Network.dyn_peer[11]  lookupHopsSig:vector  ETV
vector 1590087  Network.dyn_peer[11]  lookupStabilitySig:vector  ETV
vector 1590088  Network.dyn_peer[11]  lookupTimeSig:vector  ETV
vector 1590059  Network.dyn_peer[2]  lookupHopsSig:vector  ETV
vector 1590060  Network.dyn_peer[2]  lookupStabilitySig:vector  ETV
vector 1590061  Network.dyn_peer[2]  lookupTimeSig:vector  ETV
vector 1590089  Network.dyn_peer[12]  lookupHopsSig:vector  ETV
vector 1590090  Network.dyn_peer[12]  lookupStabilitySig:vector  ETV
vector 1590091  Network.dyn_peer[12]  lookupTimeSig:vector  ETV
vector 1590092  Network.dyn_peer[13]  lookupHopsSig:vector  ETV
vector 1590093  Network.dyn_peer[13]  lookupStabilitySig:vector  ETV
vector 1590094  Network.dyn_peer[13]  lookupTimeSig:vector  ETV
vector 1590122  Network.dyn_peer[23]  lookupHopsSig:vector  ETV
vector 1590123  Network.dyn_peer[23]  lookupStabilitySig:vector  ETV
vector 1590124  Network.dyn_peer[23]  lookupTimeSig:vector  ETV
vector 1590095  Network.dyn_peer[14]  lookupHopsSig:vector  ETV
vector 1590096  Network.dyn_peer[14]  lookupStabilitySig:vector  ETV
vector 1590097  Network.dyn_peer[14]  lookupTimeSig:vector  ETV
vector 1590134  Network.dyn_peer[27]  lookupHopsSig:vector  ETV
vector 1590135  Network.dyn_peer[27]  lookupStabilitySig:vector  ETV
vector 1590136  Network.dyn_peer[27]  lookupTimeSig:vector  ETV
vector 1590080  Network.dyn_peer[9]  lookupHopsSig:vector  ETV
vector 1590081  Network.dyn_peer[9]  lookupStabilitySig:vector  ETV
vector 1590082  Network.dyn_peer[9]  lookupTimeSig:vector  ETV
vector 1590116  Network.dyn_peer[21]  lookupHopsSig:vector  ETV
vector 1590117  Network.dyn_peer[21]  lookupStabilitySig:vector  ETV
vector 1590118  Network.dyn_peer[21]  lookupTimeSig:vector  ETV
vector 1590119  Network.dyn_peer[22]  lookupHopsSig:vector  ETV
vector 1590120  Network.dyn_peer[22]  lookupStabilitySig:vector  ETV
vector 1590121  Network.dyn_peer[22]  lookupTimeSig:vector  ETV
vector 1590098  Network.dyn_peer[15]  lookupHopsSig:vector  ETV
vector 1590099  Network.dyn_peer[15]  lookupStabilitySig:vector  ETV
vector 1590100  Network.dyn_peer[15]  lookupTimeSig:vector  ETV
vector 1590128  Network.dyn_peer[25]  lookupHopsSig:vector  ETV
vector 1590129  Network.dyn_peer[25]  lookupStabilitySig:vector  ETV
vector 1590130  Network.dyn_peer[25]  lookupTimeSig:vector  ETV
vector 1590104  Network.dyn_peer[17]  lookupHopsSig:vector  ETV
vector 1590105  Network.dyn_peer[17]  lookupStabilitySig:vector  ETV
vector 1590106  Network.dyn_peer[17]  lookupTimeSig:vector  ETV
vector 1590113  Network.dyn_peer[20]  lookupHopsSig:vector  ETV
vector 1590114  Network.dyn_peer[20]  lookupStabilitySig:vector  ETV
vector 1590115  Network.dyn_peer[20]  lookupTimeSig:vector  ETV
vector 1590155  Network.dyn_peer[34]  lookupHopsSig:vector  ETV
vector 1590156  Network.dyn_peer[34]  lookupStabilitySig:vector  ETV
vector 1590157  Network.dyn_peer[34]  lookupTimeSig:vector  ETV
vector 1590188  Network.dyn_peer[45]  lookupHopsSig:vector  ETV
vector 1590189  Network.dyn_peer[45]  lookupStabilitySig:vector  ETV
vector 1590190  Network.dyn_peer[45]  lookupTimeSig:vector  ETV
vector 1590131  Network.dyn_peer[26]  lookupHopsSig:vector  ETV
vector 1590132  Network.dyn_peer[26]  lookupStabilitySig:vector  ETV
vector 1590133  Network.dyn_peer[26]  lookupTimeSig:vector  ETV
vector 1590137  Network.dyn_peer[28]  lookupHopsSig:vector  ETV
vector 1590138  Network.dyn_peer[28]  lookupStabilitySig:vector  ETV
vector 1590139  Network.dyn_peer[28]  lookupTimeSig:vector  ETV
vector 1590146  Network.dyn_peer[31]  lookupHopsSig:vector  ETV
vector 1590147  Network.dyn_peer[31]  lookupStabilitySig:vector  ETV
vector 1590148  Network.dyn_peer[31]  lookupTimeSig:vector  ETV
vector 1590152  Network.dyn_peer[33]  lookupHopsSig:vector  ETV
vector 1590153  Network.dyn_peer[33]  lookupStabilitySig:vector  ETV
vector 1590154  Network.dyn_peer[33]  lookupTimeSig:vector  ETV
vector 1590191  Network.dyn_peer[46]  lookupHopsSig:vector  ETV
vector 1590192  Network.dyn_peer[46]  lookupStabilitySig:vector  ETV
vector 1590193  Network.dyn_peer[46]  lookupTimeSig:vector  ETV
vector 1590254  Network.dyn_peer[67]  lookupHopsSig:vector  ETV
vector 1590255  Network.dyn_peer[67]  lookupStabilitySig:vector  ETV
vector 1590256  Network.dyn_peer[67]  lookupTimeSig:vector  ETV
vector 1590239  Network.dyn_peer[62]  lookupHopsSig:vector  ETV
vector 1590240  Network.dyn_peer[62]  lookupStabilitySig:vector  ETV
vector 1590241  Network.dyn_peer[62]  lookupTimeSig:vector  ETV
vector 1590215  Network.dyn_peer[54]  lookupHopsSig:vector  ETV
vector 1590216  Network.dyn_peer[54]  lookupStabilitySig:vector  ETV
vector 1590217  Network.dyn_peer[54]  lookupTimeSig:vector  ETV
vector 1590305  Network.dyn_peer[84]  lookupHopsSig:vector  ETV
vector 1590306  Network.dyn_peer[84]  lookupStabilitySig:vector  ETV
vector 1590307  Network.dyn_peer[84]  lookupTimeSig:vector  ETV
vector 1590158  Network.dyn_peer[35]  lookupHopsSig:vector  ETV
vector 1590159  Network.dyn_peer[35]  lookupStabilitySig:vector  ETV
vector 1590160  Network.dyn_peer[35]  lookupTimeSig:vector  ETV
vector 1590197  Network.dyn_peer[48]  lookupHopsSig:vector  ETV
vector 1590198  Network.dyn_peer[48]  lookupStabilitySig:vector  ETV
vector 1590199  Network.dyn_peer[48]  lookupTimeSig:vector  ETV
vector 1590140  Network.dyn_peer[29]  lookupHopsSig:vector  ETV
vector 1590141  Network.dyn_peer[29]  lookupStabilitySig:vector  ETV
vector 1590142  Network.dyn_peer[29]  lookupTimeSig:vector  ETV
vector 1590182  Network.dyn_peer[43]  lookupHopsSig:vector  ETV
vector 1590183  Network.dyn_peer[43]  lookupStabilitySig:vector  ETV
vector 1590184  Network.dyn_peer[43]  lookupTimeSig:vector  ETV
vector 1590164  Network.dyn_peer[37]  lookupHopsSig:vector  ETV
vector 1590165  Network.dyn_peer[37]  lookupStabilitySig:vector  ETV
vector 1590166  Network.dyn_peer[37]  lookupTimeSig:vector  ETV
vector 1590287  Network.dyn_peer[78]  lookupHopsSig:vector  ETV
vector 1590288  Network.dyn_peer[78]  lookupStabilitySig:vector  ETV
vector 1590289  Network.dyn_peer[78]  lookupTimeSig:vector  ETV
vector 1590170  Network.dyn_peer[39]  lookupHopsSig:vector  ETV
vector 1590171  Network.dyn_peer[39]  lookupStabilitySig:vector  ETV
vector 1590172  Network.dyn_peer[39]  lookupTimeSig:vector  ETV
vector 1590179  Network.dyn_peer[42]  lookupHopsSig:vector  ETV
vector 1590180  Network.dyn_peer[42]  lookupStabilitySig:vector  ETV
vector 1590181  Network.dyn_peer[42]  lookupTimeSig:vector  ETV
vector 1590308  Network.dyn_peer[85]  lookupHopsSig:vector  ETV
vector 1590309  Network.dyn_peer[85]  lookupStabilitySig:vector  ETV
vector 1590310  Network.dyn_peer[85]  lookupTimeSig:vector  ETV
vector 1590296  Network.dyn_peer[81]  lookupHopsSig:vector  ETV
vector 1590297  Network.dyn_peer[81]  lookupStabilitySig:vector  ETV
vector 1590298  Network.dyn_peer[81]  lookupTimeSig:vector  ETV
vector 1590245  Network.dyn_peer[64]  lookupHopsSig:vector  ETV
vector 1590246  Network.dyn_peer[64]  lookupStabilitySig:vector  ETV
vector 1590247  Network.dyn_peer[64]  lookupTimeSig:vector  ETV
vector 1590275  Network.dyn_peer[74]  lookupHopsSig:vector  ETV
vector 1590276  Network.dyn_peer[74]  lookupStabilitySig:vector  ETV
vector 1590277  Network.dyn_peer[74]  lookupTimeSig:vector  ETV
vector 1590218  Network.dyn_peer[55]  lookupHopsSig:vector  ETV
vector 1590219  Network.dyn_peer[55]  lookupStabilitySig:vector  ETV
vector 1590220  Network.dyn_peer[55]  lookupTimeSig:vector  ETV
vector 1590251  Network.dyn_peer[66]  lookupHopsSig:vector  ETV
vector 1590252  Network.dyn_peer[66]  lookupStabilitySig:vector  ETV
vector 1590253  Network.dyn_peer[66]  lookupTimeSig:vector  ETV
vector 1590341  Network.dyn_peer[96]  lookupHopsSig:vector  ETV
vector 1590342  Network.dyn_peer[96]  lookupStabilitySig:vector  ETV
vector 1590343  Network.dyn_peer[96]  lookupTimeSig:vector  ETV
vector 1590323  Network.dyn_peer[90]  lookupHopsSig:vector  ETV
vector 1590324  Network.dyn_peer[90]  lookupStabilitySig:vector  ETV
vector 1590325  Network.dyn_peer[90]  lookupTimeSig:vector  ETV
vector 1590176  Network.dyn_peer[41]  lookupHopsSig:vector  ETV
vector 1590177  Network.dyn_peer[41]  lookupStabilitySig:vector  ETV
vector 1590178  Network.dyn_peer[41]  lookupTimeSig:vector  ETV
vector 1590236  Network.dyn_peer[61]  lookupHopsSig:vector  ETV
vector 1590237  Network.dyn_peer[61]  lookupStabilitySig:vector  ETV
vector 1590238  Network.dyn_peer[61]  lookupTimeSig:vector  ETV
vector 1590125  Network.dyn_peer[24]  lookupHopsSig:vector  ETV
vector 1590126  Network.dyn_peer[24]  lookupStabilitySig:vector  ETV
vector 1590127  Network.dyn_peer[24]  lookupTimeSig:vector  ETV
vector 1590335  Network.dyn_peer[94]  lookupHopsSig:vector  ETV
vector 1590336  Network.dyn_peer[94]  lookupStabilitySig:vector  ETV
vector 1590337  Network.dyn_peer[94]  lookupTimeSig:vector  ETV
vector 1590365  Network.dyn_peer[104]  lookupHopsSig:vector  ETV
vector 1590366  Network.dyn_peer[104]  lookupStabilitySig:vector  ETV
vector 1590367  Network.dyn_peer[104]  lookupTimeSig:vector  ETV
vector 1590395  Network.dyn_peer[114]  lookupHopsSig:vector  ETV
vector 1590396  Network.dyn_peer[114]  lookupStabilitySig:vector  ETV
vector 1590397  Network.dyn_peer[114]  lookupTimeSig:vector  ETV
vector 1590425  Network.dyn_peer[124]  lookupHopsSig:vector  ETV
vector 1590426  Network.dyn_peer[124]  lookupStabilitySig:vector  ETV
vector 1590427  Network.dyn_peer[124]  lookupTimeSig:vector  ETV
vector 1590194  Network.dyn_peer[47]  lookupHopsSig:vector  ETV
vector 1590195  Network.dyn_peer[47]  lookupStabilitySig:vector  ETV
vector 1590196  Network.dyn_peer[47]  lookupTimeSig:vector  ETV
vector 1590224  Network.dyn_peer[57]  lookupHopsSig:vector  ETV
vector 1590225  Network.dyn_peer[57]  lookupStabilitySig:vector  ETV
vector 1590226  Network.dyn_peer[57]  lookupTimeSig:vector  ETV
vector 1590314  Network.dyn_peer[87]  lookupHopsSig:vector  ETV
vector 1590315  Network.dyn_peer[87]  lookupStabilitySig:vector  ETV
vector 1590316  Network.dyn_peer[87]  lookupTimeSig:vector  ETV
vector 1590143  Network.dyn_peer[30]  lookupHopsSig:vector  ETV
vector 1590144  Network.dyn_peer[30]  lookupStabilitySig:vector  ETV
vector 1590145  Network.dyn_peer[30]  lookupTimeSig:vector  ETV
vector 1590263  Network.dyn_peer[70]  lookupHopsSig:vector  ETV
vector 1590264  Network.dyn_peer[70]  lookupStabilitySig:vector  ETV
vector 1590265  Network.dyn_peer[70]  lookupTimeSig:vector  ETV
vector 1590266  Network.dyn_peer[71]  lookupHopsSig:vector  ETV
vector 1590267  Network.dyn_peer[71]  lookupStabilitySig:vector  ETV
vector 1590268  Network.dyn_peer[71]  lookupTimeSig:vector  ETV
vector 1590209  Network.dyn_peer[52]  lookupHopsSig:vector  ETV
vector 1590210  Network.dyn_peer[52]  lookupStabilitySig:vector  ETV
vector 1590211  Network.dyn_peer[52]  lookupTimeSig:vector  ETV
vector 1590212  Network.dyn_peer[53]  lookupHopsSig:vector  ETV
vector 1590213  Network.dyn_peer[53]  lookupStabilitySig:vector  ETV
vector 1590214  Network.dyn_peer[53]  lookupTimeSig:vector  ETV
vector 1590200  Network.dyn_peer[49]  lookupHopsSig:vector  ETV
vector 1590201  Network.dyn_peer[49]  lookupStabilitySig:vector  ETV
vector 1590202  Network.dyn_peer[49]  lookupTimeSig:vector  ETV
vector 1590230  Network.dyn_peer[59]  lookupHopsSig:vector  ETV
vector 1590231  Network.dyn_peer[59]  lookupStabilitySig:vector  ETV
vector 1590232  Network.dyn_peer[59]  lookupTimeSig:vector  ETV
vector 1590290  Network.dyn_peer[79]  lookupHopsSig:vector  ETV
vector 1590291  Network.dyn_peer[79]  lookupStabilitySig:vector  ETV
vector 1590292  Network.dyn_peer[79]  lookupTimeSig:vector  ETV
vector 1590350  Network.dyn_peer[99]  lookupHopsSig:vector  ETV
vector 1590351  Network.dyn_peer[99]  lookupStabilitySig:vector  ETV
vector 1590352  Network.dyn_peer[99]  lookupTimeSig:vector  ETV
vector 1590440  Network.dyn_peer[129]  lookupHopsSig:vector  ETV
vector 1590441  Network.dyn_peer[129]  lookupStabilitySig:vector  ETV
vector 1590442  Network.dyn_peer[129]  lookupTimeSig:vector  ETV
vector 1590293  Network.dyn_peer[80]  lookupHopsSig:vector  ETV
vector 1590294  Network.dyn_peer[80]  lookupStabilitySig:vector  ETV
vector 1590295  Network.dyn_peer[80]  lookupTimeSig:vector  ETV
vector 1590329  Network.dyn_peer[92]  lookupHopsSig:vector  ETV
vector 1590330  Network.dyn_peer[92]  lookupStabilitySig:vector  ETV
vector 1590331  Network.dyn_peer[92]  lookupTimeSig:vector  ETV
vector 1590449  Network.dyn_peer[132]  lookupHopsSig:vector  ETV
vector 1590450  Network.dyn_peer[132]  lookupStabilitySig:vector  ETV
vector 1590451  Network.dyn_peer[132]  lookupTimeSig:vector  ETV
vector 1590458  Network.dyn_peer[135]  lookupHopsSig:vector  ETV
vector 1590459  Network.dyn_peer[135]  lookupStabilitySig:vector  ETV
vector 1590460  Network.dyn_peer[135]  lookupTimeSig:vector  ETV
vector 1590374  Network.dyn_peer[107]  lookupHopsSig:vector  ETV
vector 1590375  Network.dyn_peer[107]  lookupStabilitySig:vector  ETV
vector 1590376  Network.dyn_peer[107]  lookupTimeSig:vector  ETV
vector 1590260  Network.dyn_peer[69]  lookupHopsSig:vector  ETV
vector 1590261  Network.dyn_peer[69]  lookupStabilitySig:vector  ETV
vector 1590262  Network.dyn_peer[69]  lookupTimeSig:vector  ETV
vector 1590269  Network.dyn_peer[72]  lookupHopsSig:vector  ETV
vector 1590270  Network.dyn_peer[72]  lookupStabilitySig:vector  ETV
vector 1590271  Network.dyn_peer[72]  lookupTimeSig:vector  ETV
vector 1590359  Network.dyn_peer[102]  lookupHopsSig:vector  ETV
vector 1590360  Network.dyn_peer[102]  lookupStabilitySig:vector  ETV
vector 1590361  Network.dyn_peer[102]  lookupTimeSig:vector  ETV
vector 1590422  Network.dyn_peer[123]  lookupHopsSig:vector  ETV
vector 1590423  Network.dyn_peer[123]  lookupStabilitySig:vector  ETV
vector 1590424  Network.dyn_peer[123]  lookupTimeSig:vector  ETV
vector 1590371  Network.dyn_peer[106]  lookupHopsSig:vector  ETV
vector 1590372  Network.dyn_peer[106]  lookupStabilitySig:vector  ETV
vector 1590373  Network.dyn_peer[106]  lookupTimeSig:vector  ETV
vector 1590380  Network.dyn_peer[109]  lookupHopsSig:vector  ETV
vector 1590381  Network.dyn_peer[109]  lookupStabilitySig:vector  ETV
vector 1590382  Network.dyn_peer[109]  lookupTimeSig:vector  ETV
vector 1590356  Network.dyn_peer[101]  lookupHopsSig:vector  ETV
vector 1590357  Network.dyn_peer[101]  lookupStabilitySig:vector  ETV
vector 1590358  Network.dyn_peer[101]  lookupTimeSig:vector  ETV
vector 1590509  Network.dyn_peer[152]  lookupHopsSig:vector  ETV
vector 1590510  Network.dyn_peer[152]  lookupStabilitySig:vector  ETV
vector 1590511  Network.dyn_peer[152]  lookupTimeSig:vector  ETV
vector 1590302  Network.dyn_peer[83]  lookupHopsSig:vector  ETV
vector 1590303  Network.dyn_peer[83]  lookupStabilitySig:vector  ETV
vector 1590304  Network.dyn_peer[83]  lookupTimeSig:vector  ETV
vector 1590392  Network.dyn_peer[113]  lookupHopsSig:vector  ETV
vector 1590393  Network.dyn_peer[113]  lookupStabilitySig:vector  ETV
vector 1590394  Network.dyn_peer[113]  lookupTimeSig:vector  ETV
vector 1590311  Network.dyn_peer[86]  lookupHopsSig:vector  ETV
vector 1590312  Network.dyn_peer[86]  lookupStabilitySig:vector  ETV
vector 1590313  Network.dyn_peer[86]  lookupTimeSig:vector  ETV
vector 1590401  Network.dyn_peer[116]  lookupHopsSig:vector  ETV
vector 1590402  Network.dyn_peer[116]  lookupStabilitySig:vector  ETV
vector 1590403  Network.dyn_peer[116]  lookupTimeSig:vector  ETV
vector 1590344  Network.dyn_peer[97]  lookupHopsSig:vector  ETV
vector 1590345  Network.dyn_peer[97]  lookupStabilitySig:vector  ETV
vector 1590346  Network.dyn_peer[97]  lookupTimeSig:vector  ETV
vector 1590434  Network.dyn_peer[127]  lookupHopsSig:vector  ETV
vector 1590435  Network.dyn_peer[127]  lookupStabilitySig:vector  ETV
vector 1590436  Network.dyn_peer[127]  lookupTimeSig:vector  ETV
vector 1590524  Network.dyn_peer[157]  lookupHopsSig:vector  ETV
vector 1590525  Network.dyn_peer[157]  lookupStabilitySig:vector  ETV
vector 1590526  Network.dyn_peer[157]  lookupTimeSig:vector  ETV
vector 1590527  Network.dyn_peer[158]  lookupHopsSig:vector  ETV
vector 1590528  Network.dyn_peer[158]  lookupStabilitySig:vector  ETV
vector 1590529  Network.dyn_peer[158]  lookupTimeSig:vector  ETV
vector 1590470  Network.dyn_peer[139]  lookupHopsSig:vector  ETV
vector 1590471  Network.dyn_peer[139]  lookupStabilitySig:vector  ETV
vector 1590472  Network.dyn_peer[139]  lookupTimeSig:vector  ETV
vector 1590203  Network.dyn_peer[50]  lookupHopsSig:vector  ETV
vector 1590204  Network.dyn_peer[50]  lookupStabilitySig:vector  ETV
vector 1590205  Network.dyn_peer[50]  lookupTimeSig:vector  ETV
vector 1590206  Network.dyn_peer[51]  lookupHopsSig:vector  ETV
vector 1590207  Network.dyn_peer[51]  lookupStabilitySig:vector  ETV
vector 1590208  Network.dyn_peer[51]  lookupTimeSig:vector  ETV
vector 1590326  Network.dyn_peer[91]  lookupHopsSig:vector  ETV
vector 1590327  Network.dyn_peer[91]  lookupStabilitySig:vector  ETV
vector 1590328  Network.dyn_peer[91]  lookupTimeSig:vector  ETV
vector 1590545  Network.dyn_peer[164]  lookupHopsSig:vector  ETV
vector 1590546  Network.dyn_peer[164]  lookupStabilitySig:vector  ETV
vector 1590547  Network.dyn_peer[164]  lookupTimeSig:vector  ETV
vector 1590398  Network.dyn_peer[115]  lookupHopsSig:vector  ETV
vector 1590399  Network.dyn_peer[115]  lookupStabilitySig:vector  ETV
vector 1590400  Network.dyn_peer[115]  lookupTimeSig:vector  ETV
vector 1590467  Network.dyn_peer[138]  lookupHopsSig:vector  ETV
vector 1590468  Network.dyn_peer[138]  lookupStabilitySig:vector  ETV
vector 1590469  Network.dyn_peer[138]  lookupTimeSig:vector  ETV
vector 1590587  Network.dyn_peer[178]  lookupHopsSig:vector  ETV
vector 1590588  Network.dyn_peer[178]  lookupStabilitySig:vector  ETV
vector 1590589  Network.dyn_peer[178]  lookupTimeSig:vector  ETV
vector 1590506  Network.dyn_peer[151]  lookupHopsSig:vector  ETV
vector 1590507  Network.dyn_peer[151]  lookupStabilitySig:vector  ETV
vector 1590508  Network.dyn_peer[151]  lookupTimeSig:vector  ETV
vector 1590161  Network.dyn_peer[36]  lookupHopsSig:vector  ETV
vector 1590162  Network.dyn_peer[36]  lookupStabilitySig:vector  ETV
vector 1590163  Network.dyn_peer[36]  lookupTimeSig:vector  ETV
vector 1590431  Network.dyn_peer[126]  lookupHopsSig:vector  ETV
vector 1590432  Network.dyn_peer[126]  lookupStabilitySig:vector  ETV
vector 1590433  Network.dyn_peer[126]  lookupTimeSig:vector  ETV
vector 1590461  Network.dyn_peer[136]  lookupHopsSig:vector  ETV
vector 1590462  Network.dyn_peer[136]  lookupStabilitySig:vector  ETV
vector 1590463  Network.dyn_peer[136]  lookupTimeSig:vector  ETV
vector 1590554  Network.dyn_peer[167]  lookupHopsSig:vector  ETV
vector 1590555  Network.dyn_peer[167]  lookupStabilitySig:vector  ETV
vector 1590556  Network.dyn_peer[167]  lookupTimeSig:vector  ETV
vector 1590320  Network.dyn_peer[89]  lookupHopsSig:vector  ETV
vector 1590321  Network.dyn_peer[89]  lookupStabilitySig:vector  ETV
vector 1590322  Network.dyn_peer[89]  lookupTimeSig:vector  ETV
vector 1590383  Network.dyn_peer[110]  lookupHopsSig:vector  ETV
vector 1590384  Network.dyn_peer[110]  lookupStabilitySig:vector  ETV
vector 1590385  Network.dyn_peer[110]  lookupTimeSig:vector  ETV
vector 1590473  Network.dyn_peer[140]  lookupHopsSig:vector  ETV
vector 1590474  Network.dyn_peer[140]  lookupStabilitySig:vector  ETV
vector 1590475  Network.dyn_peer[140]  lookupTimeSig:vector  ETV
vector 1590362  Network.dyn_peer[103]  lookupHopsSig:vector  ETV
vector 1590363  Network.dyn_peer[103]  lookupStabilitySig:vector  ETV
vector 1590364  Network.dyn_peer[103]  lookupTimeSig:vector  ETV
vector 1590497  Network.dyn_peer[148]  lookupHopsSig:vector  ETV
vector 1590498  Network.dyn_peer[148]  lookupStabilitySig:vector  ETV
vector 1590499  Network.dyn_peer[148]  lookupTimeSig:vector  ETV
vector 1590410  Network.dyn_peer[119]  lookupHopsSig:vector  ETV
vector 1590411  Network.dyn_peer[119]  lookupStabilitySig:vector  ETV
vector 1590412  Network.dyn_peer[119]  lookupTimeSig:vector  ETV
vector 1590386  Network.dyn_peer[111]  lookupHopsSig:vector  ETV
vector 1590387  Network.dyn_peer[111]  lookupStabilitySig:vector  ETV
vector 1590388  Network.dyn_peer[111]  lookupTimeSig:vector  ETV
vector 1590446  Network.dyn_peer[131]  lookupHopsSig:vector  ETV
vector 1590447  Network.dyn_peer[131]  lookupStabilitySig:vector  ETV
vector 1590448  Network.dyn_peer[131]  lookupTimeSig:vector  ETV
vector 1590242  Network.dyn_peer[63]  lookupHopsSig:vector  ETV
vector 1590243  Network.dyn_peer[63]  lookupStabilitySig:vector  ETV
vector 1590244  Network.dyn_peer[63]  lookupTimeSig:vector  ETV
vector 1590572  Network.dyn_peer[173]  lookupHopsSig:vector  ETV
vector 1590573  Network.dyn_peer[173]  lookupStabilitySig:vector  ETV
vector 1590574  Network.dyn_peer[173]  lookupTimeSig:vector  ETV
vector 1590575  Network.dyn_peer[174]  lookupHopsSig:vector  ETV
vector 1590576  Network.dyn_peer[174]  lookupStabilitySig:vector  ETV
vector 1590577  Network.dyn_peer[174]  lookupTimeSig:vector  ETV
vector 1590605  Network.dyn_peer[184]  lookupHopsSig:vector  ETV
vector 1590606  Network.dyn_peer[184]  lookupStabilitySig:vector  ETV
vector 1590607  Network.dyn_peer[184]  lookupTimeSig:vector  ETV
vector 1590248  Network.dyn_peer[65]  lookupHopsSig:vector  ETV
vector 1590249  Network.dyn_peer[65]  lookupStabilitySig:vector  ETV
vector 1590250  Network.dyn_peer[65]  lookupTimeSig:vector  ETV
vector 1590488  Network.dyn_peer[145]  lookupHopsSig:vector  ETV
vector 1590489  Network.dyn_peer[145]  lookupStabilitySig:vector  ETV
vector 1590490  Network.dyn_peer[145]  lookupTimeSig:vector  ETV
vector 1590521  Network.dyn_peer[156]  lookupHopsSig:vector  ETV
vector 1590522  Network.dyn_peer[156]  lookupStabilitySig:vector  ETV
vector 1590523  Network.dyn_peer[156]  lookupTimeSig:vector  ETV
vector 1590641  Network.dyn_peer[196]  lookupHopsSig:vector  ETV
vector 1590642  Network.dyn_peer[196]  lookupStabilitySig:vector  ETV
vector 1590643  Network.dyn_peer[196]  lookupTimeSig:vector  ETV
vector 1590173  Network.dyn_peer[40]  lookupHopsSig:vector  ETV
vector 1590174  Network.dyn_peer[40]  lookupStabilitySig:vector  ETV
vector 1590175  Network.dyn_peer[40]  lookupTimeSig:vector  ETV
vector 1590233  Network.dyn_peer[60]  lookupHopsSig:vector  ETV
vector 1590234  Network.dyn_peer[60]  lookupStabilitySig:vector  ETV
vector 1590235  Network.dyn_peer[60]  lookupTimeSig:vector  ETV
vector 1590566  Network.dyn_peer[171]  lookupHopsSig:vector  ETV
vector 1590567  Network.dyn_peer[171]  lookupStabilitySig:vector  ETV
vector 1590568  Network.dyn_peer[171]  lookupTimeSig:vector  ETV
vector 1590539  Network.dyn_peer[162]  lookupHopsSig:vector  ETV
vector 1590540  Network.dyn_peer[162]  lookupStabilitySig:vector  ETV
vector 1590541  Network.dyn_peer[162]  lookupTimeSig:vector  ETV
vector 1590452  Network.dyn_peer[133]  lookupHopsSig:vector  ETV
vector 1590453  Network.dyn_peer[133]  lookupStabilitySig:vector  ETV
vector 1590454  Network.dyn_peer[133]  lookupTimeSig:vector  ETV
vector 1590584  Network.dyn_peer[177]  lookupHopsSig:vector  ETV
vector 1590585  Network.dyn_peer[177]  lookupStabilitySig:vector  ETV
vector 1590586  Network.dyn_peer[177]  lookupTimeSig:vector  ETV
vector 1590533  Network.dyn_peer[160]  lookupHopsSig:vector  ETV
vector 1590534  Network.dyn_peer[160]  lookupStabilitySig:vector  ETV
vector 1590535  Network.dyn_peer[160]  lookupTimeSig:vector  ETV
vector 1590149  Network.dyn_peer[32]  lookupHopsSig:vector  ETV
vector 1590150  Network.dyn_peer[32]  lookupStabilitySig:vector  ETV
vector 1590151  Network.dyn_peer[32]  lookupTimeSig:vector  ETV
vector 1590185  Network.dyn_peer[44]  lookupHopsSig:vector  ETV
vector 1590186  Network.dyn_peer[44]  lookupStabilitySig:vector  ETV
vector 1590187  Network.dyn_peer[44]  lookupTimeSig:vector  ETV
vector 1590455  Network.dyn_peer[134]  lookupHopsSig:vector  ETV
vector 1590456  Network.dyn_peer[134]  lookupStabilitySig:vector  ETV
vector 1590457  Network.dyn_peer[134]  lookupTimeSig:vector  ETV
vector 1590518  Network.dyn_peer[155]  lookupHopsSig:vector  ETV
vector 1590519  Network.dyn_peer[155]  lookupStabilitySig:vector  ETV
vector 1590520  Network.dyn_peer[155]  lookupTimeSig:vector  ETV
vector 1590491  Network.dyn_peer[146]  lookupHopsSig:vector  ETV
vector 1590492  Network.dyn_peer[146]  lookupStabilitySig:vector  ETV
vector 1590493  Network.dyn_peer[146]  lookupTimeSig:vector  ETV
vector 1590611  Network.dyn_peer[186]  lookupHopsSig:vector  ETV
vector 1590612  Network.dyn_peer[186]  lookupStabilitySig:vector  ETV
vector 1590613  Network.dyn_peer[186]  lookupTimeSig:vector  ETV
vector 1590494  Network.dyn_peer[147]  lookupHopsSig:vector  ETV
vector 1590495  Network.dyn_peer[147]  lookupStabilitySig:vector  ETV
vector 1590496  Network.dyn_peer[147]  lookupTimeSig:vector  ETV
vector 1590167  Network.dyn_peer[38]  lookupHopsSig:vector  ETV
vector 1590168  Network.dyn_peer[38]  lookupStabilitySig:vector  ETV
vector 1590169  Network.dyn_peer[38]  lookupTimeSig:vector  ETV
vector 1590317  Network.dyn_peer[88]  lookupHopsSig:vector  ETV
vector 1590318  Network.dyn_peer[88]  lookupStabilitySig:vector  ETV
vector 1590319  Network.dyn_peer[88]  lookupTimeSig:vector  ETV
vector 1590557  Network.dyn_peer[168]  lookupHopsSig:vector  ETV
vector 1590558  Network.dyn_peer[168]  lookupStabilitySig:vector  ETV
vector 1590559  Network.dyn_peer[168]  lookupTimeSig:vector  ETV
vector 1590530  Network.dyn_peer[159]  lookupHopsSig:vector  ETV
vector 1590531  Network.dyn_peer[159]  lookupStabilitySig:vector  ETV
vector 1590532  Network.dyn_peer[159]  lookupTimeSig:vector  ETV
vector 1590719  Network.dyn_peer[222]  lookupHopsSig:vector  ETV
vector 1590720  Network.dyn_peer[222]  lookupStabilitySig:vector  ETV
vector 1590721  Network.dyn_peer[222]  lookupTimeSig:vector  ETV
vector 1590485  Network.dyn_peer[144]  lookupHopsSig:vector  ETV
vector 1590486  Network.dyn_peer[144]  lookupStabilitySig:vector  ETV
vector 1590487  Network.dyn_peer[144]  lookupTimeSig:vector  ETV
vector 1590515  Network.dyn_peer[154]  lookupHopsSig:vector  ETV
vector 1590516  Network.dyn_peer[154]  lookupStabilitySig:vector  ETV
vector 1590517  Network.dyn_peer[154]  lookupTimeSig:vector  ETV
vector 1590608  Network.dyn_peer[185]  lookupHopsSig:vector  ETV
vector 1590609  Network.dyn_peer[185]  lookupStabilitySig:vector  ETV
vector 1590610  Network.dyn_peer[185]  lookupTimeSig:vector  ETV
vector 1590281  Network.dyn_peer[76]  lookupHopsSig:vector  ETV
vector 1590282  Network.dyn_peer[76]  lookupStabilitySig:vector  ETV
vector 1590283  Network.dyn_peer[76]  lookupTimeSig:vector  ETV
vector 1590284  Network.dyn_peer[77]  lookupHopsSig:vector  ETV
vector 1590285  Network.dyn_peer[77]  lookupStabilitySig:vector  ETV
vector 1590286  Network.dyn_peer[77]  lookupTimeSig:vector  ETV
vector 1590404  Network.dyn_peer[117]  lookupHopsSig:vector  ETV
vector 1590405  Network.dyn_peer[117]  lookupStabilitySig:vector  ETV
vector 1590406  Network.dyn_peer[117]  lookupTimeSig:vector  ETV
vector 1590347  Network.dyn_peer[98]  lookupHopsSig:vector  ETV
vector 1590348  Network.dyn_peer[98]  lookupStabilitySig:vector  ETV