version 2
run Stability2-71-20130528-01:33:27-24168
attr configname Stability2
attr datetime 20130528-01:33:27
attr experiment Stability2
attr inifile omnetpp.ini
attr iterationvars $0=300
attr iterationvars2 "$0=300, $repetition=1"
attr measurement $0=300
attr network Network
attr processid 24168
attr repetition 1
attr replication #1
attr resultdir results
attr runnumber 71
attr seedset 71

vector 2160071  Network.churner  inGoingSizeSig:vector  ETV
vector 2130092  Network.dyn_peer[7]  lookupHopsSig:vector  ETV
vector 2130093  Network.dyn_peer[7]  lookupStabilitySig:vector  ETV
vector 2130094  Network.dyn_peer[7]  lookupTimeSig:vector  ETV
vector 2130083  Network.dyn_peer[4]  lookupHopsSig:vector  ETV
vector 2130084  Network.dyn_peer[4]  lookupStabilitySig:vector  ETV
vector 2130085  Network.dyn_peer[4]  lookupTimeSig:vector  ETV
vector 2130086  Network.dyn_peer[5]  lookupHopsSig:vector  ETV
vector 2130087  Network.dyn_peer[5]  lookupStabilitySig:vector  ETV
vector 2130088  Network.dyn_peer[5]  lookupTimeSig:vector  ETV
vector 2130089  Network.dyn_peer[6]  lookupHopsSig:vector  ETV
vector 2130090  Network.dyn_peer[6]  lookupStabilitySig:vector  ETV
vector 2130091  Network.dyn_peer[6]  lookupTimeSig:vector  ETV
vector 2130095  Network.dyn_peer[8]  lookupHopsSig:vector  ETV
vector 2130096  Network.dyn_peer[8]  lookupStabilitySig:vector  ETV
vector 2130097  Network.dyn_peer[8]  lookupTimeSig:vector  ETV
vector 2130098  Network.dyn_peer[9]  lookupHopsSig:vector  ETV
vector 2130099  Network.dyn_peer[9]  lookupStabilitySig:vector  ETV
vector 2130100  Network.dyn_peer[9]  lookupTimeSig:vector  ETV
vector 2130107  Network.dyn_peer[12]  lookupHopsSig:vector  ETV
vector 2130108  Network.dyn_peer[12]  lookupStabilitySig:vector  ETV
vector 2130109  Network.dyn_peer[12]  lookupTimeSig:vector  ETV
vector 2130071  Network.dyn_peer[0]  lookupHopsSig:vector  ETV
vector 2130072  Network.dyn_peer[0]  lookupStabilitySig:vector  ETV
vector 2130073  Network.dyn_peer[0]  lookupTimeSig:vector  ETV
vector 2130101  Network.dyn_peer[10]  lookupHopsSig:vector  ETV
vector 2130102  Network.dyn_peer[10]  lookupStabilitySig:vector  ETV
vector 2130103  Network.dyn_peer[10]  lookupTimeSig:vector  ETV
vector 2130131  Network.dyn_peer[20]  lookupHopsSig:vector  ETV
vector 2130132  Network.dyn_peer[20]  lookupStabilitySig:vector  ETV
vector 2130133  Network.dyn_peer[20]  lookupTimeSig:vector  ETV
vector 2130074  Network.dyn_peer[1]  lookupHopsSig:vector  ETV
vector 2130075  Network.dyn_peer[1]  lookupStabilitySig:vector  ETV
vector 2130076  Network.dyn_peer[1]  lookupTimeSig:vector  ETV
vector 2130104  Network.dyn_peer[11]  lookupHopsSig:vector  ETV
vector 2130105  Network.dyn_peer[11]  lookupStabilitySig:vector  ETV
vector 2130106  Network.dyn_peer[11]  lookupTimeSig:vector  ETV
vector 2130134  Network.dyn_peer[21]  lookupHopsSig:vector  ETV
vector 2130135  Network.dyn_peer[21]  lookupStabilitySig:vector  ETV
vector 2130136  Network.dyn_peer[21]  lookupTimeSig:vector  ETV
vector 2130080  Network.dyn_peer[3]  lookupHopsSig:vector  ETV
vector 2130081  Network.dyn_peer[3]  lookupStabilitySig:vector  ETV
vector 2130082  Network.dyn_peer[3]  lookupTimeSig:vector  ETV
vector 2130110  Network.dyn_peer[13]  lookupHopsSig:vector  ETV
vector 2130111  Network.dyn_peer[13]  lookupStabilitySig:vector  ETV
vector 2130112  Network.dyn_peer[13]  lookupTimeSig:vector  ETV
vector 2130149  Network.dyn_peer[26]  lookupHopsSig:vector  ETV
vector 2130150  Network.dyn_peer[26]  lookupStabilitySig:vector  ETV
vector 2130151  Network.dyn_peer[26]  lookupTimeSig:vector  ETV
vector 2130185  Network.dyn_peer[38]  lookupHopsSig:vector  ETV
vector 2130186  Network.dyn_peer[38]  lookupStabilitySig:vector  ETV
vector 2130187  Network.dyn_peer[38]  lookupTimeSig:vector  ETV
vector 2130128  Network.dyn_peer[19]  lookupHopsSig:vector  ETV
vector 2130129  Network.dyn_peer[19]  lookupStabilitySig:vector  ETV
vector 2130130  Network.dyn_peer[19]  lookupTimeSig:vector  ETV
vector 2130077  Network.dyn_peer[2]  lookupHopsSig:vector  ETV
vector 2130078  Network.dyn_peer[2]  lookupStabilitySig:vector  ETV
vector 2130079  Network.dyn_peer[2]  lookupTimeSig:vector  ETV
vector 2130137  Network.dyn_peer[22]  lookupHopsSig:vector  ETV
vector 2130138  Network.dyn_peer[22]  lookupStabilitySig:vector  ETV
vector 2130139  Network.dyn_peer[22]  lookupTimeSig:vector  ETV
vector 2130116  Network.dyn_peer[15]  lookupHopsSig:vector  ETV
vector 2130117  Network.dyn_peer[15]  lookupStabilitySig:vector  ETV
vector 2130118  Network.dyn_peer[15]  lookupTimeSig:vector  ETV
vector 2130152  Network.dyn_peer[27]  lookupHopsSig:vector  ETV
vector 2130153  Network.dyn_peer[27]  lookupStabilitySig:vector  ETV
vector 2130154  Network.dyn_peer[27]  lookupTimeSig:vector  ETV
vector 2130182  Network.dyn_peer[37]  lookupHopsSig:vector  ETV
vector 2130183  Network.dyn_peer[37]  lookupStabilitySig:vector  ETV
vector 2130184  Network.dyn_peer[37]  lookupTimeSig:vector  ETV
vector 2130212  Network.dyn_peer[47]  lookupHopsSig:vector  ETV
vector 2130213  Network.dyn_peer[47]  lookupStabilitySig:vector  ETV
vector 2130214  Network.dyn_peer[47]  lookupTimeSig:vector  ETV
vector 2130158  Network.dyn_peer[29]  lookupHopsSig:vector  ETV
vector 2130159  Network.dyn_peer[29]  lookupStabilitySig:vector  ETV
vector 2130160  Network.dyn_peer[29]  lookupTimeSig:vector  ETV
vector 2130167  Network.dyn_peer[32]  lookupHopsSig:vector  ETV
vector 2130168  Network.dyn_peer[32]  lookupStabilitySig:vector  ETV
vector 2130169  Network.dyn_peer[32]  lookupTimeSig:vector  ETV
vector 2130113  Network.dyn_peer[14]  lookupHopsSig:vector  ETV
vector 2130114  Network.dyn_peer[14]  lookupStabilitySig:vector  ETV
vector 2130115  Network.dyn_peer[14]  lookupTimeSig:vector  ETV
vector 2130143  Network.dyn_peer[24]  lookupHopsSig:vector  ETV
vector 2130144  Network.dyn_peer[24]  lookupStabilitySig:vector  ETV
vector 2130145  Network.dyn_peer[24]  lookupTimeSig:vector  ETV
vector 2130191  Network.dyn_peer[40]  lookupHopsSig:vector  ETV
vector 2130192  Network.dyn_peer[40]  lookupStabilitySig:vector  ETV
vector 2130193  Network.dyn_peer[40]  lookupTimeSig:vector  ETV
vector 2130221  Network.dyn_peer[50]  lookupHopsSig:vector  ETV
vector 2130222  Network.dyn_peer[50]  lookupStabilitySig:vector  ETV
vector 2130223  Network.dyn_peer[50]  lookupTimeSig:vector  ETV
vector 2130140  Network.dyn_peer[23]  lookupHopsSig:vector  ETV
vector 2130141  Network.dyn_peer[23]  lookupStabilitySig:vector  ETV
vector 2130142  Network.dyn_peer[23]  lookupTimeSig:vector  ETV
vector 2130203  Network.dyn_peer[44]  lookupHopsSig:vector  ETV
vector 2130204  Network.dyn_peer[44]  lookupStabilitySig:vector  ETV
vector 2130205  Network.dyn_peer[44]  lookupTimeSig:vector  ETV
vector 2130119  Network.dyn_peer[16]  lookupHopsSig:vector  ETV
vector 2130120  Network.dyn_peer[16]  lookupStabilitySig:vector  ETV
vector 2130121  Network.dyn_peer[16]  lookupTimeSig:vector  ETV
vector 2130125  Network.dyn_peer[18]  lookupHopsSig:vector  ETV
vector 2130126  Network.dyn_peer[18]  lookupStabilitySig:vector  ETV
vector 2130127  Network.dyn_peer[18]  lookupTimeSig:vector  ETV
vector 2130155  Network.dyn_peer[28]  lookupHopsSig:vector  ETV
vector 2130156  Network.dyn_peer[28]  lookupStabilitySig:vector  ETV
vector 2130157  Network.dyn_peer[28]  lookupTimeSig:vector  ETV
vector 2130275  Network.dyn_peer[68]  lookupHopsSig:vector  ETV
vector 2130276  Network.dyn_peer[68]  lookupStabilitySig:vector  ETV
vector 2130277  Network.dyn_peer[68]  lookupTimeSig:vector  ETV
vector 2130218  Network.dyn_peer[49]  lookupHopsSig:vector  ETV
vector 2130219  Network.dyn_peer[49]  lookupStabilitySig:vector  ETV
vector 2130220  Network.dyn_peer[49]  lookupTimeSig:vector  ETV
vector 2130164  Network.dyn_peer[31]  lookupHopsSig:vector  ETV
vector 2130165  Network.dyn_peer[31]  lookupStabilitySig:vector  ETV
vector 2130166  Network.dyn_peer[31]  lookupTimeSig:vector  ETV
vector 2130224  Network.dyn_peer[51]  lookupHopsSig:vector  ETV
vector 2130225  Network.dyn_peer[51]  lookupStabilitySig:vector  ETV
vector 2130226  Network.dyn_peer[51]  lookupTimeSig:vector  ETV
vector 2130200  Network.dyn_peer[43]  lookupHopsSig:vector  ETV
vector 2130201  Network.dyn_peer[43]  lookupStabilitySig:vector  ETV
vector 2130202  Network.dyn_peer[43]  lookupTimeSig:vector  ETV
vector 2130176  Network.dyn_peer[35]  lookupHopsSig:vector  ETV
vector 2130177  Network.dyn_peer[35]  lookupStabilitySig:vector  ETV
vector 2130178  Network.dyn_peer[35]  lookupTimeSig:vector  ETV
vector 2130209  Network.dyn_peer[46]  lookupHopsSig:vector  ETV
vector 2130210  Network.dyn_peer[46]  lookupStabilitySig:vector  ETV
vector 2130211  Network.dyn_peer[46]  lookupTimeSig:vector  ETV
vector 2130122  Network.dyn_peer[17]  lookupHopsSig:vector  ETV
vector 2130123  Network.dyn_peer[17]  lookupStabilitySig:vector  ETV
vector 2130124  Network.dyn_peer[17]  lookupTimeSig:vector  ETV
vector 2130281  Network.dyn_peer[70]  lookupHopsSig:vector  ETV
vector 2130282  Network.dyn_peer[70]  lookupStabilitySig:vector  ETV
vector 2130283  Network.dyn_peer[70]  lookupTimeSig:vector  ETV
vector 2130194  Network.dyn_peer[41]  lookupHopsSig:vector  ETV
vector 2130195  Network.dyn_peer[41]  lookupStabilitySig:vector  ETV
vector 2130196  Network.dyn_peer[41]  lookupTimeSig:vector  ETV
vector 2130284  Network.dyn_peer[71]  lookupHopsSig:vector  ETV
vector 2130285  Network.dyn_peer[71]  lookupStabilitySig:vector  ETV
vector 2130286  Network.dyn_peer[71]  lookupTimeSig:vector  ETV
vector 2130257  Network.dyn_peer[62]  lookupHopsSig:vector  ETV
vector 2130258  Network.dyn_peer[62]  lookupStabilitySig:vector  ETV
vector 2130259  Network.dyn_peer[62]  lookupTimeSig:vector  ETV
vector 2130161  Network.dyn_peer[30]  lookupHopsSig:vector  ETV
vector 2130162  Network.dyn_peer[30]  lookupStabilitySig:vector  ETV
vector 2130163  Network.dyn_peer[30]  lookupTimeSig:vector  ETV
vector 2130290  Network.dyn_peer[73]  lookupHopsSig:vector  ETV
vector 2130291  Network.dyn_peer[73]  lookupStabilitySig:vector  ETV
vector 2130292  Network.dyn_peer[73]  lookupTimeSig:vector  ETV
vector 2130146  Network.dyn_peer[25]  lookupHopsSig:vector  ETV
vector 2130147  Network.dyn_peer[25]  lookupStabilitySig:vector  ETV
vector 2130148  Network.dyn_peer[25]  lookupTimeSig:vector  ETV
vector 2130245  Network.dyn_peer[58]  lookupHopsSig:vector  ETV
vector 2130246  Network.dyn_peer[58]  lookupStabilitySig:vector  ETV
vector 2130247  Network.dyn_peer[58]  lookupTimeSig:vector  ETV
vector 2130179  Network.dyn_peer[36]  lookupHopsSig:vector  ETV
vector 2130180  Network.dyn_peer[36]  lookupStabilitySig:vector  ETV
vector 2130181  Network.dyn_peer[36]  lookupTimeSig:vector  ETV
vector 2130215  Network.dyn_peer[48]  lookupHopsSig:vector  ETV
vector 2130216  Network.dyn_peer[48]  lookupStabilitySig:vector  ETV
vector 2130217  Network.dyn_peer[48]  lookupTimeSig:vector  ETV
vector 2130308  Network.dyn_peer[79]  lookupHopsSig:vector  ETV
vector 2130309  Network.dyn_peer[79]  lookupStabilitySig:vector  ETV
vector 2130310  Network.dyn_peer[79]  lookupTimeSig:vector  ETV
vector 2130368  Network.dyn_peer[99]  lookupHopsSig:vector  ETV
vector 2130369  Network.dyn_peer[99]  lookupStabilitySig:vector  ETV
vector 2130370  Network.dyn_peer[99]  lookupTimeSig:vector  ETV
vector 2130197  Network.dyn_peer[42]  lookupHopsSig:vector  ETV
vector 2130198  Network.dyn_peer[42]  lookupStabilitySig:vector  ETV
vector 2130199  Network.dyn_peer[42]  lookupTimeSig:vector  ETV
vector 2130227  Network.dyn_peer[52]  lookupHopsSig:vector  ETV
vector 2130228  Network.dyn_peer[52]  lookupStabilitySig:vector  ETV
vector 2130229  Network.dyn_peer[52]  lookupTimeSig:vector  ETV
vector 2130347  Network.dyn_peer[92]  lookupHopsSig:vector  ETV
vector 2130348  Network.dyn_peer[92]  lookupStabilitySig:vector  ETV
vector 2130349  Network.dyn_peer[92]  lookupTimeSig:vector  ETV
vector 2130206  Network.dyn_peer[45]  lookupHopsSig:vector  ETV
vector 2130207  Network.dyn_peer[45]  lookupStabilitySig:vector  ETV
vector 2130208  Network.dyn_peer[45]  lookupTimeSig:vector  ETV
vector 2130305  Network.dyn_peer[78]  lookupHopsSig:vector  ETV
vector 2130306  Network.dyn_peer[78]  lookupStabilitySig:vector  ETV
vector 2130307  Network.dyn_peer[78]  lookupTimeSig:vector  ETV
vector 2130188  Network.dyn_peer[39]  lookupHopsSig:vector  ETV
vector 2130189  Network.dyn_peer[39]  lookupStabilitySig:vector  ETV
vector 2130190  Network.dyn_peer[39]  lookupTimeSig:vector  ETV
vector 2130341  Network.dyn_peer[90]  lookupHopsSig:vector  ETV
vector 2130342  Network.dyn_peer[90]  lookupStabilitySig:vector  ETV
vector 2130343  Network.dyn_peer[90]  lookupTimeSig:vector  ETV
vector 2130254  Network.dyn_peer[61]  lookupHopsSig:vector  ETV
vector 2130255  Network.dyn_peer[61]  lookupStabilitySig:vector  ETV
vector 2130256  Network.dyn_peer[61]  lookupTimeSig:vector  ETV
vector 2130287  Network.dyn_peer[72]  lookupHopsSig:vector  ETV
vector 2130288  Network.dyn_peer[72]  lookupStabilitySig:vector  ETV
vector 2130289  Network.dyn_peer[72]  lookupTimeSig:vector  ETV
vector 2130350  Network.dyn_peer[93]  lookupHopsSig:vector  ETV
vector 2130351  Network.dyn_peer[93]  lookupStabilitySig:vector  ETV
vector 2130352  Network.dyn_peer[93]  lookupTimeSig:vector  ETV
vector 2130410  Network.dyn_peer[113]  lookupHopsSig:vector  ETV
vector 2130411  Network.dyn_peer[113]  lookupStabilitySig:vector  ETV
vector 2130412  Network.dyn_peer[113]  lookupTimeSig:vector  ETV
vector 2130359  Network.dyn_peer[96]  lookupHopsSig:vector  ETV
vector 2130360  Network.dyn_peer[96]  lookupStabilitySig:vector  ETV
vector 2130361  Network.dyn_peer[96]  lookupTimeSig:vector  ETV
vector 2130389  Network.dyn_peer[106]  lookupHopsSig:vector  ETV
vector 2130390  Network.dyn_peer[106]  lookupStabilitySig:vector  ETV
vector 2130391  Network.dyn_peer[106]  lookupTimeSig:vector  ETV
vector 2130449  Network.dyn_peer[126]  lookupHopsSig:vector  ETV
vector 2130450  Network.dyn_peer[126]  lookupStabilitySig:vector  ETV
vector 2130451  Network.dyn_peer[126]  lookupTimeSig:vector  ETV
vector 2130395  Network.dyn_peer[108]  lookupHopsSig:vector  ETV
vector 2130396  Network.dyn_peer[108]  lookupStabilitySig:vector  ETV
vector 2130397  Network.dyn_peer[108]  lookupTimeSig:vector  ETV
vector 2130278  Network.dyn_peer[69]  lookupHopsSig:vector  ETV
vector 2130279  Network.dyn_peer[69]  lookupStabilitySig:vector  ETV
vector 2130280  Network.dyn_peer[69]  lookupTimeSig:vector  ETV
vector 2130428  Network.dyn_peer[119]  lookupHopsSig:vector  ETV
vector 2130429  Network.dyn_peer[119]  lookupStabilitySig:vector  ETV
vector 2130430  Network.dyn_peer[119]  lookupTimeSig:vector  ETV
vector 2130317  Network.dyn_peer[82]  lookupHopsSig:vector  ETV
vector 2130318  Network.dyn_peer[82]  lookupStabilitySig:vector  ETV
vector 2130319  Network.dyn_peer[82]  lookupTimeSig:vector  ETV
vector 2130170  Network.dyn_peer[33]  lookupHopsSig:vector  ETV
vector 2130171  Network.dyn_peer[33]  lookupStabilitySig:vector  ETV
vector 2130172  Network.dyn_peer[33]  lookupTimeSig:vector  ETV
vector 2130383  Network.dyn_peer[104]  lookupHopsSig:vector  ETV
vector 2130384  Network.dyn_peer[104]  lookupStabilitySig:vector  ETV
vector 2130385  Network.dyn_peer[104]  lookupTimeSig:vector  ETV
vector 2130356  Network.dyn_peer[95]  lookupHopsSig:vector  ETV
vector 2130357  Network.dyn_peer[95]  lookupStabilitySig:vector  ETV
vector 2130358  Network.dyn_peer[95]  lookupTimeSig:vector  ETV
vector 2130386  Network.dyn_peer[105]  lookupHopsSig:vector  ETV
vector 2130387  Network.dyn_peer[105]  lookupStabilitySig:vector  ETV
vector 2130388  Network.dyn_peer[105]  lookupTimeSig:vector  ETV
vector 2130401  Network.dyn_peer[110]  lookupHopsSig:vector  ETV
vector 2130402  Network.dyn_peer[110]  lookupStabilitySig:vector  ETV
vector 2130403  Network.dyn_peer[110]  lookupTimeSig:vector  ETV
vector 2130407  Network.dyn_peer[112]  lookupHopsSig:vector  ETV
vector 2130408  Network.dyn_peer[112]  lookupStabilitySig:vector  ETV
vector 2130409  Network.dyn_peer[112]  lookupTimeSig:vector  ETV
vector 2130173  Network.dyn_peer[34]  lookupHopsSig:vector  ETV
vector 2130174  Network.dyn_peer[34]  lookupStabilitySig:vector  ETV
vector 2130175  Network.dyn_peer[34]  lookupTimeSig:vector  ETV
vector 2130479  Network.dyn_peer[136]  lookupHopsSig:vector  ETV
vector 2130480  Network.dyn_peer[136]  lookupStabilitySig:vector  ETV
vector 2130481  Network.dyn_peer[136]  lookupTimeSig:vector  ETV
vector 2130242  Network.dyn_peer[57]  lookupHopsSig:vector  ETV
vector 2130243  Network.dyn_peer[57]  lookupStabilitySig:vector  ETV
vector 2130244  Network.dyn_peer[57]  lookupTimeSig:vector  ETV
vector 2130365  Network.dyn_peer[98]  lookupHopsSig:vector  ETV
vector 2130366  Network.dyn_peer[98]  lookupStabilitySig:vector  ETV
vector 2130367  Network.dyn_peer[98]  lookupTimeSig:vector  ETV
vector 2130404  Network.dyn_peer[111]  lookupHopsSig:vector  ETV
vector 2130405  Network.dyn_peer[111]  lookupStabilitySig:vector  ETV
vector 2130406  Network.dyn_peer[111]  lookupTimeSig:vector  ETV
vector 2130464  Network.dyn_peer[131]  lookupHopsSig:vector  ETV
vector 2130465  Network.dyn_peer[131]  lookupStabilitySig:vector  ETV
vector 2130466  Network.dyn_peer[131]  lookupTimeSig:vector  ETV
vector 2130263  Network.dyn_peer[64]  lookupHopsSig:vector  ETV
vector 2130264  Network.dyn_peer[64]  lookupStabilitySig:vector  ETV
vector 2130265  Network.dyn_peer[64]  lookupTimeSig:vector  ETV
vector 2130413  Network.dyn_peer[114]  lookupHopsSig:vector  ETV
vector 2130414  Network.dyn_peer[114]  lookupStabilitySig:vector  ETV
vector 2130415  Network.dyn_peer[114]  lookupTimeSig:vector  ETV
vector 2130266  Network.dyn_peer[65]  lookupHopsSig:vector  ETV
vector 2130267  Network.dyn_peer[65]  lookupStabilitySig:vector  ETV
vector 2130268  Network.dyn_peer[65]  lookupTimeSig:vector  ETV
vector 2130326  Network.dyn_peer[85]  lookupHopsSig:vector  ETV
vector 2130327  Network.dyn_peer[85]  lookupStabilitySig:vector  ETV
vector 2130328  Network.dyn_peer[85]  lookupTimeSig:vector  ETV
vector 2130269  Network.dyn_peer[66]  lookupHopsSig:vector  ETV
vector 2130270  Network.dyn_peer[66]  lookupStabilitySig:vector  ETV
vector 2130271  Network.dyn_peer[66]  lookupTimeSig:vector  ETV
vector 2130272  Network.dyn_peer[67]  lookupHopsSig:vector  ETV
vector 2130273  Network.dyn_peer[67]  lookupStabilitySig:vector  ETV
vector 2130274  Network.dyn_peer[67]  lookupTimeSig:vector  ETV
vector 2130518  Network.dyn_peer[149]  lookupHopsSig:vector  ETV
vector 2130519  Network.dyn_peer[149]  lookupStabilitySig:vector  ETV
vector 2130520  Network.dyn_peer[149]  lookupTimeSig:vector  ETV
vector 2130497  Network.dyn_peer[142]  lookupHopsSig:vector  ETV
vector 2130498  Network.dyn_peer[142]  lookupStabilitySig:vector  ETV
vector 2130499  Network.dyn_peer[142]  lookupTimeSig:vector  ETV
vector 2130353  Network.dyn_peer[94]  lookupHopsSig:vector  ETV
vector 2130354  Network.dyn_peer[94]  lookupStabilitySig:vector  ETV
vector 2130355  Network.dyn_peer[94]  lookupTimeSig:vector  ETV
vector 2130473  Network.dyn_peer[134]  lookupHopsSig:vector  ETV
vector 2130474  Network.dyn_peer[134]  lookupStabilitySig:vector  ETV
vector 2130475  Network.dyn_peer[134]  lookupTimeSig:vector  ETV
vector 2130506  Network.dyn_peer[145]  lookupHopsSig:vector  ETV
vector 2130507  Network.dyn_peer[145]  lookupStabilitySig:vector  ETV
vector 2130508  Network.dyn_peer[145]  lookupTimeSig:vector  ETV
vector 2130329  Network.dyn_peer[86]  lookupHopsSig:vector  ETV
vector 2130330  Network.dyn_peer[86]  lookupStabilitySig:vector  ETV
vector 2130331  Network.dyn_peer[86]  lookupTimeSig:vector  ETV
vector 2130419  Network.dyn_peer[116]  lookupHopsSig:vector  ETV
vector 2130420  Network.dyn_peer[116]  lookupStabilitySig:vector  ETV
vector 2130421  Network.dyn_peer[116]  lookupTimeSig:vector  ETV
vector 2130515  Network.dyn_peer[148]  lookupHopsSig:vector  ETV
vector 2130516  Network.dyn_peer[148]  lookupStabilitySig:vector  ETV
vector 2130517  Network.dyn_peer[148]  lookupTimeSig:vector  ETV
vector 2130491  Network.dyn_peer[140]  lookupHopsSig:vector  ETV
vector 2130492  Network.dyn_peer[140]  lookupStabilitySig:vector  ETV
vector 2130493  Network.dyn_peer[140]  lookupTimeSig:vector  ETV
vector 2130314  Network.dyn_peer[81]  lookupHopsSig:vector  ETV
vector 2130315  Network.dyn_peer[81]  lookupStabilitySig:vector  ETV
vector 2130316  Network.dyn_peer[81]  lookupTimeSig:vector  ETV
vector 2130503  Network.dyn_peer[144]  lookupHopsSig:vector  ETV
vector 2130504  Network.dyn_peer[144]  lookupStabilitySig:vector  ETV
vector 2130505  Network.dyn_peer[144]  lookupTimeSig:vector  ETV
vector 2130416  Network.dyn_peer[115]  lookupHopsSig:vector  ETV
vector 2130417  Network.dyn_peer[115]  lookupStabilitySig:vector  ETV
vector 2130418  Network.dyn_peer[115]  lookupTimeSig:vector  ETV
vector 2130458  Network.dyn_peer[129]  lookupHopsSig:vector  ETV
vector 2130459  Network.dyn_peer[129]  lookupStabilitySig:vector  ETV
vector 2130460  Network.dyn_peer[129]  lookupTimeSig:vector  ETV
vector 2130494  Network.dyn_peer[141]  lookupHopsSig:vector  ETV
vector 2130495  Network.dyn_peer[141]  lookupStabilitySig:vector  ETV
vector 2130496  Network.dyn_peer[141]  lookupTimeSig:vector  ETV
vector 2130293  Network.dyn_peer[74]  lookupHopsSig:vector  ETV
vector 2130294  Network.dyn_peer[74]  lookupStabilitySig:vector  ETV
vector 2130295  Network.dyn_peer[74]  lookupTimeSig:vector  ETV
vector 2130323  Network.dyn_peer[84]  lookupHopsSig:vector  ETV
vector 2130324  Network.dyn_peer[84]  lookupStabilitySig:vector  ETV
vector 2130325  Network.dyn_peer[84]  lookupTimeSig:vector  ETV
vector 2130584  Network.dyn_peer[171]  lookupHopsSig:vector  ETV
vector 2130585  Network.dyn_peer[171]  lookupStabilitySig:vector  ETV
vector 2130586  Network.dyn_peer[171]  lookupTimeSig:vector  ETV
vector 2130566  Network.dyn_peer[165]  lookupHopsSig:vector  ETV
vector 2130567  Network.dyn_peer[165]  lookupStabilitySig:vector  ETV
vector 2130568  Network.dyn_peer[165]  lookupTimeSig:vector  ETV
vector 2130542  Network.dyn_peer[157]  lookupHopsSig:vector  ETV
vector 2130543  Network.dyn_peer[157]  lookupStabilitySig:vector  ETV
vector 2130544  Network.dyn_peer[157]  lookupTimeSig:vector  ETV
vector 2130440  Network.dyn_peer[123]  lookupHopsSig:vector  ETV
vector 2130441  Network.dyn_peer[123]  lookupStabilitySig:vector  ETV
vector 2130442  Network.dyn_peer[123]  lookupTimeSig:vector  ETV
vector 2130590  Network.dyn_peer[173]  lookupHopsSig:vector  ETV
vector 2130591  Network.dyn_peer[173]  lookupStabilitySig:vector  ETV
vector 2130592  Network.dyn_peer[173]  lookupTimeSig:vector  ETV
vector 2130443  Network.dyn_peer[124]  lookupHopsSig:vector  ETV
vector 2130444  Network.dyn_peer[124]  lookupStabilitySig:vector  ETV
vector 2130445  Network.dyn_peer[124]  lookupTimeSig:vector  ETV
vector 2130338  Network.dyn_peer[89]  lookupHopsSig:vector  ETV
vector 2130339  Network.dyn_peer[89]  lookupStabilitySig:vector  ETV
vector 2130340  Network.dyn_peer[89]  lookupTimeSig:vector  ETV
vector 2130371  Network.dyn_peer[100]  lookupHopsSig:vector  ETV
vector 2130372  Network.dyn_peer[100]  lookupStabilitySig:vector  ETV
vector 2130373  Network.dyn_peer[100]  lookupTimeSig:vector  ETV
vector 2130431  Network.dyn_peer[120]  lookupHopsSig:vector  ETV
vector 2130432  Network.dyn_peer[120]  lookupStabilitySig:vector  ETV
vector 2130433  Network.dyn_peer[120]  lookupTimeSig:vector  ETV
vector 2130551  Network.dyn_peer[160]  lookupHopsSig:vector  ETV
vector 2130552  Network.dyn_peer[160]  lookupStabilitySig:vector  ETV
vector 2130553  Network.dyn_peer[160]  lookupTimeSig:vector  ETV
vector 2130434  Network.dyn_peer[121]  lookupHopsSig:vector  ETV
vector 2130435  Network.dyn_peer[121]  lookupStabilitySig:vector  ETV
vector 2130436  Network.dyn_peer[121]  lookupTimeSig:vector  ETV
vector 2130467  Network.dyn_peer[132]  lookupHopsSig:vector  ETV
vector 2130468  Network.dyn_peer[132]  lookupStabilitySig:vector  ETV
vector 2130469  Network.dyn_peer[132]  lookupTimeSig:vector  ETV
vector 2130527  Network.dyn_peer[152]  lookupHopsSig:vector  ETV
vector 2130528  Network.dyn_peer[152]  lookupStabilitySig:vector  ETV
vector 2130529  Network.dyn_peer[152]  lookupTimeSig:vector  ETV
vector 2130236  Network.dyn_peer[55]  lookupHopsSig:vector  ETV
vector 2130237  Network.dyn_peer[55]  lookupStabilitySig:vector  ETV
vector 2130238  Network.dyn_peer[55]  lookupTimeSig:vector  ETV
vector 2130536  Network.dyn_peer[155]  lookupHopsSig:vector  ETV
vector 2130537  Network.dyn_peer[155]  lookupStabilitySig:vector  ETV
vector 2130538  Network.dyn_peer[155]  lookupTimeSig:vector  ETV
vector 2130239  Network.dyn_peer[56]  lookupHopsSig:vector  ETV
vector 2130240  Network.dyn_peer[56]  lookupStabilitySig:vector  ETV
vector 2130241  Network.dyn_peer[56]  lookupTimeSig:vector  ETV
vector 2130332  Network.dyn_peer[87]  lookupHopsSig:vector  ETV
vector 2130333  Network.dyn_peer[87]  lookupStabilitySig:vector  ETV
vector 2130334  Network.dyn_peer[87]  lookupTimeSig:vector  ETV
vector 2130362  Network.dyn_peer[97]  lookupHopsSig:vector  ETV
vector 2130363  Network.dyn_peer[97]  lookupStabilitySig:vector  ETV
vector 2130364  Network.dyn_peer[97]  lookupTimeSig:vector  ETV
vector 2130392  Network.dyn_peer[107]  lookupHopsSig:vector  ETV
vector 2130393  Network.dyn_peer[107]  lookupStabilitySig:vector  ETV
vector 2130394  Network.dyn_peer[107]  lookupTimeSig:vector  ETV
vector 2130638  Network.dyn_peer[189]  lookupHopsSig:vector  ETV
vector 2130639  Network.dyn_peer[189]  lookupStabilitySig:vector  ETV
vector 2130640  Network.dyn_peer[189]  lookupTimeSig:vector  ETV
vector 2130251  Network.dyn_peer[60]  lookupHopsSig:vector  ETV
vector 2130252  Network.dyn_peer[60]  lookupStabilitySig:vector  ETV
vector 2130253  Network.dyn_peer[60]  lookupTimeSig:vector  ETV
vector 2130260  Network.dyn_peer[63]  lookupHopsSig:vector  ETV
vector 2130261  Network.dyn_peer[63]  lookupStabilitySig:vector  ETV
vector 2130262  Network.dyn_peer[63]  lookupTimeSig:vector  ETV
vector 2130530  Network.dyn_peer[153]  lookupHopsSig:vector  ETV
vector 2130531  Network.dyn_peer[153]  lookupStabilitySig:vector  ETV
vector 2130532  Network.dyn_peer[153]  lookupTimeSig:vector  ETV
vector 2130719  Network.dyn_peer[216]  lookupHopsSig:vector  ETV
vector 2130720  Network.dyn_peer[216]  lookupStabilitySig:vector  ETV
vector 2130721  Network.dyn_peer[216]  lookupTimeSig:vector  ETV
vector 2130482  Network.dyn_peer[137]  lookupHopsSig:vector  ETV
vector 2130483  Network.dyn_peer[137]  lookupStabilitySig:vector  ETV
vector 2130484  Network.dyn_peer[137]  lookupTimeSig:vector  ETV
vector 2130512  Network.dyn_peer[147]  lookupHopsSig:vector  ETV
vector 2130513  Network.dyn_peer[147]  lookupStabilitySig:vector  ETV
vector 2130514  Network.dyn_peer[147]  lookupTimeSig:vector  ETV
vector 2130632  Network.dyn_peer[187]  lookupHopsSig:vector  ETV
vector 2130633  Network.dyn_peer[187]  lookupStabilitySig:vector  ETV
vector 2130634  Network.dyn_peer[187]  lookupTimeSig:vector  ETV
vector 2130455  Network.dyn_peer[128]  lookupHopsSig:vector  ETV
vector 2130456  Network.dyn_peer[128]  lookupStabilitySig:vector  ETV
vector 2130457  Network.dyn_peer[128]  lookupTimeSig:vector  ETV
vector 2130545  Network.dyn_peer[158]  lookupHopsSig:vector  ETV
vector 2130546  Network.dyn_peer[158]  lookupStabilitySig:vector  ETV
vector 2130547  Network.dyn_peer[158]  lookupTimeSig:vector  ETV
vector 2130248  Network.dyn_peer[59]  lookupHopsSig:vector  ETV
vector 2130249  Network.dyn_peer[59]  lookupStabilitySig:vector  ETV
vector 2130250  Network.dyn_peer[59]  lookupTimeSig:vector  ETV
vector 2130398  Network.dyn_peer[109]  lookupHopsSig:vector  ETV
vector 2130399  Network.dyn_peer[109]  lookupStabilitySig:vector  ETV
vector 2130400  Network.dyn_peer[109]  lookupTimeSig:vector  ETV
vector 2130377  Network.dyn_peer[102]  lookupHopsSig:vector  ETV
vector 2130378  Network.dyn_peer[102]  lookupStabilitySig:vector  ETV
vector 2130379  Network.dyn_peer[102]  lookupTimeSig:vector  ETV
vector 2130617  Network.dyn_peer[182]  lookupHopsSig:vector  ETV
vector 2130618  Network.dyn_peer[182]  lookupStabilitySig:vector  ETV
vector 2130619  Network.dyn_peer[182]  lookupTimeSig:vector  ETV
vector 2130647  Network.dyn_peer[192]  lookupHopsSig:vector  ETV
vector 2130648  Network.dyn_peer[192]  lookupStabilitySig:vector  ETV
vector 2130649  Network.dyn_peer[192]  lookupTimeSig:vector  ETV
vector 2130767  Network.dyn_peer[232]  lookupHopsSig:vector  ETV
vector 2130768  Network.dyn_peer[232]  lookupStabilitySig:vector  ETV
vector 2130769  Network.dyn_peer[232]  lookupTimeSig:vector  ETV
vector 2130680  Network.dyn_peer[203]  lookupHopsSig:vector  ETV
vector 2130681  Network.dyn_peer[203]  lookupStabilitySig:vector  ETV
vector 2130682  Network.dyn_peer[203]  lookupTimeSig:vector  ETV
vector 2130710  Network.dyn_peer[213]  lookupHopsSig:vector  ETV
vector 2130711  Network.dyn_peer[213]  lookupStabilitySig:vector  ETV
vector 2130712  Network.dyn_peer[213]  lookupTimeSig:vector  ETV
vector 2130233  Network.dyn_peer[54]  lookupHopsSig:vector  ETV
vector 2130234  Network.dyn_peer[54]  lookupStabilitySig:vector  ETV
vector 2130235  Network.dyn_peer[54]  lookupTimeSig:vector  ETV
vector 2130596  Network.dyn_peer[175]  lookupHopsSig:vector  ETV
vector 2130597  Network.dyn_peer[175]  lookupStabilitySig:vector  ETV
vector 2130598  Network.dyn_peer[175]  lookupTimeSig:vector  ETV
vector 2130302  Network.dyn_peer[77]  lookupHopsSig:vector  ETV
vector 2130303  Network.dyn_peer[77]  lookupStabilitySig:vector  ETV
vector 2130304  Network.dyn_peer[77]  lookupTimeSig:vector  ETV
vector 2130665  Network.dyn_peer[198]  lookupHopsSig:vector  ETV
vector 2130666  Network.dyn_peer[198]  lookupStabilitySig:vector  ETV
vector 2130667  Network.dyn_peer[198]  lookupTimeSig:vector  ETV
vector 2130611  Network.dyn_peer[180]  lookupHopsSig:vector  ETV
vector 2130612  Network.dyn_peer[180]  lookupStabilitySig:vector  ETV
vector 2130613  Network.dyn_peer[180]  lookupTimeSig:vector  ETV