version 2
run Stability2-16-20130528-01:23:05-24168
attr configname Stability2
attr datetime 20130528-01:23:05
attr experiment Stability2
attr inifile omnetpp.ini
attr iterationvars $0=20
attr iterationvars2 "$0=20, $repetition=6"
attr measurement $0=20
attr network Network
attr processid 24168
attr repetition 6
attr replication #6
attr resultdir results
attr runnumber 16
attr seedset 16

vector 510016  Network.churner  inGoingSizeSig:vector  ETV
vector 480043  Network.dyn_peer[9]  lookupHopsSig:vector  ETV
vector 480044  Network.dyn_peer[9]  lookupStabilitySig:vector  ETV
vector 480045  Network.dyn_peer[9]  lookupTimeSig:vector  ETV
vector 480016  Network.dyn_peer[0]  lookupHopsSig:vector  ETV
vector 480017  Network.dyn_peer[0]  lookupStabilitySig:vector  ETV
vector 480018  Network.dyn_peer[0]  lookupTimeSig:vector  ETV
vector 480019  Network.dyn_peer[1]  lookupHopsSig:vector  ETV
vector 480020  Network.dyn_peer[1]  lookupStabilitySig:vector  ETV
vector 480021  Network.dyn_peer[1]  lookupTimeSig:vector  ETV
vector 480022  Network.dyn_peer[2]  lookupHopsSig:vector  ETV
vector 480023  Network.dyn_peer[2]  lookupStabilitySig:vector  ETV
vector 480024  Network.dyn_peer[2]  lookupTimeSig:vector  ETV
vector 480025  Network.dyn_peer[3]  lookupHopsSig:vector  ETV
vector 480026  Network.dyn_peer[3]  lookupStabilitySig:vector  ETV
vector 480027  Network.dyn_peer[3]  lookupTimeSig:vector  ETV
vector 480055  Network.dyn_peer[13]  lookupHopsSig:vector  ETV
vector 480056  Network.dyn_peer[13]  lookupStabilitySig:vector  ETV
vector 480057  Network.dyn_peer[13]  lookupTimeSig:vector  ETV
vector 480046  Network.dyn_peer[10]  lookupHopsSig:vector  ETV
vector 480047  Network.dyn_peer[10]  lookupStabilitySig:vector  ETV
vector 480048  Network.dyn_peer[10]  lookupTimeSig:vector  ETV
vector 480049  Network.dyn_peer[11]  lookupHopsSig:vector  ETV
vector 480050  Network.dyn_peer[11]  lookupStabilitySig:vector  ETV
vector 480051  Network.dyn_peer[11]  lookupTimeSig:vector  ETV
vector 480052  Network.dyn_peer[12]  lookupHopsSig:vector  ETV
vector 480053  Network.dyn_peer[12]  lookupStabilitySig:vector  ETV
vector 480054  Network.dyn_peer[12]  lookupTimeSig:vector  ETV
vector 480028  Network.dyn_peer[4]  lookupHopsSig:vector  ETV
vector 480029  Network.dyn_peer[4]  lookupStabilitySig:vector  ETV
vector 480030  Network.dyn_peer[4]  lookupTimeSig:vector  ETV
vector 480058  Network.dyn_peer[14]  lookupHopsSig:vector  ETV
vector 480059  Network.dyn_peer[14]  lookupStabilitySig:vector  ETV
vector 480060  Network.dyn_peer[14]  lookupTimeSig:vector  ETV
vector 480067  Network.dyn_peer[17]  lookupHopsSig:vector  ETV
vector 480068  Network.dyn_peer[17]  lookupStabilitySig:vector  ETV
vector 480069  Network.dyn_peer[17]  lookupTimeSig:vector  ETV
vector 480040  Network.dyn_peer[8]  lookupHopsSig:vector  ETV
vector 480041  Network.dyn_peer[8]  lookupStabilitySig:vector  ETV
vector 480042  Network.dyn_peer[8]  lookupTimeSig:vector  ETV
vector 480082  Network.dyn_peer[22]  lookupHopsSig:vector  ETV
vector 480083  Network.dyn_peer[22]  lookupStabilitySig:vector  ETV
vector 480084  Network.dyn_peer[22]  lookupTimeSig:vector  ETV
vector 480031  Network.dyn_peer[5]  lookupHopsSig:vector  ETV
vector 480032  Network.dyn_peer[5]  lookupStabilitySig:vector  ETV
vector 480033  Network.dyn_peer[5]  lookupTimeSig:vector  ETV
vector 480061  Network.dyn_peer[15]  lookupHopsSig:vector  ETV
vector 480062  Network.dyn_peer[15]  lookupStabilitySig:vector  ETV
vector 480063  Network.dyn_peer[15]  lookupTimeSig:vector  ETV
vector 480037  Network.dyn_peer[7]  lookupHopsSig:vector  ETV
vector 480038  Network.dyn_peer[7]  lookupStabilitySig:vector  ETV
vector 480039  Network.dyn_peer[7]  lookupTimeSig:vector  ETV
vector 480076  Network.dyn_peer[20]  lookupHopsSig:vector  ETV
vector 480077  Network.dyn_peer[20]  lookupStabilitySig:vector  ETV
vector 480078  Network.dyn_peer[20]  lookupTimeSig:vector  ETV
vector 480079  Network.dyn_peer[21]  lookupHopsSig:vector  ETV
vector 480080  Network.dyn_peer[21]  lookupStabilitySig:vector  ETV
vector 480081  Network.dyn_peer[21]  lookupTimeSig:vector  ETV
vector 480034  Network.dyn_peer[6]  lookupHopsSig:vector  ETV
vector 480035  Network.dyn_peer[6]  lookupStabilitySig:vector  ETV
vector 480036  Network.dyn_peer[6]  lookupTimeSig:vector  ETV
vector 480064  Network.dyn_peer[16]  lookupHopsSig:vector  ETV
vector 480065  Network.dyn_peer[16]  lookupStabilitySig:vector  ETV
vector 480066  Network.dyn_peer[16]  lookupTimeSig:vector  ETV
vector 480073  Network.dyn_peer[19]  lookupHopsSig:vector  ETV
vector 480074  Network.dyn_peer[19]  lookupStabilitySig:vector  ETV
vector 480075  Network.dyn_peer[19]  lookupTimeSig:vector  ETV
vector 480106  Network.dyn_peer[30]  lookupHopsSig:vector  ETV
vector 480107  Network.dyn_peer[30]  lookupStabilitySig:vector  ETV
vector 480108  Network.dyn_peer[30]  lookupTimeSig:vector  ETV
vector 480085  Network.dyn_peer[23]  lookupHopsSig:vector  ETV
vector 480086  Network.dyn_peer[23]  lookupStabilitySig:vector  ETV
vector 480087  Network.dyn_peer[23]  lookupTimeSig:vector  ETV
vector 480070  Network.dyn_peer[18]  lookupHopsSig:vector  ETV
vector 480071  Network.dyn_peer[18]  lookupStabilitySig:vector  ETV
vector 480072  Network.dyn_peer[18]  lookupTimeSig:vector  ETV
vector 480166  Network.dyn_peer[50]  lookupHopsSig:vector  ETV
vector 480167  Network.dyn_peer[50]  lookupStabilitySig:vector  ETV
vector 480168  Network.dyn_peer[50]  lookupTimeSig:vector  ETV
vector 480109  Network.dyn_peer[31]  lookupHopsSig:vector  ETV
vector 480110  Network.dyn_peer[31]  lookupStabilitySig:vector  ETV
vector 480111  Network.dyn_peer[31]  lookupTimeSig:vector  ETV
vector 480088  Network.dyn_peer[24]  lookupHopsSig:vector  ETV
vector 480089  Network.dyn_peer[24]  lookupStabilitySig:vector  ETV
vector 480090  Network.dyn_peer[24]  lookupTimeSig:vector  ETV
vector 480121  Network.dyn_peer[35]  lookupHopsSig:vector  ETV
vector 480122  Network.dyn_peer[35]  lookupStabilitySig:vector  ETV
vector 480123  Network.dyn_peer[35]  lookupTimeSig:vector  ETV
vector 480181  Network.dyn_peer[55]  lookupHopsSig:vector  ETV
vector 480182  Network.dyn_peer[55]  lookupStabilitySig:vector  ETV
vector 480183  Network.dyn_peer[55]  lookupTimeSig:vector  ETV
vector 480097  Network.dyn_peer[27]  lookupHopsSig:vector  ETV
vector 480098  Network.dyn_peer[27]  lookupStabilitySig:vector  ETV
vector 480099  Network.dyn_peer[27]  lookupTimeSig:vector  ETV
vector 480130  Network.dyn_peer[38]  lookupHopsSig:vector  ETV
vector 480131  Network.dyn_peer[38]  lookupStabilitySig:vector  ETV
vector 480132  Network.dyn_peer[38]  lookupTimeSig:vector  ETV
vector 480094  Network.dyn_peer[26]  lookupHopsSig:vector  ETV
vector 480095  Network.dyn_peer[26]  lookupStabilitySig:vector  ETV
vector 480096  Network.dyn_peer[26]  lookupTimeSig:vector  ETV
vector 480142  Network.dyn_peer[42]  lookupHopsSig:vector  ETV
vector 480143  Network.dyn_peer[42]  lookupStabilitySig:vector  ETV
vector 480144  Network.dyn_peer[42]  lookupTimeSig:vector  ETV
vector 480202  Network.dyn_peer[62]  lookupHopsSig:vector  ETV
vector 480203  Network.dyn_peer[62]  lookupStabilitySig:vector  ETV
vector 480204  Network.dyn_peer[62]  lookupTimeSig:vector  ETV
vector 480118  Network.dyn_peer[34]  lookupHopsSig:vector  ETV
vector 480119  Network.dyn_peer[34]  lookupStabilitySig:vector  ETV
vector 480120  Network.dyn_peer[34]  lookupTimeSig:vector  ETV
vector 480238  Network.dyn_peer[74]  lookupHopsSig:vector  ETV
vector 480239  Network.dyn_peer[74]  lookupStabilitySig:vector  ETV
vector 480240  Network.dyn_peer[74]  lookupTimeSig:vector  ETV
vector 480241  Network.dyn_peer[75]  lookupHopsSig:vector  ETV
vector 480242  Network.dyn_peer[75]  lookupStabilitySig:vector  ETV
vector 480243  Network.dyn_peer[75]  lookupTimeSig:vector  ETV
vector 480196  Network.dyn_peer[60]  lookupHopsSig:vector  ETV
vector 480197  Network.dyn_peer[60]  lookupStabilitySig:vector  ETV
vector 480198  Network.dyn_peer[60]  lookupTimeSig:vector  ETV
vector 480259  Network.dyn_peer[81]  lookupHopsSig:vector  ETV
vector 480260  Network.dyn_peer[81]  lookupStabilitySig:vector  ETV
vector 480261  Network.dyn_peer[81]  lookupTimeSig:vector  ETV
vector 480298  Network.dyn_peer[94]  lookupHopsSig:vector  ETV
vector 480299  Network.dyn_peer[94]  lookupStabilitySig:vector  ETV
vector 480300  Network.dyn_peer[94]  lookupTimeSig:vector  ETV
vector 480091  Network.dyn_peer[25]  lookupHopsSig:vector  ETV
vector 480092  Network.dyn_peer[25]  lookupStabilitySig:vector  ETV
vector 480093  Network.dyn_peer[25]  lookupTimeSig:vector  ETV
vector 480154  Network.dyn_peer[46]  lookupHopsSig:vector  ETV
vector 480155  Network.dyn_peer[46]  lookupStabilitySig:vector  ETV
vector 480156  Network.dyn_peer[46]  lookupTimeSig:vector  ETV
vector 480103  Network.dyn_peer[29]  lookupHopsSig:vector  ETV
vector 480104  Network.dyn_peer[29]  lookupStabilitySig:vector  ETV
vector 480105  Network.dyn_peer[29]  lookupTimeSig:vector  ETV
vector 480163  Network.dyn_peer[49]  lookupHopsSig:vector  ETV
vector 480164  Network.dyn_peer[49]  lookupStabilitySig:vector  ETV
vector 480165  Network.dyn_peer[49]  lookupTimeSig:vector  ETV
vector 480232  Network.dyn_peer[72]  lookupHopsSig:vector  ETV
vector 480233  Network.dyn_peer[72]  lookupStabilitySig:vector  ETV
vector 480234  Network.dyn_peer[72]  lookupTimeSig:vector  ETV
vector 480124  Network.dyn_peer[36]  lookupHopsSig:vector  ETV
vector 480125  Network.dyn_peer[36]  lookupStabilitySig:vector  ETV
vector 480126  Network.dyn_peer[36]  lookupTimeSig:vector  ETV
vector 480184  Network.dyn_peer[56]  lookupHopsSig:vector  ETV
vector 480185  Network.dyn_peer[56]  lookupStabilitySig:vector  ETV
vector 480186  Network.dyn_peer[56]  lookupTimeSig:vector  ETV
vector 480157  Network.dyn_peer[47]  lookupHopsSig:vector  ETV
vector 480158  Network.dyn_peer[47]  lookupStabilitySig:vector  ETV
vector 480159  Network.dyn_peer[47]  lookupTimeSig:vector  ETV
vector 480112  Network.dyn_peer[32]  lookupHopsSig:vector  ETV
vector 480113  Network.dyn_peer[32]  lookupStabilitySig:vector  ETV
vector 480114  Network.dyn_peer[32]  lookupTimeSig:vector  ETV
vector 480115  Network.dyn_peer[33]  lookupHopsSig:vector  ETV
vector 480116  Network.dyn_peer[33]  lookupStabilitySig:vector  ETV
vector 480117  Network.dyn_peer[33]  lookupTimeSig:vector  ETV
vector 480148  Network.dyn_peer[44]  lookupHopsSig:vector  ETV
vector 480149  Network.dyn_peer[44]  lookupStabilitySig:vector  ETV
vector 480150  Network.dyn_peer[44]  lookupTimeSig:vector  ETV
vector 480178  Network.dyn_peer[54]  lookupHopsSig:vector  ETV
vector 480179  Network.dyn_peer[54]  lookupStabilitySig:vector  ETV
vector 480180  Network.dyn_peer[54]  lookupTimeSig:vector  ETV
vector 480208  Network.dyn_peer[64]  lookupHopsSig:vector  ETV
vector 480209  Network.dyn_peer[64]  lookupStabilitySig:vector  ETV
vector 480210  Network.dyn_peer[64]  lookupTimeSig:vector  ETV
vector 480151  Network.dyn_peer[45]  lookupHopsSig:vector  ETV
vector 480152  Network.dyn_peer[45]  lookupStabilitySig:vector  ETV
vector 480153  Network.dyn_peer[45]  lookupTimeSig:vector  ETV
vector 480127  Network.dyn_peer[37]  lookupHopsSig:vector  ETV
vector 480128  Network.dyn_peer[37]  lookupStabilitySig:vector  ETV
vector 480129  Network.dyn_peer[37]  lookupTimeSig:vector  ETV
vector 480187  Network.dyn_peer[57]  lookupHopsSig:vector  ETV
vector 480188  Network.dyn_peer[57]  lookupStabilitySig:vector  ETV
vector 480189  Network.dyn_peer[57]  lookupTimeSig:vector  ETV
vector 480217  Network.dyn_peer[67]  lookupHopsSig:vector  ETV
vector 480218  Network.dyn_peer[67]  lookupStabilitySig:vector  ETV
vector 480219  Network.dyn_peer[67]  lookupTimeSig:vector  ETV
vector 480247  Network.dyn_peer[77]  lookupHopsSig:vector  ETV
vector 480248  Network.dyn_peer[77]  lookupStabilitySig:vector  ETV
vector 480249  Network.dyn_peer[77]  lookupTimeSig:vector  ETV
vector 480307  Network.dyn_peer[97]  lookupHopsSig:vector  ETV
vector 480308  Network.dyn_peer[97]  lookupStabilitySig:vector  ETV
vector 480309  Network.dyn_peer[97]  lookupTimeSig:vector  ETV
vector 480253  Network.dyn_peer[79]  lookupHopsSig:vector  ETV
vector 480254  Network.dyn_peer[79]  lookupStabilitySig:vector  ETV
vector 480255  Network.dyn_peer[79]  lookupTimeSig:vector  ETV
vector 480145  Network.dyn_peer[43]  lookupHopsSig:vector  ETV
vector 480146  Network.dyn_peer[43]  lookupStabilitySig:vector  ETV
vector 480147  Network.dyn_peer[43]  lookupTimeSig:vector  ETV
vector 480265  Network.dyn_peer[83]  lookupHopsSig:vector  ETV
vector 480266  Network.dyn_peer[83]  lookupStabilitySig:vector  ETV
vector 480267  Network.dyn_peer[83]  lookupTimeSig:vector  ETV
vector 480367  Network.dyn_peer[117]  lookupHopsSig:vector  ETV
vector 480368  Network.dyn_peer[117]  lookupStabilitySig:vector  ETV
vector 480369  Network.dyn_peer[117]  lookupTimeSig:vector  ETV
vector 480250  Network.dyn_peer[78]  lookupHopsSig:vector  ETV
vector 480251  Network.dyn_peer[78]  lookupStabilitySig:vector  ETV
vector 480252  Network.dyn_peer[78]  lookupTimeSig:vector  ETV
vector 480223  Network.dyn_peer[69]  lookupHopsSig:vector  ETV
vector 480224  Network.dyn_peer[69]  lookupStabilitySig:vector  ETV
vector 480225  Network.dyn_peer[69]  lookupTimeSig:vector  ETV
vector 480226  Network.dyn_peer[70]  lookupHopsSig:vector  ETV
vector 480227  Network.dyn_peer[70]  lookupStabilitySig:vector  ETV
vector 480228  Network.dyn_peer[70]  lookupTimeSig:vector  ETV
vector 480286  Network.dyn_peer[90]  lookupHopsSig:vector  ETV
vector 480287  Network.dyn_peer[90]  lookupStabilitySig:vector  ETV
vector 480288  Network.dyn_peer[90]  lookupTimeSig:vector  ETV
vector 480331  Network.dyn_peer[105]  lookupHopsSig:vector  ETV
vector 480332  Network.dyn_peer[105]  lookupStabilitySig:vector  ETV
vector 480333  Network.dyn_peer[105]  lookupTimeSig:vector  ETV
vector 480244  Network.dyn_peer[76]  lookupHopsSig:vector  ETV
vector 480245  Network.dyn_peer[76]  lookupStabilitySig:vector  ETV
vector 480246  Network.dyn_peer[76]  lookupTimeSig:vector  ETV
vector 480337  Network.dyn_peer[107]  lookupHopsSig:vector  ETV
vector 480338  Network.dyn_peer[107]  lookupStabilitySig:vector  ETV
vector 480339  Network.dyn_peer[107]  lookupTimeSig:vector  ETV
vector 480160  Network.dyn_peer[48]  lookupHopsSig:vector  ETV
vector 480161  Network.dyn_peer[48]  lookupStabilitySig:vector  ETV
vector 480162  Network.dyn_peer[48]  lookupTimeSig:vector  ETV
vector 480190  Network.dyn_peer[58]  lookupHopsSig:vector  ETV
vector 480191  Network.dyn_peer[58]  lookupStabilitySig:vector  ETV
vector 480192  Network.dyn_peer[58]  lookupTimeSig:vector  ETV
vector 480136  Network.dyn_peer[40]  lookupHopsSig:vector  ETV
vector 480137  Network.dyn_peer[40]  lookupStabilitySig:vector  ETV
vector 480138  Network.dyn_peer[40]  lookupTimeSig:vector  ETV
vector 480256  Network.dyn_peer[80]  lookupHopsSig:vector  ETV
vector 480257  Network.dyn_peer[80]  lookupStabilitySig:vector  ETV
vector 480258  Network.dyn_peer[80]  lookupTimeSig:vector  ETV
vector 480289  Network.dyn_peer[91]  lookupHopsSig:vector  ETV
vector 480290  Network.dyn_peer[91]  lookupStabilitySig:vector  ETV
vector 480291  Network.dyn_peer[91]  lookupTimeSig:vector  ETV
vector 480172  Network.dyn_peer[52]  lookupHopsSig:vector  ETV
vector 480173  Network.dyn_peer[52]  lookupStabilitySig:vector  ETV
vector 480174  Network.dyn_peer[52]  lookupTimeSig:vector  ETV
vector 480175  Network.dyn_peer[53]  lookupHopsSig:vector  ETV
vector 480176  Network.dyn_peer[53]  lookupStabilitySig:vector  ETV
vector 480177  Network.dyn_peer[53]  lookupTimeSig:vector  ETV
vector 480235  Network.dyn_peer[73]  lookupHopsSig:vector  ETV
vector 480236  Network.dyn_peer[73]  lookupStabilitySig:vector  ETV
vector 480237  Network.dyn_peer[73]  lookupTimeSig:vector  ETV
vector 480295  Network.dyn_peer[93]  lookupHopsSig:vector  ETV
vector 480296  Network.dyn_peer[93]  lookupStabilitySig:vector  ETV
vector 480297  Network.dyn_peer[93]  lookupTimeSig:vector  ETV
vector 480199  Network.dyn_peer[61]  lookupHopsSig:vector  ETV
vector 480200  Network.dyn_peer[61]  lookupStabilitySig:vector  ETV
vector 480201  Network.dyn_peer[61]  lookupTimeSig:vector  ETV
vector 480205  Network.dyn_peer[63]  lookupHopsSig:vector  ETV
vector 480206  Network.dyn_peer[63]  lookupStabilitySig:vector  ETV
vector 480207  Network.dyn_peer[63]  lookupTimeSig:vector  ETV
vector 480355  Network.dyn_peer[113]  lookupHopsSig:vector  ETV
vector 480356  Network.dyn_peer[113]  lookupStabilitySig:vector  ETV
vector 480357  Network.dyn_peer[113]  lookupTimeSig:vector  ETV
vector 480268  Network.dyn_peer[84]  lookupHopsSig:vector  ETV
vector 480269  Network.dyn_peer[84]  lookupStabilitySig:vector  ETV
vector 480270  Network.dyn_peer[84]  lookupTimeSig:vector  ETV
vector 480271  Network.dyn_peer[85]  lookupHopsSig:vector  ETV
vector 480272  Network.dyn_peer[85]  lookupStabilitySig:vector  ETV
vector 480273  Network.dyn_peer[85]  lookupTimeSig:vector  ETV
vector 480301  Network.dyn_peer[95]  lookupHopsSig:vector  ETV
vector 480302  Network.dyn_peer[95]  lookupStabilitySig:vector  ETV
vector 480303  Network.dyn_peer[95]  lookupTimeSig:vector  ETV
vector 480391  Network.dyn_peer[125]  lookupHopsSig:vector  ETV
vector 480392  Network.dyn_peer[125]  lookupStabilitySig:vector  ETV
vector 480393  Network.dyn_peer[125]  lookupTimeSig:vector  ETV
vector 480340  Network.dyn_peer[108]  lookupHopsSig:vector  ETV
vector 480341  Network.dyn_peer[108]  lookupStabilitySig:vector  ETV
vector 480342  Network.dyn_peer[108]  lookupTimeSig:vector  ETV
vector 480283  Network.dyn_peer[89]  lookupHopsSig:vector  ETV
vector 480284  Network.dyn_peer[89]  lookupStabilitySig:vector  ETV
vector 480285  Network.dyn_peer[89]  lookupTimeSig:vector  ETV
vector 480406  Network.dyn_peer[130]  lookupHopsSig:vector  ETV
vector 480407  Network.dyn_peer[130]  lookupStabilitySig:vector  ETV
vector 480408  Network.dyn_peer[130]  lookupTimeSig:vector  ETV
vector 480319  Network.dyn_peer[101]  lookupHopsSig:vector  ETV
vector 480320  Network.dyn_peer[101]  lookupStabilitySig:vector  ETV
vector 480321  Network.dyn_peer[101]  lookupTimeSig:vector  ETV
vector 480292  Network.dyn_peer[92]  lookupHopsSig:vector  ETV
vector 480293  Network.dyn_peer[92]  lookupStabilitySig:vector  ETV
vector 480294  Network.dyn_peer[92]  lookupTimeSig:vector  ETV
vector 480334  Network.dyn_peer[106]  lookupHopsSig:vector  ETV
vector 480335  Network.dyn_peer[106]  lookupStabilitySig:vector  ETV
vector 480336  Network.dyn_peer[106]  lookupTimeSig:vector  ETV
vector 480454  Network.dyn_peer[146]  lookupHopsSig:vector  ETV
vector 480455  Network.dyn_peer[146]  lookupStabilitySig:vector  ETV
vector 480456  Network.dyn_peer[146]  lookupTimeSig:vector  ETV
vector 480100  Network.dyn_peer[28]  lookupHopsSig:vector  ETV
vector 480101  Network.dyn_peer[28]  lookupStabilitySig:vector  ETV
vector 480102  Network.dyn_peer[28]  lookupTimeSig:vector  ETV
vector 480400  Network.dyn_peer[128]  lookupHopsSig:vector  ETV
vector 480401  Network.dyn_peer[128]  lookupStabilitySig:vector  ETV
vector 480402  Network.dyn_peer[128]  lookupTimeSig:vector  ETV
vector 480343  Network.dyn_peer[109]  lookupHopsSig:vector  ETV
vector 480344  Network.dyn_peer[109]  lookupStabilitySig:vector  ETV
vector 480345  Network.dyn_peer[109]  lookupTimeSig:vector  ETV
vector 480436  Network.dyn_peer[140]  lookupHopsSig:vector  ETV
vector 480437  Network.dyn_peer[140]  lookupStabilitySig:vector  ETV
vector 480438  Network.dyn_peer[140]  lookupTimeSig:vector  ETV
vector 480169  Network.dyn_peer[51]  lookupHopsSig:vector  ETV
vector 480170  Network.dyn_peer[51]  lookupStabilitySig:vector  ETV
vector 480171  Network.dyn_peer[51]  lookupTimeSig:vector  ETV
vector 480229  Network.dyn_peer[71]  lookupHopsSig:vector  ETV
vector 480230  Network.dyn_peer[71]  lookupStabilitySig:vector  ETV
vector 480231  Network.dyn_peer[71]  lookupTimeSig:vector  ETV
vector 480412  Network.dyn_peer[132]  lookupHopsSig:vector  ETV
vector 480413  Network.dyn_peer[132]  lookupStabilitySig:vector  ETV
vector 480414  Network.dyn_peer[132]  lookupTimeSig:vector  ETV
vector 480328  Network.dyn_peer[104]  lookupHopsSig:vector  ETV
vector 480329  Network.dyn_peer[104]  lookupStabilitySig:vector  ETV
vector 480330  Network.dyn_peer[104]  lookupTimeSig:vector  ETV
vector 480277  Network.dyn_peer[87]  lookupHopsSig:vector  ETV
vector 480278  Network.dyn_peer[87]  lookupStabilitySig:vector  ETV
vector 480279  Network.dyn_peer[87]  lookupTimeSig:vector  ETV
vector 480139  Network.dyn_peer[41]  lookupHopsSig:vector  ETV
vector 480140  Network.dyn_peer[41]  lookupStabilitySig:vector  ETV
vector 480141  Network.dyn_peer[41]  lookupTimeSig:vector  ETV
vector 480469  Network.dyn_peer[151]  lookupHopsSig:vector  ETV
vector 480470  Network.dyn_peer[151]  lookupStabilitySig:vector  ETV
vector 480471  Network.dyn_peer[151]  lookupTimeSig:vector  ETV
vector 480382  Network.dyn_peer[122]  lookupHopsSig:vector  ETV
vector 480383  Network.dyn_peer[122]  lookupStabilitySig:vector  ETV
vector 480384  Network.dyn_peer[122]  lookupTimeSig:vector  ETV
vector 480505  Network.dyn_peer[163]  lookupHopsSig:vector  ETV
vector 480506  Network.dyn_peer[163]  lookupStabilitySig:vector  ETV
vector 480507  Network.dyn_peer[163]  lookupTimeSig:vector  ETV
vector 480451  Network.dyn_peer[145]  lookupHopsSig:vector  ETV
vector 480452  Network.dyn_peer[145]  lookupStabilitySig:vector  ETV
vector 480453  Network.dyn_peer[145]  lookupTimeSig:vector  ETV
vector 480394  Network.dyn_peer[126]  lookupHopsSig:vector  ETV
vector 480395  Network.dyn_peer[126]  lookupStabilitySig:vector  ETV
vector 480396  Network.dyn_peer[126]  lookupTimeSig:vector  ETV
vector 480280  Network.dyn_peer[88]  lookupHopsSig:vector  ETV
vector 480281  Network.dyn_peer[88]  lookupStabilitySig:vector  ETV
vector 480282  Network.dyn_peer[88]  lookupTimeSig:vector  ETV
vector 480379  Network.dyn_peer[121]  lookupHopsSig:vector  ETV
vector 480380  Network.dyn_peer[121]  lookupStabilitySig:vector  ETV
vector 480381  Network.dyn_peer[121]  lookupTimeSig:vector  ETV
vector 480439  Network.dyn_peer[141]  lookupHopsSig:vector  ETV
vector 480440  Network.dyn_peer[141]  lookupStabilitySig:vector  ETV
vector 480441  Network.dyn_peer[141]  lookupTimeSig:vector  ETV
vector 480442  Network.dyn_peer[142]  lookupHopsSig:vector  ETV
vector 480443  Network.dyn_peer[142]  lookupStabilitySig:vector  ETV
vector 480444  Network.dyn_peer[142]  lookupTimeSig:vector  ETV
vector 480211  Network.dyn_peer[65]  lookupHopsSig:vector  ETV
vector 480212  Network.dyn_peer[65]  lookupStabilitySig:vector  ETV
vector 480213  Network.dyn_peer[65]  lookupTimeSig:vector  ETV
vector 480421  Network.dyn_peer[135]  lookupHopsSig:vector  ETV
vector 480422  Network.dyn_peer[135]  lookupStabilitySig:vector  ETV
vector 480423  Network.dyn_peer[135]  lookupTimeSig:vector  ETV
vector 480574  Network.dyn_peer[186]  lookupHopsSig:vector  ETV
vector 480575  Network.dyn_peer[186]  lookupStabilitySig:vector  ETV
vector 480576  Network.dyn_peer[186]  lookupTimeSig:vector  ETV
vector 480547  Network.dyn_peer[177]  lookupHopsSig:vector  ETV
vector 480548  Network.dyn_peer[177]  lookupStabilitySig:vector  ETV
vector 480549  Network.dyn_peer[177]  lookupTimeSig:vector  ETV
vector 480220  Network.dyn_peer[68]  lookupHopsSig:vector  ETV
vector 480221  Network.dyn_peer[68]  lookupStabilitySig:vector  ETV
vector 480222  Network.dyn_peer[68]  lookupTimeSig:vector  ETV
vector 480460  Network.dyn_peer[148]  lookupHopsSig:vector  ETV
vector 480461  Network.dyn_peer[148]  lookupStabilitySig:vector  ETV
vector 480462  Network.dyn_peer[148]  lookupTimeSig:vector  ETV
vector 480133  Network.dyn_peer[39]  lookupHopsSig:vector  ETV
vector 480134  Network.dyn_peer[39]  lookupStabilitySig:vector  ETV
vector 480135  Network.dyn_peer[39]  lookupTimeSig:vector  ETV
vector 480193  Network.dyn_peer[59]  lookupHopsSig:vector  ETV
vector 480194  Network.dyn_peer[59]  lookupStabilitySig:vector  ETV
vector 480195  Network.dyn_peer[59]  lookupTimeSig:vector  ETV
vector 480403  Network.dyn_peer[129]  lookupHopsSig:vector  ETV
vector 480404  Network.dyn_peer[129]  lookupStabilitySig:vector  ETV
vector 480405  Network.dyn_peer[129]  lookupTimeSig:vector  ETV
vector 480433  Network.dyn_peer[139]  lookupHopsSig:vector  ETV
vector 480434  Network.dyn_peer[139]  lookupStabilitySig:vector  ETV
vector 480435  Network.dyn_peer[139]  lookupTimeSig:vector  ETV
vector 480376  Network.dyn_peer[120]  lookupHopsSig:vector  ETV
vector 480377  Network.dyn_peer[120]  lookupStabilitySig:vector  ETV
vector 480378  Network.dyn_peer[120]  lookupTimeSig:vector  ETV
vector 480352  Network.dyn_peer[112]  lookupHopsSig:vector  ETV
vector 480353  Network.dyn_peer[112]  lookupStabilitySig:vector  ETV
vector 480354  Network.dyn_peer[112]  lookupTimeSig:vector  ETV
vector 480388  Network.dyn_peer[124]  lookupHopsSig:vector  ETV
vector 480389  Network.dyn_peer[124]  lookupStabilitySig:vector  ETV
vector 480390  Network.dyn_peer[124]  lookupTimeSig:vector  ETV
vector 480481  Network.dyn_peer[155]  lookupHopsSig:vector  ETV
vector 480482  Network.dyn_peer[155]  lookupStabilitySig:vector  ETV
vector 480483  Network.dyn_peer[155]  lookupTimeSig:vector  ETV
vector 480274  Network.dyn_peer[86]  lookupHopsSig:vector  ETV
vector 480275  Network.dyn_peer[86]  lookupStabilitySig:vector  ETV
vector 480276  Network.dyn_peer[86]  lookupTimeSig:vector  ETV
vector 480304  Network.dyn_peer[96]  lookupHopsSig:vector  ETV
vector 480305  Network.dyn_peer[96]  lookupStabilitySig:vector  ETV
vector 480306  Network.dyn_peer[96]  lookupTimeSig:vector  ETV
vector 480529  Network.dyn_peer[171]  lookupHopsSig:vector  ETV
vector 480530  Network.dyn_peer[171]  lookupStabilitySig:vector  ETV
vector 480531  Network.dyn_peer[171]  lookupTimeSig:vector  ETV
vector 480589  Network.dyn_peer[191]  lookupHopsSig:vector  ETV
vector 480590  Network.dyn_peer[191]  lookupStabilitySig:vector  ETV
vector 480591  Network.dyn_peer[191]  lookupTimeSig:vector  ETV
vector 480415  Network.dyn_peer[133]  lookupHopsSig:vector  ETV
vector 480416  Network.dyn_peer[133]  lookupStabilitySig:vector  ETV
vector 480417  Network.dyn_peer[133]  lookupTimeSig:vector  ETV
vector 480598  Network.dyn_peer[194]  lookupHopsSig:vector  ETV
vector 480599  Network.dyn_peer[194]  lookupStabilitySig:vector  ETV
vector 480600  Network.dyn_peer[194]  lookupTimeSig:vector  ETV
vector 480361  Network.dyn_peer[115]  lookupHopsSig:vector  ETV
vector 480362  Network.dyn_peer[115]  lookupStabilitySig:vector  ETV
vector 480363  Network.dyn_peer[115]  lookupTimeSig:vector  ETV
vector 480601  Network.dyn_peer[195]  lookupHopsSig:vector  ETV
vector 480602  Network.dyn_peer[195]  lookupStabilitySig:vector  ETV
vector 480603  Network.dyn_peer[195]  lookupTimeSig:vector  ETV
vector 480214  Network.dyn_peer[66]  lookupHopsSig:vector  ETV
vector 480215  Network.dyn_peer[66]  lookupStabilitySig:vector  ETV
vector 480216  Network.dyn_peer[66]  lookupTimeSig:vector  ETV
vector 480424  Network.dyn_peer[136]  lookupHopsSig:vector  ETV
vector 480425  Network.dyn_peer[136]  lookupStabilitySig:vector  ETV
vector 480426  Network.dyn_peer[136]  lookupTimeSig:vector  ETV
vector 480517  Network.dyn_peer[167]  lookupHopsSig:vector  ETV
vector 480518  Network.dyn_peer[167]  lookupStabilitySig:vector  ETV
vector 480519  Network.dyn_peer[167]  lookupTimeSig:vector  ETV
vector 480490  Network.dyn_peer[158]  lookupHopsSig:vector  ETV
vector 480491  Network.dyn_peer[158]  lookupStabilitySig:vector  ETV
vector 480492  Network.dyn_peer[158]  lookupTimeSig:vector  ETV
vector 480499  Network.dyn_peer[161]  lookupHopsSig:vector  ETV
vector 480500  Network.dyn_peer[161]  lookupStabilitySig:vector  ETV
vector 480501  Network.dyn_peer[161]  lookupTimeSig:vector  ETV
vector 480322  Network.dyn_peer[102]  lookupHopsSig:vector  ETV
vector 480323  Network.dyn_peer[102]  lookupStabilitySig:vector  ETV
vector 480324  Network.dyn_peer[102]  lookupTimeSig:vector  ETV
vector 480472  Network.dyn_peer[152]  lookupHopsSig:vector  ETV
vector 480473  Network.dyn_peer[152]  lookupStabilitySig:vector  ETV
vector 480474  Network.dyn_peer[152]  lookupTimeSig:vector  ETV
vector 480487  Network.dyn_peer[157]  lookupHopsSig:vector  ETV
vector 480488  Network.dyn_peer[157]  lookupStabilitySig:vector  ETV
vector 480489  Network.dyn_peer[157]  lookupTimeSig:vector  ETV
vector 480373  Network.dyn_peer[119]  lookupHopsSig:vector  ETV
vector 480374  Network.dyn_peer[119]  lookupStabilitySig:vector  ETV
vector 480375  Network.dyn_peer[119]  lookupTimeSig:vector  ETV
vector 480556  Network.dyn_peer[180]  lookupHopsSig:vector  ETV
vector 480557  Network.dyn_peer[180]  lookupStabilitySig:vector  ETV
vector 480558  Network.dyn_peer[180]  lookupTimeSig:vector  ETV
vector 480595  Network.dyn_peer[193]  lookupHopsSig:vector  ETV
vector 480596  Network.dyn_peer[193]  lookupStabilitySig:vector  ETV
vector 480597  Network.dyn_peer[193]  lookupTimeSig:vector  ETV
vector 480358  Network.dyn_peer[114]  lookupHopsSig:vector  ETV
vector 480359  Network.dyn_peer[114]  lookupStabilitySig:vector  ETV
vector 480360  Network.dyn_peer[114]  lookupTimeSig:vector  ETV
vector 480613  Network.dyn_peer[199]  lookupHopsSig:vector  ETV
vector 480614  Network.dyn_peer[199]  lookupStabilitySig:vector  ETV
vector 480615  Network.dyn_peer[199]  lookupTimeSig:vector  ETV
vector 480346  Network.dyn_peer[110]  lookupHopsSig:vector  ETV
vector 480347  Network.dyn_peer[110]  lookupStabilitySig:vector  ETV
vector 480348  Network.dyn_peer[110]  lookupTimeSig:vector  ETV
vector 480325  Network.dyn_peer[103]  lookupHopsSig:vector  ETV
vector 480326  Network.dyn_peer[103]  lookupStabilitySig:vector  ETV
vector 480327  Network.dyn_peer[103]  lookupTimeSig:vector  ETV
vector 480385  Network.dyn_peer[123]  lookupHopsSig:vector  ETV
vector 480386  Network.dyn_peer[123]  lookupStabilitySig:vector  ETV
vector 480387  Network.dyn_peer[123]  lookupTimeSig:vector  ETV
vector 480508  Network.dyn_peer[164]  lookupHopsSig:vector  ETV