version 2
run Stability2-5-20130528-01:22:06-24168
attr configname Stability2
attr datetime 20130528-01:22:06
attr experiment Stability2
attr inifile omnetpp.ini
attr iterationvars $0=10
attr iterationvars2 "$0=10, $repetition=5"
attr measurement $0=10
attr network Network
attr processid 24168
attr repetition 5
attr replication #5
attr resultdir results
attr runnumber 5
attr seedset 5

vector 180005  Network.churner  inGoingSizeSig:vector  ETV
vector 150005  Network.dyn_peer[0]  lookupHopsSig:vector  ETV
vector 150006  Network.dyn_peer[0]  lookupStabilitySig:vector  ETV
vector 150007  Network.dyn_peer[0]  lookupTimeSig:vector  ETV
vector 150008  Network.dyn_peer[1]  lookupHopsSig:vector  ETV
vector 150009  Network.dyn_peer[1]  lookupStabilitySig:vector  ETV
vector 150010  Network.dyn_peer[1]  lookupTimeSig:vector  ETV
vector 150026  Network.dyn_peer[7]  lookupHopsSig:vector  ETV
vector 150027  Network.dyn_peer[7]  lookupStabilitySig:vector  ETV
vector 150028  Network.dyn_peer[7]  lookupTimeSig:vector  ETV
vector 150014  Network.dyn_peer[3]  lookupHopsSig:vector  ETV
vector 150015  Network.dyn_peer[3]  lookupStabilitySig:vector  ETV
vector 150016  Network.dyn_peer[3]  lookupTimeSig:vector  ETV
vector 150017  Network.dyn_peer[4]  lookupHopsSig:vector  ETV
vector 150018  Network.dyn_peer[4]  lookupStabilitySig:vector  ETV
vector 150019  Network.dyn_peer[4]  lookupTimeSig:vector  ETV
vector 150020  Network.dyn_peer[5]  lookupHopsSig:vector  ETV
vector 150021  Network.dyn_peer[5]  lookupStabilitySig:vector  ETV
vector 150022  Network.dyn_peer[5]  lookupTimeSig:vector  ETV
vector 150032  Network.dyn_peer[9]  lookupHopsSig:vector  ETV
vector 150033  Network.dyn_peer[9]  lookupStabilitySig:vector  ETV
vector 150034  Network.dyn_peer[9]  lookupTimeSig:vector  ETV
vector 150068  Network.dyn_peer[21]  lookupHopsSig:vector  ETV
vector 150069  Network.dyn_peer[21]  lookupStabilitySig:vector  ETV
vector 150070  Network.dyn_peer[21]  lookupTimeSig:vector  ETV
vector 150047  Network.dyn_peer[14]  lookupHopsSig:vector  ETV
vector 150048  Network.dyn_peer[14]  lookupStabilitySig:vector  ETV
vector 150049  Network.dyn_peer[14]  lookupTimeSig:vector  ETV
vector 150029  Network.dyn_peer[8]  lookupHopsSig:vector  ETV
vector 150030  Network.dyn_peer[8]  lookupStabilitySig:vector  ETV
vector 150031  Network.dyn_peer[8]  lookupTimeSig:vector  ETV
vector 150065  Network.dyn_peer[20]  lookupHopsSig:vector  ETV
vector 150066  Network.dyn_peer[20]  lookupStabilitySig:vector  ETV
vector 150067  Network.dyn_peer[20]  lookupTimeSig:vector  ETV
vector 150011  Network.dyn_peer[2]  lookupHopsSig:vector  ETV
vector 150012  Network.dyn_peer[2]  lookupStabilitySig:vector  ETV
vector 150013  Network.dyn_peer[2]  lookupTimeSig:vector  ETV
vector 150044  Network.dyn_peer[13]  lookupHopsSig:vector  ETV
vector 150045  Network.dyn_peer[13]  lookupStabilitySig:vector  ETV
vector 150046  Network.dyn_peer[13]  lookupTimeSig:vector  ETV
vector 150077  Network.dyn_peer[24]  lookupHopsSig:vector  ETV
vector 150078  Network.dyn_peer[24]  lookupStabilitySig:vector  ETV
vector 150079  Network.dyn_peer[24]  lookupTimeSig:vector  ETV
vector 150050  Network.dyn_peer[15]  lookupHopsSig:vector  ETV
vector 150051  Network.dyn_peer[15]  lookupStabilitySig:vector  ETV
vector 150052  Network.dyn_peer[15]  lookupTimeSig:vector  ETV
vector 150056  Network.dyn_peer[17]  lookupHopsSig:vector  ETV
vector 150057  Network.dyn_peer[17]  lookupStabilitySig:vector  ETV
vector 150058  Network.dyn_peer[17]  lookupTimeSig:vector  ETV
vector 150038  Network.dyn_peer[11]  lookupHopsSig:vector  ETV
vector 150039  Network.dyn_peer[11]  lookupStabilitySig:vector  ETV
vector 150040  Network.dyn_peer[11]  lookupTimeSig:vector  ETV
vector 150041  Network.dyn_peer[12]  lookupHopsSig:vector  ETV
vector 150042  Network.dyn_peer[12]  lookupStabilitySig:vector  ETV
vector 150043  Network.dyn_peer[12]  lookupTimeSig:vector  ETV
vector 150071  Network.dyn_peer[22]  lookupHopsSig:vector  ETV
vector 150072  Network.dyn_peer[22]  lookupStabilitySig:vector  ETV
vector 150073  Network.dyn_peer[22]  lookupTimeSig:vector  ETV
vector 150053  Network.dyn_peer[16]  lookupHopsSig:vector  ETV
vector 150054  Network.dyn_peer[16]  lookupStabilitySig:vector  ETV
vector 150055  Network.dyn_peer[16]  lookupTimeSig:vector  ETV
vector 150083  Network.dyn_peer[26]  lookupHopsSig:vector  ETV
vector 150084  Network.dyn_peer[26]  lookupStabilitySig:vector  ETV
vector 150085  Network.dyn_peer[26]  lookupTimeSig:vector  ETV
vector 150086  Network.dyn_peer[27]  lookupHopsSig:vector  ETV
vector 150087  Network.dyn_peer[27]  lookupStabilitySig:vector  ETV
vector 150088  Network.dyn_peer[27]  lookupTimeSig:vector  ETV
vector 150059  Network.dyn_peer[18]  lookupHopsSig:vector  ETV
vector 150060  Network.dyn_peer[18]  lookupStabilitySig:vector  ETV
vector 150061  Network.dyn_peer[18]  lookupTimeSig:vector  ETV
vector 150092  Network.dyn_peer[29]  lookupHopsSig:vector  ETV
vector 150093  Network.dyn_peer[29]  lookupStabilitySig:vector  ETV
vector 150094  Network.dyn_peer[29]  lookupTimeSig:vector  ETV
vector 150035  Network.dyn_peer[10]  lookupHopsSig:vector  ETV
vector 150036  Network.dyn_peer[10]  lookupStabilitySig:vector  ETV
vector 150037  Network.dyn_peer[10]  lookupTimeSig:vector  ETV
vector 150095  Network.dyn_peer[30]  lookupHopsSig:vector  ETV
vector 150096  Network.dyn_peer[30]  lookupStabilitySig:vector  ETV
vector 150097  Network.dyn_peer[30]  lookupTimeSig:vector  ETV
vector 150101  Network.dyn_peer[32]  lookupHopsSig:vector  ETV
vector 150102  Network.dyn_peer[32]  lookupStabilitySig:vector  ETV
vector 150103  Network.dyn_peer[32]  lookupTimeSig:vector  ETV
vector 150140  Network.dyn_peer[45]  lookupHopsSig:vector  ETV
vector 150141  Network.dyn_peer[45]  lookupStabilitySig:vector  ETV
vector 150142  Network.dyn_peer[45]  lookupTimeSig:vector  ETV
vector 150146  Network.dyn_peer[47]  lookupHopsSig:vector  ETV
vector 150147  Network.dyn_peer[47]  lookupStabilitySig:vector  ETV
vector 150148  Network.dyn_peer[47]  lookupTimeSig:vector  ETV
vector 150089  Network.dyn_peer[28]  lookupHopsSig:vector  ETV
vector 150090  Network.dyn_peer[28]  lookupStabilitySig:vector  ETV
vector 150091  Network.dyn_peer[28]  lookupTimeSig:vector  ETV
vector 150119  Network.dyn_peer[38]  lookupHopsSig:vector  ETV
vector 150120  Network.dyn_peer[38]  lookupStabilitySig:vector  ETV
vector 150121  Network.dyn_peer[38]  lookupTimeSig:vector  ETV
vector 150074  Network.dyn_peer[23]  lookupHopsSig:vector  ETV
vector 150075  Network.dyn_peer[23]  lookupStabilitySig:vector  ETV
vector 150076  Network.dyn_peer[23]  lookupTimeSig:vector  ETV
vector 150164  Network.dyn_peer[53]  lookupHopsSig:vector  ETV
vector 150165  Network.dyn_peer[53]  lookupStabilitySig:vector  ETV
vector 150166  Network.dyn_peer[53]  lookupTimeSig:vector  ETV
vector 150149  Network.dyn_peer[48]  lookupHopsSig:vector  ETV
vector 150150  Network.dyn_peer[48]  lookupStabilitySig:vector  ETV
vector 150151  Network.dyn_peer[48]  lookupTimeSig:vector  ETV
vector 150062  Network.dyn_peer[19]  lookupHopsSig:vector  ETV
vector 150063  Network.dyn_peer[19]  lookupStabilitySig:vector  ETV
vector 150064  Network.dyn_peer[19]  lookupTimeSig:vector  ETV
vector 150125  Network.dyn_peer[40]  lookupHopsSig:vector  ETV
vector 150126  Network.dyn_peer[40]  lookupStabilitySig:vector  ETV
vector 150127  Network.dyn_peer[40]  lookupTimeSig:vector  ETV
vector 150158  Network.dyn_peer[51]  lookupHopsSig:vector  ETV
vector 150159  Network.dyn_peer[51]  lookupStabilitySig:vector  ETV
vector 150160  Network.dyn_peer[51]  lookupTimeSig:vector  ETV
vector 150104  Network.dyn_peer[33]  lookupHopsSig:vector  ETV
vector 150105  Network.dyn_peer[33]  lookupStabilitySig:vector  ETV
vector 150106  Network.dyn_peer[33]  lookupTimeSig:vector  ETV
vector 150113  Network.dyn_peer[36]  lookupHopsSig:vector  ETV
vector 150114  Network.dyn_peer[36]  lookupStabilitySig:vector  ETV
vector 150115  Network.dyn_peer[36]  lookupTimeSig:vector  ETV
vector 150152  Network.dyn_peer[49]  lookupHopsSig:vector  ETV
vector 150153  Network.dyn_peer[49]  lookupStabilitySig:vector  ETV
vector 150154  Network.dyn_peer[49]  lookupTimeSig:vector  ETV
vector 150182  Network.dyn_peer[59]  lookupHopsSig:vector  ETV
vector 150183  Network.dyn_peer[59]  lookupStabilitySig:vector  ETV
vector 150184  Network.dyn_peer[59]  lookupTimeSig:vector  ETV
vector 150212  Network.dyn_peer[69]  lookupHopsSig:vector  ETV
vector 150213  Network.dyn_peer[69]  lookupStabilitySig:vector  ETV
vector 150214  Network.dyn_peer[69]  lookupTimeSig:vector  ETV
vector 150134  Network.dyn_peer[43]  lookupHopsSig:vector  ETV
vector 150135  Network.dyn_peer[43]  lookupStabilitySig:vector  ETV
vector 150136  Network.dyn_peer[43]  lookupTimeSig:vector  ETV
vector 150194  Network.dyn_peer[63]  lookupHopsSig:vector  ETV
vector 150195  Network.dyn_peer[63]  lookupStabilitySig:vector  ETV
vector 150196  Network.dyn_peer[63]  lookupTimeSig:vector  ETV
vector 150137  Network.dyn_peer[44]  lookupHopsSig:vector  ETV
vector 150138  Network.dyn_peer[44]  lookupStabilitySig:vector  ETV
vector 150139  Network.dyn_peer[44]  lookupTimeSig:vector  ETV
vector 150197  Network.dyn_peer[64]  lookupHopsSig:vector  ETV
vector 150198  Network.dyn_peer[64]  lookupStabilitySig:vector  ETV
vector 150199  Network.dyn_peer[64]  lookupTimeSig:vector  ETV
vector 150200  Network.dyn_peer[65]  lookupHopsSig:vector  ETV
vector 150201  Network.dyn_peer[65]  lookupStabilitySig:vector  ETV
vector 150202  Network.dyn_peer[65]  lookupTimeSig:vector  ETV
vector 150023  Network.dyn_peer[6]  lookupHopsSig:vector  ETV
vector 150024  Network.dyn_peer[6]  lookupStabilitySig:vector  ETV
vector 150025  Network.dyn_peer[6]  lookupTimeSig:vector  ETV
vector 150269  Network.dyn_peer[88]  lookupHopsSig:vector  ETV
vector 150270  Network.dyn_peer[88]  lookupStabilitySig:vector  ETV
vector 150271  Network.dyn_peer[88]  lookupTimeSig:vector  ETV
vector 150110  Network.dyn_peer[35]  lookupHopsSig:vector  ETV
vector 150111  Network.dyn_peer[35]  lookupStabilitySig:vector  ETV
vector 150112  Network.dyn_peer[35]  lookupTimeSig:vector  ETV
vector 150179  Network.dyn_peer[58]  lookupHopsSig:vector  ETV
vector 150180  Network.dyn_peer[58]  lookupStabilitySig:vector  ETV
vector 150181  Network.dyn_peer[58]  lookupTimeSig:vector  ETV
vector 150131  Network.dyn_peer[42]  lookupHopsSig:vector  ETV
vector 150132  Network.dyn_peer[42]  lookupStabilitySig:vector  ETV
vector 150133  Network.dyn_peer[42]  lookupTimeSig:vector  ETV
vector 150161  Network.dyn_peer[52]  lookupHopsSig:vector  ETV
vector 150162  Network.dyn_peer[52]  lookupStabilitySig:vector  ETV
vector 150163  Network.dyn_peer[52]  lookupTimeSig:vector  ETV
vector 150251  Network.dyn_peer[82]  lookupHopsSig:vector  ETV
vector 150252  Network.dyn_peer[82]  lookupStabilitySig:vector  ETV
vector 150253  Network.dyn_peer[82]  lookupTimeSig:vector  ETV
vector 150257  Network.dyn_peer[84]  lookupHopsSig:vector  ETV
vector 150258  Network.dyn_peer[84]  lookupStabilitySig:vector  ETV
vector 150259  Network.dyn_peer[84]  lookupTimeSig:vector  ETV
vector 150080  Network.dyn_peer[25]  lookupHopsSig:vector  ETV
vector 150081  Network.dyn_peer[25]  lookupStabilitySig:vector  ETV
vector 150082  Network.dyn_peer[25]  lookupTimeSig:vector  ETV
vector 150173  Network.dyn_peer[56]  lookupHopsSig:vector  ETV
vector 150174  Network.dyn_peer[56]  lookupStabilitySig:vector  ETV
vector 150175  Network.dyn_peer[56]  lookupTimeSig:vector  ETV
vector 150185  Network.dyn_peer[60]  lookupHopsSig:vector  ETV
vector 150186  Network.dyn_peer[60]  lookupStabilitySig:vector  ETV
vector 150187  Network.dyn_peer[60]  lookupTimeSig:vector  ETV
vector 150218  Network.dyn_peer[71]  lookupHopsSig:vector  ETV
vector 150219  Network.dyn_peer[71]  lookupStabilitySig:vector  ETV
vector 150220  Network.dyn_peer[71]  lookupTimeSig:vector  ETV
vector 150107  Network.dyn_peer[34]  lookupHopsSig:vector  ETV
vector 150108  Network.dyn_peer[34]  lookupStabilitySig:vector  ETV
vector 150109  Network.dyn_peer[34]  lookupTimeSig:vector  ETV
vector 150245  Network.dyn_peer[80]  lookupHopsSig:vector  ETV
vector 150246  Network.dyn_peer[80]  lookupStabilitySig:vector  ETV
vector 150247  Network.dyn_peer[80]  lookupTimeSig:vector  ETV
vector 150281  Network.dyn_peer[92]  lookupHopsSig:vector  ETV
vector 150282  Network.dyn_peer[92]  lookupStabilitySig:vector  ETV
vector 150283  Network.dyn_peer[92]  lookupTimeSig:vector  ETV
vector 150254  Network.dyn_peer[83]  lookupHopsSig:vector  ETV
vector 150255  Network.dyn_peer[83]  lookupStabilitySig:vector  ETV
vector 150256  Network.dyn_peer[83]  lookupTimeSig:vector  ETV
vector 150266  Network.dyn_peer[87]  lookupHopsSig:vector  ETV
vector 150267  Network.dyn_peer[87]  lookupStabilitySig:vector  ETV
vector 150268  Network.dyn_peer[87]  lookupTimeSig:vector  ETV
vector 150296  Network.dyn_peer[97]  lookupHopsSig:vector  ETV
vector 150297  Network.dyn_peer[97]  lookupStabilitySig:vector  ETV
vector 150298  Network.dyn_peer[97]  lookupTimeSig:vector  ETV
vector 150272  Network.dyn_peer[89]  lookupHopsSig:vector  ETV
vector 150273  Network.dyn_peer[89]  lookupStabilitySig:vector  ETV
vector 150274  Network.dyn_peer[89]  lookupTimeSig:vector  ETV
vector 150128  Network.dyn_peer[41]  lookupHopsSig:vector  ETV
vector 150129  Network.dyn_peer[41]  lookupStabilitySig:vector  ETV
vector 150130  Network.dyn_peer[41]  lookupTimeSig:vector  ETV
vector 150188  Network.dyn_peer[61]  lookupHopsSig:vector  ETV
vector 150189  Network.dyn_peer[61]  lookupStabilitySig:vector  ETV
vector 150190  Network.dyn_peer[61]  lookupTimeSig:vector  ETV
vector 150122  Network.dyn_peer[39]  lookupHopsSig:vector  ETV
vector 150123  Network.dyn_peer[39]  lookupStabilitySig:vector  ETV
vector 150124  Network.dyn_peer[39]  lookupTimeSig:vector  ETV
vector 150275  Network.dyn_peer[90]  lookupHopsSig:vector  ETV
vector 150276  Network.dyn_peer[90]  lookupStabilitySig:vector  ETV
vector 150277  Network.dyn_peer[90]  lookupTimeSig:vector  ETV
vector 150098  Network.dyn_peer[31]  lookupHopsSig:vector  ETV
vector 150099  Network.dyn_peer[31]  lookupStabilitySig:vector  ETV
vector 150100  Network.dyn_peer[31]  lookupTimeSig:vector  ETV
vector 150287  Network.dyn_peer[94]  lookupHopsSig:vector  ETV
vector 150288  Network.dyn_peer[94]  lookupStabilitySig:vector  ETV
vector 150289  Network.dyn_peer[94]  lookupTimeSig:vector  ETV
vector 150206  Network.dyn_peer[67]  lookupHopsSig:vector  ETV
vector 150207  Network.dyn_peer[67]  lookupStabilitySig:vector  ETV
vector 150208  Network.dyn_peer[67]  lookupTimeSig:vector  ETV
vector 150239  Network.dyn_peer[78]  lookupHopsSig:vector  ETV
vector 150240  Network.dyn_peer[78]  lookupStabilitySig:vector  ETV
vector 150241  Network.dyn_peer[78]  lookupTimeSig:vector  ETV
vector 150248  Network.dyn_peer[81]  lookupHopsSig:vector  ETV
vector 150249  Network.dyn_peer[81]  lookupStabilitySig:vector  ETV
vector 150250  Network.dyn_peer[81]  lookupTimeSig:vector  ETV
vector 150191  Network.dyn_peer[62]  lookupHopsSig:vector  ETV
vector 150192  Network.dyn_peer[62]  lookupStabilitySig:vector  ETV
vector 150193  Network.dyn_peer[62]  lookupTimeSig:vector  ETV
vector 150227  Network.dyn_peer[74]  lookupHopsSig:vector  ETV
vector 150228  Network.dyn_peer[74]  lookupStabilitySig:vector  ETV
vector 150229  Network.dyn_peer[74]  lookupTimeSig:vector  ETV
vector 150203  Network.dyn_peer[66]  lookupHopsSig:vector  ETV
vector 150204  Network.dyn_peer[66]  lookupStabilitySig:vector  ETV
vector 150205  Network.dyn_peer[66]  lookupTimeSig:vector  ETV
vector 150242  Network.dyn_peer[79]  lookupHopsSig:vector  ETV
vector 150243  Network.dyn_peer[79]  lookupStabilitySig:vector  ETV
vector 150244  Network.dyn_peer[79]  lookupTimeSig:vector  ETV
vector 150215  Network.dyn_peer[70]  lookupHopsSig:vector  ETV
vector 150216  Network.dyn_peer[70]  lookupStabilitySig:vector  ETV
vector 150217  Network.dyn_peer[70]  lookupTimeSig:vector  ETV
vector 150284  Network.dyn_peer[93]  lookupHopsSig:vector  ETV
vector 150285  Network.dyn_peer[93]  lookupStabilitySig:vector  ETV
vector 150286  Network.dyn_peer[93]  lookupTimeSig:vector  ETV
vector 150143  Network.dyn_peer[46]  lookupHopsSig:vector  ETV
vector 150144  Network.dyn_peer[46]  lookupStabilitySig:vector  ETV
vector 150145  Network.dyn_peer[46]  lookupTimeSig:vector  ETV
vector 150263  Network.dyn_peer[86]  lookupHopsSig:vector  ETV
vector 150264  Network.dyn_peer[86]  lookupStabilitySig:vector  ETV
vector 150265  Network.dyn_peer[86]  lookupTimeSig:vector  ETV
vector 150302  Network.dyn_peer[99]  lookupHopsSig:vector  ETV
vector 150303  Network.dyn_peer[99]  lookupStabilitySig:vector  ETV
vector 150304  Network.dyn_peer[99]  lookupTimeSig:vector  ETV
vector 150230  Network.dyn_peer[75]  lookupHopsSig:vector  ETV
vector 150231  Network.dyn_peer[75]  lookupStabilitySig:vector  ETV
vector 150232  Network.dyn_peer[75]  lookupTimeSig:vector  ETV
vector 150290  Network.dyn_peer[95]  lookupHopsSig:vector  ETV
vector 150291  Network.dyn_peer[95]  lookupStabilitySig:vector  ETV
vector 150292  Network.dyn_peer[95]  lookupTimeSig:vector  ETV
vector 150293  Network.dyn_peer[96]  lookupHopsSig:vector  ETV
vector 150294  Network.dyn_peer[96]  lookupStabilitySig:vector  ETV
vector 150295  Network.dyn_peer[96]  lookupTimeSig:vector  ETV
vector 150167  Network.dyn_peer[54]  lookupHopsSig:vector  ETV
vector 150168  Network.dyn_peer[54]  lookupStabilitySig:vector  ETV
vector 150169  Network.dyn_peer[54]  lookupTimeSig:vector  ETV
vector 150260  Network.dyn_peer[85]  lookupHopsSig:vector  ETV
vector 150261  Network.dyn_peer[85]  lookupStabilitySig:vector  ETV
vector 150262  Network.dyn_peer[85]  lookupTimeSig:vector  ETV
vector 150116  Network.dyn_peer[37]  lookupHopsSig:vector  ETV
vector 150117  Network.dyn_peer[37]  lookupStabilitySig:vector  ETV
vector 150118  Network.dyn_peer[37]  lookupTimeSig:vector  ETV
vector 150209  Network.dyn_peer[68]  lookupHopsSig:vector  ETV
vector 150210  Network.dyn_peer[68]  lookupStabilitySig:vector  ETV
vector 150211  Network.dyn_peer[68]  lookupTimeSig:vector  ETV
vector 150170  Network.dyn_peer[55]  lookupHopsSig:vector  ETV
vector 150171  Network.dyn_peer[55]  lookupStabilitySig:vector  ETV
vector 150172  Network.dyn_peer[55]  lookupTimeSig:vector  ETV
vector 150233  Network.dyn_peer[76]  lookupHopsSig:vector  ETV
vector 150234  Network.dyn_peer[76]  lookupStabilitySig:vector  ETV
vector 150235  Network.dyn_peer[76]  lookupTimeSig:vector  ETV
vector 150176  Network.dyn_peer[57]  lookupHopsSig:vector  ETV
vector 150177  Network.dyn_peer[57]  lookupStabilitySig:vector  ETV
vector 150178  Network.dyn_peer[57]  lookupTimeSig:vector  ETV
vector 150236  Network.dyn_peer[77]  lookupHopsSig:vector  ETV
vector 150237  Network.dyn_peer[77]  lookupStabilitySig:vector  ETV
vector 150238  Network.dyn_peer[77]  lookupTimeSig:vector  ETV
vector 150299  Network.dyn_peer[98]  lookupHopsSig:vector  ETV
vector 150300  Network.dyn_peer[98]  lookupStabilitySig:vector  ETV
vector 150301  Network.dyn_peer[98]  lookupTimeSig:vector  ETV
vector 150278  Network.dyn_peer[91]  lookupHopsSig:vector  ETV
vector 150279  Network.dyn_peer[91]  lookupStabilitySig:vector  ETV
vector 150280  Network.dyn_peer[91]  lookupTimeSig:vector  ETV
vector 150221  Network.dyn_peer[72]  lookupHopsSig:vector  ETV
vector 150222  Network.dyn_peer[72]  lookupStabilitySig:vector  ETV
vector 150223  Network.dyn_peer[72]  lookupTimeSig:vector  ETV
vector 150155  Network.dyn_peer[50]  lookupHopsSig:vector  ETV
vector 150156  Network.dyn_peer[50]  lookupStabilitySig:vector  ETV
vector 150157  Network.dyn_peer[50]  lookupTimeSig:vector  ETV
vector 150224  Network.dyn_peer[73]  lookupHopsSig:vector  ETV
vector 150225  Network.dyn_peer[73]  lookupStabilitySig:vector  ETV
vector 150226  Network.dyn_peer[73]  lookupTimeSig:vector  ETV
150005	18	20.01	0
150005	179	20.31	2
150005	1464	21.315370811277	9
150005	3072	22.624260513543	12
150005	3655	23.327408397032	6
150006	18	20.01	1
150006	179	20.31	0.59999999403954
150006	1464	21.315370811277	0.30769228935242
150006	3072	22.624260513543	0.69230768084526
150006	3655	23.327408397032	0.91176470369101
150007	18	20.01	0
150007	179	20.31	0.3
150007	1464	21.315370811277	1
150007	3072	22.624260513543	1.3
150007	3655	23.327408397032	0.7
150008	25	20.02	0
150008	191	20.32	2
150008	511	20.622768206361	2
150008	2022	21.723206939699	10
150009	25	20.02	1
150009	191	20.32	0.59999999403954
150009	511	20.622768206361	0.66666665673256
150009	2022	21.723206939699	0.5
150010	25	20.02	0
150010	191	20.32	0.3
150010	511	20.622768206361	0.3
150010	2022	21.723206939699	1.1
150011	202	20.33	3
150011	1350	21.23	8
150011	1621	21.434716021232	1
150011	2689	22.273779719225	6
150011	3394	22.974017557715	6
150011	3748	23.48279337661	4
150011	4160	24.583410830142	10
150012	202	20.33	0.39999997615814
150012	1350	21.23	0.27272725105286
150012	1621	21.434716021232	0.92307692021132
150012	2689	22.273779719225	0.79310344159603
150012	3394	22.974017557715	0.89090909063816
150012	3748	23.48279337661	0.94366197288036
150012	4160	24.583410830142	0.89361701905727
150013	202	20.33	0.3
150013	1350	21.23	0.9
150013	1621	21.434716021232	0.2
150013	2689	22.273779719225	0.7
150013	3394	22.974017557715	0.7
150013	3748	23.48279337661	0.5
150013	4160	24.583410830142	1.1
150014	71	20.14	1
150014	215	20.34854380266	1
150014	1115	21.050266238173	6
150014	1918	21.644903676058	3
150014	2445	22.050788992966	3
150015	71	20.14	0.79999999701977
150015	215	20.34854380266	0.79999999701977
150015	1115	21.050266238173	0.14285713434219
150015	1918	21.644903676058	0.84210526943207
150015	2445	22.050788992966	0.88461538404226
150016	71	20.14	0.1
150016	215	20.34854380266	0.2
150016	1115	21.050266238173	0.7
150016	1918	21.644903676058	0.4
150016	2445	22.050788992966	0.4
150017	80	20.15	1
150017	1647	21.450526123878	12
150017	3533	23.157869365084	16
150018	80	20.15	0.79999999701977
150018	1647	21.450526123878	0.14285713434219
150018	3533	23.157869365084	0.72881355881691
150019	80	20.15	0.1
150019	1647	21.450526123878	1.3
150019	3533	23.157869365084	1.7
150020	89	20.16	1
150020	321	20.46	2
150020	687	20.769326175006	2
150020	1277	21.172521884617	3
150021	89	20.16	0.79999999701977
150021	321	20.46	0.66666665673256
150021	687	20.769326175006	0.71428570151329
150021	1277	21.172521884617	0.69999998807907
150022	89	20.16	0.1
150022	321	20.46	0.3
150022	687	20.769326175006	0.3
150022	1277	21.172521884617	0.4
150023	852	20.87	8
150023	1960	21.67	7
150024	852	20.87	-0.14285719394684
150024	1960	21.67	0.63157895207405
150025	852	20.87	0.8
150025	1960	21.67	0.8
150026	47	20.08	0
150026	346	20.48	3
150026	1165	21.087707306501	5
150026	1744	21.523176909743	3
150026	2862	22.428970157315	8
150027	47	20.08	1
150027	346	20.48	0.5
150027	1165	21.087707306501	0.375
150027	1744	21.523176909743	0.82352940738201
150027	2862	22.428970157315	0.75
150028	47	20.08	0
150028	346	20.48	0.4
150028	1165	21.087707306501	0.6
150028	1744	21.523176909743	0.4
150028	2862	22.428970157315	0.9
150029	167	20.29	2
150029	723	20.79	4
150029	1438	21.298578663463	4
150029	3235	22.800202609365	14
150030	167	20.29	0.59999999403954
150030	723	20.79	0.42857140302658
150030	1438	21.298578663463	0.66666665673256
150030	3235	22.800202609365	0.7021276652813
150031	167	20.29	0.2
150031	723	20.79	0.5
150031	1438	21.298578663463	0.5
150031	3235	22.800202609365	1.5
150032	109	20.2	1
150032	264	20.4	1
150032	1575	21.400234705898	5
150032	3237	22.801679534038	13
150032	3910	23.802179760305	9
150032	4144	24.512021139858	6
150032	4260	25.219217791301	6
150032	4318	25.724352340074	4
150033	109	20.2	0.79999999701977
150033	264	20.4	0.79999999701977
150033	1575	21.400234705898	0.61538460850716
150033	3237	22.801679534038	0.72916665673256
150033	3910	23.802179760305	0.886075951159
150033	4144	24.512021139858	0.93478260934353
150033	4260	25.219217791301	0.9375
150033	4318	25.724352340074	0.95833333209157
150034	109	20.2	0.1
150034	264	20.4	0.2
150034	1575	21.400234705898	0.6
150034	3237	22.801679534038	1.4
150034	3910	23.802179760305	1
150034	4144	24.512021139858	0.7
150034	4260	25.219217791301	0.7
150034	4318	25.724352340074	0.5
150035	385	20.51	4
150035	907	20.91	3
150035	1730	21.519422544911	5
150035	2859	22.427493778988	8
150035	3714	23.428601633221	9
150036	385	20.51	0.33333331346512
150036	907	20.91	0.5714285671711
150036	1730	21.519422544911	0.70588234066963
150036	2859	22.427493778988	0.75
150036	3714	23.428601633221	0.86956521868706
150037	385	20.51	0.4
150037	907	20.91	0.4
150037	1730	21.519422544911	0.6
150037	2859	22.427493778988	0.9
150037	3714	23.428601633221	1
150038	282	20.42	3
150038	925	20.92	4
150038	2411	22.023387920707	10
150038	2756	22.33202310946	2
150039	282	20.42	0.5
150039	925	20.92	0.42857140302658
150039	2411	22.023387920707	0.59999999403954
150039	2756	22.33202310946	0.9333333298564
150040	282	20.42	0.3
150040	925	20.92	0.5
150040	2411	22.023387920707	1.1
150040	2756	22.33202310946	0.3
150041	294	20.43	3
150041	644	20.73	2
150041	1901	21.637129990174	8
150042	294	20.43	0.5
150042	644	20.73	0.66666665673256
150042	1901	21.637129990174	0.55555555224419
150043	294	20.43	0.3
150043	644	20.73	0.3
150043	1901	21.637129990174	0.9
150044	211	20.34	2
150044	655	20.74	3
150044	1632	21.446660411327	6
150044	3192	22.750200987695	12
150045	211	20.34	0.59999999403954
150045	655	20.74	0.5
150045	1632	21.446660411327	0.5714285671711
150045	3192	22.750200987695	0.72093021869659
150046	211	20.34	0.2
150046	655	20.74	0.4
150046	1632	21.446660411327	0.7
150046	3192	22.750200987695	1.3
150047	141	20.25	1
150047	543	20.65	3
150047	1660	21.462707203635	7
150047	3481	23.079663316537	12
150047	3895	23.781185825648	6
150047	4133	24.488346732444	6
150048	141	20.25	0.79999999701977
150048	543	20.65	0.5
150048	1660	21.462707203635	0.5
150048	3481	23.079663316537	0.79661017656326
150048	3895	23.781185825648	0.92405063658953
150048	4133	24.488346732444	0.93406593054533
150049	141	20.25	0.1
150049	543	20.65	0.4
150049	1660	21.462707203635	0.8
150049	3481	23.079663316537	1.3
150049	3895	23.781185825648	0.7
150049	4133	24.488346732444	0.7
150050	235	20.36	2
150050	973	20.96	5
150050	2075	21.765387900094	7
150051	235	20.36	0.59999999403954
150051	973	20.96	0.28571426868439
150051	2075	21.765387900094	0.66666665673256
150052	235	20.36	0.2
150052	973	20.96	0.6
150052	2075	21.765387900094	0.8
150053	333	20.47	3
150053	1540	21.37	8
150053	2349	21.977206685021	5
150053	3123	22.680195671871	6
150053	3630	23.288394906815	5
150054	333	20.47	0.5
150054	1540	21.37	0.38461536169052
150054	2349	21.977206685021	0.79999999701977
150054	3123	22.680195671871	0.84999999403954
150054	3630	23.288394906815	0.92537313699722
150055	333	20.47	0.3
150055	1540	21.37	0.9
150055	2349	21.977206685021	0.6
150055	3123	22.680195671871	0.7
150055	3630	23.288394906815	0.6
150056	251	20.38	2
150056	1415	21.28	8
150056	1821	21.580896755738	2
150056	3133	22.689410698809	10
150057	251	20.38	0.59999999403954
150057	1415	21.28	0.33333331346512
150057	1821	21.580896755738	0.8823529407382
150057	3133	22.689410698809	0.75
150058	251	20.38	0.2
150058	1415	21.28	0.9
150058	1821	21.580896755738	0.3
150058	3133	22.689410698809	1.1
150059	363	20.49	3
150059	876	20.89	3
150059	1440	21.29895935019	3
150060	363	20.49	0.5
150060	876	20.89	0.5714285671711
150060	1440	21.29895935019	0.75
150061	363	20.49	0.3
150061	876	20.89	0.4
150061	1440	21.29895935019	0.4
150062	603	20.7	5
150062	1187	21.1	3
150062	1578	21.403468960409	2
150062	3426	23.010746585702	15
150063	603	20.7	0.16666668653488
150063	1187	21.1	0.69999998807907
150063	1578	21.403468960409	0.84615384042263
150063	3426	23.010746585702	0.72727271914482
150064	603	20.7	0.5
150064	1187	21.1	0.4
150064	1578	21.403468960409	0.3
150064	3426	23.010746585702	1.6
150065	183	20.31	1
150065	906	20.91	5
150065	1727	21.519263817723	5
150066	183	20.31	0.79999999701977
150066	906	20.91	0.28571426868439
150066	1727	21.519263817723	0.6875
150067	183	20.31	0.1
150067	906	20.91	0.6
150067	1727	21.519263817723	0.6
150068	125	20.22	0
150068	2271	21.92	16
150069	125	20.22	1
150069	2271	21.92	0.27272725105286
150070	125	20.22	0
150070	2271	21.92	1.7
150071	298	20.43	2
150071	1079	21.03	5
150071	1904	21.638633122581	5
150071	3279	22.842268354356	11
150072	298	20.43	0.66666665673256
150072	1079	21.03	0.28571426868439
150072	1904	21.638633122581	0.72222220897675
150072	3279	22.842268354356	0.78431372344494
150073	298	20.43	0.2
150073	1079	21.03	0.6
150073	1904	21.638633122581	0.6
150073	3279	22.842268354356	1.2
150074	531	20.64	4
150074	1366	21.24	5
150074	1921	21.648617011019	3
150074	2449	22.05353904157	3
150074	2780	22.356440220813	2
150075	531	20.64	0.33333331346512
150075	1366	21.24	0.54545453190804
150075	1921	21.648617011019	0.84210526943207
150075	2449	22.05353904157	0.88461538404226
150075	2780	22.356440220813	0.93548387289047
150076	531	20.64	0.4
150076	1366	21.24	0.6
150076	1921	21.648617011019	0.4
150076	2449	22.05353904157	0.4
150076	2780	22.356440220813	0.3
150077	222	20.35	1
150077	426	20.55	1
150077	674	20.757365210433	1
150077	2714	22.298295655602	7
150077	3502	23.108095232506	7
150077	3824	23.613830316645	4
150077	4092	24.315986744222	6
150078	222	20.35	0.79999999701977
150078	426	20.55	0.83333332836628
150078	674	20.757365210433	0.83333332836628
150078	2714	22.298295655602	0.75862069427967
150078	3502	23.108095232506	0.88135593384504
150078	3824	23.613830316645	0.94666666537523
150078	4092	24.315986744222	0.93258427083492
150079	222	20.35	0.1
150079	426	20.55	0.2
150079	674	20.757365210433	0.2
150079	2714	22.298295655602	0.8
150079	3502	23.108095232506	0.8
150079	3824	23.613830316645	0.5
150079	4092	24.315986744222	0.7
150080	1130	21.06	8
150080	2568	22.16	10
150080	3006	22.563878559707	3
150080	3538	23.168752581206	5
150080	3794	23.570351902375	3
150080	3972	23.977624668449	3
150081	1130	21.06	0
150081	2568	22.16	0.64285713434219
150081	3006	22.563878559707	0.92105263471603
150081	3538	23.168752581206	0.91666666418314
150081	3794	23.570351902375	0.95890410989523
150081	3972	23.977624668449	0.96296296268702