file 4631989 1369698418                                         
version 2
run Stability2-89-20130528-01:46:10-24168
attr configname Stability2
attr datetime 20130528-01:46:10
attr experiment Stability2
attr inifile omnetpp.ini
attr iterationvars $0=400
attr iterationvars2 "$0=400, $repetition=9"
attr measurement $0=400
attr network Network
attr processid 24168
attr repetition 9
attr replication #9
attr resultdir results
attr runnumber 89
attr seedset 89

vector 2700089  Network.churner  inGoingSizeSig:vector  ETV
vector 2670092  Network.dyn_peer[1]  lookupHopsSig:vector  ETV
vector 2670093  Network.dyn_peer[1]  lookupStabilitySig:vector  ETV
vector 2670094  Network.dyn_peer[1]  lookupTimeSig:vector  ETV
vector 2670089  Network.dyn_peer[0]  lookupHopsSig:vector  ETV
vector 2670090  Network.dyn_peer[0]  lookupStabilitySig:vector  ETV
vector 2670091  Network.dyn_peer[0]  lookupTimeSig:vector  ETV
vector 2670095  Network.dyn_peer[2]  lookupHopsSig:vector  ETV
vector 2670096  Network.dyn_peer[2]  lookupStabilitySig:vector  ETV
vector 2670097  Network.dyn_peer[2]  lookupTimeSig:vector  ETV
vector 2670101  Network.dyn_peer[4]  lookupHopsSig:vector  ETV
vector 2670102  Network.dyn_peer[4]  lookupStabilitySig:vector  ETV
vector 2670103  Network.dyn_peer[4]  lookupTimeSig:vector  ETV
vector 2670143  Network.dyn_peer[18]  lookupHopsSig:vector  ETV
vector 2670144  Network.dyn_peer[18]  lookupStabilitySig:vector  ETV
vector 2670145  Network.dyn_peer[18]  lookupTimeSig:vector  ETV
vector 2670116  Network.dyn_peer[9]  lookupHopsSig:vector  ETV
vector 2670117  Network.dyn_peer[9]  lookupStabilitySig:vector  ETV
vector 2670118  Network.dyn_peer[9]  lookupTimeSig:vector  ETV
vector 2670122  Network.dyn_peer[11]  lookupHopsSig:vector  ETV
vector 2670123  Network.dyn_peer[11]  lookupStabilitySig:vector  ETV
vector 2670124  Network.dyn_peer[11]  lookupTimeSig:vector  ETV
vector 2670125  Network.dyn_peer[12]  lookupHopsSig:vector  ETV
vector 2670126  Network.dyn_peer[12]  lookupStabilitySig:vector  ETV
vector 2670127  Network.dyn_peer[12]  lookupTimeSig:vector  ETV
vector 2670128  Network.dyn_peer[13]  lookupHopsSig:vector  ETV
vector 2670129  Network.dyn_peer[13]  lookupStabilitySig:vector  ETV
vector 2670130  Network.dyn_peer[13]  lookupTimeSig:vector  ETV
vector 2670104  Network.dyn_peer[5]  lookupHopsSig:vector  ETV
vector 2670105  Network.dyn_peer[5]  lookupStabilitySig:vector  ETV
vector 2670106  Network.dyn_peer[5]  lookupTimeSig:vector  ETV
vector 2670107  Network.dyn_peer[6]  lookupHopsSig:vector  ETV
vector 2670108  Network.dyn_peer[6]  lookupStabilitySig:vector  ETV
vector 2670109  Network.dyn_peer[6]  lookupTimeSig:vector  ETV
vector 2670110  Network.dyn_peer[7]  lookupHopsSig:vector  ETV
vector 2670111  Network.dyn_peer[7]  lookupStabilitySig:vector  ETV
vector 2670112  Network.dyn_peer[7]  lookupTimeSig:vector  ETV
vector 2670152  Network.dyn_peer[21]  lookupHopsSig:vector  ETV
vector 2670153  Network.dyn_peer[21]  lookupStabilitySig:vector  ETV
vector 2670154  Network.dyn_peer[21]  lookupTimeSig:vector  ETV
vector 2670185  Network.dyn_peer[32]  lookupHopsSig:vector  ETV
vector 2670186  Network.dyn_peer[32]  lookupStabilitySig:vector  ETV
vector 2670187  Network.dyn_peer[32]  lookupTimeSig:vector  ETV
vector 2670098  Network.dyn_peer[3]  lookupHopsSig:vector  ETV
vector 2670099  Network.dyn_peer[3]  lookupStabilitySig:vector  ETV
vector 2670100  Network.dyn_peer[3]  lookupTimeSig:vector  ETV
vector 2670188  Network.dyn_peer[33]  lookupHopsSig:vector  ETV
vector 2670189  Network.dyn_peer[33]  lookupStabilitySig:vector  ETV
vector 2670190  Network.dyn_peer[33]  lookupTimeSig:vector  ETV
vector 2670131  Network.dyn_peer[14]  lookupHopsSig:vector  ETV
vector 2670132  Network.dyn_peer[14]  lookupStabilitySig:vector  ETV
vector 2670133  Network.dyn_peer[14]  lookupTimeSig:vector  ETV
vector 2670161  Network.dyn_peer[24]  lookupHopsSig:vector  ETV
vector 2670162  Network.dyn_peer[24]  lookupStabilitySig:vector  ETV
vector 2670163  Network.dyn_peer[24]  lookupTimeSig:vector  ETV
vector 2670134  Network.dyn_peer[15]  lookupHopsSig:vector  ETV
vector 2670135  Network.dyn_peer[15]  lookupStabilitySig:vector  ETV
vector 2670136  Network.dyn_peer[15]  lookupTimeSig:vector  ETV
vector 2670164  Network.dyn_peer[25]  lookupHopsSig:vector  ETV
vector 2670165  Network.dyn_peer[25]  lookupStabilitySig:vector  ETV
vector 2670166  Network.dyn_peer[25]  lookupTimeSig:vector  ETV
vector 2670113  Network.dyn_peer[8]  lookupHopsSig:vector  ETV
vector 2670114  Network.dyn_peer[8]  lookupStabilitySig:vector  ETV
vector 2670115  Network.dyn_peer[8]  lookupTimeSig:vector  ETV
vector 2670119  Network.dyn_peer[10]  lookupHopsSig:vector  ETV
vector 2670120  Network.dyn_peer[10]  lookupStabilitySig:vector  ETV
vector 2670121  Network.dyn_peer[10]  lookupTimeSig:vector  ETV
vector 2670149  Network.dyn_peer[20]  lookupHopsSig:vector  ETV
vector 2670150  Network.dyn_peer[20]  lookupStabilitySig:vector  ETV
vector 2670151  Network.dyn_peer[20]  lookupTimeSig:vector  ETV
vector 2670137  Network.dyn_peer[16]  lookupHopsSig:vector  ETV
vector 2670138  Network.dyn_peer[16]  lookupStabilitySig:vector  ETV
vector 2670139  Network.dyn_peer[16]  lookupTimeSig:vector  ETV
vector 2670146  Network.dyn_peer[19]  lookupHopsSig:vector  ETV
vector 2670147  Network.dyn_peer[19]  lookupStabilitySig:vector  ETV
vector 2670148  Network.dyn_peer[19]  lookupTimeSig:vector  ETV
vector 2670224  Network.dyn_peer[45]  lookupHopsSig:vector  ETV
vector 2670225  Network.dyn_peer[45]  lookupStabilitySig:vector  ETV
vector 2670226  Network.dyn_peer[45]  lookupTimeSig:vector  ETV
vector 2670167  Network.dyn_peer[26]  lookupHopsSig:vector  ETV
vector 2670168  Network.dyn_peer[26]  lookupStabilitySig:vector  ETV
vector 2670169  Network.dyn_peer[26]  lookupTimeSig:vector  ETV
vector 2670182  Network.dyn_peer[31]  lookupHopsSig:vector  ETV
vector 2670183  Network.dyn_peer[31]  lookupStabilitySig:vector  ETV
vector 2670184  Network.dyn_peer[31]  lookupTimeSig:vector  ETV
vector 2670215  Network.dyn_peer[42]  lookupHopsSig:vector  ETV
vector 2670216  Network.dyn_peer[42]  lookupStabilitySig:vector  ETV
vector 2670217  Network.dyn_peer[42]  lookupTimeSig:vector  ETV
vector 2670158  Network.dyn_peer[23]  lookupHopsSig:vector  ETV
vector 2670159  Network.dyn_peer[23]  lookupStabilitySig:vector  ETV
vector 2670160  Network.dyn_peer[23]  lookupTimeSig:vector  ETV
vector 2670230  Network.dyn_peer[47]  lookupHopsSig:vector  ETV
vector 2670231  Network.dyn_peer[47]  lookupStabilitySig:vector  ETV
vector 2670232  Network.dyn_peer[47]  lookupTimeSig:vector  ETV
vector 2670173  Network.dyn_peer[28]  lookupHopsSig:vector  ETV
vector 2670174  Network.dyn_peer[28]  lookupStabilitySig:vector  ETV
vector 2670175  Network.dyn_peer[28]  lookupTimeSig:vector  ETV
vector 2670206  Network.dyn_peer[39]  lookupHopsSig:vector  ETV
vector 2670207  Network.dyn_peer[39]  lookupStabilitySig:vector  ETV
vector 2670208  Network.dyn_peer[39]  lookupTimeSig:vector  ETV
vector 2670248  Network.dyn_peer[53]  lookupHopsSig:vector  ETV
vector 2670249  Network.dyn_peer[53]  lookupStabilitySig:vector  ETV
vector 2670250  Network.dyn_peer[53]  lookupTimeSig:vector  ETV
vector 2670170  Network.dyn_peer[27]  lookupHopsSig:vector  ETV
vector 2670171  Network.dyn_peer[27]  lookupStabilitySig:vector  ETV
vector 2670172  Network.dyn_peer[27]  lookupTimeSig:vector  ETV
vector 2670200  Network.dyn_peer[37]  lookupHopsSig:vector  ETV
vector 2670201  Network.dyn_peer[37]  lookupStabilitySig:vector  ETV
vector 2670202  Network.dyn_peer[37]  lookupTimeSig:vector  ETV
vector 2670266  Network.dyn_peer[59]  lookupHopsSig:vector  ETV
vector 2670267  Network.dyn_peer[59]  lookupStabilitySig:vector  ETV
vector 2670268  Network.dyn_peer[59]  lookupTimeSig:vector  ETV
vector 2670296  Network.dyn_peer[69]  lookupHopsSig:vector  ETV
vector 2670297  Network.dyn_peer[69]  lookupStabilitySig:vector  ETV
vector 2670298  Network.dyn_peer[69]  lookupTimeSig:vector  ETV
vector 2670212  Network.dyn_peer[41]  lookupHopsSig:vector  ETV
vector 2670213  Network.dyn_peer[41]  lookupStabilitySig:vector  ETV
vector 2670214  Network.dyn_peer[41]  lookupTimeSig:vector  ETV
vector 2670242  Network.dyn_peer[51]  lookupHopsSig:vector  ETV
vector 2670243  Network.dyn_peer[51]  lookupStabilitySig:vector  ETV
vector 2670244  Network.dyn_peer[51]  lookupTimeSig:vector  ETV
vector 2670221  Network.dyn_peer[44]  lookupHopsSig:vector  ETV
vector 2670222  Network.dyn_peer[44]  lookupStabilitySig:vector  ETV
vector 2670223  Network.dyn_peer[44]  lookupTimeSig:vector  ETV
vector 2670197  Network.dyn_peer[36]  lookupHopsSig:vector  ETV
vector 2670198  Network.dyn_peer[36]  lookupStabilitySig:vector  ETV
vector 2670199  Network.dyn_peer[36]  lookupTimeSig:vector  ETV
vector 2670140  Network.dyn_peer[17]  lookupHopsSig:vector  ETV
vector 2670141  Network.dyn_peer[17]  lookupStabilitySig:vector  ETV
vector 2670142  Network.dyn_peer[17]  lookupTimeSig:vector  ETV
vector 2670203  Network.dyn_peer[38]  lookupHopsSig:vector  ETV
vector 2670204  Network.dyn_peer[38]  lookupStabilitySig:vector  ETV
vector 2670205  Network.dyn_peer[38]  lookupTimeSig:vector  ETV
vector 2670233  Network.dyn_peer[48]  lookupHopsSig:vector  ETV
vector 2670234  Network.dyn_peer[48]  lookupStabilitySig:vector  ETV
vector 2670235  Network.dyn_peer[48]  lookupTimeSig:vector  ETV
vector 2670311  Network.dyn_peer[74]  lookupHopsSig:vector  ETV
vector 2670312  Network.dyn_peer[74]  lookupStabilitySig:vector  ETV
vector 2670313  Network.dyn_peer[74]  lookupTimeSig:vector  ETV
vector 2670194  Network.dyn_peer[35]  lookupHopsSig:vector  ETV
vector 2670195  Network.dyn_peer[35]  lookupStabilitySig:vector  ETV
vector 2670196  Network.dyn_peer[35]  lookupTimeSig:vector  ETV
vector 2670254  Network.dyn_peer[55]  lookupHopsSig:vector  ETV
vector 2670255  Network.dyn_peer[55]  lookupStabilitySig:vector  ETV
vector 2670256  Network.dyn_peer[55]  lookupTimeSig:vector  ETV
vector 2670362  Network.dyn_peer[91]  lookupHopsSig:vector  ETV
vector 2670363  Network.dyn_peer[91]  lookupStabilitySig:vector  ETV
vector 2670364  Network.dyn_peer[91]  lookupTimeSig:vector  ETV
vector 2670155  Network.dyn_peer[22]  lookupHopsSig:vector  ETV
vector 2670156  Network.dyn_peer[22]  lookupStabilitySig:vector  ETV
vector 2670157  Network.dyn_peer[22]  lookupTimeSig:vector  ETV
vector 2670218  Network.dyn_peer[43]  lookupHopsSig:vector  ETV
vector 2670219  Network.dyn_peer[43]  lookupStabilitySig:vector  ETV
vector 2670220  Network.dyn_peer[43]  lookupTimeSig:vector  ETV
vector 2670227  Network.dyn_peer[46]  lookupHopsSig:vector  ETV
vector 2670228  Network.dyn_peer[46]  lookupStabilitySig:vector  ETV
vector 2670229  Network.dyn_peer[46]  lookupTimeSig:vector  ETV
vector 2670353  Network.dyn_peer[88]  lookupHopsSig:vector  ETV
vector 2670354  Network.dyn_peer[88]  lookupStabilitySig:vector  ETV
vector 2670355  Network.dyn_peer[88]  lookupTimeSig:vector  ETV
vector 2670326  Network.dyn_peer[79]  lookupHopsSig:vector  ETV
vector 2670327  Network.dyn_peer[79]  lookupStabilitySig:vector  ETV
vector 2670328  Network.dyn_peer[79]  lookupTimeSig:vector  ETV
vector 2670389  Network.dyn_peer[100]  lookupHopsSig:vector  ETV
vector 2670390  Network.dyn_peer[100]  lookupStabilitySig:vector  ETV
vector 2670391  Network.dyn_peer[100]  lookupTimeSig:vector  ETV
vector 2670302  Network.dyn_peer[71]  lookupHopsSig:vector  ETV
vector 2670303  Network.dyn_peer[71]  lookupStabilitySig:vector  ETV
vector 2670304  Network.dyn_peer[71]  lookupTimeSig:vector  ETV
vector 2670278  Network.dyn_peer[63]  lookupHopsSig:vector  ETV
vector 2670279  Network.dyn_peer[63]  lookupStabilitySig:vector  ETV
vector 2670280  Network.dyn_peer[63]  lookupTimeSig:vector  ETV
vector 2670416  Network.dyn_peer[109]  lookupHopsSig:vector  ETV
vector 2670417  Network.dyn_peer[109]  lookupStabilitySig:vector  ETV
vector 2670418  Network.dyn_peer[109]  lookupTimeSig:vector  ETV
vector 2670305  Network.dyn_peer[72]  lookupHopsSig:vector  ETV
vector 2670306  Network.dyn_peer[72]  lookupStabilitySig:vector  ETV
vector 2670307  Network.dyn_peer[72]  lookupTimeSig:vector  ETV
vector 2670371  Network.dyn_peer[94]  lookupHopsSig:vector  ETV
vector 2670372  Network.dyn_peer[94]  lookupStabilitySig:vector  ETV
vector 2670373  Network.dyn_peer[94]  lookupTimeSig:vector  ETV
vector 2670317  Network.dyn_peer[76]  lookupHopsSig:vector  ETV
vector 2670318  Network.dyn_peer[76]  lookupStabilitySig:vector  ETV
vector 2670319  Network.dyn_peer[76]  lookupTimeSig:vector  ETV
vector 2670350  Network.dyn_peer[87]  lookupHopsSig:vector  ETV
vector 2670351  Network.dyn_peer[87]  lookupStabilitySig:vector  ETV
vector 2670352  Network.dyn_peer[87]  lookupTimeSig:vector  ETV
vector 2670179  Network.dyn_peer[30]  lookupHopsSig:vector  ETV
vector 2670180  Network.dyn_peer[30]  lookupStabilitySig:vector  ETV
vector 2670181  Network.dyn_peer[30]  lookupTimeSig:vector  ETV
vector 2670419  Network.dyn_peer[110]  lookupHopsSig:vector  ETV
vector 2670420  Network.dyn_peer[110]  lookupStabilitySig:vector  ETV
vector 2670421  Network.dyn_peer[110]  lookupTimeSig:vector  ETV
vector 2670281  Network.dyn_peer[64]  lookupHopsSig:vector  ETV
vector 2670282  Network.dyn_peer[64]  lookupStabilitySig:vector  ETV
vector 2670283  Network.dyn_peer[64]  lookupTimeSig:vector  ETV
vector 2670404  Network.dyn_peer[105]  lookupHopsSig:vector  ETV
vector 2670405  Network.dyn_peer[105]  lookupStabilitySig:vector  ETV
vector 2670406  Network.dyn_peer[105]  lookupTimeSig:vector  ETV
vector 2670290  Network.dyn_peer[67]  lookupHopsSig:vector  ETV
vector 2670291  Network.dyn_peer[67]  lookupStabilitySig:vector  ETV
vector 2670292  Network.dyn_peer[67]  lookupTimeSig:vector  ETV
vector 2670443  Network.dyn_peer[118]  lookupHopsSig:vector  ETV
vector 2670444  Network.dyn_peer[118]  lookupStabilitySig:vector  ETV
vector 2670445  Network.dyn_peer[118]  lookupTimeSig:vector  ETV
vector 2670299  Network.dyn_peer[70]  lookupHopsSig:vector  ETV
vector 2670300  Network.dyn_peer[70]  lookupStabilitySig:vector  ETV
vector 2670301  Network.dyn_peer[70]  lookupTimeSig:vector  ETV
vector 2670452  Network.dyn_peer[121]  lookupHopsSig:vector  ETV
vector 2670453  Network.dyn_peer[121]  lookupStabilitySig:vector  ETV
vector 2670454  Network.dyn_peer[121]  lookupTimeSig:vector  ETV
vector 2670335  Network.dyn_peer[82]  lookupHopsSig:vector  ETV
vector 2670336  Network.dyn_peer[82]  lookupStabilitySig:vector  ETV
vector 2670337  Network.dyn_peer[82]  lookupTimeSig:vector  ETV
vector 2670425  Network.dyn_peer[112]  lookupHopsSig:vector  ETV
vector 2670426  Network.dyn_peer[112]  lookupStabilitySig:vector  ETV
vector 2670427  Network.dyn_peer[112]  lookupTimeSig:vector  ETV
vector 2670338  Network.dyn_peer[83]  lookupHopsSig:vector  ETV
vector 2670339  Network.dyn_peer[83]  lookupStabilitySig:vector  ETV
vector 2670340  Network.dyn_peer[83]  lookupTimeSig:vector  ETV
vector 2670458  Network.dyn_peer[123]  lookupHopsSig:vector  ETV
vector 2670459  Network.dyn_peer[123]  lookupStabilitySig:vector  ETV
vector 2670460  Network.dyn_peer[123]  lookupTimeSig:vector  ETV
vector 2670191  Network.dyn_peer[34]  lookupHopsSig:vector  ETV
vector 2670192  Network.dyn_peer[34]  lookupStabilitySig:vector  ETV
vector 2670193  Network.dyn_peer[34]  lookupTimeSig:vector  ETV
vector 2670377  Network.dyn_peer[96]  lookupHopsSig:vector  ETV
vector 2670378  Network.dyn_peer[96]  lookupStabilitySig:vector  ETV
vector 2670379  Network.dyn_peer[96]  lookupTimeSig:vector  ETV
vector 2670383  Network.dyn_peer[98]  lookupHopsSig:vector  ETV
vector 2670384  Network.dyn_peer[98]  lookupStabilitySig:vector  ETV
vector 2670385  Network.dyn_peer[98]  lookupTimeSig:vector  ETV
vector 2670176  Network.dyn_peer[29]  lookupHopsSig:vector  ETV
vector 2670177  Network.dyn_peer[29]  lookupStabilitySig:vector  ETV
vector 2670178  Network.dyn_peer[29]  lookupTimeSig:vector  ETV
vector 2670446  Network.dyn_peer[119]  lookupHopsSig:vector  ETV
vector 2670447  Network.dyn_peer[119]  lookupStabilitySig:vector  ETV
vector 2670448  Network.dyn_peer[119]  lookupTimeSig:vector  ETV
vector 2670269  Network.dyn_peer[60]  lookupHopsSig:vector  ETV
vector 2670270  Network.dyn_peer[60]  lookupStabilitySig:vector  ETV
vector 2670271  Network.dyn_peer[60]  lookupTimeSig:vector  ETV
vector 2670428  Network.dyn_peer[113]  lookupHopsSig:vector  ETV
vector 2670429  Network.dyn_peer[113]  lookupStabilitySig:vector  ETV
vector 2670430  Network.dyn_peer[113]  lookupTimeSig:vector  ETV
vector 2670464  Network.dyn_peer[125]  lookupHopsSig:vector  ETV
vector 2670465  Network.dyn_peer[125]  lookupStabilitySig:vector  ETV
vector 2670466  Network.dyn_peer[125]  lookupTimeSig:vector  ETV
vector 2670287  Network.dyn_peer[66]  lookupHopsSig:vector  ETV
vector 2670288  Network.dyn_peer[66]  lookupStabilitySig:vector  ETV
vector 2670289  Network.dyn_peer[66]  lookupTimeSig:vector  ETV
vector 2670407  Network.dyn_peer[106]  lookupHopsSig:vector  ETV
vector 2670408  Network.dyn_peer[106]  lookupStabilitySig:vector  ETV
vector 2670409  Network.dyn_peer[106]  lookupTimeSig:vector  ETV
vector 2670437  Network.dyn_peer[116]  lookupHopsSig:vector  ETV
vector 2670438  Network.dyn_peer[116]  lookupStabilitySig:vector  ETV
vector 2670439  Network.dyn_peer[116]  lookupTimeSig:vector  ETV
vector 2670320  Network.dyn_peer[77]  lookupHopsSig:vector  ETV
vector 2670321  Network.dyn_peer[77]  lookupStabilitySig:vector  ETV
vector 2670322  Network.dyn_peer[77]  lookupTimeSig:vector  ETV
vector 2670380  Network.dyn_peer[97]  lookupHopsSig:vector  ETV
vector 2670381  Network.dyn_peer[97]  lookupStabilitySig:vector  ETV
vector 2670382  Network.dyn_peer[97]  lookupTimeSig:vector  ETV
vector 2670209  Network.dyn_peer[40]  lookupHopsSig:vector  ETV
vector 2670210  Network.dyn_peer[40]  lookupStabilitySig:vector  ETV
vector 2670211  Network.dyn_peer[40]  lookupTimeSig:vector  ETV
vector 2670245  Network.dyn_peer[52]  lookupHopsSig:vector  ETV
vector 2670246  Network.dyn_peer[52]  lookupStabilitySig:vector  ETV
vector 2670247  Network.dyn_peer[52]  lookupTimeSig:vector  ETV
vector 2670368  Network.dyn_peer[93]  lookupHopsSig:vector  ETV
vector 2670369  Network.dyn_peer[93]  lookupStabilitySig:vector  ETV
vector 2670370  Network.dyn_peer[93]  lookupTimeSig:vector  ETV
vector 2670251  Network.dyn_peer[54]  lookupHopsSig:vector  ETV
vector 2670252  Network.dyn_peer[54]  lookupStabilitySig:vector  ETV
vector 2670253  Network.dyn_peer[54]  lookupTimeSig:vector  ETV
vector 2670434  Network.dyn_peer[115]  lookupHopsSig:vector  ETV
vector 2670435  Network.dyn_peer[115]  lookupStabilitySig:vector  ETV
vector 2670436  Network.dyn_peer[115]  lookupTimeSig:vector  ETV
vector 2670554  Network.dyn_peer[155]  lookupHopsSig:vector  ETV
vector 2670555  Network.dyn_peer[155]  lookupStabilitySig:vector  ETV
vector 2670556  Network.dyn_peer[155]  lookupTimeSig:vector  ETV
vector 2670263  Network.dyn_peer[58]  lookupHopsSig:vector  ETV
vector 2670264  Network.dyn_peer[58]  lookupStabilitySig:vector  ETV
vector 2670265  Network.dyn_peer[58]  lookupTimeSig:vector  ETV
vector 2670503  Network.dyn_peer[138]  lookupHopsSig:vector  ETV
vector 2670504  Network.dyn_peer[138]  lookupStabilitySig:vector  ETV
vector 2670505  Network.dyn_peer[138]  lookupTimeSig:vector  ETV
vector 2670236  Network.dyn_peer[49]  lookupHopsSig:vector  ETV
vector 2670237  Network.dyn_peer[49]  lookupStabilitySig:vector  ETV
vector 2670238  Network.dyn_peer[49]  lookupTimeSig:vector  ETV
vector 2670512  Network.dyn_peer[141]  lookupHopsSig:vector  ETV
vector 2670513  Network.dyn_peer[141]  lookupStabilitySig:vector  ETV
vector 2670514  Network.dyn_peer[141]  lookupTimeSig:vector  ETV
vector 2670395  Network.dyn_peer[102]  lookupHopsSig:vector  ETV
vector 2670396  Network.dyn_peer[102]  lookupStabilitySig:vector  ETV
vector 2670397  Network.dyn_peer[102]  lookupTimeSig:vector  ETV
vector 2670548  Network.dyn_peer[153]  lookupHopsSig:vector  ETV
vector 2670549  Network.dyn_peer[153]  lookupStabilitySig:vector  ETV
vector 2670550  Network.dyn_peer[153]  lookupTimeSig:vector  ETV
vector 2670491  Network.dyn_peer[134]  lookupHopsSig:vector  ETV
vector 2670492  Network.dyn_peer[134]  lookupStabilitySig:vector  ETV
vector 2670493  Network.dyn_peer[134]  lookupTimeSig:vector  ETV
vector 2670611  Network.dyn_peer[174]  lookupHopsSig:vector  ETV
vector 2670612  Network.dyn_peer[174]  lookupStabilitySig:vector  ETV
vector 2670613  Network.dyn_peer[174]  lookupTimeSig:vector  ETV
vector 2670347  Network.dyn_peer[86]  lookupHopsSig:vector  ETV
vector 2670348  Network.dyn_peer[86]  lookupStabilitySig:vector  ETV
vector 2670349  Network.dyn_peer[86]  lookupTimeSig:vector  ETV
vector 2670413  Network.dyn_peer[108]  lookupHopsSig:vector  ETV
vector 2670414  Network.dyn_peer[108]  lookupStabilitySig:vector  ETV
vector 2670415  Network.dyn_peer[108]  lookupTimeSig:vector  ETV
vector 2670272  Network.dyn_peer[61]  lookupHopsSig:vector  ETV
vector 2670273  Network.dyn_peer[61]  lookupStabilitySig:vector  ETV
vector 2670274  Network.dyn_peer[61]  lookupTimeSig:vector  ETV
vector 2670392  Network.dyn_peer[101]  lookupHopsSig:vector  ETV
vector 2670393  Network.dyn_peer[101]  lookupStabilitySig:vector  ETV
vector 2670394  Network.dyn_peer[101]  lookupTimeSig:vector  ETV
vector 2670461  Network.dyn_peer[124]  lookupHopsSig:vector  ETV
vector 2670462  Network.dyn_peer[124]  lookupStabilitySig:vector  ETV
vector 2670463  Network.dyn_peer[124]  lookupTimeSig:vector  ETV
vector 2670617  Network.dyn_peer[176]  lookupHopsSig:vector  ETV
vector 2670618  Network.dyn_peer[176]  lookupStabilitySig:vector  ETV
vector 2670619  Network.dyn_peer[176]  lookupTimeSig:vector  ETV
vector 2670476  Network.dyn_peer[129]  lookupHopsSig:vector  ETV
vector 2670477  Network.dyn_peer[129]  lookupStabilitySig:vector  ETV
vector 2670478  Network.dyn_peer[129]  lookupTimeSig:vector  ETV
vector 2670449  Network.dyn_peer[120]  lookupHopsSig:vector  ETV
vector 2670450  Network.dyn_peer[120]  lookupStabilitySig:vector  ETV
vector 2670451  Network.dyn_peer[120]  lookupTimeSig:vector  ETV
vector 2670602  Network.dyn_peer[171]  lookupHopsSig:vector  ETV
vector 2670603  Network.dyn_peer[171]  lookupStabilitySig:vector  ETV
vector 2670604  Network.dyn_peer[171]  lookupTimeSig:vector  ETV
vector 2670638  Network.dyn_peer[183]  lookupHopsSig:vector  ETV
vector 2670639  Network.dyn_peer[183]  lookupStabilitySig:vector  ETV
vector 2670640  Network.dyn_peer[183]  lookupTimeSig:vector  ETV
vector 2670431  Network.dyn_peer[114]  lookupHopsSig:vector  ETV
vector 2670432  Network.dyn_peer[114]  lookupStabilitySig:vector  ETV
vector 2670433  Network.dyn_peer[114]  lookupTimeSig:vector  ETV
vector 2670521  Network.dyn_peer[144]  lookupHopsSig:vector  ETV
vector 2670522  Network.dyn_peer[144]  lookupStabilitySig:vector  ETV
vector 2670523  Network.dyn_peer[144]  lookupTimeSig:vector  ETV
vector 2670494  Network.dyn_peer[135]  lookupHopsSig:vector  ETV
vector 2670495  Network.dyn_peer[135]  lookupStabilitySig:vector  ETV
vector 2670496  Network.dyn_peer[135]  lookupTimeSig:vector  ETV
vector 2670524  Network.dyn_peer[145]  lookupHopsSig:vector  ETV
vector 2670525  Network.dyn_peer[145]  lookupStabilitySig:vector  ETV
vector 2670526  Network.dyn_peer[145]  lookupTimeSig:vector  ETV
vector 2670497  Network.dyn_peer[136]  lookupHopsSig:vector  ETV
vector 2670498  Network.dyn_peer[136]  lookupStabilitySig:vector  ETV
vector 2670499  Network.dyn_peer[136]  lookupTimeSig:vector  ETV
vector 2670440  Network.dyn_peer[117]  lookupHopsSig:vector  ETV
vector 2670441  Network.dyn_peer[117]  lookupStabilitySig:vector  ETV
vector 2670442  Network.dyn_peer[117]  lookupTimeSig:vector  ETV
vector 2670533  Network.dyn_peer[148]  lookupHopsSig:vector  ETV
vector 2670534  Network.dyn_peer[148]  lookupStabilitySig:vector  ETV
vector 2670535  Network.dyn_peer[148]  lookupTimeSig:vector  ETV
vector 2670566  Network.dyn_peer[159]  lookupHopsSig:vector  ETV
vector 2670567  Network.dyn_peer[159]  lookupStabilitySig:vector  ETV
vector 2670568  Network.dyn_peer[159]  lookupTimeSig:vector  ETV
vector 2670656  Network.dyn_peer[189]  lookupHopsSig:vector  ETV
vector 2670657  Network.dyn_peer[189]  lookupStabilitySig:vector  ETV
vector 2670658  Network.dyn_peer[189]  lookupTimeSig:vector  ETV
vector 2670332  Network.dyn_peer[81]  lookupHopsSig:vector  ETV
vector 2670333  Network.dyn_peer[81]  lookupStabilitySig:vector  ETV
vector 2670334  Network.dyn_peer[81]  lookupTimeSig:vector  ETV
vector 2670551  Network.dyn_peer[154]  lookupHopsSig:vector  ETV
vector 2670552  Network.dyn_peer[154]  lookupStabilitySig:vector  ETV
vector 2670553  Network.dyn_peer[154]  lookupTimeSig:vector  ETV
vector 2670467  Network.dyn_peer[126]  lookupHopsSig:vector  ETV
vector 2670468  Network.dyn_peer[126]  lookupStabilitySig:vector  ETV
vector 2670469  Network.dyn_peer[126]  lookupTimeSig:vector  ETV
vector 2670587  Network.dyn_peer[166]  lookupHopsSig:vector  ETV
vector 2670588  Network.dyn_peer[166]  lookupStabilitySig:vector  ETV
vector 2670589  Network.dyn_peer[166]  lookupTimeSig:vector  ETV
vector 2670386  Network.dyn_peer[99]  lookupHopsSig:vector  ETV
vector 2670387  Network.dyn_peer[99]  lookupStabilitySig:vector  ETV
vector 2670388  Network.dyn_peer[99]  lookupTimeSig:vector  ETV
vector 2670596  Network.dyn_peer[169]  lookupHopsSig:vector  ETV
vector 2670597  Network.dyn_peer[169]  lookupStabilitySig:vector  ETV
vector 2670598  Network.dyn_peer[169]  lookupTimeSig:vector  ETV
vector 2670509  Network.dyn_peer[140]  lookupHopsSig:vector  ETV
vector 2670510  Network.dyn_peer[140]  lookupStabilitySig:vector  ETV
vector 2670511  Network.dyn_peer[140]  lookupTimeSig:vector  ETV
vector 2670632  Network.dyn_peer[181]  lookupHopsSig:vector  ETV
vector 2670633  Network.dyn_peer[181]  lookupStabilitySig:vector  ETV
vector 2670634  Network.dyn_peer[181]  lookupTimeSig:vector  ETV
vector 2670575  Network.dyn_peer[162]  lookupHopsSig:vector  ETV
vector 2670576  Network.dyn_peer[162]  lookupStabilitySig:vector  ETV
vector 2670577  Network.dyn_peer[162]  lookupTimeSig:vector  ETV
vector 2670488  Network.dyn_peer[133]  lookupHopsSig:vector  ETV
vector 2670489  Network.dyn_peer[133]  lookupStabilitySig:vector  ETV
vector 2670490  Network.dyn_peer[133]  lookupTimeSig:vector  ETV
vector 2670506  Network.dyn_peer[139]  lookupHopsSig:vector  ETV
vector 2670507  Network.dyn_peer[139]  lookupStabilitySig:vector  ETV
vector 2670508  Network.dyn_peer[139]  lookupTimeSig:vector  ETV
vector 2670569  Network.dyn_peer[160]  lookupHopsSig:vector  ETV
vector 2670570  Network.dyn_peer[160]  lookupStabilitySig:vector  ETV
vector 2670571  Network.dyn_peer[160]  lookupTimeSig:vector  ETV
vector 2670599  Network.dyn_peer[170]  lookupHopsSig:vector  ETV
vector 2670600  Network.dyn_peer[170]  lookupStabilitySig:vector  ETV
vector 2670601  Network.dyn_peer[170]  lookupTimeSig:vector  ETV
vector 2670572  Network.dyn_peer[161]  lookupHopsSig:vector  ETV
vector 2670573  Network.dyn_peer[161]  lookupStabilitySig:vector  ETV
vector 2670574  Network.dyn_peer[161]  lookupTimeSig:vector  ETV
vector 2670662  Network.dyn_peer[191]  lookupHopsSig:vector  ETV
vector 2670663  Network.dyn_peer[191]  lookupStabilitySig:vector  ETV
vector 2670664  Network.dyn_peer[191]  lookupTimeSig:vector  ETV
vector 2670275  Network.dyn_peer[62]  lookupHopsSig:vector  ETV
vector 2670276  Network.dyn_peer[62]  lookupStabilitySig:vector  ETV
vector 2670277  Network.dyn_peer[62]  lookupTimeSig:vector  ETV
vector 2670545  Network.dyn_peer[152]  lookupHopsSig:vector  ETV
vector 2670546  Network.dyn_peer[152]  lookupStabilitySig:vector  ETV
vector 2670547  Network.dyn_peer[152]  lookupTimeSig:vector  ETV
vector 2670668  Network.dyn_peer[193]  lookupHopsSig:vector  ETV
vector 2670669  Network.dyn_peer[193]  lookupStabilitySig:vector  ETV
vector 2670670  Network.dyn_peer[193]  lookupTimeSig:vector  ETV
vector 2670527  Network.dyn_peer[146]  lookupHopsSig:vector  ETV
vector 2670528  Network.dyn_peer[146]  lookupStabilitySig:vector  ETV
vector 2670529  Network.dyn_peer[146]  lookupTimeSig:vector  ETV
vector 2670500  Network.dyn_peer[137]  lookupHopsSig:vector  ETV
vector 2670501  Network.dyn_peer[137]  lookupStabilitySig:vector  ETV
vector 2670502  Network.dyn_peer[137]  lookupTimeSig:vector  ETV
vector 2670365  Network.dyn_peer[92]  lookupHopsSig:vector  ETV
vector 2670366  Network.dyn_peer[92]  lookupStabilitySig:vector  ETV
vector 2670367  Network.dyn_peer[92]  lookupTimeSig:vector  ETV
vector 2670455  Network.dyn_peer[122]  lookupHopsSig:vector  ETV
vector 2670456  Network.dyn_peer[122]  lookupStabilitySig:vector  ETV
vector 2670457  Network.dyn_peer[122]  lookupTimeSig:vector  ETV
vector 2670485  Network.dyn_peer[132]  lookupHopsSig:vector  ETV
vector 2670486  Network.dyn_peer[132]  lookupStabilitySig:vector  ETV
vector 2670487  Network.dyn_peer[132]  lookupTimeSig:vector  ETV
vector 2670665  Network.dyn_peer[192]  lookupHopsSig:vector  ETV
vector 2670666  Network.dyn_peer[192]  lookupStabilitySig:vector  ETV
vector 2670667  Network.dyn_peer[192]  lookupTimeSig:vector  ETV
vector 2670284  Network.dyn_peer[65]  lookupHopsSig:vector  ETV
vector 2670285  Network.dyn_peer[65]  lookupStabilitySig:vector  ETV
vector 2670286  Network.dyn_peer[65]  lookupTimeSig:vector  ETV
vector 2670314  Network.dyn_peer[75]  lookupHopsSig:vector  ETV
vector 2670315  Network.dyn_peer[75]  lookupStabilitySig:vector  ETV
vector 2670316  Network.dyn_peer[75]  lookupTimeSig:vector  ETV
vector 2670560  Network.dyn_peer[157]  lookupHopsSig:vector  ETV
vector 2670561  Network.dyn_peer[157]  lookupStabilitySig:vector  ETV
vector 2670562  Network.dyn_peer[157]  lookupTimeSig:vector  ETV
vector 2670620  Network.dyn_peer[177]  lookupHopsSig:vector  ETV
vector 2670621  Network.dyn_peer[177]  lookupStabilitySig:vector  ETV
vector 2670622  Network.dyn_peer[177]  lookupTimeSig:vector  ETV
vector 2670563  Network.dyn_peer[158]  lookupHopsSig:vector  ETV
vector 2670564  Network.dyn_peer[158]  lookupStabilitySig:vector  ETV