version 2
run Stability2-57-20130528-01:28:29-24168
attr configname Stability2
attr datetime 20130528-01:28:29
attr experiment Stability2
attr inifile omnetpp.ini
attr iterationvars $0=100
attr iterationvars2 "$0=100, $repetition=7"
attr measurement $0=100
attr network Network
attr processid 24168
attr repetition 7
attr replication #7
attr resultdir results
attr runnumber 57
attr seedset 57

vector 1740057  Network.churner  inGoingSizeSig:vector  ETV
vector 1710057  Network.dyn_peer[0]  lookupHopsSig:vector  ETV
vector 1710058  Network.dyn_peer[0]  lookupStabilitySig:vector  ETV
vector 1710059  Network.dyn_peer[0]  lookupTimeSig:vector  ETV
vector 1710060  Network.dyn_peer[1]  lookupHopsSig:vector  ETV
vector 1710061  Network.dyn_peer[1]  lookupStabilitySig:vector  ETV
vector 1710062  Network.dyn_peer[1]  lookupTimeSig:vector  ETV
vector 1710063  Network.dyn_peer[2]  lookupHopsSig:vector  ETV
vector 1710064  Network.dyn_peer[2]  lookupStabilitySig:vector  ETV
vector 1710065  Network.dyn_peer[2]  lookupTimeSig:vector  ETV
vector 1710084  Network.dyn_peer[9]  lookupHopsSig:vector  ETV
vector 1710085  Network.dyn_peer[9]  lookupStabilitySig:vector  ETV
vector 1710086  Network.dyn_peer[9]  lookupTimeSig:vector  ETV
vector 1710087  Network.dyn_peer[10]  lookupHopsSig:vector  ETV
vector 1710088  Network.dyn_peer[10]  lookupStabilitySig:vector  ETV
vector 1710089  Network.dyn_peer[10]  lookupTimeSig:vector  ETV
vector 1710090  Network.dyn_peer[11]  lookupHopsSig:vector  ETV
vector 1710091  Network.dyn_peer[11]  lookupStabilitySig:vector  ETV
vector 1710092  Network.dyn_peer[11]  lookupTimeSig:vector  ETV
vector 1710096  Network.dyn_peer[13]  lookupHopsSig:vector  ETV
vector 1710097  Network.dyn_peer[13]  lookupStabilitySig:vector  ETV
vector 1710098  Network.dyn_peer[13]  lookupTimeSig:vector  ETV
vector 1710069  Network.dyn_peer[4]  lookupHopsSig:vector  ETV
vector 1710070  Network.dyn_peer[4]  lookupStabilitySig:vector  ETV
vector 1710071  Network.dyn_peer[4]  lookupTimeSig:vector  ETV
vector 1710072  Network.dyn_peer[5]  lookupHopsSig:vector  ETV
vector 1710073  Network.dyn_peer[5]  lookupStabilitySig:vector  ETV
vector 1710074  Network.dyn_peer[5]  lookupTimeSig:vector  ETV
vector 1710078  Network.dyn_peer[7]  lookupHopsSig:vector  ETV
vector 1710079  Network.dyn_peer[7]  lookupStabilitySig:vector  ETV
vector 1710080  Network.dyn_peer[7]  lookupTimeSig:vector  ETV
vector 1710081  Network.dyn_peer[8]  lookupHopsSig:vector  ETV
vector 1710082  Network.dyn_peer[8]  lookupStabilitySig:vector  ETV
vector 1710083  Network.dyn_peer[8]  lookupTimeSig:vector  ETV
vector 1710111  Network.dyn_peer[18]  lookupHopsSig:vector  ETV
vector 1710112  Network.dyn_peer[18]  lookupStabilitySig:vector  ETV
vector 1710113  Network.dyn_peer[18]  lookupTimeSig:vector  ETV
vector 1710114  Network.dyn_peer[19]  lookupHopsSig:vector  ETV
vector 1710115  Network.dyn_peer[19]  lookupStabilitySig:vector  ETV
vector 1710116  Network.dyn_peer[19]  lookupTimeSig:vector  ETV
vector 1710120  Network.dyn_peer[21]  lookupHopsSig:vector  ETV
vector 1710121  Network.dyn_peer[21]  lookupStabilitySig:vector  ETV
vector 1710122  Network.dyn_peer[21]  lookupTimeSig:vector  ETV
vector 1710126  Network.dyn_peer[23]  lookupHopsSig:vector  ETV
vector 1710127  Network.dyn_peer[23]  lookupStabilitySig:vector  ETV
vector 1710128  Network.dyn_peer[23]  lookupTimeSig:vector  ETV
vector 1710099  Network.dyn_peer[14]  lookupHopsSig:vector  ETV
vector 1710100  Network.dyn_peer[14]  lookupStabilitySig:vector  ETV
vector 1710101  Network.dyn_peer[14]  lookupTimeSig:vector  ETV
vector 1710132  Network.dyn_peer[25]  lookupHopsSig:vector  ETV
vector 1710133  Network.dyn_peer[25]  lookupStabilitySig:vector  ETV
vector 1710134  Network.dyn_peer[25]  lookupTimeSig:vector  ETV
vector 1710075  Network.dyn_peer[6]  lookupHopsSig:vector  ETV
vector 1710076  Network.dyn_peer[6]  lookupStabilitySig:vector  ETV
vector 1710077  Network.dyn_peer[6]  lookupTimeSig:vector  ETV
vector 1710105  Network.dyn_peer[16]  lookupHopsSig:vector  ETV
vector 1710106  Network.dyn_peer[16]  lookupStabilitySig:vector  ETV
vector 1710107  Network.dyn_peer[16]  lookupTimeSig:vector  ETV
vector 1710108  Network.dyn_peer[17]  lookupHopsSig:vector  ETV
vector 1710109  Network.dyn_peer[17]  lookupStabilitySig:vector  ETV
vector 1710110  Network.dyn_peer[17]  lookupTimeSig:vector  ETV
vector 1710093  Network.dyn_peer[12]  lookupHopsSig:vector  ETV
vector 1710094  Network.dyn_peer[12]  lookupStabilitySig:vector  ETV
vector 1710095  Network.dyn_peer[12]  lookupTimeSig:vector  ETV
vector 1710102  Network.dyn_peer[15]  lookupHopsSig:vector  ETV
vector 1710103  Network.dyn_peer[15]  lookupStabilitySig:vector  ETV
vector 1710104  Network.dyn_peer[15]  lookupTimeSig:vector  ETV
vector 1710138  Network.dyn_peer[27]  lookupHopsSig:vector  ETV
vector 1710139  Network.dyn_peer[27]  lookupStabilitySig:vector  ETV
vector 1710140  Network.dyn_peer[27]  lookupTimeSig:vector  ETV
vector 1710117  Network.dyn_peer[20]  lookupHopsSig:vector  ETV
vector 1710118  Network.dyn_peer[20]  lookupStabilitySig:vector  ETV
vector 1710119  Network.dyn_peer[20]  lookupTimeSig:vector  ETV
vector 1710147  Network.dyn_peer[30]  lookupHopsSig:vector  ETV
vector 1710148  Network.dyn_peer[30]  lookupStabilitySig:vector  ETV
vector 1710149  Network.dyn_peer[30]  lookupTimeSig:vector  ETV
vector 1710180  Network.dyn_peer[41]  lookupHopsSig:vector  ETV
vector 1710181  Network.dyn_peer[41]  lookupStabilitySig:vector  ETV
vector 1710182  Network.dyn_peer[41]  lookupTimeSig:vector  ETV
vector 1710123  Network.dyn_peer[22]  lookupHopsSig:vector  ETV
vector 1710124  Network.dyn_peer[22]  lookupStabilitySig:vector  ETV
vector 1710125  Network.dyn_peer[22]  lookupTimeSig:vector  ETV
vector 1710156  Network.dyn_peer[33]  lookupHopsSig:vector  ETV
vector 1710157  Network.dyn_peer[33]  lookupStabilitySig:vector  ETV
vector 1710158  Network.dyn_peer[33]  lookupTimeSig:vector  ETV
vector 1710192  Network.dyn_peer[45]  lookupHopsSig:vector  ETV
vector 1710193  Network.dyn_peer[45]  lookupStabilitySig:vector  ETV
vector 1710194  Network.dyn_peer[45]  lookupTimeSig:vector  ETV
vector 1710165  Network.dyn_peer[36]  lookupHopsSig:vector  ETV
vector 1710166  Network.dyn_peer[36]  lookupStabilitySig:vector  ETV
vector 1710167  Network.dyn_peer[36]  lookupTimeSig:vector  ETV
vector 1710198  Network.dyn_peer[47]  lookupHopsSig:vector  ETV
vector 1710199  Network.dyn_peer[47]  lookupStabilitySig:vector  ETV
vector 1710200  Network.dyn_peer[47]  lookupTimeSig:vector  ETV
vector 1710171  Network.dyn_peer[38]  lookupHopsSig:vector  ETV
vector 1710172  Network.dyn_peer[38]  lookupStabilitySig:vector  ETV
vector 1710173  Network.dyn_peer[38]  lookupTimeSig:vector  ETV
vector 1710177  Network.dyn_peer[40]  lookupHopsSig:vector  ETV
vector 1710178  Network.dyn_peer[40]  lookupStabilitySig:vector  ETV
vector 1710179  Network.dyn_peer[40]  lookupTimeSig:vector  ETV
vector 1710066  Network.dyn_peer[3]  lookupHopsSig:vector  ETV
vector 1710067  Network.dyn_peer[3]  lookupStabilitySig:vector  ETV
vector 1710068  Network.dyn_peer[3]  lookupTimeSig:vector  ETV
vector 1710129  Network.dyn_peer[24]  lookupHopsSig:vector  ETV
vector 1710130  Network.dyn_peer[24]  lookupStabilitySig:vector  ETV
vector 1710131  Network.dyn_peer[24]  lookupTimeSig:vector  ETV
vector 1710162  Network.dyn_peer[35]  lookupHopsSig:vector  ETV
vector 1710163  Network.dyn_peer[35]  lookupStabilitySig:vector  ETV
vector 1710164  Network.dyn_peer[35]  lookupTimeSig:vector  ETV
vector 1710252  Network.dyn_peer[65]  lookupHopsSig:vector  ETV
vector 1710253  Network.dyn_peer[65]  lookupStabilitySig:vector  ETV
vector 1710254  Network.dyn_peer[65]  lookupTimeSig:vector  ETV
vector 1710135  Network.dyn_peer[26]  lookupHopsSig:vector  ETV
vector 1710136  Network.dyn_peer[26]  lookupStabilitySig:vector  ETV
vector 1710137  Network.dyn_peer[26]  lookupTimeSig:vector  ETV
vector 1710195  Network.dyn_peer[46]  lookupHopsSig:vector  ETV
vector 1710196  Network.dyn_peer[46]  lookupStabilitySig:vector  ETV
vector 1710197  Network.dyn_peer[46]  lookupTimeSig:vector  ETV
vector 1710225  Network.dyn_peer[56]  lookupHopsSig:vector  ETV
vector 1710226  Network.dyn_peer[56]  lookupStabilitySig:vector  ETV
vector 1710227  Network.dyn_peer[56]  lookupTimeSig:vector  ETV
vector 1710168  Network.dyn_peer[37]  lookupHopsSig:vector  ETV
vector 1710169  Network.dyn_peer[37]  lookupStabilitySig:vector  ETV
vector 1710170  Network.dyn_peer[37]  lookupTimeSig:vector  ETV
vector 1710201  Network.dyn_peer[48]  lookupHopsSig:vector  ETV
vector 1710202  Network.dyn_peer[48]  lookupStabilitySig:vector  ETV
vector 1710203  Network.dyn_peer[48]  lookupTimeSig:vector  ETV
vector 1710267  Network.dyn_peer[70]  lookupHopsSig:vector  ETV
vector 1710268  Network.dyn_peer[70]  lookupStabilitySig:vector  ETV
vector 1710269  Network.dyn_peer[70]  lookupTimeSig:vector  ETV
vector 1710150  Network.dyn_peer[31]  lookupHopsSig:vector  ETV
vector 1710151  Network.dyn_peer[31]  lookupStabilitySig:vector  ETV
vector 1710152  Network.dyn_peer[31]  lookupTimeSig:vector  ETV
vector 1710153  Network.dyn_peer[32]  lookupHopsSig:vector  ETV
vector 1710154  Network.dyn_peer[32]  lookupStabilitySig:vector  ETV
vector 1710155  Network.dyn_peer[32]  lookupTimeSig:vector  ETV
vector 1710186  Network.dyn_peer[43]  lookupHopsSig:vector  ETV
vector 1710187  Network.dyn_peer[43]  lookupStabilitySig:vector  ETV
vector 1710188  Network.dyn_peer[43]  lookupTimeSig:vector  ETV
vector 1710141  Network.dyn_peer[28]  lookupHopsSig:vector  ETV
vector 1710142  Network.dyn_peer[28]  lookupStabilitySig:vector  ETV
vector 1710143  Network.dyn_peer[28]  lookupTimeSig:vector  ETV
vector 1710243  Network.dyn_peer[62]  lookupHopsSig:vector  ETV
vector 1710244  Network.dyn_peer[62]  lookupStabilitySig:vector  ETV
vector 1710245  Network.dyn_peer[62]  lookupTimeSig:vector  ETV
vector 1710273  Network.dyn_peer[72]  lookupHopsSig:vector  ETV
vector 1710274  Network.dyn_peer[72]  lookupStabilitySig:vector  ETV
vector 1710275  Network.dyn_peer[72]  lookupTimeSig:vector  ETV
vector 1710246  Network.dyn_peer[63]  lookupHopsSig:vector  ETV
vector 1710247  Network.dyn_peer[63]  lookupStabilitySig:vector  ETV
vector 1710248  Network.dyn_peer[63]  lookupTimeSig:vector  ETV
vector 1710276  Network.dyn_peer[73]  lookupHopsSig:vector  ETV
vector 1710277  Network.dyn_peer[73]  lookupStabilitySig:vector  ETV
vector 1710278  Network.dyn_peer[73]  lookupTimeSig:vector  ETV
vector 1710159  Network.dyn_peer[34]  lookupHopsSig:vector  ETV
vector 1710160  Network.dyn_peer[34]  lookupStabilitySig:vector  ETV
vector 1710161  Network.dyn_peer[34]  lookupTimeSig:vector  ETV
vector 1710228  Network.dyn_peer[57]  lookupHopsSig:vector  ETV
vector 1710229  Network.dyn_peer[57]  lookupStabilitySig:vector  ETV
vector 1710230  Network.dyn_peer[57]  lookupTimeSig:vector  ETV
vector 1710144  Network.dyn_peer[29]  lookupHopsSig:vector  ETV
vector 1710145  Network.dyn_peer[29]  lookupStabilitySig:vector  ETV
vector 1710146  Network.dyn_peer[29]  lookupTimeSig:vector  ETV
vector 1710204  Network.dyn_peer[49]  lookupHopsSig:vector  ETV
vector 1710205  Network.dyn_peer[49]  lookupStabilitySig:vector  ETV
vector 1710206  Network.dyn_peer[49]  lookupTimeSig:vector  ETV
vector 1710183  Network.dyn_peer[42]  lookupHopsSig:vector  ETV
vector 1710184  Network.dyn_peer[42]  lookupStabilitySig:vector  ETV
vector 1710185  Network.dyn_peer[42]  lookupTimeSig:vector  ETV
vector 1710309  Network.dyn_peer[84]  lookupHopsSig:vector  ETV
vector 1710310  Network.dyn_peer[84]  lookupStabilitySig:vector  ETV
vector 1710311  Network.dyn_peer[84]  lookupTimeSig:vector  ETV
vector 1710174  Network.dyn_peer[39]  lookupHopsSig:vector  ETV
vector 1710175  Network.dyn_peer[39]  lookupStabilitySig:vector  ETV
vector 1710176  Network.dyn_peer[39]  lookupTimeSig:vector  ETV
vector 1710207  Network.dyn_peer[50]  lookupHopsSig:vector  ETV
vector 1710208  Network.dyn_peer[50]  lookupStabilitySig:vector  ETV
vector 1710209  Network.dyn_peer[50]  lookupTimeSig:vector  ETV
vector 1710327  Network.dyn_peer[90]  lookupHopsSig:vector  ETV
vector 1710328  Network.dyn_peer[90]  lookupStabilitySig:vector  ETV
vector 1710329  Network.dyn_peer[90]  lookupTimeSig:vector  ETV
vector 1710189  Network.dyn_peer[44]  lookupHopsSig:vector  ETV
vector 1710190  Network.dyn_peer[44]  lookupStabilitySig:vector  ETV
vector 1710191  Network.dyn_peer[44]  lookupTimeSig:vector  ETV
vector 1710312  Network.dyn_peer[85]  lookupHopsSig:vector  ETV
vector 1710313  Network.dyn_peer[85]  lookupStabilitySig:vector  ETV
vector 1710314  Network.dyn_peer[85]  lookupTimeSig:vector  ETV
vector 1710324  Network.dyn_peer[89]  lookupHopsSig:vector  ETV
vector 1710325  Network.dyn_peer[89]  lookupStabilitySig:vector  ETV
vector 1710326  Network.dyn_peer[89]  lookupTimeSig:vector  ETV
vector 1710237  Network.dyn_peer[60]  lookupHopsSig:vector  ETV
vector 1710238  Network.dyn_peer[60]  lookupStabilitySig:vector  ETV
vector 1710239  Network.dyn_peer[60]  lookupTimeSig:vector  ETV
vector 1710210  Network.dyn_peer[51]  lookupHopsSig:vector  ETV
vector 1710211  Network.dyn_peer[51]  lookupStabilitySig:vector  ETV
vector 1710212  Network.dyn_peer[51]  lookupTimeSig:vector  ETV
vector 1710336  Network.dyn_peer[93]  lookupHopsSig:vector  ETV
vector 1710337  Network.dyn_peer[93]  lookupStabilitySig:vector  ETV
vector 1710338  Network.dyn_peer[93]  lookupTimeSig:vector  ETV
vector 1710279  Network.dyn_peer[74]  lookupHopsSig:vector  ETV
vector 1710280  Network.dyn_peer[74]  lookupStabilitySig:vector  ETV
vector 1710281  Network.dyn_peer[74]  lookupTimeSig:vector  ETV
vector 1710285  Network.dyn_peer[76]  lookupHopsSig:vector  ETV
vector 1710286  Network.dyn_peer[76]  lookupStabilitySig:vector  ETV
vector 1710287  Network.dyn_peer[76]  lookupTimeSig:vector  ETV
vector 1710408  Network.dyn_peer[117]  lookupHopsSig:vector  ETV
vector 1710409  Network.dyn_peer[117]  lookupStabilitySig:vector  ETV
vector 1710410  Network.dyn_peer[117]  lookupTimeSig:vector  ETV
vector 1710264  Network.dyn_peer[69]  lookupHopsSig:vector  ETV
vector 1710265  Network.dyn_peer[69]  lookupStabilitySig:vector  ETV
vector 1710266  Network.dyn_peer[69]  lookupTimeSig:vector  ETV
vector 1710249  Network.dyn_peer[64]  lookupHopsSig:vector  ETV
vector 1710250  Network.dyn_peer[64]  lookupStabilitySig:vector  ETV
vector 1710251  Network.dyn_peer[64]  lookupTimeSig:vector  ETV
vector 1710222  Network.dyn_peer[55]  lookupHopsSig:vector  ETV
vector 1710223  Network.dyn_peer[55]  lookupStabilitySig:vector  ETV
vector 1710224  Network.dyn_peer[55]  lookupTimeSig:vector  ETV
vector 1710261  Network.dyn_peer[68]  lookupHopsSig:vector  ETV
vector 1710262  Network.dyn_peer[68]  lookupStabilitySig:vector  ETV
vector 1710263  Network.dyn_peer[68]  lookupTimeSig:vector  ETV
vector 1710291  Network.dyn_peer[78]  lookupHopsSig:vector  ETV
vector 1710292  Network.dyn_peer[78]  lookupStabilitySig:vector  ETV
vector 1710293  Network.dyn_peer[78]  lookupTimeSig:vector  ETV
vector 1710360  Network.dyn_peer[101]  lookupHopsSig:vector  ETV
vector 1710361  Network.dyn_peer[101]  lookupStabilitySig:vector  ETV
vector 1710362  Network.dyn_peer[101]  lookupTimeSig:vector  ETV
vector 1710363  Network.dyn_peer[102]  lookupHopsSig:vector  ETV
vector 1710364  Network.dyn_peer[102]  lookupStabilitySig:vector  ETV
vector 1710365  Network.dyn_peer[102]  lookupTimeSig:vector  ETV
vector 1710423  Network.dyn_peer[122]  lookupHopsSig:vector  ETV
vector 1710424  Network.dyn_peer[122]  lookupStabilitySig:vector  ETV
vector 1710425  Network.dyn_peer[122]  lookupTimeSig:vector  ETV
vector 1710219  Network.dyn_peer[54]  lookupHopsSig:vector  ETV
vector 1710220  Network.dyn_peer[54]  lookupStabilitySig:vector  ETV
vector 1710221  Network.dyn_peer[54]  lookupTimeSig:vector  ETV
vector 1710339  Network.dyn_peer[94]  lookupHopsSig:vector  ETV
vector 1710340  Network.dyn_peer[94]  lookupStabilitySig:vector  ETV
vector 1710341  Network.dyn_peer[94]  lookupTimeSig:vector  ETV
vector 1710294  Network.dyn_peer[79]  lookupHopsSig:vector  ETV
vector 1710295  Network.dyn_peer[79]  lookupStabilitySig:vector  ETV
vector 1710296  Network.dyn_peer[79]  lookupTimeSig:vector  ETV
vector 1710444  Network.dyn_peer[129]  lookupHopsSig:vector  ETV
vector 1710445  Network.dyn_peer[129]  lookupStabilitySig:vector  ETV
vector 1710446  Network.dyn_peer[129]  lookupTimeSig:vector  ETV
vector 1710387  Network.dyn_peer[110]  lookupHopsSig:vector  ETV
vector 1710388  Network.dyn_peer[110]  lookupStabilitySig:vector  ETV
vector 1710389  Network.dyn_peer[110]  lookupTimeSig:vector  ETV
vector 1710240  Network.dyn_peer[61]  lookupHopsSig:vector  ETV
vector 1710241  Network.dyn_peer[61]  lookupStabilitySig:vector  ETV
vector 1710242  Network.dyn_peer[61]  lookupTimeSig:vector  ETV
vector 1710213  Network.dyn_peer[52]  lookupHopsSig:vector  ETV
vector 1710214  Network.dyn_peer[52]  lookupStabilitySig:vector  ETV
vector 1710215  Network.dyn_peer[52]  lookupTimeSig:vector  ETV
vector 1710453  Network.dyn_peer[132]  lookupHopsSig:vector  ETV
vector 1710454  Network.dyn_peer[132]  lookupStabilitySig:vector  ETV
vector 1710455  Network.dyn_peer[132]  lookupTimeSig:vector  ETV
vector 1710216  Network.dyn_peer[53]  lookupHopsSig:vector  ETV
vector 1710217  Network.dyn_peer[53]  lookupStabilitySig:vector  ETV
vector 1710218  Network.dyn_peer[53]  lookupTimeSig:vector  ETV
vector 1710435  Network.dyn_peer[126]  lookupHopsSig:vector  ETV
vector 1710436  Network.dyn_peer[126]  lookupStabilitySig:vector  ETV
vector 1710437  Network.dyn_peer[126]  lookupTimeSig:vector  ETV
vector 1710321  Network.dyn_peer[88]  lookupHopsSig:vector  ETV
vector 1710322  Network.dyn_peer[88]  lookupStabilitySig:vector  ETV
vector 1710323  Network.dyn_peer[88]  lookupTimeSig:vector  ETV
vector 1710354  Network.dyn_peer[99]  lookupHopsSig:vector  ETV
vector 1710355  Network.dyn_peer[99]  lookupStabilitySig:vector  ETV
vector 1710356  Network.dyn_peer[99]  lookupTimeSig:vector  ETV
vector 1710384  Network.dyn_peer[109]  lookupHopsSig:vector  ETV
vector 1710385  Network.dyn_peer[109]  lookupStabilitySig:vector  ETV
vector 1710386  Network.dyn_peer[109]  lookupTimeSig:vector  ETV
vector 1710357  Network.dyn_peer[100]  lookupHopsSig:vector  ETV
vector 1710358  Network.dyn_peer[100]  lookupStabilitySig:vector  ETV
vector 1710359  Network.dyn_peer[100]  lookupTimeSig:vector  ETV
vector 1710288  Network.dyn_peer[77]  lookupHopsSig:vector  ETV
vector 1710289  Network.dyn_peer[77]  lookupStabilitySig:vector  ETV
vector 1710290  Network.dyn_peer[77]  lookupTimeSig:vector  ETV
vector 1710447  Network.dyn_peer[130]  lookupHopsSig:vector  ETV
vector 1710448  Network.dyn_peer[130]  lookupStabilitySig:vector  ETV
vector 1710449  Network.dyn_peer[130]  lookupTimeSig:vector  ETV
vector 1710480  Network.dyn_peer[141]  lookupHopsSig:vector  ETV
vector 1710481  Network.dyn_peer[141]  lookupStabilitySig:vector  ETV
vector 1710482  Network.dyn_peer[141]  lookupTimeSig:vector  ETV
vector 1710255  Network.dyn_peer[66]  lookupHopsSig:vector  ETV
vector 1710256  Network.dyn_peer[66]  lookupStabilitySig:vector  ETV
vector 1710257  Network.dyn_peer[66]  lookupTimeSig:vector  ETV
vector 1710258  Network.dyn_peer[67]  lookupHopsSig:vector  ETV
vector 1710259  Network.dyn_peer[67]  lookupStabilitySig:vector  ETV
vector 1710260  Network.dyn_peer[67]  lookupTimeSig:vector  ETV
vector 1710231  Network.dyn_peer[58]  lookupHopsSig:vector  ETV
vector 1710232  Network.dyn_peer[58]  lookupStabilitySig:vector  ETV
vector 1710233  Network.dyn_peer[58]  lookupTimeSig:vector  ETV
vector 1710351  Network.dyn_peer[98]  lookupHopsSig:vector  ETV
vector 1710352  Network.dyn_peer[98]  lookupStabilitySig:vector  ETV
vector 1710353  Network.dyn_peer[98]  lookupTimeSig:vector  ETV
vector 1710300  Network.dyn_peer[81]  lookupHopsSig:vector  ETV
vector 1710301  Network.dyn_peer[81]  lookupStabilitySig:vector  ETV
vector 1710302  Network.dyn_peer[81]  lookupTimeSig:vector  ETV
vector 1710390  Network.dyn_peer[111]  lookupHopsSig:vector  ETV
vector 1710391  Network.dyn_peer[111]  lookupStabilitySig:vector  ETV
vector 1710392  Network.dyn_peer[111]  lookupTimeSig:vector  ETV
vector 1710366  Network.dyn_peer[103]  lookupHopsSig:vector  ETV
vector 1710367  Network.dyn_peer[103]  lookupStabilitySig:vector  ETV
vector 1710368  Network.dyn_peer[103]  lookupTimeSig:vector  ETV
vector 1710429  Network.dyn_peer[124]  lookupHopsSig:vector  ETV
vector 1710430  Network.dyn_peer[124]  lookupStabilitySig:vector  ETV
vector 1710431  Network.dyn_peer[124]  lookupTimeSig:vector  ETV
vector 1710459  Network.dyn_peer[134]  lookupHopsSig:vector  ETV
vector 1710460  Network.dyn_peer[134]  lookupStabilitySig:vector  ETV
vector 1710461  Network.dyn_peer[134]  lookupTimeSig:vector  ETV
vector 1710432  Network.dyn_peer[125]  lookupHopsSig:vector  ETV
vector 1710433  Network.dyn_peer[125]  lookupStabilitySig:vector  ETV
vector 1710434  Network.dyn_peer[125]  lookupTimeSig:vector  ETV
vector 1710522  Network.dyn_peer[155]  lookupHopsSig:vector  ETV
vector 1710523  Network.dyn_peer[155]  lookupStabilitySig:vector  ETV
vector 1710524  Network.dyn_peer[155]  lookupTimeSig:vector  ETV
vector 1710411  Network.dyn_peer[118]  lookupHopsSig:vector  ETV
vector 1710412  Network.dyn_peer[118]  lookupStabilitySig:vector  ETV
vector 1710413  Network.dyn_peer[118]  lookupTimeSig:vector  ETV
vector 1710471  Network.dyn_peer[138]  lookupHopsSig:vector  ETV
vector 1710472  Network.dyn_peer[138]  lookupStabilitySig:vector  ETV
vector 1710473  Network.dyn_peer[138]  lookupTimeSig:vector  ETV
vector 1710564  Network.dyn_peer[169]  lookupHopsSig:vector  ETV
vector 1710565  Network.dyn_peer[169]  lookupStabilitySig:vector  ETV
vector 1710566  Network.dyn_peer[169]  lookupTimeSig:vector  ETV
vector 1710513  Network.dyn_peer[152]  lookupHopsSig:vector  ETV
vector 1710514  Network.dyn_peer[152]  lookupStabilitySig:vector  ETV
vector 1710515  Network.dyn_peer[152]  lookupTimeSig:vector  ETV
vector 1710456  Network.dyn_peer[133]  lookupHopsSig:vector  ETV
vector 1710457  Network.dyn_peer[133]  lookupStabilitySig:vector  ETV
vector 1710458  Network.dyn_peer[133]  lookupTimeSig:vector  ETV
vector 1710576  Network.dyn_peer[173]  lookupHopsSig:vector  ETV
vector 1710577  Network.dyn_peer[173]  lookupStabilitySig:vector  ETV
vector 1710578  Network.dyn_peer[173]  lookupTimeSig:vector  ETV
vector 1710399  Network.dyn_peer[114]  lookupHopsSig:vector  ETV
vector 1710400  Network.dyn_peer[114]  lookupStabilitySig:vector  ETV
vector 1710401  Network.dyn_peer[114]  lookupTimeSig:vector  ETV
vector 1710282  Network.dyn_peer[75]  lookupHopsSig:vector  ETV
vector 1710283  Network.dyn_peer[75]  lookupStabilitySig:vector  ETV
vector 1710284  Network.dyn_peer[75]  lookupTimeSig:vector  ETV
vector 1710375  Network.dyn_peer[106]  lookupHopsSig:vector  ETV
vector 1710376  Network.dyn_peer[106]  lookupStabilitySig:vector  ETV
vector 1710377  Network.dyn_peer[106]  lookupTimeSig:vector  ETV
vector 1710465  Network.dyn_peer[136]  lookupHopsSig:vector  ETV
vector 1710466  Network.dyn_peer[136]  lookupStabilitySig:vector  ETV
vector 1710467  Network.dyn_peer[136]  lookupTimeSig:vector  ETV
vector 1710525  Network.dyn_peer[156]  lookupHopsSig:vector  ETV
vector 1710526  Network.dyn_peer[156]  lookupStabilitySig:vector  ETV
vector 1710527  Network.dyn_peer[156]  lookupTimeSig:vector  ETV
vector 1710555  Network.dyn_peer[166]  lookupHopsSig:vector  ETV
vector 1710556  Network.dyn_peer[166]  lookupStabilitySig:vector  ETV
vector 1710557  Network.dyn_peer[166]  lookupTimeSig:vector  ETV
vector 1710561  Network.dyn_peer[168]  lookupHopsSig:vector  ETV
vector 1710562  Network.dyn_peer[168]  lookupStabilitySig:vector  ETV
vector 1710563  Network.dyn_peer[168]  lookupTimeSig:vector  ETV
vector 1710270  Network.dyn_peer[71]  lookupHopsSig:vector  ETV
vector 1710271  Network.dyn_peer[71]  lookupStabilitySig:vector  ETV
vector 1710272  Network.dyn_peer[71]  lookupTimeSig:vector  ETV
vector 1710330  Network.dyn_peer[91]  lookupHopsSig:vector  ETV
vector 1710331  Network.dyn_peer[91]  lookupStabilitySig:vector  ETV
vector 1710332  Network.dyn_peer[91]  lookupTimeSig:vector  ETV
vector 1710450  Network.dyn_peer[131]  lookupHopsSig:vector  ETV
vector 1710451  Network.dyn_peer[131]  lookupStabilitySig:vector  ETV
vector 1710452  Network.dyn_peer[131]  lookupTimeSig:vector  ETV
vector 1710570  Network.dyn_peer[171]  lookupHopsSig:vector  ETV
vector 1710571  Network.dyn_peer[171]  lookupStabilitySig:vector  ETV
vector 1710572  Network.dyn_peer[171]  lookupTimeSig:vector  ETV
vector 1710549  Network.dyn_peer[164]  lookupHopsSig:vector  ETV
vector 1710550  Network.dyn_peer[164]  lookupStabilitySig:vector  ETV
vector 1710551  Network.dyn_peer[164]  lookupTimeSig:vector  ETV
vector 1710462  Network.dyn_peer[135]  lookupHopsSig:vector  ETV
vector 1710463  Network.dyn_peer[135]  lookupStabilitySig:vector  ETV
vector 1710464  Network.dyn_peer[135]  lookupTimeSig:vector  ETV
vector 1710378  Network.dyn_peer[107]  lookupHopsSig:vector  ETV
vector 1710379  Network.dyn_peer[107]  lookupStabilitySig:vector  ETV
vector 1710380  Network.dyn_peer[107]  lookupTimeSig:vector  ETV
vector 1710438  Network.dyn_peer[127]  lookupHopsSig:vector  ETV
vector 1710439  Network.dyn_peer[127]  lookupStabilitySig:vector  ETV
vector 1710440  Network.dyn_peer[127]  lookupTimeSig:vector  ETV
vector 1710651  Network.dyn_peer[198]  lookupHopsSig:vector  ETV
vector 1710652  Network.dyn_peer[198]  lookupStabilitySig:vector  ETV
vector 1710653  Network.dyn_peer[198]  lookupTimeSig:vector  ETV
vector 1710297  Network.dyn_peer[80]  lookupHopsSig:vector  ETV
vector 1710298  Network.dyn_peer[80]  lookupStabilitySig:vector  ETV
vector 1710299  Network.dyn_peer[80]  lookupTimeSig:vector  ETV
vector 1710657  Network.dyn_peer[200]  lookupHopsSig:vector  ETV
vector 1710658  Network.dyn_peer[200]  lookupStabilitySig:vector  ETV
vector 1710659  Network.dyn_peer[200]  lookupTimeSig:vector  ETV
vector 1710486  Network.dyn_peer[143]  lookupHopsSig:vector  ETV
vector 1710487  Network.dyn_peer[143]  lookupStabilitySig:vector  ETV
vector 1710488  Network.dyn_peer[143]  lookupTimeSig:vector  ETV
vector 1710369  Network.dyn_peer[104]  lookupHopsSig:vector  ETV
vector 1710370  Network.dyn_peer[104]  lookupStabilitySig:vector  ETV
vector 1710371  Network.dyn_peer[104]  lookupTimeSig:vector  ETV
vector 1710345  Network.dyn_peer[96]  lookupHopsSig:vector  ETV
vector 1710346  Network.dyn_peer[96]  lookupStabilitySig:vector  ETV
vector 1710347  Network.dyn_peer[96]  lookupTimeSig:vector  ETV
vector 1710585  Network.dyn_peer[176]  lookupHopsSig:vector  ETV
vector 1710586  Network.dyn_peer[176]  lookupStabilitySig:vector  ETV
vector 1710587  Network.dyn_peer[176]  lookupTimeSig:vector  ETV
vector 1710318  Network.dyn_peer[87]  lookupHopsSig:vector  ETV
vector 1710319  Network.dyn_peer[87]  lookupStabilitySig:vector  ETV
vector 1710320  Network.dyn_peer[87]  lookupTimeSig:vector  ETV
vector 1710468  Network.dyn_peer[137]  lookupHopsSig:vector  ETV
vector 1710469  Network.dyn_peer[137]  lookupStabilitySig:vector  ETV
vector 1710470  Network.dyn_peer[137]  lookupTimeSig:vector  ETV
vector 1710420  Network.dyn_peer[121]  lookupHopsSig:vector  ETV
vector 1710421  Network.dyn_peer[121]  lookupStabilitySig:vector  ETV
vector 1710422  Network.dyn_peer[121]  lookupTimeSig:vector  ETV
vector 1710543  Network.dyn_peer[162]  lookupHopsSig:vector  ETV
vector 1710544  Network.dyn_peer[162]  lookupStabilitySig:vector  ETV
vector 1710545  Network.dyn_peer[162]  lookupTimeSig:vector  ETV
vector 1710396  Network.dyn_peer[113]  lookupHopsSig:vector  ETV
vector 1710397  Network.dyn_peer[113]  lookupStabilitySig:vector  ETV
vector 1710398  Network.dyn_peer[113]  lookupTimeSig:vector  ETV
vector 1710519  Network.dyn_peer[154]  lookupHopsSig:vector  ETV
vector 1710520  Network.dyn_peer[154]  lookupStabilitySig:vector  ETV
vector 1710521  Network.dyn_peer[154]  lookupTimeSig:vector  ETV
vector 1710582  Network.dyn_peer[175]  lookupHopsSig:vector  ETV
vector 1710583  Network.dyn_peer[175]  lookupStabilitySig:vector  ETV
vector 1710584  Network.dyn_peer[175]  lookupTimeSig:vector  ETV
vector 1710405  Network.dyn_peer[116]  lookupHopsSig:vector  ETV
vector 1710406  Network.dyn_peer[116]  lookupStabilitySig:vector  ETV
vector 1710407  Network.dyn_peer[116]  lookupTimeSig:vector  ETV
vector 1710531  Network.dyn_peer[158]  lookupHopsSig:vector  ETV
vector 1710532  Network.dyn_peer[158]  lookupStabilitySig:vector  ETV
vector 1710533  Network.dyn_peer[158]  lookupTimeSig:vector  ETV
vector 1710372  Network.dyn_peer[105]  lookupHopsSig:vector  ETV
vector 1710373  Network.dyn_peer[105]  lookupStabilitySig:vector  ETV
vector 1710374  Network.dyn_peer[105]  lookupTimeSig:vector  ETV
vector 1710501  Network.dyn_peer[148]  lookupHopsSig:vector  ETV
vector 1710502  Network.dyn_peer[148]  lookupStabilitySig:vector  ETV
vector 1710503  Network.dyn_peer[148]  lookupTimeSig:vector  ETV
vector 1710507  Network.dyn_peer[150]  lookupHopsSig:vector  ETV
vector 1710508  Network.dyn_peer[150]  lookupStabilitySig:vector  ETV
vector 1710509  Network.dyn_peer[150]  lookupTimeSig:vector  ETV
vector 1710567  Network.dyn_peer[170]  lookupHopsSig:vector  ETV
vector 1710568  Network.dyn_peer[170]  lookupStabilitySig:vector  ETV
vector 1710569  Network.dyn_peer[170]  lookupTimeSig:vector  ETV
vector 1710600  Network.dyn_peer[181]  lookupHopsSig:vector  ETV
vector 1710601  Network.dyn_peer[181]  lookupStabilitySig:vector  ETV
vector 1710602  Network.dyn_peer[181]  lookupTimeSig:vector  ETV
vector 1710393  Network.dyn_peer[112]  lookupHopsSig:vector  ETV
vector 1710394  Network.dyn_peer[112]  lookupStabilitySig:vector  ETV
vector 1710395  Network.dyn_peer[112]  lookupTimeSig:vector  ETV
vector 1710516  Network.dyn_peer[153]  lookupHopsSig:vector  ETV
vector 1710517  Network.dyn_peer[153]  lookupStabilitySig:vector  ETV
vector 1710518  Network.dyn_peer[153]  lookupTimeSig:vector  ETV