version 2
run Stability2-14-20130528-01:22:53-24168
attr configname Stability2
attr datetime 20130528-01:22:53
attr experiment Stability2
attr inifile omnetpp.ini
attr iterationvars $0=20
attr iterationvars2 "$0=20, $repetition=4"
attr measurement $0=20
attr network Network
attr processid 24168
attr repetition 4
attr replication #4
attr resultdir results
attr runnumber 14
attr seedset 14

vector 450014  Network.churner  inGoingSizeSig:vector  ETV
vector 420035  Network.dyn_peer[7]  lookupHopsSig:vector  ETV
vector 420036  Network.dyn_peer[7]  lookupStabilitySig:vector  ETV
vector 420037  Network.dyn_peer[7]  lookupTimeSig:vector  ETV
vector 420038  Network.dyn_peer[8]  lookupHopsSig:vector  ETV
vector 420039  Network.dyn_peer[8]  lookupStabilitySig:vector  ETV
vector 420040  Network.dyn_peer[8]  lookupTimeSig:vector  ETV
vector 420014  Network.dyn_peer[0]  lookupHopsSig:vector  ETV
vector 420015  Network.dyn_peer[0]  lookupStabilitySig:vector  ETV
vector 420016  Network.dyn_peer[0]  lookupTimeSig:vector  ETV
vector 420050  Network.dyn_peer[12]  lookupHopsSig:vector  ETV
vector 420051  Network.dyn_peer[12]  lookupStabilitySig:vector  ETV
vector 420052  Network.dyn_peer[12]  lookupTimeSig:vector  ETV
vector 420023  Network.dyn_peer[3]  lookupHopsSig:vector  ETV
vector 420024  Network.dyn_peer[3]  lookupStabilitySig:vector  ETV
vector 420025  Network.dyn_peer[3]  lookupTimeSig:vector  ETV
vector 420017  Network.dyn_peer[1]  lookupHopsSig:vector  ETV
vector 420018  Network.dyn_peer[1]  lookupStabilitySig:vector  ETV
vector 420019  Network.dyn_peer[1]  lookupTimeSig:vector  ETV
vector 420026  Network.dyn_peer[4]  lookupHopsSig:vector  ETV
vector 420027  Network.dyn_peer[4]  lookupStabilitySig:vector  ETV
vector 420028  Network.dyn_peer[4]  lookupTimeSig:vector  ETV
vector 420029  Network.dyn_peer[5]  lookupHopsSig:vector  ETV
vector 420030  Network.dyn_peer[5]  lookupStabilitySig:vector  ETV
vector 420031  Network.dyn_peer[5]  lookupTimeSig:vector  ETV
vector 420062  Network.dyn_peer[16]  lookupHopsSig:vector  ETV
vector 420063  Network.dyn_peer[16]  lookupStabilitySig:vector  ETV
vector 420064  Network.dyn_peer[16]  lookupTimeSig:vector  ETV
vector 420068  Network.dyn_peer[18]  lookupHopsSig:vector  ETV
vector 420069  Network.dyn_peer[18]  lookupStabilitySig:vector  ETV
vector 420070  Network.dyn_peer[18]  lookupTimeSig:vector  ETV
vector 420041  Network.dyn_peer[9]  lookupHopsSig:vector  ETV
vector 420042  Network.dyn_peer[9]  lookupStabilitySig:vector  ETV
vector 420043  Network.dyn_peer[9]  lookupTimeSig:vector  ETV
vector 420071  Network.dyn_peer[19]  lookupHopsSig:vector  ETV
vector 420072  Network.dyn_peer[19]  lookupStabilitySig:vector  ETV
vector 420073  Network.dyn_peer[19]  lookupTimeSig:vector  ETV
vector 420047  Network.dyn_peer[11]  lookupHopsSig:vector  ETV
vector 420048  Network.dyn_peer[11]  lookupStabilitySig:vector  ETV
vector 420049  Network.dyn_peer[11]  lookupTimeSig:vector  ETV
vector 420020  Network.dyn_peer[2]  lookupHopsSig:vector  ETV
vector 420021  Network.dyn_peer[2]  lookupStabilitySig:vector  ETV
vector 420022  Network.dyn_peer[2]  lookupTimeSig:vector  ETV
vector 420110  Network.dyn_peer[32]  lookupHopsSig:vector  ETV
vector 420111  Network.dyn_peer[32]  lookupStabilitySig:vector  ETV
vector 420112  Network.dyn_peer[32]  lookupTimeSig:vector  ETV
vector 420086  Network.dyn_peer[24]  lookupHopsSig:vector  ETV
vector 420087  Network.dyn_peer[24]  lookupStabilitySig:vector  ETV
vector 420088  Network.dyn_peer[24]  lookupTimeSig:vector  ETV
vector 420059  Network.dyn_peer[15]  lookupHopsSig:vector  ETV
vector 420060  Network.dyn_peer[15]  lookupStabilitySig:vector  ETV
vector 420061  Network.dyn_peer[15]  lookupTimeSig:vector  ETV
vector 420032  Network.dyn_peer[6]  lookupHopsSig:vector  ETV
vector 420033  Network.dyn_peer[6]  lookupStabilitySig:vector  ETV
vector 420034  Network.dyn_peer[6]  lookupTimeSig:vector  ETV
vector 420104  Network.dyn_peer[30]  lookupHopsSig:vector  ETV
vector 420105  Network.dyn_peer[30]  lookupStabilitySig:vector  ETV
vector 420106  Network.dyn_peer[30]  lookupTimeSig:vector  ETV
vector 420080  Network.dyn_peer[22]  lookupHopsSig:vector  ETV
vector 420081  Network.dyn_peer[22]  lookupStabilitySig:vector  ETV
vector 420082  Network.dyn_peer[22]  lookupTimeSig:vector  ETV
vector 420116  Network.dyn_peer[34]  lookupHopsSig:vector  ETV
vector 420117  Network.dyn_peer[34]  lookupStabilitySig:vector  ETV
vector 420118  Network.dyn_peer[34]  lookupTimeSig:vector  ETV
vector 420095  Network.dyn_peer[27]  lookupHopsSig:vector  ETV
vector 420096  Network.dyn_peer[27]  lookupStabilitySig:vector  ETV
vector 420097  Network.dyn_peer[27]  lookupTimeSig:vector  ETV
vector 420134  Network.dyn_peer[40]  lookupHopsSig:vector  ETV
vector 420135  Network.dyn_peer[40]  lookupStabilitySig:vector  ETV
vector 420136  Network.dyn_peer[40]  lookupTimeSig:vector  ETV
vector 420056  Network.dyn_peer[14]  lookupHopsSig:vector  ETV
vector 420057  Network.dyn_peer[14]  lookupStabilitySig:vector  ETV
vector 420058  Network.dyn_peer[14]  lookupTimeSig:vector  ETV
vector 420089  Network.dyn_peer[25]  lookupHopsSig:vector  ETV
vector 420090  Network.dyn_peer[25]  lookupStabilitySig:vector  ETV
vector 420091  Network.dyn_peer[25]  lookupTimeSig:vector  ETV
vector 420065  Network.dyn_peer[17]  lookupHopsSig:vector  ETV
vector 420066  Network.dyn_peer[17]  lookupStabilitySig:vector  ETV
vector 420067  Network.dyn_peer[17]  lookupTimeSig:vector  ETV
vector 420098  Network.dyn_peer[28]  lookupHopsSig:vector  ETV
vector 420099  Network.dyn_peer[28]  lookupStabilitySig:vector  ETV
vector 420100  Network.dyn_peer[28]  lookupTimeSig:vector  ETV
vector 420044  Network.dyn_peer[10]  lookupHopsSig:vector  ETV
vector 420045  Network.dyn_peer[10]  lookupStabilitySig:vector  ETV
vector 420046  Network.dyn_peer[10]  lookupTimeSig:vector  ETV
vector 420074  Network.dyn_peer[20]  lookupHopsSig:vector  ETV
vector 420075  Network.dyn_peer[20]  lookupStabilitySig:vector  ETV
vector 420076  Network.dyn_peer[20]  lookupTimeSig:vector  ETV
vector 420053  Network.dyn_peer[13]  lookupHopsSig:vector  ETV
vector 420054  Network.dyn_peer[13]  lookupStabilitySig:vector  ETV
vector 420055  Network.dyn_peer[13]  lookupTimeSig:vector  ETV
vector 420083  Network.dyn_peer[23]  lookupHopsSig:vector  ETV
vector 420084  Network.dyn_peer[23]  lookupStabilitySig:vector  ETV
vector 420085  Network.dyn_peer[23]  lookupTimeSig:vector  ETV
vector 420113  Network.dyn_peer[33]  lookupHopsSig:vector  ETV
vector 420114  Network.dyn_peer[33]  lookupStabilitySig:vector  ETV
vector 420115  Network.dyn_peer[33]  lookupTimeSig:vector  ETV
vector 420176  Network.dyn_peer[54]  lookupHopsSig:vector  ETV
vector 420177  Network.dyn_peer[54]  lookupStabilitySig:vector  ETV
vector 420178  Network.dyn_peer[54]  lookupTimeSig:vector  ETV
vector 420179  Network.dyn_peer[55]  lookupHopsSig:vector  ETV
vector 420180  Network.dyn_peer[55]  lookupStabilitySig:vector  ETV
vector 420181  Network.dyn_peer[55]  lookupTimeSig:vector  ETV
vector 420131  Network.dyn_peer[39]  lookupHopsSig:vector  ETV
vector 420132  Network.dyn_peer[39]  lookupStabilitySig:vector  ETV
vector 420133  Network.dyn_peer[39]  lookupTimeSig:vector  ETV
vector 420077  Network.dyn_peer[21]  lookupHopsSig:vector  ETV
vector 420078  Network.dyn_peer[21]  lookupStabilitySig:vector  ETV
vector 420079  Network.dyn_peer[21]  lookupTimeSig:vector  ETV
vector 420092  Network.dyn_peer[26]  lookupHopsSig:vector  ETV
vector 420093  Network.dyn_peer[26]  lookupStabilitySig:vector  ETV
vector 420094  Network.dyn_peer[26]  lookupTimeSig:vector  ETV
vector 420143  Network.dyn_peer[43]  lookupHopsSig:vector  ETV
vector 420144  Network.dyn_peer[43]  lookupStabilitySig:vector  ETV
vector 420145  Network.dyn_peer[43]  lookupTimeSig:vector  ETV
vector 420263  Network.dyn_peer[83]  lookupHopsSig:vector  ETV
vector 420264  Network.dyn_peer[83]  lookupStabilitySig:vector  ETV
vector 420265  Network.dyn_peer[83]  lookupTimeSig:vector  ETV
vector 420212  Network.dyn_peer[66]  lookupHopsSig:vector  ETV
vector 420213  Network.dyn_peer[66]  lookupStabilitySig:vector  ETV
vector 420214  Network.dyn_peer[66]  lookupTimeSig:vector  ETV
vector 420101  Network.dyn_peer[29]  lookupHopsSig:vector  ETV
vector 420102  Network.dyn_peer[29]  lookupStabilitySig:vector  ETV
vector 420103  Network.dyn_peer[29]  lookupTimeSig:vector  ETV
vector 420293  Network.dyn_peer[93]  lookupHopsSig:vector  ETV
vector 420294  Network.dyn_peer[93]  lookupStabilitySig:vector  ETV
vector 420295  Network.dyn_peer[93]  lookupTimeSig:vector  ETV
vector 420251  Network.dyn_peer[79]  lookupHopsSig:vector  ETV
vector 420252  Network.dyn_peer[79]  lookupStabilitySig:vector  ETV
vector 420253  Network.dyn_peer[79]  lookupTimeSig:vector  ETV
vector 420164  Network.dyn_peer[50]  lookupHopsSig:vector  ETV
vector 420165  Network.dyn_peer[50]  lookupStabilitySig:vector  ETV
vector 420166  Network.dyn_peer[50]  lookupTimeSig:vector  ETV
vector 420287  Network.dyn_peer[91]  lookupHopsSig:vector  ETV
vector 420288  Network.dyn_peer[91]  lookupStabilitySig:vector  ETV
vector 420289  Network.dyn_peer[91]  lookupTimeSig:vector  ETV
vector 420170  Network.dyn_peer[52]  lookupHopsSig:vector  ETV
vector 420171  Network.dyn_peer[52]  lookupStabilitySig:vector  ETV
vector 420172  Network.dyn_peer[52]  lookupTimeSig:vector  ETV
vector 420173  Network.dyn_peer[53]  lookupHopsSig:vector  ETV
vector 420174  Network.dyn_peer[53]  lookupStabilitySig:vector  ETV
vector 420175  Network.dyn_peer[53]  lookupTimeSig:vector  ETV
vector 420149  Network.dyn_peer[45]  lookupHopsSig:vector  ETV
vector 420150  Network.dyn_peer[45]  lookupStabilitySig:vector  ETV
vector 420151  Network.dyn_peer[45]  lookupTimeSig:vector  ETV
vector 420269  Network.dyn_peer[85]  lookupHopsSig:vector  ETV
vector 420270  Network.dyn_peer[85]  lookupStabilitySig:vector  ETV
vector 420271  Network.dyn_peer[85]  lookupTimeSig:vector  ETV
vector 420155  Network.dyn_peer[47]  lookupHopsSig:vector  ETV
vector 420156  Network.dyn_peer[47]  lookupStabilitySig:vector  ETV
vector 420157  Network.dyn_peer[47]  lookupTimeSig:vector  ETV
vector 420245  Network.dyn_peer[77]  lookupHopsSig:vector  ETV
vector 420246  Network.dyn_peer[77]  lookupStabilitySig:vector  ETV
vector 420247  Network.dyn_peer[77]  lookupTimeSig:vector  ETV
vector 420305  Network.dyn_peer[97]  lookupHopsSig:vector  ETV
vector 420306  Network.dyn_peer[97]  lookupStabilitySig:vector  ETV
vector 420307  Network.dyn_peer[97]  lookupTimeSig:vector  ETV
vector 420308  Network.dyn_peer[98]  lookupHopsSig:vector  ETV
vector 420309  Network.dyn_peer[98]  lookupStabilitySig:vector  ETV
vector 420310  Network.dyn_peer[98]  lookupTimeSig:vector  ETV
vector 420221  Network.dyn_peer[69]  lookupHopsSig:vector  ETV
vector 420222  Network.dyn_peer[69]  lookupStabilitySig:vector  ETV
vector 420223  Network.dyn_peer[69]  lookupTimeSig:vector  ETV
vector 420140  Network.dyn_peer[42]  lookupHopsSig:vector  ETV
vector 420141  Network.dyn_peer[42]  lookupStabilitySig:vector  ETV
vector 420142  Network.dyn_peer[42]  lookupTimeSig:vector  ETV
vector 420146  Network.dyn_peer[44]  lookupHopsSig:vector  ETV
vector 420147  Network.dyn_peer[44]  lookupStabilitySig:vector  ETV
vector 420148  Network.dyn_peer[44]  lookupTimeSig:vector  ETV
vector 420206  Network.dyn_peer[64]  lookupHopsSig:vector  ETV
vector 420207  Network.dyn_peer[64]  lookupStabilitySig:vector  ETV
vector 420208  Network.dyn_peer[64]  lookupTimeSig:vector  ETV
vector 420236  Network.dyn_peer[74]  lookupHopsSig:vector  ETV
vector 420237  Network.dyn_peer[74]  lookupStabilitySig:vector  ETV
vector 420238  Network.dyn_peer[74]  lookupTimeSig:vector  ETV
vector 420119  Network.dyn_peer[35]  lookupHopsSig:vector  ETV
vector 420120  Network.dyn_peer[35]  lookupStabilitySig:vector  ETV
vector 420121  Network.dyn_peer[35]  lookupTimeSig:vector  ETV
vector 420329  Network.dyn_peer[105]  lookupHopsSig:vector  ETV
vector 420330  Network.dyn_peer[105]  lookupStabilitySig:vector  ETV
vector 420331  Network.dyn_peer[105]  lookupTimeSig:vector  ETV
vector 420365  Network.dyn_peer[117]  lookupHopsSig:vector  ETV
vector 420366  Network.dyn_peer[117]  lookupStabilitySig:vector  ETV
vector 420367  Network.dyn_peer[117]  lookupTimeSig:vector  ETV
vector 420248  Network.dyn_peer[78]  lookupHopsSig:vector  ETV
vector 420249  Network.dyn_peer[78]  lookupStabilitySig:vector  ETV
vector 420250  Network.dyn_peer[78]  lookupTimeSig:vector  ETV
vector 420311  Network.dyn_peer[99]  lookupHopsSig:vector  ETV
vector 420312  Network.dyn_peer[99]  lookupStabilitySig:vector  ETV
vector 420313  Network.dyn_peer[99]  lookupTimeSig:vector  ETV
vector 420200  Network.dyn_peer[62]  lookupHopsSig:vector  ETV
vector 420201  Network.dyn_peer[62]  lookupStabilitySig:vector  ETV
vector 420202  Network.dyn_peer[62]  lookupTimeSig:vector  ETV
vector 420380  Network.dyn_peer[122]  lookupHopsSig:vector  ETV
vector 420381  Network.dyn_peer[122]  lookupStabilitySig:vector  ETV
vector 420382  Network.dyn_peer[122]  lookupTimeSig:vector  ETV
vector 420383  Network.dyn_peer[123]  lookupHopsSig:vector  ETV
vector 420384  Network.dyn_peer[123]  lookupStabilitySig:vector  ETV
vector 420385  Network.dyn_peer[123]  lookupTimeSig:vector  ETV
vector 420215  Network.dyn_peer[67]  lookupHopsSig:vector  ETV
vector 420216  Network.dyn_peer[67]  lookupStabilitySig:vector  ETV
vector 420217  Network.dyn_peer[67]  lookupTimeSig:vector  ETV
vector 420158  Network.dyn_peer[48]  lookupHopsSig:vector  ETV
vector 420159  Network.dyn_peer[48]  lookupStabilitySig:vector  ETV
vector 420160  Network.dyn_peer[48]  lookupTimeSig:vector  ETV
vector 420278  Network.dyn_peer[88]  lookupHopsSig:vector  ETV
vector 420279  Network.dyn_peer[88]  lookupStabilitySig:vector  ETV
vector 420280  Network.dyn_peer[88]  lookupTimeSig:vector  ETV
vector 420368  Network.dyn_peer[118]  lookupHopsSig:vector  ETV
vector 420369  Network.dyn_peer[118]  lookupStabilitySig:vector  ETV
vector 420370  Network.dyn_peer[118]  lookupTimeSig:vector  ETV
vector 420161  Network.dyn_peer[49]  lookupHopsSig:vector  ETV
vector 420162  Network.dyn_peer[49]  lookupStabilitySig:vector  ETV
vector 420163  Network.dyn_peer[49]  lookupTimeSig:vector  ETV
vector 420374  Network.dyn_peer[120]  lookupHopsSig:vector  ETV
vector 420375  Network.dyn_peer[120]  lookupStabilitySig:vector  ETV
vector 420376  Network.dyn_peer[120]  lookupTimeSig:vector  ETV
vector 420197  Network.dyn_peer[61]  lookupHopsSig:vector  ETV
vector 420198  Network.dyn_peer[61]  lookupStabilitySig:vector  ETV
vector 420199  Network.dyn_peer[61]  lookupTimeSig:vector  ETV
vector 420296  Network.dyn_peer[94]  lookupHopsSig:vector  ETV
vector 420297  Network.dyn_peer[94]  lookupStabilitySig:vector  ETV
vector 420298  Network.dyn_peer[94]  lookupTimeSig:vector  ETV
vector 420335  Network.dyn_peer[107]  lookupHopsSig:vector  ETV
vector 420336  Network.dyn_peer[107]  lookupStabilitySig:vector  ETV
vector 420337  Network.dyn_peer[107]  lookupTimeSig:vector  ETV
vector 420128  Network.dyn_peer[38]  lookupHopsSig:vector  ETV
vector 420129  Network.dyn_peer[38]  lookupStabilitySig:vector  ETV
vector 420130  Network.dyn_peer[38]  lookupTimeSig:vector  ETV
vector 420347  Network.dyn_peer[111]  lookupHopsSig:vector  ETV
vector 420348  Network.dyn_peer[111]  lookupStabilitySig:vector  ETV
vector 420349  Network.dyn_peer[111]  lookupTimeSig:vector  ETV
vector 420350  Network.dyn_peer[112]  lookupHopsSig:vector  ETV
vector 420351  Network.dyn_peer[112]  lookupStabilitySig:vector  ETV
vector 420352  Network.dyn_peer[112]  lookupTimeSig:vector  ETV
vector 420266  Network.dyn_peer[84]  lookupHopsSig:vector  ETV
vector 420267  Network.dyn_peer[84]  lookupStabilitySig:vector  ETV
vector 420268  Network.dyn_peer[84]  lookupTimeSig:vector  ETV
vector 420152  Network.dyn_peer[46]  lookupHopsSig:vector  ETV
vector 420153  Network.dyn_peer[46]  lookupStabilitySig:vector  ETV
vector 420154  Network.dyn_peer[46]  lookupTimeSig:vector  ETV
vector 420242  Network.dyn_peer[76]  lookupHopsSig:vector  ETV
vector 420243  Network.dyn_peer[76]  lookupStabilitySig:vector  ETV
vector 420244  Network.dyn_peer[76]  lookupTimeSig:vector  ETV
vector 420395  Network.dyn_peer[127]  lookupHopsSig:vector  ETV
vector 420396  Network.dyn_peer[127]  lookupStabilitySig:vector  ETV
vector 420397  Network.dyn_peer[127]  lookupTimeSig:vector  ETV
vector 420428  Network.dyn_peer[138]  lookupHopsSig:vector  ETV
vector 420429  Network.dyn_peer[138]  lookupStabilitySig:vector  ETV
vector 420430  Network.dyn_peer[138]  lookupTimeSig:vector  ETV
vector 420194  Network.dyn_peer[60]  lookupHopsSig:vector  ETV
vector 420195  Network.dyn_peer[60]  lookupStabilitySig:vector  ETV
vector 420196  Network.dyn_peer[60]  lookupTimeSig:vector  ETV
vector 420470  Network.dyn_peer[152]  lookupHopsSig:vector  ETV
vector 420471  Network.dyn_peer[152]  lookupStabilitySig:vector  ETV
vector 420472  Network.dyn_peer[152]  lookupTimeSig:vector  ETV
vector 420203  Network.dyn_peer[63]  lookupHopsSig:vector  ETV
vector 420204  Network.dyn_peer[63]  lookupStabilitySig:vector  ETV
vector 420205  Network.dyn_peer[63]  lookupTimeSig:vector  ETV
vector 420323  Network.dyn_peer[103]  lookupHopsSig:vector  ETV
vector 420324  Network.dyn_peer[103]  lookupStabilitySig:vector  ETV
vector 420325  Network.dyn_peer[103]  lookupTimeSig:vector  ETV
vector 420356  Network.dyn_peer[114]  lookupHopsSig:vector  ETV
vector 420357  Network.dyn_peer[114]  lookupStabilitySig:vector  ETV
vector 420358  Network.dyn_peer[114]  lookupTimeSig:vector  ETV
vector 420452  Network.dyn_peer[146]  lookupHopsSig:vector  ETV
vector 420453  Network.dyn_peer[146]  lookupStabilitySig:vector  ETV
vector 420454  Network.dyn_peer[146]  lookupTimeSig:vector  ETV
vector 420185  Network.dyn_peer[57]  lookupHopsSig:vector  ETV
vector 420186  Network.dyn_peer[57]  lookupStabilitySig:vector  ETV
vector 420187  Network.dyn_peer[57]  lookupTimeSig:vector  ETV
vector 420485  Network.dyn_peer[157]  lookupHopsSig:vector  ETV
vector 420486  Network.dyn_peer[157]  lookupStabilitySig:vector  ETV
vector 420487  Network.dyn_peer[157]  lookupTimeSig:vector  ETV
vector 420188  Network.dyn_peer[58]  lookupHopsSig:vector  ETV
vector 420189  Network.dyn_peer[58]  lookupStabilitySig:vector  ETV
vector 420190  Network.dyn_peer[58]  lookupTimeSig:vector  ETV
vector 420404  Network.dyn_peer[130]  lookupHopsSig:vector  ETV
vector 420405  Network.dyn_peer[130]  lookupStabilitySig:vector  ETV
vector 420406  Network.dyn_peer[130]  lookupTimeSig:vector  ETV
vector 420107  Network.dyn_peer[31]  lookupHopsSig:vector  ETV
vector 420108  Network.dyn_peer[31]  lookupStabilitySig:vector  ETV
vector 420109  Network.dyn_peer[31]  lookupTimeSig:vector  ETV
vector 420413  Network.dyn_peer[133]  lookupHopsSig:vector  ETV
vector 420414  Network.dyn_peer[133]  lookupStabilitySig:vector  ETV
vector 420415  Network.dyn_peer[133]  lookupTimeSig:vector  ETV
vector 420386  Network.dyn_peer[124]  lookupHopsSig:vector  ETV
vector 420387  Network.dyn_peer[124]  lookupStabilitySig:vector  ETV
vector 420388  Network.dyn_peer[124]  lookupTimeSig:vector  ETV
vector 420299  Network.dyn_peer[95]  lookupHopsSig:vector  ETV
vector 420300  Network.dyn_peer[95]  lookupStabilitySig:vector  ETV
vector 420301  Network.dyn_peer[95]  lookupTimeSig:vector  ETV
vector 420449  Network.dyn_peer[145]  lookupHopsSig:vector  ETV
vector 420450  Network.dyn_peer[145]  lookupStabilitySig:vector  ETV
vector 420451  Network.dyn_peer[145]  lookupTimeSig:vector  ETV
vector 420182  Network.dyn_peer[56]  lookupHopsSig:vector  ETV
vector 420183  Network.dyn_peer[56]  lookupStabilitySig:vector  ETV
vector 420184  Network.dyn_peer[56]  lookupTimeSig:vector  ETV
vector 420302  Network.dyn_peer[96]  lookupHopsSig:vector  ETV
vector 420303  Network.dyn_peer[96]  lookupStabilitySig:vector  ETV
vector 420304  Network.dyn_peer[96]  lookupTimeSig:vector  ETV
vector 420458  Network.dyn_peer[148]  lookupHopsSig:vector  ETV
vector 420459  Network.dyn_peer[148]  lookupStabilitySig:vector  ETV
vector 420460  Network.dyn_peer[148]  lookupTimeSig:vector  ETV
vector 420281  Network.dyn_peer[89]  lookupHopsSig:vector  ETV
vector 420282  Network.dyn_peer[89]  lookupStabilitySig:vector  ETV
vector 420283  Network.dyn_peer[89]  lookupTimeSig:vector  ETV
vector 420461  Network.dyn_peer[149]  lookupHopsSig:vector  ETV
vector 420462  Network.dyn_peer[149]  lookupStabilitySig:vector  ETV
vector 420463  Network.dyn_peer[149]  lookupTimeSig:vector  ETV
vector 420137  Network.dyn_peer[41]  lookupHopsSig:vector  ETV
vector 420138  Network.dyn_peer[41]  lookupStabilitySig:vector  ETV
vector 420139  Network.dyn_peer[41]  lookupTimeSig:vector  ETV
vector 420167  Network.dyn_peer[51]  lookupHopsSig:vector  ETV
vector 420168  Network.dyn_peer[51]  lookupStabilitySig:vector  ETV
vector 420169  Network.dyn_peer[51]  lookupTimeSig:vector  ETV
vector 420233  Network.dyn_peer[73]  lookupHopsSig:vector  ETV
vector 420234  Network.dyn_peer[73]  lookupStabilitySig:vector  ETV
vector 420235  Network.dyn_peer[73]  lookupTimeSig:vector  ETV
vector 420389  Network.dyn_peer[125]  lookupHopsSig:vector  ETV
vector 420390  Network.dyn_peer[125]  lookupStabilitySig:vector  ETV
vector 420391  Network.dyn_peer[125]  lookupTimeSig:vector  ETV
vector 420455  Network.dyn_peer[147]  lookupHopsSig:vector  ETV
vector 420456  Network.dyn_peer[147]  lookupStabilitySig:vector  ETV
vector 420457  Network.dyn_peer[147]  lookupTimeSig:vector  ETV
vector 420218  Network.dyn_peer[68]  lookupHopsSig:vector  ETV
vector 420219  Network.dyn_peer[68]  lookupStabilitySig:vector  ETV
vector 420220  Network.dyn_peer[68]  lookupTimeSig:vector  ETV
vector 420254  Network.dyn_peer[80]  lookupHopsSig:vector  ETV
vector 420255  Network.dyn_peer[80]  lookupStabilitySig:vector  ETV
vector 420256  Network.dyn_peer[80]  lookupTimeSig:vector  ETV
vector 420344  Network.dyn_peer[110]  lookupHopsSig:vector  ETV
vector 420345  Network.dyn_peer[110]  lookupStabilitySig:vector  ETV
vector 420346  Network.dyn_peer[110]  lookupTimeSig:vector  ETV
vector 420227  Network.dyn_peer[71]  lookupHopsSig:vector  ETV
vector 420228  Network.dyn_peer[71]  lookupStabilitySig:vector  ETV
vector 420229  Network.dyn_peer[71]  lookupTimeSig:vector  ETV
vector 420257  Network.dyn_peer[81]  lookupHopsSig:vector  ETV
vector 420258  Network.dyn_peer[81]  lookupStabilitySig:vector  ETV
vector 420259  Network.dyn_peer[81]  lookupTimeSig:vector  ETV
vector 420317  Network.dyn_peer[101]  lookupHopsSig:vector  ETV
vector 420318  Network.dyn_peer[101]  lookupStabilitySig:vector  ETV
vector 420319  Network.dyn_peer[101]  lookupTimeSig:vector  ETV
vector 420467  Network.dyn_peer[151]  lookupHopsSig:vector  ETV
vector 420468  Network.dyn_peer[151]  lookupStabilitySig:vector  ETV
vector 420469  Network.dyn_peer[151]  lookupTimeSig:vector  ETV
vector 420446  Network.dyn_peer[144]  lookupHopsSig:vector  ETV
vector 420447  Network.dyn_peer[144]  lookupStabilitySig:vector  ETV
vector 420448  Network.dyn_peer[144]  lookupTimeSig:vector  ETV
vector 420239  Network.dyn_peer[75]  lookupHopsSig:vector  ETV
vector 420240  Network.dyn_peer[75]  lookupStabilitySig:vector  ETV
vector 420241  Network.dyn_peer[75]  lookupTimeSig:vector  ETV
vector 420497  Network.dyn_peer[161]  lookupHopsSig:vector  ETV
vector 420498  Network.dyn_peer[161]  lookupStabilitySig:vector  ETV
vector 420499  Network.dyn_peer[161]  lookupTimeSig:vector  ETV
vector 420353  Network.dyn_peer[113]  lookupHopsSig:vector  ETV
vector 420354  Network.dyn_peer[113]  lookupStabilitySig:vector  ETV
vector 420355  Network.dyn_peer[113]  lookupTimeSig:vector  ETV
vector 420443  Network.dyn_peer[143]  lookupHopsSig:vector  ETV
vector 420444  Network.dyn_peer[143]  lookupStabilitySig:vector  ETV
vector 420445  Network.dyn_peer[143]  lookupTimeSig:vector  ETV
vector 420209  Network.dyn_peer[65]  lookupHopsSig:vector  ETV
vector 420210  Network.dyn_peer[65]  lookupStabilitySig:vector  ETV
vector 420211  Network.dyn_peer[65]  lookupTimeSig:vector  ETV
vector 420479  Network.dyn_peer[155]  lookupHopsSig:vector  ETV
vector 420480  Network.dyn_peer[155]  lookupStabilitySig:vector  ETV
vector 420481  Network.dyn_peer[155]  lookupTimeSig:vector  ETV
vector 420125  Network.dyn_peer[37]  lookupHopsSig:vector  ETV
vector 420126  Network.dyn_peer[37]  lookupStabilitySig:vector  ETV
vector 420127  Network.dyn_peer[37]  lookupTimeSig:vector  ETV
vector 420275  Network.dyn_peer[87]  lookupHopsSig:vector  ETV
vector 420276  Network.dyn_peer[87]  lookupStabilitySig:vector  ETV
vector 420277  Network.dyn_peer[87]  lookupTimeSig:vector  ETV
vector 420338  Network.dyn_peer[108]  lookupHopsSig:vector  ETV
vector 420339  Network.dyn_peer[108]  lookupStabilitySig:vector  ETV
vector 420340  Network.dyn_peer[108]  lookupTimeSig:vector  ETV
vector 420398  Network.dyn_peer[128]  lookupHopsSig:vector  ETV
vector 420399  Network.dyn_peer[128]  lookupStabilitySig:vector  ETV
vector 420400  Network.dyn_peer[128]  lookupTimeSig:vector  ETV
vector 420551  Network.dyn_peer[179]  lookupHopsSig:vector  ETV
vector 420552  Network.dyn_peer[179]  lookupStabilitySig:vector  ETV
vector 420553  Network.dyn_peer[179]  lookupTimeSig:vector  ETV
vector 420581  Network.dyn_peer[189]  lookupHopsSig:vector  ETV
vector 420582  Network.dyn_peer[189]  lookupStabilitySig:vector  ETV
vector 420583  Network.dyn_peer[189]  lookupTimeSig:vector  ETV
vector 420464  Network.dyn_peer[150]  lookupHopsSig:vector  ETV
vector 420465  Network.dyn_peer[150]  lookupStabilitySig:vector  ETV
vector 420466  Network.dyn_peer[150]  lookupTimeSig:vector  ETV
vector 420494  Network.dyn_peer[160]  lookupHopsSig:vector  ETV
vector 420495  Network.dyn_peer[160]  lookupStabilitySig:vector  ETV
vector 420496  Network.dyn_peer[160]  lookupTimeSig:vector  ETV
vector 420410  Network.dyn_peer[132]  lookupHopsSig:vector  ETV
vector 420411  Network.dyn_peer[132]  lookupStabilitySig:vector  ETV
vector 420412  Network.dyn_peer[132]  lookupTimeSig:vector  ETV
vector 420530  Network.dyn_peer[172]  lookupHopsSig:vector  ETV
vector 420531  Network.dyn_peer[172]  lookupStabilitySig:vector  ETV
vector 420532  Network.dyn_peer[172]  lookupTimeSig:vector  ETV
vector 420473  Network.dyn_peer[153]  lookupHopsSig:vector  ETV
vector 420474  Network.dyn_peer[153]  lookupStabilitySig:vector  ETV
vector 420475  Network.dyn_peer[153]  lookupTimeSig:vector  ETV
vector 420503  Network.dyn_peer[163]  lookupHopsSig:vector  ETV
vector 420504  Network.dyn_peer[163]  lookupStabilitySig:vector  ETV
vector 420505  Network.dyn_peer[163]  lookupTimeSig:vector  ETV
vector 420272  Network.dyn_peer[86]  lookupHopsSig:vector  ETV
vector 420273  Network.dyn_peer[86]  lookupStabilitySig:vector  ETV
vector 420274  Network.dyn_peer[86]  lookupTimeSig:vector  ETV
vector 420425  Network.dyn_peer[137]  lookupHopsSig:vector  ETV
vector 420426  Network.dyn_peer[137]  lookupStabilitySig:vector  ETV
vector 420427  Network.dyn_peer[137]  lookupTimeSig:vector  ETV
vector 420488  Network.dyn_peer[158]  lookupHopsSig:vector  ETV
vector 420489  Network.dyn_peer[158]  lookupStabilitySig:vector  ETV
vector 420490  Network.dyn_peer[158]  lookupTimeSig:vector  ETV
vector 420371  Network.dyn_peer[119]  lookupHopsSig:vector  ETV
vector 420372  Network.dyn_peer[119]  lookupStabilitySig:vector  ETV
vector 420373  Network.dyn_peer[119]  lookupTimeSig:vector  ETV
vector 420434  Network.dyn_peer[140]  lookupHopsSig:vector  ETV
vector 420435  Network.dyn_peer[140]  lookupStabilitySig:vector  ETV
vector 420436  Network.dyn_peer[140]  lookupTimeSig:vector  ETV
vector 420527  Network.dyn_peer[171]  lookupHopsSig:vector  ETV
vector 420528  Network.dyn_peer[171]  lookupStabilitySig:vector  ETV
vector 420529  Network.dyn_peer[171]  lookupTimeSig:vector  ETV
vector 420419  Network.dyn_peer[135]  lookupHopsSig:vector  ETV
vector 420420  Network.dyn_peer[135]  lookupStabilitySig:vector  ETV
vector 420421  Network.dyn_peer[135]  lookupTimeSig:vector  ETV
vector 420122  Network.dyn_peer[36]  lookupHopsSig:vector  ETV
vector 420123  Network.dyn_peer[36]  lookupStabilitySig:vector  ETV
vector 420124  Network.dyn_peer[36]  lookupTimeSig:vector  ETV
vector 420362  Network.dyn_peer[116]  lookupHopsSig:vector  ETV
vector 420363  Network.dyn_peer[116]  lookupStabilitySig:vector  ETV
vector 420364  Network.dyn_peer[116]  lookupTimeSig:vector  ETV
vector 420548  Network.dyn_peer[178]  lookupHopsSig:vector  ETV
vector 420549  Network.dyn_peer[178]  lookupStabilitySig:vector  ETV
vector 420550  Network.dyn_peer[178]  lookupTimeSig:vector  ETV
vector 420191  Network.dyn_peer[59]  lookupHopsSig:vector  ETV
vector 420192  Network.dyn_peer[59]  lookupStabilitySig:vector  ETV
vector 420193  Network.dyn_peer[59]  lookupTimeSig:vector  ETV
vector 420431  Network.dyn_peer[139]  lookupHopsSig:vector  ETV
vector 420432  Network.dyn_peer[139]  lookupStabilitySig:vector  ETV
vector 420433  Network.dyn_peer[139]  lookupTimeSig:vector  ETV
vector 420224  Network.dyn_peer[70]  lookupHopsSig:vector  ETV
vector 420225  Network.dyn_peer[70]  lookupStabilitySig:vector  ETV
vector 420226  Network.dyn_peer[70]  lookupTimeSig:vector  ETV
vector 420584  Network.dyn_peer[190]  lookupHopsSig:vector  ETV
vector 420585  Network.dyn_peer[190]  lookupStabilitySig:vector  ETV
vector 420586  Network.dyn_peer[190]  lookupTimeSig:vector  ETV
vector 420377  Network.dyn_peer[121]  lookupHopsSig:vector  ETV
vector 420378  Network.dyn_peer[121]  lookupStabilitySig:vector  ETV
vector 420379  Network.dyn_peer[121]  lookupTimeSig:vector  ETV
vector 420437  Network.dyn_peer[141]  lookupHopsSig:vector  ETV
vector 420438  Network.dyn_peer[141]  lookupStabilitySig:vector  ETV
vector 420439  Network.dyn_peer[141]  lookupTimeSig:vector  ETV
vector 420230  Network.dyn_peer[72]  lookupHopsSig:vector  ETV
vector 420231  Network.dyn_peer[72]  lookupStabilitySig:vector  ETV
vector 420232  Network.dyn_peer[72]  lookupTimeSig:vector  ETV
vector 420539  Network.dyn_peer[175]  lookupHopsSig:vector  ETV