version 2
run Stability2-1-20130528-01:21:45-24168
attr configname Stability2
attr datetime 20130528-01:21:45
attr experiment Stability2
attr inifile omnetpp.ini
attr iterationvars $0=10
attr iterationvars2 "$0=10, $repetition=1"
attr measurement $0=10
attr network Network
attr processid 24168
attr repetition 1
attr replication #1
attr resultdir results
attr runnumber 1
attr seedset 1

vector 60001  Network.churner  inGoingSizeSig:vector  ETV
vector 30001  Network.dyn_peer[0]  lookupHopsSig:vector  ETV
vector 30002  Network.dyn_peer[0]  lookupStabilitySig:vector  ETV
vector 30003  Network.dyn_peer[0]  lookupTimeSig:vector  ETV
vector 30016  Network.dyn_peer[5]  lookupHopsSig:vector  ETV
vector 30017  Network.dyn_peer[5]  lookupStabilitySig:vector  ETV
vector 30018  Network.dyn_peer[5]  lookupTimeSig:vector  ETV
vector 30004  Network.dyn_peer[1]  lookupHopsSig:vector  ETV
vector 30005  Network.dyn_peer[1]  lookupStabilitySig:vector  ETV
vector 30006  Network.dyn_peer[1]  lookupTimeSig:vector  ETV
vector 30007  Network.dyn_peer[2]  lookupHopsSig:vector  ETV
vector 30008  Network.dyn_peer[2]  lookupStabilitySig:vector  ETV
vector 30009  Network.dyn_peer[2]  lookupTimeSig:vector  ETV
vector 30025  Network.dyn_peer[8]  lookupHopsSig:vector  ETV
vector 30026  Network.dyn_peer[8]  lookupStabilitySig:vector  ETV
vector 30027  Network.dyn_peer[8]  lookupTimeSig:vector  ETV
vector 30055  Network.dyn_peer[18]  lookupHopsSig:vector  ETV
vector 30056  Network.dyn_peer[18]  lookupStabilitySig:vector  ETV
vector 30057  Network.dyn_peer[18]  lookupTimeSig:vector  ETV
vector 30034  Network.dyn_peer[11]  lookupHopsSig:vector  ETV
vector 30035  Network.dyn_peer[11]  lookupStabilitySig:vector  ETV
vector 30036  Network.dyn_peer[11]  lookupTimeSig:vector  ETV
vector 30037  Network.dyn_peer[12]  lookupHopsSig:vector  ETV
vector 30038  Network.dyn_peer[12]  lookupStabilitySig:vector  ETV
vector 30039  Network.dyn_peer[12]  lookupTimeSig:vector  ETV
vector 30067  Network.dyn_peer[22]  lookupHopsSig:vector  ETV
vector 30068  Network.dyn_peer[22]  lookupStabilitySig:vector  ETV
vector 30069  Network.dyn_peer[22]  lookupTimeSig:vector  ETV
vector 30010  Network.dyn_peer[3]  lookupHopsSig:vector  ETV
vector 30011  Network.dyn_peer[3]  lookupStabilitySig:vector  ETV
vector 30012  Network.dyn_peer[3]  lookupTimeSig:vector  ETV
vector 30040  Network.dyn_peer[13]  lookupHopsSig:vector  ETV
vector 30041  Network.dyn_peer[13]  lookupStabilitySig:vector  ETV
vector 30042  Network.dyn_peer[13]  lookupTimeSig:vector  ETV
vector 30028  Network.dyn_peer[9]  lookupHopsSig:vector  ETV
vector 30029  Network.dyn_peer[9]  lookupStabilitySig:vector  ETV
vector 30030  Network.dyn_peer[9]  lookupTimeSig:vector  ETV
vector 30088  Network.dyn_peer[29]  lookupHopsSig:vector  ETV
vector 30089  Network.dyn_peer[29]  lookupStabilitySig:vector  ETV
vector 30090  Network.dyn_peer[29]  lookupTimeSig:vector  ETV
vector 30100  Network.dyn_peer[33]  lookupHopsSig:vector  ETV
vector 30101  Network.dyn_peer[33]  lookupStabilitySig:vector  ETV
vector 30102  Network.dyn_peer[33]  lookupTimeSig:vector  ETV
vector 30013  Network.dyn_peer[4]  lookupHopsSig:vector  ETV
vector 30014  Network.dyn_peer[4]  lookupStabilitySig:vector  ETV
vector 30015  Network.dyn_peer[4]  lookupTimeSig:vector  ETV
vector 30043  Network.dyn_peer[14]  lookupHopsSig:vector  ETV
vector 30044  Network.dyn_peer[14]  lookupStabilitySig:vector  ETV
vector 30045  Network.dyn_peer[14]  lookupTimeSig:vector  ETV
vector 30019  Network.dyn_peer[6]  lookupHopsSig:vector  ETV
vector 30020  Network.dyn_peer[6]  lookupStabilitySig:vector  ETV
vector 30021  Network.dyn_peer[6]  lookupTimeSig:vector  ETV
vector 30049  Network.dyn_peer[16]  lookupHopsSig:vector  ETV
vector 30050  Network.dyn_peer[16]  lookupStabilitySig:vector  ETV
vector 30051  Network.dyn_peer[16]  lookupTimeSig:vector  ETV
vector 30022  Network.dyn_peer[7]  lookupHopsSig:vector  ETV
vector 30023  Network.dyn_peer[7]  lookupStabilitySig:vector  ETV
vector 30024  Network.dyn_peer[7]  lookupTimeSig:vector  ETV
vector 30058  Network.dyn_peer[19]  lookupHopsSig:vector  ETV
vector 30059  Network.dyn_peer[19]  lookupStabilitySig:vector  ETV
vector 30060  Network.dyn_peer[19]  lookupTimeSig:vector  ETV
vector 30064  Network.dyn_peer[21]  lookupHopsSig:vector  ETV
vector 30065  Network.dyn_peer[21]  lookupStabilitySig:vector  ETV
vector 30066  Network.dyn_peer[21]  lookupTimeSig:vector  ETV
vector 30106  Network.dyn_peer[35]  lookupHopsSig:vector  ETV
vector 30107  Network.dyn_peer[35]  lookupStabilitySig:vector  ETV
vector 30108  Network.dyn_peer[35]  lookupTimeSig:vector  ETV
vector 30079  Network.dyn_peer[26]  lookupHopsSig:vector  ETV
vector 30080  Network.dyn_peer[26]  lookupStabilitySig:vector  ETV
vector 30081  Network.dyn_peer[26]  lookupTimeSig:vector  ETV
vector 30109  Network.dyn_peer[36]  lookupHopsSig:vector  ETV
vector 30110  Network.dyn_peer[36]  lookupStabilitySig:vector  ETV
vector 30111  Network.dyn_peer[36]  lookupTimeSig:vector  ETV
vector 30052  Network.dyn_peer[17]  lookupHopsSig:vector  ETV
vector 30053  Network.dyn_peer[17]  lookupStabilitySig:vector  ETV
vector 30054  Network.dyn_peer[17]  lookupTimeSig:vector  ETV
vector 30061  Network.dyn_peer[20]  lookupHopsSig:vector  ETV
vector 30062  Network.dyn_peer[20]  lookupStabilitySig:vector  ETV
vector 30063  Network.dyn_peer[20]  lookupTimeSig:vector  ETV
vector 30070  Network.dyn_peer[23]  lookupHopsSig:vector  ETV
vector 30071  Network.dyn_peer[23]  lookupStabilitySig:vector  ETV
vector 30072  Network.dyn_peer[23]  lookupTimeSig:vector  ETV
vector 30127  Network.dyn_peer[42]  lookupHopsSig:vector  ETV
vector 30128  Network.dyn_peer[42]  lookupStabilitySig:vector  ETV
vector 30129  Network.dyn_peer[42]  lookupTimeSig:vector  ETV
vector 30157  Network.dyn_peer[52]  lookupHopsSig:vector  ETV
vector 30158  Network.dyn_peer[52]  lookupStabilitySig:vector  ETV
vector 30159  Network.dyn_peer[52]  lookupTimeSig:vector  ETV
vector 30076  Network.dyn_peer[25]  lookupHopsSig:vector  ETV
vector 30077  Network.dyn_peer[25]  lookupStabilitySig:vector  ETV
vector 30078  Network.dyn_peer[25]  lookupTimeSig:vector  ETV
vector 30196  Network.dyn_peer[65]  lookupHopsSig:vector  ETV
vector 30197  Network.dyn_peer[65]  lookupStabilitySig:vector  ETV
vector 30198  Network.dyn_peer[65]  lookupTimeSig:vector  ETV
vector 30082  Network.dyn_peer[27]  lookupHopsSig:vector  ETV
vector 30083  Network.dyn_peer[27]  lookupStabilitySig:vector  ETV
vector 30084  Network.dyn_peer[27]  lookupTimeSig:vector  ETV
vector 30142  Network.dyn_peer[47]  lookupHopsSig:vector  ETV
vector 30143  Network.dyn_peer[47]  lookupStabilitySig:vector  ETV
vector 30144  Network.dyn_peer[47]  lookupTimeSig:vector  ETV
vector 30085  Network.dyn_peer[28]  lookupHopsSig:vector  ETV
vector 30086  Network.dyn_peer[28]  lookupStabilitySig:vector  ETV
vector 30087  Network.dyn_peer[28]  lookupTimeSig:vector  ETV
vector 30145  Network.dyn_peer[48]  lookupHopsSig:vector  ETV
vector 30146  Network.dyn_peer[48]  lookupStabilitySig:vector  ETV
vector 30147  Network.dyn_peer[48]  lookupTimeSig:vector  ETV
vector 30118  Network.dyn_peer[39]  lookupHopsSig:vector  ETV
vector 30119  Network.dyn_peer[39]  lookupStabilitySig:vector  ETV
vector 30120  Network.dyn_peer[39]  lookupTimeSig:vector  ETV
vector 30091  Network.dyn_peer[30]  lookupHopsSig:vector  ETV
vector 30092  Network.dyn_peer[30]  lookupStabilitySig:vector  ETV
vector 30093  Network.dyn_peer[30]  lookupTimeSig:vector  ETV
vector 30094  Network.dyn_peer[31]  lookupHopsSig:vector  ETV
vector 30095  Network.dyn_peer[31]  lookupStabilitySig:vector  ETV
vector 30096  Network.dyn_peer[31]  lookupTimeSig:vector  ETV
vector 30160  Network.dyn_peer[53]  lookupHopsSig:vector  ETV
vector 30161  Network.dyn_peer[53]  lookupStabilitySig:vector  ETV
vector 30162  Network.dyn_peer[53]  lookupTimeSig:vector  ETV
vector 30073  Network.dyn_peer[24]  lookupHopsSig:vector  ETV
vector 30074  Network.dyn_peer[24]  lookupStabilitySig:vector  ETV
vector 30075  Network.dyn_peer[24]  lookupTimeSig:vector  ETV
vector 30046  Network.dyn_peer[15]  lookupHopsSig:vector  ETV
vector 30047  Network.dyn_peer[15]  lookupStabilitySig:vector  ETV
vector 30048  Network.dyn_peer[15]  lookupTimeSig:vector  ETV
vector 30199  Network.dyn_peer[66]  lookupHopsSig:vector  ETV
vector 30200  Network.dyn_peer[66]  lookupStabilitySig:vector  ETV
vector 30201  Network.dyn_peer[66]  lookupTimeSig:vector  ETV
vector 30115  Network.dyn_peer[38]  lookupHopsSig:vector  ETV
vector 30116  Network.dyn_peer[38]  lookupStabilitySig:vector  ETV
vector 30117  Network.dyn_peer[38]  lookupTimeSig:vector  ETV
vector 30097  Network.dyn_peer[32]  lookupHopsSig:vector  ETV
vector 30098  Network.dyn_peer[32]  lookupStabilitySig:vector  ETV
vector 30099  Network.dyn_peer[32]  lookupTimeSig:vector  ETV
vector 30130  Network.dyn_peer[43]  lookupHopsSig:vector  ETV
vector 30131  Network.dyn_peer[43]  lookupStabilitySig:vector  ETV
vector 30132  Network.dyn_peer[43]  lookupTimeSig:vector  ETV
vector 30190  Network.dyn_peer[63]  lookupHopsSig:vector  ETV
vector 30191  Network.dyn_peer[63]  lookupStabilitySig:vector  ETV
vector 30192  Network.dyn_peer[63]  lookupTimeSig:vector  ETV
vector 30133  Network.dyn_peer[44]  lookupHopsSig:vector  ETV
vector 30134  Network.dyn_peer[44]  lookupStabilitySig:vector  ETV
vector 30135  Network.dyn_peer[44]  lookupTimeSig:vector  ETV
vector 30232  Network.dyn_peer[77]  lookupHopsSig:vector  ETV
vector 30233  Network.dyn_peer[77]  lookupStabilitySig:vector  ETV
vector 30234  Network.dyn_peer[77]  lookupTimeSig:vector  ETV
vector 30148  Network.dyn_peer[49]  lookupHopsSig:vector  ETV
vector 30149  Network.dyn_peer[49]  lookupStabilitySig:vector  ETV
vector 30150  Network.dyn_peer[49]  lookupTimeSig:vector  ETV
vector 30031  Network.dyn_peer[10]  lookupHopsSig:vector  ETV
vector 30032  Network.dyn_peer[10]  lookupStabilitySig:vector  ETV
vector 30033  Network.dyn_peer[10]  lookupTimeSig:vector  ETV
vector 30223  Network.dyn_peer[74]  lookupHopsSig:vector  ETV
vector 30224  Network.dyn_peer[74]  lookupStabilitySig:vector  ETV
vector 30225  Network.dyn_peer[74]  lookupTimeSig:vector  ETV
vector 30136  Network.dyn_peer[45]  lookupHopsSig:vector  ETV
vector 30137  Network.dyn_peer[45]  lookupStabilitySig:vector  ETV
vector 30138  Network.dyn_peer[45]  lookupTimeSig:vector  ETV
vector 30166  Network.dyn_peer[55]  lookupHopsSig:vector  ETV
vector 30167  Network.dyn_peer[55]  lookupStabilitySig:vector  ETV
vector 30168  Network.dyn_peer[55]  lookupTimeSig:vector  ETV
vector 30226  Network.dyn_peer[75]  lookupHopsSig:vector  ETV
vector 30227  Network.dyn_peer[75]  lookupStabilitySig:vector  ETV
vector 30228  Network.dyn_peer[75]  lookupTimeSig:vector  ETV
vector 30229  Network.dyn_peer[76]  lookupHopsSig:vector  ETV
vector 30230  Network.dyn_peer[76]  lookupStabilitySig:vector  ETV
vector 30231  Network.dyn_peer[76]  lookupTimeSig:vector  ETV
vector 30217  Network.dyn_peer[72]  lookupHopsSig:vector  ETV
vector 30218  Network.dyn_peer[72]  lookupStabilitySig:vector  ETV
vector 30219  Network.dyn_peer[72]  lookupTimeSig:vector  ETV
vector 30193  Network.dyn_peer[64]  lookupHopsSig:vector  ETV
vector 30194  Network.dyn_peer[64]  lookupStabilitySig:vector  ETV
vector 30195  Network.dyn_peer[64]  lookupTimeSig:vector  ETV
vector 30202  Network.dyn_peer[67]  lookupHopsSig:vector  ETV
vector 30203  Network.dyn_peer[67]  lookupStabilitySig:vector  ETV
vector 30204  Network.dyn_peer[67]  lookupTimeSig:vector  ETV
vector 30238  Network.dyn_peer[79]  lookupHopsSig:vector  ETV
vector 30239  Network.dyn_peer[79]  lookupStabilitySig:vector  ETV
vector 30240  Network.dyn_peer[79]  lookupTimeSig:vector  ETV
vector 30268  Network.dyn_peer[89]  lookupHopsSig:vector  ETV
vector 30269  Network.dyn_peer[89]  lookupStabilitySig:vector  ETV
vector 30270  Network.dyn_peer[89]  lookupTimeSig:vector  ETV
vector 30298  Network.dyn_peer[99]  lookupHopsSig:vector  ETV
vector 30299  Network.dyn_peer[99]  lookupStabilitySig:vector  ETV
vector 30300  Network.dyn_peer[99]  lookupTimeSig:vector  ETV
vector 30121  Network.dyn_peer[40]  lookupHopsSig:vector  ETV
vector 30122  Network.dyn_peer[40]  lookupStabilitySig:vector  ETV
vector 30123  Network.dyn_peer[40]  lookupTimeSig:vector  ETV
vector 30241  Network.dyn_peer[80]  lookupHopsSig:vector  ETV
vector 30242  Network.dyn_peer[80]  lookupStabilitySig:vector  ETV
vector 30243  Network.dyn_peer[80]  lookupTimeSig:vector  ETV
vector 30292  Network.dyn_peer[97]  lookupHopsSig:vector  ETV
vector 30293  Network.dyn_peer[97]  lookupStabilitySig:vector  ETV
vector 30294  Network.dyn_peer[97]  lookupTimeSig:vector  ETV
vector 30271  Network.dyn_peer[90]  lookupHopsSig:vector  ETV
vector 30272  Network.dyn_peer[90]  lookupStabilitySig:vector  ETV
vector 30273  Network.dyn_peer[90]  lookupTimeSig:vector  ETV
vector 30154  Network.dyn_peer[51]  lookupHopsSig:vector  ETV
vector 30155  Network.dyn_peer[51]  lookupStabilitySig:vector  ETV
vector 30156  Network.dyn_peer[51]  lookupTimeSig:vector  ETV
vector 30274  Network.dyn_peer[91]  lookupHopsSig:vector  ETV
vector 30275  Network.dyn_peer[91]  lookupStabilitySig:vector  ETV
vector 30276  Network.dyn_peer[91]  lookupTimeSig:vector  ETV
vector 30163  Network.dyn_peer[54]  lookupHopsSig:vector  ETV
vector 30164  Network.dyn_peer[54]  lookupStabilitySig:vector  ETV
vector 30165  Network.dyn_peer[54]  lookupTimeSig:vector  ETV
vector 30211  Network.dyn_peer[70]  lookupHopsSig:vector  ETV
vector 30212  Network.dyn_peer[70]  lookupStabilitySig:vector  ETV
vector 30213  Network.dyn_peer[70]  lookupTimeSig:vector  ETV
vector 30250  Network.dyn_peer[83]  lookupHopsSig:vector  ETV
vector 30251  Network.dyn_peer[83]  lookupStabilitySig:vector  ETV
vector 30252  Network.dyn_peer[83]  lookupTimeSig:vector  ETV
vector 30235  Network.dyn_peer[78]  lookupHopsSig:vector  ETV
vector 30236  Network.dyn_peer[78]  lookupStabilitySig:vector  ETV
vector 30237  Network.dyn_peer[78]  lookupTimeSig:vector  ETV
vector 30295  Network.dyn_peer[98]  lookupHopsSig:vector  ETV
vector 30296  Network.dyn_peer[98]  lookupStabilitySig:vector  ETV
vector 30297  Network.dyn_peer[98]  lookupTimeSig:vector  ETV
vector 30103  Network.dyn_peer[34]  lookupHopsSig:vector  ETV
vector 30104  Network.dyn_peer[34]  lookupStabilitySig:vector  ETV
vector 30105  Network.dyn_peer[34]  lookupTimeSig:vector  ETV
vector 30286  Network.dyn_peer[95]  lookupHopsSig:vector  ETV
vector 30287  Network.dyn_peer[95]  lookupStabilitySig:vector  ETV
vector 30288  Network.dyn_peer[95]  lookupTimeSig:vector  ETV
vector 30208  Network.dyn_peer[69]  lookupHopsSig:vector  ETV
vector 30209  Network.dyn_peer[69]  lookupStabilitySig:vector  ETV
vector 30210  Network.dyn_peer[69]  lookupTimeSig:vector  ETV
vector 30151  Network.dyn_peer[50]  lookupHopsSig:vector  ETV
vector 30152  Network.dyn_peer[50]  lookupStabilitySig:vector  ETV
vector 30153  Network.dyn_peer[50]  lookupTimeSig:vector  ETV
vector 30247  Network.dyn_peer[82]  lookupHopsSig:vector  ETV
vector 30248  Network.dyn_peer[82]  lookupStabilitySig:vector  ETV
vector 30249  Network.dyn_peer[82]  lookupTimeSig:vector  ETV
vector 30280  Network.dyn_peer[93]  lookupHopsSig:vector  ETV
vector 30281  Network.dyn_peer[93]  lookupStabilitySig:vector  ETV
vector 30282  Network.dyn_peer[93]  lookupTimeSig:vector  ETV
vector 30283  Network.dyn_peer[94]  lookupHopsSig:vector  ETV
vector 30284  Network.dyn_peer[94]  lookupStabilitySig:vector  ETV
vector 30285  Network.dyn_peer[94]  lookupTimeSig:vector  ETV
vector 30289  Network.dyn_peer[96]  lookupHopsSig:vector  ETV
vector 30290  Network.dyn_peer[96]  lookupStabilitySig:vector  ETV
vector 30291  Network.dyn_peer[96]  lookupTimeSig:vector  ETV
vector 30220  Network.dyn_peer[73]  lookupHopsSig:vector  ETV
vector 30221  Network.dyn_peer[73]  lookupStabilitySig:vector  ETV
vector 30222  Network.dyn_peer[73]  lookupTimeSig:vector  ETV
vector 30169  Network.dyn_peer[56]  lookupHopsSig:vector  ETV
vector 30170  Network.dyn_peer[56]  lookupStabilitySig:vector  ETV
vector 30171  Network.dyn_peer[56]  lookupTimeSig:vector  ETV
vector 30259  Network.dyn_peer[86]  lookupHopsSig:vector  ETV
vector 30260  Network.dyn_peer[86]  lookupStabilitySig:vector  ETV
vector 30261  Network.dyn_peer[86]  lookupTimeSig:vector  ETV
vector 30124  Network.dyn_peer[41]  lookupHopsSig:vector  ETV
vector 30125  Network.dyn_peer[41]  lookupStabilitySig:vector  ETV
vector 30126  Network.dyn_peer[41]  lookupTimeSig:vector  ETV
vector 30112  Network.dyn_peer[37]  lookupHopsSig:vector  ETV
vector 30113  Network.dyn_peer[37]  lookupStabilitySig:vector  ETV
vector 30114  Network.dyn_peer[37]  lookupTimeSig:vector  ETV
vector 30262  Network.dyn_peer[87]  lookupHopsSig:vector  ETV
vector 30263  Network.dyn_peer[87]  lookupStabilitySig:vector  ETV
vector 30264  Network.dyn_peer[87]  lookupTimeSig:vector  ETV
vector 30175  Network.dyn_peer[58]  lookupHopsSig:vector  ETV
vector 30176  Network.dyn_peer[58]  lookupStabilitySig:vector  ETV
vector 30177  Network.dyn_peer[58]  lookupTimeSig:vector  ETV
vector 30181  Network.dyn_peer[60]  lookupHopsSig:vector  ETV
vector 30182  Network.dyn_peer[60]  lookupStabilitySig:vector  ETV
vector 30183  Network.dyn_peer[60]  lookupTimeSig:vector  ETV
vector 30205  Network.dyn_peer[68]  lookupHopsSig:vector  ETV
vector 30206  Network.dyn_peer[68]  lookupStabilitySig:vector  ETV
vector 30207  Network.dyn_peer[68]  lookupTimeSig:vector  ETV
vector 30178  Network.dyn_peer[59]  lookupHopsSig:vector  ETV
vector 30179  Network.dyn_peer[59]  lookupStabilitySig:vector  ETV
vector 30180  Network.dyn_peer[59]  lookupTimeSig:vector  ETV
vector 30184  Network.dyn_peer[61]  lookupHopsSig:vector  ETV
vector 30185  Network.dyn_peer[61]  lookupStabilitySig:vector  ETV
vector 30186  Network.dyn_peer[61]  lookupTimeSig:vector  ETV
vector 30187  Network.dyn_peer[62]  lookupHopsSig:vector  ETV
vector 30188  Network.dyn_peer[62]  lookupStabilitySig:vector  ETV
vector 30189  Network.dyn_peer[62]  lookupTimeSig:vector  ETV
vector 30256  Network.dyn_peer[85]  lookupHopsSig:vector  ETV
vector 30257  Network.dyn_peer[85]  lookupStabilitySig:vector  ETV
vector 30258  Network.dyn_peer[85]  lookupTimeSig:vector  ETV
vector 30139  Network.dyn_peer[46]  lookupHopsSig:vector  ETV
vector 30140  Network.dyn_peer[46]  lookupStabilitySig:vector  ETV
vector 30141  Network.dyn_peer[46]  lookupTimeSig:vector  ETV
vector 30172  Network.dyn_peer[57]  lookupHopsSig:vector  ETV
vector 30173  Network.dyn_peer[57]  lookupStabilitySig:vector  ETV
vector 30174  Network.dyn_peer[57]  lookupTimeSig:vector  ETV
vector 30244  Network.dyn_peer[81]  lookupHopsSig:vector  ETV
vector 30245  Network.dyn_peer[81]  lookupStabilitySig:vector  ETV
vector 30246  Network.dyn_peer[81]  lookupTimeSig:vector  ETV
vector 30277  Network.dyn_peer[92]  lookupHopsSig:vector  ETV
vector 30278  Network.dyn_peer[92]  lookupStabilitySig:vector  ETV
vector 30279  Network.dyn_peer[92]  lookupTimeSig:vector  ETV
vector 30253  Network.dyn_peer[84]  lookupHopsSig:vector  ETV
vector 30254  Network.dyn_peer[84]  lookupStabilitySig:vector  ETV
vector 30255  Network.dyn_peer[84]  lookupTimeSig:vector  ETV
vector 30265  Network.dyn_peer[88]  lookupHopsSig:vector  ETV
vector 30266  Network.dyn_peer[88]  lookupStabilitySig:vector  ETV
vector 30267  Network.dyn_peer[88]  lookupTimeSig:vector  ETV
vector 30214  Network.dyn_peer[71]  lookupHopsSig:vector  ETV
vector 30215  Network.dyn_peer[71]  lookupStabilitySig:vector  ETV
vector 30216  Network.dyn_peer[71]  lookupTimeSig:vector  ETV
30001	18	20.01	0
30001	194	20.31	2
30001	657	20.729114088822	3
30001	1373	21.229667295602	4
30001	3915	23.95454727794	22
30002	18	20.01	1
30002	194	20.31	0.59999999403954
30002	657	20.729114088822	0.5
30002	1373	21.229667295602	0.5
30002	3915	23.95454727794	0.71428570151329
30003	18	20.01	0
30003	194	20.31	0.3
30003	657	20.729114088822	0.4
30003	1373	21.229667295602	0.5
30003	3915	23.95454727794	2.3
30004	60	20.12	1
30004	329	20.443570351103	2
30004	1283	21.160625523536	6
30004	2431	22.064751638998	8
30004	2801	22.373477618344	2
30004	3692	23.484934571444	10
30005	60	20.12	0.79999999701977
30005	329	20.443570351103	0.59999999403954
30005	1283	21.160625523536	0.25
30005	2431	22.064751638998	0.59999999403954
30005	2801	22.373477618344	0.9375
30005	3692	23.484934571444	0.86301369965076
30006	60	20.12	0.1
30006	329	20.443570351103	0.3
30006	1283	21.160625523536	0.7
30006	2431	22.064751638998	0.9
30006	2801	22.373477618344	0.3
30006	3692	23.484934571444	1.1
30007	69	20.13	1
30007	208	20.33	1
30007	1383	21.235269873348	8
30007	2887	22.442781756798	11
30007	3486	23.144715367386	6
30008	69	20.13	0.79999999701977
30008	208	20.33	0.79999999701977
30008	1383	21.235269873348	0.11111110448837
30008	2887	22.442781756798	0.68571427464485
30008	3486	23.144715367386	0.90625
30009	69	20.13	0.1
30009	208	20.33	0.2
30009	1383	21.235269873348	0.9
30009	2887	22.442781756798	1.2
30009	3486	23.144715367386	0.7
30010	144	20.24	2
30010	959	20.94	6
30010	1506	21.349204192801	3
30010	2022	21.747124339838	2
30010	3784	23.656576213607	18
30010	4130	24.564010075033	8
30011	144	20.24	0.59999999403954
30011	959	20.94	0.25
30011	1506	21.349204192801	0.69999998807907
30011	2022	21.747124339838	0.86666665971279
30011	3784	23.656576213607	0.76000000536442
30011	4130	24.564010075033	0.9101123586297
30012	144	20.24	0.2
30012	959	20.94	0.7
30012	1506	21.349204192801	0.4
30012	2022	21.747124339838	0.3
30012	3784	23.656576213607	1.9
30012	4130	24.564010075033	0.9
30013	233	20.35	3
30013	1265	21.15	7
30013	1521	21.351279500736	1
30013	2049	21.760785055243	3
30013	3126	22.670618966644	8
30014	233	20.35	0.39999997615814
30014	1265	21.15	0.125
30014	1521	21.351279500736	0.89999999850988
30014	2049	21.760785055243	0.79999999701977
30014	3126	22.670618966644	0.82978723943233
30015	233	20.35	0.3
30015	1265	21.15	0.8
30015	1521	21.351279500736	0.2
30015	2049	21.760785055243	0.4
30015	3126	22.670618966644	0.9
30016	37	20.06	0
30016	248	20.368043415965	2
30016	462	20.577134201311	1
30016	1559	21.386175054172	7
30016	3239	22.801202945108	11
30016	3756	23.603495641636	7
30017	37	20.06	1
30017	248	20.368043415965	0.59999999403954
30017	462	20.577134201311	0.83333332836628
30017	1559	21.386175054172	0.36363637447357
30017	3239	22.801202945108	0.8035714328289
30017	3756	23.603495641636	0.9066666662693
30018	37	20.06	0
30018	248	20.368043415965	0.3
30018	462	20.577134201311	0.2
30018	1559	21.386175054172	0.8
30018	3239	22.801202945108	1.2
30018	3756	23.603495641636	0.8
30019	256	20.37	3
30019	1802	21.57	11
30019	3220	22.775000886132	11
30019	3438	23.079712313094	2
30019	3928	23.983682077	8
30020	256	20.37	0.39999997615814
30020	1802	21.57	0.15384614467621
30020	3220	22.775000886132	0.79999999701977
30020	3438	23.079712313094	0.96825396642089
30020	3928	23.983682077	0.89610389620066
30021	256	20.37	0.3
30021	1802	21.57	1.2
30021	3220	22.775000886132	1.2
30021	3438	23.079712313094	0.3
30021	3928	23.983682077	0.9
30022	271	20.38	3
30022	1312	21.18	7
30022	1820	21.588040864176	3
30022	2339	21.988915659577	3
30023	271	20.38	0.39999997615814
30023	1312	21.18	0.125
30023	1820	21.588040864176	0.76923076808453
30023	2339	21.988915659577	0.84210526943207
30024	271	20.38	0.3
30024	1312	21.18	0.8
30024	1820	21.588040864176	0.4
30024	2339	21.988915659577	0.4
30025	100	20.19	1
30025	278	20.39	1
30025	2939	22.497820119757	20
30025	3242	22.806586694423	2
30026	100	20.19	0.79999999701977
30026	278	20.39	0.79999999701977
30026	2939	22.497820119757	0.4594594836235
30026	3242	22.806586694423	0.96428571268916
30027	100	20.19	0.1
30027	278	20.39	0.2
30027	2939	22.497820119757	2.1
30027	3242	22.806586694423	0.3
30028	183	20.3	2
30028	1188	21.1	7
30028	2238	21.907425738153	7
30029	183	20.3	0.59999999403954
30029	1188	21.1	0.125
30029	2238	21.907425738153	0.61111110448837
30030	183	20.3	0.2
30030	1188	21.1	0.8
30030	2238	21.907425738153	0.8
30031	924	20.91	8
30031	1223	21.11	1
30031	2627	22.210390369796	10
30031	3457	23.112160603759	8
30032	924	20.91	0
30032	1223	21.11	0.875
30032	2627	22.210390369796	0.59999999403954
30032	3457	23.112160603759	0.87301586568356
30033	924	20.91	0.8
30033	1223	21.11	0.2
30033	2627	22.210390369796	1.1
30033	3457	23.112160603759	0.9
30034	121	20.22	1
30034	648	20.72	4
30034	1734	21.52159041447	7
30034	3184	22.726060539622	11
30035	121	20.22	0.79999999701977
30035	648	20.72	0.33333331346512
30035	1734	21.52159041447	0.46153843402863
30035	3184	22.726060539622	0.79245282709599
30036	121	20.22	0.1
30036	648	20.72	0.5
30036	1734	21.52159041447	0.8
30036	3184	22.726060539622	1.2
30037	130	20.23	1
30037	523	20.638081392508	3
30037	2762	22.342281782535	16
30038	130	20.23	0.79999999701977
30038	523	20.638081392508	0.5
30038	2762	22.342281782535	0.46666663885117
30039	130	20.23	0.1
30039	523	20.638081392508	0.4
30039	2762	22.342281782535	1.7
30040	148	20.24	1
30040	425	20.54	2
30040	686	20.744923966536	1
30040	1804	21.5702454529	5
30040	2214	21.880068390557	2
30040	3140	22.682479412738	7
30041	148	20.24	0.79999999701977
30041	425	20.54	0.66666665673256
30041	686	20.744923966536	0.83333332836628
30041	1804	21.5702454529	0.61538460850716
30041	2214	21.880068390557	0.8823529407382
30041	3140	22.682479412738	0.85714285075665
30042	148	20.24	0.1
30042	425	20.54	0.3
30042	686	20.744923966536	0.2
30042	1804	21.5702454529	0.6
30042	2214	21.880068390557	0.3
30042	3140	22.682479412738	0.8
30043	237	20.35	2
30043	1266	21.15	7
30043	1770	21.551180117672	3
30043	2176	21.860109324852	2
30044	237	20.35	0.59999999403954
30044	1266	21.15	0.125
30044	1770	21.551180117672	0.76923076808453
30044	2176	21.860109324852	0.875
30045	237	20.35	0.2
30045	1266	21.15	0.8
30045	1770	21.551180117672	0.4
30045	2176	21.860109324852	0.3
30046	714	20.76	6
30046	2297	21.96	11
30046	3298	22.860731633803	8
30046	3630	23.363576729662	4
30047	714	20.76	0.14285713434219
30047	2297	21.96	0.42105263471603
30047	3298	22.860731633803	0.86885246634483
30047	3630	23.363576729662	0.94285714253783
30048	714	20.76	0.6
30048	2297	21.96	1.2
30048	3298	22.860731633803	0.9
30048	3630	23.363576729662	0.5
30049	260	20.37	2
30049	2066	21.77	13
30049	3222	22.775534490351	9
30050	260	20.37	0.59999999403954
30050	2066	21.77	0.13333332538605
30050	3222	22.775534490351	0.83636364340782
30051	260	20.37	0.2
30051	2066	21.77	1.4
30051	3222	22.775534490351	1
30052	375	20.48	3
30052	1446	21.28	7
30053	375	20.48	0.5
30053	1446	21.28	0.22222220897675
30054	375	20.48	0.3
30054	1446	21.28	0.8
30055	106	20.19	0
30055	279	20.39	1
30055	3158	22.704108881362	22
30056	106	20.19	1
30056	279	20.39	0.79999999701977
30056	3158	22.704108881362	0.56862744688988
30057	106	20.19	0
30057	279	20.39	0.2
30057	3158	22.704108881362	2.3
30058	292	20.4	2
30058	1578	21.4	9
30058	2727	22.309479463638	8
30058	2968	22.518401030583	1
30059	292	20.4	0.59999999403954
30059	1578	21.4	0.25
30059	2727	22.309479463638	0.72413793206215
30059	2968	22.518401030583	0.97368421033025
30060	292	20.4	0.2
30060	1578	21.4	1
30060	2727	22.309479463638	0.9
30060	2968	22.518401030583	0.2
30061	400	20.51	3
30061	2367	22.01	14
30061	3069	22.616249392938	5
30062	400	20.51	0.5
30062	2367	22.01	0.30000001192093
30062	3069	22.616249392938	0.88636363297701
30063	400	20.51	0.3
30063	2367	22.01	1.5
30063	3069	22.616249392938	0.6
30064	309	20.42	2
30064	2386	22.02	15
30064	3334	22.924697513775	8
30064	3602	23.327737069452	3
30065	309	20.42	0.59999999403954
30065	2386	22.02	0.25
30065	3334	22.924697513775	0.86885246634483
30065	3602	23.327737069452	0.95652173832059
30066	309	20.42	0.2
30066	2386	22.02	1.6
30066	3334	22.924697513775	0.9
30066	3602	23.327737069452	0.4
30067	136	20.23	0
30067	797	20.83	5
30067	1843	21.603222882794	6
30067	2849	22.412266240743	7
30067	3463	23.117502004212	6
30067	3943	24.026782384741	8
30068	136	20.23	1
30068	797	20.83	0.28571426868439
30068	1843	21.603222882794	0.53846153616905
30068	2849	22.412266240743	0.79411764442921
30068	3463	23.117502004212	0.90625
30068	3943	24.026782384741	0.89743589609861
30069	136	20.23	0
30069	797	20.83	0.6
30069	1843	21.603222882794	0.7
30069	2849	22.412266240743	0.8
30069	3463	23.117502004212	0.7
30069	3943	24.026782384741	0.9
30070	429	20.54	3
30070	2537	22.14	15
30070	3102	22.647063889298	4
30070	3493	23.154131328919	4
30070	3628	23.362392978422	1
30070	3738	23.566023630989	1
30070	3972	24.075092706971	4
30071	429	20.54	0.5
30071	2537	22.14	0.34782606363297
30071	3102	22.647063889298	0.91111110895872
30071	3493	23.154131328919	0.93846153840423
30071	3628	23.362392978422	0.98571428563446
30071	3738	23.566023630989	0.98666666634381
30071	3972	24.075092706971	0.94999999925494
30072	429	20.54	0.3
30072	2537	22.14	1.6
30072	3102	22.647063889298	0.5
30072	3493	23.154131328919	0.5
30072	3628	23.362392978422	0.2
30072	3738	23.566023630989	0.2
30072	3972	24.075092706971	0.5
30073	699	20.75	5
30073	2030	21.75	9
30073	2904	22.45758517737	6
30073	3292	22.858235343454	3
30073	3429	23.059582065226	1
30073	3635	23.366353633909	2
30074	699	20.75	0.16666668653488
30074	2030	21.75	0.39999997615814
30074	2904	22.45758517737	0.83333332836628
30074	3292	22.858235343454	0.94999999925494
30074	3429	23.059582065226	0.98412698321044
30074	3635	23.366353633909	0.97142857126892
30075	699	20.75	0.5
30075	2030	21.75	1
30075	2904	22.45758517737	0.7
30075	3292	22.858235343454	0.4
30075	3429	23.059582065226	0.2
30075	3635	23.366353633909	0.3
30076	556	20.66	4
30076	2908	22.46	17
30076	3120	22.665905090842	1
30077	556	20.66	0.33333331346512
30077	2908	22.46	0.52777779102325
30077	3120	22.665905090842	0.97777777723968
30078	556	20.66	0.4
30078	2908	22.46	1.8
30078	3120	22.665905090842	0.2
30079	359	20.47	2
30079	2310	21.97	14
30079	2923	22.477095897123	4
30080	359	20.47	0.66666665673256
30080	2310	21.97	0.2631579041481
30080	2923	22.477095897123	0.88888888806105
30081	359	20.47	0.2
30081	2310	21.97	1.5
30081	2923	22.477095897123	0.5
30082	585	20.68	4
30082	2458	22.08	13
30082	3522	23.188076584187	10
30083	585	20.68	0.33333331346512
30083	2458	22.08	0.35000002384186
30083	3522	23.188076584187	0.84848484396935
30084	585	20.68	0.4