file 136200 1369933125                                          
version 2
run Stability2-18-20130528-01:23:16-24168
attr configname Stability2
attr datetime 20130528-01:23:16
attr experiment Stability2
attr inifile omnetpp.ini
attr iterationvars $0=20
attr iterationvars2 "$0=20, $repetition=8"
attr measurement $0=20
attr network Network
attr processid 24168
attr repetition 8
attr replication #8
attr resultdir results
attr runnumber 18
attr seedset 18
vector 570018  Network.churner  inGoingSizeSig:vector  ETV
570018	132037 4163 11 3128 20 22 201 0 187 19100 2404494
vector 540018  Network.dyn_peer[0]  lookupHopsSig:vector  ETV
540018	39521 99 18 7572 20.01 23.951553963827 4 0 15 36 458
vector 540019  Network.dyn_peer[0]  lookupStabilitySig:vector  ETV
540019	39620 143 18 7572 20.01 23.951553963827 4 -0.14285719394684 1 2.0833069086075 1.8553721311327
vector 540020  Network.dyn_peer[0]  lookupTimeSig:vector  ETV
540020	39763 103 18 7572 20.01 23.951553963827 4 0 1.6 3.9 5.33
vector 540030  Network.dyn_peer[4]  lookupHopsSig:vector  ETV
540030	41390 136 34 7313 20.05 23.79581788167 5 0 9 30 234
vector 540031  Network.dyn_peer[4]  lookupStabilitySig:vector  ETV
540031	41526 181 34 7313 20.05 23.79581788167 5 0 1 3.2400900945067 2.7229585694869
vector 540032  Network.dyn_peer[4]  lookupTimeSig:vector  ETV
540032	41707 142 34 7313 20.05 23.79581788167 5 0 1 3.4 2.98
vector 540021  Network.dyn_peer[1]  lookupHopsSig:vector  ETV
540021	39866 110 61 7692 20.12 24.022022152882 4 1 15 36 428
vector 540022  Network.dyn_peer[1]  lookupStabilitySig:vector  ETV
540022	39976 157 61 7692 20.12 24.022022152882 4 -0.125 0.8705882281065 2.0910427570343 1.7110695045283
vector 540023  Network.dyn_peer[1]  lookupTimeSig:vector  ETV
540023	40133 114 61 7692 20.12 24.022022152882 4 0.1 1.6 3.9 5.01
vector 540054  Network.dyn_peer[12]  lookupHopsSig:vector  ETV
540054	45817 218 72 9822 20.13 25.808608805015 8 0 11 41 353
vector 540055  Network.dyn_peer[12]  lookupStabilitySig:vector  ETV
540055	46035 320 72 9822 20.13 25.808608805015 8 0.39999997615814 1 6.3898194935173 5.4506673730101
vector 540056  Network.dyn_peer[12]  lookupTimeSig:vector  ETV
540056	46355 228 72 9822 20.13 25.808608805015 8 0 1.2 4.8 4.42
vector 540033  Network.dyn_peer[5]  lookupHopsSig:vector  ETV
540033	41849 127 85 5921 20.16 23.125043329233 5 1 9 23 163
vector 540034  Network.dyn_peer[5]  lookupStabilitySig:vector  ETV
540034	41976 202 85 5921 20.16 23.125043329233 5 0.19999998807907 0.97916666604578 3.1257831994444 2.389587072433
vector 540035  Network.dyn_peer[5]  lookupTimeSig:vector  ETV
540035	42178 135 85 5921 20.16 23.125043329233 5 0.1 1 2.7 2.11
vector 540036  Network.dyn_peer[6]  lookupHopsSig:vector  ETV
540036	42313 138 94 5647 20.17 23.005642182131 5 1 10 25 171
vector 540037  Network.dyn_peer[6]  lookupStabilitySig:vector  ETV
540037	42451 212 94 5647 20.17 23.005642182131 5 0.14285713434219 0.88095238059759 3.1344155743718 2.3056886503245
vector 540038  Network.dyn_peer[6]  lookupTimeSig:vector  ETV
540038	42663 147 94 5647 20.17 23.005642182131 5 0.1 1.1 2.9 2.23
vector 540066  Network.dyn_peer[16]  lookupHopsSig:vector  ETV
540066	47777 100 100 8405 20.17 24.491530432981 4 0 20 40 762
vector 540067  Network.dyn_peer[16]  lookupStabilitySig:vector  ETV
540067	47877 142 100 8405 20.17 24.491530432981 4 0.1739130616188 1 2.785233810544 2.3284871107057
vector 540068  Network.dyn_peer[16]  lookupTimeSig:vector  ETV
540068	48019 102 100 8405 20.17 24.491530432981 4 0 2.1 4.3 8.45
vector 540045  Network.dyn_peer[9]  lookupHopsSig:vector  ETV
540045	43565 336 117 11236 20.2 28.622239691772 12 1 12 50 328
vector 540046  Network.dyn_peer[9]  lookupStabilitySig:vector  ETV
540046	43901 505 117 11236 20.2 28.622239691772 12 0.59999999403954 0.98830409348011 10.693045917898 9.6732555826135
vector 540047  Network.dyn_peer[9]  lookupTimeSig:vector  ETV
540047	44406 359 117 11236 20.2 28.622239691772 12 0.1 1.3 6.1 4.37
vector 540075  Network.dyn_peer[19]  lookupHopsSig:vector  ETV
540075	48732 155 123 7116 20.2 23.68951623134 6 0 20 28 418
vector 540076  Network.dyn_peer[19]  lookupStabilitySig:vector  ETV
540076	48887 228 123 7116 20.2 23.68951623134 6 0.59999999403954 1 4.5932523235679 3.6438961300916
vector 540077  Network.dyn_peer[19]  lookupTimeSig:vector  ETV
540077	49115 164 123 7116 20.2 23.68951623134 6 0 2.1 3.3 4.79
vector 540039  Network.dyn_peer[7]  lookupHopsSig:vector  ETV
540039	42810 100 164 6480 20.28 23.388682662811 4 2 11 30 270
vector 540040  Network.dyn_peer[7]  lookupStabilitySig:vector  ETV
540040	42910 159 164 6480 20.28 23.388682662811 4 0.11111110448837 0.78431372344494 2.0454248338938 1.2899937002852
vector 540041  Network.dyn_peer[7]  lookupTimeSig:vector  ETV
540041	43069 105 164 6480 20.28 23.388682662811 4 0.2 1.2 3.3 3.29
vector 540042  Network.dyn_peer[8]  lookupHopsSig:vector  ETV
540042	43174 109 174 9303 20.29 25.238135559821 4 2 29 44 934
vector 540043  Network.dyn_peer[8]  lookupStabilitySig:vector  ETV
540043	43283 168 174 9303 20.29 25.238135559821 4 0.28571426868439 0.78358209133148 2.1359629929066 1.2734112818494
vector 540044  Network.dyn_peer[8]  lookupTimeSig:vector  ETV
540044	43451 114 174 9303 20.29 25.238135559821 4 0.2 3 4.7 10.21
vector 540048  Network.dyn_peer[10]  lookupHopsSig:vector  ETV
540048	44765 190 191 9780 20.31 25.756542518707 7 1 19 45 523
vector 540049  Network.dyn_peer[10]  lookupStabilitySig:vector  ETV
540049	44955 281 191 9780 20.31 25.756542518707 7 0.33333331346512 0.96491228044033 5.1145408973098 4.0455280203995
vector 540050  Network.dyn_peer[10]  lookupTimeSig:vector  ETV
540050	45236 200 191 9780 20.31 25.756542518707 7 0.2 2 5.1 6.15
vector 540078  Network.dyn_peer[20]  lookupHopsSig:vector  ETV
540078	49279 99 195 5435 20.31 22.918172713869 4 1 13 24 252
vector 540079  Network.dyn_peer[20]  lookupStabilitySig:vector  ETV
540079	49378 148 195 5435 20.31 22.918172713869 4 0.1875 0.79999999701977 2.5506578832865 1.8975662043831
vector 540080  Network.dyn_peer[20]  lookupTimeSig:vector  ETV
540080	49526 104 195 5435 20.31 22.918172713869 4 0.1 1.4 2.7 3.01
vector 540024  Network.dyn_peer[2]  lookupHopsSig:vector  ETV
540024	40247 223 211 10525 20.33 26.851050678068 8 2 16 59 651
vector 540025  Network.dyn_peer[2]  lookupStabilitySig:vector  ETV
540025	40470 317 211 10525 20.33 26.851050678068 8 0.25 0.97222222201526 5.6826201882213 4.5236429363987
vector 540026  Network.dyn_peer[2]  lookupTimeSig:vector  ETV
540026	40787 236 211 10525 20.33 26.851050678068 8 0.3 1.7 6.6 7.7
vector 540027  Network.dyn_peer[3]  lookupHopsSig:vector  ETV
540027	41023 101 222 8188 20.34 24.347243150213 4 3 18 40 526
vector 540028  Network.dyn_peer[3]  lookupStabilitySig:vector  ETV
540028	41124 159 222 8188 20.34 24.347243150213 4 0.076923072338104 0.92857142537832 2.1285713836551 1.5510022494713
vector 540029  Network.dyn_peer[3]  lookupTimeSig:vector  ETV
540029	41283 107 222 8188 20.34 24.347243150213 4 0.3 1.9 4.3 6.03
vector 540090  Network.dyn_peer[24]  lookupHopsSig:vector  ETV
540090	50624 100 231 5313 20.35 22.866916009559 4 1 11 23 183
vector 540091  Network.dyn_peer[24]  lookupStabilitySig:vector  ETV
540091	50724 160 231 5313 20.35 22.866916009559 4 0.083333313465118 0.85714285075665 2.4547618627548 1.8918423663543
vector 540092  Network.dyn_peer[24]  lookupTimeSig:vector  ETV
540092	50884 107 231 5313 20.35 22.866916009559 4 0.1 1.2 2.6 2.3
vector 540123  Network.dyn_peer[35]  lookupHopsSig:vector  ETV
540123	55119 158 244 6517 20.36 23.399305450961 6 0 9 24 144
vector 540124  Network.dyn_peer[35]  lookupStabilitySig:vector  ETV
540124	55277 219 244 6517 20.36 23.399305450961 6 0.5 1 4.5056362301111 3.5536267802126
vector 540125  Network.dyn_peer[35]  lookupTimeSig:vector  ETV
540125	55496 166 244 6517 20.36 23.399305450961 6 0 1 2.9 1.97
vector 540084  Network.dyn_peer[22]  lookupHopsSig:vector  ETV
540084	49920 100 298 3748 20.43 22.239071436929 4 1 10 17 121
vector 540085  Network.dyn_peer[22]  lookupStabilitySig:vector  ETV
540085	50020 158 298 3748 20.43 22.239071436929 4 0.16666668653488 0.9333333298564 2.5000000074506 1.8988888771004
vector 540086  Network.dyn_peer[22]  lookupTimeSig:vector  ETV
540086	50178 107 298 3748 20.43 22.239071436929 4 0.2 1.1 2 1.54
vector 540057  Network.dyn_peer[13]  lookupHopsSig:vector  ETV
540057	46583 70 310 4052 20.44 22.343757209696 3 2 15 20 238
vector 540058  Network.dyn_peer[13]  lookupStabilitySig:vector  ETV
540058	46653 114 310 4052 20.44 22.343757209696 3 0.11764705181122 0.90909090638161 1.426737934351 1.0002870857921
vector 540059  Network.dyn_peer[13]  lookupTimeSig:vector  ETV
540059	46767 75 310 4052 20.44 22.343757209696 3 0.3 1.6 2.2 2.74
vector 540060  Network.dyn_peer[14]  lookupHopsSig:vector  ETV
540060	46842 100 321 7581 20.45 23.959905878977 4 3 18 35 463
vector 540061  Network.dyn_peer[14]  lookupStabilitySig:vector  ETV
540061	46942 158 321 7581 20.45 23.959905878977 4 0.18181818723679 0.89655172079802 2.344223536551 1.7465653695043
vector 540062  Network.dyn_peer[14]  lookupTimeSig:vector  ETV
540062	47100 106 321 7581 20.45 23.959905878977 4 0.3 1.9 3.8 5.3
vector 540063  Network.dyn_peer[15]  lookupHopsSig:vector  ETV
540063	47206 161 332 9105 20.46 25.064688606387 6 1 17 41 481
vector 540064  Network.dyn_peer[15]  lookupStabilitySig:vector  ETV
540064	47367 241 332 9105 20.46 25.064688606387 6 0.16666668653488 0.97959183715284 4.0364345144481 3.2461274713673
vector 540065  Network.dyn_peer[15]  lookupTimeSig:vector  ETV
540065	47608 169 332 9105 20.46 25.064688606387 6 0.2 1.8 4.6 5.62
vector 540093  Network.dyn_peer[25]  lookupHopsSig:vector  ETV
540093	50991 70 336 6127 20.46 23.227003521511 3 2 15 26 310
vector 540094  Network.dyn_peer[25]  lookupStabilitySig:vector  ETV
540094	51061 114 336 6127 20.46 23.227003521511 3 0.11764705181122 0.81632652878761 1.5339735746384 1.0402298232497
vector 540095  Network.dyn_peer[25]  lookupTimeSig:vector  ETV
540095	51175 73 336 6127 20.46 23.227003521511 3 0.2 1.6 2.8 3.6
vector 540069  Network.dyn_peer[17]  lookupHopsSig:vector  ETV
540069	48121 101 354 8402 20.48 24.490614653447 4 3 16 40 498
vector 540070  Network.dyn_peer[17]  lookupStabilitySig:vector  ETV
540070	48222 159 354 8402 20.48 24.490614653447 4 0.19999998807907 0.92452830076218 2.333351790905 1.7089480511267
vector 540071  Network.dyn_peer[17]  lookupTimeSig:vector  ETV
540071	48381 107 354 8402 20.48 24.490614653447 4 0.3 1.7 4.3 5.75
vector 540102  Network.dyn_peer[28]  lookupHopsSig:vector  ETV
540102	51986 160 366 8424 20.49 24.502808203116 6 2 11 37 295
vector 540103  Network.dyn_peer[28]  lookupStabilitySig:vector  ETV
540103	52146 248 366 8424 20.49 24.502808203116 6 0.26666665077209 0.97247706353664 4.3459122888744 3.5168457018559
vector 540104  Network.dyn_peer[28]  lookupTimeSig:vector  ETV
540104	52394 169 366 8424 20.49 24.502808203116 6 0.2 1.2 4.2 3.7
vector 540117  Network.dyn_peer[33]  lookupHopsSig:vector  ETV
540117	54496 71 422 7021 20.54 23.642193226187 3 2 18 31 449
vector 540118  Network.dyn_peer[33]  lookupStabilitySig:vector  ETV
540118	54567 114 422 7021 20.54 23.642193226187 3 0.26666665077209 0.75675675272942 1.6234233975411 1.003791878283
vector 540119  Network.dyn_peer[33]  lookupTimeSig:vector  ETV
540119	54681 75 422 7021 20.54 23.642193226187 3 0.2 1.9 3.3 5.09
vector 540096  Network.dyn_peer[26]  lookupHopsSig:vector  ETV
540096	51248 133 450 10688 20.57 27.178748040265 5 3 24 65 1159
vector 540097  Network.dyn_peer[26]  lookupStabilitySig:vector  ETV
540097	51381 205 450 10688 20.57 27.178748040265 5 0.39999997615814 0.96296296268702 3.6058758199215 2.8732512742289
vector 540098  Network.dyn_peer[26]  lookupTimeSig:vector  ETV
540098	51586 140 450 10688 20.57 27.178748040265 5 0.3 2.5 6.9 12.87
vector 540198  Network.dyn_peer[60]  lookupHopsSig:vector  ETV
540198	65631 159 491 8739 20.61 24.738040152187 6 0 10 36 312
vector 540199  Network.dyn_peer[60]  lookupStabilitySig:vector  ETV
540199	65790 221 491 8739 20.61 24.738040152187 6 0.375 1 4.8089844696224 4.1051327655873
vector 540200  Network.dyn_peer[60]  lookupTimeSig:vector  ETV
540200	66011 164 491 8739 20.61 24.738040152187 6 0 1.1 4.1 3.89
vector 540051  Network.dyn_peer[11]  lookupHopsSig:vector  ETV
540051	45436 110 502 6360 20.62 23.332225295417 4 3 16 29 315
vector 540052  Network.dyn_peer[11]  lookupStabilitySig:vector  ETV
540052	45546 154 502 6360 20.62 23.332225295417 4 0 0.89795918017626 2.0326061248779 1.6668250129744
vector 540053  Network.dyn_peer[11]  lookupTimeSig:vector  ETV
540053	45700 117 502 6360 20.62 23.332225295417 4 0.4 1.7 3.2 3.66
vector 540081  Network.dyn_peer[21]  lookupHopsSig:vector  ETV
540081	49630 81 506 8046 20.62 24.252416635502 3 4 20 38 612
vector 540082  Network.dyn_peer[21]  lookupStabilitySig:vector  ETV
540082	49711 124 506 8046 20.62 24.252416635502 3 0.19999998807907 0.78947368264198 1.2116958796978 0.71265140097842
vector 540083  Network.dyn_peer[21]  lookupTimeSig:vector  ETV
540083	49835 85 506 8046 20.62 24.252416635502 3 0.4 2.1 4 6.82
vector 540111  Network.dyn_peer[31]  lookupHopsSig:vector  ETV
540111	53383 158 510 6854 20.62 23.563570511891 6 1 15 27 259
vector 540112  Network.dyn_peer[31]  lookupStabilitySig:vector  ETV
540112	53541 224 510 6854 20.62 23.563570511891 6 0.375 0.97959183715284 4.3812655266374 3.5856441747539
vector 540113  Network.dyn_peer[31]  lookupTimeSig:vector  ETV
540113	53765 169 510 6854 20.62 23.563570511891 6 0.2 1.6 3.2 3.12
vector 540120  Network.dyn_peer[34]  lookupHopsSig:vector  ETV
540120	54756 100 545 6634 20.65 23.454927019611 4 3 10 28 226
vector 540121  Network.dyn_peer[34]  lookupStabilitySig:vector  ETV
540121	54856 158 545 6634 20.65 23.454927019611 4 0.39999997615814 0.8214285671711 2.2846696376801 1.4118668290689
vector 540122  Network.dyn_peer[34]  lookupTimeSig:vector  ETV
540122	55014 105 545 6634 20.65 23.454927019611 4 0.3 1.1 3.1 2.79
vector 540153  Network.dyn_peer[45]  lookupHopsSig:vector  ETV
540153	59652 130 560 7757 20.66 24.065617064834 5 2 11 31 235
vector 540154  Network.dyn_peer[45]  lookupStabilitySig:vector  ETV
540154	59782 204 560 7757 20.66 24.065617064834 5 0.45454543828964 0.92222221940756 3.4581601992249 2.5167913300354
vector 540155  Network.dyn_peer[45]  lookupTimeSig:vector  ETV
540155	59986 139 560 7757 20.66 24.065617064834 5 0.2 1.2 3.5 2.97
vector 540126  Network.dyn_peer[36]  lookupHopsSig:vector  ETV
540126	55662 100 575 6668 20.67 23.471170917904 4 3 16 28 310
vector 540127  Network.dyn_peer[36]  lookupStabilitySig:vector  ETV
540127	55762 159 575 6668 20.67 23.471170917904 4 0.30434781312943 0.89655172079802 2.4974512308836 1.860237548415
vector 540128  Network.dyn_peer[36]  lookupTimeSig:vector  ETV
540128	55921 107 575 6668 20.67 23.471170917904 4 0.3 1.7 3.1 3.63
vector 540216  Network.dyn_peer[66]  lookupHopsSig:vector  ETV
540216	68546 100 581 6893 20.67 23.583163427472 4 0 12 26 250
vector 540217  Network.dyn_peer[66]  lookupStabilitySig:vector  ETV
540217	68646 144 581 6893 20.67 23.583163427472 4 0.29411762952805 1 3.0010760203004 2.5540141398776
vector 540218  Network.dyn_peer[66]  lookupTimeSig:vector  ETV
540218	68790 103 581 6893 20.67 23.583163427472 4 0 1.3 2.9 3.05
vector 540099  Network.dyn_peer[27]  lookupHopsSig:vector  ETV
540099	51726 71 593 7456 20.68 23.885485391491 3 4 18 34 484
vector 540100  Network.dyn_peer[27]  lookupStabilitySig:vector  ETV
540100	51797 114 593 7456 20.68 23.885485391491 3 0.19999998807907 0.85185185074806 1.3595441281796 0.86032611578146
vector 540101  Network.dyn_peer[27]  lookupTimeSig:vector  ETV
540101	51911 75 593 7456 20.68 23.885485391491 3 0.4 1.9 3.6 5.46
vector 540072  Network.dyn_peer[18]  lookupHopsSig:vector  ETV
540072	48488 70 608 7809 20.69 24.098679326316 3 5 27 37 779
vector 540073  Network.dyn_peer[18]  lookupStabilitySig:vector  ETV
540073	48558 99 608 7809 20.69 24.098679326316 3 0 0.69999998807907 1.2454545199871 0.78752062968972
vector 540074  Network.dyn_peer[18]  lookupTimeSig:vector  ETV
540074	48657 75 608 7809 20.69 24.098679326316 3 0.5 2.8 3.9 8.45
vector 540192  Network.dyn_peer[58]  lookupHopsSig:vector  ETV
540192	65017 68 718 4183 20.79 22.39572105017 3 2 9 16 110
vector 540193  Network.dyn_peer[58]  lookupStabilitySig:vector  ETV
540193	65085 113 718 4183 20.79 22.39572105017 3 0.58333334326744 0.66666665673256 1.8586956560612 1.1552326222743
vector 540194  Network.dyn_peer[58]  lookupTimeSig:vector  ETV
540194	65198 72 718 4183 20.79 22.39572105017 3 0.2 1 1.8 1.4
vector 540114  Network.dyn_peer[32]  lookupHopsSig:vector  ETV
540114	53934 158 771 7621 20.83 23.984930011387 6 1 8 28 176
vector 540115  Network.dyn_peer[32]  lookupStabilitySig:vector  ETV
540115	54092 234 771 7621 20.83 23.984930011387 6 0.16666668653488 0.98809523787349 4.1912815216929 3.4522573763692
vector 540116  Network.dyn_peer[32]  lookupTimeSig:vector  ETV
540116	54326 170 771 7621 20.83 23.984930011387 6 0.2 0.9 3.3 2.27
vector 540186  Network.dyn_peer[56]  lookupHopsSig:vector  ETV
540186	64396 100 823 6675 20.87 23.475784412964 4 3 11 26 204
vector 540187  Network.dyn_peer[56]  lookupStabilitySig:vector  ETV
540187	64496 158 823 6675 20.87 23.475784412964 4 0.53333333134651 0.81666666269302 2.6833333224058 1.8584183527904
vector 540188  Network.dyn_peer[56]  lookupTimeSig:vector  ETV
540188	64654 107 823 6675 20.87 23.475784412964 4 0.3 1.2 2.9 2.53
vector 540246  Network.dyn_peer[76]  lookupHopsSig:vector  ETV
540246	72306 128 827 5095 20.87 22.778496820173 5 1 5 16 68
vector 540247  Network.dyn_peer[76]  lookupStabilitySig:vector  ETV
540247	72434 202 827 5095 20.87 22.778496820173 5 0.58333334326744 0.94999999925494 3.9885154031217 3.2566911758858
vector 540248  Network.dyn_peer[76]  lookupTimeSig:vector  ETV
540248	72636 138 827 5095 20.87 22.778496820173 5 0.1 0.6 2 1.02
vector 540162  Network.dyn_peer[48]  lookupHopsSig:vector  ETV
540162	60621 129 856 5883 20.89 23.105262512765 5 2 6 22 108
vector 540163  Network.dyn_peer[48]  lookupStabilitySig:vector  ETV
540163	60750 204 856 5883 20.89 23.105262512765 5 0.42857140302658 0.92592592537403 3.5202880427241 2.6748055463288
vector 540164  Network.dyn_peer[48]  lookupTimeSig:vector  ETV
540164	60954 139 856 5883 20.89 23.105262512765 5 0.3 0.7 2.6 1.48
vector 540165  Network.dyn_peer[49]  lookupHopsSig:vector  ETV
540165	61093 68 874 5413 20.9 22.908836177012 3 4 12 22 196
vector 540166  Network.dyn_peer[49]  lookupStabilitySig:vector  ETV
540166	61161 111 874 5413 20.9 22.908836177012 3 0.42857140302658 0.6756756901741 1.6427086293697 0.93015191171795
vector 540167  Network.dyn_peer[49]  lookupTimeSig:vector  ETV
540167	61272 73 874 5413 20.9 22.908836177012 3 0.4 1.3 2.4 2.34
vector 540087  Network.dyn_peer[23]  lookupHopsSig:vector  ETV
540087	50285 98 930 5269 20.94 22.84945763593 4 5 7 23 135
vector 540088  Network.dyn_peer[23]  lookupStabilitySig:vector  ETV
540088	50383 135 930 5269 20.94 22.84945763593 4 0.125 0.82352940738201 2.2818627506494 1.5966034741905
vector 540089  Network.dyn_peer[23]  lookupTimeSig:vector  ETV
540089	50518 106 930 5269 20.94 22.84945763593 4 0.6 0.7 2.6 1.7
vector 540177  Network.dyn_peer[53]  lookupHopsSig:vector  ETV
540177	62657 40 934 3469 20.94 22.14 2 4 11 15 137
vector 540178  Network.dyn_peer[53]  lookupStabilitySig:vector  ETV
540178	62697 56 934 3469 20.94 22.14 2 0.42105263471603 0.5 0.92105263471603 0.42728532120131
vector 540179  Network.dyn_peer[53]  lookupTimeSig:vector  ETV
540179	62753 43 934 3469 20.94 22.14 2 0.4 1.2 1.6 1.6
vector 540156  Network.dyn_peer[46]  lookupHopsSig:vector  ETV
540156	60125 40 977 6664 20.97 23.47 2 5 24 29 601
vector 540157  Network.dyn_peer[46]  lookupStabilitySig:vector  ETV
540157	60165 58 977 6664 20.97 23.47 2 0.375 0.57894736528397 0.95394736528397 0.47580505176925
vector 540158  Network.dyn_peer[46]  lookupTimeSig:vector  ETV
540158	60223 43 977 6664 20.97 23.47 2 0.5 2.5 3 6.5
vector 540132  Network.dyn_peer[38]  lookupHopsSig:vector  ETV
540132	56486 101 1006 6739 20.99 23.501215022717 4 4 10 28 216
vector 540133  Network.dyn_peer[38]  lookupStabilitySig:vector  ETV
540133	56587 135 1006 6739 20.99 23.501215022717 4 0.25 0.93548387289047 2.4473886340856 1.76812894157
vector 540134  Network.dyn_peer[38]  lookupTimeSig:vector  ETV
540134	56722 108 1006 6739 20.99 23.501215022717 4 0.5 1.1 3.1 2.63
vector 540291  Network.dyn_peer[91]  lookupHopsSig:vector  ETV
540291	80236 131 1046 7695 21.02 24.026723439028 5 1 16 27 293
vector 540292  Network.dyn_peer[91]  lookupStabilitySig:vector  ETV
540292	80367 194 1046 7695 21.02 24.026723439028 5 0.62790697813034 0.95294117555022 4.212491504848 3.6181205950443
vector 540293  Network.dyn_peer[91]  lookupTimeSig:vector  ETV
540293	80561 140 1046 7695 21.02 24.026723439028 5 0.1 1.7 3.1 3.49
vector 540135  Network.dyn_peer[39]  lookupHopsSig:vector  ETV
540135	56830 69 1165 7327 21.1 23.800664813057 3 6 19 32 446
vector 540136  Network.dyn_peer[39]  lookupStabilitySig:vector  ETV
540136	56899 101 1165 7327 21.1 23.800664813057 3 0.125 0.92499999701977 1.6369565278292 1.2157679635464
vector 540137  Network.dyn_peer[39]  lookupTimeSig:vector  ETV
540137	57000 72 1165 7327 21.1 23.800664813057 3 0.7 2 3.4 4.98
vector 540225  Network.dyn_peer[69]  lookupHopsSig:vector  ETV
540225	69627 159 1169 8331 21.1 24.438965046636 6 1 15 32 304
vector 540226  Network.dyn_peer[69]  lookupStabilitySig:vector  ETV
540226	69786 235 1169 8331 21.1 24.438965046636 6 0.5 0.95774647966027 4.838907610625 4.0598633607691
vector 540227  Network.dyn_peer[69]  lookupTimeSig:vector  ETV
540227	70021 170 1169 8331 21.1 24.438965046636 6 0.2 1.6 3.7 3.65
vector 540219  Network.dyn_peer[67]  lookupHopsSig:vector  ETV
540219	68893 101 1288 7939 21.18 24.186511569737 4 2 19 32 426
vector 540220  Network.dyn_peer[67]  lookupStabilitySig:vector  ETV
540220	68994 159 1288 7939 21.18 24.186511569737 4 0.44444441795349 0.83333332836628 2.7712559998035 2.0115830177964
vector 540221  Network.dyn_peer[67]  lookupTimeSig:vector  ETV
540221	69153 106 1288 7939 21.18 24.186511569737 4 0.3 2 3.5 4.83
vector 540249  Network.dyn_peer[77]  lookupHopsSig:vector  ETV
540249	72774 41 1292 7283 21.18 23.78 2 4 25 29 641
vector 540250  Network.dyn_peer[77]  lookupStabilitySig:vector  ETV
540250	72815 70 1292 7283 21.18 23.78 2 0.55555555224419 0.68354430794716 1.2390998601914 0.77587479255631
vector 540251  Network.dyn_peer[77]  lookupTimeSig:vector  ETV
540251	72885 44 1292 7283 21.18 23.78 2 0.4 2.6 3 6.92
vector 540339  Network.dyn_peer[107]  lookupHopsSig:vector  ETV
540339	86025 131 1296 9241 21.18 25.190315587223 5 1 16 37 399
vector 540340  Network.dyn_peer[107]  lookupStabilitySig:vector  ETV
540340	86156 205 1296 9241 21.18 25.190315587223 5 0.56756755709648 0.95419847220182 4.2424159198999 3.7004265328577
vector 540341  Network.dyn_peer[107]  lookupTimeSig:vector  ETV
540341	86361 138 1296 9241 21.18 25.190315587223 5 0.1 1.7 4.1 4.75
vector 540195  Network.dyn_peer[59]  lookupHopsSig:vector  ETV
540195	65270 99 1331 9558 21.2 25.507915771805 4 6 25 46 778
vector 540196  Network.dyn_peer[59]  lookupStabilitySig:vector  ETV
540196	65369 158 1331 9558 21.2 25.507915771805 4 0.33333331346512 0.83783784508705 2.5400117486715 1.7860832581431
vector 540197  Network.dyn_peer[59]  lookupTimeSig:vector  ETV
540197	65527 104 1331 9558 21.2 25.507915771805 4 0.6 2.6 4.9 8.61
vector 540255  Network.dyn_peer[79]  lookupHopsSig:vector  ETV
540255	73193 39 1335 5873 21.2 23.1 2 4 18 22 340
vector 540256  Network.dyn_peer[79]  lookupStabilitySig:vector  ETV
540256	73232 68 1335 5873 21.2 23.1 2 0.55555555224419 0.60869565606117 1.1642512083054 0.67915237333709
vector 540257  Network.dyn_peer[79]  lookupTimeSig:vector  ETV
540257	73300 42 1335 5873 21.2 23.1 2 0.4 1.9 2.3 3.77
vector 540315  Network.dyn_peer[99]  lookupHopsSig:vector  ETV
540315	82954 69 1339 5169 21.2 22.807592706161 3 2 11 16 134
vector 540316  Network.dyn_peer[99]  lookupStabilitySig:vector  ETV
540316	83023 112 1339 5169 21.2 22.807592706161 3 0.6451613008976 0.77777777612209 2.1921698451042 1.6128873477732
vector 540317  Network.dyn_peer[99]  lookupTimeSig:vector  ETV
540317	83135 74 1339 5169 21.2 22.807592706161 3 0.2 1.2 1.8 1.64
vector 540168  Network.dyn_peer[50]  lookupHopsSig:vector  ETV
540168	61345 100 1356 9744 21.21 25.718339337995 4 5 30 49 1023
vector 540169  Network.dyn_peer[50]  lookupStabilitySig:vector  ETV
540169	61445 151 1356 9744 21.21 25.718339337995 4 0.22222220897675 0.96575342491269 2.5418359227478 1.9142647835764
vector 540170  Network.dyn_peer[50]  lookupTimeSig:vector  ETV
540170	61596 107 1356 9744 21.21 25.718339337995 4 0.6 3.1 5.2 11.1
vector 540207  Network.dyn_peer[63]  lookupHopsSig:vector  ETV
540207	67555 129 1409 7237 21.24 23.754480724866 5 3 9 27 171
vector 540208  Network.dyn_peer[63]  lookupStabilitySig:vector  ETV
540208	67684 204 1409 7237 21.24 23.754480724866 5 0.39999997615814 0.96153846010566 3.6780419163406 2.8775977620389
vector 540209  Network.dyn_peer[63]  lookupTimeSig:vector  ETV
540209	67888 137 1409 7237 21.24 23.754480724866 5 0.4 1 3.1 2.17
vector 540336  Network.dyn_peer[106]  lookupHopsSig:vector  ETV
540336	85657 100 1460 4622 21.27 22.578734517872 4 2 6 12 48
vector 540337  Network.dyn_peer[106]  lookupStabilitySig:vector  ETV
540337	85757 160 1460 4622 21.27 22.578734517872 4 0.71428570151329 0.92307692021132 3.283516459167 2.7182513809067
vector 540338  Network.dyn_peer[106]  lookupTimeSig:vector  ETV
540338	85917 108 1460 4622 21.27 22.578734517872 4 0.2 0.7 1.5 0.71
vector 540189  Network.dyn_peer[57]  lookupHopsSig:vector  ETV
540189	64761 69 1479 5597 21.28 22.98296835808 3 6 9 22 166
vector 540190  Network.dyn_peer[57]  lookupStabilitySig:vector  ETV
540190	64830 114 1479 5597 21.28 22.98296835808 3 0.36363637447357 0.78048780560493 1.7911829948425 1.1600777373021
vector 540191  Network.dyn_peer[57]  lookupTimeSig:vector  ETV
540191	64944 73 1479 5597 21.28 22.98296835808 3 0.7 1 2.4 1.98
vector 540105  Network.dyn_peer[29]  lookupHopsSig:vector  ETV
540105	52563 98 1520 9258 21.3 25.204050143798 4 6 22 46 684
vector 540106  Network.dyn_peer[29]  lookupStabilitySig:vector  ETV
540106	52661 157 1520 9258 21.3 25.204050143798 4 0.090909063816071 0.83333332836628 2.3550849854946 1.7357110153291
vector 540107  Network.dyn_peer[29]  lookupTimeSig:vector  ETV
540107	52818 102 1520 9258 21.3 25.204050143798 4 0.7 2.3 4.9 7.59
vector 540228  Network.dyn_peer[70]  lookupHopsSig:vector  ETV
540228	70191 131 1539 9289 21.31 25.225817517888 5 4 16 41 425
vector 540229  Network.dyn_peer[70]  lookupStabilitySig:vector  ETV
540229	70322 204 1539 9289 21.31 25.225817517888 5 0.45454543828964 0.95488721877337 3.7141945585609 2.9474678347374
vector 540230  Network.dyn_peer[70]  lookupTimeSig:vector  ETV
540230	70526 138 1539 9289 21.31 25.225817517888 5 0.5 1.7 4.5 4.99
vector 540201  Network.dyn_peer[61]  lookupHopsSig:vector  ETV
540201	66175 289 1558 11582 21.32 30.254004025713 10 1 18 87 965
vector 540202  Network.dyn_peer[61]  lookupStabilitySig:vector  ETV
540202	66464 425 1558 11582 21.32 30.254004025713 10 0.36363637447357 0.98453608248383 8.4934148350731 7.5615935988168
vector 540203  Network.dyn_peer[61]  lookupTimeSig:vector  ETV
540203	66889 302 1558 11582 21.32 30.254004025713 10 0.2 1.9 9.6 11.34
vector 540264  Network.dyn_peer[82]  lookupHopsSig:vector  ETV
540264	74524 163 1581 10407 21.33 26.641854589956 6 4 24 53 759
vector 540265  Network.dyn_peer[82]  lookupStabilitySig:vector  ETV
540265	74687 251 1581 10407 21.33 26.641854589956 6 0.54545453190804 0.97037037089467 4.8217936456204 4.0753336050974
vector 540266  Network.dyn_peer[82]  lookupTimeSig:vector  ETV
540266	74938 172 1581 10407 21.33 26.641854589956 6 0.5 2.5 5.8 8.6
vector 540210  Network.dyn_peer[64]  lookupHopsSig:vector  ETV
540210	68025 41 1622 5757 21.35 23.05 2 7 16 23 305
vector 540211  Network.dyn_peer[64]  lookupStabilitySig:vector  ETV
540211	68066 70 1622 5757 21.35 23.05 2 0.36363637447357 0.62790697813034 0.99154335260391 0.52649858602506
vector 540212  Network.dyn_peer[64]  lookupTimeSig:vector  ETV
540212	68136 44 1622 5757 21.35 23.05 2 0.7 1.7 2.4 3.38
vector 540300  Network.dyn_peer[94]  lookupHopsSig:vector  ETV
540300	81224 70 1626 7743 21.35 24.05450155528 3 3 22 29 509
vector 540301  Network.dyn_peer[94]  lookupStabilitySig:vector  ETV
540301	81294 114 1626 7743 21.35 24.05450155528 3 0.63636362552643 0.96629213541746 2.3093224391341 1.8380569489272
vector 540302  Network.dyn_peer[94]  lookupTimeSig:vector  ETV
540302	81408 75 1626 7743 21.35 24.05450155528 3 0.4 2.3 3.1 5.61
vector 540243  Network.dyn_peer[75]  lookupHopsSig:vector  ETV
540243	71938 100 1646 4925 21.36 22.701420537802 4 2 6 16 74
vector 540244  Network.dyn_peer[75]  lookupStabilitySig:vector  ETV
540244	72038 160 1646 4925 21.36 22.701420537802 4 0.45454543828964 0.90476190298796 2.95804682374 2.3206694110879
vector 540245  Network.dyn_peer[75]  lookupTimeSig:vector  ETV
540245	72198 108 1646 4925 21.36 22.701420537802 4 0.3 0.6 1.9 0.97
vector 540306  Network.dyn_peer[96]  lookupHopsSig:vector  ETV
540306	81639 162 1668 10321 21.37 26.512616861728 6 2 18 50 590
vector 540307  Network.dyn_peer[96]  lookupStabilitySig:vector  ETV
540307	81801 249 1668 10321 21.37 26.512616861728 6 0.66666665673256 0.93124999850988 4.9044754877686 4.0526334166434
vector 540308  Network.dyn_peer[96]  lookupTimeSig:vector  ETV
540308	82050 171 1668 10321 21.37 26.512616861728 6 0.3 1.9 5.5 6.87
vector 540159  Network.dyn_peer[47]  lookupHopsSig:vector  ETV
540159	60266 101 1688 8521 21.38 24.584339576702 4 4 16 38 434
vector 540160  Network.dyn_peer[47]  lookupStabilitySig:vector  ETV
540160	60367 148 1688 8521 21.38 24.584339576702 4 0.25 0.96396396309137 2.766137868166 2.2270573238605
vector 540161  Network.dyn_peer[47]  lookupTimeSig:vector  ETV
540161	60515 106 1688 8521 21.38 24.584339576702 4 0.5 1.7 4.1 4.95
vector 540369  Network.dyn_peer[117]  lookupHopsSig:vector  ETV
540369	90140 100 1692 6061 21.38 23.193563120625 4 2 9 17 103