version 2
run Stability2-29-20130528-01:24:26-24168
attr configname Stability2
attr datetime 20130528-01:24:26
attr experiment Stability2
attr inifile omnetpp.ini
attr iterationvars $0=30
attr iterationvars2 "$0=30, $repetition=9"
attr measurement $0=30
attr network Network
attr processid 24168
attr repetition 9
attr replication #9
attr resultdir results
attr runnumber 29
attr seedset 29

vector 900029  Network.churner  inGoingSizeSig:vector  ETV
vector 870035  Network.dyn_peer[2]  lookupHopsSig:vector  ETV
vector 870036  Network.dyn_peer[2]  lookupStabilitySig:vector  ETV
vector 870037  Network.dyn_peer[2]  lookupTimeSig:vector  ETV
vector 870044  Network.dyn_peer[5]  lookupHopsSig:vector  ETV
vector 870045  Network.dyn_peer[5]  lookupStabilitySig:vector  ETV
vector 870046  Network.dyn_peer[5]  lookupTimeSig:vector  ETV
vector 870029  Network.dyn_peer[0]  lookupHopsSig:vector  ETV
vector 870030  Network.dyn_peer[0]  lookupStabilitySig:vector  ETV
vector 870031  Network.dyn_peer[0]  lookupTimeSig:vector  ETV
vector 870050  Network.dyn_peer[7]  lookupHopsSig:vector  ETV
vector 870051  Network.dyn_peer[7]  lookupStabilitySig:vector  ETV
vector 870052  Network.dyn_peer[7]  lookupTimeSig:vector  ETV
vector 870080  Network.dyn_peer[17]  lookupHopsSig:vector  ETV
vector 870081  Network.dyn_peer[17]  lookupStabilitySig:vector  ETV
vector 870082  Network.dyn_peer[17]  lookupTimeSig:vector  ETV
vector 870053  Network.dyn_peer[8]  lookupHopsSig:vector  ETV
vector 870054  Network.dyn_peer[8]  lookupStabilitySig:vector  ETV
vector 870055  Network.dyn_peer[8]  lookupTimeSig:vector  ETV
vector 870056  Network.dyn_peer[9]  lookupHopsSig:vector  ETV
vector 870057  Network.dyn_peer[9]  lookupStabilitySig:vector  ETV
vector 870058  Network.dyn_peer[9]  lookupTimeSig:vector  ETV
vector 870059  Network.dyn_peer[10]  lookupHopsSig:vector  ETV
vector 870060  Network.dyn_peer[10]  lookupStabilitySig:vector  ETV
vector 870061  Network.dyn_peer[10]  lookupTimeSig:vector  ETV
vector 870083  Network.dyn_peer[18]  lookupHopsSig:vector  ETV
vector 870084  Network.dyn_peer[18]  lookupStabilitySig:vector  ETV
vector 870085  Network.dyn_peer[18]  lookupTimeSig:vector  ETV
vector 870032  Network.dyn_peer[1]  lookupHopsSig:vector  ETV
vector 870033  Network.dyn_peer[1]  lookupStabilitySig:vector  ETV
vector 870034  Network.dyn_peer[1]  lookupTimeSig:vector  ETV
vector 870065  Network.dyn_peer[12]  lookupHopsSig:vector  ETV
vector 870066  Network.dyn_peer[12]  lookupStabilitySig:vector  ETV
vector 870067  Network.dyn_peer[12]  lookupTimeSig:vector  ETV
vector 870095  Network.dyn_peer[22]  lookupHopsSig:vector  ETV
vector 870096  Network.dyn_peer[22]  lookupStabilitySig:vector  ETV
vector 870097  Network.dyn_peer[22]  lookupTimeSig:vector  ETV
vector 870098  Network.dyn_peer[23]  lookupHopsSig:vector  ETV
vector 870099  Network.dyn_peer[23]  lookupStabilitySig:vector  ETV
vector 870100  Network.dyn_peer[23]  lookupTimeSig:vector  ETV
vector 870041  Network.dyn_peer[4]  lookupHopsSig:vector  ETV
vector 870042  Network.dyn_peer[4]  lookupStabilitySig:vector  ETV
vector 870043  Network.dyn_peer[4]  lookupTimeSig:vector  ETV
vector 870071  Network.dyn_peer[14]  lookupHopsSig:vector  ETV
vector 870072  Network.dyn_peer[14]  lookupStabilitySig:vector  ETV
vector 870073  Network.dyn_peer[14]  lookupTimeSig:vector  ETV
vector 870101  Network.dyn_peer[24]  lookupHopsSig:vector  ETV
vector 870102  Network.dyn_peer[24]  lookupStabilitySig:vector  ETV
vector 870103  Network.dyn_peer[24]  lookupTimeSig:vector  ETV
vector 870074  Network.dyn_peer[15]  lookupHopsSig:vector  ETV
vector 870075  Network.dyn_peer[15]  lookupStabilitySig:vector  ETV
vector 870076  Network.dyn_peer[15]  lookupTimeSig:vector  ETV
vector 870062  Network.dyn_peer[11]  lookupHopsSig:vector  ETV
vector 870063  Network.dyn_peer[11]  lookupStabilitySig:vector  ETV
vector 870064  Network.dyn_peer[11]  lookupTimeSig:vector  ETV
vector 870092  Network.dyn_peer[21]  lookupHopsSig:vector  ETV
vector 870093  Network.dyn_peer[21]  lookupStabilitySig:vector  ETV
vector 870094  Network.dyn_peer[21]  lookupTimeSig:vector  ETV
vector 870122  Network.dyn_peer[31]  lookupHopsSig:vector  ETV
vector 870123  Network.dyn_peer[31]  lookupStabilitySig:vector  ETV
vector 870124  Network.dyn_peer[31]  lookupTimeSig:vector  ETV
vector 870038  Network.dyn_peer[3]  lookupHopsSig:vector  ETV
vector 870039  Network.dyn_peer[3]  lookupStabilitySig:vector  ETV
vector 870040  Network.dyn_peer[3]  lookupTimeSig:vector  ETV
vector 870104  Network.dyn_peer[25]  lookupHopsSig:vector  ETV
vector 870105  Network.dyn_peer[25]  lookupStabilitySig:vector  ETV
vector 870106  Network.dyn_peer[25]  lookupTimeSig:vector  ETV
vector 870047  Network.dyn_peer[6]  lookupHopsSig:vector  ETV
vector 870048  Network.dyn_peer[6]  lookupStabilitySig:vector  ETV
vector 870049  Network.dyn_peer[6]  lookupTimeSig:vector  ETV
vector 870086  Network.dyn_peer[19]  lookupHopsSig:vector  ETV
vector 870087  Network.dyn_peer[19]  lookupStabilitySig:vector  ETV
vector 870088  Network.dyn_peer[19]  lookupTimeSig:vector  ETV
vector 870116  Network.dyn_peer[29]  lookupHopsSig:vector  ETV
vector 870117  Network.dyn_peer[29]  lookupStabilitySig:vector  ETV
vector 870118  Network.dyn_peer[29]  lookupTimeSig:vector  ETV
vector 870089  Network.dyn_peer[20]  lookupHopsSig:vector  ETV
vector 870090  Network.dyn_peer[20]  lookupStabilitySig:vector  ETV
vector 870091  Network.dyn_peer[20]  lookupTimeSig:vector  ETV
vector 870155  Network.dyn_peer[42]  lookupHopsSig:vector  ETV
vector 870156  Network.dyn_peer[42]  lookupStabilitySig:vector  ETV
vector 870157  Network.dyn_peer[42]  lookupTimeSig:vector  ETV
vector 870068  Network.dyn_peer[13]  lookupHopsSig:vector  ETV
vector 870069  Network.dyn_peer[13]  lookupStabilitySig:vector  ETV
vector 870070  Network.dyn_peer[13]  lookupTimeSig:vector  ETV
vector 870077  Network.dyn_peer[16]  lookupHopsSig:vector  ETV
vector 870078  Network.dyn_peer[16]  lookupStabilitySig:vector  ETV
vector 870079  Network.dyn_peer[16]  lookupTimeSig:vector  ETV
vector 870167  Network.dyn_peer[46]  lookupHopsSig:vector  ETV
vector 870168  Network.dyn_peer[46]  lookupStabilitySig:vector  ETV
vector 870169  Network.dyn_peer[46]  lookupTimeSig:vector  ETV
vector 870119  Network.dyn_peer[30]  lookupHopsSig:vector  ETV
vector 870120  Network.dyn_peer[30]  lookupStabilitySig:vector  ETV
vector 870121  Network.dyn_peer[30]  lookupTimeSig:vector  ETV
vector 870113  Network.dyn_peer[28]  lookupHopsSig:vector  ETV
vector 870114  Network.dyn_peer[28]  lookupStabilitySig:vector  ETV
vector 870115  Network.dyn_peer[28]  lookupTimeSig:vector  ETV
vector 870125  Network.dyn_peer[32]  lookupHopsSig:vector  ETV
vector 870126  Network.dyn_peer[32]  lookupStabilitySig:vector  ETV
vector 870127  Network.dyn_peer[32]  lookupTimeSig:vector  ETV
vector 870158  Network.dyn_peer[43]  lookupHopsSig:vector  ETV
vector 870159  Network.dyn_peer[43]  lookupStabilitySig:vector  ETV
vector 870160  Network.dyn_peer[43]  lookupTimeSig:vector  ETV
vector 870131  Network.dyn_peer[34]  lookupHopsSig:vector  ETV
vector 870132  Network.dyn_peer[34]  lookupStabilitySig:vector  ETV
vector 870133  Network.dyn_peer[34]  lookupTimeSig:vector  ETV
vector 870107  Network.dyn_peer[26]  lookupHopsSig:vector  ETV
vector 870108  Network.dyn_peer[26]  lookupStabilitySig:vector  ETV
vector 870109  Network.dyn_peer[26]  lookupTimeSig:vector  ETV
vector 870260  Network.dyn_peer[77]  lookupHopsSig:vector  ETV
vector 870261  Network.dyn_peer[77]  lookupStabilitySig:vector  ETV
vector 870262  Network.dyn_peer[77]  lookupTimeSig:vector  ETV
vector 870233  Network.dyn_peer[68]  lookupHopsSig:vector  ETV
vector 870234  Network.dyn_peer[68]  lookupStabilitySig:vector  ETV
vector 870235  Network.dyn_peer[68]  lookupTimeSig:vector  ETV
vector 870218  Network.dyn_peer[63]  lookupHopsSig:vector  ETV
vector 870219  Network.dyn_peer[63]  lookupStabilitySig:vector  ETV
vector 870220  Network.dyn_peer[63]  lookupTimeSig:vector  ETV
vector 870221  Network.dyn_peer[64]  lookupHopsSig:vector  ETV
vector 870222  Network.dyn_peer[64]  lookupStabilitySig:vector  ETV
vector 870223  Network.dyn_peer[64]  lookupTimeSig:vector  ETV
vector 870272  Network.dyn_peer[81]  lookupHopsSig:vector  ETV
vector 870273  Network.dyn_peer[81]  lookupStabilitySig:vector  ETV
vector 870274  Network.dyn_peer[81]  lookupTimeSig:vector  ETV
vector 870161  Network.dyn_peer[44]  lookupHopsSig:vector  ETV
vector 870162  Network.dyn_peer[44]  lookupStabilitySig:vector  ETV
vector 870163  Network.dyn_peer[44]  lookupTimeSig:vector  ETV
vector 870134  Network.dyn_peer[35]  lookupHopsSig:vector  ETV
vector 870135  Network.dyn_peer[35]  lookupStabilitySig:vector  ETV
vector 870136  Network.dyn_peer[35]  lookupTimeSig:vector  ETV
vector 870170  Network.dyn_peer[47]  lookupHopsSig:vector  ETV
vector 870171  Network.dyn_peer[47]  lookupStabilitySig:vector  ETV
vector 870172  Network.dyn_peer[47]  lookupTimeSig:vector  ETV
vector 870179  Network.dyn_peer[50]  lookupHopsSig:vector  ETV
vector 870180  Network.dyn_peer[50]  lookupStabilitySig:vector  ETV
vector 870181  Network.dyn_peer[50]  lookupTimeSig:vector  ETV
vector 870209  Network.dyn_peer[60]  lookupHopsSig:vector  ETV
vector 870210  Network.dyn_peer[60]  lookupStabilitySig:vector  ETV
vector 870211  Network.dyn_peer[60]  lookupTimeSig:vector  ETV
vector 870227  Network.dyn_peer[66]  lookupHopsSig:vector  ETV
vector 870228  Network.dyn_peer[66]  lookupStabilitySig:vector  ETV
vector 870229  Network.dyn_peer[66]  lookupTimeSig:vector  ETV
vector 870140  Network.dyn_peer[37]  lookupHopsSig:vector  ETV
vector 870141  Network.dyn_peer[37]  lookupStabilitySig:vector  ETV
vector 870142  Network.dyn_peer[37]  lookupTimeSig:vector  ETV
vector 870200  Network.dyn_peer[57]  lookupHopsSig:vector  ETV
vector 870201  Network.dyn_peer[57]  lookupStabilitySig:vector  ETV
vector 870202  Network.dyn_peer[57]  lookupTimeSig:vector  ETV
vector 870206  Network.dyn_peer[59]  lookupHopsSig:vector  ETV
vector 870207  Network.dyn_peer[59]  lookupStabilitySig:vector  ETV
vector 870208  Network.dyn_peer[59]  lookupTimeSig:vector  ETV
vector 870149  Network.dyn_peer[40]  lookupHopsSig:vector  ETV
vector 870150  Network.dyn_peer[40]  lookupStabilitySig:vector  ETV
vector 870151  Network.dyn_peer[40]  lookupTimeSig:vector  ETV
vector 870299  Network.dyn_peer[90]  lookupHopsSig:vector  ETV
vector 870300  Network.dyn_peer[90]  lookupStabilitySig:vector  ETV
vector 870301  Network.dyn_peer[90]  lookupTimeSig:vector  ETV
vector 870215  Network.dyn_peer[62]  lookupHopsSig:vector  ETV
vector 870216  Network.dyn_peer[62]  lookupStabilitySig:vector  ETV
vector 870217  Network.dyn_peer[62]  lookupTimeSig:vector  ETV
vector 870191  Network.dyn_peer[54]  lookupHopsSig:vector  ETV
vector 870192  Network.dyn_peer[54]  lookupStabilitySig:vector  ETV
vector 870193  Network.dyn_peer[54]  lookupTimeSig:vector  ETV
vector 870344  Network.dyn_peer[105]  lookupHopsSig:vector  ETV
vector 870345  Network.dyn_peer[105]  lookupStabilitySig:vector  ETV
vector 870346  Network.dyn_peer[105]  lookupTimeSig:vector  ETV
vector 870287  Network.dyn_peer[86]  lookupHopsSig:vector  ETV
vector 870288  Network.dyn_peer[86]  lookupStabilitySig:vector  ETV
vector 870289  Network.dyn_peer[86]  lookupTimeSig:vector  ETV
vector 870290  Network.dyn_peer[87]  lookupHopsSig:vector  ETV
vector 870291  Network.dyn_peer[87]  lookupStabilitySig:vector  ETV
vector 870292  Network.dyn_peer[87]  lookupTimeSig:vector  ETV
vector 870203  Network.dyn_peer[58]  lookupHopsSig:vector  ETV
vector 870204  Network.dyn_peer[58]  lookupStabilitySig:vector  ETV
vector 870205  Network.dyn_peer[58]  lookupTimeSig:vector  ETV
vector 870146  Network.dyn_peer[39]  lookupHopsSig:vector  ETV
vector 870147  Network.dyn_peer[39]  lookupStabilitySig:vector  ETV
vector 870148  Network.dyn_peer[39]  lookupTimeSig:vector  ETV
vector 870269  Network.dyn_peer[80]  lookupHopsSig:vector  ETV
vector 870270  Network.dyn_peer[80]  lookupStabilitySig:vector  ETV
vector 870271  Network.dyn_peer[80]  lookupTimeSig:vector  ETV
vector 870152  Network.dyn_peer[41]  lookupHopsSig:vector  ETV
vector 870153  Network.dyn_peer[41]  lookupStabilitySig:vector  ETV
vector 870154  Network.dyn_peer[41]  lookupTimeSig:vector  ETV
vector 870278  Network.dyn_peer[83]  lookupHopsSig:vector  ETV
vector 870279  Network.dyn_peer[83]  lookupStabilitySig:vector  ETV
vector 870280  Network.dyn_peer[83]  lookupTimeSig:vector  ETV
vector 870308  Network.dyn_peer[93]  lookupHopsSig:vector  ETV
vector 870309  Network.dyn_peer[93]  lookupStabilitySig:vector  ETV
vector 870310  Network.dyn_peer[93]  lookupTimeSig:vector  ETV
vector 870314  Network.dyn_peer[95]  lookupHopsSig:vector  ETV
vector 870315  Network.dyn_peer[95]  lookupStabilitySig:vector  ETV
vector 870316  Network.dyn_peer[95]  lookupTimeSig:vector  ETV
vector 870257  Network.dyn_peer[76]  lookupHopsSig:vector  ETV
vector 870258  Network.dyn_peer[76]  lookupStabilitySig:vector  ETV
vector 870259  Network.dyn_peer[76]  lookupTimeSig:vector  ETV
vector 870320  Network.dyn_peer[97]  lookupHopsSig:vector  ETV
vector 870321  Network.dyn_peer[97]  lookupStabilitySig:vector  ETV
vector 870322  Network.dyn_peer[97]  lookupTimeSig:vector  ETV
vector 870173  Network.dyn_peer[48]  lookupHopsSig:vector  ETV
vector 870174  Network.dyn_peer[48]  lookupStabilitySig:vector  ETV
vector 870175  Network.dyn_peer[48]  lookupTimeSig:vector  ETV
vector 870263  Network.dyn_peer[78]  lookupHopsSig:vector  ETV
vector 870264  Network.dyn_peer[78]  lookupStabilitySig:vector  ETV
vector 870265  Network.dyn_peer[78]  lookupTimeSig:vector  ETV
vector 870236  Network.dyn_peer[69]  lookupHopsSig:vector  ETV
vector 870237  Network.dyn_peer[69]  lookupStabilitySig:vector  ETV
vector 870238  Network.dyn_peer[69]  lookupTimeSig:vector  ETV
vector 870326  Network.dyn_peer[99]  lookupHopsSig:vector  ETV
vector 870327  Network.dyn_peer[99]  lookupStabilitySig:vector  ETV
vector 870328  Network.dyn_peer[99]  lookupTimeSig:vector  ETV
vector 870398  Network.dyn_peer[123]  lookupHopsSig:vector  ETV
vector 870399  Network.dyn_peer[123]  lookupStabilitySig:vector  ETV
vector 870400  Network.dyn_peer[123]  lookupTimeSig:vector  ETV
vector 870371  Network.dyn_peer[114]  lookupHopsSig:vector  ETV
vector 870372  Network.dyn_peer[114]  lookupStabilitySig:vector  ETV
vector 870373  Network.dyn_peer[114]  lookupTimeSig:vector  ETV
vector 870137  Network.dyn_peer[36]  lookupHopsSig:vector  ETV
vector 870138  Network.dyn_peer[36]  lookupStabilitySig:vector  ETV
vector 870139  Network.dyn_peer[36]  lookupTimeSig:vector  ETV
vector 870230  Network.dyn_peer[67]  lookupHopsSig:vector  ETV
vector 870231  Network.dyn_peer[67]  lookupStabilitySig:vector  ETV
vector 870232  Network.dyn_peer[67]  lookupTimeSig:vector  ETV
vector 870329  Network.dyn_peer[100]  lookupHopsSig:vector  ETV
vector 870330  Network.dyn_peer[100]  lookupStabilitySig:vector  ETV
vector 870331  Network.dyn_peer[100]  lookupTimeSig:vector  ETV
vector 870362  Network.dyn_peer[111]  lookupHopsSig:vector  ETV
vector 870363  Network.dyn_peer[111]  lookupStabilitySig:vector  ETV
vector 870364  Network.dyn_peer[111]  lookupTimeSig:vector  ETV
vector 870425  Network.dyn_peer[132]  lookupHopsSig:vector  ETV
vector 870426  Network.dyn_peer[132]  lookupStabilitySig:vector  ETV
vector 870427  Network.dyn_peer[132]  lookupTimeSig:vector  ETV
vector 870128  Network.dyn_peer[33]  lookupHopsSig:vector  ETV
vector 870129  Network.dyn_peer[33]  lookupStabilitySig:vector  ETV
vector 870130  Network.dyn_peer[33]  lookupTimeSig:vector  ETV
vector 870164  Network.dyn_peer[45]  lookupHopsSig:vector  ETV
vector 870165  Network.dyn_peer[45]  lookupStabilitySig:vector  ETV
vector 870166  Network.dyn_peer[45]  lookupTimeSig:vector  ETV
vector 870194  Network.dyn_peer[55]  lookupHopsSig:vector  ETV
vector 870195  Network.dyn_peer[55]  lookupStabilitySig:vector  ETV
vector 870196  Network.dyn_peer[55]  lookupTimeSig:vector  ETV
vector 870404  Network.dyn_peer[125]  lookupHopsSig:vector  ETV
vector 870405  Network.dyn_peer[125]  lookupStabilitySig:vector  ETV
vector 870406  Network.dyn_peer[125]  lookupTimeSig:vector  ETV
vector 870110  Network.dyn_peer[27]  lookupHopsSig:vector  ETV
vector 870111  Network.dyn_peer[27]  lookupStabilitySig:vector  ETV
vector 870112  Network.dyn_peer[27]  lookupTimeSig:vector  ETV
vector 870143  Network.dyn_peer[38]  lookupHopsSig:vector  ETV
vector 870144  Network.dyn_peer[38]  lookupStabilitySig:vector  ETV
vector 870145  Network.dyn_peer[38]  lookupTimeSig:vector  ETV
vector 870413  Network.dyn_peer[128]  lookupHopsSig:vector  ETV
vector 870414  Network.dyn_peer[128]  lookupStabilitySig:vector  ETV
vector 870415  Network.dyn_peer[128]  lookupTimeSig:vector  ETV
vector 870176  Network.dyn_peer[49]  lookupHopsSig:vector  ETV
vector 870177  Network.dyn_peer[49]  lookupStabilitySig:vector  ETV
vector 870178  Network.dyn_peer[49]  lookupTimeSig:vector  ETV
vector 870332  Network.dyn_peer[101]  lookupHopsSig:vector  ETV
vector 870333  Network.dyn_peer[101]  lookupStabilitySig:vector  ETV
vector 870334  Network.dyn_peer[101]  lookupTimeSig:vector  ETV
vector 870224  Network.dyn_peer[65]  lookupHopsSig:vector  ETV
vector 870225  Network.dyn_peer[65]  lookupStabilitySig:vector  ETV
vector 870226  Network.dyn_peer[65]  lookupTimeSig:vector  ETV
vector 870254  Network.dyn_peer[75]  lookupHopsSig:vector  ETV
vector 870255  Network.dyn_peer[75]  lookupStabilitySig:vector  ETV
vector 870256  Network.dyn_peer[75]  lookupTimeSig:vector  ETV
vector 870266  Network.dyn_peer[79]  lookupHopsSig:vector  ETV
vector 870267  Network.dyn_peer[79]  lookupStabilitySig:vector  ETV
vector 870268  Network.dyn_peer[79]  lookupTimeSig:vector  ETV
vector 870386  Network.dyn_peer[119]  lookupHopsSig:vector  ETV
vector 870387  Network.dyn_peer[119]  lookupStabilitySig:vector  ETV
vector 870388  Network.dyn_peer[119]  lookupTimeSig:vector  ETV
vector 870239  Network.dyn_peer[70]  lookupHopsSig:vector  ETV
vector 870240  Network.dyn_peer[70]  lookupStabilitySig:vector  ETV
vector 870241  Network.dyn_peer[70]  lookupTimeSig:vector  ETV
vector 870302  Network.dyn_peer[91]  lookupHopsSig:vector  ETV
vector 870303  Network.dyn_peer[91]  lookupStabilitySig:vector  ETV
vector 870304  Network.dyn_peer[91]  lookupTimeSig:vector  ETV
vector 870275  Network.dyn_peer[82]  lookupHopsSig:vector  ETV
vector 870276  Network.dyn_peer[82]  lookupStabilitySig:vector  ETV
vector 870277  Network.dyn_peer[82]  lookupTimeSig:vector  ETV
vector 870365  Network.dyn_peer[112]  lookupHopsSig:vector  ETV
vector 870366  Network.dyn_peer[112]  lookupStabilitySig:vector  ETV
vector 870367  Network.dyn_peer[112]  lookupTimeSig:vector  ETV
vector 870188  Network.dyn_peer[53]  lookupHopsSig:vector  ETV
vector 870189  Network.dyn_peer[53]  lookupStabilitySig:vector  ETV
vector 870190  Network.dyn_peer[53]  lookupTimeSig:vector  ETV
vector 870311  Network.dyn_peer[94]  lookupHopsSig:vector  ETV
vector 870312  Network.dyn_peer[94]  lookupStabilitySig:vector  ETV
vector 870313  Network.dyn_peer[94]  lookupTimeSig:vector  ETV
vector 870341  Network.dyn_peer[104]  lookupHopsSig:vector  ETV
vector 870342  Network.dyn_peer[104]  lookupStabilitySig:vector  ETV
vector 870343  Network.dyn_peer[104]  lookupTimeSig:vector  ETV
vector 870350  Network.dyn_peer[107]  lookupHopsSig:vector  ETV
vector 870351  Network.dyn_peer[107]  lookupStabilitySig:vector  ETV
vector 870352  Network.dyn_peer[107]  lookupTimeSig:vector  ETV
vector 870353  Network.dyn_peer[108]  lookupHopsSig:vector  ETV
vector 870354  Network.dyn_peer[108]  lookupStabilitySig:vector  ETV
vector 870355  Network.dyn_peer[108]  lookupTimeSig:vector  ETV
vector 870182  Network.dyn_peer[51]  lookupHopsSig:vector  ETV
vector 870183  Network.dyn_peer[51]  lookupStabilitySig:vector  ETV
vector 870184  Network.dyn_peer[51]  lookupTimeSig:vector  ETV
vector 870212  Network.dyn_peer[61]  lookupHopsSig:vector  ETV
vector 870213  Network.dyn_peer[61]  lookupStabilitySig:vector  ETV
vector 870214  Network.dyn_peer[61]  lookupTimeSig:vector  ETV
vector 870305  Network.dyn_peer[92]  lookupHopsSig:vector  ETV
vector 870306  Network.dyn_peer[92]  lookupStabilitySig:vector  ETV
vector 870307  Network.dyn_peer[92]  lookupTimeSig:vector  ETV
vector 870530  Network.dyn_peer[167]  lookupHopsSig:vector  ETV
vector 870531  Network.dyn_peer[167]  lookupStabilitySig:vector  ETV
vector 870532  Network.dyn_peer[167]  lookupTimeSig:vector  ETV
vector 870296  Network.dyn_peer[89]  lookupHopsSig:vector  ETV
vector 870297  Network.dyn_peer[89]  lookupStabilitySig:vector  ETV
vector 870298  Network.dyn_peer[89]  lookupTimeSig:vector  ETV
vector 870359  Network.dyn_peer[110]  lookupHopsSig:vector  ETV
vector 870360  Network.dyn_peer[110]  lookupStabilitySig:vector  ETV
vector 870361  Network.dyn_peer[110]  lookupTimeSig:vector  ETV
vector 870389  Network.dyn_peer[120]  lookupHopsSig:vector  ETV
vector 870390  Network.dyn_peer[120]  lookupStabilitySig:vector  ETV
vector 870391  Network.dyn_peer[120]  lookupTimeSig:vector  ETV
vector 870509  Network.dyn_peer[160]  lookupHopsSig:vector  ETV
vector 870510  Network.dyn_peer[160]  lookupStabilitySig:vector  ETV
vector 870511  Network.dyn_peer[160]  lookupTimeSig:vector  ETV
vector 870422  Network.dyn_peer[131]  lookupHopsSig:vector  ETV
vector 870423  Network.dyn_peer[131]  lookupStabilitySig:vector  ETV
vector 870424  Network.dyn_peer[131]  lookupTimeSig:vector  ETV
vector 870185  Network.dyn_peer[52]  lookupHopsSig:vector  ETV
vector 870186  Network.dyn_peer[52]  lookupStabilitySig:vector  ETV
vector 870187  Network.dyn_peer[52]  lookupTimeSig:vector  ETV
vector 870368  Network.dyn_peer[113]  lookupHopsSig:vector  ETV
vector 870369  Network.dyn_peer[113]  lookupStabilitySig:vector  ETV
vector 870370  Network.dyn_peer[113]  lookupTimeSig:vector  ETV
vector 870461  Network.dyn_peer[144]  lookupHopsSig:vector  ETV
vector 870462  Network.dyn_peer[144]  lookupStabilitySig:vector  ETV
vector 870463  Network.dyn_peer[144]  lookupTimeSig:vector  ETV
vector 870521  Network.dyn_peer[164]  lookupHopsSig:vector  ETV
vector 870522  Network.dyn_peer[164]  lookupStabilitySig:vector  ETV
vector 870523  Network.dyn_peer[164]  lookupTimeSig:vector  ETV
vector 870197  Network.dyn_peer[56]  lookupHopsSig:vector  ETV
vector 870198  Network.dyn_peer[56]  lookupStabilitySig:vector  ETV
vector 870199  Network.dyn_peer[56]  lookupTimeSig:vector  ETV
vector 870383  Network.dyn_peer[118]  lookupHopsSig:vector  ETV
vector 870384  Network.dyn_peer[118]  lookupStabilitySig:vector  ETV
vector 870385  Network.dyn_peer[118]  lookupTimeSig:vector  ETV
vector 870335  Network.dyn_peer[102]  lookupHopsSig:vector  ETV
vector 870336  Network.dyn_peer[102]  lookupStabilitySig:vector  ETV
vector 870337  Network.dyn_peer[102]  lookupTimeSig:vector  ETV
vector 870293  Network.dyn_peer[88]  lookupHopsSig:vector  ETV
vector 870294  Network.dyn_peer[88]  lookupStabilitySig:vector  ETV
vector 870295  Network.dyn_peer[88]  lookupTimeSig:vector  ETV
vector 870416  Network.dyn_peer[129]  lookupHopsSig:vector  ETV
vector 870417  Network.dyn_peer[129]  lookupStabilitySig:vector  ETV
vector 870418  Network.dyn_peer[129]  lookupTimeSig:vector  ETV
vector 870449  Network.dyn_peer[140]  lookupHopsSig:vector  ETV
vector 870450  Network.dyn_peer[140]  lookupStabilitySig:vector  ETV
vector 870451  Network.dyn_peer[140]  lookupTimeSig:vector  ETV
vector 870518  Network.dyn_peer[163]  lookupHopsSig:vector  ETV
vector 870519  Network.dyn_peer[163]  lookupStabilitySig:vector  ETV
vector 870520  Network.dyn_peer[163]  lookupTimeSig:vector  ETV
vector 870527  Network.dyn_peer[166]  lookupHopsSig:vector  ETV
vector 870528  Network.dyn_peer[166]  lookupStabilitySig:vector  ETV
vector 870529  Network.dyn_peer[166]  lookupTimeSig:vector  ETV
vector 870557  Network.dyn_peer[176]  lookupHopsSig:vector  ETV
vector 870558  Network.dyn_peer[176]  lookupStabilitySig:vector  ETV
vector 870559  Network.dyn_peer[176]  lookupTimeSig:vector  ETV
vector 870242  Network.dyn_peer[71]  lookupHopsSig:vector  ETV
vector 870243  Network.dyn_peer[71]  lookupStabilitySig:vector  ETV
vector 870244  Network.dyn_peer[71]  lookupTimeSig:vector  ETV
vector 870452  Network.dyn_peer[141]  lookupHopsSig:vector  ETV
vector 870453  Network.dyn_peer[141]  lookupStabilitySig:vector  ETV
vector 870454  Network.dyn_peer[141]  lookupTimeSig:vector  ETV
vector 870395  Network.dyn_peer[122]  lookupHopsSig:vector  ETV
vector 870396  Network.dyn_peer[122]  lookupStabilitySig:vector  ETV
vector 870397  Network.dyn_peer[122]  lookupTimeSig:vector  ETV
vector 870428  Network.dyn_peer[133]  lookupHopsSig:vector  ETV
vector 870429  Network.dyn_peer[133]  lookupStabilitySig:vector  ETV
vector 870430  Network.dyn_peer[133]  lookupTimeSig:vector  ETV
vector 870284  Network.dyn_peer[85]  lookupHopsSig:vector  ETV
vector 870285  Network.dyn_peer[85]  lookupStabilitySig:vector  ETV
vector 870286  Network.dyn_peer[85]  lookupTimeSig:vector  ETV
vector 870317  Network.dyn_peer[96]  lookupHopsSig:vector  ETV
vector 870318  Network.dyn_peer[96]  lookupStabilitySig:vector  ETV
vector 870319  Network.dyn_peer[96]  lookupTimeSig:vector  ETV
vector 870467  Network.dyn_peer[146]  lookupHopsSig:vector  ETV
vector 870468  Network.dyn_peer[146]  lookupStabilitySig:vector  ETV
vector 870469  Network.dyn_peer[146]  lookupTimeSig:vector  ETV
vector 870623  Network.dyn_peer[198]  lookupHopsSig:vector  ETV
vector 870624  Network.dyn_peer[198]  lookupStabilitySig:vector  ETV
vector 870625  Network.dyn_peer[198]  lookupTimeSig:vector  ETV
vector 870356  Network.dyn_peer[109]  lookupHopsSig:vector  ETV
vector 870357  Network.dyn_peer[109]  lookupStabilitySig:vector  ETV
vector 870358  Network.dyn_peer[109]  lookupTimeSig:vector  ETV
vector 870419  Network.dyn_peer[130]  lookupHopsSig:vector  ETV
vector 870420  Network.dyn_peer[130]  lookupStabilitySig:vector  ETV
vector 870421  Network.dyn_peer[130]  lookupTimeSig:vector  ETV
vector 870629  Network.dyn_peer[200]  lookupHopsSig:vector  ETV
vector 870630  Network.dyn_peer[200]  lookupStabilitySig:vector  ETV
vector 870631  Network.dyn_peer[200]  lookupTimeSig:vector  ETV
vector 870632  Network.dyn_peer[201]  lookupHopsSig:vector  ETV
vector 870633  Network.dyn_peer[201]  lookupStabilitySig:vector  ETV
vector 870634  Network.dyn_peer[201]  lookupTimeSig:vector  ETV
vector 870548  Network.dyn_peer[173]  lookupHopsSig:vector  ETV
vector 870549  Network.dyn_peer[173]  lookupStabilitySig:vector  ETV
vector 870550  Network.dyn_peer[173]  lookupTimeSig:vector  ETV
vector 870563  Network.dyn_peer[178]  lookupHopsSig:vector  ETV
vector 870564  Network.dyn_peer[178]  lookupStabilitySig:vector  ETV
vector 870565  Network.dyn_peer[178]  lookupTimeSig:vector  ETV
vector 870392  Network.dyn_peer[121]  lookupHopsSig:vector  ETV
vector 870393  Network.dyn_peer[121]  lookupStabilitySig:vector  ETV
vector 870394  Network.dyn_peer[121]  lookupTimeSig:vector  ETV
vector 870434  Network.dyn_peer[135]  lookupHopsSig:vector  ETV
vector 870435  Network.dyn_peer[135]  lookupStabilitySig:vector  ETV
vector 870436  Network.dyn_peer[135]  lookupTimeSig:vector  ETV
vector 870464  Network.dyn_peer[145]  lookupHopsSig:vector  ETV
vector 870465  Network.dyn_peer[145]  lookupStabilitySig:vector  ETV
vector 870466  Network.dyn_peer[145]  lookupTimeSig:vector  ETV
vector 870407  Network.dyn_peer[126]  lookupHopsSig:vector  ETV
vector 870408  Network.dyn_peer[126]  lookupStabilitySig:vector  ETV
vector 870409  Network.dyn_peer[126]  lookupTimeSig:vector  ETV
vector 870500  Network.dyn_peer[157]  lookupHopsSig:vector  ETV
vector 870501  Network.dyn_peer[157]  lookupStabilitySig:vector  ETV
vector 870502  Network.dyn_peer[157]  lookupTimeSig:vector  ETV
vector 870485  Network.dyn_peer[152]  lookupHopsSig:vector  ETV
vector 870486  Network.dyn_peer[152]  lookupStabilitySig:vector  ETV
vector 870487  Network.dyn_peer[152]  lookupTimeSig:vector  ETV
vector 870608  Network.dyn_peer[193]  lookupHopsSig:vector  ETV
vector 870609  Network.dyn_peer[193]  lookupStabilitySig:vector  ETV
vector 870610  Network.dyn_peer[193]  lookupTimeSig:vector  ETV
vector 870431  Network.dyn_peer[134]  lookupHopsSig:vector  ETV
vector 870432  Network.dyn_peer[134]  lookupStabilitySig:vector  ETV
vector 870433  Network.dyn_peer[134]  lookupTimeSig:vector  ETV
vector 870374  Network.dyn_peer[115]  lookupHopsSig:vector  ETV
vector 870375  Network.dyn_peer[115]  lookupStabilitySig:vector  ETV
vector 870376  Network.dyn_peer[115]  lookupTimeSig:vector  ETV
vector 870587  Network.dyn_peer[186]  lookupHopsSig:vector  ETV
vector 870588  Network.dyn_peer[186]  lookupStabilitySig:vector  ETV
vector 870589  Network.dyn_peer[186]  lookupTimeSig:vector  ETV
vector 870677  Network.dyn_peer[216]  lookupHopsSig:vector  ETV
vector 870678  Network.dyn_peer[216]  lookupStabilitySig:vector  ETV
vector 870679  Network.dyn_peer[216]  lookupTimeSig:vector  ETV
vector 870380  Network.dyn_peer[117]  lookupHopsSig:vector  ETV
vector 870381  Network.dyn_peer[117]  lookupStabilitySig:vector  ETV
vector 870382  Network.dyn_peer[117]  lookupTimeSig:vector  ETV
vector 870560  Network.dyn_peer[177]  lookupHopsSig:vector  ETV
vector 870561  Network.dyn_peer[177]  lookupStabilitySig:vector  ETV
vector 870562  Network.dyn_peer[177]  lookupTimeSig:vector  ETV
vector 870590  Network.dyn_peer[187]  lookupHopsSig:vector  ETV
vector 870591  Network.dyn_peer[187]  lookupStabilitySig:vector  ETV
vector 870592  Network.dyn_peer[187]  lookupTimeSig:vector  ETV
vector 870686  Network.dyn_peer[219]  lookupHopsSig:vector  ETV
vector 870687  Network.dyn_peer[219]  lookupStabilitySig:vector  ETV
vector 870688  Network.dyn_peer[219]  lookupTimeSig:vector  ETV
vector 870512  Network.dyn_peer[161]  lookupHopsSig:vector  ETV
vector 870513  Network.dyn_peer[161]  lookupStabilitySig:vector  ETV
vector 870514  Network.dyn_peer[161]  lookupTimeSig:vector  ETV
vector 870515  Network.dyn_peer[162]  lookupHopsSig:vector  ETV