file 144927 1369933125                                          
version 2
run Stability2-11-20130528-01:22:36-24168
attr configname Stability2
attr datetime 20130528-01:22:36
attr experiment Stability2
attr inifile omnetpp.ini
attr iterationvars $0=20
attr iterationvars2 "$0=20, $repetition=1"
attr measurement $0=20
attr network Network
attr processid 24168
attr repetition 1
attr replication #1
attr resultdir results
attr runnumber 11
attr seedset 11
vector 360011  Network.churner  inGoingSizeSig:vector  ETV
360011	140761 4166 11 3200 20 22 201 0 178 18975 2354851
vector 330017  Network.dyn_peer[2]  lookupHopsSig:vector  ETV
330017	40462 166 24 9610 20.03 25.185374764708 6 0 13 29 267
vector 330018  Network.dyn_peer[2]  lookupStabilitySig:vector  ETV
330018	40628 239 24 9610 20.03 25.185374764708 6 0.35714286565781 1 4.4005771949887 3.5488314897108
vector 330019  Network.dyn_peer[2]  lookupTimeSig:vector  ETV
330019	40867 173 24 9610 20.03 25.185374764708 6 0 1.4 3.4 3.3
vector 330032  Network.dyn_peer[7]  lookupHopsSig:vector  ETV
330032	43306 159 48 9085 20.08 24.812536709039 6 0 15 42 512
vector 330033  Network.dyn_peer[7]  lookupStabilitySig:vector  ETV
330033	43465 221 48 9085 20.08 24.812536709039 6 0.22222220897675 1 4.2564009409398 3.4457199615115
vector 330034  Network.dyn_peer[7]  lookupTimeSig:vector  ETV
330034	43686 167 48 9085 20.08 24.812536709039 6 0 1.6 4.7 6.01
vector 330038  Network.dyn_peer[9]  lookupHopsSig:vector  ETV
330038	44094 214 58 9424 20.1 25.052632866355 8 0 12 40 320
vector 330039  Network.dyn_peer[9]  lookupStabilitySig:vector  ETV
330039	44308 318 58 9424 20.1 25.052632866355 8 0.19999998807907 1 6.0286347046495 5.1833017386261
vector 330040  Network.dyn_peer[9]  lookupTimeSig:vector  ETV
330040	44626 225 58 9424 20.1 25.052632866355 8 0 1.3 4.7 4.07
vector 330011  Network.dyn_peer[0]  lookupHopsSig:vector  ETV
330011	39521 136 64 6738 20.11 23.537397351725 5 1 21 28 456
vector 330012  Network.dyn_peer[0]  lookupStabilitySig:vector  ETV
330012	39657 210 64 6738 20.11 23.537397351725 5 0.39999997615814 0.96774193644524 3.5477419197559 2.7129244421557
vector 330013  Network.dyn_peer[0]  lookupTimeSig:vector  ETV
330013	39867 145 64 6738 20.11 23.537397351725 5 0.1 2.2 3.2 5.14
vector 330014  Network.dyn_peer[1]  lookupHopsSig:vector  ETV
330014	40012 128 74 9410 20.12 25.04317483061 5 1 17 46 620
vector 330015  Network.dyn_peer[1]  lookupStabilitySig:vector  ETV
330015	40140 186 74 9410 20.12 25.04317483061 5 0 0.90740741044283 3.1395502462983 2.5287070566524
vector 330016  Network.dyn_peer[1]  lookupTimeSig:vector  ETV
330016	40326 136 74 9410 20.12 25.04317483061 5 0.1 1.8 5 7.14
vector 330053  Network.dyn_peer[14]  lookupHopsSig:vector  ETV
330053	47019 228 91 10201 20.15 25.672376448813 8 0 15 45 397
vector 330054  Network.dyn_peer[14]  lookupStabilitySig:vector  ETV
330054	47247 331 91 10201 20.15 25.672376448813 8 0.19999998807907 1 6.0899275168777 5.2094541726783
vector 330055  Network.dyn_peer[14]  lookupTimeSig:vector  ETV
330055	47578 241 91 10201 20.15 25.672376448813 8 0 1.6 5.2 4.94
vector 330062  Network.dyn_peer[17]  lookupHopsSig:vector  ETV
330062	48418 131 110 10629 20.18 26.093164907632 5 0 29 46 966
vector 330063  Network.dyn_peer[17]  lookupStabilitySig:vector  ETV
330063	48549 188 110 10629 20.18 26.093164907632 5 0.39999997615814 1 3.501149661839 2.7605653082454
vector 330064  Network.dyn_peer[17]  lookupTimeSig:vector  ETV
330064	48737 135 110 10629 20.18 26.093164907632 5 0 3 5 10.62
vector 330035  Network.dyn_peer[8]  lookupHopsSig:vector  ETV
330035	43853 69 116 7688 20.19 23.996455547513 3 1 17 24 326
vector 330036  Network.dyn_peer[8]  lookupStabilitySig:vector  ETV
330036	43922 98 116 7688 20.19 23.996455547513 3 0 0.79999999701977 1.5671232789755 1.2284781249501
vector 330037  Network.dyn_peer[8]  lookupTimeSig:vector  ETV
330037	44020 74 116 7688 20.19 23.996455547513 3 0.1 1.8 2.6 3.74
vector 330047  Network.dyn_peer[12]  lookupHopsSig:vector  ETV
330047	45994 99 138 9622 20.23 25.192805829874 4 1 15 31 343
vector 330048  Network.dyn_peer[12]  lookupStabilitySig:vector  ETV
330048	46093 158 138 9622 20.23 25.192805829874 4 0.14285713434219 0.92307692021132 2.4492673948407 1.8527569460585
vector 330049  Network.dyn_peer[12]  lookupTimeSig:vector  ETV
330049	46251 104 138 9622 20.23 25.192805829874 4 0.1 1.6 3.4 4.06
vector 330020  Network.dyn_peer[3]  lookupHopsSig:vector  ETV
330020	41040 101 147 8313 20.24 24.343045739686 4 2 19 40 558
vector 330021  Network.dyn_peer[3]  lookupStabilitySig:vector  ETV
330021	41141 135 147 8313 20.24 24.343045739686 4 0 0.78888888657093 2.1701388806105 1.5926972307026
vector 330022  Network.dyn_peer[3]  lookupTimeSig:vector  ETV
330022	41276 105 147 8313 20.24 24.343045739686 4 0.2 2 4.3 6.37
vector 330071  Network.dyn_peer[20]  lookupHopsSig:vector  ETV
330071	50559 160 187 7731 20.31 24.024137775282 6 1 12 33 279
vector 330072  Network.dyn_peer[20]  lookupStabilitySig:vector  ETV
330072	50719 249 187 7731 20.31 24.024137775282 6 0.10000002384186 0.96551724150777 4.3725858740509 3.6859117701946
vector 330073  Network.dyn_peer[20]  lookupTimeSig:vector  ETV
330073	50968 169 187 7731 20.31 24.024137775282 6 0.1 1.3 3.8 3.48
vector 330044  Network.dyn_peer[11]  lookupHopsSig:vector  ETV
330044	45220 217 198 8501 20.32 24.452126233836 8 1 17 33 333
vector 330045  Network.dyn_peer[11]  lookupStabilitySig:vector  ETV
330045	45437 325 198 8501 20.32 24.452126233836 8 0.59999999403954 0.93103448301554 6.3297621607781 5.1085402366208
vector 330046  Network.dyn_peer[11]  lookupTimeSig:vector  ETV
330046	45762 232 198 8501 20.32 24.452126233836 8 0.2 1.8 4 4.02
vector 330050  Network.dyn_peer[13]  lookupHopsSig:vector  ETV
330050	46355 186 213 5704 20.34 23.066048069831 7 1 10 23 139
vector 330051  Network.dyn_peer[13]  lookupStabilitySig:vector  ETV
330051	46541 279 213 5704 20.34 23.066048069831 7 0.16666668653488 0.9772727265954 5.420581933111 4.7375493446466
vector 330052  Network.dyn_peer[13]  lookupTimeSig:vector  ETV
330052	46820 199 213 5704 20.34 23.066048069831 7 0.2 1.1 2.9 1.87
vector 330023  Network.dyn_peer[4]  lookupHopsSig:vector  ETV
330023	41381 190 222 9970 20.35 25.475398163831 7 2 13 48 472
vector 330024  Network.dyn_peer[4]  lookupStabilitySig:vector  ETV
330024	41571 292 222 9970 20.35 25.475398163831 7 0.33333331346512 0.93181817978621 4.8638096749783 3.7361776270491
vector 330025  Network.dyn_peer[4]  lookupTimeSig:vector  ETV
330025	41863 201 222 9970 20.35 25.475398163831 7 0.3 1.4 5.4 5.68
vector 330026  Network.dyn_peer[5]  lookupHopsSig:vector  ETV
330026	42064 187 233 9991 20.36 25.491122789902 7 3 22 48 608
vector 330027  Network.dyn_peer[5]  lookupStabilitySig:vector  ETV
330027	42251 265 233 9991 20.36 25.491122789902 7 0.39999997615814 0.97297297231853 4.8926637563854 3.7451901081691
vector 330028  Network.dyn_peer[5]  lookupTimeSig:vector  ETV
330028	42516 200 233 9991 20.36 25.491122789902 7 0.3 2.3 5.4 7.04
vector 330092  Network.dyn_peer[27]  lookupHopsSig:vector  ETV
330092	53541 162 254 10064 20.38 25.566096001622 6 1 18 47 547
vector 330093  Network.dyn_peer[27]  lookupStabilitySig:vector  ETV
330093	53703 230 254 10064 20.38 25.566096001622 6 0.16666668653488 0.890625 4.3976348489523 3.6148445597727
vector 330094  Network.dyn_peer[27]  lookupTimeSig:vector  ETV
330094	53933 172 254 10064 20.38 25.566096001622 6 0.1 1.9 5.2 6.44
vector 330065  Network.dyn_peer[18]  lookupHopsSig:vector  ETV
330065	48872 317 266 12222 20.39 29.122262796762 11 2 16 78 798
vector 330066  Network.dyn_peer[18]  lookupStabilitySig:vector  ETV
330066	49189 465 266 12222 20.39 29.122262796762 11 0.5 0.97515527904034 8.9000431988388 7.5017939045563
vector 330067  Network.dyn_peer[18]  lookupTimeSig:vector  ETV
330067	49654 335 266 12222 20.39 29.122262796762 11 0.2 1.7 8.8 9.6
vector 330098  Network.dyn_peer[29]  lookupHopsSig:vector  ETV
330098	54566 96 277 3463 20.4 22.113912660674 4 1 9 15 99
vector 330099  Network.dyn_peer[29]  lookupStabilitySig:vector  ETV
330099	54662 156 277 3463 20.4 22.113912660674 4 0.42857140302658 0.96428571268916 2.8467032574117 2.1810351593282
vector 330100  Network.dyn_peer[29]  lookupTimeSig:vector  ETV
330100	54818 102 277 3463 20.4 22.113912660674 4 0.1 1 1.8 1.3
vector 330104  Network.dyn_peer[31]  lookupHopsSig:vector  ETV
330104	55395 163 296 10361 20.42 25.817771517437 6 1 15 48 598
vector 330105  Network.dyn_peer[31]  lookupStabilitySig:vector  ETV
330105	55558 251 296 10361 20.42 25.817771517437 6 0.083333313465118 0.94999999925494 4.4235667176545 3.7882492470752
vector 330106  Network.dyn_peer[31]  lookupTimeSig:vector  ETV
330106	55809 172 296 10361 20.42 25.817771517437 6 0.1 1.6 5.3 6.97
vector 330080  Network.dyn_peer[23]  lookupHopsSig:vector  ETV
330080	52082 130 313 7986 20.44 24.157611582606 5 2 14 35 333
vector 330081  Network.dyn_peer[23]  lookupStabilitySig:vector  ETV
330081	52212 204 313 7986 20.44 24.157611582606 5 0.33333331346512 0.89024390280247 3.1985772103071 2.2098258535735
vector 330082  Network.dyn_peer[23]  lookupTimeSig:vector  ETV
330082	52416 137 313 7986 20.44 24.157611582606 5 0.2 1.5 3.9 4.03
vector 330110  Network.dyn_peer[33]  lookupHopsSig:vector  ETV
330110	56788 130 317 5235 20.44 22.853604689796 5 1 10 21 143
vector 330111  Network.dyn_peer[33]  lookupStabilitySig:vector  ETV
330111	56918 204 317 5235 20.44 22.853604689796 5 0.28571426868439 0.97560975700617 3.613932326436 2.9080891078493
vector 330112  Network.dyn_peer[33]  lookupTimeSig:vector  ETV
330112	57122 139 317 5235 20.44 22.853604689796 5 0.1 1.1 2.5 1.87
vector 330140  Network.dyn_peer[43]  lookupHopsSig:vector  ETV
330140	60939 99 323 2557 20.44 21.748850283112 4 0 6 10 46
vector 330141  Network.dyn_peer[43]  lookupStabilitySig:vector  ETV
330141	61038 131 323 2557 20.44 21.748850283112 4 0.33333331346512 1 3.0245097838342 2.5594242462421
vector 330142  Network.dyn_peer[43]  lookupTimeSig:vector  ETV
330142	61169 105 323 2557 20.44 21.748850283112 4 0 0.7 1.3 0.69
vector 330029  Network.dyn_peer[6]  lookupHopsSig:vector  ETV
330029	42716 165 348 11634 20.47 27.570295055179 6 4 17 63 837
vector 330030  Network.dyn_peer[6]  lookupStabilitySig:vector  ETV
330030	42881 251 348 11634 20.47 27.570295055179 6 0.19999998807907 0.97241379320621 4.3002212941646 3.5777861352039
vector 330031  Network.dyn_peer[6]  lookupTimeSig:vector  ETV
330031	43132 174 348 11634 20.47 27.570295055179 6 0.4 1.8 6.8 9.6
vector 330068  Network.dyn_peer[19]  lookupHopsSig:vector  ETV
330068	49989 157 375 8577 20.5 24.493123881574 6 2 11 28 184
vector 330069  Network.dyn_peer[19]  lookupStabilitySig:vector  ETV
330069	50146 245 375 8577 20.5 24.493123881574 6 0.39999997615814 0.97872340492904 4.291980786249 3.2937453687215
vector 330070  Network.dyn_peer[19]  lookupTimeSig:vector  ETV
330070	50391 168 375 8577 20.5 24.493123881574 6 0.3 1.2 3.3 2.39
vector 330041  Network.dyn_peer[10]  lookupHopsSig:vector  ETV
330041	44851 108 387 4272 20.51 22.440609023513 4 3 7 20 110
vector 330042  Network.dyn_peer[10]  lookupStabilitySig:vector  ETV
330042	44959 145 387 4272 20.51 22.440609023513 4 0.19999998807907 0.78125 2.0526785552502 1.2268821651108
vector 330043  Network.dyn_peer[10]  lookupTimeSig:vector  ETV
330043	45104 116 387 4272 20.51 22.440609023513 4 0.4 0.8 2.3 1.45
vector 330113  Network.dyn_peer[34]  lookupHopsSig:vector  ETV
330113	57261 131 428 9435 20.55 25.063657497942 5 2 16 43 537
vector 330114  Network.dyn_peer[34]  lookupStabilitySig:vector  ETV
330114	57392 204 428 9435 20.55 25.063657497942 5 0.39999997615814 0.93220338970423 3.4358236268163 2.5460958794746
vector 330115  Network.dyn_peer[34]  lookupTimeSig:vector  ETV
330115	57596 139 428 9435 20.55 25.063657497942 5 0.2 1.7 4.7 6.23
vector 330086  Network.dyn_peer[25]  lookupHopsSig:vector  ETV
330086	53134 39 441 1710 20.56 21.36 2 3 7 10 58
vector 330087  Network.dyn_peer[25]  lookupStabilitySig:vector  ETV
330087	53173 69 441 1710 20.56 21.36 2 0.30000001192093 0.39999997615814 0.69999998807907 0.24999998807907
vector 330088  Network.dyn_peer[25]  lookupTimeSig:vector  ETV
330088	53242 43 441 1710 20.56 21.36 2 0.3 0.8 1.1 0.73
vector 330095  Network.dyn_peer[28]  lookupHopsSig:vector  ETV
330095	54105 131 475 8083 20.59 24.208924189199 5 3 12 35 305
vector 330096  Network.dyn_peer[28]  lookupStabilitySig:vector  ETV
330096	54236 191 475 8083 20.59 24.208924189199 5 0.39999997615814 0.93548387289047 3.5376228764653 2.7460437072586
vector 330097  Network.dyn_peer[28]  lookupTimeSig:vector  ETV
330097	54427 139 475 8083 20.59 24.208924189199 5 0.3 1.3 3.9 3.73
vector 330101  Network.dyn_peer[30]  lookupHopsSig:vector  ETV
330101	54920 132 498 10622 20.61 26.089215754919 5 3 20 49 695
vector 330102  Network.dyn_peer[30]  lookupStabilitySig:vector  ETV
330102	55052 205 498 10622 20.61 26.089215754919 5 0.39999997615814 0.95890410989523 3.5605421289802 2.7908080129273
vector 330103  Network.dyn_peer[30]  lookupTimeSig:vector  ETV
330103	55257 138 498 10622 20.61 26.089215754919 5 0.3 2.1 5.3 7.91
vector 330131  Network.dyn_peer[40]  lookupHopsSig:vector  ETV
330131	59961 101 502 9010 20.61 24.767370416421 4 1 23 36 634
vector 330132  Network.dyn_peer[40]  lookupStabilitySig:vector  ETV
330132	60062 158 502 9010 20.61 24.767370416421 4 0.33333331346512 0.99074074067175 2.6917508188635 2.0420059301925
vector 330133  Network.dyn_peer[40]  lookupTimeSig:vector  ETV
330133	60220 107 502 9010 20.61 24.767370416421 4 0.2 2.4 3.9 7.05
vector 330170  Network.dyn_peer[53]  lookupHopsSig:vector  ETV
330170	66910 128 534 5894 20.64 23.147229207087 5 1 8 22 124
vector 330171  Network.dyn_peer[53]  lookupStabilitySig:vector  ETV
330171	67038 203 534 5894 20.64 23.147229207087 5 0.44444441795349 0.89999999850988 3.7361364141106 2.916576561056
vector 330172  Network.dyn_peer[53]  lookupTimeSig:vector  ETV
330172	67241 138 534 5894 20.64 23.147229207087 5 0.1 0.9 2.6 1.7
vector 330200  Network.dyn_peer[63]  lookupHopsSig:vector  ETV
330200	71494 140 540 9125 20.64 24.83759912841 5 0 14 36 378
vector 330201  Network.dyn_peer[63]  lookupStabilitySig:vector  ETV
330201	71634 198 540 9125 20.64 24.83759912841 5 0.47619044780731 1 4.1075050383806 3.5348373761629
vector 330202  Network.dyn_peer[63]  lookupTimeSig:vector  ETV
330202	71832 146 540 9125 20.64 24.83759912841 5 0 1.5 4 4.54
vector 330083  Network.dyn_peer[24]  lookupHopsSig:vector  ETV
330083	52553 161 552 10144 20.65 25.615591642289 6 4 11 40 324
vector 330084  Network.dyn_peer[24]  lookupStabilitySig:vector  ETV
330084	52714 249 552 10144 20.65 25.615591642289 6 0.19999998807907 0.96268656849861 4.3936130218208 3.7315720251718
vector 330085  Network.dyn_peer[24]  lookupTimeSig:vector  ETV
330085	52963 171 552 10144 20.65 25.615591642289 6 0.4 1.2 4.5 4.01
vector 330119  Network.dyn_peer[36]  lookupHopsSig:vector  ETV
330119	57874 70 579 7845 20.67 24.078836373384 3 2 30 35 913
vector 330120  Network.dyn_peer[36]  lookupStabilitySig:vector  ETV
330120	57944 114 579 7845 20.67 24.078836373384 3 0.39999997615814 0.97368421033025 1.9191387183964 1.405581568752
vector 330121  Network.dyn_peer[36]  lookupTimeSig:vector  ETV
330121	58058 75 579 7845 20.67 24.078836373384 3 0.3 3.1 3.7 9.79
vector 330122  Network.dyn_peer[37]  lookupHopsSig:vector  ETV
330122	58133 189 590 8392 20.68 24.388490786542 7 3 7 33 173
vector 330123  Network.dyn_peer[37]  lookupStabilitySig:vector  ETV
330123	58322 282 590 8392 20.68 24.388490786542 7 0.39999997615814 0.95652173832059 5.3208226673305 4.3973692149633
vector 330124  Network.dyn_peer[37]  lookupTimeSig:vector  ETV
330124	58604 203 590 8392 20.68 24.388490786542 7 0.3 0.8 3.9 2.39
vector 330125  Network.dyn_peer[38]  lookupHopsSig:vector  ETV
330125	58807 130 607 7510 20.69 23.905460948313 5 3 13 31 261
vector 330126  Network.dyn_peer[38]  lookupStabilitySig:vector  ETV
330126	58937 204 607 7510 20.69 23.905460948313 5 0.39999997615814 0.88461538404226 3.3727106079459 2.5139105711315
vector 330127  Network.dyn_peer[38]  lookupTimeSig:vector  ETV
330127	59141 139 607 7510 20.69 23.905460948313 5 0.3 1.4 3.5 3.21
vector 330221  Network.dyn_peer[70]  lookupHopsSig:vector  ETV
330221	74506 223 633 11908 20.71 28.139551869144 8 0 23 67 903
vector 330222  Network.dyn_peer[70]  lookupStabilitySig:vector  ETV
330222	74729 311 633 11908 20.71 28.139551869144 8 0.5 1 6.8625360876322 6.1169222325858
vector 330223  Network.dyn_peer[70]  lookupTimeSig:vector  ETV
330223	75040 234 633 11908 20.71 28.139551869144 8 0 2.4 7.4 10.44
vector 330137  Network.dyn_peer[42]  lookupHopsSig:vector  ETV
330137	60800 40 660 6088 20.73 23.23 2 3 24 27 585
vector 330138  Network.dyn_peer[42]  lookupStabilitySig:vector  ETV
330138	60840 56 660 6088 20.73 23.23 2 0.5 0.51020407676697 1.010204076767 0.51030819994964
vector 330139  Network.dyn_peer[42]  lookupTimeSig:vector  ETV
330139	60896 43 660 6088 20.73 23.23 2 0.3 2.5 2.8 6.34
vector 330056  Network.dyn_peer[15]  lookupHopsSig:vector  ETV
330056	47819 101 695 8687 20.76 24.569349815788 4 2 21 41 625
vector 330057  Network.dyn_peer[15]  lookupStabilitySig:vector  ETV
330057	47920 133 695 8687 20.76 24.569349815788 4 0 0.78787878155708 2.1271644830704 1.5215820378142
vector 330058  Network.dyn_peer[15]  lookupTimeSig:vector  ETV
330058	48053 107 695 8687 20.76 24.569349815788 4 0.3 2.2 4.4 6.98
vector 330089  Network.dyn_peer[26]  lookupHopsSig:vector  ETV
330089	53285 69 713 4591 20.77 22.57197000069 3 3 13 21 203
vector 330090  Network.dyn_peer[26]  lookupStabilitySig:vector  ETV
330090	53354 113 713 4591 20.77 22.57197000069 3 0.16666668653488 0.66666665673256 1.4819819927216 0.89296728603814
vector 330091  Network.dyn_peer[26]  lookupTimeSig:vector  ETV
330091	53467 74 713 4591 20.77 22.57197000069 3 0.4 1.4 2.3 2.37
vector 330149  Network.dyn_peer[46]  lookupHopsSig:vector  ETV
330149	62343 99 717 7848 20.77 24.07969505349 4 1 22 33 543
vector 330150  Network.dyn_peer[46]  lookupStabilitySig:vector  ETV
330150	62442 145 717 7848 20.77 24.07969505349 4 0.5 0.85714285075665 2.703007504344 1.8937899026925
vector 330151  Network.dyn_peer[46]  lookupTimeSig:vector  ETV
330151	62587 106 717 7848 20.77 24.07969505349 4 0.2 2.3 3.6 6.06
vector 330152  Network.dyn_peer[47]  lookupHopsSig:vector  ETV
330152	62693 220 729 10132 20.78 25.605416862466 8 2 10 44 302
vector 330153  Network.dyn_peer[47]  lookupStabilitySig:vector  ETV
330153	62913 307 729 10132 20.78 25.605416862466 8 0.5 0.96875 6.4164609238505 5.3965795684316
vector 330154  Network.dyn_peer[47]  lookupTimeSig:vector  ETV
330154	63220 233 729 10132 20.78 25.605416862466 8 0.3 1.1 5.1 3.91
vector 330074  Network.dyn_peer[21]  lookupHopsSig:vector  ETV
330074	51137 79 780 4498 20.82 22.535385285188 3 2 13 21 209
vector 330075  Network.dyn_peer[21]  lookupStabilitySig:vector  ETV
330075	51216 108 780 4498 20.82 22.535385285188 3 0 0.77777777612209 1.4063491970301 1.0000403002117
vector 330076  Network.dyn_peer[21]  lookupTimeSig:vector  ETV
330076	51324 84 780 4498 20.82 22.535385285188 3 0.3 1.4 2.3 2.41
vector 330077  Network.dyn_peer[22]  lookupHopsSig:vector  ETV
330077	51408 192 797 10411 20.83 25.881859734906 7 1 16 47 505
vector 330078  Network.dyn_peer[22]  lookupStabilitySig:vector  ETV
330078	51600 280 797 10411 20.83 25.881859734906 7 0 0.93877550959587 5.201377376914 4.5397922284416
vector 330079  Network.dyn_peer[22]  lookupTimeSig:vector  ETV
330079	51880 202 797 10411 20.83 25.881859734906 7 0.2 1.7 5.3 5.93
vector 330107  Network.dyn_peer[32]  lookupHopsSig:vector  ETV
330107	55981 227 801 12104 20.83 28.677197345131 8 2 18 72 892
vector 330108  Network.dyn_peer[32]  lookupStabilitySig:vector  ETV
330108	56208 341 801 12104 20.83 28.677197345131 8 0.16666668653488 0.98717948701233 6.2372224563733 5.4119894470648
vector 330109  Network.dyn_peer[32]  lookupTimeSig:vector  ETV
330109	56549 239 801 12104 20.83 28.677197345131 8 0.3 1.9 7.9 10.33
vector 330197  Network.dyn_peer[62]  lookupHopsSig:vector  ETV
330197	71127 101 805 9276 20.83 24.947519867301 4 2 22 40 634
vector 330198  Network.dyn_peer[62]  lookupStabilitySig:vector  ETV
330198	71228 159 805 9276 20.83 24.947519867301 4 0.58333334326744 0.80180180072784 2.7697505056858 1.9430586911678
vector 330199  Network.dyn_peer[62]  lookupTimeSig:vector  ETV
330199	71387 107 805 9276 20.83 24.947519867301 4 0.2 2.3 4.3 7.13
vector 330206  Network.dyn_peer[65]  lookupHopsSig:vector  ETV
330206	72332 129 845 7328 20.86 23.818618732701 5 1 9 20 120
vector 330207  Network.dyn_peer[65]  lookupStabilitySig:vector  ETV
330207	72461 203 845 7328 20.86 23.818618732701 5 0.58333334326744 0.9558823518455 3.9673766084015 3.2524447251954
vector 330208  Network.dyn_peer[65]  lookupTimeSig:vector  ETV
330208	72664 137 845 7328 20.86 23.818618732701 5 0.2 1 2.4 1.6
vector 330059  Network.dyn_peer[16]  lookupHopsSig:vector  ETV
330059	48160 70 865 8700 20.87 24.574840393862 3 7 26 42 806
vector 330060  Network.dyn_peer[16]  lookupStabilitySig:vector  ETV
330060	48230 115 865 8700 20.87 24.574840393862 3 -0.16666662693024 0.74000000953674 1.1820290386677 0.94588818035442
vector 330061  Network.dyn_peer[16]  lookupTimeSig:vector  ETV
330061	48345 73 865 8700 20.87 24.574840393862 3 0.7 2.7 4.4 8.78
vector 330245  Network.dyn_peer[78]  lookupHopsSig:vector  ETV
330245	78486 99 891 6443 20.89 23.397692288684 4 1 8 23 163
vector 330246  Network.dyn_peer[78]  lookupStabilitySig:vector  ETV
330246	78585 146 891 6443 20.89 23.397692288684 4 0.5 0.85964912176132 2.9871000945568 2.3140638819048
vector 330247  Network.dyn_peer[78]  lookupTimeSig:vector  ETV
330247	78731 107 891 6443 20.89 23.397692288684 4 0.1 0.9 2.6 2.1
vector 330134  Network.dyn_peer[41]  lookupHopsSig:vector  ETV
330134	60327 130 941 8629 20.92 24.532568469066 5 3 15 37 359
vector 330135  Network.dyn_peer[41]  lookupStabilitySig:vector  ETV
330135	60457 204 941 8629 20.92 24.532568469066 5 0.28571426868439 0.89655172079802 3.4798343703151 2.6864465724687
vector 330136  Network.dyn_peer[41]  lookupTimeSig:vector  ETV
330136	60661 139 941 8629 20.92 24.532568469066 5 0.4 1.6 4.1 4.27
vector 330146  Network.dyn_peer[45]  lookupHopsSig:vector  ETV
330146	61974 101 1001 7941 20.96 24.133195811884 4 2 14 28 274
vector 330147  Network.dyn_peer[45]  lookupStabilitySig:vector  ETV
330147	62075 160 1001 7941 20.96 24.133195811884 4 0.28571426868439 0.94871794804931 2.6727038137615 2.0393496507278
vector 330148  Network.dyn_peer[45]  lookupTimeSig:vector  ETV
330148	62235 108 1001 7941 20.96 24.133195811884 4 0.3 1.5 3.1 3.23
vector 330182  Network.dyn_peer[57]  lookupHopsSig:vector  ETV
330182	68811 72 1033 7271 20.98 23.786864429211 3 4 13 30 354
vector 330183  Network.dyn_peer[57]  lookupStabilitySig:vector  ETV
330183	68883 106 1033 7271 20.98 23.786864429211 3 0.42857140302658 0.80303029716015 1.8253517001867 1.1810701681493
vector 330184  Network.dyn_peer[57]  lookupTimeSig:vector  ETV
330184	68989 76 1033 7271 20.98 23.786864429211 3 0.4 1.4 3.2 4.08
vector 330188  Network.dyn_peer[59]  lookupHopsSig:vector  ETV
330188	69432 97 1061 7900 21 24.107059055235 4 3 16 32 362
vector 330189  Network.dyn_peer[59]  lookupStabilitySig:vector  ETV
330189	69529 154 1061 7900 21 24.107059055235 4 0.42857140302658 0.93617021292448 2.8508175611496 2.205218699129
vector 330190  Network.dyn_peer[59]  lookupTimeSig:vector  ETV
330190	69683 102 1061 7900 21 24.107059055235 4 0.4 1.7 3.5 4.21
vector 330227  Network.dyn_peer[72]  lookupHopsSig:vector  ETV
330227	75847 41 1106 3760 21.03 22.23 2 3 11 14 130
vector 330228  Network.dyn_peer[72]  lookupStabilitySig:vector  ETV
330228	75888 69 1106 3760 21.03 22.23 2 0.5714285671711 0.62068966031075 1.1921182274819 0.71178626179589
vector 330229  Network.dyn_peer[72]  lookupTimeSig:vector  ETV
330229	75957 44 1106 3760 21.03 22.23 2 0.3 1.2 1.5 1.53
vector 330257  Network.dyn_peer[82]  lookupHopsSig:vector  ETV
330257	79809 101 1111 6312 21.03 23.338833529264 4 2 11 22 166
vector 330258  Network.dyn_peer[82]  lookupStabilitySig:vector  ETV
330258	79910 160 1111 6312 21.03 23.338833529264 4 0.63333332538605 0.90909090638161 3.1567099317908 2.5477614378144
vector 330259  Network.dyn_peer[82]  lookupTimeSig:vector  ETV
330259	80070 108 1111 6312 21.03 23.338833529264 4 0.2 1.2 2.5 2.09
vector 330233  Network.dyn_peer[74]  lookupHopsSig:vector  ETV
330233	76701 130 1146 6392 21.05 23.375414549265 5 3 6 22 106
vector 330234  Network.dyn_peer[74]  lookupStabilitySig:vector  ETV
330234	76831 192 1146 6392 21.05 23.375414549265 5 0.5714285671711 0.89285714179277 3.9065933898091 3.1181771263535
vector 330235  Network.dyn_peer[74]  lookupTimeSig:vector  ETV
330235	77023 140 1146 6392 21.05 23.375414549265 5 0.3 0.7 2.6 1.48
vector 330185  Network.dyn_peer[58]  lookupHopsSig:vector  ETV
330185	69065 100 1207 6461 21.09 23.405483245796 4 1 5 15 67
vector 330186  Network.dyn_peer[58]  lookupStabilitySig:vector  ETV
330186	69165 159 1207 6461 21.09 23.405483245796 4 0.28571426868439 0.9473684206605 2.8135424479842 2.258601832086
vector 330187  Network.dyn_peer[58]  lookupTimeSig:vector  ETV
330187	69324 108 1207 6461 21.09 23.405483245796 4 0.2 0.6 1.8 0.9
vector 330215  Network.dyn_peer[68]  lookupHopsSig:vector  ETV
330215	73763 71 1211 7286 21.09 23.795221360977 3 4 18 29 389
vector 330216  Network.dyn_peer[68]  lookupStabilitySig:vector  ETV
330216	73834 115 1211 7286 21.09 23.795221360977 3 0.42857140302658 0.73134326934814 1.8682480156422 1.2202725502974
vector 330217  Network.dyn_peer[68]  lookupTimeSig:vector  ETV
330217	73949 76 1211 7286 21.09 23.795221360977 3 0.4 1.9 3.1 4.41
vector 330287  Network.dyn_peer[92]  lookupHopsSig:vector  ETV
330287	85321 287 1273 11563 21.13 27.461587463768 10 1 16 56 542
vector 330288  Network.dyn_peer[92]  lookupStabilitySig:vector  ETV
330288	85608 422 1273 11563 21.13 27.461587463768 10 0.70588234066963 0.9939393941313 8.9522186722606 8.1215977030267
vector 330289  Network.dyn_peer[92]  lookupTimeSig:vector  ETV
330289	86030 305 1273 11563 21.13 27.461587463768 10 0.2 1.7 6.5 6.59
vector 330260  Network.dyn_peer[83]  lookupHopsSig:vector  ETV
330260	80178 71 1296 5431 21.14 22.942901312371 3 1 15 19 235
vector 330261  Network.dyn_peer[83]  lookupStabilitySig:vector  ETV
330261	80249 115 1296 5431 21.14 22.942901312371 3 0.65116280317307 0.89999999850988 2.2178294584155 1.678457424753
vector 330262  Network.dyn_peer[83]  lookupTimeSig:vector  ETV
330262	80364 76 1296 5431 21.14 22.942901312371 3 0.2 1.6 2.1 2.69
vector 330293  Network.dyn_peer[94]  lookupHopsSig:vector  ETV
330293	87126 161 1317 8201 21.15 24.274700521163 6 1 12 28 226
vector 330294  Network.dyn_peer[94]  lookupStabilitySig:vector  ETV
330294	87287 250 1317 8201 21.15 24.274700521163 6 0.77777777612209 0.90804597735405 5.0937602519989 4.3414005902509
vector 330295  Network.dyn_peer[94]  lookupTimeSig:vector  ETV
330295	87537 172 1317 8201 21.15 24.274700521163 6 0.2 1.3 3.3 2.83
vector 330296  Network.dyn_peer[95]  lookupHopsSig:vector  ETV
330296	87709 102 1336 8691 21.16 24.570104419208 4 2 12 33 341
vector 330297  Network.dyn_peer[95]  lookupStabilitySig:vector  ETV
330297	87811 160 1336 8691 21.16 24.570104419208 4 0.64705881476402 0.92929293215275 3.1723113358021 2.5566302112788
vector 330298  Network.dyn_peer[95]  lookupTimeSig:vector  ETV
330298	87971 108 1336 8691 21.16 24.570104419208 4 0.2 1.3 3.6 4.06
vector 330212  Network.dyn_peer[67]  lookupHopsSig:vector  ETV
330212	73166 170 1374 8258 21.18 24.309129639553 6 2 13 31 247
vector 330213  Network.dyn_peer[67]  lookupStabilitySig:vector  ETV
330213	73336 246 1374 8258 21.18 24.309129639553 6 0.44444441795349 0.9411764703691 4.8474995307624 4.1012829028178
vector 330214  Network.dyn_peer[67]  lookupTimeSig:vector  ETV
330214	73582 181 1374 8258 21.18 24.309129639553 6 0.3 1.4 3.6 3.04
vector 330335  Network.dyn_peer[108]  lookupHopsSig:vector  ETV
330335	93598 101 1393 8065 21.19 24.19979711007 4 1 11 28 268
vector 330336  Network.dyn_peer[108]  lookupStabilitySig:vector  ETV
330336	93699 146 1393 8065 21.19 24.19979711007 4 0.7368420958519 0.88888888806105 3.2447785958648 2.650803481377
vector 330337  Network.dyn_peer[108]  lookupTimeSig:vector  ETV
330337	93845 107 1393 8065 21.19 24.19979711007 4 0.1 1.2 3.1 3.25
vector 330191  Network.dyn_peer[60]  lookupHopsSig:vector  ETV
330191	69785 219 1427 10472 21.21 25.941399871375 8 1 12 46 372
vector 330192  Network.dyn_peer[60]  lookupStabilitySig:vector  ETV
330192	70004 337 1427 10472 21.21 25.941399871375 8 0.33333331346512 0.98130841180682 6.6368041746318 5.8262056238897
vector 330193  Network.dyn_peer[60]  lookupTimeSig:vector  ETV
330193	70341 233 1427 10472 21.21 25.941399871375 8 0.2 1.3 5.3 4.59
vector 330167  Network.dyn_peer[52]  lookupHopsSig:vector  ETV
330167	66004 253 1458 11637 21.23 27.572013198808 9 2 18 62 620
vector 330168  Network.dyn_peer[52]  lookupStabilitySig:vector  ETV
330168	66257 387 1458 11637 21.23 27.572013198808 9 0.22222220897675 0.98802395164967 7.5188034335151 6.8088322449899
vector 330169  Network.dyn_peer[52]  lookupTimeSig:vector  ETV
330169	66644 266 1458 11637 21.23 27.572013198808 9 0.3 1.9 7 7.38
vector 330272  Network.dyn_peer[87]  lookupHopsSig:vector  ETV
330272	81866 100 1548 4844 21.28 22.686580432276 4 3 5 15 59
vector 330273  Network.dyn_peer[87]  lookupStabilitySig:vector  ETV
330273	81966 151 1548 4844 21.28 22.686580432276 4 0.59999999403954 0.92307692021132 3.2209935858846 2.6600961749499
vector 330274  Network.dyn_peer[87]  lookupTimeSig:vector  ETV
330274	82117 108 1548 4844 21.28 22.686580432276 4 0.4 0.6 1.8 0.84
vector 330158  Network.dyn_peer[49]  lookupHopsSig:vector  ETV
330158	64699 97 1584 7521 21.3 23.90919249924 4 6 9 31 245
vector 330159  Network.dyn_peer[49]  lookupStabilitySig:vector  ETV
330159	64796 157 1584 7521 21.3 23.90919249924 4 0.19999998807907 0.91549295932055 2.6559574082494 2.0688921000508
vector 330160  Network.dyn_peer[49]  lookupTimeSig:vector  ETV
330160	64953 103 1584 7521 21.3 23.90919249924 4 0.7 1 3.4 2.94
vector 330308  Network.dyn_peer[99]  lookupHopsSig:vector  ETV