file 145964 1369933125                                          
version 2
run Stability2-15-20130528-01:22:59-24168
attr configname Stability2
attr datetime 20130528-01:22:59
attr experiment Stability2
attr inifile omnetpp.ini
attr iterationvars $0=20
attr iterationvars2 "$0=20, $repetition=5"
attr measurement $0=20
attr network Network
attr processid 24168
attr repetition 5
attr replication #5
attr resultdir results
attr runnumber 15
attr seedset 15
vector 480015  Network.churner  inGoingSizeSig:vector  ETV
480015	141800 4164 10 3212 20 22 201 0 186 19273 2456005
vector 450015  Network.dyn_peer[0]  lookupHopsSig:vector  ETV
450015	39521 127 17 7339 20.01 23.840442609715 5 0 25 34 658
vector 450016  Network.dyn_peer[0]  lookupStabilitySig:vector  ETV
450016	39648 185 17 7339 20.01 23.840442609715 5 0.28571426868439 1 3.5095051974058 2.8137784811852
vector 450017  Network.dyn_peer[0]  lookupTimeSig:vector  ETV
450017	39833 134 17 7339 20.01 23.840442609715 5 0 2.6 3.8 7.3
vector 450024  Network.dyn_peer[3]  lookupHopsSig:vector  ETV
450024	40901 127 30 7106 20.04 23.715039583204 5 0 18 31 401
vector 450025  Network.dyn_peer[3]  lookupStabilitySig:vector  ETV
450025	41028 184 30 7106 20.04 23.715039583204 5 0.39999997615814 1 3.2673899382353 2.384336419871
vector 450026  Network.dyn_peer[3]  lookupTimeSig:vector  ETV
450026	41212 134 30 7106 20.04 23.715039583204 5 0 1.9 3.5 4.67
vector 450039  Network.dyn_peer[8]  lookupHopsSig:vector  ETV
450039	43218 137 49 7469 20.09 23.912481525498 5 0 26 34 702
vector 450040  Network.dyn_peer[8]  lookupStabilitySig:vector  ETV
450040	43355 170 49 7469 20.09 23.912481525498 5 0.5 1 3.497674420476 2.6267495963766
vector 450041  Network.dyn_peer[8]  lookupTimeSig:vector  ETV
450041	43525 144 49 7469 20.09 23.912481525498 5 0 2.7 3.8 7.74
vector 450018  Network.dyn_peer[1]  lookupHopsSig:vector  ETV
450018	39967 157 63 8761 20.12 24.779539965061 6 1 14 39 379
vector 450019  Network.dyn_peer[1]  lookupStabilitySig:vector  ETV
450019	40124 245 63 8761 20.12 24.779539965061 6 0.22222220897675 0.96428571268916 4.1737837530673 3.3793817082127
vector 450020  Network.dyn_peer[1]  lookupTimeSig:vector  ETV
450020	40369 167 63 8761 20.12 24.779539965061 6 0.1 1.5 4.4 4.6
vector 450033  Network.dyn_peer[6]  lookupHopsSig:vector  ETV
450033	42295 158 87 8120 20.17 24.311189998554 6 1 15 37 355
vector 450034  Network.dyn_peer[6]  lookupStabilitySig:vector  ETV
450034	42453 235 87 8120 20.17 24.311189998554 6 0.25 0.92424242198467 4.1104191020131 3.1432803145042
vector 450035  Network.dyn_peer[6]  lookupTimeSig:vector  ETV
450035	42688 169 87 8120 20.17 24.311189998554 6 0.1 1.6 4.2 4.32
vector 450066  Network.dyn_peer[17]  lookupHopsSig:vector  ETV
450066	49559 138 97 7115 20.18 23.719190938556 5 0 14 30 302
vector 450067  Network.dyn_peer[17]  lookupStabilitySig:vector  ETV
450067	49697 173 97 7115 20.18 23.719190938556 5 0.39999997615814 1 3.3477847874165 2.4775998265639
vector 450068  Network.dyn_peer[17]  lookupTimeSig:vector  ETV
450068	49870 143 97 7115 20.18 23.719190938556 5 0 1.5 3.4 3.66
vector 450045  Network.dyn_peer[10]  lookupHopsSig:vector  ETV
450045	44964 169 113 8160 20.21 24.338671138177 6 1 12 37 295
vector 450046  Network.dyn_peer[10]  lookupStabilitySig:vector  ETV
450046	45133 234 113 8160 20.21 24.338671138177 6 0.14285713434219 0.92647058516741 4.1666578128934 3.3850737079034
vector 450047  Network.dyn_peer[10]  lookupTimeSig:vector  ETV
450047	45367 180 113 8160 20.21 24.338671138177 6 0.1 1.3 4.2 3.72
vector 450060  Network.dyn_peer[15]  lookupHopsSig:vector  ETV
450060	48523 158 143 9356 20.26 25.261703564307 6 1 15 38 372
vector 450061  Network.dyn_peer[15]  lookupStabilitySig:vector  ETV
450061	48681 247 143 9356 20.26 25.261703564307 6 0.28571426868439 0.93023255467415 4.0628855675459 3.1664927281476
vector 450062  Network.dyn_peer[15]  lookupTimeSig:vector  ETV
450062	48928 167 143 9356 20.26 25.261703564307 6 0.1 1.6 4.3 4.51
vector 450048  Network.dyn_peer[11]  lookupHopsSig:vector  ETV
450048	45547 198 183 9592 20.32 25.477741359876 7 2 12 46 364
vector 450049  Network.dyn_peer[11]  lookupStabilitySig:vector  ETV
450049	45745 302 183 9592 20.32 25.477741359876 7 0.28571426868439 0.92783505469561 4.9305890724063 3.862998513719
vector 450050  Network.dyn_peer[11]  lookupTimeSig:vector  ETV
450050	46047 209 183 9592 20.32 25.477741359876 7 0.2 1.3 5.2 4.58
vector 450021  Network.dyn_peer[2]  lookupHopsSig:vector  ETV
450021	40536 100 194 6164 20.33 23.237660387646 4 3 14 29 295
vector 450022  Network.dyn_peer[2]  lookupStabilitySig:vector  ETV
450022	40636 160 194 6164 20.33 23.237660387646 4 0.066666662693024 0.88000000268221 2.1966666355729 1.661344419429
vector 450023  Network.dyn_peer[2]  lookupTimeSig:vector  ETV
450023	40796 105 194 6164 20.33 23.237660387646 4 0.3 1.5 3.2 3.5
vector 450027  Network.dyn_peer[4]  lookupHopsSig:vector  ETV
450027	41346 192 211 10118 20.35 26.013955510532 7 3 12 49 415
vector 450028  Network.dyn_peer[4]  lookupStabilitySig:vector  ETV
450028	41538 296 211 10118 20.35 26.013955510532 7 -0.22222220897675 0.96527777612209 4.6573637723923 4.2408019851094
vector 450029  Network.dyn_peer[4]  lookupTimeSig:vector  ETV
450029	41834 204 211 10118 20.35 26.013955510532 7 0.3 1.3 5.5 5.13
vector 450087  Network.dyn_peer[24]  lookupHopsSig:vector  ETV
450087	53602 100 215 6638 20.35 23.464438490326 4 1 18 29 393
vector 450088  Network.dyn_peer[24]  lookupStabilitySig:vector  ETV
450088	53702 159 215 6638 20.35 23.464438490326 4 0.30769228935242 0.97058823518455 2.932825980708 2.4069640041933
vector 450089  Network.dyn_peer[24]  lookupTimeSig:vector  ETV
450089	53861 107 215 6638 20.35 23.464438490326 4 0.1 1.9 3.2 4.52
vector 450093  Network.dyn_peer[26]  lookupHopsSig:vector  ETV
450093	54543 128 231 5823 20.37 23.083636613955 5 1 9 24 156
vector 450094  Network.dyn_peer[26]  lookupStabilitySig:vector  ETV
450094	54671 189 231 5823 20.37 23.083636613955 5 0.5 0.86274509131908 3.3880198001862 2.388374476114
vector 450095  Network.dyn_peer[26]  lookupTimeSig:vector  ETV
450095	54860 136 231 5823 20.37 23.083636613955 5 0.1 1 2.8 2.06
vector 450036  Network.dyn_peer[7]  lookupHopsSig:vector  ETV
450036	42857 98 241 3440 20.38 22.090378741358 4 3 8 17 91
vector 450037  Network.dyn_peer[7]  lookupStabilitySig:vector  ETV
450037	42955 157 241 3440 20.38 22.090378741358 4 0.27272725105286 0.84999999403954 2.0941557884216 1.2834107316398
vector 450038  Network.dyn_peer[7]  lookupTimeSig:vector  ETV
450038	43112 106 241 3440 20.38 22.090378741358 4 0.3 0.9 2 1.22
vector 450042  Network.dyn_peer[9]  lookupHopsSig:vector  ETV
450042	43669 371 258 11710 20.4 29.471065319351 13 1 12 81 613
vector 450043  Network.dyn_peer[9]  lookupStabilitySig:vector  ETV
450043	44040 531 258 11710 20.4 29.471065319351 13 0.25 0.97814207710326 10.577354118228 9.3327071557629
vector 450044  Network.dyn_peer[9]  lookupTimeSig:vector  ETV
450044	44571 393 258 11710 20.4 29.471065319351 13 0.2 1.3 9.3 7.81
vector 450072  Network.dyn_peer[19]  lookupHopsSig:vector  ETV
450072	51144 157 262 9393 20.4 25.293760903852 6 2 20 42 518
vector 450073  Network.dyn_peer[19]  lookupStabilitySig:vector  ETV
450073	51301 246 262 9393 20.4 25.293760903852 6 0.42857140302658 0.92307692021132 3.9459502771497 2.8044505027778
vector 450074  Network.dyn_peer[19]  lookupTimeSig:vector  ETV
450074	51547 168 262 9393 20.4 25.293760903852 6 0.2 2.1 4.7 6.03
vector 450102  Network.dyn_peer[29]  lookupHopsSig:vector  ETV
450102	56300 156 266 8985 20.4 24.950578376216 6 1 19 38 472
vector 450103  Network.dyn_peer[29]  lookupStabilitySig:vector  ETV
450103	56456 234 266 8985 20.4 24.950578376216 6 0.42857140302658 0.88888888806105 4.4017620161176 3.381418086149
vector 450104  Network.dyn_peer[29]  lookupTimeSig:vector  ETV
450104	56690 163 266 8985 20.4 24.950578376216 6 0.1 2 4.3 5.51
vector 450105  Network.dyn_peer[30]  lookupHopsSig:vector  ETV
450105	56853 190 276 10311 20.41 26.245019040917 7 1 24 53 769
vector 450106  Network.dyn_peer[30]  lookupStabilitySig:vector  ETV
450106	57043 292 276 10311 20.41 26.245019040917 7 0.44444441795349 0.93877550959587 5.1601587459445 4.0092402917733
vector 450107  Network.dyn_peer[30]  lookupTimeSig:vector  ETV
450107	57335 202 276 10311 20.41 26.245019040917 7 0.1 2.5 5.9 8.79
vector 450054  Network.dyn_peer[13]  lookupHopsSig:vector  ETV
450054	47250 100 304 4565 20.44 22.549621147622 4 3 10 21 143
vector 450055  Network.dyn_peer[13]  lookupStabilitySig:vector  ETV
450055	47350 160 304 4565 20.44 22.549621147622 4 -0.11111116409302 0.89999999850988 1.961616076529 1.5794530965792
vector 450056  Network.dyn_peer[13]  lookupTimeSig:vector  ETV
450056	47510 107 304 4565 20.44 22.549621147622 4 0.3 1.1 2.4 1.82
vector 450084  Network.dyn_peer[23]  lookupHopsSig:vector  ETV
450084	53003 167 308 8476 20.44 24.566437909633 6 2 15 38 402
vector 450085  Network.dyn_peer[23]  lookupStabilitySig:vector  ETV
450085	53170 255 308 8476 20.44 24.566437909633 6 0.21052628755569 0.97916666604578 4.5296807326376 3.8801862608939
vector 450086  Network.dyn_peer[23]  lookupTimeSig:vector  ETV
450086	53425 177 308 8476 20.44 24.566437909633 6 0.2 1.6 4.3 4.79
vector 450057  Network.dyn_peer[14]  lookupHopsSig:vector  ETV
450057	47617 253 324 10931 20.45 27.146237206417 9 3 17 61 587
vector 450058  Network.dyn_peer[14]  lookupStabilitySig:vector  ETV
450058	47870 384 324 10931 20.45 27.146237206417 9 0.34615385532379 0.98013244941831 7.3173496499657 6.4525978616301
vector 450059  Network.dyn_peer[14]  lookupTimeSig:vector  ETV
450059	48254 269 324 10931 20.45 27.146237206417 9 0.3 1.8 6.9 7.11
vector 450030  Network.dyn_peer[5]  lookupHopsSig:vector  ETV
450030	42038 70 335 7731 20.46 24.06672948416 3 4 20 38 612
vector 450031  Network.dyn_peer[5]  lookupStabilitySig:vector  ETV
450031	42108 113 335 7731 20.46 24.06672948416 3 0.19999998807907 0.78260870277882 1.2048308998346 0.70185908705928
vector 450032  Network.dyn_peer[5]  lookupTimeSig:vector  ETV
450032	42221 74 335 7731 20.46 24.06672948416 3 0.4 2.1 4 6.82
vector 450120  Network.dyn_peer[35]  lookupHopsSig:vector  ETV
450120	59068 69 339 6437 20.46 23.367786005879 3 1 26 28 678
vector 450121  Network.dyn_peer[35]  lookupStabilitySig:vector  ETV
450121	59137 113 339 6437 20.46 23.367786005879 3 0.59999999403954 0.83333332836628 2.2333333194256 1.6944444242451
vector 450122  Network.dyn_peer[35]  lookupTimeSig:vector  ETV
450122	59250 74 339 6437 20.46 23.367786005879 3 0.1 2.7 3 7.34
vector 450096  Network.dyn_peer[27]  lookupHopsSig:vector  ETV
450096	54996 111 359 9578 20.48 25.468595383829 4 2 24 46 780
vector 450097  Network.dyn_peer[27]  lookupStabilitySig:vector  ETV
450097	55107 168 359 9578 20.48 25.468595383829 4 0.51020407676697 0.92481203377247 2.9406764805317 2.2958062071783
vector 450098  Network.dyn_peer[27]  lookupTimeSig:vector  ETV
450098	55275 116 359 9578 20.48 25.468595383829 4 0.2 2.5 4.9 8.71
vector 450138  Network.dyn_peer[41]  lookupHopsSig:vector  ETV
450138	61414 40 398 3773 20.52 22.22 2 1 16 17 257
vector 450139  Network.dyn_peer[41]  lookupStabilitySig:vector  ETV
450139	61454 69 398 3773 20.52 22.22 2 0.33333331346512 0.79999999701977 1.1333333104849 0.75111109309727
vector 450140  Network.dyn_peer[41]  lookupTimeSig:vector  ETV
450140	61523 43 398 3773 20.52 22.22 2 0.1 1.7 1.8 2.9
vector 450051  Network.dyn_peer[12]  lookupHopsSig:vector  ETV
450051	46256 279 411 11131 20.53 27.514461619939 10 2 11 63 499
vector 450052  Network.dyn_peer[12]  lookupStabilitySig:vector  ETV
450052	46535 419 411 11131 20.53 27.514461619939 10 0.19999998807907 0.97660818696022 7.7515240907669 6.5602311265086
vector 450053  Network.dyn_peer[12]  lookupTimeSig:vector  ETV
450053	46954 296 411 11131 20.53 27.514461619939 10 0.3 1.2 7.2 6.26
vector 450081  Network.dyn_peer[22]  lookupHopsSig:vector  ETV
450081	52532 130 415 7649 20.53 24.018937412073 5 3 10 33 261
vector 450082  Network.dyn_peer[22]  lookupStabilitySig:vector  ETV
450082	52662 203 415 7649 20.53 24.018937412073 5 0.39999997615814 0.93406593054533 3.1921244934201 2.2724067020537
vector 450083  Network.dyn_peer[22]  lookupTimeSig:vector  ETV
450083	52865 138 415 7649 20.53 24.018937412073 5 0.3 1.1 3.7 3.25
vector 450090  Network.dyn_peer[25]  lookupHopsSig:vector  ETV
450090	53968 164 446 11282 20.56 27.801022117834 6 3 18 47 523
vector 450091  Network.dyn_peer[25]  lookupStabilitySig:vector  ETV
450091	54132 237 446 11282 20.56 27.801022117834 6 0 0.97175141237676 4.1735229138285 3.7250647035925
vector 450092  Network.dyn_peer[25]  lookupTimeSig:vector  ETV
450092	54369 174 446 11282 20.56 27.801022117834 6 0.3 1.9 5.2 6.16
vector 450180  Network.dyn_peer[55]  lookupHopsSig:vector  ETV
450180	66476 217 452 7897 20.56 24.166288703767 8 0 9 27 155
vector 450181  Network.dyn_peer[55]  lookupStabilitySig:vector  ETV
450181	66693 313 452 7897 20.56 24.166288703767 8 0.55555555224419 1 6.7739770822227 5.8794462340125
vector 450182  Network.dyn_peer[55]  lookupTimeSig:vector  ETV
450182	67006 229 452 7897 20.56 24.166288703767 8 0 1 3.4 2.16
vector 450099  Network.dyn_peer[28]  lookupHopsSig:vector  ETV
450099	55391 254 482 11247 20.59 27.727988245333 9 2 16 66 672
vector 450100  Network.dyn_peer[28]  lookupStabilitySig:vector  ETV
450100	55645 385 482 11247 20.59 27.727988245333 9 0.38461536169052 0.98765432089567 7.3522606920451 6.4842296726668
vector 450101  Network.dyn_peer[28]  lookupTimeSig:vector  ETV
450101	56030 270 482 11247 20.59 27.727988245333 9 0.3 1.7 7.4 8.06
vector 450135  Network.dyn_peer[40]  lookupHopsSig:vector  ETV
450135	61060 100 506 5933 20.61 23.133963673889 4 1 18 24 338
vector 450136  Network.dyn_peer[40]  lookupStabilitySig:vector  ETV
450136	61160 147 506 5933 20.61 23.133963673889 4 0.5714285671711 0.875 2.7734725773334 1.9726982875011
vector 450137  Network.dyn_peer[40]  lookupTimeSig:vector  ETV
450137	61307 107 506 5933 20.61 23.133963673889 4 0.2 1.9 2.7 3.85
vector 450108  Network.dyn_peer[31]  lookupHopsSig:vector  ETV
450108	57537 100 520 5022 20.62 22.728468965961 4 3 10 21 143
vector 450109  Network.dyn_peer[31]  lookupStabilitySig:vector  ETV
450109	57637 147 520 5022 20.62 22.728468965961 4 0.090909063816071 0.91666666418314 2.3223905488849 1.7624654234435
vector 450110  Network.dyn_peer[31]  lookupTimeSig:vector  ETV
450110	57784 107 520 5022 20.62 22.728468965961 4 0.3 1.1 2.4 1.82
vector 450111  Network.dyn_peer[32]  lookupHopsSig:vector  ETV
450111	57891 101 534 9069 20.63 25.033070799901 4 3 18 44 638
vector 450112  Network.dyn_peer[32]  lookupStabilitySig:vector  ETV
450112	57992 145 534 9069 20.63 25.033070799901 4 0.37931036949158 0.9430894292891 2.6574513502419 1.9806051216385
vector 450113  Network.dyn_peer[32]  lookupTimeSig:vector  ETV
450113	58137 107 534 9069 20.63 25.033070799901 4 0.3 1.9 4.7 7.23
vector 450117  Network.dyn_peer[34]  lookupHopsSig:vector  ETV
450117	58611 129 559 7037 20.65 23.673058283327 5 1 14 29 271
vector 450118  Network.dyn_peer[34]  lookupStabilitySig:vector  ETV
450118	58740 190 559 7037 20.65 23.673058283327 5 0.36363637447357 0.97674418613315 3.6270631738007 2.9328016028623
vector 450119  Network.dyn_peer[34]  lookupTimeSig:vector  ETV
450119	58930 138 559 7037 20.65 23.673058283327 5 0.2 1.5 3.3 3.27
vector 450150  Network.dyn_peer[45]  lookupHopsSig:vector  ETV
450150	62540 140 573 5358 20.66 22.872293208169 5 1 12 20 162
vector 450151  Network.dyn_peer[45]  lookupStabilitySig:vector  ETV
450151	62680 213 573 5358 20.66 22.872293208169 5 0.33333331346512 0.9545454531908 3.813349403441 3.1942900490766
vector 450152  Network.dyn_peer[45]  lookupTimeSig:vector  ETV
450152	62893 149 573 5358 20.66 22.872293208169 5 0.2 1.3 2.4 2.02
vector 450069  Network.dyn_peer[18]  lookupHopsSig:vector  ETV
450069	50013 317 606 11721 20.69 29.52412888069 11 2 23 83 953
vector 450070  Network.dyn_peer[18]  lookupStabilitySig:vector  ETV
450070	50330 478 606 11721 20.69 29.52412888069 11 0.16666668653488 0.9897435894236 9.3382479278371 8.589254883498
vector 450071  Network.dyn_peer[18]  lookupTimeSig:vector  ETV
450071	50808 336 606 11721 20.69 29.52412888069 11 0.3 2.4 9.3 11.19
vector 450129  Network.dyn_peer[38]  lookupHopsSig:vector  ETV
450129	59929 254 610 11241 20.69 27.721033212595 9 3 10 65 529
vector 450130  Network.dyn_peer[38]  lookupStabilitySig:vector  ETV
450130	60183 373 610 11241 20.69 27.721033212595 9 0.23076921701431 0.96551724150777 7.145838342607 6.2093610324755
vector 450131  Network.dyn_peer[38]  lookupTimeSig:vector  ETV
450131	60556 266 610 11241 20.69 27.721033212595 9 0.3 1.1 7.3 6.61
vector 450075  Network.dyn_peer[20]  lookupHopsSig:vector  ETV
450075	51715 131 635 8969 20.71 24.945157463796 5 3 14 41 423
vector 450076  Network.dyn_peer[20]  lookupStabilitySig:vector  ETV
450076	51846 194 635 8969 20.71 24.945157463796 5 0.16666668653488 0.88429751992226 2.9092158228159 2.1974995331266
vector 450077  Network.dyn_peer[20]  lookupTimeSig:vector  ETV
450077	52040 139 635 8969 20.71 24.945157463796 5 0.4 1.5 4.5 4.99
vector 450198  Network.dyn_peer[61]  lookupHopsSig:vector  ETV
450198	69634 101 650 9074 20.72 25.036280765202 4 1 26 41 793
vector 450199  Network.dyn_peer[61]  lookupStabilitySig:vector  ETV
450199	69735 159 650 9074 20.72 25.036280765202 4 0.33333331346512 0.85185185074806 2.8088410794735 2.1558169010094
vector 450200  Network.dyn_peer[61]  lookupTimeSig:vector  ETV
450200	69894 107 650 9074 20.72 25.036280765202 4 0.1 2.7 4.4 8.76
vector 450171  Network.dyn_peer[52]  lookupHopsSig:vector  ETV
450171	65402 39 665 2537 20.73 21.73 2 2 9 11 85
vector 450172  Network.dyn_peer[52]  lookupStabilitySig:vector  ETV
450172	65441 69 665 2537 20.73 21.73 2 0.18181818723679 0.66666665673256 0.84848484396935 0.47750228440904
vector 450173  Network.dyn_peer[52]  lookupTimeSig:vector  ETV
450173	65510 41 665 2537 20.73 21.73 2 0.2 1 1.2 1.04
vector 450063  Network.dyn_peer[16]  lookupHopsSig:vector  ETV
450063	49095 128 715 7258 20.77 23.794503454411 5 3 11 32 256
vector 450064  Network.dyn_peer[16]  lookupStabilitySig:vector  ETV
450064	49223 201 715 7258 20.77 23.794503454411 5 0.14285713434219 0.96341463550925 3.2660326473415 2.6773565176078
vector 450065  Network.dyn_peer[16]  lookupTimeSig:vector  ETV
450065	49424 135 715 7258 20.77 23.794503454411 5 0.4 1.2 3.6 3.12
vector 450078  Network.dyn_peer[21]  lookupHopsSig:vector  ETV
450078	52179 99 779 3042 20.82 21.932227964578 4 2 6 14 58
vector 450079  Network.dyn_peer[21]  lookupStabilitySig:vector  ETV
450079	52278 147 779 3042 20.82 21.932227964578 4 0.14285713434219 0.8823529407382 2.3502100631595 1.6795798561725
vector 450080  Network.dyn_peer[21]  lookupTimeSig:vector  ETV
450080	52425 107 779 3042 20.82 21.932227964578 4 0.3 0.6 1.7 0.77
vector 450114  Network.dyn_peer[33]  lookupHopsSig:vector  ETV
450114	58244 101 813 8306 20.84 24.445824322154 4 4 17 38 474
vector 450115  Network.dyn_peer[33]  lookupStabilitySig:vector  ETV
450115	58345 159 813 8306 20.84 24.445824322154 4 0.28571426868439 0.96226415038109 2.5093420445919 1.8651520811645
vector 450116  Network.dyn_peer[33]  lookupTimeSig:vector  ETV
450116	58504 107 813 8306 20.84 24.445824322154 4 0.5 1.8 4.1 5.43
vector 450147  Network.dyn_peer[44]  lookupHopsSig:vector  ETV
450147	61972 161 831 9249 20.85 25.168357082508 6 1 12 42 386
vector 450148  Network.dyn_peer[44]  lookupStabilitySig:vector  ETV
450148	62133 237 831 9249 20.85 25.168357082508 6 0.42857140302658 0.96062992140651 4.5398145802319 3.6674873317681
vector 450149  Network.dyn_peer[44]  lookupTimeSig:vector  ETV
450149	62370 170 831 9249 20.85 25.168357082508 6 0.2 1.3 4.7 4.67
vector 450270  Network.dyn_peer[85]  lookupHopsSig:vector  ETV
450270	79615 101 846 8348 20.86 24.476272899026 4 0 18 33 497
vector 450271  Network.dyn_peer[85]  lookupStabilitySig:vector  ETV
450271	79716 144 846 8348 20.86 24.476272899026 4 0.52631577849388 1 3.372207518667 2.9874788294634
vector 450272  Network.dyn_peer[85]  lookupTimeSig:vector  ETV
450272	79860 105 846 8348 20.86 24.476272899026 4 0 1.9 3.6 5.66
vector 450273  Network.dyn_peer[86]  lookupHopsSig:vector  ETV
450273	79965 99 863 5396 20.87 22.888505690107 4 0 7 17 101
vector 450274  Network.dyn_peer[86]  lookupStabilitySig:vector  ETV
450274	80064 144 863 5396 20.87 22.888505690107 4 0.36363637447357 1 3.0563899874687 2.5657621662813
vector 450275  Network.dyn_peer[86]  lookupTimeSig:vector  ETV
450275	80208 105 863 5396 20.87 22.888505690107 4 0 0.8 2 1.38
vector 450162  Network.dyn_peer[49]  lookupHopsSig:vector  ETV
450162	64426 98 902 8748 20.9 24.768801609221 4 2 20 29 429
vector 450163  Network.dyn_peer[49]  lookupStabilitySig:vector  ETV
450163	64524 146 902 8748 20.9 24.768801609221 4 0.42857140302658 0.83050847053528 2.661857649684 1.8689810361524
vector 450164  Network.dyn_peer[49]  lookupTimeSig:vector  ETV
450164	64670 105 902 8748 20.9 24.768801609221 4 0.3 2.1 3.2 4.82
vector 450225  Network.dyn_peer[70]  lookupHopsSig:vector  ETV
450225	73351 100 919 8689 20.91 24.72873699319 4 2 16 37 453
vector 450226  Network.dyn_peer[70]  lookupStabilitySig:vector  ETV
450226	73451 158 919 8689 20.91 24.72873699319 4 0.36363637447357 0.86206896603107 2.6999910473823 1.9631983865744
vector 450227  Network.dyn_peer[70]  lookupTimeSig:vector  ETV
450227	73609 106 919 8689 20.91 24.72873699319 4 0.2 1.7 4 5.26
vector 450288  Network.dyn_peer[91]  lookupHopsSig:vector  ETV
450288	81769 70 943 5477 20.92 22.926709501727 3 0 12 18 180
vector 450289  Network.dyn_peer[91]  lookupStabilitySig:vector  ETV
450289	81839 75 943 5477 20.92 22.926709501727 3 0.5 1 2.375 2.015625
vector 450290  Network.dyn_peer[91]  lookupTimeSig:vector  ETV
450290	81914 73 943 5477 20.92 22.926709501727 3 0 1.3 2 2.18
vector 450279  Network.dyn_peer[88]  lookupHopsSig:vector  ETV
450279	80896 40 1041 2685 20.99 21.79 2 1 7 8 50
vector 450280  Network.dyn_peer[88]  lookupStabilitySig:vector  ETV
450280	80936 70 1041 2685 20.99 21.79 2 0.46153843402863 0.85714285075665 1.3186812847853 0.94771159268884
vector 450281  Network.dyn_peer[88]  lookupTimeSig:vector  ETV
450281	81006 44 1041 2685 20.99 21.79 2 0.1 0.8 0.9 0.65
vector 450192  Network.dyn_peer[59]  lookupHopsSig:vector  ETV
450192	68083 246 1055 10478 21 26.446336687879 9 2 14 50 414
vector 450193  Network.dyn_peer[59]  lookupStabilitySig:vector  ETV
450193	68329 366 1055 10478 21 26.446336687879 9 0.42857140302658 0.98561151046306 7.6072067515925 6.8123553943337
vector 450194  Network.dyn_peer[59]  lookupTimeSig:vector  ETV
450194	68695 261 1055 10478 21 26.446336687879 9 0.3 1.5 5.8 5.14
vector 450222  Network.dyn_peer[69]  lookupHopsSig:vector  ETV
450222	72645 196 1059 7333 21 23.839065677698 7 1 7 25 117
vector 450223  Network.dyn_peer[69]  lookupStabilitySig:vector  ETV
450223	72841 300 1059 7333 21 23.839065677698 7 0.44444441795349 0.98461538460106 5.5971181532368 4.7470155523953
vector 450224  Network.dyn_peer[69]  lookupTimeSig:vector  ETV
450224	73141 210 1059 7333 21 23.839065677698 7 0.2 0.8 3.1 1.67
vector 450141  Network.dyn_peer[42]  lookupHopsSig:vector  ETV
450141	61566 71 1108 6767 21.03 23.536614850217 3 5 18 29 385
vector 450142  Network.dyn_peer[42]  lookupStabilitySig:vector  ETV
450142	61637 102 1108 6767 21.03 23.536614850217 3 0.14285713434219 0.74647888541222 1.3893360197544 0.82763888719873
vector 450143  Network.dyn_peer[42]  lookupTimeSig:vector  ETV
450143	61739 76 1108 6767 21.03 23.536614850217 3 0.6 1.9 3.1 4.33
vector 450240  Network.dyn_peer[75]  lookupHopsSig:vector  ETV
450240	75291 71 1154 5363 21.06 22.873406113587 3 3 10 19 145
vector 450241  Network.dyn_peer[75]  lookupStabilitySig:vector  ETV
450241	75362 91 1154 5363 21.06 22.873406113587 3 0.5 0.77272726595402 1.897727265954 1.2377324275488
vector 450242  Network.dyn_peer[75]  lookupTimeSig:vector  ETV
450242	75453 76 1154 5363 21.06 22.873406113587 3 0.3 1.1 2.1 1.79
vector 450300  Network.dyn_peer[95]  lookupHopsSig:vector  ETV
450300	83964 100 1158 6237 21.06 23.268717592558 4 1 9 20 164
vector 450301  Network.dyn_peer[95]  lookupStabilitySig:vector  ETV
450301	84064 149 1158 6237 21.06 23.268717592558 4 0.52631577849388 0.98412698321044 3.2054427545518 2.6835392060443
vector 450302  Network.dyn_peer[95]  lookupTimeSig:vector  ETV
450302	84213 104 1158 6237 21.06 23.268717592558 4 0.1 1 2.3 2.05
vector 450183  Network.dyn_peer[56]  lookupHopsSig:vector  ETV
450183	67235 129 1176 7082 21.07 23.69719825199 5 1 9 27 181
vector 450184  Network.dyn_peer[56]  lookupStabilitySig:vector  ETV
450184	67364 193 1176 7082 21.07 23.69719825199 5 0.375 0.97826086916029 3.666458459571 2.9561947098826
vector 450185  Network.dyn_peer[56]  lookupTimeSig:vector  ETV
450185	67557 137 1176 7082 21.07 23.69719825199 5 0.2 1 3.1 2.29
vector 450303  Network.dyn_peer[96]  lookupHopsSig:vector  ETV
450303	84317 130 1180 7067 21.07 23.690040983976 5 1 9 23 157
vector 450304  Network.dyn_peer[96]  lookupStabilitySig:vector  ETV
450304	84447 183 1180 7067 21.07 23.690040983976 5 0.65384614467621 0.90909090638161 4.2018259391189 3.5753345122921
vector 450305  Network.dyn_peer[96]  lookupTimeSig:vector  ETV
450305	84630 138 1180 7067 21.07 23.690040983976 5 0.1 1 2.7 2.05
vector 450132  Network.dyn_peer[39]  lookupHopsSig:vector  ETV
450132	60822 66 1226 4692 21.1 22.607228605016 3 5 8 20 138
vector 450133  Network.dyn_peer[39]  lookupStabilitySig:vector  ETV
450133	60888 100 1226 4692 21.1 22.607228605016 3 0.125 0.83870968222618 1.5192652344704 1.0277009026893
vector 450134  Network.dyn_peer[39]  lookupTimeSig:vector  ETV
450134	60988 72 1226 4692 21.1 22.607228605016 3 0.6 0.9 2.2 1.66
vector 450318  Network.dyn_peer[101]  lookupHopsSig:vector  ETV
450318	87411 171 1264 8187 21.12 24.354698139868 6 1 11 28 206
vector 450319  Network.dyn_peer[101]  lookupStabilitySig:vector  ETV
450319	87582 248 1264 8187 21.12 24.354698139868 6 0.59259259700775 0.97959183715284 5.2267618905753 4.6518942898462
vector 450320  Network.dyn_peer[101]  lookupTimeSig:vector  ETV
450320	87830 182 1264 8187 21.12 24.354698139868 6 0.1 1.2 3.3 2.65
vector 450174  Network.dyn_peer[53]  lookupHopsSig:vector  ETV
450174	65551 70 1298 4315 21.14 22.447013510665 3 3 8 17 109
vector 450175  Network.dyn_peer[53]  lookupStabilitySig:vector  ETV
450175	65621 103 1298 4315 21.14 22.447013510665 3 0.25 0.88888888806105 1.717836253345 1.1878035070877
vector 450176  Network.dyn_peer[53]  lookupTimeSig:vector  ETV
450176	65724 76 1298 4315 21.14 22.447013510665 3 0.4 0.9 1.9 1.33
vector 450177  Network.dyn_peer[54]  lookupHopsSig:vector  ETV
450177	65800 196 1318 11205 21.15 27.663806212113 7 5 15 65 671
vector 450178  Network.dyn_peer[54]  lookupStabilitySig:vector  ETV
450178	65996 274 1318 11205 21.15 27.663806212113 7 0.25 0.97093023173511 5.5046813171357 4.757528353194
vector 450179  Network.dyn_peer[54]  lookupTimeSig:vector  ETV
450179	66270 206 1318 11205 21.15 27.663806212113 7 0.6 1.6 7.1 7.95
vector 450123  Network.dyn_peer[36]  lookupHopsSig:vector  ETV
450123	59324 101 1348 7416 21.17 23.880931419261 4 5 14 32 310
vector 450124  Network.dyn_peer[36]  lookupStabilitySig:vector  ETV
450124	59425 145 1348 7416 21.17 23.880931419261 4 0 0.83333332836628 2.2314814925194 1.6986454178685
vector 450125  Network.dyn_peer[36]  lookupTimeSig:vector  ETV
450125	59570 108 1348 7416 21.17 23.880931419261 4 0.6 1.5 3.5 3.61
vector 450186  Network.dyn_peer[57]  lookupHopsSig:vector  ETV
450186	67694 71 1366 7428 21.18 23.888891796825 3 4 21 31 493
vector 450187  Network.dyn_peer[57]  lookupStabilitySig:vector  ETV
450187	67765 103 1366 7428 21.18 23.888891796825 3 0.25 0.75294117629528 1.6393048018217 1.0343790788541
vector 450188  Network.dyn_peer[57]  lookupTimeSig:vector  ETV
450188	67868 76 1366 7428 21.18 23.888891796825 3 0.5 2.2 3.3 5.45
vector 450165  Network.dyn_peer[50]  lookupHopsSig:vector  ETV
450165	64775 81 1417 5457 21.21 22.915912746845 3 2 13 22 222
vector 450166  Network.dyn_peer[50]  lookupStabilitySig:vector  ETV
450166	64856 114 1417 5457 21.21 22.915912746845 3 0.125 0.77777777612209 1.6261820346117 1.1438769902303
vector 450167  Network.dyn_peer[50]  lookupTimeSig:vector  ETV
450167	64970 86 1417 5457 21.21 22.915912746845 3 0.3 1.4 2.4 2.54
vector 450237  Network.dyn_peer[74]  lookupHopsSig:vector  ETV
450237	74500 224 1494 10780 21.25 26.898417705723 8 1 13 54 504
vector 450238  Network.dyn_peer[74]  lookupStabilitySig:vector  ETV
450238	74724 330 1494 10780 21.25 26.898417705723 8 0.375 0.99378881976008 6.6488276077434 5.8794074372514
vector 450239  Network.dyn_peer[74]  lookupTimeSig:vector  ETV
450239	75054 237 1494 10780 21.25 26.898417705723 8 0.2 1.4 6.1 6.09
vector 450387  Network.dyn_peer[124]  lookupHopsSig:vector  ETV
450387	98329 99 1500 6008 21.25 23.164913160195 4 0 8 16 114
vector 450388  Network.dyn_peer[124]  lookupStabilitySig:vector  ETV
450388	98428 144 1500 6008 21.25 23.164913160195 4 0.63157895207405 1 3.4501318316907 3.0629838695186
vector 450389  Network.dyn_peer[124]  lookupTimeSig:vector  ETV
450389	98572 105 1500 6008 21.25 23.164913160195 4 0 0.9 1.9 1.49
vector 450246  Network.dyn_peer[77]  lookupHopsSig:vector  ETV
450246	76478 41 1549 5153 21.28 22.78 2 5 14 19 221
vector 450247  Network.dyn_peer[77]  lookupStabilitySig:vector  ETV
450247	76519 59 1549 5153 21.28 22.78 2 0.375 0.63157895207405 1.0065789520741 0.53951697270296
vector 450248  Network.dyn_peer[77]  lookupTimeSig:vector  ETV
450248	76578 44 1549 5153 21.28 22.78 2 0.5 1.5 2 2.5
vector 450249  Network.dyn_peer[78]  lookupHopsSig:vector  ETV
450249	76622 131 1570 8518 21.29 24.595134617223 5 5 13 34 280
vector 450250  Network.dyn_peer[78]  lookupStabilitySig:vector  ETV
450250	76753 194 1570 8518 21.29 24.595134617223 5 0.375 0.94545454531908 3.8139633499086 3.1687834617219
vector 450251  Network.dyn_peer[78]  lookupTimeSig:vector  ETV
450251	76947 140 1570 8518 21.29 24.595134617223 5 0.5 1.4 3.8 3.42
vector 450369  Network.dyn_peer[118]  lookupHopsSig:vector  ETV
450369	96568 70 1574 3708 21.29 22.195429253587 3 1 6 8 38