file 63087 1369696931                                           
version 2
run Stability2-5-20130528-01:22:06-24168
attr configname Stability2
attr datetime 20130528-01:22:06
attr experiment Stability2
attr inifile omnetpp.ini
attr iterationvars $0=10
attr iterationvars2 "$0=10, $repetition=5"
attr measurement $0=10
attr network Network
attr processid 24168
attr repetition 5
attr replication #5
attr resultdir results
attr runnumber 5
attr seedset 5

vector 180005  Network.churner  inGoingSizeSig:vector  ETV
vector 150005  Network.dyn_peer[0]  lookupHopsSig:vector  ETV
vector 150006  Network.dyn_peer[0]  lookupStabilitySig:vector  ETV
vector 150007  Network.dyn_peer[0]  lookupTimeSig:vector  ETV
vector 150008  Network.dyn_peer[1]  lookupHopsSig:vector  ETV
vector 150009  Network.dyn_peer[1]  lookupStabilitySig:vector  ETV
vector 150010  Network.dyn_peer[1]  lookupTimeSig:vector  ETV
vector 150026  Network.dyn_peer[7]  lookupHopsSig:vector  ETV
vector 150027  Network.dyn_peer[7]  lookupStabilitySig:vector  ETV
vector 150028  Network.dyn_peer[7]  lookupTimeSig:vector  ETV
vector 150014  Network.dyn_peer[3]  lookupHopsSig:vector  ETV
vector 150015  Network.dyn_peer[3]  lookupStabilitySig:vector  ETV
vector 150016  Network.dyn_peer[3]  lookupTimeSig:vector  ETV
vector 150017  Network.dyn_peer[4]  lookupHopsSig:vector  ETV
vector 150018  Network.dyn_peer[4]  lookupStabilitySig:vector  ETV
vector 150019  Network.dyn_peer[4]  lookupTimeSig:vector  ETV
vector 150020  Network.dyn_peer[5]  lookupHopsSig:vector  ETV
vector 150021  Network.dyn_peer[5]  lookupStabilitySig:vector  ETV
vector 150022  Network.dyn_peer[5]  lookupTimeSig:vector  ETV
vector 150032  Network.dyn_peer[9]  lookupHopsSig:vector  ETV
vector 150033  Network.dyn_peer[9]  lookupStabilitySig:vector  ETV
vector 150034  Network.dyn_peer[9]  lookupTimeSig:vector  ETV
vector 150068  Network.dyn_peer[21]  lookupHopsSig:vector  ETV
vector 150069  Network.dyn_peer[21]  lookupStabilitySig:vector  ETV
vector 150070  Network.dyn_peer[21]  lookupTimeSig:vector  ETV
vector 150047  Network.dyn_peer[14]  lookupHopsSig:vector  ETV
vector 150048  Network.dyn_peer[14]  lookupStabilitySig:vector  ETV
vector 150049  Network.dyn_peer[14]  lookupTimeSig:vector  ETV
vector 150029  Network.dyn_peer[8]  lookupHopsSig:vector  ETV
vector 150030  Network.dyn_peer[8]  lookupStabilitySig:vector  ETV
vector 150031  Network.dyn_peer[8]  lookupTimeSig:vector  ETV
vector 150065  Network.dyn_peer[20]  lookupHopsSig:vector  ETV
vector 150066  Network.dyn_peer[20]  lookupStabilitySig:vector  ETV
vector 150067  Network.dyn_peer[20]  lookupTimeSig:vector  ETV
vector 150011  Network.dyn_peer[2]  lookupHopsSig:vector  ETV
vector 150012  Network.dyn_peer[2]  lookupStabilitySig:vector  ETV
vector 150013  Network.dyn_peer[2]  lookupTimeSig:vector  ETV
vector 150044  Network.dyn_peer[13]  lookupHopsSig:vector  ETV
vector 150045  Network.dyn_peer[13]  lookupStabilitySig:vector  ETV
vector 150046  Network.dyn_peer[13]  lookupTimeSig:vector  ETV
vector 150077  Network.dyn_peer[24]  lookupHopsSig:vector  ETV
vector 150078  Network.dyn_peer[24]  lookupStabilitySig:vector  ETV
vector 150079  Network.dyn_peer[24]  lookupTimeSig:vector  ETV
vector 150050  Network.dyn_peer[15]  lookupHopsSig:vector  ETV
vector 150051  Network.dyn_peer[15]  lookupStabilitySig:vector  ETV
vector 150052  Network.dyn_peer[15]  lookupTimeSig:vector  ETV
vector 150056  Network.dyn_peer[17]  lookupHopsSig:vector  ETV
vector 150057  Network.dyn_peer[17]  lookupStabilitySig:vector  ETV
vector 150058  Network.dyn_peer[17]  lookupTimeSig:vector  ETV
vector 150038  Network.dyn_peer[11]  lookupHopsSig:vector  ETV
vector 150039  Network.dyn_peer[11]  lookupStabilitySig:vector  ETV
vector 150040  Network.dyn_peer[11]  lookupTimeSig:vector  ETV
vector 150041  Network.dyn_peer[12]  lookupHopsSig:vector  ETV
vector 150042  Network.dyn_peer[12]  lookupStabilitySig:vector  ETV
vector 150043  Network.dyn_peer[12]  lookupTimeSig:vector  ETV
vector 150071  Network.dyn_peer[22]  lookupHopsSig:vector  ETV
vector 150072  Network.dyn_peer[22]  lookupStabilitySig:vector  ETV
vector 150073  Network.dyn_peer[22]  lookupTimeSig:vector  ETV
vector 150053  Network.dyn_peer[16]  lookupHopsSig:vector  ETV
vector 150054  Network.dyn_peer[16]  lookupStabilitySig:vector  ETV
vector 150055  Network.dyn_peer[16]  lookupTimeSig:vector  ETV
vector 150083  Network.dyn_peer[26]  lookupHopsSig:vector  ETV
vector 150084  Network.dyn_peer[26]  lookupStabilitySig:vector  ETV
vector 150085  Network.dyn_peer[26]  lookupTimeSig:vector  ETV
vector 150086  Network.dyn_peer[27]  lookupHopsSig:vector  ETV
vector 150087  Network.dyn_peer[27]  lookupStabilitySig:vector  ETV
vector 150088  Network.dyn_peer[27]  lookupTimeSig:vector  ETV
vector 150059  Network.dyn_peer[18]  lookupHopsSig:vector  ETV
vector 150060  Network.dyn_peer[18]  lookupStabilitySig:vector  ETV
vector 150061  Network.dyn_peer[18]  lookupTimeSig:vector  ETV
vector 150092  Network.dyn_peer[29]  lookupHopsSig:vector  ETV
vector 150093  Network.dyn_peer[29]  lookupStabilitySig:vector  ETV
vector 150094  Network.dyn_peer[29]  lookupTimeSig:vector  ETV
vector 150035  Network.dyn_peer[10]  lookupHopsSig:vector  ETV
vector 150036  Network.dyn_peer[10]  lookupStabilitySig:vector  ETV
vector 150037  Network.dyn_peer[10]  lookupTimeSig:vector  ETV
vector 150095  Network.dyn_peer[30]  lookupHopsSig:vector  ETV
vector 150096  Network.dyn_peer[30]  lookupStabilitySig:vector  ETV
vector 150097  Network.dyn_peer[30]  lookupTimeSig:vector  ETV
vector 150101  Network.dyn_peer[32]  lookupHopsSig:vector  ETV
vector 150102  Network.dyn_peer[32]  lookupStabilitySig:vector  ETV
vector 150103  Network.dyn_peer[32]  lookupTimeSig:vector  ETV
vector 150140  Network.dyn_peer[45]  lookupHopsSig:vector  ETV
vector 150141  Network.dyn_peer[45]  lookupStabilitySig:vector  ETV
vector 150142  Network.dyn_peer[45]  lookupTimeSig:vector  ETV
vector 150146  Network.dyn_peer[47]  lookupHopsSig:vector  ETV
vector 150147  Network.dyn_peer[47]  lookupStabilitySig:vector  ETV
vector 150148  Network.dyn_peer[47]  lookupTimeSig:vector  ETV
vector 150089  Network.dyn_peer[28]  lookupHopsSig:vector  ETV
vector 150090  Network.dyn_peer[28]  lookupStabilitySig:vector  ETV
vector 150091  Network.dyn_peer[28]  lookupTimeSig:vector  ETV
vector 150119  Network.dyn_peer[38]  lookupHopsSig:vector  ETV
vector 150120  Network.dyn_peer[38]  lookupStabilitySig:vector  ETV
vector 150121  Network.dyn_peer[38]  lookupTimeSig:vector  ETV
vector 150074  Network.dyn_peer[23]  lookupHopsSig:vector  ETV
vector 150075  Network.dyn_peer[23]  lookupStabilitySig:vector  ETV
vector 150076  Network.dyn_peer[23]  lookupTimeSig:vector  ETV
vector 150164  Network.dyn_peer[53]  lookupHopsSig:vector  ETV
vector 150165  Network.dyn_peer[53]  lookupStabilitySig:vector  ETV
vector 150166  Network.dyn_peer[53]  lookupTimeSig:vector  ETV
vector 150149  Network.dyn_peer[48]  lookupHopsSig:vector  ETV
vector 150150  Network.dyn_peer[48]  lookupStabilitySig:vector  ETV
vector 150151  Network.dyn_peer[48]  lookupTimeSig:vector  ETV
vector 150062  Network.dyn_peer[19]  lookupHopsSig:vector  ETV
vector 150063  Network.dyn_peer[19]  lookupStabilitySig:vector  ETV
vector 150064  Network.dyn_peer[19]  lookupTimeSig:vector  ETV
vector 150125  Network.dyn_peer[40]  lookupHopsSig:vector  ETV
vector 150126  Network.dyn_peer[40]  lookupStabilitySig:vector  ETV
vector 150127  Network.dyn_peer[40]  lookupTimeSig:vector  ETV
vector 150158  Network.dyn_peer[51]  lookupHopsSig:vector  ETV
vector 150159  Network.dyn_peer[51]  lookupStabilitySig:vector  ETV
vector 150160  Network.dyn_peer[51]  lookupTimeSig:vector  ETV
vector 150104  Network.dyn_peer[33]  lookupHopsSig:vector  ETV
vector 150105  Network.dyn_peer[33]  lookupStabilitySig:vector  ETV
vector 150106  Network.dyn_peer[33]  lookupTimeSig:vector  ETV
vector 150113  Network.dyn_peer[36]  lookupHopsSig:vector  ETV
vector 150114  Network.dyn_peer[36]  lookupStabilitySig:vector  ETV
vector 150115  Network.dyn_peer[36]  lookupTimeSig:vector  ETV
vector 150152  Network.dyn_peer[49]  lookupHopsSig:vector  ETV
vector 150153  Network.dyn_peer[49]  lookupStabilitySig:vector  ETV
vector 150154  Network.dyn_peer[49]  lookupTimeSig:vector  ETV
vector 150182  Network.dyn_peer[59]  lookupHopsSig:vector  ETV
vector 150183  Network.dyn_peer[59]  lookupStabilitySig:vector  ETV
vector 150184  Network.dyn_peer[59]  lookupTimeSig:vector  ETV
vector 150212  Network.dyn_peer[69]  lookupHopsSig:vector  ETV
vector 150213  Network.dyn_peer[69]  lookupStabilitySig:vector  ETV
vector 150214  Network.dyn_peer[69]  lookupTimeSig:vector  ETV
vector 150134  Network.dyn_peer[43]  lookupHopsSig:vector  ETV
vector 150135  Network.dyn_peer[43]  lookupStabilitySig:vector  ETV
vector 150136  Network.dyn_peer[43]  lookupTimeSig:vector  ETV
vector 150194  Network.dyn_peer[63]  lookupHopsSig:vector  ETV
vector 150195  Network.dyn_peer[63]  lookupStabilitySig:vector  ETV
vector 150196  Network.dyn_peer[63]  lookupTimeSig:vector  ETV
vector 150137  Network.dyn_peer[44]  lookupHopsSig:vector  ETV
vector 150138  Network.dyn_peer[44]  lookupStabilitySig:vector  ETV
vector 150139  Network.dyn_peer[44]  lookupTimeSig:vector  ETV
vector 150197  Network.dyn_peer[64]  lookupHopsSig:vector  ETV
vector 150198  Network.dyn_peer[64]  lookupStabilitySig:vector  ETV
vector 150199  Network.dyn_peer[64]  lookupTimeSig:vector  ETV
vector 150200  Network.dyn_peer[65]  lookupHopsSig:vector  ETV
vector 150201  Network.dyn_peer[65]  lookupStabilitySig:vector  ETV
vector 150202  Network.dyn_peer[65]  lookupTimeSig:vector  ETV
vector 150023  Network.dyn_peer[6]  lookupHopsSig:vector  ETV
vector 150024  Network.dyn_peer[6]  lookupStabilitySig:vector  ETV
vector 150025  Network.dyn_peer[6]  lookupTimeSig:vector  ETV
vector 150269  Network.dyn_peer[88]  lookupHopsSig:vector  ETV
vector 150270  Network.dyn_peer[88]  lookupStabilitySig:vector  ETV
vector 150271  Network.dyn_peer[88]  lookupTimeSig:vector  ETV
vector 150110  Network.dyn_peer[35]  lookupHopsSig:vector  ETV
vector 150111  Network.dyn_peer[35]  lookupStabilitySig:vector  ETV
vector 150112  Network.dyn_peer[35]  lookupTimeSig:vector  ETV
vector 150179  Network.dyn_peer[58]  lookupHopsSig:vector  ETV
vector 150180  Network.dyn_peer[58]  lookupStabilitySig:vector  ETV
vector 150181  Network.dyn_peer[58]  lookupTimeSig:vector  ETV
vector 150131  Network.dyn_peer[42]  lookupHopsSig:vector  ETV
vector 150132  Network.dyn_peer[42]  lookupStabilitySig:vector  ETV
vector 150133  Network.dyn_peer[42]  lookupTimeSig:vector  ETV
vector 150161  Network.dyn_peer[52]  lookupHopsSig:vector  ETV
vector 150162  Network.dyn_peer[52]  lookupStabilitySig:vector  ETV
vector 150163  Network.dyn_peer[52]  lookupTimeSig:vector  ETV
vector 150251  Network.dyn_peer[82]  lookupHopsSig:vector  ETV
vector 150252  Network.dyn_peer[82]  lookupStabilitySig:vector  ETV
vector 150253  Network.dyn_peer[82]  lookupTimeSig:vector  ETV
vector 150257  Network.dyn_peer[84]  lookupHopsSig:vector  ETV
vector 150258  Network.dyn_peer[84]  lookupStabilitySig:vector  ETV
vector 150259  Network.dyn_peer[84]  lookupTimeSig:vector  ETV
vector 150080  Network.dyn_peer[25]  lookupHopsSig:vector  ETV
vector 150081  Network.dyn_peer[25]  lookupStabilitySig:vector  ETV
vector 150082  Network.dyn_peer[25]  lookupTimeSig:vector  ETV
vector 150173  Network.dyn_peer[56]  lookupHopsSig:vector  ETV
vector 150174  Network.dyn_peer[56]  lookupStabilitySig:vector  ETV
vector 150175  Network.dyn_peer[56]  lookupTimeSig:vector  ETV
vector 150185  Network.dyn_peer[60]  lookupHopsSig:vector  ETV
vector 150186  Network.dyn_peer[60]  lookupStabilitySig:vector  ETV
vector 150187  Network.dyn_peer[60]  lookupTimeSig:vector  ETV
vector 150218  Network.dyn_peer[71]  lookupHopsSig:vector  ETV
vector 150219  Network.dyn_peer[71]  lookupStabilitySig:vector  ETV
vector 150220  Network.dyn_peer[71]  lookupTimeSig:vector  ETV
vector 150107  Network.dyn_peer[34]  lookupHopsSig:vector  ETV
vector 150108  Network.dyn_peer[34]  lookupStabilitySig:vector  ETV
vector 150109  Network.dyn_peer[34]  lookupTimeSig:vector  ETV
vector 150245  Network.dyn_peer[80]  lookupHopsSig:vector  ETV
vector 150246  Network.dyn_peer[80]  lookupStabilitySig:vector  ETV
vector 150247  Network.dyn_peer[80]  lookupTimeSig:vector  ETV
vector 150281  Network.dyn_peer[92]  lookupHopsSig:vector  ETV
vector 150282  Network.dyn_peer[92]  lookupStabilitySig:vector  ETV
vector 150283  Network.dyn_peer[92]  lookupTimeSig:vector  ETV
vector 150254  Network.dyn_peer[83]  lookupHopsSig:vector  ETV
vector 150255  Network.dyn_peer[83]  lookupStabilitySig:vector  ETV
vector 150256  Network.dyn_peer[83]  lookupTimeSig:vector  ETV
vector 150266  Network.dyn_peer[87]  lookupHopsSig:vector  ETV
vector 150267  Network.dyn_peer[87]  lookupStabilitySig:vector  ETV
vector 150268  Network.dyn_peer[87]  lookupTimeSig:vector  ETV
vector 150296  Network.dyn_peer[97]  lookupHopsSig:vector  ETV
vector 150297  Network.dyn_peer[97]  lookupStabilitySig:vector  ETV
vector 150298  Network.dyn_peer[97]  lookupTimeSig:vector  ETV
vector 150272  Network.dyn_peer[89]  lookupHopsSig:vector  ETV
vector 150273  Network.dyn_peer[89]  lookupStabilitySig:vector  ETV
vector 150274  Network.dyn_peer[89]  lookupTimeSig:vector  ETV
vector 150128  Network.dyn_peer[41]  lookupHopsSig:vector  ETV
vector 150129  Network.dyn_peer[41]  lookupStabilitySig:vector  ETV
vector 150130  Network.dyn_peer[41]  lookupTimeSig:vector  ETV
vector 150188  Network.dyn_peer[61]  lookupHopsSig:vector  ETV
vector 150189  Network.dyn_peer[61]  lookupStabilitySig:vector  ETV
vector 150190  Network.dyn_peer[61]  lookupTimeSig:vector  ETV
vector 150122  Network.dyn_peer[39]  lookupHopsSig:vector  ETV
vector 150123  Network.dyn_peer[39]  lookupStabilitySig:vector  ETV
vector 150124  Network.dyn_peer[39]  lookupTimeSig:vector  ETV
vector 150275  Network.dyn_peer[90]  lookupHopsSig:vector  ETV
vector 150276  Network.dyn_peer[90]  lookupStabilitySig:vector  ETV
vector 150277  Network.dyn_peer[90]  lookupTimeSig:vector  ETV
vector 150098  Network.dyn_peer[31]  lookupHopsSig:vector  ETV
vector 150099  Network.dyn_peer[31]  lookupStabilitySig:vector  ETV
vector 150100  Network.dyn_peer[31]  lookupTimeSig:vector  ETV
vector 150287  Network.dyn_peer[94]  lookupHopsSig:vector  ETV
vector 150288  Network.dyn_peer[94]  lookupStabilitySig:vector  ETV
vector 150289  Network.dyn_peer[94]  lookupTimeSig:vector  ETV
vector 150206  Network.dyn_peer[67]  lookupHopsSig:vector  ETV
vector 150207  Network.dyn_peer[67]  lookupStabilitySig:vector  ETV
vector 150208  Network.dyn_peer[67]  lookupTimeSig:vector  ETV
vector 150239  Network.dyn_peer[78]  lookupHopsSig:vector  ETV
vector 150240  Network.dyn_peer[78]  lookupStabilitySig:vector  ETV
vector 150241  Network.dyn_peer[78]  lookupTimeSig:vector  ETV
vector 150248  Network.dyn_peer[81]  lookupHopsSig:vector  ETV
vector 150249  Network.dyn_peer[81]  lookupStabilitySig:vector  ETV
vector 150250  Network.dyn_peer[81]  lookupTimeSig:vector  ETV
vector 150191  Network.dyn_peer[62]  lookupHopsSig:vector  ETV
vector 150192  Network.dyn_peer[62]  lookupStabilitySig:vector  ETV
vector 150193  Network.dyn_peer[62]  lookupTimeSig:vector  ETV
vector 150227  Network.dyn_peer[74]  lookupHopsSig:vector  ETV
vector 150228  Network.dyn_peer[74]  lookupStabilitySig:vector  ETV
vector 150229  Network.dyn_peer[74]  lookupTimeSig:vector  ETV
vector 150203  Network.dyn_peer[66]  lookupHopsSig:vector  ETV
vector 150204  Network.dyn_peer[66]  lookupStabilitySig:vector  ETV
vector 150205  Network.dyn_peer[66]  lookupTimeSig:vector  ETV
vector 150242  Network.dyn_peer[79]  lookupHopsSig:vector  ETV
vector 150243  Network.dyn_peer[79]  lookupStabilitySig:vector  ETV
vector 150244  Network.dyn_peer[79]  lookupTimeSig:vector  ETV
vector 150215  Network.dyn_peer[70]  lookupHopsSig:vector  ETV
vector 150216  Network.dyn_peer[70]  lookupStabilitySig:vector  ETV
vector 150217  Network.dyn_peer[70]  lookupTimeSig:vector  ETV
vector 150284  Network.dyn_peer[93]  lookupHopsSig:vector  ETV
vector 150285  Network.dyn_peer[93]  lookupStabilitySig:vector  ETV
vector 150286  Network.dyn_peer[93]  lookupTimeSig:vector  ETV
vector 150143  Network.dyn_peer[46]  lookupHopsSig:vector  ETV
vector 150144  Network.dyn_peer[46]  lookupStabilitySig:vector  ETV
vector 150145  Network.dyn_peer[46]  lookupTimeSig:vector  ETV
vector 150263  Network.dyn_peer[86]  lookupHopsSig:vector  ETV
vector 150264  Network.dyn_peer[86]  lookupStabilitySig:vector  ETV
vector 150265  Network.dyn_peer[86]  lookupTimeSig:vector  ETV
vector 150302  Network.dyn_peer[99]  lookupHopsSig:vector  ETV
vector 150303  Network.dyn_peer[99]  lookupStabilitySig:vector  ETV
vector 150304  Network.dyn_peer[99]  lookupTimeSig:vector  ETV
vector 150230  Network.dyn_peer[75]  lookupHopsSig:vector  ETV
vector 150231  Network.dyn_peer[75]  lookupStabilitySig:vector  ETV
vector 150232  Network.dyn_peer[75]  lookupTimeSig:vector  ETV
vector 150290  Network.dyn_peer[95]  lookupHopsSig:vector  ETV
vector 150291  Network.dyn_peer[95]  lookupStabilitySig:vector  ETV
vector 150292  Network.dyn_peer[95]  lookupTimeSig:vector  ETV
vector 150293  Network.dyn_peer[96]  lookupHopsSig:vector  ETV
vector 150294  Network.dyn_peer[96]  lookupStabilitySig:vector  ETV
vector 150295  Network.dyn_peer[96]  lookupTimeSig:vector  ETV
vector 150167  Network.dyn_peer[54]  lookupHopsSig:vector  ETV
vector 150168  Network.dyn_peer[54]  lookupStabilitySig:vector  ETV
vector 150169  Network.dyn_peer[54]  lookupTimeSig:vector  ETV
vector 150260  Network.dyn_peer[85]  lookupHopsSig:vector  ETV
vector 150261  Network.dyn_peer[85]  lookupStabilitySig:vector  ETV
vector 150262  Network.dyn_peer[85]  lookupTimeSig:vector  ETV
vector 150116  Network.dyn_peer[37]  lookupHopsSig:vector  ETV
vector 150117  Network.dyn_peer[37]  lookupStabilitySig:vector  ETV
vector 150118  Network.dyn_peer[37]  lookupTimeSig:vector  ETV
vector 150209  Network.dyn_peer[68]  lookupHopsSig:vector  ETV
vector 150210  Network.dyn_peer[68]  lookupStabilitySig:vector  ETV
vector 150211  Network.dyn_peer[68]  lookupTimeSig:vector  ETV
vector 150170  Network.dyn_peer[55]  lookupHopsSig:vector  ETV
vector 150171  Network.dyn_peer[55]  lookupStabilitySig:vector  ETV
vector 150172  Network.dyn_peer[55]  lookupTimeSig:vector  ETV
vector 150233  Network.dyn_peer[76]  lookupHopsSig:vector  ETV
vector 150234  Network.dyn_peer[76]  lookupStabilitySig:vector  ETV
vector 150235  Network.dyn_peer[76]  lookupTimeSig:vector  ETV
vector 150176  Network.dyn_peer[57]  lookupHopsSig:vector  ETV
vector 150177  Network.dyn_peer[57]  lookupStabilitySig:vector  ETV
vector 150178  Network.dyn_peer[57]  lookupTimeSig:vector  ETV
vector 150236  Network.dyn_peer[77]  lookupHopsSig:vector  ETV
vector 150237  Network.dyn_peer[77]  lookupStabilitySig:vector  ETV
vector 150238  Network.dyn_peer[77]  lookupTimeSig:vector  ETV
vector 150299  Network.dyn_peer[98]  lookupHopsSig:vector  ETV
vector 150300  Network.dyn_peer[98]  lookupStabilitySig:vector  ETV
vector 150301  Network.dyn_peer[98]  lookupTimeSig:vector  ETV
vector 150278  Network.dyn_peer[91]  lookupHopsSig:vector  ETV
vector 150279  Network.dyn_peer[91]  lookupStabilitySig:vector  ETV
vector 150280  Network.dyn_peer[91]  lookupTimeSig:vector  ETV
vector 150221  Network.dyn_peer[72]  lookupHopsSig:vector  ETV
vector 150222  Network.dyn_peer[72]  lookupStabilitySig:vector  ETV
vector 150223  Network.dyn_peer[72]  lookupTimeSig:vector  ETV
vector 150155  Network.dyn_peer[50]  lookupHopsSig:vector  ETV
vector 150156  Network.dyn_peer[50]  lookupStabilitySig:vector  ETV
vector 150157  Network.dyn_peer[50]  lookupTimeSig:vector  ETV
vector 150224  Network.dyn_peer[73]  lookupHopsSig:vector  ETV
vector 150225  Network.dyn_peer[73]  lookupStabilitySig:vector  ETV
vector 150226  Network.dyn_peer[73]  lookupTimeSig:vector  ETV
150005	19818 128 18 3655 20.01 23.327408397032 5 0 12 29 265
150006	19946 187 18 3655 20.01 23.327408397032 5 0.30769228935242 1 3.5117646679282 2.7652793376285
150007	20133 133 18 3655 20.01 23.327408397032 5 0 1.3 3.3 3.27
150008	20266 97 25 2022 20.02 21.723206939699 4 0 10 14 108
150009	20363 128 25 2022 20.02 21.723206939699 4 0.5 1 2.7666666507721 2.0544444240464
150010	20491 102 25 2022 20.02 21.723206939699 4 0 1.1 1.7 1.39
150011	20593 189 202 4160 20.33 24.583410830142 7 1 10 38 262
150012	20782 293 202 4160 20.33 24.583410830142 7 0.27272725105286 0.94366197288036 5.1170956715941 4.1982325076826
150013	21075 202 202 4160 20.33 24.583410830142 7 0.2 1.1 4.4 3.38
150014	21277 136 71 2445 20.14 22.050788992966 5 1 6 14 56
150015	21413 211 71 2445 20.14 22.050788992966 5 0.14285713434219 0.88461538404226 3.4695777818561 2.7920938137852
150016	21624 146 71 2445 20.14 22.050788992966 5 0.1 0.7 1.8 0.86
150017	21770 80 80 3533 20.15 23.157869365084 3 1 16 29 401
150018	21850 123 80 3533 20.15 23.157869365084 3 0.14285713434219 0.79999999701977 1.6716706901789 1.1915773595795
150019	21973 84 80 3533 20.15 23.157869365084 3 0.1 1.7 3.1 4.59
150020	22057 96 89 1277 20.16 21.172521884617 4 1 3 8 18
150021	22153 156 89 1277 20.16 21.172521884617 4 0.66666665673256 0.79999999701977 2.8809523433447 2.0846484731276
150022	22309 104 89 1277 20.16 21.172521884617 4 0.1 0.4 1.1 0.35
150023	22413 39 852 1960 20.87 21.67 2 7 8 15 113
150024	22452 70 852 1960 20.87 21.67 2 -0.14285719394684 0.63157895207405 0.48872175812721 0.41930015056532
150025	22522 43 852 1960 20.87 21.67 2 0.8 0.8 1.6 1.28
150026	22565 127 47 2862 20.08 22.428970157315 5 0 8 19 107
150027	22692 151 47 2862 20.08 22.428970157315 5 0.375 1 3.448529407382 2.631325684823
150028	22843 135 47 2862 20.08 22.428970157315 5 0 0.9 2.3 1.49
150029	22978 99 167 3235 20.29 22.800202609365 4 2 14 24 232
150030	23077 157 167 3235 20.29 22.800202609365 4 0.42857140302658 0.7021276652813 2.39736571908 1.4811011298919
150031	23234 106 167 3235 20.29 22.800202609365 4 0.2 1.5 2.7 2.79
150032	23340 217 109 4318 20.2 25.724352340074 8 1 13 45 365
150033	23557 324 109 4318 20.2 25.724352340074 8 0.61538460850716 0.95833333209157 6.6612431518734 5.6466403634925
150034	23881 230 109 4318 20.2 25.724352340074 8 0.1 1.4 5.2 4.6
150035	24111 128 385 3714 20.51 23.428601633221 5 3 9 29 195
150036	24239 190 385 3714 20.51 23.428601633221 5 0.33333331346512 0.86956521868706 3.2302094399929 2.2545552536644
150037	24429 136 385 3714 20.51 23.428601633221 5 0.4 1 3.3 2.49
150038	24565 98 282 2756 20.42 22.33202310946 4 2 10 19 129
150039	24663 143 282 2756 20.42 22.33202310946 4 0.42857140302658 0.9333333298564 2.4619047269225 1.6647845449604
150040	24806 105 282 2756 20.42 22.33202310946 4 0.3 1.1 2.2 1.64
150041	24911 68 294 1901 20.43 21.637129990174 3 2 8 13 77
150042	24979 100 294 1901 20.43 21.637129990174 3 0.5 0.66666665673256 1.7222222089767 1.0030864028283
150043	25079 74 294 1901 20.43 21.637129990174 3 0.3 0.9 1.5 0.99
150044	25153 99 211 3192 20.34 22.750200987695 4 2 12 23 193
150045	25252 144 211 3192 20.34 22.750200987695 4 0.5 0.72093021869659 2.3923587799072 1.4562709804566
150046	25396 106 211 3192 20.34 22.750200987695 4 0.2 1.3 2.6 2.38
150047	25502 159 141 4133 20.25 24.488346732444 6 1 12 35 275
150048	25661 222 141 4133 20.25 24.488346732444 6 0.5 0.93406593054533 4.4547267407179 3.5009365102228
150049	25883 170 141 4133 20.25 24.488346732444 6 0.1 1.3 4 3.48
150050	26053 68 235 2075 20.36 21.765387900094 3 2 7 14 78
150051	26121 113 235 2075 20.36 21.765387900094 3 0.28571426868439 0.66666665673256 1.5523809194565 0.88607706737626
150052	26234 74 235 2075 20.36 21.765387900094 3 0.2 0.8 1.6 1.04
150053	26308 129 333 3630 20.47 23.288394906815 5 3 8 27 159
150054	26437 191 333 3630 20.47 23.288394906815 5 0.38461536169052 0.92537313699722 3.459988489747 2.6167444042233
150055	26628 139 333 3630 20.47 23.288394906815 5 0.3 0.9 3.1 2.11
150056	26767 100 251 3133 20.38 22.689410698809 4 2 10 22 172
150057	26867 146 251 3133 20.38 22.689410698809 4 0.33333331346512 0.8823529407382 2.5656862482429 1.8121578027424
150058	27013 107 251 3133 20.38 22.689410698809 4 0.2 1.1 2.5 2.15
150059	27120 67 363 1440 20.49 21.29895935019 3 3 3 9 27
150060	27187 86 363 1440 20.49 21.29895935019 3 0.5 0.75 1.8214285671711 1.1390306073792
150061	27273 73 363 1440 20.49 21.29895935019 3 0.3 0.4 1.1 0.41
150062	27346 98 603 3426 20.7 23.010746585702 4 2 15 25 263
150063	27444 157 603 3426 20.7 23.010746585702 4 0.16666668653488 0.84615384042263 2.4400932341814 1.7626796973855
150064	27601 105 603 3426 20.7 23.010746585702 4 0.3 1.6 2.8 3.06
150065	27706 68 183 1727 20.31 21.519263817723 3 1 5 11 51
150066	27774 103 183 1727 20.31 21.519263817723 3 0.28571426868439 0.79999999701977 1.7732142657042 1.1942888885615
150067	27877 74 183 1727 20.31 21.519263817723 3 0.1 0.6 1.3 0.73
150068	27951 40 125 2271 20.22 21.92 2 0 16 16 256
150069	27991 54 125 2271 20.22 21.92 2 0.27272725105286 1 1.2727272510529 1.0743801534668
150070	28045 41 125 2271 20.22 21.92 2 0 1.7 1.7 2.89
150071	28086 100 298 3279 20.43 22.842268354356 4 2 11 23 175
150072	28186 159 298 3279 20.43 22.842268354356 4 0.28571426868439 0.78431372344494 2.4589168578386 1.6628300104521
150073	28345 107 298 3279 20.43 22.842268354356 4 0.2 1.2 2.6 2.2
150074	28452 128 531 2780 20.64 22.356440220813 5 2 5 17 63
150075	28580 203 531 2780 20.64 22.356440220813 5 0.33333331346512 0.93548387289047 3.540992371738 2.7754474831723
150076	28783 138 531 2780 20.64 22.356440220813 5 0.3 0.6 2.1 0.93
150077	28921 187 222 4092 20.35 24.315986744222 7 1 7 27 153
150078	29108 292 222 4092 20.35 24.315986744222 7 0.75862069427967 0.94666666537523 5.9858942180872 5.1470737050183
150079	29400 201 222 4092 20.35 24.315986744222 7 0.1 0.8 3.3 2.11
150080	29601 161 1130 3972 21.06 23.977624668449 6 3 10 32 216
150081	29762 235 1130 3972 21.06 23.977624668449 6 0 0.96296296268702 4.4024435058236 3.9486757837976
150082	29997 172 1130 3972 21.06 23.977624668449 6 0.4 1.1 3.7 2.69
150083	30169 99 337 3456 20.47 23.05056297539 4 2 14 24 240
150084	30268 158 337 3456 20.47 23.05056297539 4 0.39999997615814 0.86666665971279 2.6919539868832 1.9310608689726
150085	30426 106 337 3456 20.47 23.05056297539 4 0.2 1.5 2.7 2.87
150086	30532 129 350 3330 20.48 22.894783275685 5 2 9 22 130
150087	30661 191 350 3330 20.48 22.894783275685 5 0.375 0.90909090638161 3.5456521213055 2.6855040313749
150088	30852 137 350 3330 20.48 22.894783275685 5 0.2 1 2.6 1.74
150089	30989 68 477 1174 20.59 21.091572559692 3 1 3 6 14
150090	31057 88 477 1174 20.59 21.091572559692 3 0.5 0.85714285075665 2.1071428507566 1.5471938666032
150091	31145 74 477 1174 20.59 21.091572559692 3 0.2 0.3 0.8 0.22
150092	31219 69 373 3344 20.5 22.908462403519 3 2 12 24 248
150093	31288 112 373 3344 20.5 22.908462403519 3 0.44444441795349 0.77777777612209 1.8888888508081 1.2469135408784
150094	31400 73 373 3344 20.5 22.908462403519 3 0.2 1.3 2.6 2.94
150095	31473 100 389 3433 20.51 23.018243431374 4 2 15 24 254
150096	31573 158 389 3433 20.51 23.018243431374 4 0.42857140302658 0.76923076808453 2.6013109236956 1.7627701274785
150097	31731 107 389 3433 20.51 23.018243431374 4 0.2 1.6 2.7 3.01
150098	31838 71 1606 2746 21.42 22.327978642561 3 1 11 18 158
150099	31909 115 1606 2746 21.42 22.327978642561 3 0.15384614467621 0.94444444403052 1.8913940303028 1.5446570131633
150100	32024 76 1606 2746 21.42 22.327978642561 3 0.2 1.1 2 1.74
150101	32100 100 411 3778 20.53 23.534503097265 4 2 13 29 271
150102	32200 159 411 3778 20.53 23.534503097265 4 0.43478262424469 0.90140844881535 2.8400670289993 2.146936963818
150103	32359 107 411 3778 20.53 23.534503097265 4 0.2 1.4 3.2 3.28
150104	32466 129 659 2996 20.74 22.552255649102 5 1 6 18 78
150105	32595 203 659 2996 20.74 22.552255649102 5 0.33333331346512 0.9545454531908 3.5996809899807 2.8308125049373
150106	32798 139 659 2996 20.74 22.552255649102 5 0.2 0.7 2.2 1.1
150107	32937 79 1250 2317 21.15 21.95805877003 3 2 8 14 84
150108	33016 124 1250 2317 21.15 21.95805877003 3 0.19999998807907 0.91304347664118 1.9025171473622 1.4969170810529
150109	33140 85 1250 2317 21.15 21.95805877003 3 0.3 0.8 1.6 0.98
150110	33225 39 977 2329 20.96 21.96 2 6 9 15 117
150111	33264 69 977 2329 20.96 21.96 2 0.14285713434219 0.60869565606117 0.75155279040337 0.3909185625402
150112	33333 41 977 2329 20.96 21.96 2 0.6 1 1.6 1.36
150113	33374 99 699 2911 20.77 22.487228977716 4 3 6 18 86
150114	33473 150 699 2911 20.77 22.487228977716 4 0.42857140302658 0.84375 2.6995941102505 1.9145131013152
150115	33623 107 699 2911 20.77 22.487228977716 4 0.4 0.7 2.1 1.17
150116	33730 71 2218 3035 21.88 22.588635858618 3 1 15 20 242
150117	33801 104 2218 3035 21.88 22.588635858618 3 0.31818181276321 0.97368421033025 2.1668660230935 1.8149256074197
150118	33905 76 2218 3035 21.88 22.588635858618 3 0.2 1.5 2.2 2.54
150119	33981 128 481 3675 20.59 23.36778516555 5 2 9 23 139
150120	34109 203 481 3675 20.59 23.36778516555 5 0.47058820724487 0.95652173832059 3.8813364170492 3.1838571099465
150121	34312 136 481 3675 20.59 23.36778516555 5 0.2 1 2.7 1.85
150122	34448 97 1572 3570 21.4 23.2104689204 4 4 10 25 177
150123	34545 156 1572 3570 21.4 23.2104689204 4 0.23076921701431 0.90163934230804 2.8035315424204 2.2631380539077
150124	34701 102 1572 3570 21.4 23.2104689204 4 0.5 1 2.8 2.1
150125	34803 129 617 3588 20.71 23.229101360936 5 2 9 24 152
150126	34932 191 617 3588 20.71 23.229101360936 5 0.5 0.89285714179277 3.6461038812995 2.7569678460868
150127	35123 137 617 3588 20.71 23.229101360936 5 0.3 1 2.8 1.98
150128	35260 81 1481 3878 21.32 23.726379828109 3 5 17 31 395
150129	35341 125 1481 3878 21.32 23.726379828109 3 0.30769228935242 0.78260870277882 1.8723522722721 1.3187551313621
150130	35466 86 1481 3878 21.32 23.726379828109 3 0.6 1.8 3.3 4.41
150131	35552 101 1083 3839 21.03 23.645500375155 4 6 10 29 221
150132	35653 160 1083 3839 21.03 23.645500375155 4 0.14285713434219 0.86666665971279 2.51991340518 1.9229259048212
150133	35813 108 1083 3839 21.03 23.645500375155 4 0.6 1.1 3.2 2.7