version 2
run Stability2-44-20130528-01:26:15-24168
attr configname Stability2
attr datetime 20130528-01:26:15
attr experiment Stability2
attr inifile omnetpp.ini
attr iterationvars $0=50
attr iterationvars2 "$0=50, $repetition=4"
attr measurement $0=50
attr network Network
attr processid 24168
attr repetition 4
attr replication #4
attr resultdir results
attr runnumber 44
attr seedset 44

vector 1350044  Network.churner  inGoingSizeSig:vector  ETV
vector 1320050  Network.dyn_peer[2]  lookupHopsSig:vector  ETV
vector 1320051  Network.dyn_peer[2]  lookupStabilitySig:vector  ETV
vector 1320052  Network.dyn_peer[2]  lookupTimeSig:vector  ETV
vector 1320062  Network.dyn_peer[6]  lookupHopsSig:vector  ETV
vector 1320063  Network.dyn_peer[6]  lookupStabilitySig:vector  ETV
vector 1320064  Network.dyn_peer[6]  lookupTimeSig:vector  ETV
vector 1320068  Network.dyn_peer[8]  lookupHopsSig:vector  ETV
vector 1320069  Network.dyn_peer[8]  lookupStabilitySig:vector  ETV
vector 1320070  Network.dyn_peer[8]  lookupTimeSig:vector  ETV
vector 1320074  Network.dyn_peer[10]  lookupHopsSig:vector  ETV
vector 1320075  Network.dyn_peer[10]  lookupStabilitySig:vector  ETV
vector 1320076  Network.dyn_peer[10]  lookupTimeSig:vector  ETV
vector 1320047  Network.dyn_peer[1]  lookupHopsSig:vector  ETV
vector 1320048  Network.dyn_peer[1]  lookupStabilitySig:vector  ETV
vector 1320049  Network.dyn_peer[1]  lookupTimeSig:vector  ETV
vector 1320053  Network.dyn_peer[3]  lookupHopsSig:vector  ETV
vector 1320054  Network.dyn_peer[3]  lookupStabilitySig:vector  ETV
vector 1320055  Network.dyn_peer[3]  lookupTimeSig:vector  ETV
vector 1320056  Network.dyn_peer[4]  lookupHopsSig:vector  ETV
vector 1320057  Network.dyn_peer[4]  lookupStabilitySig:vector  ETV
vector 1320058  Network.dyn_peer[4]  lookupTimeSig:vector  ETV
vector 1320059  Network.dyn_peer[5]  lookupHopsSig:vector  ETV
vector 1320060  Network.dyn_peer[5]  lookupStabilitySig:vector  ETV
vector 1320061  Network.dyn_peer[5]  lookupTimeSig:vector  ETV
vector 1320071  Network.dyn_peer[9]  lookupHopsSig:vector  ETV
vector 1320072  Network.dyn_peer[9]  lookupStabilitySig:vector  ETV
vector 1320073  Network.dyn_peer[9]  lookupTimeSig:vector  ETV
vector 1320044  Network.dyn_peer[0]  lookupHopsSig:vector  ETV
vector 1320045  Network.dyn_peer[0]  lookupStabilitySig:vector  ETV
vector 1320046  Network.dyn_peer[0]  lookupTimeSig:vector  ETV
vector 1320095  Network.dyn_peer[17]  lookupHopsSig:vector  ETV
vector 1320096  Network.dyn_peer[17]  lookupStabilitySig:vector  ETV
vector 1320097  Network.dyn_peer[17]  lookupTimeSig:vector  ETV
vector 1320077  Network.dyn_peer[11]  lookupHopsSig:vector  ETV
vector 1320078  Network.dyn_peer[11]  lookupStabilitySig:vector  ETV
vector 1320079  Network.dyn_peer[11]  lookupTimeSig:vector  ETV
vector 1320107  Network.dyn_peer[21]  lookupHopsSig:vector  ETV
vector 1320108  Network.dyn_peer[21]  lookupStabilitySig:vector  ETV
vector 1320109  Network.dyn_peer[21]  lookupTimeSig:vector  ETV
vector 1320128  Network.dyn_peer[28]  lookupHopsSig:vector  ETV
vector 1320129  Network.dyn_peer[28]  lookupStabilitySig:vector  ETV
vector 1320130  Network.dyn_peer[28]  lookupTimeSig:vector  ETV
vector 1320104  Network.dyn_peer[20]  lookupHopsSig:vector  ETV
vector 1320105  Network.dyn_peer[20]  lookupStabilitySig:vector  ETV
vector 1320106  Network.dyn_peer[20]  lookupTimeSig:vector  ETV
vector 1320080  Network.dyn_peer[12]  lookupHopsSig:vector  ETV
vector 1320081  Network.dyn_peer[12]  lookupStabilitySig:vector  ETV
vector 1320082  Network.dyn_peer[12]  lookupTimeSig:vector  ETV
vector 1320176  Network.dyn_peer[44]  lookupHopsSig:vector  ETV
vector 1320177  Network.dyn_peer[44]  lookupStabilitySig:vector  ETV
vector 1320178  Network.dyn_peer[44]  lookupTimeSig:vector  ETV
vector 1320089  Network.dyn_peer[15]  lookupHopsSig:vector  ETV
vector 1320090  Network.dyn_peer[15]  lookupStabilitySig:vector  ETV
vector 1320091  Network.dyn_peer[15]  lookupTimeSig:vector  ETV
vector 1320065  Network.dyn_peer[7]  lookupHopsSig:vector  ETV
vector 1320066  Network.dyn_peer[7]  lookupStabilitySig:vector  ETV
vector 1320067  Network.dyn_peer[7]  lookupTimeSig:vector  ETV
vector 1320101  Network.dyn_peer[19]  lookupHopsSig:vector  ETV
vector 1320102  Network.dyn_peer[19]  lookupStabilitySig:vector  ETV
vector 1320103  Network.dyn_peer[19]  lookupTimeSig:vector  ETV
vector 1320131  Network.dyn_peer[29]  lookupHopsSig:vector  ETV
vector 1320132  Network.dyn_peer[29]  lookupStabilitySig:vector  ETV
vector 1320133  Network.dyn_peer[29]  lookupTimeSig:vector  ETV
vector 1320164  Network.dyn_peer[40]  lookupHopsSig:vector  ETV
vector 1320165  Network.dyn_peer[40]  lookupStabilitySig:vector  ETV
vector 1320166  Network.dyn_peer[40]  lookupTimeSig:vector  ETV
vector 1320110  Network.dyn_peer[22]  lookupHopsSig:vector  ETV
vector 1320111  Network.dyn_peer[22]  lookupStabilitySig:vector  ETV
vector 1320112  Network.dyn_peer[22]  lookupTimeSig:vector  ETV
vector 1320083  Network.dyn_peer[13]  lookupHopsSig:vector  ETV
vector 1320084  Network.dyn_peer[13]  lookupStabilitySig:vector  ETV
vector 1320085  Network.dyn_peer[13]  lookupTimeSig:vector  ETV
vector 1320143  Network.dyn_peer[33]  lookupHopsSig:vector  ETV
vector 1320144  Network.dyn_peer[33]  lookupStabilitySig:vector  ETV
vector 1320145  Network.dyn_peer[33]  lookupTimeSig:vector  ETV
vector 1320116  Network.dyn_peer[24]  lookupHopsSig:vector  ETV
vector 1320117  Network.dyn_peer[24]  lookupStabilitySig:vector  ETV
vector 1320118  Network.dyn_peer[24]  lookupTimeSig:vector  ETV
vector 1320146  Network.dyn_peer[34]  lookupHopsSig:vector  ETV
vector 1320147  Network.dyn_peer[34]  lookupStabilitySig:vector  ETV
vector 1320148  Network.dyn_peer[34]  lookupTimeSig:vector  ETV
vector 1320119  Network.dyn_peer[25]  lookupHopsSig:vector  ETV
vector 1320120  Network.dyn_peer[25]  lookupStabilitySig:vector  ETV
vector 1320121  Network.dyn_peer[25]  lookupTimeSig:vector  ETV
vector 1320149  Network.dyn_peer[35]  lookupHopsSig:vector  ETV
vector 1320150  Network.dyn_peer[35]  lookupStabilitySig:vector  ETV
vector 1320151  Network.dyn_peer[35]  lookupTimeSig:vector  ETV
vector 1320152  Network.dyn_peer[36]  lookupHopsSig:vector  ETV
vector 1320153  Network.dyn_peer[36]  lookupStabilitySig:vector  ETV
vector 1320154  Network.dyn_peer[36]  lookupTimeSig:vector  ETV
vector 1320098  Network.dyn_peer[18]  lookupHopsSig:vector  ETV
vector 1320099  Network.dyn_peer[18]  lookupStabilitySig:vector  ETV
vector 1320100  Network.dyn_peer[18]  lookupTimeSig:vector  ETV
vector 1320134  Network.dyn_peer[30]  lookupHopsSig:vector  ETV
vector 1320135  Network.dyn_peer[30]  lookupStabilitySig:vector  ETV
vector 1320136  Network.dyn_peer[30]  lookupTimeSig:vector  ETV
vector 1320206  Network.dyn_peer[54]  lookupHopsSig:vector  ETV
vector 1320207  Network.dyn_peer[54]  lookupStabilitySig:vector  ETV
vector 1320208  Network.dyn_peer[54]  lookupTimeSig:vector  ETV
vector 1320092  Network.dyn_peer[16]  lookupHopsSig:vector  ETV
vector 1320093  Network.dyn_peer[16]  lookupStabilitySig:vector  ETV
vector 1320094  Network.dyn_peer[16]  lookupTimeSig:vector  ETV
vector 1320122  Network.dyn_peer[26]  lookupHopsSig:vector  ETV
vector 1320123  Network.dyn_peer[26]  lookupStabilitySig:vector  ETV
vector 1320124  Network.dyn_peer[26]  lookupTimeSig:vector  ETV
vector 1320113  Network.dyn_peer[23]  lookupHopsSig:vector  ETV
vector 1320114  Network.dyn_peer[23]  lookupStabilitySig:vector  ETV
vector 1320115  Network.dyn_peer[23]  lookupTimeSig:vector  ETV
vector 1320086  Network.dyn_peer[14]  lookupHopsSig:vector  ETV
vector 1320087  Network.dyn_peer[14]  lookupStabilitySig:vector  ETV
vector 1320088  Network.dyn_peer[14]  lookupTimeSig:vector  ETV
vector 1320212  Network.dyn_peer[56]  lookupHopsSig:vector  ETV
vector 1320213  Network.dyn_peer[56]  lookupStabilitySig:vector  ETV
vector 1320214  Network.dyn_peer[56]  lookupTimeSig:vector  ETV
vector 1320188  Network.dyn_peer[48]  lookupHopsSig:vector  ETV
vector 1320189  Network.dyn_peer[48]  lookupStabilitySig:vector  ETV
vector 1320190  Network.dyn_peer[48]  lookupTimeSig:vector  ETV
vector 1320161  Network.dyn_peer[39]  lookupHopsSig:vector  ETV
vector 1320162  Network.dyn_peer[39]  lookupStabilitySig:vector  ETV
vector 1320163  Network.dyn_peer[39]  lookupTimeSig:vector  ETV
vector 1320173  Network.dyn_peer[43]  lookupHopsSig:vector  ETV
vector 1320174  Network.dyn_peer[43]  lookupStabilitySig:vector  ETV
vector 1320175  Network.dyn_peer[43]  lookupTimeSig:vector  ETV
vector 1320239  Network.dyn_peer[65]  lookupHopsSig:vector  ETV
vector 1320240  Network.dyn_peer[65]  lookupStabilitySig:vector  ETV
vector 1320241  Network.dyn_peer[65]  lookupTimeSig:vector  ETV
vector 1320248  Network.dyn_peer[68]  lookupHopsSig:vector  ETV
vector 1320249  Network.dyn_peer[68]  lookupStabilitySig:vector  ETV
vector 1320250  Network.dyn_peer[68]  lookupTimeSig:vector  ETV
vector 1320281  Network.dyn_peer[79]  lookupHopsSig:vector  ETV
vector 1320282  Network.dyn_peer[79]  lookupStabilitySig:vector  ETV
vector 1320283  Network.dyn_peer[79]  lookupTimeSig:vector  ETV
vector 1320179  Network.dyn_peer[45]  lookupHopsSig:vector  ETV
vector 1320180  Network.dyn_peer[45]  lookupStabilitySig:vector  ETV
vector 1320181  Network.dyn_peer[45]  lookupTimeSig:vector  ETV
vector 1320182  Network.dyn_peer[46]  lookupHopsSig:vector  ETV
vector 1320183  Network.dyn_peer[46]  lookupStabilitySig:vector  ETV
vector 1320184  Network.dyn_peer[46]  lookupTimeSig:vector  ETV
vector 1320221  Network.dyn_peer[59]  lookupHopsSig:vector  ETV
vector 1320222  Network.dyn_peer[59]  lookupStabilitySig:vector  ETV
vector 1320223  Network.dyn_peer[59]  lookupTimeSig:vector  ETV
vector 1320251  Network.dyn_peer[69]  lookupHopsSig:vector  ETV
vector 1320252  Network.dyn_peer[69]  lookupStabilitySig:vector  ETV
vector 1320253  Network.dyn_peer[69]  lookupTimeSig:vector  ETV
vector 1320203  Network.dyn_peer[53]  lookupHopsSig:vector  ETV
vector 1320204  Network.dyn_peer[53]  lookupStabilitySig:vector  ETV
vector 1320205  Network.dyn_peer[53]  lookupTimeSig:vector  ETV
vector 1320272  Network.dyn_peer[76]  lookupHopsSig:vector  ETV
vector 1320273  Network.dyn_peer[76]  lookupStabilitySig:vector  ETV
vector 1320274  Network.dyn_peer[76]  lookupTimeSig:vector  ETV
vector 1320302  Network.dyn_peer[86]  lookupHopsSig:vector  ETV
vector 1320303  Network.dyn_peer[86]  lookupStabilitySig:vector  ETV
vector 1320304  Network.dyn_peer[86]  lookupTimeSig:vector  ETV
vector 1320140  Network.dyn_peer[32]  lookupHopsSig:vector  ETV
vector 1320141  Network.dyn_peer[32]  lookupStabilitySig:vector  ETV
vector 1320142  Network.dyn_peer[32]  lookupTimeSig:vector  ETV
vector 1320233  Network.dyn_peer[63]  lookupHopsSig:vector  ETV
vector 1320234  Network.dyn_peer[63]  lookupStabilitySig:vector  ETV
vector 1320235  Network.dyn_peer[63]  lookupTimeSig:vector  ETV
vector 1320158  Network.dyn_peer[38]  lookupHopsSig:vector  ETV
vector 1320159  Network.dyn_peer[38]  lookupStabilitySig:vector  ETV
vector 1320160  Network.dyn_peer[38]  lookupTimeSig:vector  ETV
vector 1320314  Network.dyn_peer[90]  lookupHopsSig:vector  ETV
vector 1320315  Network.dyn_peer[90]  lookupStabilitySig:vector  ETV
vector 1320316  Network.dyn_peer[90]  lookupTimeSig:vector  ETV
vector 1320137  Network.dyn_peer[31]  lookupHopsSig:vector  ETV
vector 1320138  Network.dyn_peer[31]  lookupStabilitySig:vector  ETV
vector 1320139  Network.dyn_peer[31]  lookupTimeSig:vector  ETV
vector 1320227  Network.dyn_peer[61]  lookupHopsSig:vector  ETV
vector 1320228  Network.dyn_peer[61]  lookupStabilitySig:vector  ETV
vector 1320229  Network.dyn_peer[61]  lookupTimeSig:vector  ETV
vector 1320350  Network.dyn_peer[102]  lookupHopsSig:vector  ETV
vector 1320351  Network.dyn_peer[102]  lookupStabilitySig:vector  ETV
vector 1320352  Network.dyn_peer[102]  lookupTimeSig:vector  ETV
vector 1320209  Network.dyn_peer[55]  lookupHopsSig:vector  ETV
vector 1320210  Network.dyn_peer[55]  lookupStabilitySig:vector  ETV
vector 1320211  Network.dyn_peer[55]  lookupTimeSig:vector  ETV
vector 1320332  Network.dyn_peer[96]  lookupHopsSig:vector  ETV
vector 1320333  Network.dyn_peer[96]  lookupStabilitySig:vector  ETV
vector 1320334  Network.dyn_peer[96]  lookupTimeSig:vector  ETV
vector 1320155  Network.dyn_peer[37]  lookupHopsSig:vector  ETV
vector 1320156  Network.dyn_peer[37]  lookupStabilitySig:vector  ETV
vector 1320157  Network.dyn_peer[37]  lookupTimeSig:vector  ETV
vector 1320245  Network.dyn_peer[67]  lookupHopsSig:vector  ETV
vector 1320246  Network.dyn_peer[67]  lookupStabilitySig:vector  ETV
vector 1320247  Network.dyn_peer[67]  lookupTimeSig:vector  ETV
vector 1320275  Network.dyn_peer[77]  lookupHopsSig:vector  ETV
vector 1320276  Network.dyn_peer[77]  lookupStabilitySig:vector  ETV
vector 1320277  Network.dyn_peer[77]  lookupTimeSig:vector  ETV
vector 1320257  Network.dyn_peer[71]  lookupHopsSig:vector  ETV
vector 1320258  Network.dyn_peer[71]  lookupStabilitySig:vector  ETV
vector 1320259  Network.dyn_peer[71]  lookupTimeSig:vector  ETV
vector 1320317  Network.dyn_peer[91]  lookupHopsSig:vector  ETV
vector 1320318  Network.dyn_peer[91]  lookupStabilitySig:vector  ETV
vector 1320319  Network.dyn_peer[91]  lookupTimeSig:vector  ETV
vector 1320293  Network.dyn_peer[83]  lookupHopsSig:vector  ETV
vector 1320294  Network.dyn_peer[83]  lookupStabilitySig:vector  ETV
vector 1320295  Network.dyn_peer[83]  lookupTimeSig:vector  ETV
vector 1320236  Network.dyn_peer[64]  lookupHopsSig:vector  ETV
vector 1320237  Network.dyn_peer[64]  lookupStabilitySig:vector  ETV
vector 1320238  Network.dyn_peer[64]  lookupTimeSig:vector  ETV
vector 1320266  Network.dyn_peer[74]  lookupHopsSig:vector  ETV
vector 1320267  Network.dyn_peer[74]  lookupStabilitySig:vector  ETV
vector 1320268  Network.dyn_peer[74]  lookupTimeSig:vector  ETV
vector 1320329  Network.dyn_peer[95]  lookupHopsSig:vector  ETV
vector 1320330  Network.dyn_peer[95]  lookupStabilitySig:vector  ETV
vector 1320331  Network.dyn_peer[95]  lookupTimeSig:vector  ETV
vector 1320191  Network.dyn_peer[49]  lookupHopsSig:vector  ETV
vector 1320192  Network.dyn_peer[49]  lookupStabilitySig:vector  ETV
vector 1320193  Network.dyn_peer[49]  lookupTimeSig:vector  ETV
vector 1320401  Network.dyn_peer[119]  lookupHopsSig:vector  ETV
vector 1320402  Network.dyn_peer[119]  lookupStabilitySig:vector  ETV
vector 1320403  Network.dyn_peer[119]  lookupTimeSig:vector  ETV
vector 1320374  Network.dyn_peer[110]  lookupHopsSig:vector  ETV
vector 1320375  Network.dyn_peer[110]  lookupStabilitySig:vector  ETV
vector 1320376  Network.dyn_peer[110]  lookupTimeSig:vector  ETV
vector 1320263  Network.dyn_peer[73]  lookupHopsSig:vector  ETV
vector 1320264  Network.dyn_peer[73]  lookupStabilitySig:vector  ETV
vector 1320265  Network.dyn_peer[73]  lookupTimeSig:vector  ETV
vector 1320353  Network.dyn_peer[103]  lookupHopsSig:vector  ETV
vector 1320354  Network.dyn_peer[103]  lookupStabilitySig:vector  ETV
vector 1320355  Network.dyn_peer[103]  lookupTimeSig:vector  ETV
vector 1320299  Network.dyn_peer[85]  lookupHopsSig:vector  ETV
vector 1320300  Network.dyn_peer[85]  lookupStabilitySig:vector  ETV
vector 1320301  Network.dyn_peer[85]  lookupTimeSig:vector  ETV
vector 1320194  Network.dyn_peer[50]  lookupHopsSig:vector  ETV
vector 1320195  Network.dyn_peer[50]  lookupStabilitySig:vector  ETV
vector 1320196  Network.dyn_peer[50]  lookupTimeSig:vector  ETV
vector 1320200  Network.dyn_peer[52]  lookupHopsSig:vector  ETV
vector 1320201  Network.dyn_peer[52]  lookupStabilitySig:vector  ETV
vector 1320202  Network.dyn_peer[52]  lookupTimeSig:vector  ETV
vector 1320230  Network.dyn_peer[62]  lookupHopsSig:vector  ETV
vector 1320231  Network.dyn_peer[62]  lookupStabilitySig:vector  ETV
vector 1320232  Network.dyn_peer[62]  lookupTimeSig:vector  ETV
vector 1320446  Network.dyn_peer[134]  lookupHopsSig:vector  ETV
vector 1320447  Network.dyn_peer[134]  lookupStabilitySig:vector  ETV
vector 1320448  Network.dyn_peer[134]  lookupTimeSig:vector  ETV
vector 1320422  Network.dyn_peer[126]  lookupHopsSig:vector  ETV
vector 1320423  Network.dyn_peer[126]  lookupStabilitySig:vector  ETV
vector 1320424  Network.dyn_peer[126]  lookupTimeSig:vector  ETV
vector 1320425  Network.dyn_peer[127]  lookupHopsSig:vector  ETV
vector 1320426  Network.dyn_peer[127]  lookupStabilitySig:vector  ETV
vector 1320427  Network.dyn_peer[127]  lookupTimeSig:vector  ETV
vector 1320398  Network.dyn_peer[118]  lookupHopsSig:vector  ETV
vector 1320399  Network.dyn_peer[118]  lookupStabilitySig:vector  ETV
vector 1320400  Network.dyn_peer[118]  lookupTimeSig:vector  ETV
vector 1320461  Network.dyn_peer[139]  lookupHopsSig:vector  ETV
vector 1320462  Network.dyn_peer[139]  lookupStabilitySig:vector  ETV
vector 1320463  Network.dyn_peer[139]  lookupTimeSig:vector  ETV
vector 1320410  Network.dyn_peer[122]  lookupHopsSig:vector  ETV
vector 1320411  Network.dyn_peer[122]  lookupStabilitySig:vector  ETV
vector 1320412  Network.dyn_peer[122]  lookupTimeSig:vector  ETV
vector 1320476  Network.dyn_peer[144]  lookupHopsSig:vector  ETV
vector 1320477  Network.dyn_peer[144]  lookupStabilitySig:vector  ETV
vector 1320478  Network.dyn_peer[144]  lookupTimeSig:vector  ETV
vector 1320506  Network.dyn_peer[154]  lookupHopsSig:vector  ETV
vector 1320507  Network.dyn_peer[154]  lookupStabilitySig:vector  ETV
vector 1320508  Network.dyn_peer[154]  lookupTimeSig:vector  ETV
vector 1320308  Network.dyn_peer[88]  lookupHopsSig:vector  ETV
vector 1320309  Network.dyn_peer[88]  lookupStabilitySig:vector  ETV
vector 1320310  Network.dyn_peer[88]  lookupTimeSig:vector  ETV
vector 1320170  Network.dyn_peer[42]  lookupHopsSig:vector  ETV
vector 1320171  Network.dyn_peer[42]  lookupStabilitySig:vector  ETV
vector 1320172  Network.dyn_peer[42]  lookupTimeSig:vector  ETV
vector 1320260  Network.dyn_peer[72]  lookupHopsSig:vector  ETV
vector 1320261  Network.dyn_peer[72]  lookupStabilitySig:vector  ETV
vector 1320262  Network.dyn_peer[72]  lookupTimeSig:vector  ETV
vector 1320380  Network.dyn_peer[112]  lookupHopsSig:vector  ETV
vector 1320381  Network.dyn_peer[112]  lookupStabilitySig:vector  ETV
vector 1320382  Network.dyn_peer[112]  lookupTimeSig:vector  ETV
vector 1320500  Network.dyn_peer[152]  lookupHopsSig:vector  ETV
vector 1320501  Network.dyn_peer[152]  lookupStabilitySig:vector  ETV
vector 1320502  Network.dyn_peer[152]  lookupTimeSig:vector  ETV
vector 1320323  Network.dyn_peer[93]  lookupHopsSig:vector  ETV
vector 1320324  Network.dyn_peer[93]  lookupStabilitySig:vector  ETV
vector 1320325  Network.dyn_peer[93]  lookupTimeSig:vector  ETV
vector 1320383  Network.dyn_peer[113]  lookupHopsSig:vector  ETV
vector 1320384  Network.dyn_peer[113]  lookupStabilitySig:vector  ETV
vector 1320385  Network.dyn_peer[113]  lookupTimeSig:vector  ETV
vector 1320269  Network.dyn_peer[75]  lookupHopsSig:vector  ETV
vector 1320270  Network.dyn_peer[75]  lookupStabilitySig:vector  ETV
vector 1320271  Network.dyn_peer[75]  lookupTimeSig:vector  ETV
vector 1320389  Network.dyn_peer[115]  lookupHopsSig:vector  ETV
vector 1320390  Network.dyn_peer[115]  lookupStabilitySig:vector  ETV
vector 1320391  Network.dyn_peer[115]  lookupTimeSig:vector  ETV
vector 1320449  Network.dyn_peer[135]  lookupHopsSig:vector  ETV
vector 1320450  Network.dyn_peer[135]  lookupStabilitySig:vector  ETV
vector 1320451  Network.dyn_peer[135]  lookupTimeSig:vector  ETV
vector 1320362  Network.dyn_peer[106]  lookupHopsSig:vector  ETV
vector 1320363  Network.dyn_peer[106]  lookupStabilitySig:vector  ETV
vector 1320364  Network.dyn_peer[106]  lookupTimeSig:vector  ETV
vector 1320215  Network.dyn_peer[57]  lookupHopsSig:vector  ETV
vector 1320216  Network.dyn_peer[57]  lookupStabilitySig:vector  ETV
vector 1320217  Network.dyn_peer[57]  lookupTimeSig:vector  ETV
vector 1320548  Network.dyn_peer[168]  lookupHopsSig:vector  ETV
vector 1320549  Network.dyn_peer[168]  lookupStabilitySig:vector  ETV
vector 1320550  Network.dyn_peer[168]  lookupTimeSig:vector  ETV
vector 1320431  Network.dyn_peer[129]  lookupHopsSig:vector  ETV
vector 1320432  Network.dyn_peer[129]  lookupStabilitySig:vector  ETV
vector 1320433  Network.dyn_peer[129]  lookupTimeSig:vector  ETV
vector 1320254  Network.dyn_peer[70]  lookupHopsSig:vector  ETV
vector 1320255  Network.dyn_peer[70]  lookupStabilitySig:vector  ETV
vector 1320256  Network.dyn_peer[70]  lookupTimeSig:vector  ETV
vector 1320326  Network.dyn_peer[94]  lookupHopsSig:vector  ETV
vector 1320327  Network.dyn_peer[94]  lookupStabilitySig:vector  ETV
vector 1320328  Network.dyn_peer[94]  lookupTimeSig:vector  ETV
vector 1320416  Network.dyn_peer[124]  lookupHopsSig:vector  ETV
vector 1320417  Network.dyn_peer[124]  lookupStabilitySig:vector  ETV
vector 1320418  Network.dyn_peer[124]  lookupTimeSig:vector  ETV
vector 1320542  Network.dyn_peer[166]  lookupHopsSig:vector  ETV
vector 1320543  Network.dyn_peer[166]  lookupStabilitySig:vector  ETV
vector 1320544  Network.dyn_peer[166]  lookupTimeSig:vector  ETV
vector 1320365  Network.dyn_peer[107]  lookupHopsSig:vector  ETV
vector 1320366  Network.dyn_peer[107]  lookupStabilitySig:vector  ETV
vector 1320367  Network.dyn_peer[107]  lookupTimeSig:vector  ETV
vector 1320485  Network.dyn_peer[147]  lookupHopsSig:vector  ETV
vector 1320486  Network.dyn_peer[147]  lookupStabilitySig:vector  ETV
vector 1320487  Network.dyn_peer[147]  lookupTimeSig:vector  ETV
vector 1320368  Network.dyn_peer[108]  lookupHopsSig:vector  ETV
vector 1320369  Network.dyn_peer[108]  lookupStabilitySig:vector  ETV
vector 1320370  Network.dyn_peer[108]  lookupTimeSig:vector  ETV
vector 1320518  Network.dyn_peer[158]  lookupHopsSig:vector  ETV
vector 1320519  Network.dyn_peer[158]  lookupStabilitySig:vector  ETV
vector 1320520  Network.dyn_peer[158]  lookupTimeSig:vector  ETV
vector 1320404  Network.dyn_peer[120]  lookupHopsSig:vector  ETV
vector 1320405  Network.dyn_peer[120]  lookupStabilitySig:vector  ETV
vector 1320406  Network.dyn_peer[120]  lookupTimeSig:vector  ETV
vector 1320434  Network.dyn_peer[130]  lookupHopsSig:vector  ETV
vector 1320435  Network.dyn_peer[130]  lookupStabilitySig:vector  ETV
vector 1320436  Network.dyn_peer[130]  lookupTimeSig:vector  ETV
vector 1320524  Network.dyn_peer[160]  lookupHopsSig:vector  ETV
vector 1320525  Network.dyn_peer[160]  lookupStabilitySig:vector  ETV
vector 1320526  Network.dyn_peer[160]  lookupTimeSig:vector  ETV
vector 1320167  Network.dyn_peer[41]  lookupHopsSig:vector  ETV
vector 1320168  Network.dyn_peer[41]  lookupStabilitySig:vector  ETV
vector 1320169  Network.dyn_peer[41]  lookupTimeSig:vector  ETV
vector 1320347  Network.dyn_peer[101]  lookupHopsSig:vector  ETV
vector 1320348  Network.dyn_peer[101]  lookupStabilitySig:vector  ETV
vector 1320349  Network.dyn_peer[101]  lookupTimeSig:vector  ETV
vector 1320593  Network.dyn_peer[183]  lookupHopsSig:vector  ETV
vector 1320594  Network.dyn_peer[183]  lookupStabilitySig:vector  ETV
vector 1320595  Network.dyn_peer[183]  lookupTimeSig:vector  ETV
vector 1320395  Network.dyn_peer[117]  lookupHopsSig:vector  ETV
vector 1320396  Network.dyn_peer[117]  lookupStabilitySig:vector  ETV
vector 1320397  Network.dyn_peer[117]  lookupTimeSig:vector  ETV
vector 1320581  Network.dyn_peer[179]  lookupHopsSig:vector  ETV
vector 1320582  Network.dyn_peer[179]  lookupStabilitySig:vector  ETV
vector 1320583  Network.dyn_peer[179]  lookupTimeSig:vector  ETV
vector 1320224  Network.dyn_peer[60]  lookupHopsSig:vector  ETV
vector 1320225  Network.dyn_peer[60]  lookupStabilitySig:vector  ETV
vector 1320226  Network.dyn_peer[60]  lookupTimeSig:vector  ETV
vector 1320287  Network.dyn_peer[81]  lookupHopsSig:vector  ETV
vector 1320288  Network.dyn_peer[81]  lookupStabilitySig:vector  ETV
vector 1320289  Network.dyn_peer[81]  lookupTimeSig:vector  ETV
vector 1320407  Network.dyn_peer[121]  lookupHopsSig:vector  ETV
vector 1320408  Network.dyn_peer[121]  lookupStabilitySig:vector  ETV
vector 1320409  Network.dyn_peer[121]  lookupTimeSig:vector  ETV
vector 1320290  Network.dyn_peer[82]  lookupHopsSig:vector  ETV
vector 1320291  Network.dyn_peer[82]  lookupStabilitySig:vector  ETV
vector 1320292  Network.dyn_peer[82]  lookupTimeSig:vector  ETV
vector 1320356  Network.dyn_peer[104]  lookupHopsSig:vector  ETV
vector 1320357  Network.dyn_peer[104]  lookupStabilitySig:vector  ETV
vector 1320358  Network.dyn_peer[104]  lookupTimeSig:vector  ETV
vector 1320569  Network.dyn_peer[175]  lookupHopsSig:vector  ETV
vector 1320570  Network.dyn_peer[175]  lookupStabilitySig:vector  ETV
vector 1320571  Network.dyn_peer[175]  lookupTimeSig:vector  ETV
vector 1320392  Network.dyn_peer[116]  lookupHopsSig:vector  ETV
vector 1320393  Network.dyn_peer[116]  lookupStabilitySig:vector  ETV
vector 1320394  Network.dyn_peer[116]  lookupTimeSig:vector  ETV
vector 1320452  Network.dyn_peer[136]  lookupHopsSig:vector  ETV
vector 1320453  Network.dyn_peer[136]  lookupStabilitySig:vector  ETV
vector 1320454  Network.dyn_peer[136]  lookupTimeSig:vector  ETV
vector 1320344  Network.dyn_peer[100]  lookupHopsSig:vector  ETV
vector 1320345  Network.dyn_peer[100]  lookupStabilitySig:vector  ETV
vector 1320346  Network.dyn_peer[100]  lookupTimeSig:vector  ETV
vector 1320464  Network.dyn_peer[140]  lookupHopsSig:vector  ETV
vector 1320465  Network.dyn_peer[140]  lookupStabilitySig:vector  ETV
vector 1320466  Network.dyn_peer[140]  lookupTimeSig:vector  ETV
vector 1320437  Network.dyn_peer[131]  lookupHopsSig:vector  ETV
vector 1320438  Network.dyn_peer[131]  lookupStabilitySig:vector  ETV
vector 1320439  Network.dyn_peer[131]  lookupTimeSig:vector  ETV
vector 1320467  Network.dyn_peer[141]  lookupHopsSig:vector  ETV
vector 1320468  Network.dyn_peer[141]  lookupStabilitySig:vector  ETV
vector 1320469  Network.dyn_peer[141]  lookupTimeSig:vector  ETV
vector 1320386  Network.dyn_peer[114]  lookupHopsSig:vector  ETV
vector 1320387  Network.dyn_peer[114]  lookupStabilitySig:vector  ETV
vector 1320388  Network.dyn_peer[114]  lookupTimeSig:vector  ETV
vector 1320218  Network.dyn_peer[58]  lookupHopsSig:vector  ETV
vector 1320219  Network.dyn_peer[58]  lookupStabilitySig:vector  ETV
vector 1320220  Network.dyn_peer[58]  lookupTimeSig:vector  ETV
vector 1320608  Network.dyn_peer[188]  lookupHopsSig:vector  ETV
vector 1320609  Network.dyn_peer[188]  lookupStabilitySig:vector  ETV
vector 1320610  Network.dyn_peer[188]  lookupTimeSig:vector  ETV
vector 1320491  Network.dyn_peer[149]  lookupHopsSig:vector  ETV
vector 1320492  Network.dyn_peer[149]  lookupStabilitySig:vector  ETV
vector 1320493  Network.dyn_peer[149]  lookupTimeSig:vector  ETV
vector 1320443  Network.dyn_peer[133]  lookupHopsSig:vector  ETV
vector 1320444  Network.dyn_peer[133]  lookupStabilitySig:vector  ETV
vector 1320445  Network.dyn_peer[133]  lookupTimeSig:vector  ETV
vector 1320482  Network.dyn_peer[146]  lookupHopsSig:vector  ETV
vector 1320483  Network.dyn_peer[146]  lookupStabilitySig:vector  ETV
vector 1320484  Network.dyn_peer[146]  lookupTimeSig:vector  ETV
vector 1320125  Network.dyn_peer[27]  lookupHopsSig:vector  ETV
vector 1320126  Network.dyn_peer[27]  lookupStabilitySig:vector  ETV
vector 1320127  Network.dyn_peer[27]  lookupTimeSig:vector  ETV
vector 1320335  Network.dyn_peer[97]  lookupHopsSig:vector  ETV
vector 1320336  Network.dyn_peer[97]  lookupStabilitySig:vector  ETV
vector 1320337  Network.dyn_peer[97]  lookupTimeSig:vector  ETV
vector 1320614  Network.dyn_peer[190]  lookupHopsSig:vector  ETV
vector 1320615  Network.dyn_peer[190]  lookupStabilitySig:vector  ETV
vector 1320616  Network.dyn_peer[190]  lookupTimeSig:vector  ETV
vector 1320587  Network.dyn_peer[181]  lookupHopsSig:vector  ETV
vector 1320588  Network.dyn_peer[181]  lookupStabilitySig:vector  ETV
vector 1320589  Network.dyn_peer[181]  lookupTimeSig:vector  ETV
vector 1320617  Network.dyn_peer[191]  lookupHopsSig:vector  ETV
vector 1320618  Network.dyn_peer[191]  lookupStabilitySig:vector  ETV
vector 1320619  Network.dyn_peer[191]  lookupTimeSig:vector  ETV
vector 1320470  Network.dyn_peer[142]  lookupHopsSig:vector  ETV
vector 1320471  Network.dyn_peer[142]  lookupStabilitySig:vector  ETV
vector 1320472  Network.dyn_peer[142]  lookupTimeSig:vector  ETV
vector 1320509  Network.dyn_peer[155]  lookupHopsSig:vector  ETV
vector 1320510  Network.dyn_peer[155]  lookupStabilitySig:vector  ETV
vector 1320511  Network.dyn_peer[155]  lookupTimeSig:vector  ETV
vector 1320572  Network.dyn_peer[176]  lookupHopsSig:vector  ETV
vector 1320573  Network.dyn_peer[176]  lookupStabilitySig:vector  ETV
vector 1320574  Network.dyn_peer[176]  lookupTimeSig:vector  ETV
vector 1320701  Network.dyn_peer[219]  lookupHopsSig:vector  ETV
vector 1320702  Network.dyn_peer[219]  lookupStabilitySig:vector  ETV
vector 1320703  Network.dyn_peer[219]  lookupTimeSig:vector  ETV
vector 1320536  Network.dyn_peer[164]  lookupHopsSig:vector  ETV
vector 1320537  Network.dyn_peer[164]  lookupStabilitySig:vector  ETV
vector 1320538  Network.dyn_peer[164]  lookupTimeSig:vector  ETV
vector 1320305  Network.dyn_peer[87]  lookupHopsSig:vector  ETV
vector 1320306  Network.dyn_peer[87]  lookupStabilitySig:vector  ETV
vector 1320307  Network.dyn_peer[87]  lookupTimeSig:vector  ETV
vector 1320278  Network.dyn_peer[78]  lookupHopsSig:vector  ETV
vector 1320279  Network.dyn_peer[78]  lookupStabilitySig:vector  ETV
vector 1320280  Network.dyn_peer[78]  lookupTimeSig:vector  ETV
vector 1320707  Network.dyn_peer[221]  lookupHopsSig:vector  ETV
vector 1320708  Network.dyn_peer[221]  lookupStabilitySig:vector  ETV
vector 1320709  Network.dyn_peer[221]  lookupTimeSig:vector  ETV
vector 1320530  Network.dyn_peer[162]  lookupHopsSig:vector  ETV
vector 1320531  Network.dyn_peer[162]  lookupStabilitySig:vector  ETV
vector 1320532  Network.dyn_peer[162]  lookupTimeSig:vector  ETV
vector 1320773  Network.dyn_peer[243]  lookupHopsSig:vector  ETV
vector 1320774  Network.dyn_peer[243]  lookupStabilitySig:vector  ETV
vector 1320775  Network.dyn_peer[243]  lookupTimeSig:vector  ETV