version 2
run Stability2-35-20130528-01:25:09-24168
attr configname Stability2
attr datetime 20130528-01:25:09
attr experiment Stability2
attr inifile omnetpp.ini
attr iterationvars $0=40
attr iterationvars2 "$0=40, $repetition=5"
attr measurement $0=40
attr network Network
attr processid 24168
attr repetition 5
attr replication #5
attr resultdir results
attr runnumber 35
attr seedset 35

vector 1080035  Network.churner  inGoingSizeSig:vector  ETV
vector 1050035  Network.dyn_peer[0]  lookupHopsSig:vector  ETV
vector 1050036  Network.dyn_peer[0]  lookupStabilitySig:vector  ETV
vector 1050037  Network.dyn_peer[0]  lookupTimeSig:vector  ETV
vector 1050041  Network.dyn_peer[2]  lookupHopsSig:vector  ETV
vector 1050042  Network.dyn_peer[2]  lookupStabilitySig:vector  ETV
vector 1050043  Network.dyn_peer[2]  lookupTimeSig:vector  ETV
vector 1050038  Network.dyn_peer[1]  lookupHopsSig:vector  ETV
vector 1050039  Network.dyn_peer[1]  lookupStabilitySig:vector  ETV
vector 1050040  Network.dyn_peer[1]  lookupTimeSig:vector  ETV
vector 1050044  Network.dyn_peer[3]  lookupHopsSig:vector  ETV
vector 1050045  Network.dyn_peer[3]  lookupStabilitySig:vector  ETV
vector 1050046  Network.dyn_peer[3]  lookupTimeSig:vector  ETV
vector 1050074  Network.dyn_peer[13]  lookupHopsSig:vector  ETV
vector 1050075  Network.dyn_peer[13]  lookupStabilitySig:vector  ETV
vector 1050076  Network.dyn_peer[13]  lookupTimeSig:vector  ETV
vector 1050047  Network.dyn_peer[4]  lookupHopsSig:vector  ETV
vector 1050048  Network.dyn_peer[4]  lookupStabilitySig:vector  ETV
vector 1050049  Network.dyn_peer[4]  lookupTimeSig:vector  ETV
vector 1050050  Network.dyn_peer[5]  lookupHopsSig:vector  ETV
vector 1050051  Network.dyn_peer[5]  lookupStabilitySig:vector  ETV
vector 1050052  Network.dyn_peer[5]  lookupTimeSig:vector  ETV
vector 1050053  Network.dyn_peer[6]  lookupHopsSig:vector  ETV
vector 1050054  Network.dyn_peer[6]  lookupStabilitySig:vector  ETV
vector 1050055  Network.dyn_peer[6]  lookupTimeSig:vector  ETV
vector 1050056  Network.dyn_peer[7]  lookupHopsSig:vector  ETV
vector 1050057  Network.dyn_peer[7]  lookupStabilitySig:vector  ETV
vector 1050058  Network.dyn_peer[7]  lookupTimeSig:vector  ETV
vector 1050059  Network.dyn_peer[8]  lookupHopsSig:vector  ETV
vector 1050060  Network.dyn_peer[8]  lookupStabilitySig:vector  ETV
vector 1050061  Network.dyn_peer[8]  lookupTimeSig:vector  ETV
vector 1050098  Network.dyn_peer[21]  lookupHopsSig:vector  ETV
vector 1050099  Network.dyn_peer[21]  lookupStabilitySig:vector  ETV
vector 1050100  Network.dyn_peer[21]  lookupTimeSig:vector  ETV
vector 1050089  Network.dyn_peer[18]  lookupHopsSig:vector  ETV
vector 1050090  Network.dyn_peer[18]  lookupStabilitySig:vector  ETV
vector 1050091  Network.dyn_peer[18]  lookupTimeSig:vector  ETV
vector 1050065  Network.dyn_peer[10]  lookupHopsSig:vector  ETV
vector 1050066  Network.dyn_peer[10]  lookupStabilitySig:vector  ETV
vector 1050067  Network.dyn_peer[10]  lookupTimeSig:vector  ETV
vector 1050071  Network.dyn_peer[12]  lookupHopsSig:vector  ETV
vector 1050072  Network.dyn_peer[12]  lookupStabilitySig:vector  ETV
vector 1050073  Network.dyn_peer[12]  lookupTimeSig:vector  ETV
vector 1050101  Network.dyn_peer[22]  lookupHopsSig:vector  ETV
vector 1050102  Network.dyn_peer[22]  lookupStabilitySig:vector  ETV
vector 1050103  Network.dyn_peer[22]  lookupTimeSig:vector  ETV
vector 1050104  Network.dyn_peer[23]  lookupHopsSig:vector  ETV
vector 1050105  Network.dyn_peer[23]  lookupStabilitySig:vector  ETV
vector 1050106  Network.dyn_peer[23]  lookupTimeSig:vector  ETV
vector 1050107  Network.dyn_peer[24]  lookupHopsSig:vector  ETV
vector 1050108  Network.dyn_peer[24]  lookupStabilitySig:vector  ETV
vector 1050109  Network.dyn_peer[24]  lookupTimeSig:vector  ETV
vector 1050083  Network.dyn_peer[16]  lookupHopsSig:vector  ETV
vector 1050084  Network.dyn_peer[16]  lookupStabilitySig:vector  ETV
vector 1050085  Network.dyn_peer[16]  lookupTimeSig:vector  ETV
vector 1050119  Network.dyn_peer[28]  lookupHopsSig:vector  ETV
vector 1050120  Network.dyn_peer[28]  lookupStabilitySig:vector  ETV
vector 1050121  Network.dyn_peer[28]  lookupTimeSig:vector  ETV
vector 1050092  Network.dyn_peer[19]  lookupHopsSig:vector  ETV
vector 1050093  Network.dyn_peer[19]  lookupStabilitySig:vector  ETV
vector 1050094  Network.dyn_peer[19]  lookupTimeSig:vector  ETV
vector 1050122  Network.dyn_peer[29]  lookupHopsSig:vector  ETV
vector 1050123  Network.dyn_peer[29]  lookupStabilitySig:vector  ETV
vector 1050124  Network.dyn_peer[29]  lookupTimeSig:vector  ETV
vector 1050068  Network.dyn_peer[11]  lookupHopsSig:vector  ETV
vector 1050069  Network.dyn_peer[11]  lookupStabilitySig:vector  ETV
vector 1050070  Network.dyn_peer[11]  lookupTimeSig:vector  ETV
vector 1050080  Network.dyn_peer[15]  lookupHopsSig:vector  ETV
vector 1050081  Network.dyn_peer[15]  lookupStabilitySig:vector  ETV
vector 1050082  Network.dyn_peer[15]  lookupTimeSig:vector  ETV
vector 1050170  Network.dyn_peer[45]  lookupHopsSig:vector  ETV
vector 1050171  Network.dyn_peer[45]  lookupStabilitySig:vector  ETV
vector 1050172  Network.dyn_peer[45]  lookupTimeSig:vector  ETV
vector 1050086  Network.dyn_peer[17]  lookupHopsSig:vector  ETV
vector 1050087  Network.dyn_peer[17]  lookupStabilitySig:vector  ETV
vector 1050088  Network.dyn_peer[17]  lookupTimeSig:vector  ETV
vector 1050179  Network.dyn_peer[48]  lookupHopsSig:vector  ETV
vector 1050180  Network.dyn_peer[48]  lookupStabilitySig:vector  ETV
vector 1050181  Network.dyn_peer[48]  lookupTimeSig:vector  ETV
vector 1050125  Network.dyn_peer[30]  lookupHopsSig:vector  ETV
vector 1050126  Network.dyn_peer[30]  lookupStabilitySig:vector  ETV
vector 1050127  Network.dyn_peer[30]  lookupTimeSig:vector  ETV
vector 1050134  Network.dyn_peer[33]  lookupHopsSig:vector  ETV
vector 1050135  Network.dyn_peer[33]  lookupStabilitySig:vector  ETV
vector 1050136  Network.dyn_peer[33]  lookupTimeSig:vector  ETV
vector 1050077  Network.dyn_peer[14]  lookupHopsSig:vector  ETV
vector 1050078  Network.dyn_peer[14]  lookupStabilitySig:vector  ETV
vector 1050079  Network.dyn_peer[14]  lookupTimeSig:vector  ETV
vector 1050185  Network.dyn_peer[50]  lookupHopsSig:vector  ETV
vector 1050186  Network.dyn_peer[50]  lookupStabilitySig:vector  ETV
vector 1050187  Network.dyn_peer[50]  lookupTimeSig:vector  ETV
vector 1050128  Network.dyn_peer[31]  lookupHopsSig:vector  ETV
vector 1050129  Network.dyn_peer[31]  lookupStabilitySig:vector  ETV
vector 1050130  Network.dyn_peer[31]  lookupTimeSig:vector  ETV
vector 1050131  Network.dyn_peer[32]  lookupHopsSig:vector  ETV
vector 1050132  Network.dyn_peer[32]  lookupStabilitySig:vector  ETV
vector 1050133  Network.dyn_peer[32]  lookupTimeSig:vector  ETV
vector 1050197  Network.dyn_peer[54]  lookupHopsSig:vector  ETV
vector 1050198  Network.dyn_peer[54]  lookupStabilitySig:vector  ETV
vector 1050199  Network.dyn_peer[54]  lookupTimeSig:vector  ETV
vector 1050209  Network.dyn_peer[58]  lookupHopsSig:vector  ETV
vector 1050210  Network.dyn_peer[58]  lookupStabilitySig:vector  ETV
vector 1050211  Network.dyn_peer[58]  lookupTimeSig:vector  ETV
vector 1050062  Network.dyn_peer[9]  lookupHopsSig:vector  ETV
vector 1050063  Network.dyn_peer[9]  lookupStabilitySig:vector  ETV
vector 1050064  Network.dyn_peer[9]  lookupTimeSig:vector  ETV
vector 1050212  Network.dyn_peer[59]  lookupHopsSig:vector  ETV
vector 1050213  Network.dyn_peer[59]  lookupStabilitySig:vector  ETV
vector 1050214  Network.dyn_peer[59]  lookupTimeSig:vector  ETV
vector 1050095  Network.dyn_peer[20]  lookupHopsSig:vector  ETV
vector 1050096  Network.dyn_peer[20]  lookupStabilitySig:vector  ETV
vector 1050097  Network.dyn_peer[20]  lookupTimeSig:vector  ETV
vector 1050158  Network.dyn_peer[41]  lookupHopsSig:vector  ETV
vector 1050159  Network.dyn_peer[41]  lookupStabilitySig:vector  ETV
vector 1050160  Network.dyn_peer[41]  lookupTimeSig:vector  ETV
vector 1050194  Network.dyn_peer[53]  lookupHopsSig:vector  ETV
vector 1050195  Network.dyn_peer[53]  lookupStabilitySig:vector  ETV
vector 1050196  Network.dyn_peer[53]  lookupTimeSig:vector  ETV
vector 1050113  Network.dyn_peer[26]  lookupHopsSig:vector  ETV
vector 1050114  Network.dyn_peer[26]  lookupStabilitySig:vector  ETV
vector 1050115  Network.dyn_peer[26]  lookupTimeSig:vector  ETV
vector 1050215  Network.dyn_peer[60]  lookupHopsSig:vector  ETV
vector 1050216  Network.dyn_peer[60]  lookupStabilitySig:vector  ETV
vector 1050217  Network.dyn_peer[60]  lookupTimeSig:vector  ETV
vector 1050110  Network.dyn_peer[25]  lookupHopsSig:vector  ETV
vector 1050111  Network.dyn_peer[25]  lookupStabilitySig:vector  ETV
vector 1050112  Network.dyn_peer[25]  lookupTimeSig:vector  ETV
vector 1050140  Network.dyn_peer[35]  lookupHopsSig:vector  ETV
vector 1050141  Network.dyn_peer[35]  lookupStabilitySig:vector  ETV
vector 1050142  Network.dyn_peer[35]  lookupTimeSig:vector  ETV
vector 1050173  Network.dyn_peer[46]  lookupHopsSig:vector  ETV
vector 1050174  Network.dyn_peer[46]  lookupStabilitySig:vector  ETV
vector 1050175  Network.dyn_peer[46]  lookupTimeSig:vector  ETV
vector 1050146  Network.dyn_peer[37]  lookupHopsSig:vector  ETV
vector 1050147  Network.dyn_peer[37]  lookupStabilitySig:vector  ETV
vector 1050148  Network.dyn_peer[37]  lookupTimeSig:vector  ETV
vector 1050191  Network.dyn_peer[52]  lookupHopsSig:vector  ETV
vector 1050192  Network.dyn_peer[52]  lookupStabilitySig:vector  ETV
vector 1050193  Network.dyn_peer[52]  lookupTimeSig:vector  ETV
vector 1050320  Network.dyn_peer[95]  lookupHopsSig:vector  ETV
vector 1050321  Network.dyn_peer[95]  lookupStabilitySig:vector  ETV
vector 1050322  Network.dyn_peer[95]  lookupTimeSig:vector  ETV
vector 1050296  Network.dyn_peer[87]  lookupHopsSig:vector  ETV
vector 1050297  Network.dyn_peer[87]  lookupStabilitySig:vector  ETV
vector 1050298  Network.dyn_peer[87]  lookupTimeSig:vector  ETV
vector 1050275  Network.dyn_peer[80]  lookupHopsSig:vector  ETV
vector 1050276  Network.dyn_peer[80]  lookupStabilitySig:vector  ETV
vector 1050277  Network.dyn_peer[80]  lookupTimeSig:vector  ETV
vector 1050161  Network.dyn_peer[42]  lookupHopsSig:vector  ETV
vector 1050162  Network.dyn_peer[42]  lookupStabilitySig:vector  ETV
vector 1050163  Network.dyn_peer[42]  lookupTimeSig:vector  ETV
vector 1050251  Network.dyn_peer[72]  lookupHopsSig:vector  ETV
vector 1050252  Network.dyn_peer[72]  lookupStabilitySig:vector  ETV
vector 1050253  Network.dyn_peer[72]  lookupTimeSig:vector  ETV
vector 1050284  Network.dyn_peer[83]  lookupHopsSig:vector  ETV
vector 1050285  Network.dyn_peer[83]  lookupStabilitySig:vector  ETV
vector 1050286  Network.dyn_peer[83]  lookupTimeSig:vector  ETV
vector 1050233  Network.dyn_peer[66]  lookupHopsSig:vector  ETV
vector 1050234  Network.dyn_peer[66]  lookupStabilitySig:vector  ETV
vector 1050235  Network.dyn_peer[66]  lookupTimeSig:vector  ETV
vector 1050149  Network.dyn_peer[38]  lookupHopsSig:vector  ETV
vector 1050150  Network.dyn_peer[38]  lookupStabilitySig:vector  ETV
vector 1050151  Network.dyn_peer[38]  lookupTimeSig:vector  ETV
vector 1050137  Network.dyn_peer[34]  lookupHopsSig:vector  ETV
vector 1050138  Network.dyn_peer[34]  lookupStabilitySig:vector  ETV
vector 1050139  Network.dyn_peer[34]  lookupTimeSig:vector  ETV
vector 1050167  Network.dyn_peer[44]  lookupHopsSig:vector  ETV
vector 1050168  Network.dyn_peer[44]  lookupStabilitySig:vector  ETV
vector 1050169  Network.dyn_peer[44]  lookupTimeSig:vector  ETV
vector 1050143  Network.dyn_peer[36]  lookupHopsSig:vector  ETV
vector 1050144  Network.dyn_peer[36]  lookupStabilitySig:vector  ETV
vector 1050145  Network.dyn_peer[36]  lookupTimeSig:vector  ETV
vector 1050266  Network.dyn_peer[77]  lookupHopsSig:vector  ETV
vector 1050267  Network.dyn_peer[77]  lookupStabilitySig:vector  ETV
vector 1050268  Network.dyn_peer[77]  lookupTimeSig:vector  ETV
vector 1050269  Network.dyn_peer[78]  lookupHopsSig:vector  ETV
vector 1050270  Network.dyn_peer[78]  lookupStabilitySig:vector  ETV
vector 1050271  Network.dyn_peer[78]  lookupTimeSig:vector  ETV
vector 1050344  Network.dyn_peer[103]  lookupHopsSig:vector  ETV
vector 1050345  Network.dyn_peer[103]  lookupStabilitySig:vector  ETV
vector 1050346  Network.dyn_peer[103]  lookupTimeSig:vector  ETV
vector 1050227  Network.dyn_peer[64]  lookupHopsSig:vector  ETV
vector 1050228  Network.dyn_peer[64]  lookupStabilitySig:vector  ETV
vector 1050229  Network.dyn_peer[64]  lookupTimeSig:vector  ETV
vector 1050200  Network.dyn_peer[55]  lookupHopsSig:vector  ETV
vector 1050201  Network.dyn_peer[55]  lookupStabilitySig:vector  ETV
vector 1050202  Network.dyn_peer[55]  lookupTimeSig:vector  ETV
vector 1050152  Network.dyn_peer[39]  lookupHopsSig:vector  ETV
vector 1050153  Network.dyn_peer[39]  lookupStabilitySig:vector  ETV
vector 1050154  Network.dyn_peer[39]  lookupTimeSig:vector  ETV
vector 1050182  Network.dyn_peer[49]  lookupHopsSig:vector  ETV
vector 1050183  Network.dyn_peer[49]  lookupStabilitySig:vector  ETV
vector 1050184  Network.dyn_peer[49]  lookupTimeSig:vector  ETV
vector 1050188  Network.dyn_peer[51]  lookupHopsSig:vector  ETV
vector 1050189  Network.dyn_peer[51]  lookupStabilitySig:vector  ETV
vector 1050190  Network.dyn_peer[51]  lookupTimeSig:vector  ETV
vector 1050278  Network.dyn_peer[81]  lookupHopsSig:vector  ETV
vector 1050279  Network.dyn_peer[81]  lookupStabilitySig:vector  ETV
vector 1050280  Network.dyn_peer[81]  lookupTimeSig:vector  ETV
vector 1050398  Network.dyn_peer[121]  lookupHopsSig:vector  ETV
vector 1050399  Network.dyn_peer[121]  lookupStabilitySig:vector  ETV
vector 1050400  Network.dyn_peer[121]  lookupTimeSig:vector  ETV
vector 1050374  Network.dyn_peer[113]  lookupHopsSig:vector  ETV
vector 1050375  Network.dyn_peer[113]  lookupStabilitySig:vector  ETV
vector 1050376  Network.dyn_peer[113]  lookupTimeSig:vector  ETV
vector 1050287  Network.dyn_peer[84]  lookupHopsSig:vector  ETV
vector 1050288  Network.dyn_peer[84]  lookupStabilitySig:vector  ETV
vector 1050289  Network.dyn_peer[84]  lookupTimeSig:vector  ETV
vector 1050317  Network.dyn_peer[94]  lookupHopsSig:vector  ETV
vector 1050318  Network.dyn_peer[94]  lookupStabilitySig:vector  ETV
vector 1050319  Network.dyn_peer[94]  lookupTimeSig:vector  ETV
vector 1050410  Network.dyn_peer[125]  lookupHopsSig:vector  ETV
vector 1050411  Network.dyn_peer[125]  lookupStabilitySig:vector  ETV
vector 1050412  Network.dyn_peer[125]  lookupTimeSig:vector  ETV
vector 1050263  Network.dyn_peer[76]  lookupHopsSig:vector  ETV
vector 1050264  Network.dyn_peer[76]  lookupStabilitySig:vector  ETV
vector 1050265  Network.dyn_peer[76]  lookupTimeSig:vector  ETV
vector 1050176  Network.dyn_peer[47]  lookupHopsSig:vector  ETV
vector 1050177  Network.dyn_peer[47]  lookupStabilitySig:vector  ETV
vector 1050178  Network.dyn_peer[47]  lookupTimeSig:vector  ETV
vector 1050308  Network.dyn_peer[91]  lookupHopsSig:vector  ETV
vector 1050309  Network.dyn_peer[91]  lookupStabilitySig:vector  ETV
vector 1050310  Network.dyn_peer[91]  lookupTimeSig:vector  ETV
vector 1050311  Network.dyn_peer[92]  lookupHopsSig:vector  ETV
vector 1050312  Network.dyn_peer[92]  lookupStabilitySig:vector  ETV
vector 1050313  Network.dyn_peer[92]  lookupTimeSig:vector  ETV
vector 1050164  Network.dyn_peer[43]  lookupHopsSig:vector  ETV
vector 1050165  Network.dyn_peer[43]  lookupStabilitySig:vector  ETV
vector 1050166  Network.dyn_peer[43]  lookupTimeSig:vector  ETV
vector 1050257  Network.dyn_peer[74]  lookupHopsSig:vector  ETV
vector 1050258  Network.dyn_peer[74]  lookupStabilitySig:vector  ETV
vector 1050259  Network.dyn_peer[74]  lookupTimeSig:vector  ETV
vector 1050290  Network.dyn_peer[85]  lookupHopsSig:vector  ETV
vector 1050291  Network.dyn_peer[85]  lookupStabilitySig:vector  ETV
vector 1050292  Network.dyn_peer[85]  lookupTimeSig:vector  ETV
vector 1050116  Network.dyn_peer[27]  lookupHopsSig:vector  ETV
vector 1050117  Network.dyn_peer[27]  lookupStabilitySig:vector  ETV
vector 1050118  Network.dyn_peer[27]  lookupTimeSig:vector  ETV
vector 1050326  Network.dyn_peer[97]  lookupHopsSig:vector  ETV
vector 1050327  Network.dyn_peer[97]  lookupStabilitySig:vector  ETV
vector 1050328  Network.dyn_peer[97]  lookupTimeSig:vector  ETV
vector 1050299  Network.dyn_peer[88]  lookupHopsSig:vector  ETV
vector 1050300  Network.dyn_peer[88]  lookupStabilitySig:vector  ETV
vector 1050301  Network.dyn_peer[88]  lookupTimeSig:vector  ETV
vector 1050242  Network.dyn_peer[69]  lookupHopsSig:vector  ETV
vector 1050243  Network.dyn_peer[69]  lookupStabilitySig:vector  ETV
vector 1050244  Network.dyn_peer[69]  lookupTimeSig:vector  ETV
vector 1050302  Network.dyn_peer[89]  lookupHopsSig:vector  ETV
vector 1050303  Network.dyn_peer[89]  lookupStabilitySig:vector  ETV
vector 1050304  Network.dyn_peer[89]  lookupTimeSig:vector  ETV
vector 1050218  Network.dyn_peer[61]  lookupHopsSig:vector  ETV
vector 1050219  Network.dyn_peer[61]  lookupStabilitySig:vector  ETV
vector 1050220  Network.dyn_peer[61]  lookupTimeSig:vector  ETV
vector 1050281  Network.dyn_peer[82]  lookupHopsSig:vector  ETV
vector 1050282  Network.dyn_peer[82]  lookupStabilitySig:vector  ETV
vector 1050283  Network.dyn_peer[82]  lookupTimeSig:vector  ETV
vector 1050314  Network.dyn_peer[93]  lookupHopsSig:vector  ETV
vector 1050315  Network.dyn_peer[93]  lookupStabilitySig:vector  ETV
vector 1050316  Network.dyn_peer[93]  lookupTimeSig:vector  ETV
vector 1050293  Network.dyn_peer[86]  lookupHopsSig:vector  ETV
vector 1050294  Network.dyn_peer[86]  lookupStabilitySig:vector  ETV
vector 1050295  Network.dyn_peer[86]  lookupTimeSig:vector  ETV
vector 1050389  Network.dyn_peer[118]  lookupHopsSig:vector  ETV
vector 1050390  Network.dyn_peer[118]  lookupStabilitySig:vector  ETV
vector 1050391  Network.dyn_peer[118]  lookupTimeSig:vector  ETV
vector 1050155  Network.dyn_peer[40]  lookupHopsSig:vector  ETV
vector 1050156  Network.dyn_peer[40]  lookupStabilitySig:vector  ETV
vector 1050157  Network.dyn_peer[40]  lookupTimeSig:vector  ETV
vector 1050245  Network.dyn_peer[70]  lookupHopsSig:vector  ETV
vector 1050246  Network.dyn_peer[70]  lookupStabilitySig:vector  ETV
vector 1050247  Network.dyn_peer[70]  lookupTimeSig:vector  ETV
vector 1050305  Network.dyn_peer[90]  lookupHopsSig:vector  ETV
vector 1050306  Network.dyn_peer[90]  lookupStabilitySig:vector  ETV
vector 1050307  Network.dyn_peer[90]  lookupTimeSig:vector  ETV
vector 1050224  Network.dyn_peer[63]  lookupHopsSig:vector  ETV
vector 1050225  Network.dyn_peer[63]  lookupStabilitySig:vector  ETV
vector 1050226  Network.dyn_peer[63]  lookupTimeSig:vector  ETV
vector 1050377  Network.dyn_peer[114]  lookupHopsSig:vector  ETV
vector 1050378  Network.dyn_peer[114]  lookupStabilitySig:vector  ETV
vector 1050379  Network.dyn_peer[114]  lookupTimeSig:vector  ETV
vector 1050203  Network.dyn_peer[56]  lookupHopsSig:vector  ETV
vector 1050204  Network.dyn_peer[56]  lookupStabilitySig:vector  ETV
vector 1050205  Network.dyn_peer[56]  lookupTimeSig:vector  ETV
vector 1050383  Network.dyn_peer[116]  lookupHopsSig:vector  ETV
vector 1050384  Network.dyn_peer[116]  lookupStabilitySig:vector  ETV
vector 1050385  Network.dyn_peer[116]  lookupTimeSig:vector  ETV
vector 1050356  Network.dyn_peer[107]  lookupHopsSig:vector  ETV
vector 1050357  Network.dyn_peer[107]  lookupStabilitySig:vector  ETV
vector 1050358  Network.dyn_peer[107]  lookupTimeSig:vector  ETV
vector 1050476  Network.dyn_peer[147]  lookupHopsSig:vector  ETV
vector 1050477  Network.dyn_peer[147]  lookupStabilitySig:vector  ETV
vector 1050478  Network.dyn_peer[147]  lookupTimeSig:vector  ETV
vector 1050482  Network.dyn_peer[149]  lookupHopsSig:vector  ETV
vector 1050483  Network.dyn_peer[149]  lookupStabilitySig:vector  ETV
vector 1050484  Network.dyn_peer[149]  lookupTimeSig:vector  ETV
vector 1050425  Network.dyn_peer[130]  lookupHopsSig:vector  ETV
vector 1050426  Network.dyn_peer[130]  lookupStabilitySig:vector  ETV
vector 1050427  Network.dyn_peer[130]  lookupTimeSig:vector  ETV
vector 1050341  Network.dyn_peer[102]  lookupHopsSig:vector  ETV
vector 1050342  Network.dyn_peer[102]  lookupStabilitySig:vector  ETV
vector 1050343  Network.dyn_peer[102]  lookupTimeSig:vector  ETV
vector 1050230  Network.dyn_peer[65]  lookupHopsSig:vector  ETV
vector 1050231  Network.dyn_peer[65]  lookupStabilitySig:vector  ETV
vector 1050232  Network.dyn_peer[65]  lookupTimeSig:vector  ETV
vector 1050470  Network.dyn_peer[145]  lookupHopsSig:vector  ETV
vector 1050471  Network.dyn_peer[145]  lookupStabilitySig:vector  ETV
vector 1050472  Network.dyn_peer[145]  lookupTimeSig:vector  ETV
vector 1050443  Network.dyn_peer[136]  lookupHopsSig:vector  ETV
vector 1050444  Network.dyn_peer[136]  lookupStabilitySig:vector  ETV
vector 1050445  Network.dyn_peer[136]  lookupTimeSig:vector  ETV
vector 1050236  Network.dyn_peer[67]  lookupHopsSig:vector  ETV
vector 1050237  Network.dyn_peer[67]  lookupStabilitySig:vector  ETV
vector 1050238  Network.dyn_peer[67]  lookupTimeSig:vector  ETV
vector 1050329  Network.dyn_peer[98]  lookupHopsSig:vector  ETV
vector 1050330  Network.dyn_peer[98]  lookupStabilitySig:vector  ETV
vector 1050331  Network.dyn_peer[98]  lookupTimeSig:vector  ETV
vector 1050539  Network.dyn_peer[168]  lookupHopsSig:vector  ETV
vector 1050540  Network.dyn_peer[168]  lookupStabilitySig:vector  ETV
vector 1050541  Network.dyn_peer[168]  lookupTimeSig:vector  ETV
vector 1050272  Network.dyn_peer[79]  lookupHopsSig:vector  ETV
vector 1050273  Network.dyn_peer[79]  lookupStabilitySig:vector  ETV
vector 1050274  Network.dyn_peer[79]  lookupTimeSig:vector  ETV
vector 1050452  Network.dyn_peer[139]  lookupHopsSig:vector  ETV
vector 1050453  Network.dyn_peer[139]  lookupStabilitySig:vector  ETV
vector 1050454  Network.dyn_peer[139]  lookupTimeSig:vector  ETV
vector 1050512  Network.dyn_peer[159]  lookupHopsSig:vector  ETV
vector 1050513  Network.dyn_peer[159]  lookupStabilitySig:vector  ETV
vector 1050514  Network.dyn_peer[159]  lookupTimeSig:vector  ETV
vector 1050338  Network.dyn_peer[101]  lookupHopsSig:vector  ETV
vector 1050339  Network.dyn_peer[101]  lookupStabilitySig:vector  ETV
vector 1050340  Network.dyn_peer[101]  lookupTimeSig:vector  ETV
vector 1050221  Network.dyn_peer[62]  lookupHopsSig:vector  ETV
vector 1050222  Network.dyn_peer[62]  lookupStabilitySig:vector  ETV
vector 1050223  Network.dyn_peer[62]  lookupTimeSig:vector  ETV
vector 1050461  Network.dyn_peer[142]  lookupHopsSig:vector  ETV
vector 1050462  Network.dyn_peer[142]  lookupStabilitySig:vector  ETV
vector 1050463  Network.dyn_peer[142]  lookupTimeSig:vector  ETV
vector 1050350  Network.dyn_peer[105]  lookupHopsSig:vector  ETV
vector 1050351  Network.dyn_peer[105]  lookupStabilitySig:vector  ETV
vector 1050352  Network.dyn_peer[105]  lookupTimeSig:vector  ETV
vector 1050323  Network.dyn_peer[96]  lookupHopsSig:vector  ETV
vector 1050324  Network.dyn_peer[96]  lookupStabilitySig:vector  ETV
vector 1050325  Network.dyn_peer[96]  lookupTimeSig:vector  ETV
vector 1050206  Network.dyn_peer[57]  lookupHopsSig:vector  ETV
vector 1050207  Network.dyn_peer[57]  lookupStabilitySig:vector  ETV
vector 1050208  Network.dyn_peer[57]  lookupTimeSig:vector  ETV
vector 1050419  Network.dyn_peer[128]  lookupHopsSig:vector  ETV
vector 1050420  Network.dyn_peer[128]  lookupStabilitySig:vector  ETV
vector 1050421  Network.dyn_peer[128]  lookupTimeSig:vector  ETV
vector 1050332  Network.dyn_peer[99]  lookupHopsSig:vector  ETV
vector 1050333  Network.dyn_peer[99]  lookupStabilitySig:vector  ETV
vector 1050334  Network.dyn_peer[99]  lookupTimeSig:vector  ETV
vector 1050428  Network.dyn_peer[131]  lookupHopsSig:vector  ETV
vector 1050429  Network.dyn_peer[131]  lookupStabilitySig:vector  ETV
vector 1050430  Network.dyn_peer[131]  lookupTimeSig:vector  ETV
vector 1050491  Network.dyn_peer[152]  lookupHopsSig:vector  ETV
vector 1050492  Network.dyn_peer[152]  lookupStabilitySig:vector  ETV
vector 1050493  Network.dyn_peer[152]  lookupTimeSig:vector  ETV
vector 1050380  Network.dyn_peer[115]  lookupHopsSig:vector  ETV
vector 1050381  Network.dyn_peer[115]  lookupStabilitySig:vector  ETV
vector 1050382  Network.dyn_peer[115]  lookupTimeSig:vector  ETV
vector 1050449  Network.dyn_peer[138]  lookupHopsSig:vector  ETV
vector 1050450  Network.dyn_peer[138]  lookupStabilitySig:vector  ETV
vector 1050451  Network.dyn_peer[138]  lookupTimeSig:vector  ETV
vector 1050392  Network.dyn_peer[119]  lookupHopsSig:vector  ETV
vector 1050393  Network.dyn_peer[119]  lookupStabilitySig:vector  ETV
vector 1050394  Network.dyn_peer[119]  lookupTimeSig:vector  ETV
vector 1050455  Network.dyn_peer[140]  lookupHopsSig:vector  ETV
vector 1050456  Network.dyn_peer[140]  lookupStabilitySig:vector  ETV
vector 1050457  Network.dyn_peer[140]  lookupTimeSig:vector  ETV
vector 1050647  Network.dyn_peer[204]  lookupHopsSig:vector  ETV
vector 1050648  Network.dyn_peer[204]  lookupStabilitySig:vector  ETV
vector 1050649  Network.dyn_peer[204]  lookupTimeSig:vector  ETV
vector 1050446  Network.dyn_peer[137]  lookupHopsSig:vector  ETV
vector 1050447  Network.dyn_peer[137]  lookupStabilitySig:vector  ETV
vector 1050448  Network.dyn_peer[137]  lookupTimeSig:vector  ETV
vector 1050596  Network.dyn_peer[187]  lookupHopsSig:vector  ETV
vector 1050597  Network.dyn_peer[187]  lookupStabilitySig:vector  ETV
vector 1050598  Network.dyn_peer[187]  lookupTimeSig:vector  ETV
vector 1050239  Network.dyn_peer[68]  lookupHopsSig:vector  ETV
vector 1050240  Network.dyn_peer[68]  lookupStabilitySig:vector  ETV
vector 1050241  Network.dyn_peer[68]  lookupTimeSig:vector  ETV
vector 1050248  Network.dyn_peer[71]  lookupHopsSig:vector  ETV
vector 1050249  Network.dyn_peer[71]  lookupStabilitySig:vector  ETV
vector 1050250  Network.dyn_peer[71]  lookupTimeSig:vector  ETV
vector 1050581  Network.dyn_peer[182]  lookupHopsSig:vector  ETV
vector 1050582  Network.dyn_peer[182]  lookupStabilitySig:vector  ETV
vector 1050583  Network.dyn_peer[182]  lookupTimeSig:vector  ETV
vector 1050437  Network.dyn_peer[134]  lookupHopsSig:vector  ETV
vector 1050438  Network.dyn_peer[134]  lookupStabilitySig:vector  ETV
vector 1050439  Network.dyn_peer[134]  lookupTimeSig:vector  ETV
vector 1050542  Network.dyn_peer[169]  lookupHopsSig:vector  ETV
vector 1050543  Network.dyn_peer[169]  lookupStabilitySig:vector  ETV
vector 1050544  Network.dyn_peer[169]  lookupTimeSig:vector  ETV
vector 1050335  Network.dyn_peer[100]  lookupHopsSig:vector  ETV
vector 1050336  Network.dyn_peer[100]  lookupStabilitySig:vector  ETV
vector 1050337  Network.dyn_peer[100]  lookupTimeSig:vector  ETV
vector 1050545  Network.dyn_peer[170]  lookupHopsSig:vector  ETV
vector 1050546  Network.dyn_peer[170]  lookupStabilitySig:vector  ETV
vector 1050547  Network.dyn_peer[170]  lookupTimeSig:vector  ETV
vector 1050371  Network.dyn_peer[112]  lookupHopsSig:vector  ETV
vector 1050372  Network.dyn_peer[112]  lookupStabilitySig:vector  ETV
vector 1050373  Network.dyn_peer[112]  lookupTimeSig:vector  ETV
vector 1050521  Network.dyn_peer[162]  lookupHopsSig:vector  ETV
vector 1050522  Network.dyn_peer[162]  lookupStabilitySig:vector  ETV
vector 1050523  Network.dyn_peer[162]  lookupTimeSig:vector  ETV
vector 1050434  Network.dyn_peer[133]  lookupHopsSig:vector  ETV
vector 1050435  Network.dyn_peer[133]  lookupStabilitySig:vector  ETV
vector 1050436  Network.dyn_peer[133]  lookupTimeSig:vector  ETV
vector 1050644  Network.dyn_peer[203]  lookupHopsSig:vector  ETV
vector 1050645  Network.dyn_peer[203]  lookupStabilitySig:vector  ETV
vector 1050646  Network.dyn_peer[203]  lookupTimeSig:vector  ETV
vector 1050413  Network.dyn_peer[126]  lookupHopsSig:vector  ETV
vector 1050414  Network.dyn_peer[126]  lookupStabilitySig:vector  ETV
vector 1050415  Network.dyn_peer[126]  lookupTimeSig:vector  ETV
vector 1050533  Network.dyn_peer[166]  lookupHopsSig:vector  ETV
vector 1050534  Network.dyn_peer[166]  lookupStabilitySig:vector  ETV
vector 1050535  Network.dyn_peer[166]  lookupTimeSig:vector  ETV
vector 1050623  Network.dyn_peer[196]  lookupHopsSig:vector  ETV
vector 1050624  Network.dyn_peer[196]  lookupStabilitySig:vector  ETV
vector 1050625  Network.dyn_peer[196]  lookupTimeSig:vector  ETV
vector 1050506  Network.dyn_peer[157]  lookupHopsSig:vector  ETV
vector 1050507  Network.dyn_peer[157]  lookupStabilitySig:vector  ETV
vector 1050508  Network.dyn_peer[157]  lookupTimeSig:vector  ETV
vector 1050518  Network.dyn_peer[161]  lookupHopsSig:vector  ETV
vector 1050519  Network.dyn_peer[161]  lookupStabilitySig:vector  ETV
vector 1050520  Network.dyn_peer[161]  lookupTimeSig:vector  ETV
vector 1050431  Network.dyn_peer[132]  lookupHopsSig:vector  ETV
vector 1050432  Network.dyn_peer[132]  lookupStabilitySig:vector  ETV
vector 1050433  Network.dyn_peer[132]  lookupTimeSig:vector  ETV
vector 1050551  Network.dyn_peer[172]  lookupHopsSig:vector  ETV
vector 1050552  Network.dyn_peer[172]  lookupStabilitySig:vector  ETV
vector 1050553  Network.dyn_peer[172]  lookupTimeSig:vector  ETV
vector 1050407  Network.dyn_peer[124]  lookupHopsSig:vector  ETV
vector 1050408  Network.dyn_peer[124]  lookupStabilitySig:vector  ETV
vector 1050409  Network.dyn_peer[124]  lookupTimeSig:vector  ETV
vector 1050590  Network.dyn_peer[185]  lookupHopsSig:vector  ETV
vector 1050591  Network.dyn_peer[185]  lookupStabilitySig:vector  ETV
vector 1050592  Network.dyn_peer[185]  lookupTimeSig:vector  ETV
vector 1050416  Network.dyn_peer[127]  lookupHopsSig:vector  ETV
vector 1050417  Network.dyn_peer[127]  lookupStabilitySig:vector  ETV
vector 1050418  Network.dyn_peer[127]  lookupTimeSig:vector  ETV
vector 1050365  Network.dyn_peer[110]  lookupHopsSig:vector  ETV
vector 1050366  Network.dyn_peer[110]  lookupStabilitySig:vector  ETV
vector 1050367  Network.dyn_peer[110]  lookupTimeSig:vector  ETV
vector 1050608  Network.dyn_peer[191]  lookupHopsSig:vector  ETV
vector 1050609  Network.dyn_peer[191]  lookupStabilitySig:vector  ETV
vector 1050610  Network.dyn_peer[191]  lookupTimeSig:vector  ETV
vector 1050701  Network.dyn_peer[222]  lookupHopsSig:vector  ETV