version 2
run Stability2-46-20130528-01:26:31-24168
attr configname Stability2
attr datetime 20130528-01:26:31
attr experiment Stability2
attr inifile omnetpp.ini
attr iterationvars $0=50
attr iterationvars2 "$0=50, $repetition=6"
attr measurement $0=50
attr network Network
attr processid 24168
attr repetition 6
attr replication #6
attr resultdir results
attr runnumber 46
attr seedset 46

vector 1410046  Network.churner  inGoingSizeSig:vector  ETV
vector 1380049  Network.dyn_peer[1]  lookupHopsSig:vector  ETV
vector 1380050  Network.dyn_peer[1]  lookupStabilitySig:vector  ETV
vector 1380051  Network.dyn_peer[1]  lookupTimeSig:vector  ETV
vector 1380073  Network.dyn_peer[9]  lookupHopsSig:vector  ETV
vector 1380074  Network.dyn_peer[9]  lookupStabilitySig:vector  ETV
vector 1380075  Network.dyn_peer[9]  lookupTimeSig:vector  ETV
vector 1380046  Network.dyn_peer[0]  lookupHopsSig:vector  ETV
vector 1380047  Network.dyn_peer[0]  lookupStabilitySig:vector  ETV
vector 1380048  Network.dyn_peer[0]  lookupTimeSig:vector  ETV
vector 1380055  Network.dyn_peer[3]  lookupHopsSig:vector  ETV
vector 1380056  Network.dyn_peer[3]  lookupStabilitySig:vector  ETV
vector 1380057  Network.dyn_peer[3]  lookupTimeSig:vector  ETV
vector 1380058  Network.dyn_peer[4]  lookupHopsSig:vector  ETV
vector 1380059  Network.dyn_peer[4]  lookupStabilitySig:vector  ETV
vector 1380060  Network.dyn_peer[4]  lookupTimeSig:vector  ETV
vector 1380085  Network.dyn_peer[13]  lookupHopsSig:vector  ETV
vector 1380086  Network.dyn_peer[13]  lookupStabilitySig:vector  ETV
vector 1380087  Network.dyn_peer[13]  lookupTimeSig:vector  ETV
vector 1380061  Network.dyn_peer[5]  lookupHopsSig:vector  ETV
vector 1380062  Network.dyn_peer[5]  lookupStabilitySig:vector  ETV
vector 1380063  Network.dyn_peer[5]  lookupTimeSig:vector  ETV
vector 1380091  Network.dyn_peer[15]  lookupHopsSig:vector  ETV
vector 1380092  Network.dyn_peer[15]  lookupStabilitySig:vector  ETV
vector 1380093  Network.dyn_peer[15]  lookupTimeSig:vector  ETV
vector 1380070  Network.dyn_peer[8]  lookupHopsSig:vector  ETV
vector 1380071  Network.dyn_peer[8]  lookupStabilitySig:vector  ETV
vector 1380072  Network.dyn_peer[8]  lookupTimeSig:vector  ETV
vector 1380076  Network.dyn_peer[10]  lookupHopsSig:vector  ETV
vector 1380077  Network.dyn_peer[10]  lookupStabilitySig:vector  ETV
vector 1380078  Network.dyn_peer[10]  lookupTimeSig:vector  ETV
vector 1380106  Network.dyn_peer[20]  lookupHopsSig:vector  ETV
vector 1380107  Network.dyn_peer[20]  lookupStabilitySig:vector  ETV
vector 1380108  Network.dyn_peer[20]  lookupTimeSig:vector  ETV
vector 1380079  Network.dyn_peer[11]  lookupHopsSig:vector  ETV
vector 1380080  Network.dyn_peer[11]  lookupStabilitySig:vector  ETV
vector 1380081  Network.dyn_peer[11]  lookupTimeSig:vector  ETV
vector 1380052  Network.dyn_peer[2]  lookupHopsSig:vector  ETV
vector 1380053  Network.dyn_peer[2]  lookupStabilitySig:vector  ETV
vector 1380054  Network.dyn_peer[2]  lookupTimeSig:vector  ETV
vector 1380064  Network.dyn_peer[6]  lookupHopsSig:vector  ETV
vector 1380065  Network.dyn_peer[6]  lookupStabilitySig:vector  ETV
vector 1380066  Network.dyn_peer[6]  lookupTimeSig:vector  ETV
vector 1380094  Network.dyn_peer[16]  lookupHopsSig:vector  ETV
vector 1380095  Network.dyn_peer[16]  lookupStabilitySig:vector  ETV
vector 1380096  Network.dyn_peer[16]  lookupTimeSig:vector  ETV
vector 1380067  Network.dyn_peer[7]  lookupHopsSig:vector  ETV
vector 1380068  Network.dyn_peer[7]  lookupStabilitySig:vector  ETV
vector 1380069  Network.dyn_peer[7]  lookupTimeSig:vector  ETV
vector 1380097  Network.dyn_peer[17]  lookupHopsSig:vector  ETV
vector 1380098  Network.dyn_peer[17]  lookupStabilitySig:vector  ETV
vector 1380099  Network.dyn_peer[17]  lookupTimeSig:vector  ETV
vector 1380100  Network.dyn_peer[18]  lookupHopsSig:vector  ETV
vector 1380101  Network.dyn_peer[18]  lookupStabilitySig:vector  ETV
vector 1380102  Network.dyn_peer[18]  lookupTimeSig:vector  ETV
vector 1380136  Network.dyn_peer[30]  lookupHopsSig:vector  ETV
vector 1380137  Network.dyn_peer[30]  lookupStabilitySig:vector  ETV
vector 1380138  Network.dyn_peer[30]  lookupTimeSig:vector  ETV
vector 1380109  Network.dyn_peer[21]  lookupHopsSig:vector  ETV
vector 1380110  Network.dyn_peer[21]  lookupStabilitySig:vector  ETV
vector 1380111  Network.dyn_peer[21]  lookupTimeSig:vector  ETV
vector 1380139  Network.dyn_peer[31]  lookupHopsSig:vector  ETV
vector 1380140  Network.dyn_peer[31]  lookupStabilitySig:vector  ETV
vector 1380141  Network.dyn_peer[31]  lookupTimeSig:vector  ETV
vector 1380082  Network.dyn_peer[12]  lookupHopsSig:vector  ETV
vector 1380083  Network.dyn_peer[12]  lookupStabilitySig:vector  ETV
vector 1380084  Network.dyn_peer[12]  lookupTimeSig:vector  ETV
vector 1380151  Network.dyn_peer[35]  lookupHopsSig:vector  ETV
vector 1380152  Network.dyn_peer[35]  lookupStabilitySig:vector  ETV
vector 1380153  Network.dyn_peer[35]  lookupTimeSig:vector  ETV
vector 1380124  Network.dyn_peer[26]  lookupHopsSig:vector  ETV
vector 1380125  Network.dyn_peer[26]  lookupStabilitySig:vector  ETV
vector 1380126  Network.dyn_peer[26]  lookupTimeSig:vector  ETV
vector 1380154  Network.dyn_peer[36]  lookupHopsSig:vector  ETV
vector 1380155  Network.dyn_peer[36]  lookupStabilitySig:vector  ETV
vector 1380156  Network.dyn_peer[36]  lookupTimeSig:vector  ETV
vector 1380127  Network.dyn_peer[27]  lookupHopsSig:vector  ETV
vector 1380128  Network.dyn_peer[27]  lookupStabilitySig:vector  ETV
vector 1380129  Network.dyn_peer[27]  lookupTimeSig:vector  ETV
vector 1380130  Network.dyn_peer[28]  lookupHopsSig:vector  ETV
vector 1380131  Network.dyn_peer[28]  lookupStabilitySig:vector  ETV
vector 1380132  Network.dyn_peer[28]  lookupTimeSig:vector  ETV
vector 1380199  Network.dyn_peer[51]  lookupHopsSig:vector  ETV
vector 1380200  Network.dyn_peer[51]  lookupStabilitySig:vector  ETV
vector 1380201  Network.dyn_peer[51]  lookupTimeSig:vector  ETV
vector 1380142  Network.dyn_peer[32]  lookupHopsSig:vector  ETV
vector 1380143  Network.dyn_peer[32]  lookupStabilitySig:vector  ETV
vector 1380144  Network.dyn_peer[32]  lookupTimeSig:vector  ETV
vector 1380115  Network.dyn_peer[23]  lookupHopsSig:vector  ETV
vector 1380116  Network.dyn_peer[23]  lookupStabilitySig:vector  ETV
vector 1380117  Network.dyn_peer[23]  lookupTimeSig:vector  ETV
vector 1380121  Network.dyn_peer[25]  lookupHopsSig:vector  ETV
vector 1380122  Network.dyn_peer[25]  lookupStabilitySig:vector  ETV
vector 1380123  Network.dyn_peer[25]  lookupTimeSig:vector  ETV
vector 1380184  Network.dyn_peer[46]  lookupHopsSig:vector  ETV
vector 1380185  Network.dyn_peer[46]  lookupStabilitySig:vector  ETV
vector 1380186  Network.dyn_peer[46]  lookupTimeSig:vector  ETV
vector 1380187  Network.dyn_peer[47]  lookupHopsSig:vector  ETV
vector 1380188  Network.dyn_peer[47]  lookupStabilitySig:vector  ETV
vector 1380189  Network.dyn_peer[47]  lookupTimeSig:vector  ETV
vector 1380103  Network.dyn_peer[19]  lookupHopsSig:vector  ETV
vector 1380104  Network.dyn_peer[19]  lookupStabilitySig:vector  ETV
vector 1380105  Network.dyn_peer[19]  lookupTimeSig:vector  ETV
vector 1380133  Network.dyn_peer[29]  lookupHopsSig:vector  ETV
vector 1380134  Network.dyn_peer[29]  lookupStabilitySig:vector  ETV
vector 1380135  Network.dyn_peer[29]  lookupTimeSig:vector  ETV
vector 1380112  Network.dyn_peer[22]  lookupHopsSig:vector  ETV
vector 1380113  Network.dyn_peer[22]  lookupStabilitySig:vector  ETV
vector 1380114  Network.dyn_peer[22]  lookupTimeSig:vector  ETV
vector 1380145  Network.dyn_peer[33]  lookupHopsSig:vector  ETV
vector 1380146  Network.dyn_peer[33]  lookupStabilitySig:vector  ETV
vector 1380147  Network.dyn_peer[33]  lookupTimeSig:vector  ETV
vector 1380148  Network.dyn_peer[34]  lookupHopsSig:vector  ETV
vector 1380149  Network.dyn_peer[34]  lookupStabilitySig:vector  ETV
vector 1380150  Network.dyn_peer[34]  lookupTimeSig:vector  ETV
vector 1380232  Network.dyn_peer[62]  lookupHopsSig:vector  ETV
vector 1380233  Network.dyn_peer[62]  lookupStabilitySig:vector  ETV
vector 1380234  Network.dyn_peer[62]  lookupTimeSig:vector  ETV
vector 1380088  Network.dyn_peer[14]  lookupHopsSig:vector  ETV
vector 1380089  Network.dyn_peer[14]  lookupStabilitySig:vector  ETV
vector 1380090  Network.dyn_peer[14]  lookupTimeSig:vector  ETV
vector 1380118  Network.dyn_peer[24]  lookupHopsSig:vector  ETV
vector 1380119  Network.dyn_peer[24]  lookupStabilitySig:vector  ETV
vector 1380120  Network.dyn_peer[24]  lookupTimeSig:vector  ETV
vector 1380178  Network.dyn_peer[44]  lookupHopsSig:vector  ETV
vector 1380179  Network.dyn_peer[44]  lookupStabilitySig:vector  ETV
vector 1380180  Network.dyn_peer[44]  lookupTimeSig:vector  ETV
vector 1380238  Network.dyn_peer[64]  lookupHopsSig:vector  ETV
vector 1380239  Network.dyn_peer[64]  lookupStabilitySig:vector  ETV
vector 1380240  Network.dyn_peer[64]  lookupTimeSig:vector  ETV
vector 1380190  Network.dyn_peer[48]  lookupHopsSig:vector  ETV
vector 1380191  Network.dyn_peer[48]  lookupStabilitySig:vector  ETV
vector 1380192  Network.dyn_peer[48]  lookupTimeSig:vector  ETV
vector 1380166  Network.dyn_peer[40]  lookupHopsSig:vector  ETV
vector 1380167  Network.dyn_peer[40]  lookupStabilitySig:vector  ETV
vector 1380168  Network.dyn_peer[40]  lookupTimeSig:vector  ETV
vector 1380172  Network.dyn_peer[42]  lookupHopsSig:vector  ETV
vector 1380173  Network.dyn_peer[42]  lookupStabilitySig:vector  ETV
vector 1380174  Network.dyn_peer[42]  lookupTimeSig:vector  ETV
vector 1380202  Network.dyn_peer[52]  lookupHopsSig:vector  ETV
vector 1380203  Network.dyn_peer[52]  lookupStabilitySig:vector  ETV
vector 1380204  Network.dyn_peer[52]  lookupTimeSig:vector  ETV
vector 1380241  Network.dyn_peer[65]  lookupHopsSig:vector  ETV
vector 1380242  Network.dyn_peer[65]  lookupStabilitySig:vector  ETV
vector 1380243  Network.dyn_peer[65]  lookupTimeSig:vector  ETV
vector 1380226  Network.dyn_peer[60]  lookupHopsSig:vector  ETV
vector 1380227  Network.dyn_peer[60]  lookupStabilitySig:vector  ETV
vector 1380228  Network.dyn_peer[60]  lookupTimeSig:vector  ETV
vector 1380175  Network.dyn_peer[43]  lookupHopsSig:vector  ETV
vector 1380176  Network.dyn_peer[43]  lookupStabilitySig:vector  ETV
vector 1380177  Network.dyn_peer[43]  lookupTimeSig:vector  ETV
vector 1380214  Network.dyn_peer[56]  lookupHopsSig:vector  ETV
vector 1380215  Network.dyn_peer[56]  lookupStabilitySig:vector  ETV
vector 1380216  Network.dyn_peer[56]  lookupTimeSig:vector  ETV
vector 1380196  Network.dyn_peer[50]  lookupHopsSig:vector  ETV
vector 1380197  Network.dyn_peer[50]  lookupStabilitySig:vector  ETV
vector 1380198  Network.dyn_peer[50]  lookupTimeSig:vector  ETV
vector 1380331  Network.dyn_peer[95]  lookupHopsSig:vector  ETV
vector 1380332  Network.dyn_peer[95]  lookupStabilitySig:vector  ETV
vector 1380333  Network.dyn_peer[95]  lookupTimeSig:vector  ETV
vector 1380157  Network.dyn_peer[37]  lookupHopsSig:vector  ETV
vector 1380158  Network.dyn_peer[37]  lookupStabilitySig:vector  ETV
vector 1380159  Network.dyn_peer[37]  lookupTimeSig:vector  ETV
vector 1380316  Network.dyn_peer[90]  lookupHopsSig:vector  ETV
vector 1380317  Network.dyn_peer[90]  lookupStabilitySig:vector  ETV
vector 1380318  Network.dyn_peer[90]  lookupTimeSig:vector  ETV
vector 1380328  Network.dyn_peer[94]  lookupHopsSig:vector  ETV
vector 1380329  Network.dyn_peer[94]  lookupStabilitySig:vector  ETV
vector 1380330  Network.dyn_peer[94]  lookupTimeSig:vector  ETV
vector 1380388  Network.dyn_peer[114]  lookupHopsSig:vector  ETV
vector 1380389  Network.dyn_peer[114]  lookupStabilitySig:vector  ETV
vector 1380390  Network.dyn_peer[114]  lookupTimeSig:vector  ETV
vector 1380274  Network.dyn_peer[76]  lookupHopsSig:vector  ETV
vector 1380275  Network.dyn_peer[76]  lookupStabilitySig:vector  ETV
vector 1380276  Network.dyn_peer[76]  lookupTimeSig:vector  ETV
vector 1380223  Network.dyn_peer[59]  lookupHopsSig:vector  ETV
vector 1380224  Network.dyn_peer[59]  lookupStabilitySig:vector  ETV
vector 1380225  Network.dyn_peer[59]  lookupTimeSig:vector  ETV
vector 1380229  Network.dyn_peer[61]  lookupHopsSig:vector  ETV
vector 1380230  Network.dyn_peer[61]  lookupStabilitySig:vector  ETV
vector 1380231  Network.dyn_peer[61]  lookupTimeSig:vector  ETV
vector 1380292  Network.dyn_peer[82]  lookupHopsSig:vector  ETV
vector 1380293  Network.dyn_peer[82]  lookupStabilitySig:vector  ETV
vector 1380294  Network.dyn_peer[82]  lookupTimeSig:vector  ETV
vector 1380352  Network.dyn_peer[102]  lookupHopsSig:vector  ETV
vector 1380353  Network.dyn_peer[102]  lookupStabilitySig:vector  ETV
vector 1380354  Network.dyn_peer[102]  lookupTimeSig:vector  ETV
vector 1380361  Network.dyn_peer[105]  lookupHopsSig:vector  ETV
vector 1380362  Network.dyn_peer[105]  lookupStabilitySig:vector  ETV
vector 1380363  Network.dyn_peer[105]  lookupTimeSig:vector  ETV
vector 1380391  Network.dyn_peer[115]  lookupHopsSig:vector  ETV
vector 1380392  Network.dyn_peer[115]  lookupStabilitySig:vector  ETV
vector 1380393  Network.dyn_peer[115]  lookupTimeSig:vector  ETV
vector 1380364  Network.dyn_peer[106]  lookupHopsSig:vector  ETV
vector 1380365  Network.dyn_peer[106]  lookupStabilitySig:vector  ETV
vector 1380366  Network.dyn_peer[106]  lookupTimeSig:vector  ETV
vector 1380217  Network.dyn_peer[57]  lookupHopsSig:vector  ETV
vector 1380218  Network.dyn_peer[57]  lookupStabilitySig:vector  ETV
vector 1380219  Network.dyn_peer[57]  lookupTimeSig:vector  ETV
vector 1380313  Network.dyn_peer[89]  lookupHopsSig:vector  ETV
vector 1380314  Network.dyn_peer[89]  lookupStabilitySig:vector  ETV
vector 1380315  Network.dyn_peer[89]  lookupTimeSig:vector  ETV
vector 1380286  Network.dyn_peer[80]  lookupHopsSig:vector  ETV
vector 1380287  Network.dyn_peer[80]  lookupStabilitySig:vector  ETV
vector 1380288  Network.dyn_peer[80]  lookupTimeSig:vector  ETV
vector 1380289  Network.dyn_peer[81]  lookupHopsSig:vector  ETV
vector 1380290  Network.dyn_peer[81]  lookupStabilitySig:vector  ETV
vector 1380291  Network.dyn_peer[81]  lookupTimeSig:vector  ETV
vector 1380379  Network.dyn_peer[111]  lookupHopsSig:vector  ETV
vector 1380380  Network.dyn_peer[111]  lookupStabilitySig:vector  ETV
vector 1380381  Network.dyn_peer[111]  lookupTimeSig:vector  ETV
vector 1380322  Network.dyn_peer[92]  lookupHopsSig:vector  ETV
vector 1380323  Network.dyn_peer[92]  lookupStabilitySig:vector  ETV
vector 1380324  Network.dyn_peer[92]  lookupTimeSig:vector  ETV
vector 1380295  Network.dyn_peer[83]  lookupHopsSig:vector  ETV
vector 1380296  Network.dyn_peer[83]  lookupStabilitySig:vector  ETV
vector 1380297  Network.dyn_peer[83]  lookupTimeSig:vector  ETV
vector 1380355  Network.dyn_peer[103]  lookupHopsSig:vector  ETV
vector 1380356  Network.dyn_peer[103]  lookupStabilitySig:vector  ETV
vector 1380357  Network.dyn_peer[103]  lookupTimeSig:vector  ETV
vector 1380385  Network.dyn_peer[113]  lookupHopsSig:vector  ETV
vector 1380386  Network.dyn_peer[113]  lookupStabilitySig:vector  ETV
vector 1380387  Network.dyn_peer[113]  lookupTimeSig:vector  ETV
vector 1380271  Network.dyn_peer[75]  lookupHopsSig:vector  ETV
vector 1380272  Network.dyn_peer[75]  lookupStabilitySig:vector  ETV
vector 1380273  Network.dyn_peer[75]  lookupTimeSig:vector  ETV
vector 1380301  Network.dyn_peer[85]  lookupHopsSig:vector  ETV
vector 1380302  Network.dyn_peer[85]  lookupStabilitySig:vector  ETV
vector 1380303  Network.dyn_peer[85]  lookupTimeSig:vector  ETV
vector 1380160  Network.dyn_peer[38]  lookupHopsSig:vector  ETV
vector 1380161  Network.dyn_peer[38]  lookupStabilitySig:vector  ETV
vector 1380162  Network.dyn_peer[38]  lookupTimeSig:vector  ETV
vector 1380280  Network.dyn_peer[78]  lookupHopsSig:vector  ETV
vector 1380281  Network.dyn_peer[78]  lookupStabilitySig:vector  ETV
vector 1380282  Network.dyn_peer[78]  lookupTimeSig:vector  ETV
vector 1380283  Network.dyn_peer[79]  lookupHopsSig:vector  ETV
vector 1380284  Network.dyn_peer[79]  lookupStabilitySig:vector  ETV
vector 1380285  Network.dyn_peer[79]  lookupTimeSig:vector  ETV
vector 1380376  Network.dyn_peer[110]  lookupHopsSig:vector  ETV
vector 1380377  Network.dyn_peer[110]  lookupStabilitySig:vector  ETV
vector 1380378  Network.dyn_peer[110]  lookupTimeSig:vector  ETV
vector 1380262  Network.dyn_peer[72]  lookupHopsSig:vector  ETV
vector 1380263  Network.dyn_peer[72]  lookupStabilitySig:vector  ETV
vector 1380264  Network.dyn_peer[72]  lookupTimeSig:vector  ETV
vector 1380442  Network.dyn_peer[132]  lookupHopsSig:vector  ETV
vector 1380443  Network.dyn_peer[132]  lookupStabilitySig:vector  ETV
vector 1380444  Network.dyn_peer[132]  lookupTimeSig:vector  ETV
vector 1380304  Network.dyn_peer[86]  lookupHopsSig:vector  ETV
vector 1380305  Network.dyn_peer[86]  lookupStabilitySig:vector  ETV
vector 1380306  Network.dyn_peer[86]  lookupTimeSig:vector  ETV
vector 1380247  Network.dyn_peer[67]  lookupHopsSig:vector  ETV
vector 1380248  Network.dyn_peer[67]  lookupStabilitySig:vector  ETV
vector 1380249  Network.dyn_peer[67]  lookupTimeSig:vector  ETV
vector 1380220  Network.dyn_peer[58]  lookupHopsSig:vector  ETV
vector 1380221  Network.dyn_peer[58]  lookupStabilitySig:vector  ETV
vector 1380222  Network.dyn_peer[58]  lookupTimeSig:vector  ETV
vector 1380403  Network.dyn_peer[119]  lookupHopsSig:vector  ETV
vector 1380404  Network.dyn_peer[119]  lookupStabilitySig:vector  ETV
vector 1380405  Network.dyn_peer[119]  lookupTimeSig:vector  ETV
vector 1380406  Network.dyn_peer[120]  lookupHopsSig:vector  ETV
vector 1380407  Network.dyn_peer[120]  lookupStabilitySig:vector  ETV
vector 1380408  Network.dyn_peer[120]  lookupTimeSig:vector  ETV
vector 1380259  Network.dyn_peer[71]  lookupHopsSig:vector  ETV
vector 1380260  Network.dyn_peer[71]  lookupStabilitySig:vector  ETV
vector 1380261  Network.dyn_peer[71]  lookupTimeSig:vector  ETV
vector 1380208  Network.dyn_peer[54]  lookupHopsSig:vector  ETV
vector 1380209  Network.dyn_peer[54]  lookupStabilitySig:vector  ETV
vector 1380210  Network.dyn_peer[54]  lookupTimeSig:vector  ETV
vector 1380298  Network.dyn_peer[84]  lookupHopsSig:vector  ETV
vector 1380299  Network.dyn_peer[84]  lookupStabilitySig:vector  ETV
vector 1380300  Network.dyn_peer[84]  lookupTimeSig:vector  ETV
vector 1380547  Network.dyn_peer[167]  lookupHopsSig:vector  ETV
vector 1380548  Network.dyn_peer[167]  lookupStabilitySig:vector  ETV
vector 1380549  Network.dyn_peer[167]  lookupTimeSig:vector  ETV
vector 1380250  Network.dyn_peer[68]  lookupHopsSig:vector  ETV
vector 1380251  Network.dyn_peer[68]  lookupStabilitySig:vector  ETV
vector 1380252  Network.dyn_peer[68]  lookupTimeSig:vector  ETV
vector 1380253  Network.dyn_peer[69]  lookupHopsSig:vector  ETV
vector 1380254  Network.dyn_peer[69]  lookupStabilitySig:vector  ETV
vector 1380255  Network.dyn_peer[69]  lookupTimeSig:vector  ETV
vector 1380373  Network.dyn_peer[109]  lookupHopsSig:vector  ETV
vector 1380374  Network.dyn_peer[109]  lookupStabilitySig:vector  ETV
vector 1380375  Network.dyn_peer[109]  lookupTimeSig:vector  ETV
vector 1380439  Network.dyn_peer[131]  lookupHopsSig:vector  ETV
vector 1380440  Network.dyn_peer[131]  lookupStabilitySig:vector  ETV
vector 1380441  Network.dyn_peer[131]  lookupTimeSig:vector  ETV
vector 1380499  Network.dyn_peer[151]  lookupHopsSig:vector  ETV
vector 1380500  Network.dyn_peer[151]  lookupStabilitySig:vector  ETV
vector 1380501  Network.dyn_peer[151]  lookupTimeSig:vector  ETV
vector 1380448  Network.dyn_peer[134]  lookupHopsSig:vector  ETV
vector 1380449  Network.dyn_peer[134]  lookupStabilitySig:vector  ETV
vector 1380450  Network.dyn_peer[134]  lookupTimeSig:vector  ETV
vector 1380181  Network.dyn_peer[45]  lookupHopsSig:vector  ETV
vector 1380182  Network.dyn_peer[45]  lookupStabilitySig:vector  ETV
vector 1380183  Network.dyn_peer[45]  lookupTimeSig:vector  ETV
vector 1380454  Network.dyn_peer[136]  lookupHopsSig:vector  ETV
vector 1380455  Network.dyn_peer[136]  lookupStabilitySig:vector  ETV
vector 1380456  Network.dyn_peer[136]  lookupTimeSig:vector  ETV
vector 1380235  Network.dyn_peer[63]  lookupHopsSig:vector  ETV
vector 1380236  Network.dyn_peer[63]  lookupStabilitySig:vector  ETV
vector 1380237  Network.dyn_peer[63]  lookupTimeSig:vector  ETV
vector 1380265  Network.dyn_peer[73]  lookupHopsSig:vector  ETV
vector 1380266  Network.dyn_peer[73]  lookupStabilitySig:vector  ETV
vector 1380267  Network.dyn_peer[73]  lookupTimeSig:vector  ETV
vector 1380505  Network.dyn_peer[153]  lookupHopsSig:vector  ETV
vector 1380506  Network.dyn_peer[153]  lookupStabilitySig:vector  ETV
vector 1380507  Network.dyn_peer[153]  lookupTimeSig:vector  ETV
vector 1380358  Network.dyn_peer[104]  lookupHopsSig:vector  ETV
vector 1380359  Network.dyn_peer[104]  lookupStabilitySig:vector  ETV
vector 1380360  Network.dyn_peer[104]  lookupTimeSig:vector  ETV
vector 1380421  Network.dyn_peer[125]  lookupHopsSig:vector  ETV
vector 1380422  Network.dyn_peer[125]  lookupStabilitySig:vector  ETV
vector 1380423  Network.dyn_peer[125]  lookupTimeSig:vector  ETV
vector 1380481  Network.dyn_peer[145]  lookupHopsSig:vector  ETV
vector 1380482  Network.dyn_peer[145]  lookupStabilitySig:vector  ETV
vector 1380483  Network.dyn_peer[145]  lookupTimeSig:vector  ETV
vector 1380394  Network.dyn_peer[116]  lookupHopsSig:vector  ETV
vector 1380395  Network.dyn_peer[116]  lookupStabilitySig:vector  ETV
vector 1380396  Network.dyn_peer[116]  lookupTimeSig:vector  ETV
vector 1380163  Network.dyn_peer[39]  lookupHopsSig:vector  ETV
vector 1380164  Network.dyn_peer[39]  lookupStabilitySig:vector  ETV
vector 1380165  Network.dyn_peer[39]  lookupTimeSig:vector  ETV
vector 1380343  Network.dyn_peer[99]  lookupHopsSig:vector  ETV
vector 1380344  Network.dyn_peer[99]  lookupStabilitySig:vector  ETV
vector 1380345  Network.dyn_peer[99]  lookupTimeSig:vector  ETV
vector 1380472  Network.dyn_peer[142]  lookupHopsSig:vector  ETV
vector 1380473  Network.dyn_peer[142]  lookupStabilitySig:vector  ETV
vector 1380474  Network.dyn_peer[142]  lookupTimeSig:vector  ETV
vector 1380244  Network.dyn_peer[66]  lookupHopsSig:vector  ETV
vector 1380245  Network.dyn_peer[66]  lookupStabilitySig:vector  ETV
vector 1380246  Network.dyn_peer[66]  lookupTimeSig:vector  ETV
vector 1380277  Network.dyn_peer[77]  lookupHopsSig:vector  ETV
vector 1380278  Network.dyn_peer[77]  lookupStabilitySig:vector  ETV
vector 1380279  Network.dyn_peer[77]  lookupTimeSig:vector  ETV
vector 1380256  Network.dyn_peer[70]  lookupHopsSig:vector  ETV
vector 1380257  Network.dyn_peer[70]  lookupStabilitySig:vector  ETV
vector 1380258  Network.dyn_peer[70]  lookupTimeSig:vector  ETV
vector 1380556  Network.dyn_peer[170]  lookupHopsSig:vector  ETV
vector 1380557  Network.dyn_peer[170]  lookupStabilitySig:vector  ETV
vector 1380558  Network.dyn_peer[170]  lookupTimeSig:vector  ETV
vector 1380169  Network.dyn_peer[41]  lookupHopsSig:vector  ETV
vector 1380170  Network.dyn_peer[41]  lookupStabilitySig:vector  ETV
vector 1380171  Network.dyn_peer[41]  lookupTimeSig:vector  ETV
vector 1380415  Network.dyn_peer[123]  lookupHopsSig:vector  ETV
vector 1380416  Network.dyn_peer[123]  lookupStabilitySig:vector  ETV
vector 1380417  Network.dyn_peer[123]  lookupTimeSig:vector  ETV
vector 1380445  Network.dyn_peer[133]  lookupHopsSig:vector  ETV
vector 1380446  Network.dyn_peer[133]  lookupStabilitySig:vector  ETV
vector 1380447  Network.dyn_peer[133]  lookupTimeSig:vector  ETV
vector 1380538  Network.dyn_peer[164]  lookupHopsSig:vector  ETV
vector 1380539  Network.dyn_peer[164]  lookupStabilitySig:vector  ETV
vector 1380540  Network.dyn_peer[164]  lookupTimeSig:vector  ETV
vector 1380571  Network.dyn_peer[175]  lookupHopsSig:vector  ETV
vector 1380572  Network.dyn_peer[175]  lookupStabilitySig:vector  ETV
vector 1380573  Network.dyn_peer[175]  lookupTimeSig:vector  ETV
vector 1380634  Network.dyn_peer[196]  lookupHopsSig:vector  ETV
vector 1380635  Network.dyn_peer[196]  lookupStabilitySig:vector  ETV
vector 1380636  Network.dyn_peer[196]  lookupTimeSig:vector  ETV
vector 1380553  Network.dyn_peer[169]  lookupHopsSig:vector  ETV
vector 1380554  Network.dyn_peer[169]  lookupStabilitySig:vector  ETV
vector 1380555  Network.dyn_peer[169]  lookupTimeSig:vector  ETV
vector 1380529  Network.dyn_peer[161]  lookupHopsSig:vector  ETV
vector 1380530  Network.dyn_peer[161]  lookupStabilitySig:vector  ETV
vector 1380531  Network.dyn_peer[161]  lookupTimeSig:vector  ETV
vector 1380502  Network.dyn_peer[152]  lookupHopsSig:vector  ETV
vector 1380503  Network.dyn_peer[152]  lookupStabilitySig:vector  ETV
vector 1380504  Network.dyn_peer[152]  lookupTimeSig:vector  ETV
vector 1380562  Network.dyn_peer[172]  lookupHopsSig:vector  ETV
vector 1380563  Network.dyn_peer[172]  lookupStabilitySig:vector  ETV
vector 1380564  Network.dyn_peer[172]  lookupTimeSig:vector  ETV
vector 1380535  Network.dyn_peer[163]  lookupHopsSig:vector  ETV
vector 1380536  Network.dyn_peer[163]  lookupStabilitySig:vector  ETV
vector 1380537  Network.dyn_peer[163]  lookupTimeSig:vector  ETV
vector 1380523  Network.dyn_peer[159]  lookupHopsSig:vector  ETV
vector 1380524  Network.dyn_peer[159]  lookupStabilitySig:vector  ETV
vector 1380525  Network.dyn_peer[159]  lookupTimeSig:vector  ETV
vector 1380655  Network.dyn_peer[203]  lookupHopsSig:vector  ETV
vector 1380656  Network.dyn_peer[203]  lookupStabilitySig:vector  ETV
vector 1380657  Network.dyn_peer[203]  lookupTimeSig:vector  ETV
vector 1380268  Network.dyn_peer[74]  lookupHopsSig:vector  ETV
vector 1380269  Network.dyn_peer[74]  lookupStabilitySig:vector  ETV
vector 1380270  Network.dyn_peer[74]  lookupTimeSig:vector  ETV
vector 1380418  Network.dyn_peer[124]  lookupHopsSig:vector  ETV
vector 1380419  Network.dyn_peer[124]  lookupStabilitySig:vector  ETV
vector 1380420  Network.dyn_peer[124]  lookupTimeSig:vector  ETV
vector 1380628  Network.dyn_peer[194]  lookupHopsSig:vector  ETV
vector 1380629  Network.dyn_peer[194]  lookupStabilitySig:vector  ETV
vector 1380630  Network.dyn_peer[194]  lookupTimeSig:vector  ETV
vector 1380541  Network.dyn_peer[165]  lookupHopsSig:vector  ETV
vector 1380542  Network.dyn_peer[165]  lookupStabilitySig:vector  ETV
vector 1380543  Network.dyn_peer[165]  lookupTimeSig:vector  ETV
vector 1380307  Network.dyn_peer[87]  lookupHopsSig:vector  ETV
vector 1380308  Network.dyn_peer[87]  lookupStabilitySig:vector  ETV
vector 1380309  Network.dyn_peer[87]  lookupTimeSig:vector  ETV
vector 1380517  Network.dyn_peer[157]  lookupHopsSig:vector  ETV
vector 1380518  Network.dyn_peer[157]  lookupStabilitySig:vector  ETV
vector 1380519  Network.dyn_peer[157]  lookupTimeSig:vector  ETV
vector 1380436  Network.dyn_peer[130]  lookupHopsSig:vector  ETV
vector 1380437  Network.dyn_peer[130]  lookupStabilitySig:vector  ETV
vector 1380438  Network.dyn_peer[130]  lookupTimeSig:vector  ETV
vector 1380622  Network.dyn_peer[192]  lookupHopsSig:vector  ETV
vector 1380623  Network.dyn_peer[192]  lookupStabilitySig:vector  ETV
vector 1380624  Network.dyn_peer[192]  lookupTimeSig:vector  ETV
vector 1380325  Network.dyn_peer[93]  lookupHopsSig:vector  ETV
vector 1380326  Network.dyn_peer[93]  lookupStabilitySig:vector  ETV
vector 1380327  Network.dyn_peer[93]  lookupTimeSig:vector  ETV
vector 1380604  Network.dyn_peer[186]  lookupHopsSig:vector  ETV
vector 1380605  Network.dyn_peer[186]  lookupStabilitySig:vector  ETV
vector 1380606  Network.dyn_peer[186]  lookupTimeSig:vector  ETV
vector 1380460  Network.dyn_peer[138]  lookupHopsSig:vector  ETV
vector 1380461  Network.dyn_peer[138]  lookupStabilitySig:vector  ETV
vector 1380462  Network.dyn_peer[138]  lookupTimeSig:vector  ETV
vector 1380490  Network.dyn_peer[148]  lookupHopsSig:vector  ETV
vector 1380491  Network.dyn_peer[148]  lookupStabilitySig:vector  ETV
vector 1380492  Network.dyn_peer[148]  lookupTimeSig:vector  ETV
vector 1380550  Network.dyn_peer[168]  lookupHopsSig:vector  ETV
vector 1380551  Network.dyn_peer[168]  lookupStabilitySig:vector  ETV
vector 1380552  Network.dyn_peer[168]  lookupTimeSig:vector  ETV
vector 1380703  Network.dyn_peer[219]  lookupHopsSig:vector  ETV
vector 1380704  Network.dyn_peer[219]  lookupStabilitySig:vector  ETV
vector 1380705  Network.dyn_peer[219]  lookupTimeSig:vector  ETV
vector 1380424  Network.dyn_peer[126]  lookupHopsSig:vector  ETV
vector 1380425  Network.dyn_peer[126]  lookupStabilitySig:vector  ETV
vector 1380426  Network.dyn_peer[126]  lookupTimeSig:vector  ETV
vector 1380193  Network.dyn_peer[49]  lookupHopsSig:vector  ETV
vector 1380194  Network.dyn_peer[49]  lookupStabilitySig:vector  ETV
vector 1380195  Network.dyn_peer[49]  lookupTimeSig:vector  ETV
vector 1380613  Network.dyn_peer[189]  lookupHopsSig:vector  ETV
vector 1380614  Network.dyn_peer[189]  lookupStabilitySig:vector  ETV
vector 1380615  Network.dyn_peer[189]  lookupTimeSig:vector  ETV
vector 1380466  Network.dyn_peer[140]  lookupHopsSig:vector  ETV
vector 1380467  Network.dyn_peer[140]  lookupStabilitySig:vector  ETV
vector 1380468  Network.dyn_peer[140]  lookupTimeSig:vector  ETV
vector 1380349  Network.dyn_peer[101]  lookupHopsSig:vector  ETV
vector 1380350  Network.dyn_peer[101]  lookupStabilitySig:vector  ETV
vector 1380351  Network.dyn_peer[101]  lookupTimeSig:vector  ETV
vector 1380589  Network.dyn_peer[181]  lookupHopsSig:vector  ETV
vector 1380590  Network.dyn_peer[181]  lookupStabilitySig:vector  ETV
vector 1380591  Network.dyn_peer[181]  lookupTimeSig:vector  ETV
vector 1380619  Network.dyn_peer[191]  lookupHopsSig:vector  ETV
vector 1380620  Network.dyn_peer[191]  lookupStabilitySig:vector  ETV
vector 1380621  Network.dyn_peer[191]  lookupTimeSig:vector  ETV
vector 1380412  Network.dyn_peer[122]  lookupHopsSig:vector  ETV
vector 1380413  Network.dyn_peer[122]  lookupStabilitySig:vector  ETV
vector 1380414  Network.dyn_peer[122]  lookupTimeSig:vector  ETV
vector 1380532  Network.dyn_peer[162]  lookupHopsSig:vector  ETV
vector 1380533  Network.dyn_peer[162]  lookupStabilitySig:vector  ETV
vector 1380534  Network.dyn_peer[162]  lookupTimeSig:vector  ETV