file 5996487 1369933132                                         
version 2
run Stability2-93-20130528-01:50:05-24168
attr configname Stability2
attr datetime 20130528-01:50:05
attr experiment Stability2
attr inifile omnetpp.ini
attr iterationvars $0=500
attr iterationvars2 "$0=500, $repetition=3"
attr measurement $0=500
attr network Network
attr processid 24168
attr repetition 3
attr replication #3
attr resultdir results
attr runnumber 93
attr seedset 93
vector 2820093  Network.churner  inGoingSizeSig:vector  ETV
2820093	5870647 125840 11 914814 20 70 5001 0 2148 6402657 9855878429
vector 2790114  Network.dyn_peer[7]  lookupHopsSig:vector  ETV
2790114	1023160 383 39 1100969 20.08 76.333287650541 12 0 78 363 17981
vector 2790115  Network.dyn_peer[7]  lookupStabilitySig:vector  ETV
2790115	1023543 528 39 1100969 20.08 76.333287650541 12 0.125 1 10.302021485753 9.5705202585023
vector 2790116  Network.dyn_peer[7]  lookupTimeSig:vector  ETV
2790116	1024071 395 39 1100969 20.08 76.333287650541 12 0 7.9 37.4 187.18
vector 2790096  Network.dyn_peer[1]  lookupHopsSig:vector  ETV
2790096	1014446 469 56 546570 20.12 57.072707230613 15 1 55 307 10807
vector 2790097  Network.dyn_peer[1]  lookupStabilitySig:vector  ETV
2790097	1014915 673 56 546570 20.12 57.072707230613 15 0.39130437374115 0.99240121571347 12.878996181767 11.527174176415
vector 2790098  Network.dyn_peer[1]  lookupTimeSig:vector  ETV
2790098	1015588 486 56 546570 20.12 57.072707230613 15 0.1 5.6 32.1 114.33
vector 2790135  Network.dyn_peer[14]  lookupHopsSig:vector  ETV
2790135	1033165 369 74 833046 20.15 67.369621170203 12 0 65 355 17195
vector 2790136  Network.dyn_peer[14]  lookupStabilitySig:vector  ETV
2790136	1033534 522 74 833046 20.15 67.369621170203 12 0.33333331346512 1 9.9757774006575 8.9063160091479
vector 2790137  Network.dyn_peer[14]  lookupTimeSig:vector  ETV
2790137	1034056 382 74 833046 20.15 67.369621170203 12 0 6.6 36.6 179.16
vector 2790117  Network.dyn_peer[8]  lookupHopsSig:vector  ETV
2790117	1024466 481 92 1007569 20.19 73.02252341678 15 1 82 369 16939
vector 2790118  Network.dyn_peer[8]  lookupStabilitySig:vector  ETV
2790118	1024947 695 92 1007569 20.19 73.02252341678 15 0.16666668653488 0.99779492826201 13.29194265767 12.386343359535
vector 2790119  Network.dyn_peer[8]  lookupTimeSig:vector  ETV
2790119	1025642 501 92 1007569 20.19 73.02252341678 15 0.1 8.3 38.3 176.89
vector 2790120  Network.dyn_peer[9]  lookupHopsSig:vector  ETV
2790120	1026143 366 101 467216 20.2 53.834269316377 12 1 52 185 5849
vector 2790121  Network.dyn_peer[9]  lookupStabilitySig:vector  ETV
2790121	1026509 540 101 467216 20.2 53.834269316377 12 0.16666668653488 0.99653739621863 10.440473874565 9.702059643966
vector 2790122  Network.dyn_peer[9]  lookupTimeSig:vector  ETV
2790122	1027049 384 101 467216 20.2 53.834269316377 12 0.1 5.3 19.6 62.28
vector 2790093  Network.dyn_peer[0]  lookupHopsSig:vector  ETV
2790093	1012125 670 110 1229787 20.21 81.751657806364 21 1 68 469 17799
vector 2790094  Network.dyn_peer[0]  lookupStabilitySig:vector  ETV
2790094	1012795 956 110 1229787 20.21 81.751657806364 21 0 0.99913219554583 18.293197613268 17.075312036383
vector 2790095  Network.dyn_peer[0]  lookupTimeSig:vector  ETV
2790095	1013751 695 110 1229787 20.21 81.751657806364 21 0.2 6.9 48.9 187.53
vector 2790123  Network.dyn_peer[10]  lookupHopsSig:vector  ETV
2790123	1027433 372 114 1103586 20.21 76.431065022805 12 1 98 360 21066
vector 2790124  Network.dyn_peer[10]  lookupStabilitySig:vector  ETV
2790124	1027805 543 114 1103586 20.21 76.431065022805 12 0.39999997615814 0.99845440499485 10.03763028048 8.8532204640739
vector 2790125  Network.dyn_peer[10]  lookupTimeSig:vector  ETV
2790125	1028348 386 114 1103586 20.21 76.431065022805 12 0.1 9.9 37.1 217.95
vector 2790102  Network.dyn_peer[3]  lookupHopsSig:vector  ETV
2790102	1017598 413 133 1031597 20.24 73.841737436208 13 2 74 338 15178
vector 2790103  Network.dyn_peer[3]  lookupStabilitySig:vector  ETV
2790103	1018011 599 133 1031597 20.24 73.841737436208 13 0.19999998807907 0.99057008139789 10.407259968109 8.9551410319411
vector 2790104  Network.dyn_peer[3]  lookupTimeSig:vector  ETV
2790104	1018610 431 133 1031597 20.24 73.841737436208 13 0.2 7.5 35 158.62
vector 2790132  Network.dyn_peer[13]  lookupHopsSig:vector  ETV
2790132	1031753 405 137 850572 20.24 67.944293039874 13 1 49 231 6509
vector 2790133  Network.dyn_peer[13]  lookupStabilitySig:vector  ETV
2790133	1032158 587 137 850572 20.24 67.944293039874 13 0.38888889551163 0.9964476020541 11.012403999222 9.8926299766678
vector 2790134  Network.dyn_peer[13]  lookupTimeSig:vector  ETV
2790134	1032745 420 137 850572 20.24 67.944293039874 13 0.1 5 24.3 69.81
vector 2790108  Network.dyn_peer[5]  lookupHopsSig:vector  ETV
2790108	1020822 398 153 303812 20.26 46.431120861686 13 2 28 164 3046
vector 2790109  Network.dyn_peer[5]  lookupStabilitySig:vector  ETV
2790109	1021220 571 153 303812 20.26 46.431120861686 13 0.39999997615814 0.98306679166853 10.611827796325 9.1743640727664
vector 2790110  Network.dyn_peer[5]  lookupTimeSig:vector  ETV
2790110	1021791 417 153 303812 20.26 46.431120861686 13 0.2 2.9 17.6 33.82
vector 2790144  Network.dyn_peer[17]  lookupHopsSig:vector  ETV
2790144	1037976 438 166 771636 20.28 65.312688359673 14 1 119 390 23740
vector 2790145  Network.dyn_peer[17]  lookupStabilitySig:vector  ETV
2790145	1038414 624 166 771636 20.28 65.312688359673 14 0.19999998807907 0.98785266466439 11.763785062358 10.576044413693
vector 2790146  Network.dyn_peer[17]  lookupTimeSig:vector  ETV
2790146	1039038 455 166 771636 20.28 65.312688359673 14 0.1 12 40.3 245.31
vector 2790126  Network.dyn_peer[11]  lookupHopsSig:vector  ETV
2790126	1028734 571 193 630383 20.32 60.299890626129 18 1 46 314 8310
vector 2790127  Network.dyn_peer[11]  lookupStabilitySig:vector  ETV
2790127	1029305 813 193 630383 20.32 60.299890626129 18 0 0.99180327914655 15.444749537855 14.434487175988
vector 2790128  Network.dyn_peer[11]  lookupTimeSig:vector  ETV
2790128	1030118 592 193 630383 20.32 60.299890626129 18 0.2 4.7 33.1 89.51
vector 2790168  Network.dyn_peer[25]  lookupHopsSig:vector  ETV
2790168	1051899 471 222 899211 20.36 69.507545683853 15 1 69 333 13723
vector 2790169  Network.dyn_peer[25]  lookupStabilitySig:vector  ETV
2790169	1052370 672 222 899211 20.36 69.507545683853 15 0 0.99730700184591 12.807219591457 11.837743607955
vector 2790170  Network.dyn_peer[25]  lookupTimeSig:vector  ETV
2790170	1053042 486 222 899211 20.36 69.507545683853 15 0.1 7 34.7 144.01
vector 2790111  Network.dyn_peer[6]  lookupHopsSig:vector  ETV
2790111	1022208 271 233 384299 20.37 50.194808154713 9 3 71 211 9363
vector 2790112  Network.dyn_peer[6]  lookupStabilitySig:vector  ETV
2790112	1022479 401 233 384299 20.37 50.194808154713 9 0.23809522390366 0.98849797062576 7.1645629405975 6.3225161051554
vector 2790113  Network.dyn_peer[6]  lookupTimeSig:vector  ETV
2790113	1022880 280 233 384299 20.37 50.194808154713 9 0.3 7.2 21.9 97.87
vector 2790180  Network.dyn_peer[29]  lookupHopsSig:vector  ETV
2790180	1058009 652 258 1401815 20.4 93.725343090216 20 1 89 605 29363
vector 2790181  Network.dyn_peer[29]  lookupStabilitySig:vector  ETV
2790181	1058661 926 258 1401815 20.4 93.725343090216 20 0.39999997615814 0.99232035083696 17.928697129712 16.464643712831
vector 2790182  Network.dyn_peer[29]  lookupTimeSig:vector  ETV
2790182	1059587 671 258 1401815 20.4 93.725343090216 20 0.1 9 62.4 305.9
vector 2790216  Network.dyn_peer[41]  lookupHopsSig:vector  ETV
2790216	1078972 569 283 1183215 20.42 79.642830404603 18 0 137 498 34240
vector 2790217  Network.dyn_peer[41]  lookupStabilitySig:vector  ETV
2790217	1079541 789 283 1183215 20.42 79.642830404603 18 0 1 15.847922556102 14.861255470124
vector 2790218  Network.dyn_peer[41]  lookupTimeSig:vector  ETV
2790218	1080330 588 283 1183215 20.42 79.642830404603 18 0 13.8 51.5 352.53
vector 2790159  Network.dyn_peer[22]  lookupHopsSig:vector  ETV
2790159	1046758 535 294 748110 20.43 64.500749718772 17 2 68 367 14601
vector 2790160  Network.dyn_peer[22]  lookupStabilitySig:vector  ETV
2790160	1047293 764 294 748110 20.43 64.500749718772 17 0 0.99387630121782 14.454824349377 13.228458141518
vector 2790161  Network.dyn_peer[22]  lookupTimeSig:vector  ETV
2790161	1048057 559 294 748110 20.43 64.500749718772 17 0.2 6.9 38.3 153.47
vector 2790162  Network.dyn_peer[23]  lookupHopsSig:vector  ETV
2790162	1048616 300 304 374215 20.44 49.736770919304 10 2 40 126 2932
vector 2790163  Network.dyn_peer[23]  lookupStabilitySig:vector  ETV
2790163	1048916 435 304 374215 20.44 49.736770919304 10 0.25 0.98407202214003 8.2487518843263 7.3066439829237
vector 2790164  Network.dyn_peer[23]  lookupTimeSig:vector  ETV
2790164	1049351 315 304 374215 20.44 49.736770919304 10 0.2 4.1 13.5 31.89
vector 2790141  Network.dyn_peer[16]  lookupHopsSig:vector  ETV
2790141	1036686 370 332 706326 20.47 63.044539368898 12 3 52 253 8055
vector 2790142  Network.dyn_peer[16]  lookupStabilitySig:vector  ETV
2790142	1037056 540 332 706326 20.47 63.044539368898 12 0.19999998807907 0.99078765511513 9.5860141292214 8.3874537230456
vector 2790143  Network.dyn_peer[16]  lookupTimeSig:vector  ETV
2790143	1037596 380 332 706326 20.47 63.044539368898 12 0.3 5.3 26.4 85.66
vector 2790171  Network.dyn_peer[26]  lookupHopsSig:vector  ETV
2790171	1053528 307 336 477829 20.47 54.286073654158 10 2 33 180 4330
vector 2790172  Network.dyn_peer[26]  lookupStabilitySig:vector  ETV
2790172	1053835 449 336 477829 20.47 54.286073654158 10 0.36363637447357 0.9853438558057 8.2851159786806 7.3001373827313
vector 2790173  Network.dyn_peer[26]  lookupTimeSig:vector  ETV
2790173	1054284 316 336 477829 20.47 54.286073654158 10 0.2 3.4 18.9 46.95
vector 2790177  Network.dyn_peer[28]  lookupHopsSig:vector  ETV
2790177	1056243 506 352 1053485 20.49 74.604289485851 16 2 79 379 15405
vector 2790178  Network.dyn_peer[28]  lookupStabilitySig:vector  ETV
2790178	1056749 736 352 1053485 20.49 74.604289485851 16 0.36363637447357 0.99696785933338 13.878439064836 12.504749839863
vector 2790179  Network.dyn_peer[28]  lookupTimeSig:vector  ETV
2790179	1057485 524 352 1053485 20.49 74.604289485851 16 0.2 8 39.4 161.74
vector 2790099  Network.dyn_peer[2]  lookupHopsSig:vector  ETV
2790099	1016074 443 391 976642 20.53 71.992991400414 14 5 88 408 21352
vector 2790100  Network.dyn_peer[2]  lookupStabilitySig:vector  ETV
2790100	1016517 624 391 976642 20.53 71.992991400414 14 0 0.99699398805387 11.688773675123 10.900986595507
vector 2790101  Network.dyn_peer[2]  lookupTimeSig:vector  ETV
2790101	1017141 457 391 976642 20.53 71.992991400414 14 0.5 8.9 42.1 221.71
vector 2790192  Network.dyn_peer[33]  lookupHopsSig:vector  ETV
2790192	1065664 331 402 875492 20.54 68.74768892612 11 2 66 236 9116
vector 2790193  Network.dyn_peer[33]  lookupStabilitySig:vector  ETV
2790193	1065995 481 402 875492 20.54 68.74768892612 11 0.39999997615814 0.9786693751812 8.9644380565733 7.6715760088392
vector 2790194  Network.dyn_peer[33]  lookupTimeSig:vector  ETV
2790194	1066476 347 402 875492 20.54 68.74768892612 11 0.2 6.7 24.6 95.94
vector 2790165  Network.dyn_peer[24]  lookupHopsSig:vector  ETV
2790165	1049666 646 417 1422817 20.55 96.446789251142 20 3 102 597 29919
vector 2790166  Network.dyn_peer[24]  lookupStabilitySig:vector  ETV
2790166	1050312 921 417 1422817 20.55 96.446789251142 20 0.28571426868439 0.99778270511888 17.570301700151 16.259628853145
vector 2790167  Network.dyn_peer[24]  lookupTimeSig:vector  ETV
2790167	1051233 666 417 1422817 20.55 96.446789251142 20 0.3 10.3 61.6 311.26
vector 2790195  Network.dyn_peer[34]  lookupHopsSig:vector  ETV
2790195	1066823 608 421 1414670 20.55 95.304522645274 19 2 102 536 26504
vector 2790196  Network.dyn_peer[34]  lookupStabilitySig:vector  ETV
2790196	1067431 876 421 1414670 20.55 95.304522645274 19 0.41176468133926 0.9904656317085 17.053962801583 15.740701194103
vector 2790197  Network.dyn_peer[34]  lookupTimeSig:vector  ETV
2790197	1068307 628 421 1414670 20.55 95.304522645274 19 0.2 10.3 55.4 275.9
vector 2790147  Network.dyn_peer[18]  lookupHopsSig:vector  ETV
2790147	1039493 580 457 1356339 20.59 89.370884918413 18 4 104 574 31864
vector 2790148  Network.dyn_peer[18]  lookupStabilitySig:vector  ETV
2790148	1040073 834 457 1356339 20.59 89.370884918413 18 0.19999998807907 0.99686431023292 15.645361452131 14.48136752189
vector 2790149  Network.dyn_peer[18]  lookupTimeSig:vector  ETV
2790149	1040907 601 457 1356339 20.59 89.370884918413 18 0.4 10.5 59.1 330.21
vector 2790237  Network.dyn_peer[48]  lookupHopsSig:vector  ETV
2790237	1089598 472 461 1005734 20.59 72.961694912138 15 1 73 383 16913
vector 2790238  Network.dyn_peer[48]  lookupStabilitySig:vector  ETV
2790238	1090070 686 461 1005734 20.59 72.961694912138 15 0.33333331346512 0.99354838719591 13.314026273321 12.20375342127
vector 2790239  Network.dyn_peer[48]  lookupTimeSig:vector  ETV
2790239	1090756 491 461 1005734 20.59 72.961694912138 15 0.1 7.4 39.7 176.91
vector 2790150  Network.dyn_peer[19]  lookupHopsSig:vector  ETV
2790150	1041508 270 474 670845 20.6 61.785677130005 9 4 47 183 5845
vector 2790151  Network.dyn_peer[19]  lookupStabilitySig:vector  ETV
2790151	1041778 399 474 670845 20.6 61.785677130005 9 0.19999998807907 0.98483412340283 6.7235267199576 5.7731909964076
vector 2790152  Network.dyn_peer[19]  lookupTimeSig:vector  ETV
2790152	1042177 281 474 670845 20.6 61.785677130005 9 0.4 4.8 19.1 62.11
vector 2790240  Network.dyn_peer[49]  lookupHopsSig:vector  ETV
2790240	1091247 409 478 1088101 20.6 75.854464036397 13 1 61 362 14202
vector 2790241  Network.dyn_peer[49]  lookupStabilitySig:vector  ETV
2790241	1091656 592 478 1088101 20.6 75.854464036397 13 0.39999997615814 0.99725776957348 11.492341458332 10.491213302854
vector 2790242  Network.dyn_peer[49]  lookupTimeSig:vector  ETV
2790242	1092248 422 478 1088101 20.6 75.854464036397 13 0.1 6.2 37.4 149.36
vector 2790153  Network.dyn_peer[20]  lookupHopsSig:vector  ETV
2790153	1042458 745 493 1257606 20.61 83.129591120889 23 3 86 451 15373
vector 2790154  Network.dyn_peer[20]  lookupStabilitySig:vector  ETV
2790154	1043203 1070 493 1257606 20.61 83.129591120889 23 0.19999998807907 0.99709225492552 20.609751300421 19.413218319219
vector 2790155  Network.dyn_peer[20]  lookupTimeSig:vector  ETV
2790155	1044273 767 493 1257606 20.61 83.129591120889 23 0.4 8.7 47.3 162.89
vector 2790183  Network.dyn_peer[30]  lookupHopsSig:vector  ETV
2790183	1060258 379 497 1226085 20.61 81.576416418551 12 3 167 362 32366
vector 2790184  Network.dyn_peer[30]  lookupStabilitySig:vector  ETV
2790184	1060637 537 497 1226085 20.61 81.576416418551 12 0.375 0.99421965330839 10.327916520182 9.44885975952
vector 2790185  Network.dyn_peer[30]  lookupTimeSig:vector  ETV
2790185	1061174 392 497 1226085 20.61 81.576416418551 12 0.3 16.8 37.3 330.95
vector 2790252  Network.dyn_peer[53]  lookupHopsSig:vector  ETV
2790252	1096933 470 533 586805 20.64 58.641720862583 15 1 65 271 8875
vector 2790253  Network.dyn_peer[53]  lookupStabilitySig:vector  ETV
2790253	1097403 673 533 586805 20.64 58.641720862583 15 0.5 0.99129172693938 13.272561904974 12.036785146044
vector 2790254  Network.dyn_peer[53]  lookupTimeSig:vector  ETV
2790254	1098076 492 533 586805 20.64 58.641720862583 15 0.1 6.6 28.5 94.29
vector 2790105  Network.dyn_peer[4]  lookupHopsSig:vector  ETV
2790105	1019041 511 549 1089262 20.65 75.897146191228 16 4 78 452 19708
vector 2790106  Network.dyn_peer[4]  lookupStabilitySig:vector  ETV
2790106	1019552 739 549 1089262 20.65 75.897146191228 16 -0.20000004768372 0.99658703082241 13.372332804138 12.695912963503
vector 2790107  Network.dyn_peer[4]  lookupTimeSig:vector  ETV
2790107	1020291 531 549 1089262 20.65 75.897146191228 16 0.5 7.9 46.7 206.15
vector 2790228  Network.dyn_peer[45]  lookupHopsSig:vector  ETV
2790228	1085245 370 564 882958 20.66 68.985824916677 12 1 107 277 16433
vector 2790229  Network.dyn_peer[45]  lookupStabilitySig:vector  ETV
2790229	1085615 520 564 882958 20.66 68.985824916677 12 0.5 0.99609375 10.225862886757 9.0882714524231
vector 2790230  Network.dyn_peer[45]  lookupTimeSig:vector  ETV
2790230	1086135 384 564 882958 20.66 68.985824916677 12 0.2 10.8 28.8 169.94
vector 2790174  Network.dyn_peer[27]  lookupHopsSig:vector  ETV
2790174	1054600 471 587 648135 20.68 60.956879795963 15 1 81 316 12944
vector 2790175  Network.dyn_peer[27]  lookupStabilitySig:vector  ETV
2790175	1055071 684 587 648135 20.68 60.956879795963 15 0.19999998807907 0.99820948974229 12.879225970479 11.780844454401
vector 2790176  Network.dyn_peer[27]  lookupTimeSig:vector  ETV
2790176	1055755 488 587 648135 20.68 60.956879795963 15 0.2 8.2 33 135.82
vector 2790156  Network.dyn_peer[21]  lookupHopsSig:vector  ETV
2790156	1045040 503 630 1175005 20.72 79.291741047475 16 3 107 391 19959
vector 2790157  Network.dyn_peer[21]  lookupStabilitySig:vector  ETV
2790157	1045543 692 630 1175005 20.72 79.291741047475 16 0 0.99299363046885 13.646507377271 12.643888933569
vector 2790158  Network.dyn_peer[21]  lookupTimeSig:vector  ETV
2790158	1046235 523 630 1175005 20.72 79.291741047475 16 0.4 10.8 40.6 207.46
vector 2790129  Network.dyn_peer[12]  lookupHopsSig:vector  ETV
2790129	1030710 302 648 285082 20.73 45.495281462739 10 2 58 206 7382
vector 2790130  Network.dyn_peer[12]  lookupStabilitySig:vector  ETV
2790130	1031012 425 648 285082 20.73 45.495281462739 10 -0.20000004768372 0.97907585091889 7.4111781138927 6.7384423476107
vector 2790131  Network.dyn_peer[12]  lookupTimeSig:vector  ETV
2790131	1031437 316 648 285082 20.73 45.495281462739 10 0.3 5.9 21.5 77.91
vector 2790219  Network.dyn_peer[42]  lookupHopsSig:vector  ETV
2790219	1080918 305 652 803980 20.73 66.403789606924 10 1 28 134 2516
vector 2790220  Network.dyn_peer[42]  lookupStabilitySig:vector  ETV
2790220	1081223 448 652 803980 20.73 66.403789606924 10 0.39999997615814 0.99960567822563 8.0478638794448 6.9179787849711
vector 2790221  Network.dyn_peer[42]  lookupTimeSig:vector  ETV
2790221	1081671 318 652 803980 20.73 66.403789606924 10 0.2 2.9 14.3 27.87
vector 2790249  Network.dyn_peer[52]  lookupHopsSig:vector  ETV
2790249	1095847 310 656 1173371 20.73 79.221311671513 10 2 80 279 13047
vector 2790250  Network.dyn_peer[52]  lookupStabilitySig:vector  ETV
2790250	1096157 453 656 1173371 20.73 79.221311671513 10 0.46153843402863 0.99433427769691 8.3503101067618 7.2810075228265
vector 2790251  Network.dyn_peer[52]  lookupTimeSig:vector  ETV
2790251	1096610 323 656 1173371 20.73 79.221311671513 10 0.2 8.1 28.8 136.1
vector 2790138  Network.dyn_peer[15]  lookupHopsSig:vector  ETV
2790138	1034438 652 695 1464959 20.76 106.488144081806 20 4 75 542 23770
vector 2790139  Network.dyn_peer[15]  lookupStabilitySig:vector  ETV
2790139	1035090 923 695 1464959 20.76 106.488144081806 20 -0.20000004768372 0.99741802224889 17.428764856886 16.698503872125
vector 2790140  Network.dyn_peer[15]  lookupTimeSig:vector  ETV
2790140	1036013 673 695 1464959 20.76 106.488144081806 20 0.5 7.6 56.1 248.61
vector 2790234  Network.dyn_peer[47]  lookupHopsSig:vector  ETV
2790234	1087713 544 721 915055 20.78 70.009608137542 17 3 74 425 16027
vector 2790235  Network.dyn_peer[47]  lookupStabilitySig:vector  ETV
2790235	1088257 784 721 915055 20.78 70.009608137542 17 0.39999997615814 0.99296765122563 15.037989671342 13.859080157304
vector 2790236  Network.dyn_peer[47]  lookupTimeSig:vector  ETV
2790236	1089041 557 721 915055 20.78 70.009608137542 17 0.3 7.5 44.1 168.87
vector 2790324  Network.dyn_peer[77]  lookupHopsSig:vector  ETV
2790324	1141545 409 727 1439863 20.78 99.331364294847 13 0 117 396 25998
vector 2790325  Network.dyn_peer[77]  lookupStabilitySig:vector  ETV
2790325	1141954 576 727 1439863 20.78 99.331364294847 13 0.36000001430511 1 11.797513433266 11.055747135733
vector 2790326  Network.dyn_peer[77]  lookupTimeSig:vector  ETV
2790326	1142530 423 727 1439863 20.78 99.331364294847 13 0 11.8 40.8 268.02
vector 2790186  Network.dyn_peer[31]  lookupHopsSig:vector  ETV
2790186	1061566 642 777 998056 20.82 72.703340931598 20 2 58 470 16660
vector 2790187  Network.dyn_peer[31]  lookupStabilitySig:vector  ETV
2790187	1062208 911 777 998056 20.82 72.703340931598 20 0 0.99886621313635 17.746945923194 16.89267698888
vector 2790188  Network.dyn_peer[31]  lookupTimeSig:vector  ETV
2790188	1063119 666 777 998056 20.82 72.703340931598 20 0.3 5.9 48.9 176.09
vector 2790225  Network.dyn_peer[44]  lookupHopsSig:vector  ETV
2790225	1083845 400 820 287629 20.85 45.623429589271 13 2 74 214 7686
vector 2790226  Network.dyn_peer[44]  lookupStabilitySig:vector  ETV
2790226	1084245 585 820 287629 20.85 45.623429589271 13 0.19999998807907 0.9948612540029 10.917229913641 9.8523677917532
vector 2790227  Network.dyn_peer[44]  lookupTimeSig:vector  ETV
2790227	1084830 415 820 287629 20.85 45.623429589271 13 0.3 7.5 22.6 81.18
vector 2790222  Network.dyn_peer[43]  lookupHopsSig:vector  ETV
2790222	1081989 537 932 1049780 20.94 74.474739658002 17 1 56 388 13532
vector 2790223  Network.dyn_peer[43]  lookupStabilitySig:vector  ETV
2790223	1082526 764 932 1049780 20.94 74.474739658002 17 0 0.99465912673622 14.881672427058 14.000079316108
vector 2790224  Network.dyn_peer[43]  lookupTimeSig:vector  ETV
2790224	1083290 555 932 1049780 20.94 74.474739658002 17 0.2 5.7 40.4 143.14
vector 2790288  Network.dyn_peer[65]  lookupHopsSig:vector  ETV
2790288	1118234 373 965 1315905 20.96 86.472893049727 12 3 91 338 17738
vector 2790289  Network.dyn_peer[65]  lookupStabilitySig:vector  ETV
2790289	1118607 545 965 1315905 20.96 86.472893049727 12 0.39999997615814 0.99307774240151 10.209140490275 9.0217710102276
vector 2790290  Network.dyn_peer[65]  lookupTimeSig:vector  ETV
2790290	1119152 388 965 1315905 20.96 86.472893049727 12 0.3 9.2 34.9 184.19
vector 2790207  Network.dyn_peer[38]  lookupHopsSig:vector  ETV
2790207	1074246 408 1007 989728 20.99 72.426215777764 13 2 78 306 13460
vector 2790208  Network.dyn_peer[38]  lookupStabilitySig:vector  ETV
2790208	1074654 595 1007 989728 20.99 72.426215777764 13 -0.20000004768372 0.99307159334421 10.761867910624 10.320636743432
vector 2790209  Network.dyn_peer[38]  lookupTimeSig:vector  ETV
2790209	1075249 423 1007 989728 20.99 72.426215777764 13 0.3 7.9 31.8 140.72
vector 2790243  Network.dyn_peer[50]  lookupHopsSig:vector  ETV
2790243	1092670 543 1036 1083942 21.01 75.700606231478 17 3 129 447 25685
vector 2790244  Network.dyn_peer[50]  lookupStabilitySig:vector  ETV
2790244	1093213 770 1036 1083942 21.01 75.700606231478 17 0 0.98547215480357 15.080773174763 14.324364703456
vector 2790245  Network.dyn_peer[50]  lookupTimeSig:vector  ETV
2790245	1093983 563 1036 1083942 21.01 75.700606231478 17 0.4 13 46.3 265.85
vector 2790189  Network.dyn_peer[32]  lookupHopsSig:vector  ETV
2790189	1063785 538 1072 1310050 21.03 86.101153254843 17 2 73 350 12858
vector 2790190  Network.dyn_peer[32]  lookupStabilitySig:vector  ETV
2790190	1064323 782 1072 1310050 21.03 86.101153254843 17 -0.16666662693024 0.99447375023738 14.657450498082 13.887808653774
vector 2790191  Network.dyn_peer[32]  lookupTimeSig:vector  ETV
2790191	1065105 559 1072 1310050 21.03 86.101153254843 17 0.3 7.4 36.6 135.6
vector 2790285  Network.dyn_peer[64]  lookupHopsSig:vector  ETV
2790285	1115443 804 1102 1149140 21.05 78.214810467973 25 1 83 521 22337
vector 2790286  Network.dyn_peer[64]  lookupStabilitySig:vector  ETV
2790286	1116247 1150 1102 1149140 21.05 78.214810467973 25 0.33333331346512 0.99465240631253 23.076730160974 21.781062553762
vector 2790287  Network.dyn_peer[64]  lookupTimeSig:vector  ETV
2790287	1117397 837 1102 1149140 21.05 78.214810467973 25 0.2 8.4 54.5 233.95
vector 2790315  Network.dyn_peer[74]  lookupHopsSig:vector  ETV
2790315	1135167 720 1106 1358619 21.05 89.550163957002 22 3 98 626 27166
vector 2790316  Network.dyn_peer[74]  lookupStabilitySig:vector  ETV
2790316	1135887 1016 1106 1358619 21.05 89.550163957002 22 0.5 0.99642772087827 20.323655606713 19.162311127004
vector 2790317  Network.dyn_peer[74]  lookupTimeSig:vector  ETV
2790317	1136903 739 1106 1358619 21.05 89.550163957002 22 0.3 9.9 64.7 284.33
vector 2790267  Network.dyn_peer[58]  lookupHopsSig:vector  ETV
2790267	1106513 577 1165 1160899 21.09 78.697421158254 18 4 100 484 22660
vector 2790268  Network.dyn_peer[58]  lookupStabilitySig:vector  ETV
2790268	1107090 831 1165 1160899 21.09 78.697421158254 18 0.16666668653488 0.99142121803015 15.949120705947 14.812136285624
vector 2790269  Network.dyn_peer[58]  lookupTimeSig:vector  ETV
2790269	1107921 597 1165 1160899 21.09 78.697421158254 18 0.5 10.1 50.1 236.35
vector 2790270  Network.dyn_peer[59]  lookupHopsSig:vector  ETV
2790270	1108518 376 1184 843189 21.1 67.701432857439 12 4 83 390 19240
vector 2790271  Network.dyn_peer[59]  lookupStabilitySig:vector  ETV
2790271	1108894 544 1184 843189 21.1 67.701432857439 12 0.16666668653488 0.9863468632102 10.38264030125 9.5709475853278
vector 2790272  Network.dyn_peer[59]  lookupTimeSig:vector  ETV
2790272	1109438 388 1184 843189 21.1 67.701432857439 12 0.5 8.4 40.1 200.21
vector 2790333  Network.dyn_peer[80]  lookupHopsSig:vector  ETV
2790333	1145831 507 1202 842953 21.11 67.695448724051 16 2 97 309 13879
vector 2790334  Network.dyn_peer[80]  lookupStabilitySig:vector  ETV
2790334	1146338 723 1202 842953 21.11 67.695448724051 16 0.5 0.99741697427817 14.482097068569 13.477579146885
vector 2790335  Network.dyn_peer[80]  lookupTimeSig:vector  ETV
2790335	1147061 526 1202 842953 21.11 67.695448724051 16 0.3 9.8 32.4 145.06
vector 2790246  Network.dyn_peer[51]  lookupHopsSig:vector  ETV
2790246	1094546 376 1221 848215 21.12 67.865860420555 12 3 54 291 10973
vector 2790247  Network.dyn_peer[51]  lookupStabilitySig:vector  ETV
2790247	1094922 533 1221 848215 21.12 67.865860420555 12 0 0.98585512209684 10.13666631002 9.4977368689274
vector 2790248  Network.dyn_peer[51]  lookupTimeSig:vector  ETV
2790248	1095455 392 1221 848215 21.12 67.865860420555 12 0.4 5.5 30.2 115.54
vector 2790279  Network.dyn_peer[62]  lookupHopsSig:vector  ETV
2790279	1112580 276 1244 138699 21.13 37.026189394212 9 4 31 149 3325
vector 2790280  Network.dyn_peer[62]  lookupStabilitySig:vector  ETV
2790280	1112856 404 1244 138699 21.13 37.026189394212 9 0.16666668653488 0.99355877609923 7.4221295495518 6.7049902129137
vector 2790281  Network.dyn_peer[62]  lookupTimeSig:vector  ETV
2790281	1113260 287 1244 138699 21.13 37.026189394212 9 0.5 3.2 15.7 36.21
vector 2790258  Network.dyn_peer[55]  lookupHopsSig:vector  ETV
2790258	1100320 706 1298 982380 21.16 72.18206097426 22 1 44 339 7805
vector 2790259  Network.dyn_peer[55]  lookupStabilitySig:vector  ETV
2790259	1101026 1004 1298 982380 21.16 72.18206097426 22 0.25 0.99399399384856 20.075790234376 18.88158835379
vector 2790260  Network.dyn_peer[55]  lookupTimeSig:vector  ETV
2790260	1102030 730 1298 982380 21.16 72.18206097426 22 0.2 4.5 36 84.92
vector 2790213  Network.dyn_peer[40]  lookupHopsSig:vector  ETV
2790213	1077321 475 1377 1156988 21.21 78.536051073117 15 2 61 281 8247
vector 2790214  Network.dyn_peer[40]  lookupStabilitySig:vector  ETV
2790214	1077796 688 1377 1156988 21.21 78.536051073117 15 0.11111110448837 0.99644655012526 12.997286811704 12.027553403644
vector 2790215  Network.dyn_peer[40]  lookupTimeSig:vector  ETV
2790215	1078484 488 1377 1156988 21.21 78.536051073117 15 0.3 6.2 29.5 88.07
vector 2790303  Network.dyn_peer[70]  lookupHopsSig:vector  ETV
2790303	1126163 440 1381 559287 21.21 57.57559615114 14 4 32 205 4025
vector 2790304  Network.dyn_peer[70]  lookupStabilitySig:vector  ETV
2790304	1126603 639 1381 559287 21.21 57.57559615114 14 0.44444441795349 0.99691358022392 12.682425267063 11.874585218056
vector 2790305  Network.dyn_peer[70]  lookupTimeSig:vector  ETV
2790305	1127242 458 1381 559287 21.21 57.57559615114 14 0.5 3.3 21.8 44.38
vector 2790453  Network.dyn_peer[120]  lookupHopsSig:vector  ETV
2790453	1211281 511 1387 827259 21.21 67.179797575677 16 0 38 263 6413
vector 2790454  Network.dyn_peer[120]  lookupStabilitySig:vector  ETV
2790454	1211792 723 1387 827259 21.21 67.179797575677 16 0.57575756311417 1 15.106473190477 14.454099704589
vector 2790455  Network.dyn_peer[120]  lookupTimeSig:vector  ETV
2790455	1212515 526 1387 827259 21.21 67.179797575677 16 0 3.9 27.8 69.54
vector 2790369  Network.dyn_peer[92]  lookupHopsSig:vector  ETV
2790369	1165325 442 1421 1037008 21.23 74.029520149104 14 2 73 393 19541
vector 2790370  Network.dyn_peer[92]  lookupStabilitySig:vector  ETV
2790370	1165767 640 1421 1037008 21.23 74.029520149104 14 0.53846153616905 0.9926659334451 12.596533902921 11.583649048673
vector 2790371  Network.dyn_peer[92]  lookupTimeSig:vector  ETV
2790371	1166407 460 1421 1037008 21.23 74.029520149104 14 0.3 7.4 40.6 203.34
vector 2790282  Network.dyn_peer[63]  lookupHopsSig:vector  ETV
2790282	1113547 548 1440 1361991 21.24 89.82686041083 17 1 64 460 18436
vector 2790283  Network.dyn_peer[63]  lookupStabilitySig:vector  ETV
2790283	1114095 779 1440 1361991 21.24 89.82686041083 17 0.39999997615814 0.99974133470096 15.446081613423 14.423571056791
vector 2790284  Network.dyn_peer[63]  lookupTimeSig:vector  ETV
2790284	1114874 569 1440 1361991 21.24 89.82686041083 17 0.2 6.5 47.6 193.6
vector 2790402  Network.dyn_peer[103]  lookupHopsSig:vector  ETV
2790402	1183640 245 1444 1008481 21.24 73.054850887767 8 2 56 196 7584
vector 2790403  Network.dyn_peer[103]  lookupStabilitySig:vector  ETV
2790403	1183885 348 1444 1008481 21.24 73.054850887767 8 0.79999999701977 0.99642973067239 7.4584303456359 7.000709345467
vector 2790404  Network.dyn_peer[103]  lookupTimeSig:vector  ETV
2790404	1184233 255 1444 1008481 21.24 73.054850887767 8 0.2 5.7 20.3 79.79
vector 2790255  Network.dyn_peer[54]  lookupHopsSig:vector  ETV
2790255	1098568 501 1466 1015609 21.25 73.294462257729 16 2 75 295 12503
vector 2790256  Network.dyn_peer[54]  lookupStabilitySig:vector  ETV
2790256	1099069 727 1466 1015609 21.25 73.294462257729 16 0.30000001192093 0.99719626177102 14.243888941593 13.140295724257