version 2
run Stability2-25-20130528-01:24:00-24168
attr configname Stability2
attr datetime 20130528-01:24:00
attr experiment Stability2
attr inifile omnetpp.ini
attr iterationvars $0=30
attr iterationvars2 "$0=30, $repetition=5"
attr measurement $0=30
attr network Network
attr processid 24168
attr repetition 5
attr replication #5
attr resultdir results
attr runnumber 25
attr seedset 25

vector 780025  Network.churner  inGoingSizeSig:vector  ETV
vector 750025  Network.dyn_peer[0]  lookupHopsSig:vector  ETV
vector 750026  Network.dyn_peer[0]  lookupStabilitySig:vector  ETV
vector 750027  Network.dyn_peer[0]  lookupTimeSig:vector  ETV
vector 750028  Network.dyn_peer[1]  lookupHopsSig:vector  ETV
vector 750029  Network.dyn_peer[1]  lookupStabilitySig:vector  ETV
vector 750030  Network.dyn_peer[1]  lookupTimeSig:vector  ETV
vector 750031  Network.dyn_peer[2]  lookupHopsSig:vector  ETV
vector 750032  Network.dyn_peer[2]  lookupStabilitySig:vector  ETV
vector 750033  Network.dyn_peer[2]  lookupTimeSig:vector  ETV
vector 750043  Network.dyn_peer[6]  lookupHopsSig:vector  ETV
vector 750044  Network.dyn_peer[6]  lookupStabilitySig:vector  ETV
vector 750045  Network.dyn_peer[6]  lookupTimeSig:vector  ETV
vector 750046  Network.dyn_peer[7]  lookupHopsSig:vector  ETV
vector 750047  Network.dyn_peer[7]  lookupStabilitySig:vector  ETV
vector 750048  Network.dyn_peer[7]  lookupTimeSig:vector  ETV
vector 750040  Network.dyn_peer[5]  lookupHopsSig:vector  ETV
vector 750041  Network.dyn_peer[5]  lookupStabilitySig:vector  ETV
vector 750042  Network.dyn_peer[5]  lookupTimeSig:vector  ETV
vector 750052  Network.dyn_peer[9]  lookupHopsSig:vector  ETV
vector 750053  Network.dyn_peer[9]  lookupStabilitySig:vector  ETV
vector 750054  Network.dyn_peer[9]  lookupTimeSig:vector  ETV
vector 750058  Network.dyn_peer[11]  lookupHopsSig:vector  ETV
vector 750059  Network.dyn_peer[11]  lookupStabilitySig:vector  ETV
vector 750060  Network.dyn_peer[11]  lookupTimeSig:vector  ETV
vector 750061  Network.dyn_peer[12]  lookupHopsSig:vector  ETV
vector 750062  Network.dyn_peer[12]  lookupStabilitySig:vector  ETV
vector 750063  Network.dyn_peer[12]  lookupTimeSig:vector  ETV
vector 750037  Network.dyn_peer[4]  lookupHopsSig:vector  ETV
vector 750038  Network.dyn_peer[4]  lookupStabilitySig:vector  ETV
vector 750039  Network.dyn_peer[4]  lookupTimeSig:vector  ETV
vector 750073  Network.dyn_peer[16]  lookupHopsSig:vector  ETV
vector 750074  Network.dyn_peer[16]  lookupStabilitySig:vector  ETV
vector 750075  Network.dyn_peer[16]  lookupTimeSig:vector  ETV
vector 750082  Network.dyn_peer[19]  lookupHopsSig:vector  ETV
vector 750083  Network.dyn_peer[19]  lookupStabilitySig:vector  ETV
vector 750084  Network.dyn_peer[19]  lookupTimeSig:vector  ETV
vector 750091  Network.dyn_peer[22]  lookupHopsSig:vector  ETV
vector 750092  Network.dyn_peer[22]  lookupStabilitySig:vector  ETV
vector 750093  Network.dyn_peer[22]  lookupTimeSig:vector  ETV
vector 750067  Network.dyn_peer[14]  lookupHopsSig:vector  ETV
vector 750068  Network.dyn_peer[14]  lookupStabilitySig:vector  ETV
vector 750069  Network.dyn_peer[14]  lookupTimeSig:vector  ETV
vector 750097  Network.dyn_peer[24]  lookupHopsSig:vector  ETV
vector 750098  Network.dyn_peer[24]  lookupStabilitySig:vector  ETV
vector 750099  Network.dyn_peer[24]  lookupTimeSig:vector  ETV
vector 750079  Network.dyn_peer[18]  lookupHopsSig:vector  ETV
vector 750080  Network.dyn_peer[18]  lookupStabilitySig:vector  ETV
vector 750081  Network.dyn_peer[18]  lookupTimeSig:vector  ETV
vector 750055  Network.dyn_peer[10]  lookupHopsSig:vector  ETV
vector 750056  Network.dyn_peer[10]  lookupStabilitySig:vector  ETV
vector 750057  Network.dyn_peer[10]  lookupTimeSig:vector  ETV
vector 750088  Network.dyn_peer[21]  lookupHopsSig:vector  ETV
vector 750089  Network.dyn_peer[21]  lookupStabilitySig:vector  ETV
vector 750090  Network.dyn_peer[21]  lookupTimeSig:vector  ETV
vector 750034  Network.dyn_peer[3]  lookupHopsSig:vector  ETV
vector 750035  Network.dyn_peer[3]  lookupStabilitySig:vector  ETV
vector 750036  Network.dyn_peer[3]  lookupTimeSig:vector  ETV
vector 750130  Network.dyn_peer[35]  lookupHopsSig:vector  ETV
vector 750131  Network.dyn_peer[35]  lookupStabilitySig:vector  ETV
vector 750132  Network.dyn_peer[35]  lookupTimeSig:vector  ETV
vector 750106  Network.dyn_peer[27]  lookupHopsSig:vector  ETV
vector 750107  Network.dyn_peer[27]  lookupStabilitySig:vector  ETV
vector 750108  Network.dyn_peer[27]  lookupTimeSig:vector  ETV
vector 750049  Network.dyn_peer[8]  lookupHopsSig:vector  ETV
vector 750050  Network.dyn_peer[8]  lookupStabilitySig:vector  ETV
vector 750051  Network.dyn_peer[8]  lookupTimeSig:vector  ETV
vector 750109  Network.dyn_peer[28]  lookupHopsSig:vector  ETV
vector 750110  Network.dyn_peer[28]  lookupStabilitySig:vector  ETV
vector 750111  Network.dyn_peer[28]  lookupTimeSig:vector  ETV
vector 750121  Network.dyn_peer[32]  lookupHopsSig:vector  ETV
vector 750122  Network.dyn_peer[32]  lookupStabilitySig:vector  ETV
vector 750123  Network.dyn_peer[32]  lookupTimeSig:vector  ETV
vector 750064  Network.dyn_peer[13]  lookupHopsSig:vector  ETV
vector 750065  Network.dyn_peer[13]  lookupStabilitySig:vector  ETV
vector 750066  Network.dyn_peer[13]  lookupTimeSig:vector  ETV
vector 750070  Network.dyn_peer[15]  lookupHopsSig:vector  ETV
vector 750071  Network.dyn_peer[15]  lookupStabilitySig:vector  ETV
vector 750072  Network.dyn_peer[15]  lookupTimeSig:vector  ETV
vector 750103  Network.dyn_peer[26]  lookupHopsSig:vector  ETV
vector 750104  Network.dyn_peer[26]  lookupStabilitySig:vector  ETV
vector 750105  Network.dyn_peer[26]  lookupTimeSig:vector  ETV
vector 750115  Network.dyn_peer[30]  lookupHopsSig:vector  ETV
vector 750116  Network.dyn_peer[30]  lookupStabilitySig:vector  ETV
vector 750117  Network.dyn_peer[30]  lookupTimeSig:vector  ETV
vector 750220  Network.dyn_peer[65]  lookupHopsSig:vector  ETV
vector 750221  Network.dyn_peer[65]  lookupStabilitySig:vector  ETV
vector 750222  Network.dyn_peer[65]  lookupTimeSig:vector  ETV
vector 750076  Network.dyn_peer[17]  lookupHopsSig:vector  ETV
vector 750077  Network.dyn_peer[17]  lookupStabilitySig:vector  ETV
vector 750078  Network.dyn_peer[17]  lookupTimeSig:vector  ETV
vector 750136  Network.dyn_peer[37]  lookupHopsSig:vector  ETV
vector 750137  Network.dyn_peer[37]  lookupStabilitySig:vector  ETV
vector 750138  Network.dyn_peer[37]  lookupTimeSig:vector  ETV
vector 750226  Network.dyn_peer[67]  lookupHopsSig:vector  ETV
vector 750227  Network.dyn_peer[67]  lookupStabilitySig:vector  ETV
vector 750228  Network.dyn_peer[67]  lookupTimeSig:vector  ETV
vector 750085  Network.dyn_peer[20]  lookupHopsSig:vector  ETV
vector 750086  Network.dyn_peer[20]  lookupStabilitySig:vector  ETV
vector 750087  Network.dyn_peer[20]  lookupTimeSig:vector  ETV
vector 750094  Network.dyn_peer[23]  lookupHopsSig:vector  ETV
vector 750095  Network.dyn_peer[23]  lookupStabilitySig:vector  ETV
vector 750096  Network.dyn_peer[23]  lookupTimeSig:vector  ETV
vector 750154  Network.dyn_peer[43]  lookupHopsSig:vector  ETV
vector 750155  Network.dyn_peer[43]  lookupStabilitySig:vector  ETV
vector 750156  Network.dyn_peer[43]  lookupTimeSig:vector  ETV
vector 750217  Network.dyn_peer[64]  lookupHopsSig:vector  ETV
vector 750218  Network.dyn_peer[64]  lookupStabilitySig:vector  ETV
vector 750219  Network.dyn_peer[64]  lookupTimeSig:vector  ETV
vector 750190  Network.dyn_peer[55]  lookupHopsSig:vector  ETV
vector 750191  Network.dyn_peer[55]  lookupStabilitySig:vector  ETV
vector 750192  Network.dyn_peer[55]  lookupTimeSig:vector  ETV
vector 750139  Network.dyn_peer[38]  lookupHopsSig:vector  ETV
vector 750140  Network.dyn_peer[38]  lookupStabilitySig:vector  ETV
vector 750141  Network.dyn_peer[38]  lookupTimeSig:vector  ETV
vector 750232  Network.dyn_peer[69]  lookupHopsSig:vector  ETV
vector 750233  Network.dyn_peer[69]  lookupStabilitySig:vector  ETV
vector 750234  Network.dyn_peer[69]  lookupTimeSig:vector  ETV
vector 750205  Network.dyn_peer[60]  lookupHopsSig:vector  ETV
vector 750206  Network.dyn_peer[60]  lookupStabilitySig:vector  ETV
vector 750207  Network.dyn_peer[60]  lookupTimeSig:vector  ETV
vector 750148  Network.dyn_peer[41]  lookupHopsSig:vector  ETV
vector 750149  Network.dyn_peer[41]  lookupStabilitySig:vector  ETV
vector 750150  Network.dyn_peer[41]  lookupTimeSig:vector  ETV
vector 750184  Network.dyn_peer[53]  lookupHopsSig:vector  ETV
vector 750185  Network.dyn_peer[53]  lookupStabilitySig:vector  ETV
vector 750186  Network.dyn_peer[53]  lookupTimeSig:vector  ETV
vector 750157  Network.dyn_peer[44]  lookupHopsSig:vector  ETV
vector 750158  Network.dyn_peer[44]  lookupStabilitySig:vector  ETV
vector 750159  Network.dyn_peer[44]  lookupTimeSig:vector  ETV
vector 750160  Network.dyn_peer[45]  lookupHopsSig:vector  ETV
vector 750161  Network.dyn_peer[45]  lookupStabilitySig:vector  ETV
vector 750162  Network.dyn_peer[45]  lookupTimeSig:vector  ETV
vector 750163  Network.dyn_peer[46]  lookupHopsSig:vector  ETV
vector 750164  Network.dyn_peer[46]  lookupStabilitySig:vector  ETV
vector 750165  Network.dyn_peer[46]  lookupTimeSig:vector  ETV
vector 750193  Network.dyn_peer[56]  lookupHopsSig:vector  ETV
vector 750194  Network.dyn_peer[56]  lookupStabilitySig:vector  ETV
vector 750195  Network.dyn_peer[56]  lookupTimeSig:vector  ETV
vector 750166  Network.dyn_peer[47]  lookupHopsSig:vector  ETV
vector 750167  Network.dyn_peer[47]  lookupStabilitySig:vector  ETV
vector 750168  Network.dyn_peer[47]  lookupTimeSig:vector  ETV
vector 750112  Network.dyn_peer[29]  lookupHopsSig:vector  ETV
vector 750113  Network.dyn_peer[29]  lookupStabilitySig:vector  ETV
vector 750114  Network.dyn_peer[29]  lookupTimeSig:vector  ETV
vector 750265  Network.dyn_peer[80]  lookupHopsSig:vector  ETV
vector 750266  Network.dyn_peer[80]  lookupStabilitySig:vector  ETV
vector 750267  Network.dyn_peer[80]  lookupTimeSig:vector  ETV
vector 750118  Network.dyn_peer[31]  lookupHopsSig:vector  ETV
vector 750119  Network.dyn_peer[31]  lookupStabilitySig:vector  ETV
vector 750120  Network.dyn_peer[31]  lookupTimeSig:vector  ETV
vector 750214  Network.dyn_peer[63]  lookupHopsSig:vector  ETV
vector 750215  Network.dyn_peer[63]  lookupStabilitySig:vector  ETV
vector 750216  Network.dyn_peer[63]  lookupTimeSig:vector  ETV
vector 750247  Network.dyn_peer[74]  lookupHopsSig:vector  ETV
vector 750248  Network.dyn_peer[74]  lookupStabilitySig:vector  ETV
vector 750249  Network.dyn_peer[74]  lookupTimeSig:vector  ETV
vector 750250  Network.dyn_peer[75]  lookupHopsSig:vector  ETV
vector 750251  Network.dyn_peer[75]  lookupStabilitySig:vector  ETV
vector 750252  Network.dyn_peer[75]  lookupTimeSig:vector  ETV
vector 750172  Network.dyn_peer[49]  lookupHopsSig:vector  ETV
vector 750173  Network.dyn_peer[49]  lookupStabilitySig:vector  ETV
vector 750174  Network.dyn_peer[49]  lookupTimeSig:vector  ETV
vector 750202  Network.dyn_peer[59]  lookupHopsSig:vector  ETV
vector 750203  Network.dyn_peer[59]  lookupStabilitySig:vector  ETV
vector 750204  Network.dyn_peer[59]  lookupTimeSig:vector  ETV
vector 750181  Network.dyn_peer[52]  lookupHopsSig:vector  ETV
vector 750182  Network.dyn_peer[52]  lookupStabilitySig:vector  ETV
vector 750183  Network.dyn_peer[52]  lookupTimeSig:vector  ETV
vector 750274  Network.dyn_peer[83]  lookupHopsSig:vector  ETV
vector 750275  Network.dyn_peer[83]  lookupStabilitySig:vector  ETV
vector 750276  Network.dyn_peer[83]  lookupTimeSig:vector  ETV
vector 750127  Network.dyn_peer[34]  lookupHopsSig:vector  ETV
vector 750128  Network.dyn_peer[34]  lookupStabilitySig:vector  ETV
vector 750129  Network.dyn_peer[34]  lookupTimeSig:vector  ETV
vector 750100  Network.dyn_peer[25]  lookupHopsSig:vector  ETV
vector 750101  Network.dyn_peer[25]  lookupStabilitySig:vector  ETV
vector 750102  Network.dyn_peer[25]  lookupTimeSig:vector  ETV
vector 750283  Network.dyn_peer[86]  lookupHopsSig:vector  ETV
vector 750284  Network.dyn_peer[86]  lookupStabilitySig:vector  ETV
vector 750285  Network.dyn_peer[86]  lookupTimeSig:vector  ETV
vector 750196  Network.dyn_peer[57]  lookupHopsSig:vector  ETV
vector 750197  Network.dyn_peer[57]  lookupStabilitySig:vector  ETV
vector 750198  Network.dyn_peer[57]  lookupTimeSig:vector  ETV
vector 750292  Network.dyn_peer[89]  lookupHopsSig:vector  ETV
vector 750293  Network.dyn_peer[89]  lookupStabilitySig:vector  ETV
vector 750294  Network.dyn_peer[89]  lookupTimeSig:vector  ETV
vector 750244  Network.dyn_peer[73]  lookupHopsSig:vector  ETV
vector 750245  Network.dyn_peer[73]  lookupStabilitySig:vector  ETV
vector 750246  Network.dyn_peer[73]  lookupTimeSig:vector  ETV
vector 750280  Network.dyn_peer[85]  lookupHopsSig:vector  ETV
vector 750281  Network.dyn_peer[85]  lookupStabilitySig:vector  ETV
vector 750282  Network.dyn_peer[85]  lookupTimeSig:vector  ETV
vector 750370  Network.dyn_peer[115]  lookupHopsSig:vector  ETV
vector 750371  Network.dyn_peer[115]  lookupStabilitySig:vector  ETV
vector 750372  Network.dyn_peer[115]  lookupTimeSig:vector  ETV
vector 750262  Network.dyn_peer[79]  lookupHopsSig:vector  ETV
vector 750263  Network.dyn_peer[79]  lookupStabilitySig:vector  ETV
vector 750264  Network.dyn_peer[79]  lookupTimeSig:vector  ETV
vector 750145  Network.dyn_peer[40]  lookupHopsSig:vector  ETV
vector 750146  Network.dyn_peer[40]  lookupStabilitySig:vector  ETV
vector 750147  Network.dyn_peer[40]  lookupTimeSig:vector  ETV
vector 750238  Network.dyn_peer[71]  lookupHopsSig:vector  ETV
vector 750239  Network.dyn_peer[71]  lookupStabilitySig:vector  ETV
vector 750240  Network.dyn_peer[71]  lookupTimeSig:vector  ETV
vector 750301  Network.dyn_peer[92]  lookupHopsSig:vector  ETV
vector 750302  Network.dyn_peer[92]  lookupStabilitySig:vector  ETV
vector 750303  Network.dyn_peer[92]  lookupTimeSig:vector  ETV
vector 750187  Network.dyn_peer[54]  lookupHopsSig:vector  ETV
vector 750188  Network.dyn_peer[54]  lookupStabilitySig:vector  ETV
vector 750189  Network.dyn_peer[54]  lookupTimeSig:vector  ETV
vector 750259  Network.dyn_peer[78]  lookupHopsSig:vector  ETV
vector 750260  Network.dyn_peer[78]  lookupStabilitySig:vector  ETV
vector 750261  Network.dyn_peer[78]  lookupTimeSig:vector  ETV
vector 750289  Network.dyn_peer[88]  lookupHopsSig:vector  ETV
vector 750290  Network.dyn_peer[88]  lookupStabilitySig:vector  ETV
vector 750291  Network.dyn_peer[88]  lookupTimeSig:vector  ETV
vector 750352  Network.dyn_peer[109]  lookupHopsSig:vector  ETV
vector 750353  Network.dyn_peer[109]  lookupStabilitySig:vector  ETV
vector 750354  Network.dyn_peer[109]  lookupTimeSig:vector  ETV
vector 750178  Network.dyn_peer[51]  lookupHopsSig:vector  ETV
vector 750179  Network.dyn_peer[51]  lookupStabilitySig:vector  ETV
vector 750180  Network.dyn_peer[51]  lookupTimeSig:vector  ETV
vector 750298  Network.dyn_peer[91]  lookupHopsSig:vector  ETV
vector 750299  Network.dyn_peer[91]  lookupStabilitySig:vector  ETV
vector 750300  Network.dyn_peer[91]  lookupTimeSig:vector  ETV
vector 750151  Network.dyn_peer[42]  lookupHopsSig:vector  ETV
vector 750152  Network.dyn_peer[42]  lookupStabilitySig:vector  ETV
vector 750153  Network.dyn_peer[42]  lookupTimeSig:vector  ETV
vector 750424  Network.dyn_peer[133]  lookupHopsSig:vector  ETV
vector 750425  Network.dyn_peer[133]  lookupStabilitySig:vector  ETV
vector 750426  Network.dyn_peer[133]  lookupTimeSig:vector  ETV
vector 750367  Network.dyn_peer[114]  lookupHopsSig:vector  ETV
vector 750368  Network.dyn_peer[114]  lookupStabilitySig:vector  ETV
vector 750369  Network.dyn_peer[114]  lookupTimeSig:vector  ETV
vector 750253  Network.dyn_peer[76]  lookupHopsSig:vector  ETV
vector 750254  Network.dyn_peer[76]  lookupStabilitySig:vector  ETV
vector 750255  Network.dyn_peer[76]  lookupTimeSig:vector  ETV
vector 750388  Network.dyn_peer[121]  lookupHopsSig:vector  ETV
vector 750389  Network.dyn_peer[121]  lookupStabilitySig:vector  ETV
vector 750390  Network.dyn_peer[121]  lookupTimeSig:vector  ETV
vector 750277  Network.dyn_peer[84]  lookupHopsSig:vector  ETV
vector 750278  Network.dyn_peer[84]  lookupStabilitySig:vector  ETV
vector 750279  Network.dyn_peer[84]  lookupTimeSig:vector  ETV
vector 750307  Network.dyn_peer[94]  lookupHopsSig:vector  ETV
vector 750308  Network.dyn_peer[94]  lookupStabilitySig:vector  ETV
vector 750309  Network.dyn_peer[94]  lookupTimeSig:vector  ETV
vector 750310  Network.dyn_peer[95]  lookupHopsSig:vector  ETV
vector 750311  Network.dyn_peer[95]  lookupStabilitySig:vector  ETV
vector 750312  Network.dyn_peer[95]  lookupTimeSig:vector  ETV
vector 750316  Network.dyn_peer[97]  lookupHopsSig:vector  ETV
vector 750317  Network.dyn_peer[97]  lookupStabilitySig:vector  ETV
vector 750318  Network.dyn_peer[97]  lookupTimeSig:vector  ETV
vector 750169  Network.dyn_peer[48]  lookupHopsSig:vector  ETV
vector 750170  Network.dyn_peer[48]  lookupStabilitySig:vector  ETV
vector 750171  Network.dyn_peer[48]  lookupTimeSig:vector  ETV
vector 750379  Network.dyn_peer[118]  lookupHopsSig:vector  ETV
vector 750380  Network.dyn_peer[118]  lookupStabilitySig:vector  ETV
vector 750381  Network.dyn_peer[118]  lookupTimeSig:vector  ETV
vector 750361  Network.dyn_peer[112]  lookupHopsSig:vector  ETV
vector 750362  Network.dyn_peer[112]  lookupStabilitySig:vector  ETV
vector 750363  Network.dyn_peer[112]  lookupTimeSig:vector  ETV
vector 750304  Network.dyn_peer[93]  lookupHopsSig:vector  ETV
vector 750305  Network.dyn_peer[93]  lookupStabilitySig:vector  ETV
vector 750306  Network.dyn_peer[93]  lookupTimeSig:vector  ETV
vector 750334  Network.dyn_peer[103]  lookupHopsSig:vector  ETV
vector 750335  Network.dyn_peer[103]  lookupStabilitySig:vector  ETV
vector 750336  Network.dyn_peer[103]  lookupTimeSig:vector  ETV
vector 750223  Network.dyn_peer[66]  lookupHopsSig:vector  ETV
vector 750224  Network.dyn_peer[66]  lookupStabilitySig:vector  ETV
vector 750225  Network.dyn_peer[66]  lookupTimeSig:vector  ETV
vector 750142  Network.dyn_peer[39]  lookupHopsSig:vector  ETV
vector 750143  Network.dyn_peer[39]  lookupStabilitySig:vector  ETV
vector 750144  Network.dyn_peer[39]  lookupTimeSig:vector  ETV
vector 750268  Network.dyn_peer[81]  lookupHopsSig:vector  ETV
vector 750269  Network.dyn_peer[81]  lookupStabilitySig:vector  ETV
vector 750270  Network.dyn_peer[81]  lookupTimeSig:vector  ETV
vector 750133  Network.dyn_peer[36]  lookupHopsSig:vector  ETV
vector 750134  Network.dyn_peer[36]  lookupStabilitySig:vector  ETV
vector 750135  Network.dyn_peer[36]  lookupTimeSig:vector  ETV
vector 750373  Network.dyn_peer[116]  lookupHopsSig:vector  ETV
vector 750374  Network.dyn_peer[116]  lookupStabilitySig:vector  ETV
vector 750375  Network.dyn_peer[116]  lookupTimeSig:vector  ETV
vector 750256  Network.dyn_peer[77]  lookupHopsSig:vector  ETV
vector 750257  Network.dyn_peer[77]  lookupStabilitySig:vector  ETV
vector 750258  Network.dyn_peer[77]  lookupTimeSig:vector  ETV
vector 750346  Network.dyn_peer[107]  lookupHopsSig:vector  ETV
vector 750347  Network.dyn_peer[107]  lookupStabilitySig:vector  ETV
vector 750348  Network.dyn_peer[107]  lookupTimeSig:vector  ETV
vector 750124  Network.dyn_peer[33]  lookupHopsSig:vector  ETV
vector 750125  Network.dyn_peer[33]  lookupStabilitySig:vector  ETV
vector 750126  Network.dyn_peer[33]  lookupTimeSig:vector  ETV
vector 750457  Network.dyn_peer[144]  lookupHopsSig:vector  ETV
vector 750458  Network.dyn_peer[144]  lookupStabilitySig:vector  ETV
vector 750459  Network.dyn_peer[144]  lookupTimeSig:vector  ETV
vector 750340  Network.dyn_peer[105]  lookupHopsSig:vector  ETV
vector 750341  Network.dyn_peer[105]  lookupStabilitySig:vector  ETV
vector 750342  Network.dyn_peer[105]  lookupTimeSig:vector  ETV
vector 750313  Network.dyn_peer[96]  lookupHopsSig:vector  ETV
vector 750314  Network.dyn_peer[96]  lookupStabilitySig:vector  ETV
vector 750315  Network.dyn_peer[96]  lookupTimeSig:vector  ETV
vector 750436  Network.dyn_peer[137]  lookupHopsSig:vector  ETV
vector 750437  Network.dyn_peer[137]  lookupStabilitySig:vector  ETV
vector 750438  Network.dyn_peer[137]  lookupTimeSig:vector  ETV
vector 750199  Network.dyn_peer[58]  lookupHopsSig:vector  ETV
vector 750200  Network.dyn_peer[58]  lookupStabilitySig:vector  ETV
vector 750201  Network.dyn_peer[58]  lookupTimeSig:vector  ETV
vector 750322  Network.dyn_peer[99]  lookupHopsSig:vector  ETV
vector 750323  Network.dyn_peer[99]  lookupStabilitySig:vector  ETV
vector 750324  Network.dyn_peer[99]  lookupTimeSig:vector  ETV
vector 750175  Network.dyn_peer[50]  lookupHopsSig:vector  ETV
vector 750176  Network.dyn_peer[50]  lookupStabilitySig:vector  ETV
vector 750177  Network.dyn_peer[50]  lookupTimeSig:vector  ETV
vector 750415  Network.dyn_peer[130]  lookupHopsSig:vector  ETV
vector 750416  Network.dyn_peer[130]  lookupStabilitySig:vector  ETV
vector 750417  Network.dyn_peer[130]  lookupTimeSig:vector  ETV
vector 750514  Network.dyn_peer[163]  lookupHopsSig:vector  ETV
vector 750515  Network.dyn_peer[163]  lookupStabilitySig:vector  ETV
vector 750516  Network.dyn_peer[163]  lookupTimeSig:vector  ETV
vector 750286  Network.dyn_peer[87]  lookupHopsSig:vector  ETV
vector 750287  Network.dyn_peer[87]  lookupStabilitySig:vector  ETV
vector 750288  Network.dyn_peer[87]  lookupTimeSig:vector  ETV
vector 750499  Network.dyn_peer[158]  lookupHopsSig:vector  ETV
vector 750500  Network.dyn_peer[158]  lookupStabilitySig:vector  ETV
vector 750501  Network.dyn_peer[158]  lookupTimeSig:vector  ETV
vector 750235  Network.dyn_peer[70]  lookupHopsSig:vector  ETV
vector 750236  Network.dyn_peer[70]  lookupStabilitySig:vector  ETV
vector 750237  Network.dyn_peer[70]  lookupTimeSig:vector  ETV
vector 750355  Network.dyn_peer[110]  lookupHopsSig:vector  ETV
vector 750356  Network.dyn_peer[110]  lookupStabilitySig:vector  ETV
vector 750357  Network.dyn_peer[110]  lookupTimeSig:vector  ETV
vector 750331  Network.dyn_peer[102]  lookupHopsSig:vector  ETV
vector 750332  Network.dyn_peer[102]  lookupStabilitySig:vector  ETV
vector 750333  Network.dyn_peer[102]  lookupTimeSig:vector  ETV
vector 750394  Network.dyn_peer[123]  lookupHopsSig:vector  ETV
vector 750395  Network.dyn_peer[123]  lookupStabilitySig:vector  ETV
vector 750396  Network.dyn_peer[123]  lookupTimeSig:vector  ETV
vector 750592  Network.dyn_peer[189]  lookupHopsSig:vector  ETV
vector 750593  Network.dyn_peer[189]  lookupStabilitySig:vector  ETV
vector 750594  Network.dyn_peer[189]  lookupTimeSig:vector  ETV
vector 750325  Network.dyn_peer[100]  lookupHopsSig:vector  ETV
vector 750326  Network.dyn_peer[100]  lookupStabilitySig:vector  ETV
vector 750327  Network.dyn_peer[100]  lookupTimeSig:vector  ETV
vector 750208  Network.dyn_peer[61]  lookupHopsSig:vector  ETV
vector 750209  Network.dyn_peer[61]  lookupStabilitySig:vector  ETV
vector 750210  Network.dyn_peer[61]  lookupTimeSig:vector  ETV
vector 750358  Network.dyn_peer[111]  lookupHopsSig:vector  ETV
vector 750359  Network.dyn_peer[111]  lookupStabilitySig:vector  ETV
vector 750360  Network.dyn_peer[111]  lookupTimeSig:vector  ETV
vector 750271  Network.dyn_peer[82]  lookupHopsSig:vector  ETV
vector 750272  Network.dyn_peer[82]  lookupStabilitySig:vector  ETV
vector 750273  Network.dyn_peer[82]  lookupTimeSig:vector  ETV
vector 750430  Network.dyn_peer[135]  lookupHopsSig:vector  ETV
vector 750431  Network.dyn_peer[135]  lookupStabilitySig:vector  ETV
vector 750432  Network.dyn_peer[135]  lookupTimeSig:vector  ETV
vector 750553  Network.dyn_peer[176]  lookupHopsSig:vector  ETV
vector 750554  Network.dyn_peer[176]  lookupStabilitySig:vector  ETV
vector 750555  Network.dyn_peer[176]  lookupTimeSig:vector  ETV
vector 750319  Network.dyn_peer[98]  lookupHopsSig:vector  ETV
vector 750320  Network.dyn_peer[98]  lookupStabilitySig:vector  ETV
vector 750321  Network.dyn_peer[98]  lookupTimeSig:vector  ETV
vector 750409  Network.dyn_peer[128]  lookupHopsSig:vector  ETV
vector 750410  Network.dyn_peer[128]  lookupStabilitySig:vector  ETV
vector 750411  Network.dyn_peer[128]  lookupTimeSig:vector  ETV
vector 750295  Network.dyn_peer[90]  lookupHopsSig:vector  ETV
vector 750296  Network.dyn_peer[90]  lookupStabilitySig:vector  ETV
vector 750297  Network.dyn_peer[90]  lookupTimeSig:vector  ETV
vector 750463  Network.dyn_peer[146]  lookupHopsSig:vector  ETV
vector 750464  Network.dyn_peer[146]  lookupStabilitySig:vector  ETV
vector 750465  Network.dyn_peer[146]  lookupTimeSig:vector  ETV
vector 750469  Network.dyn_peer[148]  lookupHopsSig:vector  ETV
vector 750470  Network.dyn_peer[148]  lookupStabilitySig:vector  ETV
vector 750471  Network.dyn_peer[148]  lookupTimeSig:vector  ETV
vector 750589  Network.dyn_peer[188]  lookupHopsSig:vector  ETV
vector 750590  Network.dyn_peer[188]  lookupStabilitySig:vector  ETV
vector 750591  Network.dyn_peer[188]  lookupTimeSig:vector  ETV
vector 750364  Network.dyn_peer[113]  lookupHopsSig:vector  ETV
vector 750365  Network.dyn_peer[113]  lookupStabilitySig:vector  ETV
vector 750366  Network.dyn_peer[113]  lookupTimeSig:vector  ETV
vector 750484  Network.dyn_peer[153]  lookupHopsSig:vector  ETV
vector 750485  Network.dyn_peer[153]  lookupStabilitySig:vector  ETV
vector 750486  Network.dyn_peer[153]  lookupTimeSig:vector  ETV
vector 750523  Network.dyn_peer[166]  lookupHopsSig:vector  ETV
vector 750524  Network.dyn_peer[166]  lookupStabilitySig:vector  ETV
vector 750525  Network.dyn_peer[166]  lookupTimeSig:vector  ETV
vector 750583  Network.dyn_peer[186]  lookupHopsSig:vector  ETV
vector 750584  Network.dyn_peer[186]  lookupStabilitySig:vector  ETV
vector 750585  Network.dyn_peer[186]  lookupTimeSig:vector  ETV
vector 750376  Network.dyn_peer[117]  lookupHopsSig:vector  ETV
vector 750377  Network.dyn_peer[117]  lookupStabilitySig:vector  ETV
vector 750378  Network.dyn_peer[117]  lookupTimeSig:vector  ETV
vector 750349  Network.dyn_peer[108]  lookupHopsSig:vector  ETV
vector 750350  Network.dyn_peer[108]  lookupStabilitySig:vector  ETV
vector 750351  Network.dyn_peer[108]  lookupTimeSig:vector  ETV
vector 750439  Network.dyn_peer[138]  lookupHopsSig:vector  ETV
vector 750440  Network.dyn_peer[138]  lookupStabilitySig:vector  ETV
vector 750441  Network.dyn_peer[138]  lookupTimeSig:vector  ETV
vector 750562  Network.dyn_peer[179]  lookupHopsSig:vector  ETV
vector 750563  Network.dyn_peer[179]  lookupStabilitySig:vector  ETV
vector 750564  Network.dyn_peer[179]  lookupTimeSig:vector  ETV
vector 750337  Network.dyn_peer[104]  lookupHopsSig:vector  ETV
vector 750338  Network.dyn_peer[104]  lookupStabilitySig:vector  ETV
vector 750339  Network.dyn_peer[104]  lookupTimeSig:vector  ETV
vector 750487  Network.dyn_peer[154]  lookupHopsSig:vector  ETV
vector 750488  Network.dyn_peer[154]  lookupStabilitySig:vector  ETV
vector 750489  Network.dyn_peer[154]  lookupTimeSig:vector  ETV
vector 750607  Network.dyn_peer[194]  lookupHopsSig:vector  ETV
vector 750608  Network.dyn_peer[194]  lookupStabilitySig:vector  ETV
vector 750609  Network.dyn_peer[194]  lookupTimeSig:vector  ETV
vector 750406  Network.dyn_peer[127]  lookupHopsSig:vector  ETV
vector 750407  Network.dyn_peer[127]  lookupStabilitySig:vector  ETV
vector 750408  Network.dyn_peer[127]  lookupTimeSig:vector  ETV
vector 750526  Network.dyn_peer[167]  lookupHopsSig:vector  ETV
vector 750527  Network.dyn_peer[167]  lookupStabilitySig:vector  ETV
vector 750528  Network.dyn_peer[167]  lookupTimeSig:vector  ETV
vector 750556  Network.dyn_peer[177]  lookupHopsSig:vector  ETV
vector 750557  Network.dyn_peer[177]  lookupStabilitySig:vector  ETV
vector 750558  Network.dyn_peer[177]  lookupTimeSig:vector  ETV
vector 750586  Network.dyn_peer[187]  lookupHopsSig:vector  ETV
vector 750587  Network.dyn_peer[187]  lookupStabilitySig:vector  ETV
vector 750588  Network.dyn_peer[187]  lookupTimeSig:vector  ETV
vector 750472  Network.dyn_peer[149]  lookupHopsSig:vector  ETV
vector 750473  Network.dyn_peer[149]  lookupStabilitySig:vector  ETV
vector 750474  Network.dyn_peer[149]  lookupTimeSig:vector  ETV
vector 750652  Network.dyn_peer[209]  lookupHopsSig:vector  ETV
vector 750653  Network.dyn_peer[209]  lookupStabilitySig:vector  ETV
vector 750654  Network.dyn_peer[209]  lookupTimeSig:vector  ETV
vector 750661  Network.dyn_peer[212]  lookupHopsSig:vector  ETV
vector 750662  Network.dyn_peer[212]  lookupStabilitySig:vector  ETV
vector 750663  Network.dyn_peer[212]  lookupTimeSig:vector  ETV
vector 750466  Network.dyn_peer[147]  lookupHopsSig:vector  ETV
vector 750467  Network.dyn_peer[147]  lookupStabilitySig:vector  ETV
vector 750468  Network.dyn_peer[147]  lookupTimeSig:vector  ETV
vector 750616  Network.dyn_peer[197]  lookupHopsSig:vector  ETV
vector 750617  Network.dyn_peer[197]  lookupStabilitySig:vector  ETV
vector 750618  Network.dyn_peer[197]  lookupTimeSig:vector  ETV
vector 750229  Network.dyn_peer[68]  lookupHopsSig:vector  ETV
vector 750230  Network.dyn_peer[68]  lookupStabilitySig:vector  ETV
vector 750231  Network.dyn_peer[68]  lookupTimeSig:vector  ETV
vector 750685  Network.dyn_peer[220]  lookupHopsSig:vector  ETV
vector 750686  Network.dyn_peer[220]  lookupStabilitySig:vector  ETV
vector 750687  Network.dyn_peer[220]  lookupTimeSig:vector  ETV
vector 750508  Network.dyn_peer[161]  lookupHopsSig:vector  ETV
vector 750509  Network.dyn_peer[161]  lookupStabilitySig:vector  ETV
vector 750510  Network.dyn_peer[161]  lookupTimeSig:vector  ETV
vector 750451  Network.dyn_peer[142]  lookupHopsSig:vector  ETV
vector 750452  Network.dyn_peer[142]  lookupStabilitySig:vector  ETV
vector 750453  Network.dyn_peer[142]  lookupTimeSig:vector  ETV
vector 750541  Network.dyn_peer[172]  lookupHopsSig:vector  ETV
vector 750542  Network.dyn_peer[172]  lookupStabilitySig:vector  ETV
vector 750543  Network.dyn_peer[172]  lookupTimeSig:vector  ETV
vector 750721  Network.dyn_peer[232]  lookupHopsSig:vector  ETV
vector 750722  Network.dyn_peer[232]  lookupStabilitySig:vector  ETV
vector 750723  Network.dyn_peer[232]  lookupTimeSig:vector  ETV
vector 750550  Network.dyn_peer[175]  lookupHopsSig:vector  ETV