file 426534 1369697152                                          
version 2
run Stability2-40-20130528-01:25:44-24168
attr configname Stability2
attr datetime 20130528-01:25:44
attr experiment Stability2
attr inifile omnetpp.ini
attr iterationvars $0=50
attr iterationvars2 "$0=50, $repetition=0"
attr measurement $0=50
attr network Network
attr processid 24168
attr repetition 0
attr replication #0
attr resultdir results
attr runnumber 40
attr seedset 40

vector 1230040  Network.churner  inGoingSizeSig:vector  ETV
vector 1200058  Network.dyn_peer[6]  lookupHopsSig:vector  ETV
vector 1200059  Network.dyn_peer[6]  lookupStabilitySig:vector  ETV
vector 1200060  Network.dyn_peer[6]  lookupTimeSig:vector  ETV
vector 1200043  Network.dyn_peer[1]  lookupHopsSig:vector  ETV
vector 1200044  Network.dyn_peer[1]  lookupStabilitySig:vector  ETV
vector 1200045  Network.dyn_peer[1]  lookupTimeSig:vector  ETV
vector 1200079  Network.dyn_peer[13]  lookupHopsSig:vector  ETV
vector 1200080  Network.dyn_peer[13]  lookupStabilitySig:vector  ETV
vector 1200081  Network.dyn_peer[13]  lookupTimeSig:vector  ETV
vector 1200052  Network.dyn_peer[4]  lookupHopsSig:vector  ETV
vector 1200053  Network.dyn_peer[4]  lookupStabilitySig:vector  ETV
vector 1200054  Network.dyn_peer[4]  lookupTimeSig:vector  ETV
vector 1200064  Network.dyn_peer[8]  lookupHopsSig:vector  ETV
vector 1200065  Network.dyn_peer[8]  lookupStabilitySig:vector  ETV
vector 1200066  Network.dyn_peer[8]  lookupTimeSig:vector  ETV
vector 1200073  Network.dyn_peer[11]  lookupHopsSig:vector  ETV
vector 1200074  Network.dyn_peer[11]  lookupStabilitySig:vector  ETV
vector 1200075  Network.dyn_peer[11]  lookupTimeSig:vector  ETV
vector 1200046  Network.dyn_peer[2]  lookupHopsSig:vector  ETV
vector 1200047  Network.dyn_peer[2]  lookupStabilitySig:vector  ETV
vector 1200048  Network.dyn_peer[2]  lookupTimeSig:vector  ETV
vector 1200112  Network.dyn_peer[24]  lookupHopsSig:vector  ETV
vector 1200113  Network.dyn_peer[24]  lookupStabilitySig:vector  ETV
vector 1200114  Network.dyn_peer[24]  lookupTimeSig:vector  ETV
vector 1200085  Network.dyn_peer[15]  lookupHopsSig:vector  ETV
vector 1200086  Network.dyn_peer[15]  lookupStabilitySig:vector  ETV
vector 1200087  Network.dyn_peer[15]  lookupTimeSig:vector  ETV
vector 1200061  Network.dyn_peer[7]  lookupHopsSig:vector  ETV
vector 1200062  Network.dyn_peer[7]  lookupStabilitySig:vector  ETV
vector 1200063  Network.dyn_peer[7]  lookupTimeSig:vector  ETV
vector 1200091  Network.dyn_peer[17]  lookupHopsSig:vector  ETV
vector 1200092  Network.dyn_peer[17]  lookupStabilitySig:vector  ETV
vector 1200093  Network.dyn_peer[17]  lookupTimeSig:vector  ETV
vector 1200070  Network.dyn_peer[10]  lookupHopsSig:vector  ETV
vector 1200071  Network.dyn_peer[10]  lookupStabilitySig:vector  ETV
vector 1200072  Network.dyn_peer[10]  lookupTimeSig:vector  ETV
vector 1200049  Network.dyn_peer[3]  lookupHopsSig:vector  ETV
vector 1200050  Network.dyn_peer[3]  lookupStabilitySig:vector  ETV
vector 1200051  Network.dyn_peer[3]  lookupTimeSig:vector  ETV
vector 1200109  Network.dyn_peer[23]  lookupHopsSig:vector  ETV
vector 1200110  Network.dyn_peer[23]  lookupStabilitySig:vector  ETV
vector 1200111  Network.dyn_peer[23]  lookupTimeSig:vector  ETV
vector 1200082  Network.dyn_peer[14]  lookupHopsSig:vector  ETV
vector 1200083  Network.dyn_peer[14]  lookupStabilitySig:vector  ETV
vector 1200084  Network.dyn_peer[14]  lookupTimeSig:vector  ETV
vector 1200088  Network.dyn_peer[16]  lookupHopsSig:vector  ETV
vector 1200089  Network.dyn_peer[16]  lookupStabilitySig:vector  ETV
vector 1200090  Network.dyn_peer[16]  lookupTimeSig:vector  ETV
vector 1200118  Network.dyn_peer[26]  lookupHopsSig:vector  ETV
vector 1200119  Network.dyn_peer[26]  lookupStabilitySig:vector  ETV
vector 1200120  Network.dyn_peer[26]  lookupTimeSig:vector  ETV
vector 1200094  Network.dyn_peer[18]  lookupHopsSig:vector  ETV
vector 1200095  Network.dyn_peer[18]  lookupStabilitySig:vector  ETV
vector 1200096  Network.dyn_peer[18]  lookupTimeSig:vector  ETV
vector 1200124  Network.dyn_peer[28]  lookupHopsSig:vector  ETV
vector 1200125  Network.dyn_peer[28]  lookupStabilitySig:vector  ETV
vector 1200126  Network.dyn_peer[28]  lookupTimeSig:vector  ETV
vector 1200136  Network.dyn_peer[32]  lookupHopsSig:vector  ETV
vector 1200137  Network.dyn_peer[32]  lookupStabilitySig:vector  ETV
vector 1200138  Network.dyn_peer[32]  lookupTimeSig:vector  ETV
vector 1200055  Network.dyn_peer[5]  lookupHopsSig:vector  ETV
vector 1200056  Network.dyn_peer[5]  lookupStabilitySig:vector  ETV
vector 1200057  Network.dyn_peer[5]  lookupTimeSig:vector  ETV
vector 1200115  Network.dyn_peer[25]  lookupHopsSig:vector  ETV
vector 1200116  Network.dyn_peer[25]  lookupStabilitySig:vector  ETV
vector 1200117  Network.dyn_peer[25]  lookupTimeSig:vector  ETV
vector 1200121  Network.dyn_peer[27]  lookupHopsSig:vector  ETV
vector 1200122  Network.dyn_peer[27]  lookupStabilitySig:vector  ETV
vector 1200123  Network.dyn_peer[27]  lookupTimeSig:vector  ETV
vector 1200097  Network.dyn_peer[19]  lookupHopsSig:vector  ETV
vector 1200098  Network.dyn_peer[19]  lookupStabilitySig:vector  ETV
vector 1200099  Network.dyn_peer[19]  lookupTimeSig:vector  ETV
vector 1200157  Network.dyn_peer[39]  lookupHopsSig:vector  ETV
vector 1200158  Network.dyn_peer[39]  lookupStabilitySig:vector  ETV
vector 1200159  Network.dyn_peer[39]  lookupTimeSig:vector  ETV
vector 1200160  Network.dyn_peer[40]  lookupHopsSig:vector  ETV
vector 1200161  Network.dyn_peer[40]  lookupStabilitySig:vector  ETV
vector 1200162  Network.dyn_peer[40]  lookupTimeSig:vector  ETV
vector 1200151  Network.dyn_peer[37]  lookupHopsSig:vector  ETV
vector 1200152  Network.dyn_peer[37]  lookupStabilitySig:vector  ETV
vector 1200153  Network.dyn_peer[37]  lookupTimeSig:vector  ETV
vector 1200040  Network.dyn_peer[0]  lookupHopsSig:vector  ETV
vector 1200041  Network.dyn_peer[0]  lookupStabilitySig:vector  ETV
vector 1200042  Network.dyn_peer[0]  lookupTimeSig:vector  ETV
vector 1200100  Network.dyn_peer[20]  lookupHopsSig:vector  ETV
vector 1200101  Network.dyn_peer[20]  lookupStabilitySig:vector  ETV
vector 1200102  Network.dyn_peer[20]  lookupTimeSig:vector  ETV
vector 1200190  Network.dyn_peer[50]  lookupHopsSig:vector  ETV
vector 1200191  Network.dyn_peer[50]  lookupStabilitySig:vector  ETV
vector 1200192  Network.dyn_peer[50]  lookupTimeSig:vector  ETV
vector 1200205  Network.dyn_peer[55]  lookupHopsSig:vector  ETV
vector 1200206  Network.dyn_peer[55]  lookupStabilitySig:vector  ETV
vector 1200207  Network.dyn_peer[55]  lookupTimeSig:vector  ETV
vector 1200181  Network.dyn_peer[47]  lookupHopsSig:vector  ETV
vector 1200182  Network.dyn_peer[47]  lookupStabilitySig:vector  ETV
vector 1200183  Network.dyn_peer[47]  lookupTimeSig:vector  ETV
vector 1200154  Network.dyn_peer[38]  lookupHopsSig:vector  ETV
vector 1200155  Network.dyn_peer[38]  lookupStabilitySig:vector  ETV
vector 1200156  Network.dyn_peer[38]  lookupTimeSig:vector  ETV
vector 1200067  Network.dyn_peer[9]  lookupHopsSig:vector  ETV
vector 1200068  Network.dyn_peer[9]  lookupStabilitySig:vector  ETV
vector 1200069  Network.dyn_peer[9]  lookupTimeSig:vector  ETV
vector 1200127  Network.dyn_peer[29]  lookupHopsSig:vector  ETV
vector 1200128  Network.dyn_peer[29]  lookupStabilitySig:vector  ETV
vector 1200129  Network.dyn_peer[29]  lookupTimeSig:vector  ETV
vector 1200166  Network.dyn_peer[42]  lookupHopsSig:vector  ETV
vector 1200167  Network.dyn_peer[42]  lookupStabilitySig:vector  ETV
vector 1200168  Network.dyn_peer[42]  lookupTimeSig:vector  ETV
vector 1200139  Network.dyn_peer[33]  lookupHopsSig:vector  ETV
vector 1200140  Network.dyn_peer[33]  lookupStabilitySig:vector  ETV
vector 1200141  Network.dyn_peer[33]  lookupTimeSig:vector  ETV
vector 1200241  Network.dyn_peer[67]  lookupHopsSig:vector  ETV
vector 1200242  Network.dyn_peer[67]  lookupStabilitySig:vector  ETV
vector 1200243  Network.dyn_peer[67]  lookupTimeSig:vector  ETV
vector 1200277  Network.dyn_peer[79]  lookupHopsSig:vector  ETV
vector 1200278  Network.dyn_peer[79]  lookupStabilitySig:vector  ETV
vector 1200279  Network.dyn_peer[79]  lookupTimeSig:vector  ETV
vector 1200076  Network.dyn_peer[12]  lookupHopsSig:vector  ETV
vector 1200077  Network.dyn_peer[12]  lookupStabilitySig:vector  ETV
vector 1200078  Network.dyn_peer[12]  lookupTimeSig:vector  ETV
vector 1200259  Network.dyn_peer[73]  lookupHopsSig:vector  ETV
vector 1200260  Network.dyn_peer[73]  lookupStabilitySig:vector  ETV
vector 1200261  Network.dyn_peer[73]  lookupTimeSig:vector  ETV
vector 1200220  Network.dyn_peer[60]  lookupHopsSig:vector  ETV
vector 1200221  Network.dyn_peer[60]  lookupStabilitySig:vector  ETV
vector 1200222  Network.dyn_peer[60]  lookupTimeSig:vector  ETV
vector 1200223  Network.dyn_peer[61]  lookupHopsSig:vector  ETV
vector 1200224  Network.dyn_peer[61]  lookupStabilitySig:vector  ETV
vector 1200225  Network.dyn_peer[61]  lookupTimeSig:vector  ETV
vector 1200196  Network.dyn_peer[52]  lookupHopsSig:vector  ETV
vector 1200197  Network.dyn_peer[52]  lookupStabilitySig:vector  ETV
vector 1200198  Network.dyn_peer[52]  lookupTimeSig:vector  ETV
vector 1200256  Network.dyn_peer[72]  lookupHopsSig:vector  ETV
vector 1200257  Network.dyn_peer[72]  lookupStabilitySig:vector  ETV
vector 1200258  Network.dyn_peer[72]  lookupTimeSig:vector  ETV
vector 1200142  Network.dyn_peer[34]  lookupHopsSig:vector  ETV
vector 1200143  Network.dyn_peer[34]  lookupStabilitySig:vector  ETV
vector 1200144  Network.dyn_peer[34]  lookupTimeSig:vector  ETV
vector 1200250  Network.dyn_peer[70]  lookupHopsSig:vector  ETV
vector 1200251  Network.dyn_peer[70]  lookupStabilitySig:vector  ETV
vector 1200252  Network.dyn_peer[70]  lookupTimeSig:vector  ETV
vector 1200103  Network.dyn_peer[21]  lookupHopsSig:vector  ETV
vector 1200104  Network.dyn_peer[21]  lookupStabilitySig:vector  ETV
vector 1200105  Network.dyn_peer[21]  lookupTimeSig:vector  ETV
vector 1200208  Network.dyn_peer[56]  lookupHopsSig:vector  ETV
vector 1200209  Network.dyn_peer[56]  lookupStabilitySig:vector  ETV
vector 1200210  Network.dyn_peer[56]  lookupTimeSig:vector  ETV
vector 1200211  Network.dyn_peer[57]  lookupHopsSig:vector  ETV
vector 1200212  Network.dyn_peer[57]  lookupStabilitySig:vector  ETV
vector 1200213  Network.dyn_peer[57]  lookupTimeSig:vector  ETV
vector 1200130  Network.dyn_peer[30]  lookupHopsSig:vector  ETV
vector 1200131  Network.dyn_peer[30]  lookupStabilitySig:vector  ETV
vector 1200132  Network.dyn_peer[30]  lookupTimeSig:vector  ETV
vector 1200253  Network.dyn_peer[71]  lookupHopsSig:vector  ETV
vector 1200254  Network.dyn_peer[71]  lookupStabilitySig:vector  ETV
vector 1200255  Network.dyn_peer[71]  lookupTimeSig:vector  ETV
vector 1200202  Network.dyn_peer[54]  lookupHopsSig:vector  ETV
vector 1200203  Network.dyn_peer[54]  lookupStabilitySig:vector  ETV
vector 1200204  Network.dyn_peer[54]  lookupTimeSig:vector  ETV
vector 1200175  Network.dyn_peer[45]  lookupHopsSig:vector  ETV
vector 1200176  Network.dyn_peer[45]  lookupStabilitySig:vector  ETV
vector 1200177  Network.dyn_peer[45]  lookupTimeSig:vector  ETV
vector 1200295  Network.dyn_peer[85]  lookupHopsSig:vector  ETV
vector 1200296  Network.dyn_peer[85]  lookupStabilitySig:vector  ETV
vector 1200297  Network.dyn_peer[85]  lookupTimeSig:vector  ETV
vector 1200148  Network.dyn_peer[36]  lookupHopsSig:vector  ETV
vector 1200149  Network.dyn_peer[36]  lookupStabilitySig:vector  ETV
vector 1200150  Network.dyn_peer[36]  lookupTimeSig:vector  ETV
vector 1200298  Network.dyn_peer[86]  lookupHopsSig:vector  ETV
vector 1200299  Network.dyn_peer[86]  lookupStabilitySig:vector  ETV
vector 1200300  Network.dyn_peer[86]  lookupTimeSig:vector  ETV
vector 1200331  Network.dyn_peer[97]  lookupHopsSig:vector  ETV
vector 1200332  Network.dyn_peer[97]  lookupStabilitySig:vector  ETV
vector 1200333  Network.dyn_peer[97]  lookupTimeSig:vector  ETV
vector 1200364  Network.dyn_peer[108]  lookupHopsSig:vector  ETV
vector 1200365  Network.dyn_peer[108]  lookupStabilitySig:vector  ETV
vector 1200366  Network.dyn_peer[108]  lookupTimeSig:vector  ETV
vector 1200247  Network.dyn_peer[69]  lookupHopsSig:vector  ETV
vector 1200248  Network.dyn_peer[69]  lookupStabilitySig:vector  ETV
vector 1200249  Network.dyn_peer[69]  lookupTimeSig:vector  ETV
vector 1200340  Network.dyn_peer[100]  lookupHopsSig:vector  ETV
vector 1200341  Network.dyn_peer[100]  lookupStabilitySig:vector  ETV
vector 1200342  Network.dyn_peer[100]  lookupTimeSig:vector  ETV
vector 1200163  Network.dyn_peer[41]  lookupHopsSig:vector  ETV
vector 1200164  Network.dyn_peer[41]  lookupStabilitySig:vector  ETV
vector 1200165  Network.dyn_peer[41]  lookupTimeSig:vector  ETV
vector 1200178  Network.dyn_peer[46]  lookupHopsSig:vector  ETV
vector 1200179  Network.dyn_peer[46]  lookupStabilitySig:vector  ETV
vector 1200180  Network.dyn_peer[46]  lookupTimeSig:vector  ETV
vector 1200268  Network.dyn_peer[76]  lookupHopsSig:vector  ETV
vector 1200269  Network.dyn_peer[76]  lookupStabilitySig:vector  ETV
vector 1200270  Network.dyn_peer[76]  lookupTimeSig:vector  ETV
vector 1200283  Network.dyn_peer[81]  lookupHopsSig:vector  ETV
vector 1200284  Network.dyn_peer[81]  lookupStabilitySig:vector  ETV
vector 1200285  Network.dyn_peer[81]  lookupTimeSig:vector  ETV
vector 1200106  Network.dyn_peer[22]  lookupHopsSig:vector  ETV
vector 1200107  Network.dyn_peer[22]  lookupStabilitySig:vector  ETV
vector 1200108  Network.dyn_peer[22]  lookupTimeSig:vector  ETV
vector 1200316  Network.dyn_peer[92]  lookupHopsSig:vector  ETV
vector 1200317  Network.dyn_peer[92]  lookupStabilitySig:vector  ETV
vector 1200318  Network.dyn_peer[92]  lookupTimeSig:vector  ETV
vector 1200376  Network.dyn_peer[112]  lookupHopsSig:vector  ETV
vector 1200377  Network.dyn_peer[112]  lookupStabilitySig:vector  ETV
vector 1200378  Network.dyn_peer[112]  lookupTimeSig:vector  ETV
vector 1200379  Network.dyn_peer[113]  lookupHopsSig:vector  ETV
vector 1200380  Network.dyn_peer[113]  lookupStabilitySig:vector  ETV
vector 1200381  Network.dyn_peer[113]  lookupTimeSig:vector  ETV
vector 1200439  Network.dyn_peer[133]  lookupHopsSig:vector  ETV
vector 1200440  Network.dyn_peer[133]  lookupStabilitySig:vector  ETV
vector 1200441  Network.dyn_peer[133]  lookupTimeSig:vector  ETV
vector 1200238  Network.dyn_peer[66]  lookupHopsSig:vector  ETV
vector 1200239  Network.dyn_peer[66]  lookupStabilitySig:vector  ETV
vector 1200240  Network.dyn_peer[66]  lookupTimeSig:vector  ETV
vector 1200412  Network.dyn_peer[124]  lookupHopsSig:vector  ETV
vector 1200413  Network.dyn_peer[124]  lookupStabilitySig:vector  ETV
vector 1200414  Network.dyn_peer[124]  lookupTimeSig:vector  ETV
vector 1200328  Network.dyn_peer[96]  lookupHopsSig:vector  ETV
vector 1200329  Network.dyn_peer[96]  lookupStabilitySig:vector  ETV
vector 1200330  Network.dyn_peer[96]  lookupTimeSig:vector  ETV
vector 1200301  Network.dyn_peer[87]  lookupHopsSig:vector  ETV
vector 1200302  Network.dyn_peer[87]  lookupStabilitySig:vector  ETV
vector 1200303  Network.dyn_peer[87]  lookupTimeSig:vector  ETV
vector 1200184  Network.dyn_peer[48]  lookupHopsSig:vector  ETV
vector 1200185  Network.dyn_peer[48]  lookupStabilitySig:vector  ETV
vector 1200186  Network.dyn_peer[48]  lookupTimeSig:vector  ETV
vector 1200187  Network.dyn_peer[49]  lookupHopsSig:vector  ETV
vector 1200188  Network.dyn_peer[49]  lookupStabilitySig:vector  ETV
vector 1200189  Network.dyn_peer[49]  lookupTimeSig:vector  ETV
vector 1200370  Network.dyn_peer[110]  lookupHopsSig:vector  ETV
vector 1200371  Network.dyn_peer[110]  lookupStabilitySig:vector  ETV
vector 1200372  Network.dyn_peer[110]  lookupTimeSig:vector  ETV
vector 1200193  Network.dyn_peer[51]  lookupHopsSig:vector  ETV
vector 1200194  Network.dyn_peer[51]  lookupStabilitySig:vector  ETV
vector 1200195  Network.dyn_peer[51]  lookupTimeSig:vector  ETV
vector 1200169  Network.dyn_peer[43]  lookupHopsSig:vector  ETV
vector 1200170  Network.dyn_peer[43]  lookupStabilitySig:vector  ETV
vector 1200171  Network.dyn_peer[43]  lookupTimeSig:vector  ETV
vector 1200199  Network.dyn_peer[53]  lookupHopsSig:vector  ETV
vector 1200200  Network.dyn_peer[53]  lookupStabilitySig:vector  ETV
vector 1200201  Network.dyn_peer[53]  lookupTimeSig:vector  ETV
vector 1200319  Network.dyn_peer[93]  lookupHopsSig:vector  ETV
vector 1200320  Network.dyn_peer[93]  lookupStabilitySig:vector  ETV
vector 1200321  Network.dyn_peer[93]  lookupTimeSig:vector  ETV
vector 1200349  Network.dyn_peer[103]  lookupHopsSig:vector  ETV
vector 1200350  Network.dyn_peer[103]  lookupStabilitySig:vector  ETV
vector 1200351  Network.dyn_peer[103]  lookupTimeSig:vector  ETV
vector 1200172  Network.dyn_peer[44]  lookupHopsSig:vector  ETV
vector 1200173  Network.dyn_peer[44]  lookupStabilitySig:vector  ETV
vector 1200174  Network.dyn_peer[44]  lookupTimeSig:vector  ETV
vector 1200358  Network.dyn_peer[106]  lookupHopsSig:vector  ETV
vector 1200359  Network.dyn_peer[106]  lookupStabilitySig:vector  ETV
vector 1200360  Network.dyn_peer[106]  lookupTimeSig:vector  ETV
vector 1200388  Network.dyn_peer[116]  lookupHopsSig:vector  ETV
vector 1200389  Network.dyn_peer[116]  lookupStabilitySig:vector  ETV
vector 1200390  Network.dyn_peer[116]  lookupTimeSig:vector  ETV
vector 1200274  Network.dyn_peer[78]  lookupHopsSig:vector  ETV
vector 1200275  Network.dyn_peer[78]  lookupStabilitySig:vector  ETV
vector 1200276  Network.dyn_peer[78]  lookupTimeSig:vector  ETV
vector 1200367  Network.dyn_peer[109]  lookupHopsSig:vector  ETV
vector 1200368  Network.dyn_peer[109]  lookupStabilitySig:vector  ETV
vector 1200369  Network.dyn_peer[109]  lookupTimeSig:vector  ETV
vector 1200397  Network.dyn_peer[119]  lookupHopsSig:vector  ETV
vector 1200398  Network.dyn_peer[119]  lookupStabilitySig:vector  ETV
vector 1200399  Network.dyn_peer[119]  lookupTimeSig:vector  ETV
vector 1200487  Network.dyn_peer[149]  lookupHopsSig:vector  ETV
vector 1200488  Network.dyn_peer[149]  lookupStabilitySig:vector  ETV
vector 1200489  Network.dyn_peer[149]  lookupTimeSig:vector  ETV
vector 1200430  Network.dyn_peer[130]  lookupHopsSig:vector  ETV
vector 1200431  Network.dyn_peer[130]  lookupStabilitySig:vector  ETV
vector 1200432  Network.dyn_peer[130]  lookupTimeSig:vector  ETV
vector 1200313  Network.dyn_peer[91]  lookupHopsSig:vector  ETV
vector 1200314  Network.dyn_peer[91]  lookupStabilitySig:vector  ETV
vector 1200315  Network.dyn_peer[91]  lookupTimeSig:vector  ETV
vector 1200403  Network.dyn_peer[121]  lookupHopsSig:vector  ETV
vector 1200404  Network.dyn_peer[121]  lookupStabilitySig:vector  ETV
vector 1200405  Network.dyn_peer[121]  lookupTimeSig:vector  ETV
vector 1200355  Network.dyn_peer[105]  lookupHopsSig:vector  ETV
vector 1200356  Network.dyn_peer[105]  lookupStabilitySig:vector  ETV
vector 1200357  Network.dyn_peer[105]  lookupTimeSig:vector  ETV
vector 1200391  Network.dyn_peer[117]  lookupHopsSig:vector  ETV
vector 1200392  Network.dyn_peer[117]  lookupStabilitySig:vector  ETV
vector 1200393  Network.dyn_peer[117]  lookupTimeSig:vector  ETV
vector 1200214  Network.dyn_peer[58]  lookupHopsSig:vector  ETV
vector 1200215  Network.dyn_peer[58]  lookupStabilitySig:vector  ETV
vector 1200216  Network.dyn_peer[58]  lookupTimeSig:vector  ETV
vector 1200427  Network.dyn_peer[129]  lookupHopsSig:vector  ETV
vector 1200428  Network.dyn_peer[129]  lookupStabilitySig:vector  ETV
vector 1200429  Network.dyn_peer[129]  lookupTimeSig:vector  ETV
vector 1200286  Network.dyn_peer[82]  lookupHopsSig:vector  ETV
vector 1200287  Network.dyn_peer[82]  lookupStabilitySig:vector  ETV
vector 1200288  Network.dyn_peer[82]  lookupTimeSig:vector  ETV
vector 1200469  Network.dyn_peer[143]  lookupHopsSig:vector  ETV
vector 1200470  Network.dyn_peer[143]  lookupStabilitySig:vector  ETV
vector 1200471  Network.dyn_peer[143]  lookupTimeSig:vector  ETV
vector 1200232  Network.dyn_peer[64]  lookupHopsSig:vector  ETV
vector 1200233  Network.dyn_peer[64]  lookupStabilitySig:vector  ETV
vector 1200234  Network.dyn_peer[64]  lookupTimeSig:vector  ETV
vector 1200292  Network.dyn_peer[84]  lookupHopsSig:vector  ETV
vector 1200293  Network.dyn_peer[84]  lookupStabilitySig:vector  ETV
vector 1200294  Network.dyn_peer[84]  lookupTimeSig:vector  ETV
vector 1200475  Network.dyn_peer[145]  lookupHopsSig:vector  ETV
vector 1200476  Network.dyn_peer[145]  lookupStabilitySig:vector  ETV
vector 1200477  Network.dyn_peer[145]  lookupTimeSig:vector  ETV
vector 1200565  Network.dyn_peer[175]  lookupHopsSig:vector  ETV
vector 1200566  Network.dyn_peer[175]  lookupStabilitySig:vector  ETV
vector 1200567  Network.dyn_peer[175]  lookupTimeSig:vector  ETV
vector 1200418  Network.dyn_peer[126]  lookupHopsSig:vector  ETV
vector 1200419  Network.dyn_peer[126]  lookupStabilitySig:vector  ETV
vector 1200420  Network.dyn_peer[126]  lookupTimeSig:vector  ETV
vector 1200538  Network.dyn_peer[166]  lookupHopsSig:vector  ETV
vector 1200539  Network.dyn_peer[166]  lookupStabilitySig:vector  ETV
vector 1200540  Network.dyn_peer[166]  lookupTimeSig:vector  ETV
vector 1200304  Network.dyn_peer[88]  lookupHopsSig:vector  ETV
vector 1200305  Network.dyn_peer[88]  lookupStabilitySig:vector  ETV
vector 1200306  Network.dyn_peer[88]  lookupTimeSig:vector  ETV
vector 1200280  Network.dyn_peer[80]  lookupHopsSig:vector  ETV
vector 1200281  Network.dyn_peer[80]  lookupStabilitySig:vector  ETV
vector 1200282  Network.dyn_peer[80]  lookupTimeSig:vector  ETV
vector 1200520  Network.dyn_peer[160]  lookupHopsSig:vector  ETV
vector 1200521  Network.dyn_peer[160]  lookupStabilitySig:vector  ETV
vector 1200522  Network.dyn_peer[160]  lookupTimeSig:vector  ETV
vector 1200133  Network.dyn_peer[31]  lookupHopsSig:vector  ETV
vector 1200134  Network.dyn_peer[31]  lookupStabilitySig:vector  ETV
vector 1200135  Network.dyn_peer[31]  lookupTimeSig:vector  ETV
vector 1200343  Network.dyn_peer[101]  lookupHopsSig:vector  ETV
vector 1200344  Network.dyn_peer[101]  lookupStabilitySig:vector  ETV
vector 1200345  Network.dyn_peer[101]  lookupTimeSig:vector  ETV
vector 1200352  Network.dyn_peer[104]  lookupHopsSig:vector  ETV
vector 1200353  Network.dyn_peer[104]  lookupStabilitySig:vector  ETV
vector 1200354  Network.dyn_peer[104]  lookupTimeSig:vector  ETV
vector 1200382  Network.dyn_peer[114]  lookupHopsSig:vector  ETV
vector 1200383  Network.dyn_peer[114]  lookupStabilitySig:vector  ETV
vector 1200384  Network.dyn_peer[114]  lookupTimeSig:vector  ETV
vector 1200472  Network.dyn_peer[144]  lookupHopsSig:vector  ETV
vector 1200473  Network.dyn_peer[144]  lookupStabilitySig:vector  ETV
vector 1200474  Network.dyn_peer[144]  lookupTimeSig:vector  ETV
vector 1200505  Network.dyn_peer[155]  lookupHopsSig:vector  ETV
vector 1200506  Network.dyn_peer[155]  lookupStabilitySig:vector  ETV
vector 1200507  Network.dyn_peer[155]  lookupTimeSig:vector  ETV
vector 1200400  Network.dyn_peer[120]  lookupHopsSig:vector  ETV
vector 1200401  Network.dyn_peer[120]  lookupStabilitySig:vector  ETV
vector 1200402  Network.dyn_peer[120]  lookupTimeSig:vector  ETV
vector 1200460  Network.dyn_peer[140]  lookupHopsSig:vector  ETV
vector 1200461  Network.dyn_peer[140]  lookupStabilitySig:vector  ETV
vector 1200462  Network.dyn_peer[140]  lookupTimeSig:vector  ETV
vector 1200436  Network.dyn_peer[132]  lookupHopsSig:vector  ETV
vector 1200437  Network.dyn_peer[132]  lookupStabilitySig:vector  ETV
vector 1200438  Network.dyn_peer[132]  lookupTimeSig:vector  ETV
vector 1200466  Network.dyn_peer[142]  lookupHopsSig:vector  ETV
vector 1200467  Network.dyn_peer[142]  lookupStabilitySig:vector  ETV
vector 1200468  Network.dyn_peer[142]  lookupTimeSig:vector  ETV
vector 1200499  Network.dyn_peer[153]  lookupHopsSig:vector  ETV
vector 1200500  Network.dyn_peer[153]  lookupStabilitySig:vector  ETV
vector 1200501  Network.dyn_peer[153]  lookupTimeSig:vector  ETV
vector 1200145  Network.dyn_peer[35]  lookupHopsSig:vector  ETV
vector 1200146  Network.dyn_peer[35]  lookupStabilitySig:vector  ETV
vector 1200147  Network.dyn_peer[35]  lookupTimeSig:vector  ETV
vector 1200361  Network.dyn_peer[107]  lookupHopsSig:vector  ETV
vector 1200362  Network.dyn_peer[107]  lookupStabilitySig:vector  ETV
vector 1200363  Network.dyn_peer[107]  lookupTimeSig:vector  ETV
vector 1200481  Network.dyn_peer[147]  lookupHopsSig:vector  ETV
vector 1200482  Network.dyn_peer[147]  lookupStabilitySig:vector  ETV
vector 1200483  Network.dyn_peer[147]  lookupTimeSig:vector  ETV
vector 1200244  Network.dyn_peer[68]  lookupHopsSig:vector  ETV
vector 1200245  Network.dyn_peer[68]  lookupStabilitySig:vector  ETV
vector 1200246  Network.dyn_peer[68]  lookupTimeSig:vector  ETV
vector 1200550  Network.dyn_peer[170]  lookupHopsSig:vector  ETV
vector 1200551  Network.dyn_peer[170]  lookupStabilitySig:vector  ETV
vector 1200552  Network.dyn_peer[170]  lookupTimeSig:vector  ETV
vector 1200493  Network.dyn_peer[151]  lookupHopsSig:vector  ETV
vector 1200494  Network.dyn_peer[151]  lookupStabilitySig:vector  ETV
vector 1200495  Network.dyn_peer[151]  lookupTimeSig:vector  ETV
vector 1200523  Network.dyn_peer[161]  lookupHopsSig:vector  ETV
vector 1200524  Network.dyn_peer[161]  lookupStabilitySig:vector  ETV
vector 1200525  Network.dyn_peer[161]  lookupTimeSig:vector  ETV
vector 1200226  Network.dyn_peer[62]  lookupHopsSig:vector  ETV
vector 1200227  Network.dyn_peer[62]  lookupStabilitySig:vector  ETV
vector 1200228  Network.dyn_peer[62]  lookupTimeSig:vector  ETV
vector 1200235  Network.dyn_peer[65]  lookupHopsSig:vector  ETV
vector 1200236  Network.dyn_peer[65]  lookupStabilitySig:vector  ETV
vector 1200237  Network.dyn_peer[65]  lookupTimeSig:vector  ETV
vector 1200535  Network.dyn_peer[165]  lookupHopsSig:vector  ETV
vector 1200536  Network.dyn_peer[165]  lookupStabilitySig:vector  ETV
vector 1200537  Network.dyn_peer[165]  lookupTimeSig:vector  ETV
vector 1200508  Network.dyn_peer[156]  lookupHopsSig:vector  ETV
vector 1200509  Network.dyn_peer[156]  lookupStabilitySig:vector  ETV
vector 1200510  Network.dyn_peer[156]  lookupTimeSig:vector  ETV
vector 1200271  Network.dyn_peer[77]  lookupHopsSig:vector  ETV
vector 1200272  Network.dyn_peer[77]  lookupStabilitySig:vector  ETV
vector 1200273  Network.dyn_peer[77]  lookupTimeSig:vector  ETV
vector 1200451  Network.dyn_peer[137]  lookupHopsSig:vector  ETV
vector 1200452  Network.dyn_peer[137]  lookupStabilitySig:vector  ETV
vector 1200453  Network.dyn_peer[137]  lookupTimeSig:vector  ETV
vector 1200334  Network.dyn_peer[98]  lookupHopsSig:vector  ETV
vector 1200335  Network.dyn_peer[98]  lookupStabilitySig:vector  ETV
vector 1200336  Network.dyn_peer[98]  lookupTimeSig:vector  ETV
vector 1200607  Network.dyn_peer[189]  lookupHopsSig:vector  ETV
vector 1200608  Network.dyn_peer[189]  lookupStabilitySig:vector  ETV
vector 1200609  Network.dyn_peer[189]  lookupTimeSig:vector  ETV
vector 1200310  Network.dyn_peer[90]  lookupHopsSig:vector  ETV
vector 1200311  Network.dyn_peer[90]  lookupStabilitySig:vector  ETV
vector 1200312  Network.dyn_peer[90]  lookupTimeSig:vector  ETV
vector 1200265  Network.dyn_peer[75]  lookupHopsSig:vector  ETV
vector 1200266  Network.dyn_peer[75]  lookupStabilitySig:vector  ETV
vector 1200267  Network.dyn_peer[75]  lookupTimeSig:vector  ETV
vector 1200415  Network.dyn_peer[125]  lookupHopsSig:vector  ETV
vector 1200416  Network.dyn_peer[125]  lookupStabilitySig:vector  ETV
vector 1200417  Network.dyn_peer[125]  lookupTimeSig:vector  ETV
vector 1200421  Network.dyn_peer[127]  lookupHopsSig:vector  ETV
vector 1200422  Network.dyn_peer[127]  lookupStabilitySig:vector  ETV
vector 1200423  Network.dyn_peer[127]  lookupTimeSig:vector  ETV
vector 1200424  Network.dyn_peer[128]  lookupHopsSig:vector  ETV
vector 1200425  Network.dyn_peer[128]  lookupStabilitySig:vector  ETV
vector 1200426  Network.dyn_peer[128]  lookupTimeSig:vector  ETV
vector 1200694  Network.dyn_peer[218]  lookupHopsSig:vector  ETV
vector 1200695  Network.dyn_peer[218]  lookupStabilitySig:vector  ETV
vector 1200696  Network.dyn_peer[218]  lookupTimeSig:vector  ETV
vector 1200217  Network.dyn_peer[59]  lookupHopsSig:vector  ETV
vector 1200218  Network.dyn_peer[59]  lookupStabilitySig:vector  ETV
vector 1200219  Network.dyn_peer[59]  lookupTimeSig:vector  ETV
vector 1200262  Network.dyn_peer[74]  lookupHopsSig:vector  ETV
vector 1200263  Network.dyn_peer[74]  lookupStabilitySig:vector  ETV
vector 1200264  Network.dyn_peer[74]  lookupTimeSig:vector  ETV
vector 1200445  Network.dyn_peer[135]  lookupHopsSig:vector  ETV
vector 1200446  Network.dyn_peer[135]  lookupStabilitySig:vector  ETV
vector 1200447  Network.dyn_peer[135]  lookupTimeSig:vector  ETV
vector 1200625  Network.dyn_peer[195]  lookupHopsSig:vector  ETV
vector 1200626  Network.dyn_peer[195]  lookupStabilitySig:vector  ETV
vector 1200627  Network.dyn_peer[195]  lookupTimeSig:vector  ETV
vector 1200604  Network.dyn_peer[188]  lookupHopsSig:vector  ETV
vector 1200605  Network.dyn_peer[188]  lookupStabilitySig:vector  ETV
vector 1200606  Network.dyn_peer[188]  lookupTimeSig:vector  ETV
vector 1200337  Network.dyn_peer[99]  lookupHopsSig:vector  ETV
vector 1200338  Network.dyn_peer[99]  lookupStabilitySig:vector  ETV
vector 1200339  Network.dyn_peer[99]  lookupTimeSig:vector  ETV
vector 1200640  Network.dyn_peer[200]  lookupHopsSig:vector  ETV
vector 1200641  Network.dyn_peer[200]  lookupStabilitySig:vector  ETV
vector 1200642  Network.dyn_peer[200]  lookupTimeSig:vector  ETV
vector 1200463  Network.dyn_peer[141]  lookupHopsSig:vector  ETV
vector 1200464  Network.dyn_peer[141]  lookupStabilitySig:vector  ETV
vector 1200465  Network.dyn_peer[141]  lookupTimeSig:vector  ETV
vector 1200229  Network.dyn_peer[63]  lookupHopsSig:vector  ETV
vector 1200230  Network.dyn_peer[63]  lookupStabilitySig:vector  ETV
vector 1200231  Network.dyn_peer[63]  lookupTimeSig:vector  ETV
vector 1200628  Network.dyn_peer[196]  lookupHopsSig:vector  ETV
vector 1200629  Network.dyn_peer[196]  lookupStabilitySig:vector  ETV
vector 1200630  Network.dyn_peer[196]  lookupTimeSig:vector  ETV