file 920640 1369697235                                          
version 2
run Stability2-50-20130528-01:27:03-24168
attr configname Stability2
attr datetime 20130528-01:27:03
attr experiment Stability2
attr inifile omnetpp.ini
attr iterationvars $0=100
attr iterationvars2 "$0=100, $repetition=0"
attr measurement $0=100
attr network Network
attr processid 24168
attr repetition 0
attr replication #0
attr resultdir results
attr runnumber 50
attr seedset 50

vector 1530050  Network.churner  inGoingSizeSig:vector  ETV
vector 1500071  Network.dyn_peer[7]  lookupHopsSig:vector  ETV
vector 1500072  Network.dyn_peer[7]  lookupStabilitySig:vector  ETV
vector 1500073  Network.dyn_peer[7]  lookupTimeSig:vector  ETV
vector 1500050  Network.dyn_peer[0]  lookupHopsSig:vector  ETV
vector 1500051  Network.dyn_peer[0]  lookupStabilitySig:vector  ETV
vector 1500052  Network.dyn_peer[0]  lookupTimeSig:vector  ETV
vector 1500056  Network.dyn_peer[2]  lookupHopsSig:vector  ETV
vector 1500057  Network.dyn_peer[2]  lookupStabilitySig:vector  ETV
vector 1500058  Network.dyn_peer[2]  lookupTimeSig:vector  ETV
vector 1500059  Network.dyn_peer[3]  lookupHopsSig:vector  ETV
vector 1500060  Network.dyn_peer[3]  lookupStabilitySig:vector  ETV
vector 1500061  Network.dyn_peer[3]  lookupTimeSig:vector  ETV
vector 1500092  Network.dyn_peer[14]  lookupHopsSig:vector  ETV
vector 1500093  Network.dyn_peer[14]  lookupStabilitySig:vector  ETV
vector 1500094  Network.dyn_peer[14]  lookupTimeSig:vector  ETV
vector 1500068  Network.dyn_peer[6]  lookupHopsSig:vector  ETV
vector 1500069  Network.dyn_peer[6]  lookupStabilitySig:vector  ETV
vector 1500070  Network.dyn_peer[6]  lookupTimeSig:vector  ETV
vector 1500074  Network.dyn_peer[8]  lookupHopsSig:vector  ETV
vector 1500075  Network.dyn_peer[8]  lookupStabilitySig:vector  ETV
vector 1500076  Network.dyn_peer[8]  lookupTimeSig:vector  ETV
vector 1500077  Network.dyn_peer[9]  lookupHopsSig:vector  ETV
vector 1500078  Network.dyn_peer[9]  lookupStabilitySig:vector  ETV
vector 1500079  Network.dyn_peer[9]  lookupTimeSig:vector  ETV
vector 1500080  Network.dyn_peer[10]  lookupHopsSig:vector  ETV
vector 1500081  Network.dyn_peer[10]  lookupStabilitySig:vector  ETV
vector 1500082  Network.dyn_peer[10]  lookupTimeSig:vector  ETV
vector 1500089  Network.dyn_peer[13]  lookupHopsSig:vector  ETV
vector 1500090  Network.dyn_peer[13]  lookupStabilitySig:vector  ETV
vector 1500091  Network.dyn_peer[13]  lookupTimeSig:vector  ETV
vector 1500062  Network.dyn_peer[4]  lookupHopsSig:vector  ETV
vector 1500063  Network.dyn_peer[4]  lookupStabilitySig:vector  ETV
vector 1500064  Network.dyn_peer[4]  lookupTimeSig:vector  ETV
vector 1500137  Network.dyn_peer[29]  lookupHopsSig:vector  ETV
vector 1500138  Network.dyn_peer[29]  lookupStabilitySig:vector  ETV
vector 1500139  Network.dyn_peer[29]  lookupTimeSig:vector  ETV
vector 1500083  Network.dyn_peer[11]  lookupHopsSig:vector  ETV
vector 1500084  Network.dyn_peer[11]  lookupStabilitySig:vector  ETV
vector 1500085  Network.dyn_peer[11]  lookupTimeSig:vector  ETV
vector 1500086  Network.dyn_peer[12]  lookupHopsSig:vector  ETV
vector 1500087  Network.dyn_peer[12]  lookupStabilitySig:vector  ETV
vector 1500088  Network.dyn_peer[12]  lookupTimeSig:vector  ETV
vector 1500065  Network.dyn_peer[5]  lookupHopsSig:vector  ETV
vector 1500066  Network.dyn_peer[5]  lookupStabilitySig:vector  ETV
vector 1500067  Network.dyn_peer[5]  lookupTimeSig:vector  ETV
vector 1500098  Network.dyn_peer[16]  lookupHopsSig:vector  ETV
vector 1500099  Network.dyn_peer[16]  lookupStabilitySig:vector  ETV
vector 1500100  Network.dyn_peer[16]  lookupTimeSig:vector  ETV
vector 1500101  Network.dyn_peer[17]  lookupHopsSig:vector  ETV
vector 1500102  Network.dyn_peer[17]  lookupStabilitySig:vector  ETV
vector 1500103  Network.dyn_peer[17]  lookupTimeSig:vector  ETV
vector 1500107  Network.dyn_peer[19]  lookupHopsSig:vector  ETV
vector 1500108  Network.dyn_peer[19]  lookupStabilitySig:vector  ETV
vector 1500109  Network.dyn_peer[19]  lookupTimeSig:vector  ETV
vector 1500113  Network.dyn_peer[21]  lookupHopsSig:vector  ETV
vector 1500114  Network.dyn_peer[21]  lookupStabilitySig:vector  ETV
vector 1500115  Network.dyn_peer[21]  lookupTimeSig:vector  ETV
vector 1500146  Network.dyn_peer[32]  lookupHopsSig:vector  ETV
vector 1500147  Network.dyn_peer[32]  lookupStabilitySig:vector  ETV
vector 1500148  Network.dyn_peer[32]  lookupTimeSig:vector  ETV
vector 1500185  Network.dyn_peer[45]  lookupHopsSig:vector  ETV
vector 1500186  Network.dyn_peer[45]  lookupStabilitySig:vector  ETV
vector 1500187  Network.dyn_peer[45]  lookupTimeSig:vector  ETV
vector 1500128  Network.dyn_peer[26]  lookupHopsSig:vector  ETV
vector 1500129  Network.dyn_peer[26]  lookupStabilitySig:vector  ETV
vector 1500130  Network.dyn_peer[26]  lookupTimeSig:vector  ETV
vector 1500131  Network.dyn_peer[27]  lookupHopsSig:vector  ETV
vector 1500132  Network.dyn_peer[27]  lookupStabilitySig:vector  ETV
vector 1500133  Network.dyn_peer[27]  lookupTimeSig:vector  ETV
vector 1500104  Network.dyn_peer[18]  lookupHopsSig:vector  ETV
vector 1500105  Network.dyn_peer[18]  lookupStabilitySig:vector  ETV
vector 1500106  Network.dyn_peer[18]  lookupTimeSig:vector  ETV
vector 1500053  Network.dyn_peer[1]  lookupHopsSig:vector  ETV
vector 1500054  Network.dyn_peer[1]  lookupStabilitySig:vector  ETV
vector 1500055  Network.dyn_peer[1]  lookupTimeSig:vector  ETV
vector 1500116  Network.dyn_peer[22]  lookupHopsSig:vector  ETV
vector 1500117  Network.dyn_peer[22]  lookupStabilitySig:vector  ETV
vector 1500118  Network.dyn_peer[22]  lookupTimeSig:vector  ETV
vector 1500122  Network.dyn_peer[24]  lookupHopsSig:vector  ETV
vector 1500123  Network.dyn_peer[24]  lookupStabilitySig:vector  ETV
vector 1500124  Network.dyn_peer[24]  lookupTimeSig:vector  ETV
vector 1500095  Network.dyn_peer[15]  lookupHopsSig:vector  ETV
vector 1500096  Network.dyn_peer[15]  lookupStabilitySig:vector  ETV
vector 1500097  Network.dyn_peer[15]  lookupTimeSig:vector  ETV
vector 1500125  Network.dyn_peer[25]  lookupHopsSig:vector  ETV
vector 1500126  Network.dyn_peer[25]  lookupStabilitySig:vector  ETV
vector 1500127  Network.dyn_peer[25]  lookupTimeSig:vector  ETV
vector 1500140  Network.dyn_peer[30]  lookupHopsSig:vector  ETV
vector 1500141  Network.dyn_peer[30]  lookupStabilitySig:vector  ETV
vector 1500142  Network.dyn_peer[30]  lookupTimeSig:vector  ETV
vector 1500170  Network.dyn_peer[40]  lookupHopsSig:vector  ETV
vector 1500171  Network.dyn_peer[40]  lookupStabilitySig:vector  ETV
vector 1500172  Network.dyn_peer[40]  lookupTimeSig:vector  ETV
vector 1500158  Network.dyn_peer[36]  lookupHopsSig:vector  ETV
vector 1500159  Network.dyn_peer[36]  lookupStabilitySig:vector  ETV
vector 1500160  Network.dyn_peer[36]  lookupTimeSig:vector  ETV
vector 1500134  Network.dyn_peer[28]  lookupHopsSig:vector  ETV
vector 1500135  Network.dyn_peer[28]  lookupStabilitySig:vector  ETV
vector 1500136  Network.dyn_peer[28]  lookupTimeSig:vector  ETV
vector 1500164  Network.dyn_peer[38]  lookupHopsSig:vector  ETV
vector 1500165  Network.dyn_peer[38]  lookupStabilitySig:vector  ETV
vector 1500166  Network.dyn_peer[38]  lookupTimeSig:vector  ETV
vector 1500167  Network.dyn_peer[39]  lookupHopsSig:vector  ETV
vector 1500168  Network.dyn_peer[39]  lookupStabilitySig:vector  ETV
vector 1500169  Network.dyn_peer[39]  lookupTimeSig:vector  ETV
vector 1500110  Network.dyn_peer[20]  lookupHopsSig:vector  ETV
vector 1500111  Network.dyn_peer[20]  lookupStabilitySig:vector  ETV
vector 1500112  Network.dyn_peer[20]  lookupTimeSig:vector  ETV
vector 1500161  Network.dyn_peer[37]  lookupHopsSig:vector  ETV
vector 1500162  Network.dyn_peer[37]  lookupStabilitySig:vector  ETV
vector 1500163  Network.dyn_peer[37]  lookupTimeSig:vector  ETV
vector 1500143  Network.dyn_peer[31]  lookupHopsSig:vector  ETV
vector 1500144  Network.dyn_peer[31]  lookupStabilitySig:vector  ETV
vector 1500145  Network.dyn_peer[31]  lookupTimeSig:vector  ETV
vector 1500176  Network.dyn_peer[42]  lookupHopsSig:vector  ETV
vector 1500177  Network.dyn_peer[42]  lookupStabilitySig:vector  ETV
vector 1500178  Network.dyn_peer[42]  lookupTimeSig:vector  ETV
vector 1500119  Network.dyn_peer[23]  lookupHopsSig:vector  ETV
vector 1500120  Network.dyn_peer[23]  lookupStabilitySig:vector  ETV
vector 1500121  Network.dyn_peer[23]  lookupTimeSig:vector  ETV
vector 1500197  Network.dyn_peer[49]  lookupHopsSig:vector  ETV
vector 1500198  Network.dyn_peer[49]  lookupStabilitySig:vector  ETV
vector 1500199  Network.dyn_peer[49]  lookupTimeSig:vector  ETV
vector 1500227  Network.dyn_peer[59]  lookupHopsSig:vector  ETV
vector 1500228  Network.dyn_peer[59]  lookupStabilitySig:vector  ETV
vector 1500229  Network.dyn_peer[59]  lookupTimeSig:vector  ETV
vector 1500260  Network.dyn_peer[70]  lookupHopsSig:vector  ETV
vector 1500261  Network.dyn_peer[70]  lookupStabilitySig:vector  ETV
vector 1500262  Network.dyn_peer[70]  lookupTimeSig:vector  ETV
vector 1500149  Network.dyn_peer[33]  lookupHopsSig:vector  ETV
vector 1500150  Network.dyn_peer[33]  lookupStabilitySig:vector  ETV
vector 1500151  Network.dyn_peer[33]  lookupTimeSig:vector  ETV
vector 1500269  Network.dyn_peer[73]  lookupHopsSig:vector  ETV
vector 1500270  Network.dyn_peer[73]  lookupStabilitySig:vector  ETV
vector 1500271  Network.dyn_peer[73]  lookupTimeSig:vector  ETV
vector 1500272  Network.dyn_peer[74]  lookupHopsSig:vector  ETV
vector 1500273  Network.dyn_peer[74]  lookupStabilitySig:vector  ETV
vector 1500274  Network.dyn_peer[74]  lookupTimeSig:vector  ETV
vector 1500155  Network.dyn_peer[35]  lookupHopsSig:vector  ETV
vector 1500156  Network.dyn_peer[35]  lookupStabilitySig:vector  ETV
vector 1500157  Network.dyn_peer[35]  lookupTimeSig:vector  ETV
vector 1500275  Network.dyn_peer[75]  lookupHopsSig:vector  ETV
vector 1500276  Network.dyn_peer[75]  lookupStabilitySig:vector  ETV
vector 1500277  Network.dyn_peer[75]  lookupTimeSig:vector  ETV
vector 1500173  Network.dyn_peer[41]  lookupHopsSig:vector  ETV
vector 1500174  Network.dyn_peer[41]  lookupStabilitySig:vector  ETV
vector 1500175  Network.dyn_peer[41]  lookupTimeSig:vector  ETV
vector 1500266  Network.dyn_peer[72]  lookupHopsSig:vector  ETV
vector 1500267  Network.dyn_peer[72]  lookupStabilitySig:vector  ETV
vector 1500268  Network.dyn_peer[72]  lookupTimeSig:vector  ETV
vector 1500329  Network.dyn_peer[93]  lookupHopsSig:vector  ETV
vector 1500330  Network.dyn_peer[93]  lookupStabilitySig:vector  ETV
vector 1500331  Network.dyn_peer[93]  lookupTimeSig:vector  ETV
vector 1500194  Network.dyn_peer[48]  lookupHopsSig:vector  ETV
vector 1500195  Network.dyn_peer[48]  lookupStabilitySig:vector  ETV
vector 1500196  Network.dyn_peer[48]  lookupTimeSig:vector  ETV
vector 1500290  Network.dyn_peer[80]  lookupHopsSig:vector  ETV
vector 1500291  Network.dyn_peer[80]  lookupStabilitySig:vector  ETV
vector 1500292  Network.dyn_peer[80]  lookupTimeSig:vector  ETV
vector 1500179  Network.dyn_peer[43]  lookupHopsSig:vector  ETV
vector 1500180  Network.dyn_peer[43]  lookupStabilitySig:vector  ETV
vector 1500181  Network.dyn_peer[43]  lookupTimeSig:vector  ETV
vector 1500152  Network.dyn_peer[34]  lookupHopsSig:vector  ETV
vector 1500153  Network.dyn_peer[34]  lookupStabilitySig:vector  ETV
vector 1500154  Network.dyn_peer[34]  lookupTimeSig:vector  ETV
vector 1500362  Network.dyn_peer[104]  lookupHopsSig:vector  ETV
vector 1500363  Network.dyn_peer[104]  lookupStabilitySig:vector  ETV
vector 1500364  Network.dyn_peer[104]  lookupTimeSig:vector  ETV
vector 1500248  Network.dyn_peer[66]  lookupHopsSig:vector  ETV
vector 1500249  Network.dyn_peer[66]  lookupStabilitySig:vector  ETV
vector 1500250  Network.dyn_peer[66]  lookupTimeSig:vector  ETV
vector 1500257  Network.dyn_peer[69]  lookupHopsSig:vector  ETV
vector 1500258  Network.dyn_peer[69]  lookupStabilitySig:vector  ETV
vector 1500259  Network.dyn_peer[69]  lookupTimeSig:vector  ETV
vector 1500287  Network.dyn_peer[79]  lookupHopsSig:vector  ETV
vector 1500288  Network.dyn_peer[79]  lookupStabilitySig:vector  ETV
vector 1500289  Network.dyn_peer[79]  lookupTimeSig:vector  ETV
vector 1500221  Network.dyn_peer[57]  lookupHopsSig:vector  ETV
vector 1500222  Network.dyn_peer[57]  lookupStabilitySig:vector  ETV
vector 1500223  Network.dyn_peer[57]  lookupTimeSig:vector  ETV
vector 1500281  Network.dyn_peer[77]  lookupHopsSig:vector  ETV
vector 1500282  Network.dyn_peer[77]  lookupStabilitySig:vector  ETV
vector 1500283  Network.dyn_peer[77]  lookupTimeSig:vector  ETV
vector 1500371  Network.dyn_peer[107]  lookupHopsSig:vector  ETV
vector 1500372  Network.dyn_peer[107]  lookupStabilitySig:vector  ETV
vector 1500373  Network.dyn_peer[107]  lookupTimeSig:vector  ETV
vector 1500344  Network.dyn_peer[98]  lookupHopsSig:vector  ETV
vector 1500345  Network.dyn_peer[98]  lookupStabilitySig:vector  ETV
vector 1500346  Network.dyn_peer[98]  lookupTimeSig:vector  ETV
vector 1500356  Network.dyn_peer[102]  lookupHopsSig:vector  ETV
vector 1500357  Network.dyn_peer[102]  lookupStabilitySig:vector  ETV
vector 1500358  Network.dyn_peer[102]  lookupTimeSig:vector  ETV
vector 1500389  Network.dyn_peer[113]  lookupHopsSig:vector  ETV
vector 1500390  Network.dyn_peer[113]  lookupStabilitySig:vector  ETV
vector 1500391  Network.dyn_peer[113]  lookupTimeSig:vector  ETV
vector 1500455  Network.dyn_peer[135]  lookupHopsSig:vector  ETV
vector 1500456  Network.dyn_peer[135]  lookupStabilitySig:vector  ETV
vector 1500457  Network.dyn_peer[135]  lookupTimeSig:vector  ETV
vector 1500431  Network.dyn_peer[127]  lookupHopsSig:vector  ETV
vector 1500432  Network.dyn_peer[127]  lookupStabilitySig:vector  ETV
vector 1500433  Network.dyn_peer[127]  lookupTimeSig:vector  ETV
vector 1500374  Network.dyn_peer[108]  lookupHopsSig:vector  ETV
vector 1500375  Network.dyn_peer[108]  lookupStabilitySig:vector  ETV
vector 1500376  Network.dyn_peer[108]  lookupTimeSig:vector  ETV
vector 1500293  Network.dyn_peer[81]  lookupHopsSig:vector  ETV
vector 1500294  Network.dyn_peer[81]  lookupStabilitySig:vector  ETV
vector 1500295  Network.dyn_peer[81]  lookupTimeSig:vector  ETV
vector 1500182  Network.dyn_peer[44]  lookupHopsSig:vector  ETV
vector 1500183  Network.dyn_peer[44]  lookupStabilitySig:vector  ETV
vector 1500184  Network.dyn_peer[44]  lookupTimeSig:vector  ETV
vector 1500452  Network.dyn_peer[134]  lookupHopsSig:vector  ETV
vector 1500453  Network.dyn_peer[134]  lookupStabilitySig:vector  ETV
vector 1500454  Network.dyn_peer[134]  lookupTimeSig:vector  ETV
vector 1500188  Network.dyn_peer[46]  lookupHopsSig:vector  ETV
vector 1500189  Network.dyn_peer[46]  lookupStabilitySig:vector  ETV
vector 1500190  Network.dyn_peer[46]  lookupTimeSig:vector  ETV
vector 1500191  Network.dyn_peer[47]  lookupHopsSig:vector  ETV
vector 1500192  Network.dyn_peer[47]  lookupStabilitySig:vector  ETV
vector 1500193  Network.dyn_peer[47]  lookupTimeSig:vector  ETV
vector 1500311  Network.dyn_peer[87]  lookupHopsSig:vector  ETV
vector 1500312  Network.dyn_peer[87]  lookupStabilitySig:vector  ETV
vector 1500313  Network.dyn_peer[87]  lookupTimeSig:vector  ETV
vector 1500404  Network.dyn_peer[118]  lookupHopsSig:vector  ETV
vector 1500405  Network.dyn_peer[118]  lookupStabilitySig:vector  ETV
vector 1500406  Network.dyn_peer[118]  lookupTimeSig:vector  ETV
vector 1500434  Network.dyn_peer[128]  lookupHopsSig:vector  ETV
vector 1500435  Network.dyn_peer[128]  lookupStabilitySig:vector  ETV
vector 1500436  Network.dyn_peer[128]  lookupTimeSig:vector  ETV
vector 1500242  Network.dyn_peer[64]  lookupHopsSig:vector  ETV
vector 1500243  Network.dyn_peer[64]  lookupStabilitySig:vector  ETV
vector 1500244  Network.dyn_peer[64]  lookupTimeSig:vector  ETV
vector 1500305  Network.dyn_peer[85]  lookupHopsSig:vector  ETV
vector 1500306  Network.dyn_peer[85]  lookupStabilitySig:vector  ETV
vector 1500307  Network.dyn_peer[85]  lookupTimeSig:vector  ETV
vector 1500338  Network.dyn_peer[96]  lookupHopsSig:vector  ETV
vector 1500339  Network.dyn_peer[96]  lookupStabilitySig:vector  ETV
vector 1500340  Network.dyn_peer[96]  lookupTimeSig:vector  ETV
vector 1500488  Network.dyn_peer[146]  lookupHopsSig:vector  ETV
vector 1500489  Network.dyn_peer[146]  lookupStabilitySig:vector  ETV
vector 1500490  Network.dyn_peer[146]  lookupTimeSig:vector  ETV
vector 1500284  Network.dyn_peer[78]  lookupHopsSig:vector  ETV
vector 1500285  Network.dyn_peer[78]  lookupStabilitySig:vector  ETV
vector 1500286  Network.dyn_peer[78]  lookupTimeSig:vector  ETV
vector 1500314  Network.dyn_peer[88]  lookupHopsSig:vector  ETV
vector 1500315  Network.dyn_peer[88]  lookupStabilitySig:vector  ETV
vector 1500316  Network.dyn_peer[88]  lookupTimeSig:vector  ETV
vector 1500437  Network.dyn_peer[129]  lookupHopsSig:vector  ETV
vector 1500438  Network.dyn_peer[129]  lookupStabilitySig:vector  ETV
vector 1500439  Network.dyn_peer[129]  lookupTimeSig:vector  ETV
vector 1500233  Network.dyn_peer[61]  lookupHopsSig:vector  ETV
vector 1500234  Network.dyn_peer[61]  lookupStabilitySig:vector  ETV
vector 1500235  Network.dyn_peer[61]  lookupTimeSig:vector  ETV
vector 1500263  Network.dyn_peer[71]  lookupHopsSig:vector  ETV
vector 1500264  Network.dyn_peer[71]  lookupStabilitySig:vector  ETV
vector 1500265  Network.dyn_peer[71]  lookupTimeSig:vector  ETV
vector 1500503  Network.dyn_peer[151]  lookupHopsSig:vector  ETV
vector 1500504  Network.dyn_peer[151]  lookupStabilitySig:vector  ETV
vector 1500505  Network.dyn_peer[151]  lookupTimeSig:vector  ETV
vector 1500206  Network.dyn_peer[52]  lookupHopsSig:vector  ETV
vector 1500207  Network.dyn_peer[52]  lookupStabilitySig:vector  ETV
vector 1500208  Network.dyn_peer[52]  lookupTimeSig:vector  ETV
vector 1500302  Network.dyn_peer[84]  lookupHopsSig:vector  ETV
vector 1500303  Network.dyn_peer[84]  lookupStabilitySig:vector  ETV
vector 1500304  Network.dyn_peer[84]  lookupTimeSig:vector  ETV
vector 1500215  Network.dyn_peer[55]  lookupHopsSig:vector  ETV
vector 1500216  Network.dyn_peer[55]  lookupStabilitySig:vector  ETV
vector 1500217  Network.dyn_peer[55]  lookupTimeSig:vector  ETV
vector 1500218  Network.dyn_peer[56]  lookupHopsSig:vector  ETV
vector 1500219  Network.dyn_peer[56]  lookupStabilitySig:vector  ETV
vector 1500220  Network.dyn_peer[56]  lookupTimeSig:vector  ETV
vector 1500341  Network.dyn_peer[97]  lookupHopsSig:vector  ETV
vector 1500342  Network.dyn_peer[97]  lookupStabilitySig:vector  ETV
vector 1500343  Network.dyn_peer[97]  lookupTimeSig:vector  ETV
vector 1500200  Network.dyn_peer[50]  lookupHopsSig:vector  ETV
vector 1500201  Network.dyn_peer[50]  lookupStabilitySig:vector  ETV
vector 1500202  Network.dyn_peer[50]  lookupTimeSig:vector  ETV
vector 1500383  Network.dyn_peer[111]  lookupHopsSig:vector  ETV
vector 1500384  Network.dyn_peer[111]  lookupStabilitySig:vector  ETV
vector 1500385  Network.dyn_peer[111]  lookupTimeSig:vector  ETV
vector 1500296  Network.dyn_peer[82]  lookupHopsSig:vector  ETV
vector 1500297  Network.dyn_peer[82]  lookupStabilitySig:vector  ETV
vector 1500298  Network.dyn_peer[82]  lookupTimeSig:vector  ETV
vector 1500326  Network.dyn_peer[92]  lookupHopsSig:vector  ETV
vector 1500327  Network.dyn_peer[92]  lookupStabilitySig:vector  ETV
vector 1500328  Network.dyn_peer[92]  lookupTimeSig:vector  ETV
vector 1500332  Network.dyn_peer[94]  lookupHopsSig:vector  ETV
vector 1500333  Network.dyn_peer[94]  lookupStabilitySig:vector  ETV
vector 1500334  Network.dyn_peer[94]  lookupTimeSig:vector  ETV
vector 1500335  Network.dyn_peer[95]  lookupHopsSig:vector  ETV
vector 1500336  Network.dyn_peer[95]  lookupStabilitySig:vector  ETV
vector 1500337  Network.dyn_peer[95]  lookupTimeSig:vector  ETV
vector 1500395  Network.dyn_peer[115]  lookupHopsSig:vector  ETV
vector 1500396  Network.dyn_peer[115]  lookupStabilitySig:vector  ETV
vector 1500397  Network.dyn_peer[115]  lookupTimeSig:vector  ETV
vector 1500278  Network.dyn_peer[76]  lookupHopsSig:vector  ETV
vector 1500279  Network.dyn_peer[76]  lookupStabilitySig:vector  ETV
vector 1500280  Network.dyn_peer[76]  lookupTimeSig:vector  ETV
vector 1500428  Network.dyn_peer[126]  lookupHopsSig:vector  ETV
vector 1500429  Network.dyn_peer[126]  lookupStabilitySig:vector  ETV
vector 1500430  Network.dyn_peer[126]  lookupTimeSig:vector  ETV
vector 1500317  Network.dyn_peer[89]  lookupHopsSig:vector  ETV
vector 1500318  Network.dyn_peer[89]  lookupStabilitySig:vector  ETV
vector 1500319  Network.dyn_peer[89]  lookupTimeSig:vector  ETV
vector 1500500  Network.dyn_peer[150]  lookupHopsSig:vector  ETV
vector 1500501  Network.dyn_peer[150]  lookupStabilitySig:vector  ETV
vector 1500502  Network.dyn_peer[150]  lookupTimeSig:vector  ETV
vector 1500353  Network.dyn_peer[101]  lookupHopsSig:vector  ETV
vector 1500354  Network.dyn_peer[101]  lookupStabilitySig:vector  ETV
vector 1500355  Network.dyn_peer[101]  lookupTimeSig:vector  ETV
vector 1500443  Network.dyn_peer[131]  lookupHopsSig:vector  ETV
vector 1500444  Network.dyn_peer[131]  lookupStabilitySig:vector  ETV
vector 1500445  Network.dyn_peer[131]  lookupTimeSig:vector  ETV
vector 1500536  Network.dyn_peer[162]  lookupHopsSig:vector  ETV
vector 1500537  Network.dyn_peer[162]  lookupStabilitySig:vector  ETV
vector 1500538  Network.dyn_peer[162]  lookupTimeSig:vector  ETV
vector 1500209  Network.dyn_peer[53]  lookupHopsSig:vector  ETV
vector 1500210  Network.dyn_peer[53]  lookupStabilitySig:vector  ETV
vector 1500211  Network.dyn_peer[53]  lookupTimeSig:vector  ETV
vector 1500359  Network.dyn_peer[103]  lookupHopsSig:vector  ETV
vector 1500360  Network.dyn_peer[103]  lookupStabilitySig:vector  ETV
vector 1500361  Network.dyn_peer[103]  lookupTimeSig:vector  ETV
vector 1500212  Network.dyn_peer[54]  lookupHopsSig:vector  ETV
vector 1500213  Network.dyn_peer[54]  lookupStabilitySig:vector  ETV
vector 1500214  Network.dyn_peer[54]  lookupTimeSig:vector  ETV
vector 1500365  Network.dyn_peer[105]  lookupHopsSig:vector  ETV
vector 1500366  Network.dyn_peer[105]  lookupStabilitySig:vector  ETV
vector 1500367  Network.dyn_peer[105]  lookupTimeSig:vector  ETV
vector 1500377  Network.dyn_peer[109]  lookupHopsSig:vector  ETV
vector 1500378  Network.dyn_peer[109]  lookupStabilitySig:vector  ETV
vector 1500379  Network.dyn_peer[109]  lookupTimeSig:vector  ETV
vector 1500530  Network.dyn_peer[160]  lookupHopsSig:vector  ETV
vector 1500531  Network.dyn_peer[160]  lookupStabilitySig:vector  ETV
vector 1500532  Network.dyn_peer[160]  lookupTimeSig:vector  ETV
vector 1500203  Network.dyn_peer[51]  lookupHopsSig:vector  ETV
vector 1500204  Network.dyn_peer[51]  lookupStabilitySig:vector  ETV
vector 1500205  Network.dyn_peer[51]  lookupTimeSig:vector  ETV
vector 1500473  Network.dyn_peer[141]  lookupHopsSig:vector  ETV
vector 1500474  Network.dyn_peer[141]  lookupStabilitySig:vector  ETV
vector 1500475  Network.dyn_peer[141]  lookupTimeSig:vector  ETV
vector 1500539  Network.dyn_peer[163]  lookupHopsSig:vector  ETV
vector 1500540  Network.dyn_peer[163]  lookupStabilitySig:vector  ETV
vector 1500541  Network.dyn_peer[163]  lookupTimeSig:vector  ETV
vector 1500422  Network.dyn_peer[124]  lookupHopsSig:vector  ETV
vector 1500423  Network.dyn_peer[124]  lookupStabilitySig:vector  ETV
vector 1500424  Network.dyn_peer[124]  lookupTimeSig:vector  ETV
vector 1500368  Network.dyn_peer[106]  lookupHopsSig:vector  ETV
vector 1500369  Network.dyn_peer[106]  lookupStabilitySig:vector  ETV
vector 1500370  Network.dyn_peer[106]  lookupTimeSig:vector  ETV
vector 1500527  Network.dyn_peer[159]  lookupHopsSig:vector  ETV
vector 1500528  Network.dyn_peer[159]  lookupStabilitySig:vector  ETV
vector 1500529  Network.dyn_peer[159]  lookupTimeSig:vector  ETV
vector 1500557  Network.dyn_peer[169]  lookupHopsSig:vector  ETV
vector 1500558  Network.dyn_peer[169]  lookupStabilitySig:vector  ETV
vector 1500559  Network.dyn_peer[169]  lookupTimeSig:vector  ETV
vector 1500320  Network.dyn_peer[90]  lookupHopsSig:vector  ETV
vector 1500321  Network.dyn_peer[90]  lookupStabilitySig:vector  ETV
vector 1500322  Network.dyn_peer[90]  lookupTimeSig:vector  ETV
vector 1500380  Network.dyn_peer[110]  lookupHopsSig:vector  ETV
vector 1500381  Network.dyn_peer[110]  lookupStabilitySig:vector  ETV
vector 1500382  Network.dyn_peer[110]  lookupTimeSig:vector  ETV
vector 1500599  Network.dyn_peer[183]  lookupHopsSig:vector  ETV
vector 1500600  Network.dyn_peer[183]  lookupStabilitySig:vector  ETV
vector 1500601  Network.dyn_peer[183]  lookupTimeSig:vector  ETV
vector 1500224  Network.dyn_peer[58]  lookupHopsSig:vector  ETV
vector 1500225  Network.dyn_peer[58]  lookupStabilitySig:vector  ETV
vector 1500226  Network.dyn_peer[58]  lookupTimeSig:vector  ETV
vector 1500524  Network.dyn_peer[158]  lookupHopsSig:vector  ETV
vector 1500525  Network.dyn_peer[158]  lookupStabilitySig:vector  ETV
vector 1500526  Network.dyn_peer[158]  lookupTimeSig:vector  ETV
vector 1500650  Network.dyn_peer[200]  lookupHopsSig:vector  ETV
vector 1500651  Network.dyn_peer[200]  lookupStabilitySig:vector  ETV
vector 1500652  Network.dyn_peer[200]  lookupTimeSig:vector  ETV
vector 1500323  Network.dyn_peer[91]  lookupHopsSig:vector  ETV
vector 1500324  Network.dyn_peer[91]  lookupStabilitySig:vector  ETV
vector 1500325  Network.dyn_peer[91]  lookupTimeSig:vector  ETV
vector 1500572  Network.dyn_peer[174]  lookupHopsSig:vector  ETV
vector 1500573  Network.dyn_peer[174]  lookupStabilitySig:vector  ETV
vector 1500574  Network.dyn_peer[174]  lookupTimeSig:vector  ETV
vector 1500515  Network.dyn_peer[155]  lookupHopsSig:vector  ETV
vector 1500516  Network.dyn_peer[155]  lookupStabilitySig:vector  ETV
vector 1500517  Network.dyn_peer[155]  lookupTimeSig:vector  ETV
vector 1500578  Network.dyn_peer[176]  lookupHopsSig:vector  ETV
vector 1500579  Network.dyn_peer[176]  lookupStabilitySig:vector  ETV
vector 1500580  Network.dyn_peer[176]  lookupTimeSig:vector  ETV
vector 1500554  Network.dyn_peer[168]  lookupHopsSig:vector  ETV
vector 1500555  Network.dyn_peer[168]  lookupStabilitySig:vector  ETV
vector 1500556  Network.dyn_peer[168]  lookupTimeSig:vector  ETV
vector 1500647  Network.dyn_peer[199]  lookupHopsSig:vector  ETV
vector 1500648  Network.dyn_peer[199]  lookupStabilitySig:vector  ETV
vector 1500649  Network.dyn_peer[199]  lookupTimeSig:vector  ETV
vector 1500230  Network.dyn_peer[60]  lookupHopsSig:vector  ETV
vector 1500231  Network.dyn_peer[60]  lookupStabilitySig:vector  ETV
vector 1500232  Network.dyn_peer[60]  lookupTimeSig:vector  ETV
vector 1500350  Network.dyn_peer[100]  lookupHopsSig:vector  ETV
vector 1500351  Network.dyn_peer[100]  lookupStabilitySig:vector  ETV
vector 1500352  Network.dyn_peer[100]  lookupTimeSig:vector  ETV
vector 1500560  Network.dyn_peer[170]  lookupHopsSig:vector  ETV
vector 1500561  Network.dyn_peer[170]  lookupStabilitySig:vector  ETV
vector 1500562  Network.dyn_peer[170]  lookupTimeSig:vector  ETV
vector 1500590  Network.dyn_peer[180]  lookupHopsSig:vector  ETV
vector 1500591  Network.dyn_peer[180]  lookupStabilitySig:vector  ETV
vector 1500592  Network.dyn_peer[180]  lookupTimeSig:vector  ETV
vector 1500566  Network.dyn_peer[172]  lookupHopsSig:vector  ETV
vector 1500567  Network.dyn_peer[172]  lookupStabilitySig:vector  ETV
vector 1500568  Network.dyn_peer[172]  lookupTimeSig:vector  ETV
vector 1500596  Network.dyn_peer[182]  lookupHopsSig:vector  ETV
vector 1500597  Network.dyn_peer[182]  lookupStabilitySig:vector  ETV
vector 1500598  Network.dyn_peer[182]  lookupTimeSig:vector  ETV
vector 1500512  Network.dyn_peer[154]  lookupHopsSig:vector  ETV
vector 1500513  Network.dyn_peer[154]  lookupStabilitySig:vector  ETV
vector 1500514  Network.dyn_peer[154]  lookupTimeSig:vector  ETV
vector 1500605  Network.dyn_peer[185]  lookupHopsSig:vector  ETV
vector 1500606  Network.dyn_peer[185]  lookupStabilitySig:vector  ETV
vector 1500607  Network.dyn_peer[185]  lookupTimeSig:vector  ETV
vector 1500551  Network.dyn_peer[167]  lookupHopsSig:vector  ETV
vector 1500552  Network.dyn_peer[167]  lookupStabilitySig:vector  ETV
vector 1500553  Network.dyn_peer[167]  lookupTimeSig:vector  ETV
vector 1500704  Network.dyn_peer[218]  lookupHopsSig:vector  ETV
vector 1500705  Network.dyn_peer[218]  lookupStabilitySig:vector  ETV
vector 1500706  Network.dyn_peer[218]  lookupTimeSig:vector  ETV
vector 1500458  Network.dyn_peer[136]  lookupHopsSig:vector  ETV
vector 1500459  Network.dyn_peer[136]  lookupStabilitySig:vector  ETV
vector 1500460  Network.dyn_peer[136]  lookupTimeSig:vector  ETV
vector 1500518  Network.dyn_peer[156]  lookupHopsSig:vector  ETV
vector 1500519  Network.dyn_peer[156]  lookupStabilitySig:vector  ETV
vector 1500520  Network.dyn_peer[156]  lookupTimeSig:vector  ETV
vector 1500401  Network.dyn_peer[117]  lookupHopsSig:vector  ETV
vector 1500402  Network.dyn_peer[117]  lookupStabilitySig:vector  ETV
vector 1500403  Network.dyn_peer[117]  lookupTimeSig:vector  ETV
vector 1500701  Network.dyn_peer[217]  lookupHopsSig:vector  ETV
vector 1500702  Network.dyn_peer[217]  lookupStabilitySig:vector  ETV
vector 1500703  Network.dyn_peer[217]  lookupTimeSig:vector  ETV
vector 1500347  Network.dyn_peer[99]  lookupHopsSig:vector  ETV
vector 1500348  Network.dyn_peer[99]  lookupStabilitySig:vector  ETV
vector 1500349  Network.dyn_peer[99]  lookupTimeSig:vector  ETV
vector 1500617  Network.dyn_peer[189]  lookupHopsSig:vector  ETV
vector 1500618  Network.dyn_peer[189]  lookupStabilitySig:vector  ETV
vector 1500619  Network.dyn_peer[189]  lookupTimeSig:vector  ETV
vector 1500677  Network.dyn_peer[209]  lookupHopsSig:vector  ETV
vector 1500678  Network.dyn_peer[209]  lookupStabilitySig:vector  ETV
vector 1500679  Network.dyn_peer[209]  lookupTimeSig:vector  ETV
vector 1500707  Network.dyn_peer[219]  lookupHopsSig:vector  ETV
vector 1500708  Network.dyn_peer[219]  lookupStabilitySig:vector  ETV
vector 1500709  Network.dyn_peer[219]  lookupTimeSig:vector  ETV
vector 1500416  Network.dyn_peer[122]  lookupHopsSig:vector  ETV
vector 1500417  Network.dyn_peer[122]  lookupStabilitySig:vector  ETV