file 5959202 1369933133                                         
version 2
run Stability2-99-20130528-01:56:13-24168
attr configname Stability2
attr datetime 20130528-01:56:13
attr experiment Stability2
attr inifile omnetpp.ini
attr iterationvars $0=500
attr iterationvars2 "$0=500, $repetition=9"
attr measurement $0=500
attr network Network
attr processid 24168
attr repetition 9
attr replication #9
attr resultdir results
attr runnumber 99
attr seedset 99
vector 3000099  Network.churner  inGoingSizeSig:vector  ETV
3000099	5833521 125681 9 918324 20 70 5001 0 2209 6408362 9981826906
vector 2970108  Network.dyn_peer[3]  lookupHopsSig:vector  ETV
2970108	1017867 538 25 1241815 20.04 81.786493744073 17 0 73 440 18916
vector 2970109  Network.dyn_peer[3]  lookupStabilitySig:vector  ETV
2970109	1018405 762 25 1241815 20.04 81.786493744073 17 0.10000002384186 1 14.286965067498 13.215200955249
vector 2970110  Network.dyn_peer[3]  lookupTimeSig:vector  ETV
2970110	1019167 556 25 1241815 20.04 81.786493744073 17 0 7.4 45.6 198.12
vector 2970111  Network.dyn_peer[4]  lookupHopsSig:vector  ETV
2970111	1019723 339 32 1214086 20.05 80.532494200823 11 0 61 240 9678
vector 2970112  Network.dyn_peer[4]  lookupStabilitySig:vector  ETV
2970112	1020062 480 32 1214086 20.05 80.532494200823 11 0.4693877696991 1 9.6603007917293 8.8180244485283
vector 2970113  Network.dyn_peer[4]  lookupTimeSig:vector  ETV
2970113	1020542 352 32 1214086 20.05 80.532494200823 11 0 6.2 25 101.68
vector 2970123  Network.dyn_peer[8]  lookupHopsSig:vector  ETV
2970123	1026773 503 48 960494 20.09 71.323278124696 16 0 73 443 21073
vector 2970124  Network.dyn_peer[8]  lookupStabilitySig:vector  ETV
2970124	1027276 704 48 960494 20.09 71.323278124696 16 0.14285713434219 1 13.766359081492 12.675866504411
vector 2970125  Network.dyn_peer[8]  lookupTimeSig:vector  ETV
2970125	1027980 517 48 960494 20.09 71.323278124696 16 0 7.4 45.8 219.74
vector 2970099  Network.dyn_peer[0]  lookupHopsSig:vector  ETV
2970099	1012125 574 57 1271974 20.11 83.242539787628 18 1 100 485 23805
vector 2970100  Network.dyn_peer[0]  lookupStabilitySig:vector  ETV
2970100	1012699 830 57 1271974 20.11 83.242539787628 18 0.42857140302658 0.99395770393312 15.592352291569 14.076545837559
vector 2970101  Network.dyn_peer[0]  lookupTimeSig:vector  ETV
2970101	1013529 597 57 1271974 20.11 83.242539787628 18 0.1 10.1 50.2 247.9
vector 2970102  Network.dyn_peer[1]  lookupHopsSig:vector  ETV
2970102	1014126 476 65 667033 20.12 61.734770358398 15 1 55 280 8610
vector 2970103  Network.dyn_peer[1]  lookupStabilitySig:vector  ETV
2970103	1014602 690 65 667033 20.12 61.734770358398 15 0.31999999284744 0.99628942483105 12.797967827646 11.621395175536
vector 2970104  Network.dyn_peer[1]  lookupTimeSig:vector  ETV
2970104	1015292 492 65 667033 20.12 61.734770358398 15 0.1 5.6 29.4 91.82
vector 2970132  Network.dyn_peer[11]  lookupHopsSig:vector  ETV
2970132	1032095 538 71 1056847 20.12 74.488311203985 17 0 58 402 15220
vector 2970133  Network.dyn_peer[11]  lookupStabilitySig:vector  ETV
2970133	1032633 765 71 1056847 20.12 74.488311203985 17 0.18181818723679 1 14.522657126654 13.324029100416
vector 2970134  Network.dyn_peer[11]  lookupTimeSig:vector  ETV
2970134	1033398 554 71 1056847 20.12 74.488311203985 17 0 5.9 41.8 160.4
vector 2970105  Network.dyn_peer[2]  lookupHopsSig:vector  ETV
2970105	1015784 600 78 1222987 20.13 80.928258612064 19 1 60 380 13324
vector 2970106  Network.dyn_peer[2]  lookupStabilitySig:vector  ETV
2970106	1016384 858 78 1222987 20.13 80.928258612064 19 0 0.99198798183352 16.48283228185 15.267725583994
vector 2970107  Network.dyn_peer[2]  lookupTimeSig:vector  ETV
2970107	1017242 625 78 1222987 20.13 80.928258612064 19 0.1 6.1 39.8 141
vector 2970129  Network.dyn_peer[10]  lookupHopsSig:vector  ETV
2970129	1030001 602 115 1243123 20.21 81.845932492621 19 1 86 462 23700
vector 2970130  Network.dyn_peer[10]  lookupStabilitySig:vector  ETV
2970130	1030603 863 115 1243123 20.21 81.845932492621 19 0.28571426868439 0.99604743067175 16.50284902798 15.10164773538
vector 2970131  Network.dyn_peer[10]  lookupTimeSig:vector  ETV
2970131	1031466 629 115 1243123 20.21 81.845932492621 19 0.1 8.7 48 246.4
vector 2970117  Network.dyn_peer[6]  lookupHopsSig:vector  ETV
2970117	1022675 610 151 1396047 20.27 91.253985468697 19 2 96 588 30454
vector 2970118  Network.dyn_peer[6]  lookupStabilitySig:vector  ETV
2970118	1023285 878 151 1396047 20.27 91.253985468697 19 0.59999999403954 0.99356775311753 16.999452295247 15.589433278224
vector 2970119  Network.dyn_peer[6]  lookupTimeSig:vector  ETV
2970119	1024163 632 151 1396047 20.27 91.253985468697 19 0.2 9.7 60.6 316.44
vector 2970120  Network.dyn_peer[7]  lookupHopsSig:vector  ETV
2970120	1024795 567 160 1280464 20.28 83.674719738398 18 2 85 489 24709
vector 2970121  Network.dyn_peer[7]  lookupStabilitySig:vector  ETV
2970121	1025362 821 160 1280464 20.28 83.674719738398 18 0.33333331346512 0.99023314472288 15.185071580112 13.494468125185
vector 2970122  Network.dyn_peer[7]  lookupTimeSig:vector  ETV
2970122	1026183 590 160 1280464 20.28 83.674719738398 18 0.2 8.6 50.6 257
vector 2970159  Network.dyn_peer[20]  lookupHopsSig:vector  ETV
2970159	1045873 535 180 923188 20.31 70.151441841443 17 1 59 364 12350
vector 2970160  Network.dyn_peer[20]  lookupStabilitySig:vector  ETV
2970160	1046408 767 180 923188 20.31 70.151441841443 17 -0.125 0.99699248117395 14.527220937191 13.611657881091
vector 2970161  Network.dyn_peer[20]  lookupTimeSig:vector  ETV
2970161	1047175 549 180 923188 20.31 70.151441841443 17 0.1 6 38 130.92
vector 2970114  Network.dyn_peer[5]  lookupHopsSig:vector  ETV
2970114	1020894 513 214 1044531 20.36 74.066472335905 16 3 92 486 23708
vector 2970115  Network.dyn_peer[5]  lookupStabilitySig:vector  ETV
2970115	1021407 739 214 1044531 20.36 74.066472335905 16 -0.10000002384186 0.99491180479527 13.453034988604 12.650504359533
vector 2970116  Network.dyn_peer[5]  lookupTimeSig:vector  ETV
2970116	1022146 529 214 1044531 20.36 74.066472335905 16 0.3 9.3 50.1 246.89
vector 2970177  Network.dyn_peer[26]  lookupHopsSig:vector  ETV
2970177	1057089 536 224 1361339 20.37 88.522078690016 17 1 105 478 27540
vector 2970178  Network.dyn_peer[26]  lookupStabilitySig:vector  ETV
2970178	1057625 767 224 1361339 20.37 88.522078690016 17 0.19999998807907 0.99689119169489 14.601206458174 13.156864731355
vector 2970179  Network.dyn_peer[26]  lookupTimeSig:vector  ETV
2970179	1058392 558 224 1361339 20.37 88.522078690016 17 0.1 10.6 49.4 285.1
vector 2970183  Network.dyn_peer[28]  lookupHopsSig:vector  ETV
2970183	1060357 267 240 436232 20.39 52.81644270275 9 1 71 218 10246
vector 2970184  Network.dyn_peer[28]  lookupStabilitySig:vector  ETV
2970184	1060624 384 240 436232 20.39 52.81644270275 9 0.25 0.95652173832059 7.1467082537711 6.0993275138884
vector 2970185  Network.dyn_peer[28]  lookupTimeSig:vector  ETV
2970185	1061008 278 240 436232 20.39 52.81644270275 9 0.1 7.2 22.6 106.88
vector 2970126  Network.dyn_peer[9]  lookupHopsSig:vector  ETV
2970126	1028497 433 250 436984 20.4 52.849824271473 14 2 38 214 4676
vector 2970127  Network.dyn_peer[9]  lookupStabilitySig:vector  ETV
2970127	1028930 619 250 436984 20.4 52.849824271473 14 0 0.98899755533785 11.320697252639 10.183735664068
vector 2970128  Network.dyn_peer[9]  lookupTimeSig:vector  ETV
2970128	1029549 452 250 436984 20.4 52.849824271473 14 0.3 3.9 22.7 51.11
vector 2970162  Network.dyn_peer[21]  lookupHopsSig:vector  ETV
2970162	1047724 317 269 1230925 20.42 81.285928467325 10 2 122 297 21321
vector 2970163  Network.dyn_peer[21]  lookupStabilitySig:vector  ETV
2970163	1048041 458 269 1230925 20.42 81.285928467325 10 0.28571426868439 0.99035087693483 7.8220437811688 6.6816151856965
vector 2970164  Network.dyn_peer[21]  lookupTimeSig:vector  ETV
2970164	1048499 329 269 1230925 20.42 81.285928467325 10 0.2 12.3 30.6 219.2
vector 2970144  Network.dyn_peer[15]  lookupHopsSig:vector  ETV
2970144	1037842 536 306 855742 20.46 68.041334594863 17 2 66 321 10121
vector 2970145  Network.dyn_peer[15]  lookupStabilitySig:vector  ETV
2970145	1038378 779 306 855742 20.46 68.041334594863 17 0.38888889551163 0.99548702500761 14.68688062951 13.323968530373
vector 2970146  Network.dyn_peer[15]  lookupTimeSig:vector  ETV
2970146	1039157 556 306 855742 20.46 68.041334594863 17 0.3 6.7 33.7 107.73
vector 2970150  Network.dyn_peer[17]  lookupHopsSig:vector  ETV
2970150	1041135 383 325 1402800 20.48 91.856263883234 12 3 111 462 29156
vector 2970151  Network.dyn_peer[17]  lookupStabilitySig:vector  ETV
2970151	1041518 551 325 1402800 20.48 91.856263883234 12 0.14285713434219 0.99215189833194 10.031871779822 9.2318626771925
vector 2970152  Network.dyn_peer[17]  lookupTimeSig:vector  ETV
2970152	1042069 395 325 1402800 20.48 91.856263883234 12 0.3 11.2 47.3 300.85
vector 2970180  Network.dyn_peer[27]  lookupHopsSig:vector  ETV
2970180	1058950 401 329 764318 20.48 65.074993674951 13 1 85 226 9682
vector 2970181  Network.dyn_peer[27]  lookupStabilitySig:vector  ETV
2970181	1059351 587 329 764318 20.48 65.074993674951 13 0.36363637447357 0.99261213699356 10.982890284155 9.7193674013455
vector 2970182  Network.dyn_peer[27]  lookupTimeSig:vector  ETV
2970182	1059938 419 329 764318 20.48 65.074993674951 13 0.2 8.6 23.8 101.42
vector 2970153  Network.dyn_peer[18]  lookupHopsSig:vector  ETV
2970153	1042464 472 341 1013163 20.49 73.017594705946 15 3 53 310 9616
vector 2970154  Network.dyn_peer[18]  lookupStabilitySig:vector  ETV
2970154	1042936 686 341 1013163 20.49 73.017594705946 15 0.28571426868439 0.9955307263881 12.559462835081 11.296887646736
vector 2970155  Network.dyn_peer[18]  lookupTimeSig:vector  ETV
2970155	1043622 489 341 1013163 20.49 73.017594705946 15 0.3 5.4 32.4 102.44
vector 2970138  Network.dyn_peer[13]  lookupHopsSig:vector  ETV
2970138	1034574 607 386 1274018 20.54 83.345988736409 19 2 89 585 28801
vector 2970139  Network.dyn_peer[13]  lookupStabilitySig:vector  ETV
2970139	1035181 866 386 1274018 20.54 83.345988736409 19 0.19999998807907 0.99442453216761 16.279881225899 14.764616286979
vector 2970140  Network.dyn_peer[13]  lookupTimeSig:vector  ETV
2970140	1036047 627 386 1274018 20.54 83.345988736409 19 0.3 9 60.3 299.81
vector 2970141  Network.dyn_peer[14]  lookupHopsSig:vector  ETV
2970141	1036674 331 399 214767 20.55 42.0076037802 11 4 42 150 3462
vector 2970142  Network.dyn_peer[14]  lookupStabilitySig:vector  ETV
2970142	1037005 490 399 214767 20.55 42.0076037802 11 0.19999998807907 0.98917322792113 8.4540937785059 7.2108939409196
vector 2970143  Network.dyn_peer[14]  lookupTimeSig:vector  ETV
2970143	1037495 347 399 214767 20.55 42.0076037802 11 0.4 4.3 16 37.64
vector 2970270  Network.dyn_peer[57]  lookupHopsSig:vector  ETV
2970270	1108378 506 435 955940 20.58 71.179455417817 16 0 78 299 12361
vector 2970271  Network.dyn_peer[57]  lookupStabilitySig:vector  ETV
2970271	1108884 706 435 955940 20.58 71.179455417817 16 0.25 1 14.436913716956 13.564530094456
vector 2970272  Network.dyn_peer[57]  lookupTimeSig:vector  ETV
2970272	1109590 526 435 955940 20.58 71.179455417817 16 0 7.9 31.4 129.74
vector 2970156  Network.dyn_peer[19]  lookupHopsSig:vector  ETV
2970156	1044111 512 457 927459 20.6 70.28685656255 16 3 57 327 11767
vector 2970157  Network.dyn_peer[19]  lookupStabilitySig:vector  ETV
2970157	1044623 716 457 927459 20.6 70.28685656255 16 0.33333331346512 0.99521739128977 13.852708845399 12.624382755678
vector 2970158  Network.dyn_peer[19]  lookupTimeSig:vector  ETV
2970158	1045339 534 457 927459 20.6 70.28685656255 16 0.4 5.8 34.2 124.28
vector 2970186  Network.dyn_peer[29]  lookupHopsSig:vector  ETV
2970186	1061286 204 461 607387 20.6 59.585612156605 7 1 96 194 12094
vector 2970187  Network.dyn_peer[29]  lookupStabilitySig:vector  ETV
2970187	1061490 291 461 607387 20.6 59.585612156605 7 0.44444441795349 0.98141086660326 5.4222648479045 4.5036654399541
vector 2970188  Network.dyn_peer[29]  lookupTimeSig:vector  ETV
2970188	1061781 210 461 607387 20.6 59.585612156605 7 0.2 9.7 20 124.82
vector 2970189  Network.dyn_peer[30]  lookupHopsSig:vector  ETV
2970189	1061991 473 474 961136 20.61 71.343461892766 15 3 97 467 24665
vector 2970190  Network.dyn_peer[30]  lookupStabilitySig:vector  ETV
2970190	1062464 673 474 961136 20.61 71.343461892766 15 0.090909063816071 0.98912133928388 12.544979832135 11.326916995296
vector 2970191  Network.dyn_peer[30]  lookupTimeSig:vector  ETV
2970191	1063137 489 474 961136 20.61 71.343461892766 15 0.3 9.8 48.1 256.07
vector 2970198  Network.dyn_peer[33]  lookupHopsSig:vector  ETV
2970198	1067599 431 512 342235 20.64 48.648403261035 14 1 42 199 4891
vector 2970199  Network.dyn_peer[33]  lookupStabilitySig:vector  ETV
2970199	1068030 621 512 342235 20.64 48.648403261035 14 0.42857140302658 0.98780487850308 11.978706469759 10.772010573701
vector 2970200  Network.dyn_peer[33]  lookupTimeSig:vector  ETV
2970200	1068651 450 512 342235 20.64 48.648403261035 14 0.2 4.3 21.2 52.96
vector 2970174  Network.dyn_peer[25]  lookupHopsSig:vector  ETV
2970174	1055196 549 534 1363877 20.66 88.705870012335 17 4 96 519 23309
vector 2970175  Network.dyn_peer[25]  lookupStabilitySig:vector  ETV
2970175	1055745 778 534 1363877 20.66 88.705870012335 17 0.28571426868439 0.99793174769729 14.906645348296 13.846703495132
vector 2970176  Network.dyn_peer[25]  lookupTimeSig:vector  ETV
2970176	1056523 566 534 1363877 20.66 88.705870012335 17 0.4 9.7 53.5 243.55
vector 2970207  Network.dyn_peer[36]  lookupHopsSig:vector  ETV
2970207	1072540 647 549 1304473 20.67 84.949019749117 20 3 82 510 20518
vector 2970208  Network.dyn_peer[36]  lookupStabilitySig:vector  ETV
2970208	1073187 915 549 1304473 20.67 84.949019749117 20 0.16666668653488 0.99558498896658 17.885501994286 16.793441382886
vector 2970209  Network.dyn_peer[36]  lookupTimeSig:vector  ETV
2970209	1074102 666 549 1304473 20.67 84.949019749117 20 0.3 8.3 52.9 215.51
vector 2970237  Network.dyn_peer[46]  lookupHopsSig:vector  ETV
2970237	1089286 271 553 806551 20.67 66.469278595323 9 2 69 245 10819
vector 2970238  Network.dyn_peer[46]  lookupStabilitySig:vector  ETV
2970238	1089557 399 553 806551 20.67 66.469278595323 9 0.31818181276321 0.98165548034012 7.4272973183542 6.5089125083431
vector 2970239  Network.dyn_peer[46]  lookupTimeSig:vector  ETV
2970239	1089956 279 553 806551 20.67 66.469278595323 9 0.2 7 25.3 113.13
vector 2970216  Network.dyn_peer[39]  lookupHopsSig:vector  ETV
2970216	1077510 501 586 1439974 20.7 95.77612422625 16 2 72 437 21831
vector 2970217  Network.dyn_peer[39]  lookupStabilitySig:vector  ETV
2970217	1078011 716 586 1439974 20.7 95.77612422625 16 0.5 0.99675675667822 14.029728844296 12.776243042429
vector 2970218  Network.dyn_peer[39]  lookupTimeSig:vector  ETV
2970218	1078727 517 586 1439974 20.7 95.77612422625 16 0.3 7.3 45.2 227.14
vector 2970264  Network.dyn_peer[55]  lookupHopsSig:vector  ETV
2970264	1105178 341 652 1474482 20.76 101.193849405084 11 2 177 336 35564
vector 2970265  Network.dyn_peer[55]  lookupStabilitySig:vector  ETV
2970265	1105519 498 652 1474482 20.76 101.193849405084 11 0.36842107772827 0.99285714281723 9.3832403873093 8.352954949798
vector 2970266  Network.dyn_peer[55]  lookupTimeSig:vector  ETV
2970266	1106017 356 652 1474482 20.76 101.193849405084 11 0.2 17.8 34.6 362.42
vector 2970192  Network.dyn_peer[31]  lookupHopsSig:vector  ETV
2970192	1063626 701 729 1076317 20.82 75.16159639695 22 1 63 456 17652
vector 2970193  Network.dyn_peer[31]  lookupStabilitySig:vector  ETV
2970193	1064327 1014 729 1076317 20.82 75.16159639695 22 0.28571426868439 0.99771428573877 19.567670000717 18.182207487298
vector 2970194  Network.dyn_peer[31]  lookupTimeSig:vector  ETV
2970194	1065341 733 729 1076317 20.82 75.16159639695 22 0.2 6.4 47.7 185.75
vector 2970165  Network.dyn_peer[22]  lookupHopsSig:vector  ETV
2970165	1048828 739 747 1303801 20.83 84.912542385068 23 2 53 470 13916
vector 2970166  Network.dyn_peer[22]  lookupStabilitySig:vector  ETV
2970166	1049567 1053 747 1303801 20.83 84.912542385068 23 0.14285713434219 0.99339388916269 20.418248013128 18.976613429778
vector 2970167  Network.dyn_peer[22]  lookupTimeSig:vector  ETV
2970167	1050620 768 747 1303801 20.83 84.912542385068 23 0.3 5.4 49.2 148.66
vector 2970195  Network.dyn_peer[32]  lookupHopsSig:vector  ETV
2970195	1066074 441 751 814767 20.83 66.732019710847 14 3 157 402 32066
vector 2970196  Network.dyn_peer[32]  lookupStabilitySig:vector  ETV
2970196	1066515 628 751 814767 20.83 66.732019710847 14 0.28571426868439 0.99223602470011 12.014008817263 10.862356803005
vector 2970197  Network.dyn_peer[32]  lookupTimeSig:vector  ETV
2970197	1067143 456 751 814767 20.83 66.732019710847 14 0.4 15.8 41.5 328.73
vector 2970168  Network.dyn_peer[23]  lookupHopsSig:vector  ETV
2970168	1051388 617 766 1201945 20.84 80.004378550446 19 2 104 406 19054
vector 2970169  Network.dyn_peer[23]  lookupStabilitySig:vector  ETV
2970169	1052005 887 766 1201945 20.84 80.004378550446 19 0.14285713434219 0.99873737373855 16.986735591898 16.093489456111
vector 2970170  Network.dyn_peer[23]  lookupTimeSig:vector  ETV
2970170	1052892 639 766 1201945 20.84 80.004378550446 19 0.3 10.5 42.4 198.72
vector 2970204  Network.dyn_peer[35]  lookupHopsSig:vector  ETV
2970204	1070891 473 793 1000530 20.86 72.603499585542 15 1 57 360 14082
vector 2970205  Network.dyn_peer[35]  lookupStabilitySig:vector  ETV
2970205	1071364 686 793 1000530 20.86 72.603499585542 15 0.28571426868439 0.99508489714935 12.989874377381 11.910117177186
vector 2970206  Network.dyn_peer[35]  lookupTimeSig:vector  ETV
2970206	1072050 490 793 1000530 20.86 72.603499585542 15 0.2 5.8 37.4 148.06
vector 2970213  Network.dyn_peer[38]  lookupHopsSig:vector  ETV
2970213	1076322 343 833 428683 20.89 52.49136318369 11 5 31 212 4944
vector 2970214  Network.dyn_peer[38]  lookupStabilitySig:vector  ETV
2970214	1076665 499 833 428683 20.89 52.49136318369 11 0.28571426868439 0.99443069286644 9.1070773215033 8.1595857276808
vector 2970215  Network.dyn_peer[38]  lookupTimeSig:vector  ETV
2970215	1077164 346 833 428683 20.89 52.49136318369 11 0.5 3.2 22.2 53.68
vector 2970219  Network.dyn_peer[40]  lookupHopsSig:vector  ETV
2970219	1079244 467 860 833840 20.91 67.346445785352 15 1 48 250 7416
vector 2970220  Network.dyn_peer[40]  lookupStabilitySig:vector  ETV
2970220	1079711 681 860 833840 20.91 67.346445785352 15 0.28571426868439 0.99694323143922 13.000832720893 11.951407460301
vector 2970221  Network.dyn_peer[40]  lookupTimeSig:vector  ETV
2970221	1080392 489 860 833840 20.91 67.346445785352 15 0.2 4.9 26.4 79.2
vector 2970249  Network.dyn_peer[50]  lookupHopsSig:vector  ETV
2970249	1094601 823 864 1504638 20.91 112.066007721266 25 2 66 476 15600
vector 2970250  Network.dyn_peer[50]  lookupStabilitySig:vector  ETV
2970250	1095424 1178 864 1504638 20.91 112.066007721266 25 0.42857140302658 0.99959324792144 23.085225995717 21.943838195183
vector 2970251  Network.dyn_peer[50]  lookupTimeSig:vector  ETV
2970251	1096602 854 864 1504638 20.91 112.066007721266 25 0.3 6.7 50 165.68
vector 2970285  Network.dyn_peer[62]  lookupHopsSig:vector  ETV
2970285	1119429 515 896 1071517 20.93 74.997982913469 16 3 62 438 15386
vector 2970286  Network.dyn_peer[62]  lookupStabilitySig:vector  ETV
2970286	1119944 740 896 1071517 20.93 74.997982913469 16 0.44444441795349 0.99652668135241 14.431076160166 13.416217995615
vector 2970287  Network.dyn_peer[62]  lookupTimeSig:vector  ETV
2970287	1120684 531 896 1071517 20.93 74.997982913469 16 0.3 6.3 45.3 162.71
vector 2970258  Network.dyn_peer[53]  lookupHopsSig:vector  ETV
2970258	1100972 610 912 1232508 20.94 81.356523251183 19 2 72 436 17598
vector 2970259  Network.dyn_peer[53]  lookupStabilitySig:vector  ETV
2970259	1101582 847 912 1232508 20.94 81.356523251183 19 0.42857140302658 0.9978456015233 17.048668432049 15.700380002945
vector 2970260  Network.dyn_peer[53]  lookupTimeSig:vector  ETV
2970260	1102429 633 912 1232508 20.94 81.356523251183 19 0.3 7.3 45.4 184.8
vector 2970294  Network.dyn_peer[65]  lookupHopsSig:vector  ETV
2970294	1125792 508 940 1286125 20.96 83.967109723575 16 1 114 448 27206
vector 2970295  Network.dyn_peer[65]  lookupStabilitySig:vector  ETV
2970295	1126300 733 940 1286125 20.96 83.967109723575 16 0.4736841917038 0.99601593613625 14.446806079708 13.396398497023
vector 2970296  Network.dyn_peer[65]  lookupTimeSig:vector  ETV
2970296	1127033 529 940 1286125 20.96 83.967109723575 16 0.2 11.5 46.3 281.11
vector 2970354  Network.dyn_peer[85]  lookupHopsSig:vector  ETV
2970354	1160599 481 944 1358032 20.96 88.285471522713 15 1 58 380 13966
vector 2970355  Network.dyn_peer[85]  lookupStabilitySig:vector  ETV
2970355	1161080 692 944 1358032 20.96 88.285471522713 15 0.46666663885117 0.99769888236187 13.603897546651 12.661092809695
vector 2970356  Network.dyn_peer[85]  lookupTimeSig:vector  ETV
2970356	1161772 500 944 1358032 20.96 88.285471522713 15 0.1 5.9 39.4 147.38
vector 2970147  Network.dyn_peer[16]  lookupHopsSig:vector  ETV
2970147	1039713 410 962 706199 20.97 63.099973127917 13 7 42 299 8701
vector 2970148  Network.dyn_peer[16]  lookupStabilitySig:vector  ETV
2970148	1040123 595 962 706199 20.97 63.099973127917 13 -0.14285719394684 0.99275053292513 10.806978437118 10.299997545278
vector 2970149  Network.dyn_peer[16]  lookupTimeSig:vector  ETV
2970149	1040718 417 962 706199 20.97 63.099973127917 13 0.8 4.3 31.1 92.95
vector 2970327  Network.dyn_peer[76]  lookupHopsSig:vector  ETV
2970327	1144032 540 966 836929 20.97 67.443977658847 17 1 49 341 10359
vector 2970328  Network.dyn_peer[76]  lookupStabilitySig:vector  ETV
2970328	1144572 768 966 836929 20.97 67.443977658847 17 0.63793104887009 0.99062499962747 15.42101231683 14.167436653911
vector 2970329  Network.dyn_peer[76]  lookupTimeSig:vector  ETV
2970329	1145340 557 966 836929 20.97 67.443977658847 17 0.2 5 35.7 110.53
vector 2970240  Network.dyn_peer[47]  lookupHopsSig:vector  ETV
2970240	1090235 410 981 700544 20.98 62.902473789722 13 4 79 375 17715
vector 2970241  Network.dyn_peer[47]  lookupStabilitySig:vector  ETV
2970241	1090645 581 981 700544 20.98 62.902473789722 13 0.28571426868439 0.98946259263903 10.910577537492 9.6968020332751
vector 2970242  Network.dyn_peer[47]  lookupTimeSig:vector  ETV
2970242	1091226 422 981 700544 20.98 62.902473789722 13 0.5 8 38.7 184.67
vector 2970336  Network.dyn_peer[79]  lookupHopsSig:vector  ETV
2970336	1150207 440 1010 985174 21 72.10835632046 14 2 87 361 15345
vector 2970337  Network.dyn_peer[79]  lookupStabilitySig:vector  ETV
2970337	1150647 636 1010 985174 21 72.10835632046 14 0.46428573131561 0.99416228849441 12.601931286044 11.65584211128
vector 2970338  Network.dyn_peer[79]  lookupTimeSig:vector  ETV
2970338	1151283 456 1010 985174 21 72.10835632046 14 0.2 8.8 37.4 160.76
vector 2970135  Network.dyn_peer[12]  lookupHopsSig:vector  ETV
2970135	1033952 177 1059 807484 21.03 66.499655076034 6 4 39 126 3616
vector 2970136  Network.dyn_peer[12]  lookupStabilitySig:vector  ETV
2970136	1034129 264 1059 807484 21.03 66.499655076034 6 -0.28571426868439 0.99338061455637 4.0563140483573 4.0065092617521
vector 2970137  Network.dyn_peer[12]  lookupTimeSig:vector  ETV
2970137	1034393 181 1059 807484 21.03 66.499655076034 6 0.5 4 13.1 38.55
vector 2970348  Network.dyn_peer[83]  lookupHopsSig:vector  ETV
2970348	1157069 503 1077 972829 21.04 71.715554824928 16 2 148 419 30559
vector 2970349  Network.dyn_peer[83]  lookupStabilitySig:vector  ETV
2970349	1157572 729 1077 972829 21.04 71.715554824928 16 0.59999999403954 0.99725839612074 14.393917414593 13.179233213814
vector 2970350  Network.dyn_peer[83]  lookupTimeSig:vector  ETV
2970350	1158301 526 1077 972829 21.04 71.715554824928 16 0.2 14.9 43.4 314.08
vector 2970321  Network.dyn_peer[74]  lookupHopsSig:vector  ETV
2970321	1140362 516 1096 1170381 21.05 78.691401519627 16 3 71 415 16845
vector 2970322  Network.dyn_peer[74]  lookupStabilitySig:vector  ETV
2970322	1140878 728 1096 1170381 21.05 78.691401519627 16 0.5 0.99537179898471 14.394038265571 13.304355337772
vector 2970323  Network.dyn_peer[74]  lookupTimeSig:vector  ETV
2970323	1141606 534 1096 1170381 21.05 78.691401519627 16 0.3 7.2 43 176.84
vector 2970234  Network.dyn_peer[45]  lookupHopsSig:vector  ETV
2970234	1087170 608 1114 1101632 21.06 76.066695340664 19 3 70 467 19021
vector 2970235  Network.dyn_peer[45]  lookupStabilitySig:vector  ETV
2970235	1087778 876 1114 1101632 21.06 76.066695340664 19 0.14285713434219 0.99283154122531 16.618807222694 15.298326116329
vector 2970236  Network.dyn_peer[45]  lookupTimeSig:vector  ETV
2970236	1088654 632 1114 1101632 21.06 76.066695340664 19 0.4 7.1 48.5 199.61
vector 2970210  Network.dyn_peer[37]  lookupHopsSig:vector  ETV
2970210	1074768 451 1145 1391075 21.08 90.828640496173 14 2 38 277 7269
vector 2970211  Network.dyn_peer[37]  lookupStabilitySig:vector  ETV
2970211	1075219 636 1145 1391075 21.08 90.828640496173 14 0 0.99795201863162 12.03898244095 11.336313421736
vector 2970212  Network.dyn_peer[37]  lookupTimeSig:vector  ETV
2970212	1075855 467 1145 1391075 21.08 90.828640496173 14 0.3 3.9 29 78.22
vector 2970276  Network.dyn_peer[59]  lookupHopsSig:vector  ETV
2970276	1112728 569 1178 1306639 21.1 85.068394327421 18 1 54 325 11189
vector 2970277  Network.dyn_peer[59]  lookupStabilitySig:vector  ETV
2970277	1113297 814 1178 1306639 21.1 85.068394327421 18 0.28571426868439 0.9990817263606 16.105259379081 14.896522061643
vector 2970278  Network.dyn_peer[59]  lookupTimeSig:vector  ETV
2970278	1114111 594 1178 1306639 21.1 85.068394327421 18 0.2 5.5 34.2 118.46
vector 2970252  Network.dyn_peer[51]  lookupHopsSig:vector  ETV
2970252	1097456 506 1211 745417 21.12 64.442368423454 16 3 42 287 7495
vector 2970253  Network.dyn_peer[51]  lookupStabilitySig:vector  ETV
2970253	1097962 722 1211 745417 21.12 64.442368423454 16 0.14285713434219 0.9965050239116 14.047061213292 13.099770978137
vector 2970254  Network.dyn_peer[51]  lookupTimeSig:vector  ETV
2970254	1098684 525 1211 745417 21.12 64.442368423454 16 0.4 4.3 30.2 80.72
vector 2970291  Network.dyn_peer[64]  lookupHopsSig:vector  ETV
2970291	1123102 773 1264 1375360 21.15 89.565339166599 24 1 62 495 17349
vector 2970292  Network.dyn_peer[64]  lookupStabilitySig:vector  ETV
2970292	1123875 1115 1264 1375360 21.15 89.565339166599 24 0.28571426868439 0.99664429528639 21.848765627015 20.44667204796
vector 2970293  Network.dyn_peer[64]  lookupTimeSig:vector  ETV
2970293	1124990 802 1264 1375360 21.15 89.565339166599 24 0.2 6.3 51.8 183.52
vector 2970297  Network.dyn_peer[66]  lookupHopsSig:vector  ETV
2970297	1127562 476 1300 1375005 21.17 89.538520438627 15 3 121 520 41980
vector 2970298  Network.dyn_peer[66]  lookupStabilitySig:vector  ETV
2970298	1128038 690 1300 1375005 21.17 89.538520438627 15 0.28571426868439 0.99062499962747 13.043484454043 11.873127186483
vector 2970299  Network.dyn_peer[66]  lookupTimeSig:vector  ETV
2970299	1128728 495 1300 1375005 21.17 89.538520438627 15 0.4 12.2 53.4 430.24
vector 2970333  Network.dyn_peer[78]  lookupHopsSig:vector  ETV
2970333	1147877 678 1334 1101698 21.19 76.06932879809 21 3 40 382 8904
vector 2970334  Network.dyn_peer[78]  lookupStabilitySig:vector  ETV
2970334	1148555 950 1334 1101698 21.19 76.06932879809 21 0.5 0.99383857054636 19.26936676912 18.05087878701
vector 2970335  Network.dyn_peer[78]  lookupTimeSig:vector  ETV
2970335	1149505 702 1334 1101698 21.19 76.06932879809 21 0.4 4.1 40.2 96.8
vector 2970246  Network.dyn_peer[49]  lookupHopsSig:vector  ETV
2970246	1092719 547 1352 1430666 21.2 94.678272784472 17 6 82 594 28960
vector 2970247  Network.dyn_peer[49]  lookupStabilitySig:vector  ETV
2970247	1093266 775 1352 1430666 21.2 94.678272784472 17 0.125 0.99268969008699 15.105305076111 14.219833474654
vector 2970248  Network.dyn_peer[49]  lookupTimeSig:vector  ETV
2970248	1094041 560 1352 1430666 21.2 94.678272784472 17 0.7 8.3 61 301.5
vector 2970282  Network.dyn_peer[61]  lookupHopsSig:vector  ETV
2970282	1117098 675 1385 1177595 21.22 78.9860220138 21 6 60 425 12661
vector 2970283  Network.dyn_peer[61]  lookupStabilitySig:vector  ETV
2970283	1117773 958 1385 1177595 21.22 78.9860220138 21 0.25 0.9973424449563 18.950615829788 17.702368613509
vector 2970284  Network.dyn_peer[61]  lookupTimeSig:vector  ETV
2970284	1118731 698 1385 1177595 21.22 78.9860220138 21 0.6 6.1 44.5 135.19
vector 2970231  Network.dyn_peer[44]  lookupHopsSig:vector  ETV
2970231	1084844 672 1442 1265803 21.25 82.935483756511 21 1 114 516 26906
vector 2970232  Network.dyn_peer[44]  lookupStabilitySig:vector  ETV
2970232	1085516 956 1442 1265803 21.25 82.935483756511 21 0 0.99437570292503 18.945643259212 17.998544776451
vector 2970233  Network.dyn_peer[44]  lookupTimeSig:vector  ETV
2970233	1086472 698 1442 1265803 21.25 82.935483756511 21 0.2 11.5 53.6 279.42
vector 2970261  Network.dyn_peer[54]  lookupHopsSig:vector  ETV
2970261	1103062 611 1446 1053806 21.25 74.382931466631 19 2 58 397 13143
vector 2970262  Network.dyn_peer[54]  lookupStabilitySig:vector  ETV
2970262	1103673 870 1446 1053806 21.25 74.382931466631 19 0.125 0.99689922481775 17.100634384435 16.205239224233
vector 2970263  Network.dyn_peer[54]  lookupTimeSig:vector  ETV
2970263	1104543 635 1446 1053806 21.25 74.382931466631 19 0.3 5.9 41.5 139.41
vector 2970396  Network.dyn_peer[99]  lookupHopsSig:vector  ETV
2970396	1187740 611 1532 1285395 21.3 83.930399504764 19 3 64 440 15204
vector 2970397  Network.dyn_peer[99]  lookupStabilitySig:vector  ETV
2970397	1188351 868 1532 1285395 21.3 83.930399504764 19 0.5769230723381 0.99455651594326 17.47245096555 16.349319561406
vector 2970398  Network.dyn_peer[99]  lookupTimeSig:vector  ETV
2970398	1189219 626 1532 1285395 21.3 83.930399504764 19 0.3 6.5 45.8 160.96
vector 2970486  Network.dyn_peer[129]  lookupHopsSig:vector  ETV
2970486	1239977 435 1539 493720 21.3 55.199922310498 14 0 92 311 16237
vector 2970487  Network.dyn_peer[129]  lookupStabilitySig:vector  ETV
2970487	1240412 622 1539 493720 21.3 55.199922310498 14 0.69230768084526 1 12.775011730846 11.77438758532