version 2
run Stability2-69-20130528-01:32:31-24168
attr configname Stability2
attr datetime 20130528-01:32:31
attr experiment Stability2
attr inifile omnetpp.ini
attr iterationvars $0=200
attr iterationvars2 "$0=200, $repetition=9"
attr measurement $0=200
attr network Network
attr processid 24168
attr repetition 9
attr replication #9
attr resultdir results
attr runnumber 69
attr seedset 69

vector 2100069  Network.churner  inGoingSizeSig:vector  ETV
vector 2070072  Network.dyn_peer[1]  lookupHopsSig:vector  ETV
vector 2070073  Network.dyn_peer[1]  lookupStabilitySig:vector  ETV
vector 2070074  Network.dyn_peer[1]  lookupTimeSig:vector  ETV
vector 2070108  Network.dyn_peer[13]  lookupHopsSig:vector  ETV
vector 2070109  Network.dyn_peer[13]  lookupStabilitySig:vector  ETV
vector 2070110  Network.dyn_peer[13]  lookupTimeSig:vector  ETV
vector 2070081  Network.dyn_peer[4]  lookupHopsSig:vector  ETV
vector 2070082  Network.dyn_peer[4]  lookupStabilitySig:vector  ETV
vector 2070083  Network.dyn_peer[4]  lookupTimeSig:vector  ETV
vector 2070087  Network.dyn_peer[6]  lookupHopsSig:vector  ETV
vector 2070088  Network.dyn_peer[6]  lookupStabilitySig:vector  ETV
vector 2070089  Network.dyn_peer[6]  lookupTimeSig:vector  ETV
vector 2070093  Network.dyn_peer[8]  lookupHopsSig:vector  ETV
vector 2070094  Network.dyn_peer[8]  lookupStabilitySig:vector  ETV
vector 2070095  Network.dyn_peer[8]  lookupTimeSig:vector  ETV
vector 2070099  Network.dyn_peer[10]  lookupHopsSig:vector  ETV
vector 2070100  Network.dyn_peer[10]  lookupStabilitySig:vector  ETV
vector 2070101  Network.dyn_peer[10]  lookupTimeSig:vector  ETV
vector 2070075  Network.dyn_peer[2]  lookupHopsSig:vector  ETV
vector 2070076  Network.dyn_peer[2]  lookupStabilitySig:vector  ETV
vector 2070077  Network.dyn_peer[2]  lookupTimeSig:vector  ETV
vector 2070078  Network.dyn_peer[3]  lookupHopsSig:vector  ETV
vector 2070079  Network.dyn_peer[3]  lookupStabilitySig:vector  ETV
vector 2070080  Network.dyn_peer[3]  lookupTimeSig:vector  ETV
vector 2070111  Network.dyn_peer[14]  lookupHopsSig:vector  ETV
vector 2070112  Network.dyn_peer[14]  lookupStabilitySig:vector  ETV
vector 2070113  Network.dyn_peer[14]  lookupTimeSig:vector  ETV
vector 2070084  Network.dyn_peer[5]  lookupHopsSig:vector  ETV
vector 2070085  Network.dyn_peer[5]  lookupStabilitySig:vector  ETV
vector 2070086  Network.dyn_peer[5]  lookupTimeSig:vector  ETV
vector 2070120  Network.dyn_peer[17]  lookupHopsSig:vector  ETV
vector 2070121  Network.dyn_peer[17]  lookupStabilitySig:vector  ETV
vector 2070122  Network.dyn_peer[17]  lookupTimeSig:vector  ETV
vector 2070123  Network.dyn_peer[18]  lookupHopsSig:vector  ETV
vector 2070124  Network.dyn_peer[18]  lookupStabilitySig:vector  ETV
vector 2070125  Network.dyn_peer[18]  lookupTimeSig:vector  ETV
vector 2070096  Network.dyn_peer[9]  lookupHopsSig:vector  ETV
vector 2070097  Network.dyn_peer[9]  lookupStabilitySig:vector  ETV
vector 2070098  Network.dyn_peer[9]  lookupTimeSig:vector  ETV
vector 2070102  Network.dyn_peer[11]  lookupHopsSig:vector  ETV
vector 2070103  Network.dyn_peer[11]  lookupStabilitySig:vector  ETV
vector 2070104  Network.dyn_peer[11]  lookupTimeSig:vector  ETV
vector 2070117  Network.dyn_peer[16]  lookupHopsSig:vector  ETV
vector 2070118  Network.dyn_peer[16]  lookupStabilitySig:vector  ETV
vector 2070119  Network.dyn_peer[16]  lookupTimeSig:vector  ETV
vector 2070126  Network.dyn_peer[19]  lookupHopsSig:vector  ETV
vector 2070127  Network.dyn_peer[19]  lookupStabilitySig:vector  ETV
vector 2070128  Network.dyn_peer[19]  lookupTimeSig:vector  ETV
vector 2070156  Network.dyn_peer[29]  lookupHopsSig:vector  ETV
vector 2070157  Network.dyn_peer[29]  lookupStabilitySig:vector  ETV
vector 2070158  Network.dyn_peer[29]  lookupTimeSig:vector  ETV
vector 2070132  Network.dyn_peer[21]  lookupHopsSig:vector  ETV
vector 2070133  Network.dyn_peer[21]  lookupStabilitySig:vector  ETV
vector 2070134  Network.dyn_peer[21]  lookupTimeSig:vector  ETV
vector 2070138  Network.dyn_peer[23]  lookupHopsSig:vector  ETV
vector 2070139  Network.dyn_peer[23]  lookupStabilitySig:vector  ETV
vector 2070140  Network.dyn_peer[23]  lookupTimeSig:vector  ETV
vector 2070141  Network.dyn_peer[24]  lookupHopsSig:vector  ETV
vector 2070142  Network.dyn_peer[24]  lookupStabilitySig:vector  ETV
vector 2070143  Network.dyn_peer[24]  lookupTimeSig:vector  ETV
vector 2070171  Network.dyn_peer[34]  lookupHopsSig:vector  ETV
vector 2070172  Network.dyn_peer[34]  lookupStabilitySig:vector  ETV
vector 2070173  Network.dyn_peer[34]  lookupTimeSig:vector  ETV
vector 2070147  Network.dyn_peer[26]  lookupHopsSig:vector  ETV
vector 2070148  Network.dyn_peer[26]  lookupStabilitySig:vector  ETV
vector 2070149  Network.dyn_peer[26]  lookupTimeSig:vector  ETV
vector 2070090  Network.dyn_peer[7]  lookupHopsSig:vector  ETV
vector 2070091  Network.dyn_peer[7]  lookupStabilitySig:vector  ETV
vector 2070092  Network.dyn_peer[7]  lookupTimeSig:vector  ETV
vector 2070210  Network.dyn_peer[47]  lookupHopsSig:vector  ETV
vector 2070211  Network.dyn_peer[47]  lookupStabilitySig:vector  ETV
vector 2070212  Network.dyn_peer[47]  lookupTimeSig:vector  ETV
vector 2070129  Network.dyn_peer[20]  lookupHopsSig:vector  ETV
vector 2070130  Network.dyn_peer[20]  lookupStabilitySig:vector  ETV
vector 2070131  Network.dyn_peer[20]  lookupTimeSig:vector  ETV
vector 2070135  Network.dyn_peer[22]  lookupHopsSig:vector  ETV
vector 2070136  Network.dyn_peer[22]  lookupStabilitySig:vector  ETV
vector 2070137  Network.dyn_peer[22]  lookupTimeSig:vector  ETV
vector 2070165  Network.dyn_peer[32]  lookupHopsSig:vector  ETV
vector 2070166  Network.dyn_peer[32]  lookupStabilitySig:vector  ETV
vector 2070167  Network.dyn_peer[32]  lookupTimeSig:vector  ETV
vector 2070114  Network.dyn_peer[15]  lookupHopsSig:vector  ETV
vector 2070115  Network.dyn_peer[15]  lookupStabilitySig:vector  ETV
vector 2070116  Network.dyn_peer[15]  lookupTimeSig:vector  ETV
vector 2070183  Network.dyn_peer[38]  lookupHopsSig:vector  ETV
vector 2070184  Network.dyn_peer[38]  lookupStabilitySig:vector  ETV
vector 2070185  Network.dyn_peer[38]  lookupTimeSig:vector  ETV
vector 2070237  Network.dyn_peer[56]  lookupHopsSig:vector  ETV
vector 2070238  Network.dyn_peer[56]  lookupStabilitySig:vector  ETV
vector 2070239  Network.dyn_peer[56]  lookupTimeSig:vector  ETV
vector 2070150  Network.dyn_peer[27]  lookupHopsSig:vector  ETV
vector 2070151  Network.dyn_peer[27]  lookupStabilitySig:vector  ETV
vector 2070152  Network.dyn_peer[27]  lookupTimeSig:vector  ETV
vector 2070159  Network.dyn_peer[30]  lookupHopsSig:vector  ETV
vector 2070160  Network.dyn_peer[30]  lookupStabilitySig:vector  ETV
vector 2070161  Network.dyn_peer[30]  lookupTimeSig:vector  ETV
vector 2070189  Network.dyn_peer[40]  lookupHopsSig:vector  ETV
vector 2070190  Network.dyn_peer[40]  lookupStabilitySig:vector  ETV
vector 2070191  Network.dyn_peer[40]  lookupTimeSig:vector  ETV
vector 2070222  Network.dyn_peer[51]  lookupHopsSig:vector  ETV
vector 2070223  Network.dyn_peer[51]  lookupStabilitySig:vector  ETV
vector 2070224  Network.dyn_peer[51]  lookupTimeSig:vector  ETV
vector 2070105  Network.dyn_peer[12]  lookupHopsSig:vector  ETV
vector 2070106  Network.dyn_peer[12]  lookupStabilitySig:vector  ETV
vector 2070107  Network.dyn_peer[12]  lookupTimeSig:vector  ETV
vector 2070225  Network.dyn_peer[52]  lookupHopsSig:vector  ETV
vector 2070226  Network.dyn_peer[52]  lookupStabilitySig:vector  ETV
vector 2070227  Network.dyn_peer[52]  lookupTimeSig:vector  ETV
vector 2070144  Network.dyn_peer[25]  lookupHopsSig:vector  ETV
vector 2070145  Network.dyn_peer[25]  lookupStabilitySig:vector  ETV
vector 2070146  Network.dyn_peer[25]  lookupTimeSig:vector  ETV
vector 2070153  Network.dyn_peer[28]  lookupHopsSig:vector  ETV
vector 2070154  Network.dyn_peer[28]  lookupStabilitySig:vector  ETV
vector 2070155  Network.dyn_peer[28]  lookupTimeSig:vector  ETV
vector 2070186  Network.dyn_peer[39]  lookupHopsSig:vector  ETV
vector 2070187  Network.dyn_peer[39]  lookupStabilitySig:vector  ETV
vector 2070188  Network.dyn_peer[39]  lookupTimeSig:vector  ETV
vector 2070246  Network.dyn_peer[59]  lookupHopsSig:vector  ETV
vector 2070247  Network.dyn_peer[59]  lookupStabilitySig:vector  ETV
vector 2070248  Network.dyn_peer[59]  lookupTimeSig:vector  ETV
vector 2070192  Network.dyn_peer[41]  lookupHopsSig:vector  ETV
vector 2070193  Network.dyn_peer[41]  lookupStabilitySig:vector  ETV
vector 2070194  Network.dyn_peer[41]  lookupTimeSig:vector  ETV
vector 2070252  Network.dyn_peer[61]  lookupHopsSig:vector  ETV
vector 2070253  Network.dyn_peer[61]  lookupStabilitySig:vector  ETV
vector 2070254  Network.dyn_peer[61]  lookupTimeSig:vector  ETV
vector 2070231  Network.dyn_peer[54]  lookupHopsSig:vector  ETV
vector 2070232  Network.dyn_peer[54]  lookupStabilitySig:vector  ETV
vector 2070233  Network.dyn_peer[54]  lookupTimeSig:vector  ETV
vector 2070300  Network.dyn_peer[77]  lookupHopsSig:vector  ETV
vector 2070301  Network.dyn_peer[77]  lookupStabilitySig:vector  ETV
vector 2070302  Network.dyn_peer[77]  lookupTimeSig:vector  ETV
vector 2070069  Network.dyn_peer[0]  lookupHopsSig:vector  ETV
vector 2070070  Network.dyn_peer[0]  lookupStabilitySig:vector  ETV
vector 2070071  Network.dyn_peer[0]  lookupTimeSig:vector  ETV
vector 2070174  Network.dyn_peer[35]  lookupHopsSig:vector  ETV
vector 2070175  Network.dyn_peer[35]  lookupStabilitySig:vector  ETV
vector 2070176  Network.dyn_peer[35]  lookupTimeSig:vector  ETV
vector 2070207  Network.dyn_peer[46]  lookupHopsSig:vector  ETV
vector 2070208  Network.dyn_peer[46]  lookupStabilitySig:vector  ETV
vector 2070209  Network.dyn_peer[46]  lookupTimeSig:vector  ETV
vector 2070240  Network.dyn_peer[57]  lookupHopsSig:vector  ETV
vector 2070241  Network.dyn_peer[57]  lookupStabilitySig:vector  ETV
vector 2070242  Network.dyn_peer[57]  lookupTimeSig:vector  ETV
vector 2070195  Network.dyn_peer[42]  lookupHopsSig:vector  ETV
vector 2070196  Network.dyn_peer[42]  lookupStabilitySig:vector  ETV
vector 2070197  Network.dyn_peer[42]  lookupTimeSig:vector  ETV
vector 2070258  Network.dyn_peer[63]  lookupHopsSig:vector  ETV
vector 2070259  Network.dyn_peer[63]  lookupStabilitySig:vector  ETV
vector 2070260  Network.dyn_peer[63]  lookupTimeSig:vector  ETV
vector 2070291  Network.dyn_peer[74]  lookupHopsSig:vector  ETV
vector 2070292  Network.dyn_peer[74]  lookupStabilitySig:vector  ETV
vector 2070293  Network.dyn_peer[74]  lookupTimeSig:vector  ETV
vector 2070204  Network.dyn_peer[45]  lookupHopsSig:vector  ETV
vector 2070205  Network.dyn_peer[45]  lookupStabilitySig:vector  ETV
vector 2070206  Network.dyn_peer[45]  lookupTimeSig:vector  ETV
vector 2070303  Network.dyn_peer[78]  lookupHopsSig:vector  ETV
vector 2070304  Network.dyn_peer[78]  lookupStabilitySig:vector  ETV
vector 2070305  Network.dyn_peer[78]  lookupTimeSig:vector  ETV
vector 2070219  Network.dyn_peer[50]  lookupHopsSig:vector  ETV
vector 2070220  Network.dyn_peer[50]  lookupStabilitySig:vector  ETV
vector 2070221  Network.dyn_peer[50]  lookupTimeSig:vector  ETV
vector 2070249  Network.dyn_peer[60]  lookupHopsSig:vector  ETV
vector 2070250  Network.dyn_peer[60]  lookupStabilitySig:vector  ETV
vector 2070251  Network.dyn_peer[60]  lookupTimeSig:vector  ETV
vector 2070309  Network.dyn_peer[80]  lookupHopsSig:vector  ETV
vector 2070310  Network.dyn_peer[80]  lookupStabilitySig:vector  ETV
vector 2070311  Network.dyn_peer[80]  lookupTimeSig:vector  ETV
vector 2070399  Network.dyn_peer[110]  lookupHopsSig:vector  ETV
vector 2070400  Network.dyn_peer[110]  lookupStabilitySig:vector  ETV
vector 2070401  Network.dyn_peer[110]  lookupTimeSig:vector  ETV
vector 2070168  Network.dyn_peer[33]  lookupHopsSig:vector  ETV
vector 2070169  Network.dyn_peer[33]  lookupStabilitySig:vector  ETV
vector 2070170  Network.dyn_peer[33]  lookupTimeSig:vector  ETV
vector 2070321  Network.dyn_peer[84]  lookupHopsSig:vector  ETV
vector 2070322  Network.dyn_peer[84]  lookupStabilitySig:vector  ETV
vector 2070323  Network.dyn_peer[84]  lookupTimeSig:vector  ETV
vector 2070297  Network.dyn_peer[76]  lookupHopsSig:vector  ETV
vector 2070298  Network.dyn_peer[76]  lookupStabilitySig:vector  ETV
vector 2070299  Network.dyn_peer[76]  lookupTimeSig:vector  ETV
vector 2070243  Network.dyn_peer[58]  lookupHopsSig:vector  ETV
vector 2070244  Network.dyn_peer[58]  lookupStabilitySig:vector  ETV
vector 2070245  Network.dyn_peer[58]  lookupTimeSig:vector  ETV
vector 2070216  Network.dyn_peer[49]  lookupHopsSig:vector  ETV
vector 2070217  Network.dyn_peer[49]  lookupStabilitySig:vector  ETV
vector 2070218  Network.dyn_peer[49]  lookupTimeSig:vector  ETV
vector 2070345  Network.dyn_peer[92]  lookupHopsSig:vector  ETV
vector 2070346  Network.dyn_peer[92]  lookupStabilitySig:vector  ETV
vector 2070347  Network.dyn_peer[92]  lookupTimeSig:vector  ETV
vector 2070405  Network.dyn_peer[112]  lookupHopsSig:vector  ETV
vector 2070406  Network.dyn_peer[112]  lookupStabilitySig:vector  ETV
vector 2070407  Network.dyn_peer[112]  lookupTimeSig:vector  ETV
vector 2070261  Network.dyn_peer[64]  lookupHopsSig:vector  ETV
vector 2070262  Network.dyn_peer[64]  lookupStabilitySig:vector  ETV
vector 2070263  Network.dyn_peer[64]  lookupTimeSig:vector  ETV
vector 2070381  Network.dyn_peer[104]  lookupHopsSig:vector  ETV
vector 2070382  Network.dyn_peer[104]  lookupStabilitySig:vector  ETV
vector 2070383  Network.dyn_peer[104]  lookupTimeSig:vector  ETV
vector 2070264  Network.dyn_peer[65]  lookupHopsSig:vector  ETV
vector 2070265  Network.dyn_peer[65]  lookupStabilitySig:vector  ETV
vector 2070266  Network.dyn_peer[65]  lookupTimeSig:vector  ETV
vector 2070177  Network.dyn_peer[36]  lookupHopsSig:vector  ETV
vector 2070178  Network.dyn_peer[36]  lookupStabilitySig:vector  ETV
vector 2070179  Network.dyn_peer[36]  lookupTimeSig:vector  ETV
vector 2070162  Network.dyn_peer[31]  lookupHopsSig:vector  ETV
vector 2070163  Network.dyn_peer[31]  lookupStabilitySig:vector  ETV
vector 2070164  Network.dyn_peer[31]  lookupTimeSig:vector  ETV
vector 2070228  Network.dyn_peer[53]  lookupHopsSig:vector  ETV
vector 2070229  Network.dyn_peer[53]  lookupStabilitySig:vector  ETV
vector 2070230  Network.dyn_peer[53]  lookupTimeSig:vector  ETV
vector 2070438  Network.dyn_peer[123]  lookupHopsSig:vector  ETV
vector 2070439  Network.dyn_peer[123]  lookupStabilitySig:vector  ETV
vector 2070440  Network.dyn_peer[123]  lookupTimeSig:vector  ETV
vector 2070201  Network.dyn_peer[44]  lookupHopsSig:vector  ETV
vector 2070202  Network.dyn_peer[44]  lookupStabilitySig:vector  ETV
vector 2070203  Network.dyn_peer[44]  lookupTimeSig:vector  ETV
vector 2070387  Network.dyn_peer[106]  lookupHopsSig:vector  ETV
vector 2070388  Network.dyn_peer[106]  lookupStabilitySig:vector  ETV
vector 2070389  Network.dyn_peer[106]  lookupTimeSig:vector  ETV
vector 2070417  Network.dyn_peer[116]  lookupHopsSig:vector  ETV
vector 2070418  Network.dyn_peer[116]  lookupStabilitySig:vector  ETV
vector 2070419  Network.dyn_peer[116]  lookupTimeSig:vector  ETV
vector 2070273  Network.dyn_peer[68]  lookupHopsSig:vector  ETV
vector 2070274  Network.dyn_peer[68]  lookupStabilitySig:vector  ETV
vector 2070275  Network.dyn_peer[68]  lookupTimeSig:vector  ETV
vector 2070333  Network.dyn_peer[88]  lookupHopsSig:vector  ETV
vector 2070334  Network.dyn_peer[88]  lookupStabilitySig:vector  ETV
vector 2070335  Network.dyn_peer[88]  lookupTimeSig:vector  ETV
vector 2070396  Network.dyn_peer[109]  lookupHopsSig:vector  ETV
vector 2070397  Network.dyn_peer[109]  lookupStabilitySig:vector  ETV
vector 2070398  Network.dyn_peer[109]  lookupTimeSig:vector  ETV
vector 2070339  Network.dyn_peer[90]  lookupHopsSig:vector  ETV
vector 2070340  Network.dyn_peer[90]  lookupStabilitySig:vector  ETV
vector 2070341  Network.dyn_peer[90]  lookupTimeSig:vector  ETV
vector 2070315  Network.dyn_peer[82]  lookupHopsSig:vector  ETV
vector 2070316  Network.dyn_peer[82]  lookupStabilitySig:vector  ETV
vector 2070317  Network.dyn_peer[82]  lookupTimeSig:vector  ETV
vector 2070495  Network.dyn_peer[142]  lookupHopsSig:vector  ETV
vector 2070496  Network.dyn_peer[142]  lookupStabilitySig:vector  ETV
vector 2070497  Network.dyn_peer[142]  lookupTimeSig:vector  ETV
vector 2070270  Network.dyn_peer[67]  lookupHopsSig:vector  ETV
vector 2070271  Network.dyn_peer[67]  lookupStabilitySig:vector  ETV
vector 2070272  Network.dyn_peer[67]  lookupTimeSig:vector  ETV
vector 2070213  Network.dyn_peer[48]  lookupHopsSig:vector  ETV
vector 2070214  Network.dyn_peer[48]  lookupStabilitySig:vector  ETV
vector 2070215  Network.dyn_peer[48]  lookupTimeSig:vector  ETV
vector 2070423  Network.dyn_peer[118]  lookupHopsSig:vector  ETV
vector 2070424  Network.dyn_peer[118]  lookupStabilitySig:vector  ETV
vector 2070425  Network.dyn_peer[118]  lookupTimeSig:vector  ETV
vector 2070336  Network.dyn_peer[89]  lookupHopsSig:vector  ETV
vector 2070337  Network.dyn_peer[89]  lookupStabilitySig:vector  ETV
vector 2070338  Network.dyn_peer[89]  lookupTimeSig:vector  ETV
vector 2070279  Network.dyn_peer[70]  lookupHopsSig:vector  ETV
vector 2070280  Network.dyn_peer[70]  lookupStabilitySig:vector  ETV
vector 2070281  Network.dyn_peer[70]  lookupTimeSig:vector  ETV
vector 2070255  Network.dyn_peer[62]  lookupHopsSig:vector  ETV
vector 2070256  Network.dyn_peer[62]  lookupStabilitySig:vector  ETV
vector 2070257  Network.dyn_peer[62]  lookupTimeSig:vector  ETV
vector 2070435  Network.dyn_peer[122]  lookupHopsSig:vector  ETV
vector 2070436  Network.dyn_peer[122]  lookupStabilitySig:vector  ETV
vector 2070437  Network.dyn_peer[122]  lookupTimeSig:vector  ETV
vector 2070351  Network.dyn_peer[94]  lookupHopsSig:vector  ETV
vector 2070352  Network.dyn_peer[94]  lookupStabilitySig:vector  ETV
vector 2070353  Network.dyn_peer[94]  lookupTimeSig:vector  ETV
vector 2070444  Network.dyn_peer[125]  lookupHopsSig:vector  ETV
vector 2070445  Network.dyn_peer[125]  lookupStabilitySig:vector  ETV
vector 2070446  Network.dyn_peer[125]  lookupTimeSig:vector  ETV
vector 2070180  Network.dyn_peer[37]  lookupHopsSig:vector  ETV
vector 2070181  Network.dyn_peer[37]  lookupStabilitySig:vector  ETV
vector 2070182  Network.dyn_peer[37]  lookupTimeSig:vector  ETV
vector 2070483  Network.dyn_peer[138]  lookupHopsSig:vector  ETV
vector 2070484  Network.dyn_peer[138]  lookupStabilitySig:vector  ETV
vector 2070485  Network.dyn_peer[138]  lookupTimeSig:vector  ETV
vector 2070342  Network.dyn_peer[91]  lookupHopsSig:vector  ETV
vector 2070343  Network.dyn_peer[91]  lookupStabilitySig:vector  ETV
vector 2070344  Network.dyn_peer[91]  lookupTimeSig:vector  ETV
vector 2070522  Network.dyn_peer[151]  lookupHopsSig:vector  ETV
vector 2070523  Network.dyn_peer[151]  lookupStabilitySig:vector  ETV
vector 2070524  Network.dyn_peer[151]  lookupTimeSig:vector  ETV
vector 2070198  Network.dyn_peer[43]  lookupHopsSig:vector  ETV
vector 2070199  Network.dyn_peer[43]  lookupStabilitySig:vector  ETV
vector 2070200  Network.dyn_peer[43]  lookupTimeSig:vector  ETV
vector 2070348  Network.dyn_peer[93]  lookupHopsSig:vector  ETV
vector 2070349  Network.dyn_peer[93]  lookupStabilitySig:vector  ETV
vector 2070350  Network.dyn_peer[93]  lookupTimeSig:vector  ETV
vector 2070234  Network.dyn_peer[55]  lookupHopsSig:vector  ETV
vector 2070235  Network.dyn_peer[55]  lookupStabilitySig:vector  ETV
vector 2070236  Network.dyn_peer[55]  lookupTimeSig:vector  ETV
vector 2070294  Network.dyn_peer[75]  lookupHopsSig:vector  ETV
vector 2070295  Network.dyn_peer[75]  lookupStabilitySig:vector  ETV
vector 2070296  Network.dyn_peer[75]  lookupTimeSig:vector  ETV
vector 2070324  Network.dyn_peer[85]  lookupHopsSig:vector  ETV
vector 2070325  Network.dyn_peer[85]  lookupStabilitySig:vector  ETV
vector 2070326  Network.dyn_peer[85]  lookupTimeSig:vector  ETV
vector 2070507  Network.dyn_peer[146]  lookupHopsSig:vector  ETV
vector 2070508  Network.dyn_peer[146]  lookupStabilitySig:vector  ETV
vector 2070509  Network.dyn_peer[146]  lookupTimeSig:vector  ETV
vector 2070330  Network.dyn_peer[87]  lookupHopsSig:vector  ETV
vector 2070331  Network.dyn_peer[87]  lookupStabilitySig:vector  ETV
vector 2070332  Network.dyn_peer[87]  lookupTimeSig:vector  ETV
vector 2070360  Network.dyn_peer[97]  lookupHopsSig:vector  ETV
vector 2070361  Network.dyn_peer[97]  lookupStabilitySig:vector  ETV
vector 2070362  Network.dyn_peer[97]  lookupTimeSig:vector  ETV
vector 2070510  Network.dyn_peer[147]  lookupHopsSig:vector  ETV
vector 2070511  Network.dyn_peer[147]  lookupStabilitySig:vector  ETV
vector 2070512  Network.dyn_peer[147]  lookupTimeSig:vector  ETV
vector 2070426  Network.dyn_peer[119]  lookupHopsSig:vector  ETV
vector 2070427  Network.dyn_peer[119]  lookupStabilitySig:vector  ETV
vector 2070428  Network.dyn_peer[119]  lookupTimeSig:vector  ETV
vector 2070429  Network.dyn_peer[120]  lookupHopsSig:vector  ETV
vector 2070430  Network.dyn_peer[120]  lookupStabilitySig:vector  ETV
vector 2070431  Network.dyn_peer[120]  lookupTimeSig:vector  ETV
vector 2070312  Network.dyn_peer[81]  lookupHopsSig:vector  ETV
vector 2070313  Network.dyn_peer[81]  lookupStabilitySig:vector  ETV
vector 2070314  Network.dyn_peer[81]  lookupTimeSig:vector  ETV
vector 2070372  Network.dyn_peer[101]  lookupHopsSig:vector  ETV
vector 2070373  Network.dyn_peer[101]  lookupStabilitySig:vector  ETV
vector 2070374  Network.dyn_peer[101]  lookupTimeSig:vector  ETV
vector 2070462  Network.dyn_peer[131]  lookupHopsSig:vector  ETV
vector 2070463  Network.dyn_peer[131]  lookupStabilitySig:vector  ETV
vector 2070464  Network.dyn_peer[131]  lookupTimeSig:vector  ETV
vector 2070465  Network.dyn_peer[132]  lookupHopsSig:vector  ETV
vector 2070466  Network.dyn_peer[132]  lookupStabilitySig:vector  ETV
vector 2070467  Network.dyn_peer[132]  lookupTimeSig:vector  ETV
vector 2070411  Network.dyn_peer[114]  lookupHopsSig:vector  ETV
vector 2070412  Network.dyn_peer[114]  lookupStabilitySig:vector  ETV
vector 2070413  Network.dyn_peer[114]  lookupTimeSig:vector  ETV
vector 2070414  Network.dyn_peer[115]  lookupHopsSig:vector  ETV
vector 2070415  Network.dyn_peer[115]  lookupStabilitySig:vector  ETV
vector 2070416  Network.dyn_peer[115]  lookupTimeSig:vector  ETV
vector 2070363  Network.dyn_peer[98]  lookupHopsSig:vector  ETV
vector 2070364  Network.dyn_peer[98]  lookupStabilitySig:vector  ETV
vector 2070365  Network.dyn_peer[98]  lookupTimeSig:vector  ETV
vector 2070306  Network.dyn_peer[79]  lookupHopsSig:vector  ETV
vector 2070307  Network.dyn_peer[79]  lookupStabilitySig:vector  ETV
vector 2070308  Network.dyn_peer[79]  lookupTimeSig:vector  ETV
vector 2070516  Network.dyn_peer[149]  lookupHopsSig:vector  ETV
vector 2070517  Network.dyn_peer[149]  lookupStabilitySig:vector  ETV
vector 2070518  Network.dyn_peer[149]  lookupTimeSig:vector  ETV
vector 2070282  Network.dyn_peer[71]  lookupHopsSig:vector  ETV
vector 2070283  Network.dyn_peer[71]  lookupStabilitySig:vector  ETV
vector 2070284  Network.dyn_peer[71]  lookupTimeSig:vector  ETV
vector 2070531  Network.dyn_peer[154]  lookupHopsSig:vector  ETV
vector 2070532  Network.dyn_peer[154]  lookupStabilitySig:vector  ETV
vector 2070533  Network.dyn_peer[154]  lookupTimeSig:vector  ETV
vector 2070267  Network.dyn_peer[66]  lookupHopsSig:vector  ETV
vector 2070268  Network.dyn_peer[66]  lookupStabilitySig:vector  ETV
vector 2070269  Network.dyn_peer[66]  lookupTimeSig:vector  ETV
vector 2070420  Network.dyn_peer[117]  lookupHopsSig:vector  ETV
vector 2070421  Network.dyn_peer[117]  lookupStabilitySig:vector  ETV
vector 2070422  Network.dyn_peer[117]  lookupTimeSig:vector  ETV
vector 2070276  Network.dyn_peer[69]  lookupHopsSig:vector  ETV
vector 2070277  Network.dyn_peer[69]  lookupStabilitySig:vector  ETV
vector 2070278  Network.dyn_peer[69]  lookupTimeSig:vector  ETV
vector 2070375  Network.dyn_peer[102]  lookupHopsSig:vector  ETV
vector 2070376  Network.dyn_peer[102]  lookupStabilitySig:vector  ETV
vector 2070377  Network.dyn_peer[102]  lookupTimeSig:vector  ETV
vector 2070354  Network.dyn_peer[95]  lookupHopsSig:vector  ETV
vector 2070355  Network.dyn_peer[95]  lookupStabilitySig:vector  ETV
vector 2070356  Network.dyn_peer[95]  lookupTimeSig:vector  ETV
vector 2070534  Network.dyn_peer[155]  lookupHopsSig:vector  ETV
vector 2070535  Network.dyn_peer[155]  lookupStabilitySig:vector  ETV
vector 2070536  Network.dyn_peer[155]  lookupTimeSig:vector  ETV
vector 2070327  Network.dyn_peer[86]  lookupHopsSig:vector  ETV
vector 2070328  Network.dyn_peer[86]  lookupStabilitySig:vector  ETV
vector 2070329  Network.dyn_peer[86]  lookupTimeSig:vector  ETV
vector 2070567  Network.dyn_peer[166]  lookupHopsSig:vector  ETV
vector 2070568  Network.dyn_peer[166]  lookupStabilitySig:vector  ETV
vector 2070569  Network.dyn_peer[166]  lookupTimeSig:vector  ETV
vector 2070573  Network.dyn_peer[168]  lookupHopsSig:vector  ETV
vector 2070574  Network.dyn_peer[168]  lookupStabilitySig:vector  ETV
vector 2070575  Network.dyn_peer[168]  lookupTimeSig:vector  ETV
vector 2070456  Network.dyn_peer[129]  lookupHopsSig:vector  ETV
vector 2070457  Network.dyn_peer[129]  lookupStabilitySig:vector  ETV
vector 2070458  Network.dyn_peer[129]  lookupTimeSig:vector  ETV
vector 2070402  Network.dyn_peer[111]  lookupHopsSig:vector  ETV
vector 2070403  Network.dyn_peer[111]  lookupStabilitySig:vector  ETV
vector 2070404  Network.dyn_peer[111]  lookupTimeSig:vector  ETV
vector 2070642  Network.dyn_peer[191]  lookupHopsSig:vector  ETV
vector 2070643  Network.dyn_peer[191]  lookupStabilitySig:vector  ETV
vector 2070644  Network.dyn_peer[191]  lookupTimeSig:vector  ETV
vector 2070285  Network.dyn_peer[72]  lookupHopsSig:vector  ETV
vector 2070286  Network.dyn_peer[72]  lookupStabilitySig:vector  ETV
vector 2070287  Network.dyn_peer[72]  lookupTimeSig:vector  ETV
vector 2070318  Network.dyn_peer[83]  lookupHopsSig:vector  ETV
vector 2070319  Network.dyn_peer[83]  lookupStabilitySig:vector  ETV
vector 2070320  Network.dyn_peer[83]  lookupTimeSig:vector  ETV
vector 2070633  Network.dyn_peer[188]  lookupHopsSig:vector  ETV
vector 2070634  Network.dyn_peer[188]  lookupStabilitySig:vector  ETV
vector 2070635  Network.dyn_peer[188]  lookupTimeSig:vector  ETV
vector 2070366  Network.dyn_peer[99]  lookupHopsSig:vector  ETV
vector 2070367  Network.dyn_peer[99]  lookupStabilitySig:vector  ETV
vector 2070368  Network.dyn_peer[99]  lookupTimeSig:vector  ETV
vector 2070486  Network.dyn_peer[139]  lookupHopsSig:vector  ETV
vector 2070487  Network.dyn_peer[139]  lookupStabilitySig:vector  ETV
vector 2070488  Network.dyn_peer[139]  lookupTimeSig:vector  ETV
vector 2070606  Network.dyn_peer[179]  lookupHopsSig:vector  ETV
vector 2070607  Network.dyn_peer[179]  lookupStabilitySig:vector  ETV
vector 2070608  Network.dyn_peer[179]  lookupTimeSig:vector  ETV
vector 2070489  Network.dyn_peer[140]  lookupHopsSig:vector  ETV
vector 2070490  Network.dyn_peer[140]  lookupStabilitySig:vector  ETV
vector 2070491  Network.dyn_peer[140]  lookupTimeSig:vector  ETV
vector 2070519  Network.dyn_peer[150]  lookupHopsSig:vector  ETV
vector 2070520  Network.dyn_peer[150]  lookupStabilitySig:vector  ETV
vector 2070521  Network.dyn_peer[150]  lookupTimeSig:vector  ETV
vector 2070678  Network.dyn_peer[203]  lookupHopsSig:vector  ETV
vector 2070679  Network.dyn_peer[203]  lookupStabilitySig:vector  ETV
vector 2070680  Network.dyn_peer[203]  lookupTimeSig:vector  ETV
vector 2070708  Network.dyn_peer[213]  lookupHopsSig:vector  ETV
vector 2070709  Network.dyn_peer[213]  lookupStabilitySig:vector  ETV
vector 2070710  Network.dyn_peer[213]  lookupTimeSig:vector  ETV
vector 2070501  Network.dyn_peer[144]  lookupHopsSig:vector  ETV
vector 2070502  Network.dyn_peer[144]  lookupStabilitySig:vector  ETV
vector 2070503  Network.dyn_peer[144]  lookupTimeSig:vector  ETV
vector 2070681  Network.dyn_peer[204]  lookupHopsSig:vector  ETV
vector 2070682  Network.dyn_peer[204]  lookupStabilitySig:vector  ETV
vector 2070683  Network.dyn_peer[204]  lookupTimeSig:vector  ETV
vector 2070564  Network.dyn_peer[165]  lookupHopsSig:vector  ETV
vector 2070565  Network.dyn_peer[165]  lookupStabilitySig:vector  ETV
vector 2070566  Network.dyn_peer[165]  lookupTimeSig:vector  ETV
vector 2070597  Network.dyn_peer[176]  lookupHopsSig:vector  ETV
vector 2070598  Network.dyn_peer[176]  lookupStabilitySig:vector  ETV
vector 2070599  Network.dyn_peer[176]  lookupTimeSig:vector  ETV
vector 2070393  Network.dyn_peer[108]  lookupHopsSig:vector  ETV
vector 2070394  Network.dyn_peer[108]  lookupStabilitySig:vector  ETV
vector 2070395  Network.dyn_peer[108]  lookupTimeSig:vector  ETV
vector 2070669  Network.dyn_peer[200]  lookupHopsSig:vector  ETV
vector 2070670  Network.dyn_peer[200]  lookupStabilitySig:vector  ETV
vector 2070671  Network.dyn_peer[200]  lookupTimeSig:vector  ETV
vector 2070408  Network.dyn_peer[113]  lookupHopsSig:vector  ETV
vector 2070409  Network.dyn_peer[113]  lookupStabilitySig:vector  ETV
vector 2070410  Network.dyn_peer[113]  lookupTimeSig:vector  ETV
vector 2070471  Network.dyn_peer[134]  lookupHopsSig:vector  ETV
vector 2070472  Network.dyn_peer[134]  lookupStabilitySig:vector  ETV
vector 2070473  Network.dyn_peer[134]  lookupTimeSig:vector  ETV
vector 2070684  Network.dyn_peer[205]  lookupHopsSig:vector  ETV
vector 2070685  Network.dyn_peer[205]  lookupStabilitySig:vector  ETV
vector 2070686  Network.dyn_peer[205]  lookupTimeSig:vector  ETV
vector 2070447  Network.dyn_peer[126]  lookupHopsSig:vector  ETV
vector 2070448  Network.dyn_peer[126]  lookupStabilitySig:vector  ETV
vector 2070449  Network.dyn_peer[126]  lookupTimeSig:vector  ETV
vector 2070450  Network.dyn_peer[127]  lookupHopsSig:vector  ETV
vector 2070451  Network.dyn_peer[127]  lookupStabilitySig:vector  ETV
vector 2070452  Network.dyn_peer[127]  lookupTimeSig:vector  ETV
vector 2070480  Network.dyn_peer[137]  lookupHopsSig:vector  ETV
vector 2070481  Network.dyn_peer[137]  lookupStabilitySig:vector  ETV
vector 2070482  Network.dyn_peer[137]  lookupTimeSig:vector  ETV
vector 2070630  Network.dyn_peer[187]  lookupHopsSig:vector  ETV