file 6006061 1369933133                                         
version 2
run Stability2-97-20130528-01:54:12-24168
attr configname Stability2
attr datetime 20130528-01:54:12
attr experiment Stability2
attr inifile omnetpp.ini
attr iterationvars $0=500
attr iterationvars2 "$0=500, $repetition=7"
attr measurement $0=500
attr network Network
attr processid 24168
attr repetition 7
attr replication #7
attr resultdir results
attr runnumber 97
attr seedset 97
vector 2940097  Network.churner  inGoingSizeSig:vector  ETV
2940097	5880329 125732 11 917439 20 70 5001 0 2166 6357964 9818317638
vector 2910097  Network.dyn_peer[0]  lookupHopsSig:vector  ETV
2910097	1012125 498 18 1074334 20.01 75.251129606019 16 0 90 381 21423
vector 2910098  Network.dyn_peer[0]  lookupStabilitySig:vector  ETV
2910098	1012623 712 18 1074334 20.01 75.251129606019 16 0.19999998807907 1 13.594463775866 12.320531343832
vector 2910099  Network.dyn_peer[0]  lookupTimeSig:vector  ETV
2910099	1013335 516 18 1074334 20.01 75.251129606019 16 0 9.1 39.6 222
vector 2910100  Network.dyn_peer[1]  lookupHopsSig:vector  ETV
2910100	1013851 603 25 1271211 20.02 83.665730970296 19 0 118 492 25810
vector 2910101  Network.dyn_peer[1]  lookupStabilitySig:vector  ETV
2910101	1014454 859 25 1271211 20.02 83.665730970296 19 -0.20000004768372 1 16.46346211154 15.697200203822
vector 2910102  Network.dyn_peer[1]  lookupTimeSig:vector  ETV
2910102	1015313 626 25 1271211 20.02 83.665730970296 19 0 11.9 51 268.12
vector 2910106  Network.dyn_peer[3]  lookupHopsSig:vector  ETV
2910106	1017341 505 35 1375312 20.04 90.527412134444 16 0 96 450 24404
vector 2910107  Network.dyn_peer[3]  lookupStabilitySig:vector  ETV
2910107	1017846 701 35 1375312 20.04 90.527412134444 16 0 1 13.804547676817 12.91200976935
vector 2910108  Network.dyn_peer[3]  lookupTimeSig:vector  ETV
2910108	1018547 521 35 1375312 20.04 90.527412134444 16 0 9.7 46.5 253.19
vector 2910112  Network.dyn_peer[5]  lookupHopsSig:vector  ETV
2910112	1021080 505 79 1148354 20.16 78.043877755572 16 1 55 361 12033
vector 2910113  Network.dyn_peer[5]  lookupStabilitySig:vector  ETV
2910113	1021585 705 79 1148354 20.16 78.043877755572 16 0 0.99428208405152 13.675504767802 12.631034824741
vector 2910114  Network.dyn_peer[5]  lookupTimeSig:vector  ETV
2910114	1022290 525 79 1148354 20.16 78.043877755572 16 0.1 5.6 37.6 127.68
vector 2910118  Network.dyn_peer[7]  lookupHopsSig:vector  ETV
2910118	1024350 465 91 517470 20.18 55.987363684885 15 1 45 297 8889
vector 2910119  Network.dyn_peer[7]  lookupStabilitySig:vector  ETV
2910119	1024815 665 91 517470 20.18 55.987363684885 15 0 0.99311926588416 12.568249236792 11.571044985591
vector 2910120  Network.dyn_peer[7]  lookupTimeSig:vector  ETV
2910120	1025480 483 91 517470 20.18 55.987363684885 15 0.1 4.6 31.1 94.95
vector 2910121  Network.dyn_peer[8]  lookupHopsSig:vector  ETV
2910121	1025963 510 99 1327895 20.19 86.986347165283 16 1 88 372 17988
vector 2910122  Network.dyn_peer[8]  lookupStabilitySig:vector  ETV
2910122	1026473 741 99 1327895 20.19 86.986347165283 16 0.19999998807907 0.99156118184328 13.756171404384 12.472405500559
vector 2910123  Network.dyn_peer[8]  lookupTimeSig:vector  ETV
2910123	1027214 532 99 1327895 20.19 86.986347165283 16 0.1 8.9 38.7 187.45
vector 2910124  Network.dyn_peer[9]  lookupHopsSig:vector  ETV
2910124	1027746 580 108 1116374 20.2 76.806134587912 18 1 97 476 25682
vector 2910125  Network.dyn_peer[9]  lookupStabilitySig:vector  ETV
2910125	1028326 828 108 1116374 20.2 76.806134587912 18 -0.14285719394684 0.98050579614937 15.599574303254 14.66888019143
vector 2910126  Network.dyn_peer[9]  lookupTimeSig:vector  ETV
2910126	1029154 601 108 1116374 20.2 76.806134587912 18 0.1 9.8 49.3 266.49
vector 2910157  Network.dyn_peer[20]  lookupHopsSig:vector  ETV
2910157	1049705 466 121 789007 20.21 65.835359679187 15 0 73 268 9666
vector 2910158  Network.dyn_peer[20]  lookupStabilitySig:vector  ETV
2910158	1050171 664 121 789007 20.21 65.835359679187 15 0.39999997615814 1 12.988118844107 11.783452674346
vector 2910159  Network.dyn_peer[20]  lookupTimeSig:vector  ETV
2910159	1050835 483 121 789007 20.21 65.835359679187 15 0 7.4 28.2 102.16
vector 2910130  Network.dyn_peer[11]  lookupHopsSig:vector  ETV
2910130	1031858 537 130 883595 20.22 68.928023734904 17 1 103 399 19279
vector 2910131  Network.dyn_peer[11]  lookupStabilitySig:vector  ETV
2910131	1032395 750 130 883595 20.22 68.928023734904 17 0 0.99602744681761 14.523060125764 13.425760869185
vector 2910132  Network.dyn_peer[11]  lookupTimeSig:vector  ETV
2910132	1033145 558 130 883595 20.22 68.928023734904 17 0.1 10.4 41.5 200.91
vector 2910142  Network.dyn_peer[15]  lookupHopsSig:vector  ETV
2910142	1041073 443 157 945723 20.26 70.897883992346 14 1 60 417 17131
vector 2910143  Network.dyn_peer[15]  lookupStabilitySig:vector  ETV
2910143	1041516 641 157 945723 20.26 70.897883992346 14 -0.20000004768372 0.98661417327821 11.669641664252 11.003517518827
vector 2910144  Network.dyn_peer[15]  lookupTimeSig:vector  ETV
2910144	1042157 460 157 945723 20.26 70.897883992346 14 0.1 6.1 43 179.76
vector 2910148  Network.dyn_peer[17]  lookupHopsSig:vector  ETV
2910148	1044149 479 171 367370 20.28 49.54382939893 15 1 42 244 5960
vector 2910149  Network.dyn_peer[17]  lookupStabilitySig:vector  ETV
2910149	1044628 693 171 367370 20.28 49.54382939893 15 0.19999998807907 0.99070631992072 13.084691067226 12.041961839333
vector 2910150  Network.dyn_peer[17]  lookupTimeSig:vector  ETV
2910150	1045321 498 171 367370 20.28 49.54382939893 15 0.1 4.3 25.8 64.6
vector 2910190  Network.dyn_peer[31]  lookupHopsSig:vector  ETV
2910190	1068433 441 205 977538 20.32 71.927650686198 14 0 70 349 12533
vector 2910191  Network.dyn_peer[31]  lookupStabilitySig:vector  ETV
2910191	1068874 615 205 977538 20.32 71.927650686198 14 0.11111110448837 1 12.125700029545 11.23797037048
vector 2910192  Network.dyn_peer[31]  lookupTimeSig:vector  ETV
2910192	1069489 451 205 977538 20.32 71.927650686198 14 0 7.1 36.2 132.44
vector 2910133  Network.dyn_peer[12]  lookupHopsSig:vector  ETV
2910133	1033703 748 214 1284569 20.33 84.392974188696 23 1 61 461 16163
vector 2910134  Network.dyn_peer[12]  lookupStabilitySig:vector  ETV
2910134	1034451 1071 214 1284569 20.33 84.392974188696 23 -0.20000004768372 0.99251870345324 20.44623294333 19.612907619408
vector 2910135  Network.dyn_peer[12]  lookupTimeSig:vector  ETV
2910135	1035522 779 214 1284569 20.33 84.392974188696 23 0.2 6.2 48.3 171.03
vector 2910136  Network.dyn_peer[13]  lookupHopsSig:vector  ETV
2910136	1036301 669 224 1255609 20.34 82.852073818442 21 2 54 405 12931
vector 2910137  Network.dyn_peer[13]  lookupStabilitySig:vector  ETV
2910137	1036970 943 224 1255609 20.34 82.852073818442 21 0.39999997615814 0.99665831238963 18.740414935397 17.320536008323
vector 2910138  Network.dyn_peer[13]  lookupTimeSig:vector  ETV
2910138	1037913 696 224 1255609 20.34 82.852073818442 21 0.2 5.5 42.5 137.57
vector 2910172  Network.dyn_peer[25]  lookupHopsSig:vector  ETV
2910172	1057896 476 242 1119845 20.36 76.938352778562 15 1 89 428 20234
vector 2910173  Network.dyn_peer[25]  lookupStabilitySig:vector  ETV
2910173	1058372 668 242 1119845 20.36 76.938352778562 15 0.11111110448837 0.9870403856039 12.974248088896 11.940436756538
vector 2910174  Network.dyn_peer[25]  lookupTimeSig:vector  ETV
2910174	1059040 491 242 1119845 20.36 76.938352778562 15 0.1 9 44.2 211.02
vector 2910145  Network.dyn_peer[16]  lookupHopsSig:vector  ETV
2910145	1042617 440 253 1142220 20.37 77.800029592126 14 2 114 468 30510
vector 2910146  Network.dyn_peer[16]  lookupStabilitySig:vector  ETV
2910146	1043057 637 253 1142220 20.37 77.800029592126 14 0.11111110448837 0.99168053269386 11.791567666456 10.673493470248
vector 2910147  Network.dyn_peer[16]  lookupTimeSig:vector  ETV
2910147	1043694 455 253 1142220 20.37 77.800029592126 14 0.2 11.5 48.1 314.55
vector 2910127  Network.dyn_peer[10]  lookupHopsSig:vector  ETV
2910127	1029755 603 280 855863 20.41 68.036446776613 19 1 83 427 20093
vector 2910128  Network.dyn_peer[10]  lookupStabilitySig:vector  ETV
2910128	1030358 872 280 855863 20.41 68.036446776613 19 0.39999997615814 0.99776386399753 16.386371222325 14.800563364203
vector 2910129  Network.dyn_peer[10]  lookupTimeSig:vector  ETV
2910129	1031230 628 280 855863 20.41 68.036446776613 19 0.2 8.4 44.5 209.59
vector 2910103  Network.dyn_peer[2]  lookupHopsSig:vector  ETV
2910103	1015939 401 299 869165 20.43 68.463036544971 13 2 59 199 6149
vector 2910104  Network.dyn_peer[2]  lookupStabilitySig:vector  ETV
2910104	1016340 587 299 869165 20.43 68.463036544971 13 0.19999998807907 0.99749163887464 10.705514381407 9.4513722235135
vector 2910105  Network.dyn_peer[2]  lookupTimeSig:vector  ETV
2910105	1016927 414 299 869165 20.43 68.463036544971 13 0.3 6 21.1 65.51
vector 2910223  Network.dyn_peer[42]  lookupHopsSig:vector  ETV
2910223	1085696 477 305 626830 20.43 60.172878795393 15 0 57 367 12257
vector 2910224  Network.dyn_peer[42]  lookupStabilitySig:vector  ETV
2910224	1086173 659 305 626830 20.43 60.172878795393 15 0.25 1 13.330320778303 12.384941634556
vector 2910225  Network.dyn_peer[42]  lookupTimeSig:vector  ETV
2910225	1086832 492 305 626830 20.43 60.172878795393 15 0 5.8 38.1 130.05
vector 2910166  Network.dyn_peer[23]  lookupHopsSig:vector  ETV
2910166	1053797 674 314 845580 20.44 67.699582128788 21 1 46 324 7930
vector 2910167  Network.dyn_peer[23]  lookupStabilitySig:vector  ETV
2910167	1054471 966 314 845580 20.44 67.699582128788 21 0.19999998807907 0.99439102550969 18.786016270518 17.48070130249
vector 2910168  Network.dyn_peer[23]  lookupTimeSig:vector  ETV
2910168	1055437 704 314 845580 20.44 67.699582128788 21 0.2 4.7 34.4 85.94
vector 2910109  Network.dyn_peer[4]  lookupHopsSig:vector  ETV
2910109	1019068 576 329 1125968 20.45 77.171038234431 18 1 53 318 9320
vector 2910110  Network.dyn_peer[4]  lookupStabilitySig:vector  ETV
2910110	1019644 835 329 1125968 20.45 77.171038234431 18 0.16666668653488 0.99525391543284 15.634782416746 14.687584847648
vector 2910111  Network.dyn_peer[4]  lookupTimeSig:vector  ETV
2910111	1020479 601 329 1125968 20.45 77.171038234431 18 0.2 5.4 33.5 99.65
vector 2910199  Network.dyn_peer[34]  lookupHopsSig:vector  ETV
2910199	1072632 507 333 1352367 20.45 88.694493892244 16 1 55 362 12368
vector 2910200  Network.dyn_peer[34]  lookupStabilitySig:vector  ETV
2910200	1073139 733 333 1352367 20.45 88.694493892244 16 0.22222220897675 0.99292185716331 14.091320902109 12.982659793386
vector 2910201  Network.dyn_peer[34]  lookupTimeSig:vector  ETV
2910201	1073872 525 333 1352367 20.45 88.694493892244 16 0.1 5.6 37.7 131.05
vector 2910175  Network.dyn_peer[26]  lookupHopsSig:vector  ETV
2910175	1059531 466 354 608579 20.47 59.494929550322 15 1 88 290 13170
vector 2910176  Network.dyn_peer[26]  lookupStabilitySig:vector  ETV
2910176	1059997 682 354 608579 20.47 59.494929550322 15 0.39999997615814 0.99495586380363 13.020688262768 11.702028668992
vector 2910177  Network.dyn_peer[26]  lookupTimeSig:vector  ETV
2910177	1060679 488 354 608579 20.47 59.494929550322 15 0.2 8.9 30.4 137.6
vector 2910151  Network.dyn_peer[18]  lookupHopsSig:vector  ETV
2910151	1045819 643 370 1434490 20.49 97.13276820315 20 3 101 622 34534
vector 2910152  Network.dyn_peer[18]  lookupStabilitySig:vector  ETV
2910152	1046462 925 370 1434490 20.49 97.13276820315 20 0.30769228935242 0.98991449270397 17.786756404676 16.507242280396
vector 2910153  Network.dyn_peer[18]  lookupTimeSig:vector  ETV
2910153	1047387 664 370 1434490 20.49 97.13276820315 20 0.3 10.2 64.1 357.91
vector 2910181  Network.dyn_peer[28]  lookupHopsSig:vector  ETV
2910181	1063527 511 374 1393924 20.49 92.242931089293 16 2 79 513 28079
vector 2910182  Network.dyn_peer[28]  lookupStabilitySig:vector  ETV
2910182	1064038 736 374 1393924 20.49 92.242931089293 16 0.23076921701431 0.99286442389712 13.936659831088 12.732689960426
vector 2910183  Network.dyn_peer[28]  lookupTimeSig:vector  ETV
2910183	1064774 526 374 1393924 20.49 92.242931089293 16 0.2 8 52.8 291.16
vector 2910163  Network.dyn_peer[22]  lookupHopsSig:vector  ETV
2910163	1052843 272 410 212042 20.53 41.716259061436 9 3 34 145 3285
vector 2910164  Network.dyn_peer[22]  lookupStabilitySig:vector  ETV
2910164	1053115 400 410 212042 20.53 41.716259061436 9 0.39999997615814 0.97503285109997 7.2948907017708 6.3357230342679
vector 2910165  Network.dyn_peer[22]  lookupTimeSig:vector  ETV
2910165	1053515 282 410 212042 20.53 41.716259061436 9 0.3 3.5 15.3 35.77
vector 2910139  Network.dyn_peer[14]  lookupHopsSig:vector  ETV
2910139	1038609 709 432 1336934 20.55 87.593207414789 22 4 98 554 25712
vector 2910140  Network.dyn_peer[14]  lookupStabilitySig:vector  ETV
2910140	1039318 1018 432 1336934 20.55 87.593207414789 22 0.19999998807907 0.9971209212672 19.689890068723 18.535567241151
vector 2910141  Network.dyn_peer[14]  lookupTimeSig:vector  ETV
2910141	1040336 737 432 1336934 20.55 87.593207414789 22 0.4 9.9 57.5 268.33
vector 2910169  Network.dyn_peer[24]  lookupHopsSig:vector  ETV
2910169	1056141 502 436 1145563 20.55 77.933030816862 16 3 65 285 9329
vector 2910170  Network.dyn_peer[24]  lookupStabilitySig:vector  ETV
2910170	1056643 731 436 1145563 20.55 77.933030816862 16 0.36363637447357 0.99480519490317 13.865962548181 12.643862269342
vector 2910171  Network.dyn_peer[24]  lookupTimeSig:vector  ETV
2910171	1057374 522 436 1145563 20.55 77.933030816862 16 0.3 6.6 30 99.08
vector 2910202  Network.dyn_peer[35]  lookupHopsSig:vector  ETV
2910202	1074397 466 450 858399 20.56 68.117960908977 15 2 71 318 14120
vector 2910203  Network.dyn_peer[35]  lookupStabilitySig:vector  ETV
2910203	1074863 671 450 858399 20.56 68.117960908977 15 0.375 0.98719441238791 13.009805039503 11.736224055002
vector 2910204  Network.dyn_peer[35]  lookupTimeSig:vector  ETV
2910204	1075534 486 450 858399 20.56 68.117960908977 15 0.2 7.2 33.2 147.66
vector 2910154  Network.dyn_peer[19]  lookupHopsSig:vector  ETV
2910154	1048051 474 484 1069855 20.6 75.091073896373 15 4 57 348 12918
vector 2910155  Network.dyn_peer[19]  lookupStabilitySig:vector  ETV
2910155	1048525 686 484 1069855 20.6 75.091073896373 15 0.19999998807907 0.99344569304958 13.022798517253 12.162214941344
vector 2910156  Network.dyn_peer[19]  lookupTimeSig:vector  ETV
2910156	1049211 494 484 1069855 20.6 75.091073896373 15 0.4 5.8 36.2 136.2
vector 2910184  Network.dyn_peer[29]  lookupHopsSig:vector  ETV
2910184	1065300 329 488 758149 20.6 64.790050643583 11 1 92 241 12333
vector 2910185  Network.dyn_peer[29]  lookupStabilitySig:vector  ETV
2910185	1065629 487 488 758149 20.6 64.790050643583 11 0.39999997615814 0.99443155433983 9.1672866838053 8.0754237490198
vector 2910186  Network.dyn_peer[29]  lookupTimeSig:vector  ETV
2910186	1066116 341 488 758149 20.6 64.790050643583 11 0.2 9.3 25.1 128.19
vector 2910115  Network.dyn_peer[6]  lookupHopsSig:vector  ETV
2910115	1022815 440 564 1144194 20.67 77.878776485871 14 2 86 370 16850
vector 2910116  Network.dyn_peer[6]  lookupStabilitySig:vector  ETV
2910116	1023255 639 564 1144194 20.67 77.878776485871 14 -0.20000004768372 0.99490608088672 11.44874324277 10.715499209251
vector 2910117  Network.dyn_peer[6]  lookupTimeSig:vector  ETV
2910117	1023894 456 564 1144194 20.67 77.878776485871 14 0.3 8.7 38.3 175.91
vector 2910178  Network.dyn_peer[27]  lookupHopsSig:vector  ETV
2910178	1061167 684 576 1386154 20.68 91.503191694087 21 3 94 530 22254
vector 2910179  Network.dyn_peer[27]  lookupStabilitySig:vector  ETV
2910179	1061851 968 576 1386154 20.68 91.503191694087 21 0.19999998807907 0.99562419578433 18.904472912196 17.904095049675
vector 2910180  Network.dyn_peer[27]  lookupTimeSig:vector  ETV
2910180	1062819 708 576 1386154 20.68 91.503191694087 21 0.4 9.5 55 233.26
vector 2910220  Network.dyn_peer[41]  lookupHopsSig:vector  ETV
2910220	1084185 440 620 500911 20.72 55.314882544783 14 2 37 214 4452
vector 2910221  Network.dyn_peer[41]  lookupStabilitySig:vector  ETV
2910221	1084625 618 620 500911 20.72 55.314882544783 14 0.39999997615814 0.99348534224555 12.132639584132 11.047398423207
vector 2910222  Network.dyn_peer[41]  lookupTimeSig:vector  ETV
2910222	1085243 453 620 500911 20.72 55.314882544783 14 0.3 3.8 22.7 48.87
vector 2910280  Network.dyn_peer[61]  lookupHopsSig:vector  ETV
2910280	1122003 508 624 1184012 20.72 79.52001504247 16 1 77 379 16741
vector 2910281  Network.dyn_peer[61]  lookupStabilitySig:vector  ETV
2910281	1122511 736 624 1184012 20.72 79.52001504247 16 0.42105263471603 0.99776785704307 14.586194675649 13.615282798447
vector 2910282  Network.dyn_peer[61]  lookupTimeSig:vector  ETV
2910282	1123247 526 624 1184012 20.72 79.52001504247 16 0.1 7.8 39.4 175.12
vector 2910265  Network.dyn_peer[56]  lookupHopsSig:vector  ETV
2910265	1111788 607 689 1153041 20.77 78.231550093882 19 2 81 489 19381
vector 2910266  Network.dyn_peer[56]  lookupStabilitySig:vector  ETV
2910266	1112395 862 689 1153041 20.77 78.231550093882 19 0.54545453190804 0.9883551672101 17.338207275607 16.140326308091
vector 2910267  Network.dyn_peer[56]  lookupTimeSig:vector  ETV
2910267	1113257 626 689 1153041 20.77 78.231550093882 19 0.2 8.2 50.7 203.73
vector 2910331  Network.dyn_peer[78]  lookupHopsSig:vector  ETV
2910331	1154817 435 715 737163 20.79 64.07476198481 14 0 46 258 7274
vector 2910332  Network.dyn_peer[78]  lookupStabilitySig:vector  ETV
2910332	1155252 619 715 737163 20.79 64.07476198481 14 0.66666665673256 1 12.74434349034 11.730670206711
vector 2910333  Network.dyn_peer[78]  lookupTimeSig:vector  ETV
2910333	1155871 450 715 737163 20.79 64.07476198481 14 0 4.7 27.1 78.03
vector 2910160  Network.dyn_peer[21]  lookupHopsSig:vector  ETV
2910160	1051318 439 758 780666 20.82 65.555108979816 14 1 51 243 7607
vector 2910161  Network.dyn_peer[21]  lookupStabilitySig:vector  ETV
2910161	1051757 628 758 780666 20.82 65.555108979816 14 -0.20000004768372 0.99845916789491 11.651021847152 11.094060463308
vector 2910162  Network.dyn_peer[21]  lookupTimeSig:vector  ETV
2910162	1052385 458 758 780666 20.82 65.555108979816 14 0.2 5.2 25.6 80.94
vector 2910196  Network.dyn_peer[33]  lookupHopsSig:vector  ETV
2910196	1071697 274 785 1074194 20.84 75.246808270674 9 2 45 150 4480
vector 2910197  Network.dyn_peer[33]  lookupStabilitySig:vector  ETV
2910197	1071971 375 785 1074194 20.84 75.246808270674 9 0 0.98694029822946 7.0650819838047 6.3555839223396
vector 2910198  Network.dyn_peer[33]  lookupTimeSig:vector  ETV
2910198	1072346 286 785 1074194 20.84 75.246808270674 9 0.3 4.6 15.8 47.78
vector 2910205  Network.dyn_peer[36]  lookupHopsSig:vector  ETV
2910205	1076020 474 831 934259 20.87 70.533610412921 15 5 110 391 21175
vector 2910206  Network.dyn_peer[36]  lookupStabilitySig:vector  ETV
2910206	1076494 658 831 934259 20.87 70.533610412921 15 0 0.993542435579 12.788606745191 11.898179308316
vector 2910207  Network.dyn_peer[36]  lookupTimeSig:vector  ETV
2910207	1077152 493 831 934259 20.87 70.533610412921 15 0.5 11.1 40.5 219.61
vector 2910208  Network.dyn_peer[37]  lookupHopsSig:vector  ETV
2910208	1077645 479 846 820340 20.88 66.875842252536 15 2 125 321 21143
vector 2910209  Network.dyn_peer[37]  lookupStabilitySig:vector  ETV
2910209	1078124 668 846 820340 20.88 66.875842252536 15 0 0.99356223177165 13.03921148181 12.326055232835
vector 2910210  Network.dyn_peer[37]  lookupTimeSig:vector  ETV
2910210	1078792 499 846 820340 20.88 66.875842252536 15 0.3 12.6 33.5 217.89
vector 2910274  Network.dyn_peer[59]  lookupHopsSig:vector  ETV
2910274	1117657 774 871 1475398 20.9 106.887704252728 24 3 93 580 26190
vector 2910275  Network.dyn_peer[59]  lookupStabilitySig:vector  ETV
2910275	1118431 1114 871 1475398 20.9 106.887704252728 24 0.39999997615814 0.99616766464897 22.082834348315 20.809565659635
vector 2910276  Network.dyn_peer[59]  lookupTimeSig:vector  ETV
2910276	1119545 799 871 1475398 20.9 106.887704252728 24 0.3 9.4 60.3 273.67
vector 2910259  Network.dyn_peer[54]  lookupHopsSig:vector  ETV
2910259	1107083 746 942 1455420 20.95 100.979798771474 23 1 132 557 31623
vector 2910260  Network.dyn_peer[54]  lookupStabilitySig:vector  ETV
2910260	1107829 1058 942 1455420 20.95 100.979798771474 23 0.19999998807907 0.9996730957937 20.987401873135 19.815719903668
vector 2910261  Network.dyn_peer[54]  lookupTimeSig:vector  ETV
2910261	1108887 777 942 1455420 20.95 100.979798771474 23 0.2 13.3 57.9 327.51
vector 2910352  Network.dyn_peer[85]  lookupHopsSig:vector  ETV
2910352	1166161 615 960 1430907 20.96 96.602530715443 19 1 48 377 10587
vector 2910353  Network.dyn_peer[85]  lookupStabilitySig:vector  ETV
2910353	1166776 874 960 1430907 20.96 96.602530715443 19 0.66666665673256 0.99697046191432 18.045484387549 17.269315764968
vector 2910354  Network.dyn_peer[85]  lookupTimeSig:vector  ETV
2910354	1167650 636 960 1430907 20.96 96.602530715443 19 0.1 4.9 39.5 113.57
vector 2910268  Network.dyn_peer[57]  lookupHopsSig:vector  ETV
2910268	1113883 581 992 1280209 20.98 84.15293320095 18 4 51 493 16869
vector 2910269  Network.dyn_peer[57]  lookupStabilitySig:vector  ETV
2910269	1114464 830 992 1280209 20.98 84.15293320095 18 0.19999998807907 0.99217323213816 16.146385548636 15.133981849745
vector 2910270  Network.dyn_peer[57]  lookupTimeSig:vector  ETV
2910270	1115294 598 992 1280209 20.98 84.15293320095 18 0.4 5.2 51 178.64
vector 2910301  Network.dyn_peer[68]  lookupHopsSig:vector  ETV
2910301	1133236 538 1009 735697 20.99 64.022848904797 17 3 95 379 16629
vector 2910302  Network.dyn_peer[68]  lookupStabilitySig:vector  ETV
2910302	1133774 779 1009 735697 20.99 64.022848904797 17 0.39999997615814 0.98705501575023 15.344587049447 14.244183300734
vector 2910303  Network.dyn_peer[68]  lookupTimeSig:vector  ETV
2910303	1134553 560 1009 735697 20.99 64.022848904797 17 0.3 9.6 39.5 173.97
vector 2910304  Network.dyn_peer[69]  lookupHopsSig:vector  ETV
2910304	1135113 733 1023 1024623 21 73.498349747387 23 3 69 442 14626
vector 2910305  Network.dyn_peer[69]  lookupStabilitySig:vector  ETV
2910305	1135846 1053 1023 1024623 21 73.498349747387 23 0.39999997615814 0.99517074832693 21.222779076081 20.013491843875
vector 2910306  Network.dyn_peer[69]  lookupTimeSig:vector  ETV
2910306	1136899 760 1023 1024623 21 73.498349747387 23 0.3 7 46.4 155.26
vector 2910334  Network.dyn_peer[79]  lookupHopsSig:vector  ETV
2910334	1156321 338 1027 1301839 21 85.374647192005 11 2 96 274 14854
vector 2910335  Network.dyn_peer[79]  lookupStabilitySig:vector  ETV
2910335	1156659 496 1027 1301839 21 85.374647192005 11 0.59999999403954 0.99715331429616 9.7278716443107 8.8362786927689
vector 2910336  Network.dyn_peer[79]  lookupTimeSig:vector  ETV
2910336	1157155 353 1027 1301839 21 85.374647192005 11 0.2 9.7 28.4 154.08
vector 2910187  Network.dyn_peer[30]  lookupHopsSig:vector  ETV
2910187	1066457 573 1044 1152702 21.01 78.217616100595 18 3 97 492 26198
vector 2910188  Network.dyn_peer[30]  lookupStabilitySig:vector  ETV
2910188	1067030 810 1044 1152702 21.01 78.217616100595 18 -0.39999997615814 0.99825021869037 15.400180206983 14.956184583142
vector 2910189  Network.dyn_peer[30]  lookupTimeSig:vector  ETV
2910189	1067840 593 1044 1152702 21.01 78.217616100595 18 0.4 9.8 50.9 271.85
vector 2910346  Network.dyn_peer[83]  lookupHopsSig:vector  ETV
2910346	1161812 746 1096 1426467 21.04 95.970371110573 23 1 101 586 26562
vector 2910347  Network.dyn_peer[83]  lookupStabilitySig:vector  ETV
2910347	1162558 1065 1096 1426467 21.04 95.970371110573 23 0.59999999403954 0.9983416252071 21.587756736786 20.503231293801
vector 2910348  Network.dyn_peer[83]  lookupTimeSig:vector  ETV
2910348	1163623 774 1096 1426467 21.04 95.970371110573 23 0.2 10.2 60.8 277.52
vector 2910298  Network.dyn_peer[67]  lookupHopsSig:vector  ETV
2910298	1131130 610 1160 819960 21.08 66.862527050772 19 4 40 368 9176
vector 2910299  Network.dyn_peer[67]  lookupStabilitySig:vector  ETV
2910299	1131740 868 1160 819960 21.08 66.862527050772 19 0.42857140302658 0.99580472940579 17.341241669375 16.206243205853
vector 2910300  Network.dyn_peer[67]  lookupTimeSig:vector  ETV
2910300	1132608 628 1160 819960 21.08 66.862527050772 19 0.4 4.1 38.6 99.22
vector 2910358  Network.dyn_peer[87]  lookupHopsSig:vector  ETV
2910358	1170409 547 1164 1089653 21.08 75.808660397115 17 2 77 398 14750
vector 2910359  Network.dyn_peer[87]  lookupStabilitySig:vector  ETV
2910359	1170956 785 1164 1089653 21.08 75.808660397115 17 0.63888889551163 0.9963194699958 15.766477708239 14.7966697058
vector 2910360  Network.dyn_peer[87]  lookupTimeSig:vector  ETV
2910360	1171741 564 1164 1089653 21.08 75.808660397115 17 0.2 7.8 41.4 155.58
vector 2910193  Network.dyn_peer[32]  lookupHopsSig:vector  ETV
2910193	1069940 509 1240 1289430 21.13 84.664619290914 16 3 65 425 17127
vector 2910194  Network.dyn_peer[32]  lookupStabilitySig:vector  ETV
2910194	1070449 721 1240 1289430 21.13 84.664619290914 16 0 0.99330972041935 14.117408803664 13.418849992765
vector 2910195  Network.dyn_peer[32]  lookupTimeSig:vector  ETV
2910195	1071170 527 1240 1289430 21.13 84.664619290914 16 0.4 6.6 44 179.76
vector 2910253  Network.dyn_peer[52]  lookupHopsSig:vector  ETV
2910253	1103546 608 1245 1282691 21.13 84.28991119289 19 1 42 296 6748
vector 2910254  Network.dyn_peer[52]  lookupStabilitySig:vector  ETV
2910254	1104154 865 1245 1282691 21.13 84.28991119289 19 0.25 0.99705646233633 17.341343988664 16.403200180399
vector 2910255  Network.dyn_peer[52]  lookupTimeSig:vector  ETV
2910255	1105019 631 1245 1282691 21.13 84.28991119289 19 0.2 4.3 31.4 73.46
vector 2910256  Network.dyn_peer[53]  lookupHopsSig:vector  ETV
2910256	1105650 415 1262 1144933 21.14 77.907277109791 13 1 76 309 13189
vector 2910257  Network.dyn_peer[53]  lookupStabilitySig:vector  ETV
2910257	1106065 587 1262 1144933 21.14 77.907277109791 13 0.25 0.99753770395182 11.531059327768 10.776221587596
vector 2910258  Network.dyn_peer[53]  lookupTimeSig:vector  ETV
2910258	1106652 431 1262 1144933 21.14 77.907277109791 13 0.2 7.7 32.1 138.07
vector 2910286  Network.dyn_peer[63]  lookupHopsSig:vector  ETV
2910286	1124950 481 1266 1396929 21.14 92.544127465274 15 5 121 485 30409
vector 2910287  Network.dyn_peer[63]  lookupStabilitySig:vector  ETV
2910287	1125431 681 1266 1396929 21.14 92.544127465274 15 0.375 0.99589638365433 13.249646417331 12.094631395613
vector 2910288  Network.dyn_peer[63]  lookupTimeSig:vector  ETV
2910288	1126112 495 1266 1396929 21.14 92.544127465274 15 0.5 12.2 49.9 313.83
vector 2910211  Network.dyn_peer[38]  lookupHopsSig:vector  ETV
2910211	1079291 444 1362 1035231 21.19 73.864354183465 14 2 80 309 11745
vector 2910212  Network.dyn_peer[38]  lookupStabilitySig:vector  ETV
2910212	1079735 643 1362 1035231 21.19 73.864354183465 14 0.11111110448837 0.99898201564793 12.211752385017 11.346308200657
vector 2910213  Network.dyn_peer[38]  lookupTimeSig:vector  ETV
2910213	1080378 461 1362 1035231 21.19 73.864354183465 14 0.3 8.1 32.2 123.6
vector 2910214  Network.dyn_peer[39]  lookupHopsSig:vector  ETV
2910214	1080839 576 1380 1200727 21.2 80.251407364894 18 2 77 420 15244
vector 2910215  Network.dyn_peer[39]  lookupStabilitySig:vector  ETV
2910215	1081415 831 1380 1200727 21.2 80.251407364894 18 0.11111110448837 0.99174816627055 16.210479350761 15.356867894343
vector 2910216  Network.dyn_peer[39]  lookupTimeSig:vector  ETV
2910216	1082246 594 1380 1200727 21.2 80.251407364894 18 0.3 7.8 43.7 160.85
vector 2910244  Network.dyn_peer[49]  lookupHopsSig:vector  ETV
2910244	1098376 365 1384 262674 21.2 44.487595128925 12 3 40 188 4850
vector 2910245  Network.dyn_peer[49]  lookupStabilitySig:vector  ETV
2910245	1098741 538 1384 262674 21.2 44.487595128925 12 0.22222220897675 0.98527004942298 10.282517660409 9.3182394347789
vector 2910246  Network.dyn_peer[49]  lookupTimeSig:vector  ETV
2910246	1099279 381 1384 262674 21.2 44.487595128925 12 0.4 4.1 19.9 52.23
vector 2910436  Network.dyn_peer[113]  lookupHopsSig:vector  ETV
2910436	1216723 376 1451 1148405 21.24 78.046082991711 12 1 106 380 22008
vector 2910437  Network.dyn_peer[113]  lookupStabilitySig:vector  ETV
2910437	1217099 545 1451 1148405 21.24 78.046082991711 12 0.69047617912292 0.99209601897746 11.192931768484 10.513733746641
vector 2910438  Network.dyn_peer[113]  lookupTimeSig:vector  ETV
2910438	1217644 389 1451 1148405 21.24 78.046082991711 12 0.1 10.7 39.1 227.77
vector 2910319  Network.dyn_peer[74]  lookupHopsSig:vector  ETV
2910319	1146058 859 1474 1466750 21.25 103.793901815706 26 4 63 603 20681
vector 2910320  Network.dyn_peer[74]  lookupStabilitySig:vector  ETV
2910320	1146917 1226 1474 1466750 21.25 103.793901815706 26 0.44444441795349 0.99890686490107 24.620463810978 23.658929522494
vector 2910321  Network.dyn_peer[74]  lookupTimeSig:vector  ETV
2910321	1148143 882 1474 1466750 21.25 103.793901815706 26 0.5 6.4 62.8 219.02
vector 2910235  Network.dyn_peer[46]  lookupHopsSig:vector  ETV
2910235	1092398 606 1513 1018061 21.27 73.274350878311 19 2 78 441 18971
vector 2910236  Network.dyn_peer[46]  lookupStabilitySig:vector  ETV
2910236	1093004 865 1513 1018061 21.27 73.274350878311 19 0.11111110448837 0.99759036139585 16.998581046937 15.930017267149
vector 2910237  Network.dyn_peer[46]  lookupTimeSig:vector  ETV
2910237	1093869 626 1513 1018061 21.27 73.274350878311 19 0.3 7.9 45.9 198.55
vector 2910337  Network.dyn_peer[80]  lookupHopsSig:vector  ETV
2910337	1157508 560 1583 1162108 21.31 78.600475592561 17 5 54 453 14665
vector 2910338  Network.dyn_peer[80]  lookupStabilitySig:vector  ETV
2910338	1158068 800 1583 1162108 21.31 78.600475592561 17 0.54545453190804 0.99161490704864 15.735689348541 14.801499166427
vector 2910339  Network.dyn_peer[80]  lookupTimeSig:vector  ETV
2910339	1158868 577 1583 1162108 21.31 78.600475592561 17 0.5 5.5 46.9 155.77
vector 2910367  Network.dyn_peer[90]  lookupHopsSig:vector  ETV
2910367	1176264 547 1587 1270131 21.31 83.607008764836 17 4 97 485 23401
vector 2910368  Network.dyn_peer[90]  lookupStabilitySig:vector  ETV