version 2
run Stability2-38-20130528-01:25:30-24168
attr configname Stability2
attr datetime 20130528-01:25:30
attr experiment Stability2
attr inifile omnetpp.ini
attr iterationvars $0=40
attr iterationvars2 "$0=40, $repetition=8"
attr measurement $0=40
attr network Network
attr processid 24168
attr repetition 8
attr replication #8
attr resultdir results
attr runnumber 38
attr seedset 38

vector 1170038  Network.churner  inGoingSizeSig:vector  ETV
vector 1140038  Network.dyn_peer[0]  lookupHopsSig:vector  ETV
vector 1140039  Network.dyn_peer[0]  lookupStabilitySig:vector  ETV
vector 1140040  Network.dyn_peer[0]  lookupTimeSig:vector  ETV
vector 1140059  Network.dyn_peer[7]  lookupHopsSig:vector  ETV
vector 1140060  Network.dyn_peer[7]  lookupStabilitySig:vector  ETV
vector 1140061  Network.dyn_peer[7]  lookupTimeSig:vector  ETV
vector 1140071  Network.dyn_peer[11]  lookupHopsSig:vector  ETV
vector 1140072  Network.dyn_peer[11]  lookupStabilitySig:vector  ETV
vector 1140073  Network.dyn_peer[11]  lookupTimeSig:vector  ETV
vector 1140047  Network.dyn_peer[3]  lookupHopsSig:vector  ETV
vector 1140048  Network.dyn_peer[3]  lookupStabilitySig:vector  ETV
vector 1140049  Network.dyn_peer[3]  lookupTimeSig:vector  ETV
vector 1140089  Network.dyn_peer[17]  lookupHopsSig:vector  ETV
vector 1140090  Network.dyn_peer[17]  lookupStabilitySig:vector  ETV
vector 1140091  Network.dyn_peer[17]  lookupTimeSig:vector  ETV
vector 1140065  Network.dyn_peer[9]  lookupHopsSig:vector  ETV
vector 1140066  Network.dyn_peer[9]  lookupStabilitySig:vector  ETV
vector 1140067  Network.dyn_peer[9]  lookupTimeSig:vector  ETV
vector 1140044  Network.dyn_peer[2]  lookupHopsSig:vector  ETV
vector 1140045  Network.dyn_peer[2]  lookupStabilitySig:vector  ETV
vector 1140046  Network.dyn_peer[2]  lookupTimeSig:vector  ETV
vector 1140083  Network.dyn_peer[15]  lookupHopsSig:vector  ETV
vector 1140084  Network.dyn_peer[15]  lookupStabilitySig:vector  ETV
vector 1140085  Network.dyn_peer[15]  lookupTimeSig:vector  ETV
vector 1140086  Network.dyn_peer[16]  lookupHopsSig:vector  ETV
vector 1140087  Network.dyn_peer[16]  lookupStabilitySig:vector  ETV
vector 1140088  Network.dyn_peer[16]  lookupTimeSig:vector  ETV
vector 1140062  Network.dyn_peer[8]  lookupHopsSig:vector  ETV
vector 1140063  Network.dyn_peer[8]  lookupStabilitySig:vector  ETV
vector 1140064  Network.dyn_peer[8]  lookupTimeSig:vector  ETV
vector 1140092  Network.dyn_peer[18]  lookupHopsSig:vector  ETV
vector 1140093  Network.dyn_peer[18]  lookupStabilitySig:vector  ETV
vector 1140094  Network.dyn_peer[18]  lookupTimeSig:vector  ETV
vector 1140095  Network.dyn_peer[19]  lookupHopsSig:vector  ETV
vector 1140096  Network.dyn_peer[19]  lookupStabilitySig:vector  ETV
vector 1140097  Network.dyn_peer[19]  lookupTimeSig:vector  ETV
vector 1140068  Network.dyn_peer[10]  lookupHopsSig:vector  ETV
vector 1140069  Network.dyn_peer[10]  lookupStabilitySig:vector  ETV
vector 1140070  Network.dyn_peer[10]  lookupTimeSig:vector  ETV
vector 1140128  Network.dyn_peer[30]  lookupHopsSig:vector  ETV
vector 1140129  Network.dyn_peer[30]  lookupStabilitySig:vector  ETV
vector 1140130  Network.dyn_peer[30]  lookupTimeSig:vector  ETV
vector 1140116  Network.dyn_peer[26]  lookupHopsSig:vector  ETV
vector 1140117  Network.dyn_peer[26]  lookupStabilitySig:vector  ETV
vector 1140118  Network.dyn_peer[26]  lookupTimeSig:vector  ETV
vector 1140119  Network.dyn_peer[27]  lookupHopsSig:vector  ETV
vector 1140120  Network.dyn_peer[27]  lookupStabilitySig:vector  ETV
vector 1140121  Network.dyn_peer[27]  lookupTimeSig:vector  ETV
vector 1140152  Network.dyn_peer[38]  lookupHopsSig:vector  ETV
vector 1140153  Network.dyn_peer[38]  lookupStabilitySig:vector  ETV
vector 1140154  Network.dyn_peer[38]  lookupTimeSig:vector  ETV
vector 1140098  Network.dyn_peer[20]  lookupHopsSig:vector  ETV
vector 1140099  Network.dyn_peer[20]  lookupStabilitySig:vector  ETV
vector 1140100  Network.dyn_peer[20]  lookupTimeSig:vector  ETV
vector 1140101  Network.dyn_peer[21]  lookupHopsSig:vector  ETV
vector 1140102  Network.dyn_peer[21]  lookupStabilitySig:vector  ETV
vector 1140103  Network.dyn_peer[21]  lookupTimeSig:vector  ETV
vector 1140074  Network.dyn_peer[12]  lookupHopsSig:vector  ETV
vector 1140075  Network.dyn_peer[12]  lookupStabilitySig:vector  ETV
vector 1140076  Network.dyn_peer[12]  lookupTimeSig:vector  ETV
vector 1140104  Network.dyn_peer[22]  lookupHopsSig:vector  ETV
vector 1140105  Network.dyn_peer[22]  lookupStabilitySig:vector  ETV
vector 1140106  Network.dyn_peer[22]  lookupTimeSig:vector  ETV
vector 1140077  Network.dyn_peer[13]  lookupHopsSig:vector  ETV
vector 1140078  Network.dyn_peer[13]  lookupStabilitySig:vector  ETV
vector 1140079  Network.dyn_peer[13]  lookupTimeSig:vector  ETV
vector 1140053  Network.dyn_peer[5]  lookupHopsSig:vector  ETV
vector 1140054  Network.dyn_peer[5]  lookupStabilitySig:vector  ETV
vector 1140055  Network.dyn_peer[5]  lookupTimeSig:vector  ETV
vector 1140056  Network.dyn_peer[6]  lookupHopsSig:vector  ETV
vector 1140057  Network.dyn_peer[6]  lookupStabilitySig:vector  ETV
vector 1140058  Network.dyn_peer[6]  lookupTimeSig:vector  ETV
vector 1140122  Network.dyn_peer[28]  lookupHopsSig:vector  ETV
vector 1140123  Network.dyn_peer[28]  lookupStabilitySig:vector  ETV
vector 1140124  Network.dyn_peer[28]  lookupTimeSig:vector  ETV
vector 1140041  Network.dyn_peer[1]  lookupHopsSig:vector  ETV
vector 1140042  Network.dyn_peer[1]  lookupStabilitySig:vector  ETV
vector 1140043  Network.dyn_peer[1]  lookupTimeSig:vector  ETV
vector 1140161  Network.dyn_peer[41]  lookupHopsSig:vector  ETV
vector 1140162  Network.dyn_peer[41]  lookupStabilitySig:vector  ETV
vector 1140163  Network.dyn_peer[41]  lookupTimeSig:vector  ETV
vector 1140107  Network.dyn_peer[23]  lookupHopsSig:vector  ETV
vector 1140108  Network.dyn_peer[23]  lookupStabilitySig:vector  ETV
vector 1140109  Network.dyn_peer[23]  lookupTimeSig:vector  ETV
vector 1140113  Network.dyn_peer[25]  lookupHopsSig:vector  ETV
vector 1140114  Network.dyn_peer[25]  lookupStabilitySig:vector  ETV
vector 1140115  Network.dyn_peer[25]  lookupTimeSig:vector  ETV
vector 1140146  Network.dyn_peer[36]  lookupHopsSig:vector  ETV
vector 1140147  Network.dyn_peer[36]  lookupStabilitySig:vector  ETV
vector 1140148  Network.dyn_peer[36]  lookupTimeSig:vector  ETV
vector 1140149  Network.dyn_peer[37]  lookupHopsSig:vector  ETV
vector 1140150  Network.dyn_peer[37]  lookupStabilitySig:vector  ETV
vector 1140151  Network.dyn_peer[37]  lookupTimeSig:vector  ETV
vector 1140125  Network.dyn_peer[29]  lookupHopsSig:vector  ETV
vector 1140126  Network.dyn_peer[29]  lookupStabilitySig:vector  ETV
vector 1140127  Network.dyn_peer[29]  lookupTimeSig:vector  ETV
vector 1140131  Network.dyn_peer[31]  lookupHopsSig:vector  ETV
vector 1140132  Network.dyn_peer[31]  lookupStabilitySig:vector  ETV
vector 1140133  Network.dyn_peer[31]  lookupTimeSig:vector  ETV
vector 1140137  Network.dyn_peer[33]  lookupHopsSig:vector  ETV
vector 1140138  Network.dyn_peer[33]  lookupStabilitySig:vector  ETV
vector 1140139  Network.dyn_peer[33]  lookupTimeSig:vector  ETV
vector 1140080  Network.dyn_peer[14]  lookupHopsSig:vector  ETV
vector 1140081  Network.dyn_peer[14]  lookupStabilitySig:vector  ETV
vector 1140082  Network.dyn_peer[14]  lookupTimeSig:vector  ETV
vector 1140110  Network.dyn_peer[24]  lookupHopsSig:vector  ETV
vector 1140111  Network.dyn_peer[24]  lookupStabilitySig:vector  ETV
vector 1140112  Network.dyn_peer[24]  lookupTimeSig:vector  ETV
vector 1140170  Network.dyn_peer[44]  lookupHopsSig:vector  ETV
vector 1140171  Network.dyn_peer[44]  lookupStabilitySig:vector  ETV
vector 1140172  Network.dyn_peer[44]  lookupTimeSig:vector  ETV
vector 1140227  Network.dyn_peer[63]  lookupHopsSig:vector  ETV
vector 1140228  Network.dyn_peer[63]  lookupStabilitySig:vector  ETV
vector 1140229  Network.dyn_peer[63]  lookupTimeSig:vector  ETV
vector 1140143  Network.dyn_peer[35]  lookupHopsSig:vector  ETV
vector 1140144  Network.dyn_peer[35]  lookupStabilitySig:vector  ETV
vector 1140145  Network.dyn_peer[35]  lookupTimeSig:vector  ETV
vector 1140221  Network.dyn_peer[61]  lookupHopsSig:vector  ETV
vector 1140222  Network.dyn_peer[61]  lookupStabilitySig:vector  ETV
vector 1140223  Network.dyn_peer[61]  lookupTimeSig:vector  ETV
vector 1140164  Network.dyn_peer[42]  lookupHopsSig:vector  ETV
vector 1140165  Network.dyn_peer[42]  lookupStabilitySig:vector  ETV
vector 1140166  Network.dyn_peer[42]  lookupTimeSig:vector  ETV
vector 1140167  Network.dyn_peer[43]  lookupHopsSig:vector  ETV
vector 1140168  Network.dyn_peer[43]  lookupStabilitySig:vector  ETV
vector 1140169  Network.dyn_peer[43]  lookupTimeSig:vector  ETV
vector 1140050  Network.dyn_peer[4]  lookupHopsSig:vector  ETV
vector 1140051  Network.dyn_peer[4]  lookupStabilitySig:vector  ETV
vector 1140052  Network.dyn_peer[4]  lookupTimeSig:vector  ETV
vector 1140188  Network.dyn_peer[50]  lookupHopsSig:vector  ETV
vector 1140189  Network.dyn_peer[50]  lookupStabilitySig:vector  ETV
vector 1140190  Network.dyn_peer[50]  lookupTimeSig:vector  ETV
vector 1140191  Network.dyn_peer[51]  lookupHopsSig:vector  ETV
vector 1140192  Network.dyn_peer[51]  lookupStabilitySig:vector  ETV
vector 1140193  Network.dyn_peer[51]  lookupTimeSig:vector  ETV
vector 1140293  Network.dyn_peer[85]  lookupHopsSig:vector  ETV
vector 1140294  Network.dyn_peer[85]  lookupStabilitySig:vector  ETV
vector 1140295  Network.dyn_peer[85]  lookupTimeSig:vector  ETV
vector 1140155  Network.dyn_peer[39]  lookupHopsSig:vector  ETV
vector 1140156  Network.dyn_peer[39]  lookupStabilitySig:vector  ETV
vector 1140157  Network.dyn_peer[39]  lookupTimeSig:vector  ETV
vector 1140284  Network.dyn_peer[82]  lookupHopsSig:vector  ETV
vector 1140285  Network.dyn_peer[82]  lookupStabilitySig:vector  ETV
vector 1140286  Network.dyn_peer[82]  lookupTimeSig:vector  ETV
vector 1140287  Network.dyn_peer[83]  lookupHopsSig:vector  ETV
vector 1140288  Network.dyn_peer[83]  lookupStabilitySig:vector  ETV
vector 1140289  Network.dyn_peer[83]  lookupTimeSig:vector  ETV
vector 1140140  Network.dyn_peer[34]  lookupHopsSig:vector  ETV
vector 1140141  Network.dyn_peer[34]  lookupStabilitySig:vector  ETV
vector 1140142  Network.dyn_peer[34]  lookupTimeSig:vector  ETV
vector 1140203  Network.dyn_peer[55]  lookupHopsSig:vector  ETV
vector 1140204  Network.dyn_peer[55]  lookupStabilitySig:vector  ETV
vector 1140205  Network.dyn_peer[55]  lookupTimeSig:vector  ETV
vector 1140335  Network.dyn_peer[99]  lookupHopsSig:vector  ETV
vector 1140336  Network.dyn_peer[99]  lookupStabilitySig:vector  ETV
vector 1140337  Network.dyn_peer[99]  lookupTimeSig:vector  ETV
vector 1140218  Network.dyn_peer[60]  lookupHopsSig:vector  ETV
vector 1140219  Network.dyn_peer[60]  lookupStabilitySig:vector  ETV
vector 1140220  Network.dyn_peer[60]  lookupTimeSig:vector  ETV
vector 1140197  Network.dyn_peer[53]  lookupHopsSig:vector  ETV
vector 1140198  Network.dyn_peer[53]  lookupStabilitySig:vector  ETV
vector 1140199  Network.dyn_peer[53]  lookupTimeSig:vector  ETV
vector 1140212  Network.dyn_peer[58]  lookupHopsSig:vector  ETV
vector 1140213  Network.dyn_peer[58]  lookupStabilitySig:vector  ETV
vector 1140214  Network.dyn_peer[58]  lookupTimeSig:vector  ETV
vector 1140245  Network.dyn_peer[69]  lookupHopsSig:vector  ETV
vector 1140246  Network.dyn_peer[69]  lookupStabilitySig:vector  ETV
vector 1140247  Network.dyn_peer[69]  lookupTimeSig:vector  ETV
vector 1140278  Network.dyn_peer[80]  lookupHopsSig:vector  ETV
vector 1140279  Network.dyn_peer[80]  lookupStabilitySig:vector  ETV
vector 1140280  Network.dyn_peer[80]  lookupTimeSig:vector  ETV
vector 1140308  Network.dyn_peer[90]  lookupHopsSig:vector  ETV
vector 1140309  Network.dyn_peer[90]  lookupStabilitySig:vector  ETV
vector 1140310  Network.dyn_peer[90]  lookupTimeSig:vector  ETV
vector 1140194  Network.dyn_peer[52]  lookupHopsSig:vector  ETV
vector 1140195  Network.dyn_peer[52]  lookupStabilitySig:vector  ETV
vector 1140196  Network.dyn_peer[52]  lookupTimeSig:vector  ETV
vector 1140344  Network.dyn_peer[102]  lookupHopsSig:vector  ETV
vector 1140345  Network.dyn_peer[102]  lookupStabilitySig:vector  ETV
vector 1140346  Network.dyn_peer[102]  lookupTimeSig:vector  ETV
vector 1140263  Network.dyn_peer[75]  lookupHopsSig:vector  ETV
vector 1140264  Network.dyn_peer[75]  lookupStabilitySig:vector  ETV
vector 1140265  Network.dyn_peer[75]  lookupTimeSig:vector  ETV
vector 1140299  Network.dyn_peer[87]  lookupHopsSig:vector  ETV
vector 1140300  Network.dyn_peer[87]  lookupStabilitySig:vector  ETV
vector 1140301  Network.dyn_peer[87]  lookupTimeSig:vector  ETV
vector 1140392  Network.dyn_peer[118]  lookupHopsSig:vector  ETV
vector 1140393  Network.dyn_peer[118]  lookupStabilitySig:vector  ETV
vector 1140394  Network.dyn_peer[118]  lookupTimeSig:vector  ETV
vector 1140365  Network.dyn_peer[109]  lookupHopsSig:vector  ETV
vector 1140366  Network.dyn_peer[109]  lookupStabilitySig:vector  ETV
vector 1140367  Network.dyn_peer[109]  lookupTimeSig:vector  ETV
vector 1140281  Network.dyn_peer[81]  lookupHopsSig:vector  ETV
vector 1140282  Network.dyn_peer[81]  lookupStabilitySig:vector  ETV
vector 1140283  Network.dyn_peer[81]  lookupTimeSig:vector  ETV
vector 1140311  Network.dyn_peer[91]  lookupHopsSig:vector  ETV
vector 1140312  Network.dyn_peer[91]  lookupStabilitySig:vector  ETV
vector 1140313  Network.dyn_peer[91]  lookupTimeSig:vector  ETV
vector 1140224  Network.dyn_peer[62]  lookupHopsSig:vector  ETV
vector 1140225  Network.dyn_peer[62]  lookupStabilitySig:vector  ETV
vector 1140226  Network.dyn_peer[62]  lookupTimeSig:vector  ETV
vector 1140290  Network.dyn_peer[84]  lookupHopsSig:vector  ETV
vector 1140291  Network.dyn_peer[84]  lookupStabilitySig:vector  ETV
vector 1140292  Network.dyn_peer[84]  lookupTimeSig:vector  ETV
vector 1140350  Network.dyn_peer[104]  lookupHopsSig:vector  ETV
vector 1140351  Network.dyn_peer[104]  lookupStabilitySig:vector  ETV
vector 1140352  Network.dyn_peer[104]  lookupTimeSig:vector  ETV
vector 1140206  Network.dyn_peer[56]  lookupHopsSig:vector  ETV
vector 1140207  Network.dyn_peer[56]  lookupStabilitySig:vector  ETV
vector 1140208  Network.dyn_peer[56]  lookupTimeSig:vector  ETV
vector 1140332  Network.dyn_peer[98]  lookupHopsSig:vector  ETV
vector 1140333  Network.dyn_peer[98]  lookupStabilitySig:vector  ETV
vector 1140334  Network.dyn_peer[98]  lookupTimeSig:vector  ETV
vector 1140353  Network.dyn_peer[105]  lookupHopsSig:vector  ETV
vector 1140354  Network.dyn_peer[105]  lookupStabilitySig:vector  ETV
vector 1140355  Network.dyn_peer[105]  lookupTimeSig:vector  ETV
vector 1140326  Network.dyn_peer[96]  lookupHopsSig:vector  ETV
vector 1140327  Network.dyn_peer[96]  lookupStabilitySig:vector  ETV
vector 1140328  Network.dyn_peer[96]  lookupTimeSig:vector  ETV
vector 1140179  Network.dyn_peer[47]  lookupHopsSig:vector  ETV
vector 1140180  Network.dyn_peer[47]  lookupStabilitySig:vector  ETV
vector 1140181  Network.dyn_peer[47]  lookupTimeSig:vector  ETV
vector 1140242  Network.dyn_peer[68]  lookupHopsSig:vector  ETV
vector 1140243  Network.dyn_peer[68]  lookupStabilitySig:vector  ETV
vector 1140244  Network.dyn_peer[68]  lookupTimeSig:vector  ETV
vector 1140422  Network.dyn_peer[128]  lookupHopsSig:vector  ETV
vector 1140423  Network.dyn_peer[128]  lookupStabilitySig:vector  ETV
vector 1140424  Network.dyn_peer[128]  lookupTimeSig:vector  ETV
vector 1140398  Network.dyn_peer[120]  lookupHopsSig:vector  ETV
vector 1140399  Network.dyn_peer[120]  lookupStabilitySig:vector  ETV
vector 1140400  Network.dyn_peer[120]  lookupTimeSig:vector  ETV
vector 1140341  Network.dyn_peer[101]  lookupHopsSig:vector  ETV
vector 1140342  Network.dyn_peer[101]  lookupStabilitySig:vector  ETV
vector 1140343  Network.dyn_peer[101]  lookupTimeSig:vector  ETV
vector 1140134  Network.dyn_peer[32]  lookupHopsSig:vector  ETV
vector 1140135  Network.dyn_peer[32]  lookupStabilitySig:vector  ETV
vector 1140136  Network.dyn_peer[32]  lookupTimeSig:vector  ETV
vector 1140464  Network.dyn_peer[142]  lookupHopsSig:vector  ETV
vector 1140465  Network.dyn_peer[142]  lookupStabilitySig:vector  ETV
vector 1140466  Network.dyn_peer[142]  lookupTimeSig:vector  ETV
vector 1140260  Network.dyn_peer[74]  lookupHopsSig:vector  ETV
vector 1140261  Network.dyn_peer[74]  lookupStabilitySig:vector  ETV
vector 1140262  Network.dyn_peer[74]  lookupTimeSig:vector  ETV
vector 1140233  Network.dyn_peer[65]  lookupHopsSig:vector  ETV
vector 1140234  Network.dyn_peer[65]  lookupStabilitySig:vector  ETV
vector 1140235  Network.dyn_peer[65]  lookupTimeSig:vector  ETV
vector 1140209  Network.dyn_peer[57]  lookupHopsSig:vector  ETV
vector 1140210  Network.dyn_peer[57]  lookupStabilitySig:vector  ETV
vector 1140211  Network.dyn_peer[57]  lookupTimeSig:vector  ETV
vector 1140272  Network.dyn_peer[78]  lookupHopsSig:vector  ETV
vector 1140273  Network.dyn_peer[78]  lookupStabilitySig:vector  ETV
vector 1140274  Network.dyn_peer[78]  lookupTimeSig:vector  ETV
vector 1140371  Network.dyn_peer[111]  lookupHopsSig:vector  ETV
vector 1140372  Network.dyn_peer[111]  lookupStabilitySig:vector  ETV
vector 1140373  Network.dyn_peer[111]  lookupTimeSig:vector  ETV
vector 1140404  Network.dyn_peer[122]  lookupHopsSig:vector  ETV
vector 1140405  Network.dyn_peer[122]  lookupStabilitySig:vector  ETV
vector 1140406  Network.dyn_peer[122]  lookupTimeSig:vector  ETV
vector 1140356  Network.dyn_peer[106]  lookupHopsSig:vector  ETV
vector 1140357  Network.dyn_peer[106]  lookupStabilitySig:vector  ETV
vector 1140358  Network.dyn_peer[106]  lookupTimeSig:vector  ETV
vector 1140416  Network.dyn_peer[126]  lookupHopsSig:vector  ETV
vector 1140417  Network.dyn_peer[126]  lookupStabilitySig:vector  ETV
vector 1140418  Network.dyn_peer[126]  lookupTimeSig:vector  ETV
vector 1140449  Network.dyn_peer[137]  lookupHopsSig:vector  ETV
vector 1140450  Network.dyn_peer[137]  lookupStabilitySig:vector  ETV
vector 1140451  Network.dyn_peer[137]  lookupTimeSig:vector  ETV
vector 1140452  Network.dyn_peer[138]  lookupHopsSig:vector  ETV
vector 1140453  Network.dyn_peer[138]  lookupStabilitySig:vector  ETV
vector 1140454  Network.dyn_peer[138]  lookupTimeSig:vector  ETV
vector 1140215  Network.dyn_peer[59]  lookupHopsSig:vector  ETV
vector 1140216  Network.dyn_peer[59]  lookupStabilitySig:vector  ETV
vector 1140217  Network.dyn_peer[59]  lookupTimeSig:vector  ETV
vector 1140338  Network.dyn_peer[100]  lookupHopsSig:vector  ETV
vector 1140339  Network.dyn_peer[100]  lookupStabilitySig:vector  ETV
vector 1140340  Network.dyn_peer[100]  lookupTimeSig:vector  ETV
vector 1140488  Network.dyn_peer[150]  lookupHopsSig:vector  ETV
vector 1140489  Network.dyn_peer[150]  lookupStabilitySig:vector  ETV
vector 1140490  Network.dyn_peer[150]  lookupTimeSig:vector  ETV
vector 1140251  Network.dyn_peer[71]  lookupHopsSig:vector  ETV
vector 1140252  Network.dyn_peer[71]  lookupStabilitySig:vector  ETV
vector 1140253  Network.dyn_peer[71]  lookupTimeSig:vector  ETV
vector 1140491  Network.dyn_peer[151]  lookupHopsSig:vector  ETV
vector 1140492  Network.dyn_peer[151]  lookupStabilitySig:vector  ETV
vector 1140493  Network.dyn_peer[151]  lookupTimeSig:vector  ETV
vector 1140257  Network.dyn_peer[73]  lookupHopsSig:vector  ETV
vector 1140258  Network.dyn_peer[73]  lookupStabilitySig:vector  ETV
vector 1140259  Network.dyn_peer[73]  lookupTimeSig:vector  ETV
vector 1140323  Network.dyn_peer[95]  lookupHopsSig:vector  ETV
vector 1140324  Network.dyn_peer[95]  lookupStabilitySig:vector  ETV
vector 1140325  Network.dyn_peer[95]  lookupTimeSig:vector  ETV
vector 1140359  Network.dyn_peer[107]  lookupHopsSig:vector  ETV
vector 1140360  Network.dyn_peer[107]  lookupStabilitySig:vector  ETV
vector 1140361  Network.dyn_peer[107]  lookupTimeSig:vector  ETV
vector 1140389  Network.dyn_peer[117]  lookupHopsSig:vector  ETV
vector 1140390  Network.dyn_peer[117]  lookupStabilitySig:vector  ETV
vector 1140391  Network.dyn_peer[117]  lookupTimeSig:vector  ETV
vector 1140395  Network.dyn_peer[119]  lookupHopsSig:vector  ETV
vector 1140396  Network.dyn_peer[119]  lookupStabilitySig:vector  ETV
vector 1140397  Network.dyn_peer[119]  lookupTimeSig:vector  ETV
vector 1140425  Network.dyn_peer[129]  lookupHopsSig:vector  ETV
vector 1140426  Network.dyn_peer[129]  lookupStabilitySig:vector  ETV
vector 1140427  Network.dyn_peer[129]  lookupTimeSig:vector  ETV
vector 1140428  Network.dyn_peer[130]  lookupHopsSig:vector  ETV
vector 1140429  Network.dyn_peer[130]  lookupStabilitySig:vector  ETV
vector 1140430  Network.dyn_peer[130]  lookupTimeSig:vector  ETV
vector 1140431  Network.dyn_peer[131]  lookupHopsSig:vector  ETV
vector 1140432  Network.dyn_peer[131]  lookupStabilitySig:vector  ETV
vector 1140433  Network.dyn_peer[131]  lookupTimeSig:vector  ETV
vector 1140314  Network.dyn_peer[92]  lookupHopsSig:vector  ETV
vector 1140315  Network.dyn_peer[92]  lookupStabilitySig:vector  ETV
vector 1140316  Network.dyn_peer[92]  lookupTimeSig:vector  ETV
vector 1140347  Network.dyn_peer[103]  lookupHopsSig:vector  ETV
vector 1140348  Network.dyn_peer[103]  lookupStabilitySig:vector  ETV
vector 1140349  Network.dyn_peer[103]  lookupTimeSig:vector  ETV
vector 1140407  Network.dyn_peer[123]  lookupHopsSig:vector  ETV
vector 1140408  Network.dyn_peer[123]  lookupStabilitySig:vector  ETV
vector 1140409  Network.dyn_peer[123]  lookupTimeSig:vector  ETV
vector 1140470  Network.dyn_peer[144]  lookupHopsSig:vector  ETV
vector 1140471  Network.dyn_peer[144]  lookupStabilitySig:vector  ETV
vector 1140472  Network.dyn_peer[144]  lookupTimeSig:vector  ETV
vector 1140383  Network.dyn_peer[115]  lookupHopsSig:vector  ETV
vector 1140384  Network.dyn_peer[115]  lookupStabilitySig:vector  ETV
vector 1140385  Network.dyn_peer[115]  lookupTimeSig:vector  ETV
vector 1140473  Network.dyn_peer[145]  lookupHopsSig:vector  ETV
vector 1140474  Network.dyn_peer[145]  lookupStabilitySig:vector  ETV
vector 1140475  Network.dyn_peer[145]  lookupTimeSig:vector  ETV
vector 1140434  Network.dyn_peer[132]  lookupHopsSig:vector  ETV
vector 1140435  Network.dyn_peer[132]  lookupStabilitySig:vector  ETV
vector 1140436  Network.dyn_peer[132]  lookupTimeSig:vector  ETV
vector 1140524  Network.dyn_peer[162]  lookupHopsSig:vector  ETV
vector 1140525  Network.dyn_peer[162]  lookupStabilitySig:vector  ETV
vector 1140526  Network.dyn_peer[162]  lookupTimeSig:vector  ETV
vector 1140230  Network.dyn_peer[64]  lookupHopsSig:vector  ETV
vector 1140231  Network.dyn_peer[64]  lookupStabilitySig:vector  ETV
vector 1140232  Network.dyn_peer[64]  lookupTimeSig:vector  ETV
vector 1140320  Network.dyn_peer[94]  lookupHopsSig:vector  ETV
vector 1140321  Network.dyn_peer[94]  lookupStabilitySig:vector  ETV
vector 1140322  Network.dyn_peer[94]  lookupTimeSig:vector  ETV
vector 1140380  Network.dyn_peer[114]  lookupHopsSig:vector  ETV
vector 1140381  Network.dyn_peer[114]  lookupStabilitySig:vector  ETV
vector 1140382  Network.dyn_peer[114]  lookupTimeSig:vector  ETV
vector 1140443  Network.dyn_peer[135]  lookupHopsSig:vector  ETV
vector 1140444  Network.dyn_peer[135]  lookupStabilitySig:vector  ETV
vector 1140445  Network.dyn_peer[135]  lookupTimeSig:vector  ETV
vector 1140176  Network.dyn_peer[46]  lookupHopsSig:vector  ETV
vector 1140177  Network.dyn_peer[46]  lookupStabilitySig:vector  ETV
vector 1140178  Network.dyn_peer[46]  lookupTimeSig:vector  ETV
vector 1140446  Network.dyn_peer[136]  lookupHopsSig:vector  ETV
vector 1140447  Network.dyn_peer[136]  lookupStabilitySig:vector  ETV
vector 1140448  Network.dyn_peer[136]  lookupTimeSig:vector  ETV
vector 1140239  Network.dyn_peer[67]  lookupHopsSig:vector  ETV
vector 1140240  Network.dyn_peer[67]  lookupStabilitySig:vector  ETV
vector 1140241  Network.dyn_peer[67]  lookupTimeSig:vector  ETV
vector 1140419  Network.dyn_peer[127]  lookupHopsSig:vector  ETV
vector 1140420  Network.dyn_peer[127]  lookupStabilitySig:vector  ETV
vector 1140421  Network.dyn_peer[127]  lookupTimeSig:vector  ETV
vector 1140509  Network.dyn_peer[157]  lookupHopsSig:vector  ETV
vector 1140510  Network.dyn_peer[157]  lookupStabilitySig:vector  ETV
vector 1140511  Network.dyn_peer[157]  lookupTimeSig:vector  ETV
vector 1140455  Network.dyn_peer[139]  lookupHopsSig:vector  ETV
vector 1140456  Network.dyn_peer[139]  lookupStabilitySig:vector  ETV
vector 1140457  Network.dyn_peer[139]  lookupTimeSig:vector  ETV
vector 1140458  Network.dyn_peer[140]  lookupHopsSig:vector  ETV
vector 1140459  Network.dyn_peer[140]  lookupStabilitySig:vector  ETV
vector 1140460  Network.dyn_peer[140]  lookupTimeSig:vector  ETV
vector 1140518  Network.dyn_peer[160]  lookupHopsSig:vector  ETV
vector 1140519  Network.dyn_peer[160]  lookupStabilitySig:vector  ETV
vector 1140520  Network.dyn_peer[160]  lookupTimeSig:vector  ETV
vector 1140548  Network.dyn_peer[170]  lookupHopsSig:vector  ETV
vector 1140549  Network.dyn_peer[170]  lookupStabilitySig:vector  ETV
vector 1140550  Network.dyn_peer[170]  lookupTimeSig:vector  ETV
vector 1140461  Network.dyn_peer[141]  lookupHopsSig:vector  ETV
vector 1140462  Network.dyn_peer[141]  lookupStabilitySig:vector  ETV
vector 1140463  Network.dyn_peer[141]  lookupTimeSig:vector  ETV
vector 1140521  Network.dyn_peer[161]  lookupHopsSig:vector  ETV
vector 1140522  Network.dyn_peer[161]  lookupStabilitySig:vector  ETV
vector 1140523  Network.dyn_peer[161]  lookupTimeSig:vector  ETV
vector 1140374  Network.dyn_peer[112]  lookupHopsSig:vector  ETV
vector 1140375  Network.dyn_peer[112]  lookupStabilitySig:vector  ETV
vector 1140376  Network.dyn_peer[112]  lookupTimeSig:vector  ETV
vector 1140557  Network.dyn_peer[173]  lookupHopsSig:vector  ETV
vector 1140558  Network.dyn_peer[173]  lookupStabilitySig:vector  ETV
vector 1140559  Network.dyn_peer[173]  lookupTimeSig:vector  ETV
vector 1140296  Network.dyn_peer[86]  lookupHopsSig:vector  ETV
vector 1140297  Network.dyn_peer[86]  lookupStabilitySig:vector  ETV
vector 1140298  Network.dyn_peer[86]  lookupTimeSig:vector  ETV
vector 1140476  Network.dyn_peer[146]  lookupHopsSig:vector  ETV
vector 1140477  Network.dyn_peer[146]  lookupStabilitySig:vector  ETV
vector 1140478  Network.dyn_peer[146]  lookupTimeSig:vector  ETV
vector 1140566  Network.dyn_peer[176]  lookupHopsSig:vector  ETV
vector 1140567  Network.dyn_peer[176]  lookupStabilitySig:vector  ETV
vector 1140568  Network.dyn_peer[176]  lookupTimeSig:vector  ETV
vector 1140596  Network.dyn_peer[186]  lookupHopsSig:vector  ETV
vector 1140597  Network.dyn_peer[186]  lookupStabilitySig:vector  ETV
vector 1140598  Network.dyn_peer[186]  lookupTimeSig:vector  ETV
vector 1140329  Network.dyn_peer[97]  lookupHopsSig:vector  ETV
vector 1140330  Network.dyn_peer[97]  lookupStabilitySig:vector  ETV
vector 1140331  Network.dyn_peer[97]  lookupTimeSig:vector  ETV
vector 1140302  Network.dyn_peer[88]  lookupHopsSig:vector  ETV
vector 1140303  Network.dyn_peer[88]  lookupStabilitySig:vector  ETV
vector 1140304  Network.dyn_peer[88]  lookupTimeSig:vector  ETV
vector 1140485  Network.dyn_peer[149]  lookupHopsSig:vector  ETV
vector 1140486  Network.dyn_peer[149]  lookupStabilitySig:vector  ETV
vector 1140487  Network.dyn_peer[149]  lookupTimeSig:vector  ETV
vector 1140401  Network.dyn_peer[121]  lookupHopsSig:vector  ETV
vector 1140402  Network.dyn_peer[121]  lookupStabilitySig:vector  ETV
vector 1140403  Network.dyn_peer[121]  lookupTimeSig:vector  ETV
vector 1140317  Network.dyn_peer[93]  lookupHopsSig:vector  ETV
vector 1140318  Network.dyn_peer[93]  lookupStabilitySig:vector  ETV
vector 1140319  Network.dyn_peer[93]  lookupTimeSig:vector  ETV
vector 1140467  Network.dyn_peer[143]  lookupHopsSig:vector  ETV
vector 1140468  Network.dyn_peer[143]  lookupStabilitySig:vector  ETV
vector 1140469  Network.dyn_peer[143]  lookupTimeSig:vector  ETV
vector 1140386  Network.dyn_peer[116]  lookupHopsSig:vector  ETV
vector 1140387  Network.dyn_peer[116]  lookupStabilitySig:vector  ETV
vector 1140388  Network.dyn_peer[116]  lookupTimeSig:vector  ETV
vector 1140602  Network.dyn_peer[188]  lookupHopsSig:vector  ETV
vector 1140603  Network.dyn_peer[188]  lookupStabilitySig:vector  ETV
vector 1140604  Network.dyn_peer[188]  lookupTimeSig:vector  ETV
vector 1140515  Network.dyn_peer[159]  lookupHopsSig:vector  ETV
vector 1140516  Network.dyn_peer[159]  lookupStabilitySig:vector  ETV
vector 1140517  Network.dyn_peer[159]  lookupTimeSig:vector  ETV
vector 1140554  Network.dyn_peer[172]  lookupHopsSig:vector  ETV
vector 1140555  Network.dyn_peer[172]  lookupStabilitySig:vector  ETV
vector 1140556  Network.dyn_peer[172]  lookupTimeSig:vector  ETV
vector 1140437  Network.dyn_peer[133]  lookupHopsSig:vector  ETV
vector 1140438  Network.dyn_peer[133]  lookupStabilitySig:vector  ETV
vector 1140439  Network.dyn_peer[133]  lookupTimeSig:vector  ETV
vector 1140647  Network.dyn_peer[203]  lookupHopsSig:vector  ETV
vector 1140648  Network.dyn_peer[203]  lookupStabilitySig:vector  ETV
vector 1140649  Network.dyn_peer[203]  lookupTimeSig:vector  ETV
vector 1140200  Network.dyn_peer[54]  lookupHopsSig:vector  ETV
vector 1140201  Network.dyn_peer[54]  lookupStabilitySig:vector  ETV
vector 1140202  Network.dyn_peer[54]  lookupTimeSig:vector  ETV
vector 1140500  Network.dyn_peer[154]  lookupHopsSig:vector  ETV
vector 1140501  Network.dyn_peer[154]  lookupStabilitySig:vector  ETV
vector 1140502  Network.dyn_peer[154]  lookupTimeSig:vector  ETV
vector 1140650  Network.dyn_peer[204]  lookupHopsSig:vector  ETV
vector 1140651  Network.dyn_peer[204]  lookupStabilitySig:vector  ETV
vector 1140652  Network.dyn_peer[204]  lookupTimeSig:vector  ETV
vector 1140659  Network.dyn_peer[207]  lookupHopsSig:vector  ETV
vector 1140660  Network.dyn_peer[207]  lookupStabilitySig:vector  ETV
vector 1140661  Network.dyn_peer[207]  lookupTimeSig:vector  ETV
vector 1140362  Network.dyn_peer[108]  lookupHopsSig:vector  ETV
vector 1140363  Network.dyn_peer[108]  lookupStabilitySig:vector  ETV
vector 1140364  Network.dyn_peer[108]  lookupTimeSig:vector  ETV