file 407816 1369933126                                          
version 2
run Stability2-49-20130528-01:26:54-24168
attr configname Stability2
attr datetime 20130528-01:26:54
attr experiment Stability2
attr inifile omnetpp.ini
attr iterationvars $0=50
attr iterationvars2 "$0=50, $repetition=9"
attr measurement $0=50
attr network Network
attr processid 24168
attr repetition 9
attr replication #9
attr resultdir results
attr runnumber 49
attr seedset 49
vector 1500049  Network.churner  inGoingSizeSig:vector  ETV
1500049	396478 11338 11 15563 20 25 501 0 389 107911 29854827
vector 1470052  Network.dyn_peer[1]  lookupHopsSig:vector  ETV
1470052	100861 239 21 30408 20.02 28.30027537264 8 0 18 53 605
vector 1470053  Network.dyn_peer[1]  lookupStabilitySig:vector  ETV
1470053	101100 319 21 30408 20.02 28.30027537264 8 0.125 1 6.1778486203402 5.3721206143437
vector 1470054  Network.dyn_peer[1]  lookupTimeSig:vector  ETV
1470054	101419 251 21 30408 20.02 28.30027537264 8 0 1.9 6 7.18
vector 1470061  Network.dyn_peer[4]  lookupHopsSig:vector  ETV
1470061	103089 134 35 12287 20.05 24.368425732378 5 0 26 36 720
vector 1470062  Network.dyn_peer[4]  lookupStabilitySig:vector  ETV
1470062	103223 181 35 12287 20.05 24.368425732378 5 0.25 1 3.3976190239191 2.6339512133869
vector 1470063  Network.dyn_peer[4]  lookupTimeSig:vector  ETV
1470063	103404 141 35 12287 20.05 24.368425732378 5 0 2.7 4 7.96
vector 1470067  Network.dyn_peer[6]  lookupHopsSig:vector  ETV
1470067	104370 230 45 32044 20.07 28.810468705752 8 0 25 80 1260
vector 1470068  Network.dyn_peer[6]  lookupStabilitySig:vector  ETV
1470068	104600 315 45 32044 20.07 28.810468705752 8 0 1 5.8343213051558 5.0013547015268
vector 1470069  Network.dyn_peer[6]  lookupTimeSig:vector  ETV
1470069	104915 240 45 32044 20.07 28.810468705752 8 0 2.6 8.7 14.27
vector 1470049  Network.dyn_peer[0]  lookupHopsSig:vector  ETV
1470049	100122 210 60 35302 20.11 30.063865641478 7 1 31 89 1809
vector 1470050  Network.dyn_peer[0]  lookupStabilitySig:vector  ETV
1470050	100332 311 60 35302 20.11 30.063865641478 7 0.41666668653488 0.96694215014577 5.0587661750615 3.9069844092476
vector 1470051  Network.dyn_peer[0]  lookupTimeSig:vector  ETV
1470051	100643 218 60 35302 20.11 30.063865641478 7 0.1 3.2 9.5 19.91
vector 1470079  Network.dyn_peer[10]  lookupHopsSig:vector  ETV
1470079	107242 135 66 10230 20.11 23.924572561859 5 0 16 34 406
vector 1470080  Network.dyn_peer[10]  lookupStabilitySig:vector  ETV
1470080	107377 193 66 10230 20.11 23.924572561859 5 0.38888889551163 1 3.5685990303755 2.7968888361681
vector 1470081  Network.dyn_peer[10]  lookupTimeSig:vector  ETV
1470081	107570 141 66 10230 20.11 23.924572561859 5 0 1.7 3.8 4.78
vector 1470055  Network.dyn_peer[2]  lookupHopsSig:vector  ETV
1470055	101670 206 77 22579 20.13 26.409492859916 7 1 14 46 408
vector 1470056  Network.dyn_peer[2]  lookupStabilitySig:vector  ETV
1470056	101876 283 77 22579 20.13 26.409492859916 7 0 0.97701149433851 5.059728756547 4.314715255553
vector 1470057  Network.dyn_peer[2]  lookupTimeSig:vector  ETV
1470057	102159 217 77 22579 20.13 26.409492859916 7 0.1 1.5 5.2 5.04
vector 1470070  Network.dyn_peer[7]  lookupHopsSig:vector  ETV
1470070	105155 197 102 25675 20.18 27.093740065734 7 1 8 41 279
vector 1470071  Network.dyn_peer[7]  lookupStabilitySig:vector  ETV
1470071	105352 279 102 25675 20.18 27.093740065734 7 0.125 0.96618357673287 5.2364810705185 4.4183708547526
vector 1470072  Network.dyn_peer[7]  lookupTimeSig:vector  ETV
1470072	105631 211 102 25675 20.18 27.093740065734 7 0.1 0.9 4.7 3.65
vector 1470073  Network.dyn_peer[8]  lookupHopsSig:vector  ETV
1470073	105842 199 110 29021 20.19 27.914085576596 7 1 17 50 520
vector 1470074  Network.dyn_peer[8]  lookupStabilitySig:vector  ETV
1470074	106041 295 110 29021 20.19 27.914085576596 7 0.10000002384186 0.984375 5.4034721814096 4.7634814899202
vector 1470075  Network.dyn_peer[8]  lookupTimeSig:vector  ETV
1470075	106336 208 110 29021 20.19 27.914085576596 7 0.1 1.8 5.6 6.24
vector 1470082  Network.dyn_peer[11]  lookupHopsSig:vector  ETV
1470082	107711 169 127 34557 20.22 29.737389450772 6 1 44 80 2362
vector 1470083  Network.dyn_peer[11]  lookupStabilitySig:vector  ETV
1470083	107880 257 127 34557 20.22 29.737389450772 6 0.19999998807907 0.97560975700617 4.4699459113181 3.7266080001718
vector 1470084  Network.dyn_peer[11]  lookupTimeSig:vector  ETV
1470084	108137 179 127 34557 20.22 29.737389450772 6 0.1 4.5 8.5 25.25
vector 1470100  Network.dyn_peer[17]  lookupHopsSig:vector  ETV
1470100	111860 328 163 33880 20.28 29.470567659322 11 1 21 74 870
vector 1470101  Network.dyn_peer[17]  lookupStabilitySig:vector  ETV
1470101	112188 478 163 33880 20.28 29.470567659322 11 0.33333331346512 0.99130434822291 9.1802804498002 8.0010306367707
vector 1470102  Network.dyn_peer[17]  lookupTimeSig:vector  ETV
1470102	112666 347 163 33880 20.28 29.470567659322 11 0.1 2.2 8.4 10.26
vector 1470076  Network.dyn_peer[9]  lookupHopsSig:vector  ETV
1470076	106544 196 178 20694 20.3 26.013537591479 7 1 19 50 756
vector 1470077  Network.dyn_peer[9]  lookupStabilitySig:vector  ETV
1470077	106740 298 178 20694 20.3 26.013537591479 7 0.39999997615814 0.9473684206605 5.0702289715409 3.9158626401403
vector 1470078  Network.dyn_peer[9]  lookupTimeSig:vector  ETV
1470078	107038 204 178 20694 20.3 26.013537591479 7 0.2 2 5.6 8.58
vector 1470085  Network.dyn_peer[12]  lookupHopsSig:vector  ETV
1470085	108316 183 203 33863 20.33 29.461793431214 6 2 21 85 1417
vector 1470086  Network.dyn_peer[12]  lookupStabilitySig:vector  ETV
1470086	108499 268 203 33863 20.33 29.461793431214 6 0.30000001192093 0.93693693727255 4.3456111103296 3.4545736504019
vector 1470087  Network.dyn_peer[12]  lookupTimeSig:vector  ETV
1470087	108767 190 203 33863 20.33 29.461793431214 6 0.2 2.2 9 15.88
vector 1470058  Network.dyn_peer[3]  lookupHopsSig:vector  ETV
1470058	102376 201 215 31636 20.34 28.68108296075 7 3 20 78 1138
vector 1470059  Network.dyn_peer[3]  lookupStabilitySig:vector  ETV
1470059	102577 301 215 31636 20.34 28.68108296075 7 0.33333331346512 0.96587030589581 4.7876111716032 3.6641146537248
vector 1470060  Network.dyn_peer[3]  lookupTimeSig:vector  ETV
1470060	102878 211 215 31636 20.34 28.68108296075 7 0.3 2.1 8.4 12.94
vector 1470088  Network.dyn_peer[13]  lookupHopsSig:vector  ETV
1470088	108957 303 219 31318 20.34 28.576351027793 10 1 14 59 533
vector 1470089  Network.dyn_peer[13]  lookupStabilitySig:vector  ETV
1470089	109260 449 219 31318 20.34 28.576351027793 10 0.28571426868439 0.99310344830155 8.0666698273271 6.9495067423565
vector 1470090  Network.dyn_peer[13]  lookupTimeSig:vector  ETV
1470090	109709 320 219 31318 20.34 28.576351027793 10 0.2 1.5 6.8 6.56
vector 1470064  Network.dyn_peer[5]  lookupHopsSig:vector  ETV
1470064	103545 231 239 29604 20.36 28.066915077273 8 3 20 61 725
vector 1470065  Network.dyn_peer[5]  lookupStabilitySig:vector  ETV
1470065	103776 349 239 29604 20.36 28.066915077273 8 0.33333331346512 0.96296296268702 6.0274403989315 4.9634104213079
vector 1470066  Network.dyn_peer[5]  lookupTimeSig:vector  ETV
1470066	104125 245 239 29604 20.36 28.066915077273 8 0.3 2.1 6.8 8.48
vector 1470154  Network.dyn_peer[35]  lookupHopsSig:vector  ETV
1470154	124514 234 245 32262 20.36 28.881486175557 8 0 21 71 901
vector 1470155  Network.dyn_peer[35]  lookupStabilitySig:vector  ETV
1470155	124748 325 245 32262 20.36 28.881486175557 8 0.125 1 6.3060487899929 5.5739346187124
vector 1470156  Network.dyn_peer[35]  lookupTimeSig:vector  ETV
1470156	125073 243 245 32262 20.36 28.881486175557 8 0 2.2 7.8 10.5
vector 1470097  Network.dyn_peer[16]  lookupHopsSig:vector  ETV
1470097	111485 103 253 8703 20.37 23.58388554626 4 2 14 31 313
vector 1470098  Network.dyn_peer[16]  lookupStabilitySig:vector  ETV
1470098	111588 162 253 8703 20.37 23.58388554626 4 0.38461536169052 0.74074074625969 2.4336894452572 1.5583619476496
vector 1470099  Network.dyn_peer[16]  lookupTimeSig:vector  ETV
1470099	111750 110 253 8703 20.37 23.58388554626 4 0.2 1.5 3.4 3.74
vector 1470127  Network.dyn_peer[26]  lookupHopsSig:vector  ETV
1470127	117972 169 257 24511 20.37 26.83544522758 6 1 22 56 834
vector 1470128  Network.dyn_peer[26]  lookupStabilitySig:vector  ETV
1470128	118141 256 257 24511 20.37 26.83544522758 6 0.38888889551163 0.88832487165928 4.6138437837362 3.7254702703236
vector 1470129  Network.dyn_peer[26]  lookupTimeSig:vector  ETV
1470129	118397 178 257 24511 20.37 26.83544522758 6 0.1 2.3 6.1 9.49
vector 1470103  Network.dyn_peer[18]  lookupHopsSig:vector  ETV
1470103	113013 168 276 19642 20.39 25.807551144473 6 2 12 46 418
vector 1470104  Network.dyn_peer[18]  lookupStabilitySig:vector  ETV
1470104	113181 244 276 19642 20.39 25.807551144473 6 0.375 0.9333333298564 4.1265414878726 3.0617561180436
vector 1470105  Network.dyn_peer[18]  lookupTimeSig:vector  ETV
1470105	113425 176 276 19642 20.39 25.807551144473 6 0.2 1.3 5.1 5.11
vector 1470106  Network.dyn_peer[19]  lookupHopsSig:vector  ETV
1470106	113601 166 286 29805 20.4 28.124939022374 6 1 37 59 1529
vector 1470107  Network.dyn_peer[19]  lookupStabilitySig:vector  ETV
1470107	113767 242 286 29805 20.4 28.124939022374 6 0.375 0.98901098873466 4.5614182194695 3.7304456311294
vector 1470108  Network.dyn_peer[19]  lookupTimeSig:vector  ETV
1470108	114009 176 286 29805 20.4 28.124939022374 6 0.2 3.8 6.4 16.48
vector 1470115  Network.dyn_peer[22]  lookupHopsSig:vector  ETV
1470115	115481 106 316 27761 20.43 27.598867460109 4 2 23 47 793
vector 1470116  Network.dyn_peer[22]  lookupStabilitySig:vector  ETV
1470116	115587 151 316 27761 20.43 27.598867460109 4 0.33333331346512 0.9017094001174 2.5850427076221 1.8466909329732
vector 1470117  Network.dyn_peer[22]  lookupTimeSig:vector  ETV
1470117	115738 112 316 27761 20.43 27.598867460109 4 0.2 2.4 5 8.86
vector 1470118  Network.dyn_peer[23]  lookupHopsSig:vector  ETV
1470118	115850 203 329 31728 20.44 28.710668249674 7 2 26 73 1143
vector 1470119  Network.dyn_peer[23]  lookupStabilitySig:vector  ETV
1470119	116053 291 329 31728 20.44 28.710668249674 7 0.5 0.96363636478782 5.3738585785031 4.4070054793041
vector 1470120  Network.dyn_peer[23]  lookupTimeSig:vector  ETV
1470120	116344 213 329 31728 20.44 28.710668249674 7 0.2 2.7 7.9 12.91
vector 1470094  Network.dyn_peer[15]  lookupHopsSig:vector  ETV
1470094	110859 176 348 15885 20.46 25.066869990115 6 1 14 39 409
vector 1470095  Network.dyn_peer[15]  lookupStabilitySig:vector  ETV
1470095	111035 264 348 15885 20.46 25.066869990115 6 0.39999997615814 0.89166666567326 4.2360367625952 3.1521440364824
vector 1470096  Network.dyn_peer[15]  lookupTimeSig:vector  ETV
1470096	111299 186 348 15885 20.46 25.066869990115 6 0.2 1.5 4.4 4.86
vector 1470148  Network.dyn_peer[33]  lookupHopsSig:vector  ETV
1470148	123420 178 416 25053 20.54 26.957047124206 6 2 16 52 584
vector 1470149  Network.dyn_peer[33]  lookupStabilitySig:vector  ETV
1470149	123598 255 416 25053 20.54 26.957047124206 6 0.375 0.92000000178814 4.2520394846797 3.2292131303009
vector 1470150  Network.dyn_peer[33]  lookupTimeSig:vector  ETV
1470150	123853 186 416 25053 20.54 26.957047124206 6 0.2 1.7 5.7 6.89
vector 1470091  Network.dyn_peer[14]  lookupHopsSig:vector  ETV
1470091	110029 234 429 36655 20.55 30.737133345726 8 2 23 89 1377
vector 1470092  Network.dyn_peer[14]  lookupStabilitySig:vector  ETV
1470092	110263 350 429 36655 20.55 30.737133345726 8 0.19999998807907 0.97492163069546 6.0749927144498 5.0622614095783
vector 1470093  Network.dyn_peer[14]  lookupTimeSig:vector  ETV
1470093	110613 246 429 36655 20.55 30.737133345726 8 0.3 2.4 9.6 15.54
vector 1470130  Network.dyn_peer[27]  lookupHopsSig:vector  ETV
1470130	118575 170 458 30541 20.58 28.339473142206 6 1 17 48 584
vector 1470131  Network.dyn_peer[27]  lookupStabilitySig:vector  ETV
1470131	118745 257 458 30541 20.58 28.339473142206 6 0.39999997615814 0.97153024934232 4.5530848894268 3.8043675663461
vector 1470132  Network.dyn_peer[27]  lookupTimeSig:vector  ETV
1470132	119002 180 458 30541 20.58 28.339473142206 6 0.2 1.8 5.3 6.79
vector 1470196  Network.dyn_peer[49]  lookupHopsSig:vector  ETV
1470196	134871 133 482 9732 20.6 23.814291769055 5 1 12 29 259
vector 1470197  Network.dyn_peer[49]  lookupStabilitySig:vector  ETV
1470197	135004 196 482 9732 20.6 23.814291769055 5 0.53333333134651 0.94444444403052 3.8099206201732 3.0138814678006
vector 1470198  Network.dyn_peer[49]  lookupTimeSig:vector  ETV
1470198	135200 142 482 9732 20.6 23.814291769055 5 0.1 1.3 3.3 3.19
vector 1470109  Network.dyn_peer[20]  lookupHopsSig:vector  ETV
1470109	114185 170 494 27014 20.61 27.406723591249 6 3 18 58 768
vector 1470110  Network.dyn_peer[20]  lookupStabilitySig:vector  ETV
1470110	114355 247 494 27014 20.61 27.406723591249 6 0.19999998807907 0.94999999925494 4.0301496498287 3.0844411095977
vector 1470111  Network.dyn_peer[20]  lookupTimeSig:vector  ETV
1470111	114602 178 494 27014 20.61 27.406723591249 6 0.4 1.9 6.3 8.81
vector 1470181  Network.dyn_peer[44]  lookupHopsSig:vector  ETV
1470181	131937 204 536 28111 20.65 27.681960079288 7 2 20 66 890
vector 1470182  Network.dyn_peer[44]  lookupStabilitySig:vector  ETV
1470182	132141 306 536 28111 20.65 27.681960079288 7 0.33333331346512 0.98744769860059 5.5775669151917 4.7953042895163
vector 1470183  Network.dyn_peer[44]  lookupTimeSig:vector  ETV
1470183	132447 215 536 28111 20.65 27.681960079288 7 0.2 2.1 7.2 10.24
vector 1470124  Network.dyn_peer[25]  lookupHopsSig:vector  ETV
1470124	117367 169 549 24493 20.66 26.831242138381 6 2 18 54 700
vector 1470125  Network.dyn_peer[25]  lookupStabilitySig:vector  ETV
1470125	117536 257 549 24493 20.66 26.831242138381 6 0.19999998807907 0.95081967115402 4.3436155840754 3.5465595834988
vector 1470126  Network.dyn_peer[25]  lookupTimeSig:vector  ETV
1470126	117793 179 549 24493 20.66 26.831242138381 6 0.3 1.9 5.9 8.05
vector 1470166  Network.dyn_peer[39]  lookupHopsSig:vector  ETV
1470166	127689 263 597 37877 20.7 31.43584726989 9 1 34 101 2085
vector 1470167  Network.dyn_peer[39]  lookupStabilitySig:vector  ETV
1470167	127952 392 597 37877 20.7 31.43584726989 9 0.39999997615814 0.98626373615116 7.3547616591677 6.3395248236683
vector 1470168  Network.dyn_peer[39]  lookupTimeSig:vector  ETV
1470168	128344 277 597 37877 20.7 31.43584726989 9 0.2 3.5 10.9 22.89
vector 1470139  Network.dyn_peer[30]  lookupHopsSig:vector  ETV
1470139	120588 497 611 42637 20.71 39.401319275077 16 3 23 167 2151
vector 1470140  Network.dyn_peer[30]  lookupStabilitySig:vector  ETV
1470140	121085 713 611 42637 20.71 39.401319275077 16 0.19999998807907 0.98799999989569 13.85407316871 12.703322928661
vector 1470141  Network.dyn_peer[30]  lookupTimeSig:vector  ETV
1470141	121798 516 611 42637 20.71 39.401319275077 16 0.4 2.4 18.2 24.92
vector 1470229  Network.dyn_peer[60]  lookupHopsSig:vector  ETV
1470229	142267 73 615 7569 20.71 23.313115478111 3 1 17 25 339
vector 1470230  Network.dyn_peer[60]  lookupStabilitySig:vector  ETV
1470230	142340 117 615 7569 20.71 23.313115478111 3 0.58823528885841 0.79999999701977 2.0104575008154 1.3731812350513
vector 1470231  Network.dyn_peer[60]  lookupTimeSig:vector  ETV
1470231	142457 78 615 7569 20.71 23.313115478111 3 0.1 1.8 2.7 3.89
vector 1470175  Network.dyn_peer[42]  lookupHopsSig:vector  ETV
1470175	129539 391 640 41803 20.73 36.105096385521 13 1 21 101 1099
vector 1470176  Network.dyn_peer[42]  lookupStabilitySig:vector  ETV
1470176	129930 557 640 41803 20.73 36.105096385521 13 0.5 0.98689956311136 11.693123361096 10.808987128417
vector 1470177  Network.dyn_peer[42]  lookupTimeSig:vector  ETV
1470177	130487 412 640 41803 20.73 36.105096385521 13 0.2 2.2 11.3 13.07
vector 1470238  Network.dyn_peer[63]  lookupHopsSig:vector  ETV
1470238	144208 168 655 21898 20.74 26.262131729789 6 1 9 30 220
vector 1470239  Network.dyn_peer[63]  lookupStabilitySig:vector  ETV
1470239	144376 246 655 21898 20.74 26.262131729789 6 0.59090909361839 0.97222222201526 5.0277896467596 4.3210999323562
vector 1470240  Network.dyn_peer[63]  lookupTimeSig:vector  ETV
1470240	144622 176 655 21898 20.74 26.262131729789 6 0.1 1 3.5 2.83
vector 1470112  Network.dyn_peer[21]  lookupHopsSig:vector  ETV
1470112	114780 202 747 36222 20.82 30.50770032797 7 5 21 73 1013
vector 1470113  Network.dyn_peer[21]  lookupStabilitySig:vector  ETV
1470113	114982 289 747 36222 20.82 30.50770032797 7 0 0.96762590110302 5.2272424660623 4.6348219155804
vector 1470114  Network.dyn_peer[21]  lookupTimeSig:vector  ETV
1470114	115271 210 747 36222 20.82 30.50770032797 7 0.6 2.2 7.9 11.53
vector 1470205  Network.dyn_peer[52]  lookupHopsSig:vector  ETV
1470205	136531 300 762 39602 20.83 32.812088956981 10 2 28 93 1385
vector 1470206  Network.dyn_peer[52]  lookupStabilitySig:vector  ETV
1470206	136831 409 762 39602 20.83 32.812088956981 10 0.5 0.98205128125846 8.5833289846778 7.6179412792561
vector 1470207  Network.dyn_peer[52]  lookupTimeSig:vector  ETV
1470207	137240 314 762 39602 20.83 32.812088956981 10 0.3 2.9 10.2 15.74
vector 1470121  Network.dyn_peer[24]  lookupHopsSig:vector  ETV
1470121	116557 231 795 21956 20.85 26.273006831583 8 1 15 49 481
vector 1470122  Network.dyn_peer[24]  lookupStabilitySig:vector  ETV
1470122	116788 334 795 21956 20.85 26.273006831583 8 0 0.97826086916029 6.0593626275659 5.3364753973517
vector 1470123  Network.dyn_peer[24]  lookupTimeSig:vector  ETV
1470123	117122 245 795 21956 20.85 26.273006831583 8 0.2 1.6 5.6 5.74
vector 1470241  Network.dyn_peer[64]  lookupHopsSig:vector  ETV
1470241	144798 139 800 21865 20.85 26.257589212743 5 2 26 52 914
vector 1470242  Network.dyn_peer[64]  lookupStabilitySig:vector  ETV
1470242	144937 212 800 21865 20.85 26.257589212743 5 0.63888889551163 0.93457943946123 3.87749761343 3.0883372446839
vector 1470243  Network.dyn_peer[64]  lookupTimeSig:vector  ETV
1470243	145149 147 800 21865 20.85 26.257589212743 5 0.2 2.7 5.6 10.18
vector 1470256  Network.dyn_peer[69]  lookupHopsSig:vector  ETV
1470256	147742 327 862 38773 20.9 32.069682699637 11 2 16 92 928
vector 1470257  Network.dyn_peer[69]  lookupStabilitySig:vector  ETV
1470257	148069 487 862 38773 20.9 32.069682699637 11 0.6785714328289 0.98319327645004 9.6292504649609 8.577920216863
vector 1470258  Network.dyn_peer[69]  lookupTimeSig:vector  ETV
1470258	148556 341 862 38773 20.9 32.069682699637 11 0.2 1.7 10.2 11.18
vector 1470142  Network.dyn_peer[31]  lookupHopsSig:vector  ETV
1470142	122314 138 889 23584 20.92 26.628307355767 5 3 19 48 624
vector 1470143  Network.dyn_peer[31]  lookupStabilitySig:vector  ETV
1470143	122452 211 889 23584 20.92 26.628307355767 5 0.14285713434219 0.93010752648115 3.4174059852958 2.727760673215
vector 1470144  Network.dyn_peer[31]  lookupTimeSig:vector  ETV
1470144	122663 144 889 23584 20.92 26.628307355767 5 0.4 2 5.2 7.12
vector 1470289  Network.dyn_peer[80]  lookupHopsSig:vector  ETV
1470289	154079 140 1022 29891 21.01 28.147839105969 5 2 10 35 289
vector 1470290  Network.dyn_peer[80]  lookupStabilitySig:vector  ETV
1470290	154219 201 1022 29891 21.01 28.147839105969 5 0.68421053886414 0.96585365757346 4.3045289628208 3.7772704741307
vector 1470291  Network.dyn_peer[80]  lookupTimeSig:vector  ETV
1470291	154420 148 1022 29891 21.01 28.147839105969 5 0.2 1.1 3.9 3.59
vector 1470325  Network.dyn_peer[92]  lookupHopsSig:vector  ETV
1470325	163425 109 1055 34306 21.03 29.639251514549 4 1 49 84 2998
vector 1470326  Network.dyn_peer[92]  lookupStabilitySig:vector  ETV
1470326	163534 142 1055 34306 21.03 29.639251514549 4 0.5 0.875 3.0888679921627 2.4842968345205
vector 1470327  Network.dyn_peer[92]  lookupTimeSig:vector  ETV
1470327	163676 112 1055 34306 21.03 29.639251514549 4 0.1 5 8.7 31.67
vector 1470178  Network.dyn_peer[43]  lookupHopsSig:vector  ETV
1470178	130899 300 1073 35820 21.04 30.305966848113 10 2 14 83 847
vector 1470179  Network.dyn_peer[43]  lookupStabilitySig:vector  ETV
1470179	131199 426 1073 35820 21.04 30.305966848113 10 0.25 0.98671096377075 8.2936926959083 7.3929192009978
vector 1470180  Network.dyn_peer[43]  lookupTimeSig:vector  ETV
1470180	131625 312 1073 35820 21.04 30.305966848113 10 0.3 1.5 9.2 10.1
vector 1470151  Network.dyn_peer[34]  lookupHopsSig:vector  ETV
1470151	124039 135 1095 11782 21.05 24.263356718516 5 3 9 35 269
vector 1470152  Network.dyn_peer[34]  lookupStabilitySig:vector  ETV
1470152	124174 199 1095 11782 21.05 24.263356718516 5 0.125 0.92857142537832 3.3139610365033 2.6091909421632
vector 1470153  Network.dyn_peer[34]  lookupTimeSig:vector  ETV
1470153	124373 141 1095 11782 21.05 24.263356718516 5 0.4 1 3.9 3.29
vector 1470133  Network.dyn_peer[28]  lookupHopsSig:vector  ETV
1470133	119182 108 1155 26218 21.09 27.218195870958 4 7 30 64 1374
vector 1470134  Network.dyn_peer[28]  lookupStabilitySig:vector  ETV
1470134	119290 150 1155 26218 21.09 27.218195870958 4 0 0.9674418605864 2.3078485764563 1.8838275559431
vector 1470135  Network.dyn_peer[28]  lookupTimeSig:vector  ETV
1470135	119440 112 1155 26218 21.09 27.218195870958 4 0.8 3.1 6.7 14.89
vector 1470136  Network.dyn_peer[29]  lookupHopsSig:vector  ETV
1470136	119552 297 1173 40305 21.1 33.586191042499 10 5 27 119 1785
vector 1470137  Network.dyn_peer[29]  lookupStabilitySig:vector  ETV
1470137	119849 427 1173 40305 21.1 33.586191042499 10 0 0.98756218887866 8.1097624991089 7.4436562335944
vector 1470138  Network.dyn_peer[29]  lookupTimeSig:vector  ETV
1470138	120276 312 1173 40305 21.1 33.586191042499 10 0.6 2.8 12.8 20.16
vector 1470202  Network.dyn_peer[51]  lookupHopsSig:vector  ETV
1470202	136180 107 1206 11192 21.12 24.133788393973 4 5 12 33 305
vector 1470203  Network.dyn_peer[51]  lookupStabilitySig:vector  ETV
1470203	136287 131 1206 11192 21.12 24.133788393973 4 0.25 0.83333332836628 2.5208333283663 1.792100686166
vector 1470204  Network.dyn_peer[51]  lookupTimeSig:vector  ETV
1470204	136418 113 1206 11192 21.12 24.133788393973 4 0.6 1.3 3.6 3.62
vector 1470232  Network.dyn_peer[61]  lookupHopsSig:vector  ETV
1470232	142535 243 1210 20076 21.12 25.895241008267 8 2 13 44 320
vector 1470233  Network.dyn_peer[61]  lookupStabilitySig:vector  ETV
1470233	142778 351 1210 20076 21.12 25.895241008267 8 0.375 0.96103896200657 6.5734605118632 5.720984833258
vector 1470234  Network.dyn_peer[61]  lookupTimeSig:vector  ETV
1470234	143129 258 1210 20076 21.12 25.895241008267 8 0.3 1.4 5.1 4.05
vector 1470331  Network.dyn_peer[94]  lookupHopsSig:vector  ETV
1470331	164065 151 1265 30575 21.15 28.349531293301 5 2 22 58 898
vector 1470332  Network.dyn_peer[94]  lookupStabilitySig:vector  ETV
1470332	164216 198 1265 30575 21.15 28.349531293301 5 0.5 0.92198581248522 3.9742605239153 3.286954956074
vector 1470333  Network.dyn_peer[94]  lookupTimeSig:vector  ETV
1470333	164414 158 1265 30575 21.15 28.349531293301 5 0.2 2.3 6.2 10.14
vector 1470160  Network.dyn_peer[37]  lookupHopsSig:vector  ETV
1470160	125919 139 1313 17049 21.18 25.296687924308 5 5 12 45 435
vector 1470161  Network.dyn_peer[37]  lookupStabilitySig:vector  ETV
1470161	126058 212 1313 17049 21.18 25.296687924308 5 0.11111110448837 0.96124031022191 3.3733431212604 2.7270266973364
vector 1470162  Network.dyn_peer[37]  lookupTimeSig:vector  ETV
1470162	126270 145 1313 17049 21.18 25.296687924308 5 0.6 1.3 4.9 5.13
vector 1470340  Network.dyn_peer[97]  lookupHopsSig:vector  ETV
1470340	165769 238 1318 38374 21.18 31.773740115544 8 2 28 100 1724
vector 1470341  Network.dyn_peer[97]  lookupStabilitySig:vector  ETV
1470341	166007 341 1318 38374 21.18 31.773740115544 8 0.69230768084526 0.97846889868379 6.9039433319122 6.0441803052105
vector 1470342  Network.dyn_peer[97]  lookupTimeSig:vector  ETV
1470342	166348 245 1318 38374 21.18 31.773740115544 8 0.2 2.9 10.7 19.27
vector 1470292  Network.dyn_peer[81]  lookupHopsSig:vector  ETV
1470292	154568 331 1385 37540 21.22 31.228027091077 11 1 24 93 1343
vector 1470293  Network.dyn_peer[81]  lookupStabilitySig:vector  ETV
1470293	154899 479 1385 37540 21.22 31.228027091077 11 0.63636362552643 0.99750623432919 9.7468629288487 8.7787530429795
vector 1470294  Network.dyn_peer[81]  lookupTimeSig:vector  ETV
1470294	155378 346 1385 37540 21.22 31.228027091077 11 0.2 2.5 10.3 15.31
vector 1470355  Network.dyn_peer[102]  lookupHopsSig:vector  ETV
1470355	169299 206 1407 32482 21.23 28.957587444569 7 2 17 67 877
vector 1470356  Network.dyn_peer[102]  lookupStabilitySig:vector  ETV
1470356	169505 306 1407 32482 21.23 28.957587444569 7 0.53333333134651 0.98104265332222 6.0159374698996 5.3203230933324
vector 1470357  Network.dyn_peer[102]  lookupTimeSig:vector  ETV
1470357	169811 216 1407 32482 21.23 28.957587444569 7 0.2 1.8 7.3 10.13
vector 1470385  Network.dyn_peer[112]  lookupHopsSig:vector  ETV
1470385	176803 203 1411 29904 21.23 28.150630666009 7 1 22 62 928
vector 1470386  Network.dyn_peer[112]  lookupStabilitySig:vector  ETV
1470386	177006 306 1411 29904 21.23 28.150630666009 7 0.71428570151329 0.98909090925008 6.0959517946467 5.3769233686856
vector 1470387  Network.dyn_peer[112]  lookupTimeSig:vector  ETV
1470387	177312 215 1411 29904 21.23 28.150630666009 7 0.1 2.3 6.8 10.56
vector 1470358  Network.dyn_peer[103]  lookupHopsSig:vector  ETV
1470358	170027 297 1432 37116 21.24 30.988566739239 10 1 24 90 1282
vector 1470359  Network.dyn_peer[103]  lookupStabilitySig:vector  ETV
1470359	170324 432 1432 37116 21.24 30.988566739239 10 0.72727271914482 0.98461538460106 8.8891190877184 7.9801120133329
vector 1470360  Network.dyn_peer[103]  lookupTimeSig:vector  ETV
1470360	170756 312 1432 37116 21.24 30.988566739239 10 0.2 2.5 9.9 14.67
vector 1470388  Network.dyn_peer[113]  lookupHopsSig:vector  ETV
1470388	177527 302 1436 37914 21.24 31.456311872676 10 1 16 87 983
vector 1470389  Network.dyn_peer[113]  lookupStabilitySig:vector  ETV
1470389	177829 446 1436 37914 21.24 31.456311872676 10 0.5714285671711 0.98904109559953 9.0177225582302 8.2709828637992
vector 1470390  Network.dyn_peer[113]  lookupTimeSig:vector  ETV
1470390	178275 317 1436 37914 21.24 31.456311872676 10 0.1 1.7 9.6 11.64
vector 1470421  Network.dyn_peer[124]  lookupHopsSig:vector  ETV
1470421	184317 109 1460 21705 21.25 26.223356777791 4 0 17 44 666
vector 1470422  Network.dyn_peer[124]  lookupStabilitySig:vector  ETV
1470422	184426 151 1460 21705 21.25 26.223356777791 4 0.55263158679008 1 3.3480249643326 2.919832833903
vector 1470423  Network.dyn_peer[124]  lookupTimeSig:vector  ETV
1470423	184577 112 1460 21705 21.25 26.223356777791 4 0 1.8 4.7 7.57
vector 1470157  Network.dyn_peer[36]  lookupHopsSig:vector  ETV
1470157	125316 169 1495 21286 21.27 26.137596617082 6 3 11 50 462
vector 1470158  Network.dyn_peer[36]  lookupStabilitySig:vector  ETV
1470158	125485 257 1495 21286 21.27 26.137596617082 6 0.30769228935242 0.94478527456522 4.5500042662025 3.777854069785
vector 1470159  Network.dyn_peer[36]  lookupTimeSig:vector  ETV
1470159	125742 177 1495 21286 21.27 26.137596617082 6 0.4 1.2 5.5 5.49
vector 1470337  Network.dyn_peer[96]  lookupHopsSig:vector  ETV
1470337	165511 73 1499 4549 21.27 22.471797271419 3 3 5 13 59
vector 1470338  Network.dyn_peer[96]  lookupStabilitySig:vector  ETV
1470338	165584 106 1499 4549 21.27 22.471797271419 3 0.75 0.81481482088566 2.3340455889702 1.8181391669028
vector 1470339  Network.dyn_peer[96]  lookupTimeSig:vector  ETV
1470339	165690 79 1499 4549 21.27 22.471797271419 3 0.3 0.6 1.5 0.81
vector 1470226  Network.dyn_peer[59]  lookupHopsSig:vector  ETV
1470226	141905 103 1553 8378 21.3 23.504586864883 4 3 10 26 194
vector 1470227  Network.dyn_peer[59]  lookupStabilitySig:vector  ETV
1470227	142008 149 1553 8378 21.3 23.504586864883 4 0.5 0.84210526943207 2.9238046109676 2.2103694371715
vector 1470228  Network.dyn_peer[59]  lookupTimeSig:vector  ETV
1470228	142157 110 1553 8378 21.3 23.504586864883 4 0.4 1.1 2.9 2.35
vector 1470349  Network.dyn_peer[100]  lookupHopsSig:vector  ETV
1470349	168152 216 1569 29229 21.31 27.968160165747 7 3 15 63 697
vector 1470350  Network.dyn_peer[100]  lookupStabilitySig:vector  ETV
1470350	168368 317 1569 29229 21.31 27.968160165747 7 0.56666666269302 0.97461928986013 5.9819457214326 5.2379812447428
vector 1470351  Network.dyn_peer[100]  lookupTimeSig:vector  ETV
1470351	168685 226 1569 29229 21.31 27.968160165747 7 0.3 1.6 6.9 8.23
vector 1470262  Network.dyn_peer[71]  lookupHopsSig:vector  ETV
1470262	149164 171 1590 25978 21.32 27.160465963725 6 2 12 37 309
vector 1470263  Network.dyn_peer[71]  lookupStabilitySig:vector  ETV
1470263	149335 258 1590 25978 21.32 27.160465963725 6 0.5714285671711 0.98666666634381 4.9996570479125 4.3137982030423
vector 1470264  Network.dyn_peer[71]  lookupTimeSig:vector  ETV
1470264	149593 181 1590 25978 21.32 27.160465963725 6 0.3 1.3 4.2 3.76
vector 1470412  Network.dyn_peer[121]  lookupHopsSig:vector  ETV
1470412	181947 139 1595 30114 21.32 28.211176489306 5 1 28 56 1106
vector 1470413  Network.dyn_peer[121]  lookupStabilitySig:vector  ETV
1470413	182086 212 1595 30114 21.32 28.211176489306 5 0.56756755709648 0.94615384563804 4.2639204747975 3.7390493321858
vector 1470414  Network.dyn_peer[121]  lookupTimeSig:vector  ETV
1470414	182298 147 1595 30114 21.32 28.211176489306 5 0.1 2.9 6 12.2
vector 1470442  Network.dyn_peer[131]  lookupHopsSig:vector  ETV
1470442	188905 76 1601 15672 21.32 25.020642832315 3 0 25 35 725
vector 1470443  Network.dyn_peer[131]  lookupStabilitySig:vector  ETV
1470443	188981 104 1601 15672 21.32 25.020642832315 3 0.62962964177132 1 2.4141124039888 2.0118466900135
vector 1470444  Network.dyn_peer[131]  lookupTimeSig:vector  ETV
1470444	189085 78 1601 15672 21.32 25.020642832315 3 0 2.6 3.7 7.97
vector 1470211  Network.dyn_peer[54]  lookupHopsSig:vector  ETV
1470211	138153 463 1657 42484 21.35 38.475066379044 15 5 23 163 2165
vector 1470212  Network.dyn_peer[54]  lookupStabilitySig:vector  ETV
1470212	138616 680 1657 42484 21.35 38.475066379044 15 0.42857140302658 0.98717948701233 13.53027859237 12.542334496939
vector 1470213  Network.dyn_peer[54]  lookupTimeSig:vector  ETV
1470213	139296 482 1657 42484 21.35 38.475066379044 15 0.6 2.4 17.7 24.89