version 2
run Stability2-3-20130528-01:21:55-24168
attr configname Stability2
attr datetime 20130528-01:21:55
attr experiment Stability2
attr inifile omnetpp.ini
attr iterationvars $0=10
attr iterationvars2 "$0=10, $repetition=3"
attr measurement $0=10
attr network Network
attr processid 24168
attr repetition 3
attr replication #3
attr resultdir results
attr runnumber 3
attr seedset 3

vector 120003  Network.churner  inGoingSizeSig:vector  ETV
vector 90006  Network.dyn_peer[1]  lookupHopsSig:vector  ETV
vector 90007  Network.dyn_peer[1]  lookupStabilitySig:vector  ETV
vector 90008  Network.dyn_peer[1]  lookupTimeSig:vector  ETV
vector 90024  Network.dyn_peer[7]  lookupHopsSig:vector  ETV
vector 90025  Network.dyn_peer[7]  lookupStabilitySig:vector  ETV
vector 90026  Network.dyn_peer[7]  lookupTimeSig:vector  ETV
vector 90003  Network.dyn_peer[0]  lookupHopsSig:vector  ETV
vector 90004  Network.dyn_peer[0]  lookupStabilitySig:vector  ETV
vector 90005  Network.dyn_peer[0]  lookupTimeSig:vector  ETV
vector 90009  Network.dyn_peer[2]  lookupHopsSig:vector  ETV
vector 90010  Network.dyn_peer[2]  lookupStabilitySig:vector  ETV
vector 90011  Network.dyn_peer[2]  lookupTimeSig:vector  ETV
vector 90012  Network.dyn_peer[3]  lookupHopsSig:vector  ETV
vector 90013  Network.dyn_peer[3]  lookupStabilitySig:vector  ETV
vector 90014  Network.dyn_peer[3]  lookupTimeSig:vector  ETV
vector 90015  Network.dyn_peer[4]  lookupHopsSig:vector  ETV
vector 90016  Network.dyn_peer[4]  lookupStabilitySig:vector  ETV
vector 90017  Network.dyn_peer[4]  lookupTimeSig:vector  ETV
vector 90018  Network.dyn_peer[5]  lookupHopsSig:vector  ETV
vector 90019  Network.dyn_peer[5]  lookupStabilitySig:vector  ETV
vector 90020  Network.dyn_peer[5]  lookupTimeSig:vector  ETV
vector 90036  Network.dyn_peer[11]  lookupHopsSig:vector  ETV
vector 90037  Network.dyn_peer[11]  lookupStabilitySig:vector  ETV
vector 90038  Network.dyn_peer[11]  lookupTimeSig:vector  ETV
vector 90039  Network.dyn_peer[12]  lookupHopsSig:vector  ETV
vector 90040  Network.dyn_peer[12]  lookupStabilitySig:vector  ETV
vector 90041  Network.dyn_peer[12]  lookupTimeSig:vector  ETV
vector 90027  Network.dyn_peer[8]  lookupHopsSig:vector  ETV
vector 90028  Network.dyn_peer[8]  lookupStabilitySig:vector  ETV
vector 90029  Network.dyn_peer[8]  lookupTimeSig:vector  ETV
vector 90030  Network.dyn_peer[9]  lookupHopsSig:vector  ETV
vector 90031  Network.dyn_peer[9]  lookupStabilitySig:vector  ETV
vector 90032  Network.dyn_peer[9]  lookupTimeSig:vector  ETV
vector 90102  Network.dyn_peer[33]  lookupHopsSig:vector  ETV
vector 90103  Network.dyn_peer[33]  lookupStabilitySig:vector  ETV
vector 90104  Network.dyn_peer[33]  lookupTimeSig:vector  ETV
vector 90021  Network.dyn_peer[6]  lookupHopsSig:vector  ETV
vector 90022  Network.dyn_peer[6]  lookupStabilitySig:vector  ETV
vector 90023  Network.dyn_peer[6]  lookupTimeSig:vector  ETV
vector 90051  Network.dyn_peer[16]  lookupHopsSig:vector  ETV
vector 90052  Network.dyn_peer[16]  lookupStabilitySig:vector  ETV
vector 90053  Network.dyn_peer[16]  lookupTimeSig:vector  ETV
vector 90081  Network.dyn_peer[26]  lookupHopsSig:vector  ETV
vector 90082  Network.dyn_peer[26]  lookupStabilitySig:vector  ETV
vector 90083  Network.dyn_peer[26]  lookupTimeSig:vector  ETV
vector 90054  Network.dyn_peer[17]  lookupHopsSig:vector  ETV
vector 90055  Network.dyn_peer[17]  lookupStabilitySig:vector  ETV
vector 90056  Network.dyn_peer[17]  lookupTimeSig:vector  ETV
vector 90084  Network.dyn_peer[27]  lookupHopsSig:vector  ETV
vector 90085  Network.dyn_peer[27]  lookupStabilitySig:vector  ETV
vector 90086  Network.dyn_peer[27]  lookupTimeSig:vector  ETV
vector 90060  Network.dyn_peer[19]  lookupHopsSig:vector  ETV
vector 90061  Network.dyn_peer[19]  lookupStabilitySig:vector  ETV
vector 90062  Network.dyn_peer[19]  lookupTimeSig:vector  ETV
vector 90063  Network.dyn_peer[20]  lookupHopsSig:vector  ETV
vector 90064  Network.dyn_peer[20]  lookupStabilitySig:vector  ETV
vector 90065  Network.dyn_peer[20]  lookupTimeSig:vector  ETV
vector 90093  Network.dyn_peer[30]  lookupHopsSig:vector  ETV
vector 90094  Network.dyn_peer[30]  lookupStabilitySig:vector  ETV
vector 90095  Network.dyn_peer[30]  lookupTimeSig:vector  ETV
vector 90045  Network.dyn_peer[14]  lookupHopsSig:vector  ETV
vector 90046  Network.dyn_peer[14]  lookupStabilitySig:vector  ETV
vector 90047  Network.dyn_peer[14]  lookupTimeSig:vector  ETV
vector 90075  Network.dyn_peer[24]  lookupHopsSig:vector  ETV
vector 90076  Network.dyn_peer[24]  lookupStabilitySig:vector  ETV
vector 90077  Network.dyn_peer[24]  lookupTimeSig:vector  ETV
vector 90111  Network.dyn_peer[36]  lookupHopsSig:vector  ETV
vector 90112  Network.dyn_peer[36]  lookupStabilitySig:vector  ETV
vector 90113  Network.dyn_peer[36]  lookupTimeSig:vector  ETV
vector 90057  Network.dyn_peer[18]  lookupHopsSig:vector  ETV
vector 90058  Network.dyn_peer[18]  lookupStabilitySig:vector  ETV
vector 90059  Network.dyn_peer[18]  lookupTimeSig:vector  ETV
vector 90033  Network.dyn_peer[10]  lookupHopsSig:vector  ETV
vector 90034  Network.dyn_peer[10]  lookupStabilitySig:vector  ETV
vector 90035  Network.dyn_peer[10]  lookupTimeSig:vector  ETV
vector 90066  Network.dyn_peer[21]  lookupHopsSig:vector  ETV
vector 90067  Network.dyn_peer[21]  lookupStabilitySig:vector  ETV
vector 90068  Network.dyn_peer[21]  lookupTimeSig:vector  ETV
vector 90042  Network.dyn_peer[13]  lookupHopsSig:vector  ETV
vector 90043  Network.dyn_peer[13]  lookupStabilitySig:vector  ETV
vector 90044  Network.dyn_peer[13]  lookupTimeSig:vector  ETV
vector 90072  Network.dyn_peer[23]  lookupHopsSig:vector  ETV
vector 90073  Network.dyn_peer[23]  lookupStabilitySig:vector  ETV
vector 90074  Network.dyn_peer[23]  lookupTimeSig:vector  ETV
vector 90135  Network.dyn_peer[44]  lookupHopsSig:vector  ETV
vector 90136  Network.dyn_peer[44]  lookupStabilitySig:vector  ETV
vector 90137  Network.dyn_peer[44]  lookupTimeSig:vector  ETV
vector 90048  Network.dyn_peer[15]  lookupHopsSig:vector  ETV
vector 90049  Network.dyn_peer[15]  lookupStabilitySig:vector  ETV
vector 90050  Network.dyn_peer[15]  lookupTimeSig:vector  ETV
vector 90114  Network.dyn_peer[37]  lookupHopsSig:vector  ETV
vector 90115  Network.dyn_peer[37]  lookupStabilitySig:vector  ETV
vector 90116  Network.dyn_peer[37]  lookupTimeSig:vector  ETV
vector 90120  Network.dyn_peer[39]  lookupHopsSig:vector  ETV
vector 90121  Network.dyn_peer[39]  lookupStabilitySig:vector  ETV
vector 90122  Network.dyn_peer[39]  lookupTimeSig:vector  ETV
vector 90069  Network.dyn_peer[22]  lookupHopsSig:vector  ETV
vector 90070  Network.dyn_peer[22]  lookupStabilitySig:vector  ETV
vector 90071  Network.dyn_peer[22]  lookupTimeSig:vector  ETV
vector 90159  Network.dyn_peer[52]  lookupHopsSig:vector  ETV
vector 90160  Network.dyn_peer[52]  lookupStabilitySig:vector  ETV
vector 90161  Network.dyn_peer[52]  lookupTimeSig:vector  ETV
vector 90117  Network.dyn_peer[38]  lookupHopsSig:vector  ETV
vector 90118  Network.dyn_peer[38]  lookupStabilitySig:vector  ETV
vector 90119  Network.dyn_peer[38]  lookupTimeSig:vector  ETV
vector 90123  Network.dyn_peer[40]  lookupHopsSig:vector  ETV
vector 90124  Network.dyn_peer[40]  lookupStabilitySig:vector  ETV
vector 90125  Network.dyn_peer[40]  lookupTimeSig:vector  ETV
vector 90192  Network.dyn_peer[63]  lookupHopsSig:vector  ETV
vector 90193  Network.dyn_peer[63]  lookupStabilitySig:vector  ETV
vector 90194  Network.dyn_peer[63]  lookupTimeSig:vector  ETV
vector 90078  Network.dyn_peer[25]  lookupHopsSig:vector  ETV
vector 90079  Network.dyn_peer[25]  lookupStabilitySig:vector  ETV
vector 90080  Network.dyn_peer[25]  lookupTimeSig:vector  ETV
vector 90108  Network.dyn_peer[35]  lookupHopsSig:vector  ETV
vector 90109  Network.dyn_peer[35]  lookupStabilitySig:vector  ETV
vector 90110  Network.dyn_peer[35]  lookupTimeSig:vector  ETV
vector 90204  Network.dyn_peer[67]  lookupHopsSig:vector  ETV
vector 90205  Network.dyn_peer[67]  lookupStabilitySig:vector  ETV
vector 90206  Network.dyn_peer[67]  lookupTimeSig:vector  ETV
vector 90147  Network.dyn_peer[48]  lookupHopsSig:vector  ETV
vector 90148  Network.dyn_peer[48]  lookupStabilitySig:vector  ETV
vector 90149  Network.dyn_peer[48]  lookupTimeSig:vector  ETV
vector 90180  Network.dyn_peer[59]  lookupHopsSig:vector  ETV
vector 90181  Network.dyn_peer[59]  lookupStabilitySig:vector  ETV
vector 90182  Network.dyn_peer[59]  lookupTimeSig:vector  ETV
vector 90171  Network.dyn_peer[56]  lookupHopsSig:vector  ETV
vector 90172  Network.dyn_peer[56]  lookupStabilitySig:vector  ETV
vector 90173  Network.dyn_peer[56]  lookupTimeSig:vector  ETV
vector 90183  Network.dyn_peer[60]  lookupHopsSig:vector  ETV
vector 90184  Network.dyn_peer[60]  lookupStabilitySig:vector  ETV
vector 90185  Network.dyn_peer[60]  lookupTimeSig:vector  ETV
vector 90186  Network.dyn_peer[61]  lookupHopsSig:vector  ETV
vector 90187  Network.dyn_peer[61]  lookupStabilitySig:vector  ETV
vector 90188  Network.dyn_peer[61]  lookupTimeSig:vector  ETV
vector 90198  Network.dyn_peer[65]  lookupHopsSig:vector  ETV
vector 90199  Network.dyn_peer[65]  lookupStabilitySig:vector  ETV
vector 90200  Network.dyn_peer[65]  lookupTimeSig:vector  ETV
vector 90231  Network.dyn_peer[76]  lookupHopsSig:vector  ETV
vector 90232  Network.dyn_peer[76]  lookupStabilitySig:vector  ETV
vector 90233  Network.dyn_peer[76]  lookupTimeSig:vector  ETV
vector 90162  Network.dyn_peer[53]  lookupHopsSig:vector  ETV
vector 90163  Network.dyn_peer[53]  lookupStabilitySig:vector  ETV
vector 90164  Network.dyn_peer[53]  lookupTimeSig:vector  ETV
vector 90255  Network.dyn_peer[84]  lookupHopsSig:vector  ETV
vector 90256  Network.dyn_peer[84]  lookupStabilitySig:vector  ETV
vector 90257  Network.dyn_peer[84]  lookupTimeSig:vector  ETV
vector 90234  Network.dyn_peer[77]  lookupHopsSig:vector  ETV
vector 90235  Network.dyn_peer[77]  lookupStabilitySig:vector  ETV
vector 90236  Network.dyn_peer[77]  lookupTimeSig:vector  ETV
vector 90264  Network.dyn_peer[87]  lookupHopsSig:vector  ETV
vector 90265  Network.dyn_peer[87]  lookupStabilitySig:vector  ETV
vector 90266  Network.dyn_peer[87]  lookupTimeSig:vector  ETV
vector 90273  Network.dyn_peer[90]  lookupHopsSig:vector  ETV
vector 90274  Network.dyn_peer[90]  lookupStabilitySig:vector  ETV
vector 90275  Network.dyn_peer[90]  lookupTimeSig:vector  ETV
vector 90126  Network.dyn_peer[41]  lookupHopsSig:vector  ETV
vector 90127  Network.dyn_peer[41]  lookupStabilitySig:vector  ETV
vector 90128  Network.dyn_peer[41]  lookupTimeSig:vector  ETV
vector 90276  Network.dyn_peer[91]  lookupHopsSig:vector  ETV
vector 90277  Network.dyn_peer[91]  lookupStabilitySig:vector  ETV
vector 90278  Network.dyn_peer[91]  lookupTimeSig:vector  ETV
vector 90105  Network.dyn_peer[34]  lookupHopsSig:vector  ETV
vector 90106  Network.dyn_peer[34]  lookupStabilitySig:vector  ETV
vector 90107  Network.dyn_peer[34]  lookupTimeSig:vector  ETV
vector 90297  Network.dyn_peer[98]  lookupHopsSig:vector  ETV
vector 90298  Network.dyn_peer[98]  lookupStabilitySig:vector  ETV
vector 90299  Network.dyn_peer[98]  lookupTimeSig:vector  ETV
vector 90150  Network.dyn_peer[49]  lookupHopsSig:vector  ETV
vector 90151  Network.dyn_peer[49]  lookupStabilitySig:vector  ETV
vector 90152  Network.dyn_peer[49]  lookupTimeSig:vector  ETV
vector 90210  Network.dyn_peer[69]  lookupHopsSig:vector  ETV
vector 90211  Network.dyn_peer[69]  lookupStabilitySig:vector  ETV
vector 90212  Network.dyn_peer[69]  lookupTimeSig:vector  ETV
vector 90156  Network.dyn_peer[51]  lookupHopsSig:vector  ETV
vector 90157  Network.dyn_peer[51]  lookupStabilitySig:vector  ETV
vector 90158  Network.dyn_peer[51]  lookupTimeSig:vector  ETV
vector 90201  Network.dyn_peer[66]  lookupHopsSig:vector  ETV
vector 90202  Network.dyn_peer[66]  lookupStabilitySig:vector  ETV
vector 90203  Network.dyn_peer[66]  lookupTimeSig:vector  ETV
vector 90294  Network.dyn_peer[97]  lookupHopsSig:vector  ETV
vector 90295  Network.dyn_peer[97]  lookupStabilitySig:vector  ETV
vector 90296  Network.dyn_peer[97]  lookupTimeSig:vector  ETV
vector 90177  Network.dyn_peer[58]  lookupHopsSig:vector  ETV
vector 90178  Network.dyn_peer[58]  lookupStabilitySig:vector  ETV
vector 90179  Network.dyn_peer[58]  lookupTimeSig:vector  ETV
vector 90096  Network.dyn_peer[31]  lookupHopsSig:vector  ETV
vector 90097  Network.dyn_peer[31]  lookupStabilitySig:vector  ETV
vector 90098  Network.dyn_peer[31]  lookupTimeSig:vector  ETV
vector 90279  Network.dyn_peer[92]  lookupHopsSig:vector  ETV
vector 90280  Network.dyn_peer[92]  lookupStabilitySig:vector  ETV
vector 90281  Network.dyn_peer[92]  lookupTimeSig:vector  ETV
vector 90222  Network.dyn_peer[73]  lookupHopsSig:vector  ETV
vector 90223  Network.dyn_peer[73]  lookupStabilitySig:vector  ETV
vector 90224  Network.dyn_peer[73]  lookupTimeSig:vector  ETV
vector 90225  Network.dyn_peer[74]  lookupHopsSig:vector  ETV
vector 90226  Network.dyn_peer[74]  lookupStabilitySig:vector  ETV
vector 90227  Network.dyn_peer[74]  lookupTimeSig:vector  ETV
vector 90144  Network.dyn_peer[47]  lookupHopsSig:vector  ETV
vector 90145  Network.dyn_peer[47]  lookupStabilitySig:vector  ETV
vector 90146  Network.dyn_peer[47]  lookupTimeSig:vector  ETV
vector 90237  Network.dyn_peer[78]  lookupHopsSig:vector  ETV
vector 90238  Network.dyn_peer[78]  lookupStabilitySig:vector  ETV
vector 90239  Network.dyn_peer[78]  lookupTimeSig:vector  ETV
vector 90090  Network.dyn_peer[29]  lookupHopsSig:vector  ETV
vector 90091  Network.dyn_peer[29]  lookupStabilitySig:vector  ETV
vector 90092  Network.dyn_peer[29]  lookupTimeSig:vector  ETV
vector 90300  Network.dyn_peer[99]  lookupHopsSig:vector  ETV
vector 90301  Network.dyn_peer[99]  lookupStabilitySig:vector  ETV
vector 90302  Network.dyn_peer[99]  lookupTimeSig:vector  ETV
vector 90153  Network.dyn_peer[50]  lookupHopsSig:vector  ETV
vector 90154  Network.dyn_peer[50]  lookupStabilitySig:vector  ETV
vector 90155  Network.dyn_peer[50]  lookupTimeSig:vector  ETV
vector 90165  Network.dyn_peer[54]  lookupHopsSig:vector  ETV
vector 90166  Network.dyn_peer[54]  lookupStabilitySig:vector  ETV
vector 90167  Network.dyn_peer[54]  lookupTimeSig:vector  ETV
vector 90168  Network.dyn_peer[55]  lookupHopsSig:vector  ETV
vector 90169  Network.dyn_peer[55]  lookupStabilitySig:vector  ETV
vector 90170  Network.dyn_peer[55]  lookupTimeSig:vector  ETV
vector 90228  Network.dyn_peer[75]  lookupHopsSig:vector  ETV
vector 90229  Network.dyn_peer[75]  lookupStabilitySig:vector  ETV
vector 90230  Network.dyn_peer[75]  lookupTimeSig:vector  ETV
vector 90261  Network.dyn_peer[86]  lookupHopsSig:vector  ETV
vector 90262  Network.dyn_peer[86]  lookupStabilitySig:vector  ETV
vector 90263  Network.dyn_peer[86]  lookupTimeSig:vector  ETV
vector 90270  Network.dyn_peer[89]  lookupHopsSig:vector  ETV
vector 90271  Network.dyn_peer[89]  lookupStabilitySig:vector  ETV
vector 90272  Network.dyn_peer[89]  lookupTimeSig:vector  ETV
vector 90099  Network.dyn_peer[32]  lookupHopsSig:vector  ETV
vector 90100  Network.dyn_peer[32]  lookupStabilitySig:vector  ETV
vector 90101  Network.dyn_peer[32]  lookupTimeSig:vector  ETV
vector 90219  Network.dyn_peer[72]  lookupHopsSig:vector  ETV
vector 90220  Network.dyn_peer[72]  lookupStabilitySig:vector  ETV
vector 90221  Network.dyn_peer[72]  lookupTimeSig:vector  ETV
vector 90252  Network.dyn_peer[83]  lookupHopsSig:vector  ETV
vector 90253  Network.dyn_peer[83]  lookupStabilitySig:vector  ETV
vector 90254  Network.dyn_peer[83]  lookupTimeSig:vector  ETV
vector 90240  Network.dyn_peer[79]  lookupHopsSig:vector  ETV
vector 90241  Network.dyn_peer[79]  lookupStabilitySig:vector  ETV
vector 90242  Network.dyn_peer[79]  lookupTimeSig:vector  ETV
vector 90216  Network.dyn_peer[71]  lookupHopsSig:vector  ETV
vector 90217  Network.dyn_peer[71]  lookupStabilitySig:vector  ETV
vector 90218  Network.dyn_peer[71]  lookupTimeSig:vector  ETV
vector 90132  Network.dyn_peer[43]  lookupHopsSig:vector  ETV
vector 90133  Network.dyn_peer[43]  lookupStabilitySig:vector  ETV
vector 90134  Network.dyn_peer[43]  lookupTimeSig:vector  ETV
vector 90195  Network.dyn_peer[64]  lookupHopsSig:vector  ETV
vector 90196  Network.dyn_peer[64]  lookupStabilitySig:vector  ETV
vector 90197  Network.dyn_peer[64]  lookupTimeSig:vector  ETV
vector 90174  Network.dyn_peer[57]  lookupHopsSig:vector  ETV
vector 90175  Network.dyn_peer[57]  lookupStabilitySig:vector  ETV
vector 90176  Network.dyn_peer[57]  lookupTimeSig:vector  ETV
vector 90087  Network.dyn_peer[28]  lookupHopsSig:vector  ETV
vector 90088  Network.dyn_peer[28]  lookupStabilitySig:vector  ETV
vector 90089  Network.dyn_peer[28]  lookupTimeSig:vector  ETV
vector 90207  Network.dyn_peer[68]  lookupHopsSig:vector  ETV
vector 90208  Network.dyn_peer[68]  lookupStabilitySig:vector  ETV
vector 90209  Network.dyn_peer[68]  lookupTimeSig:vector  ETV
vector 90129  Network.dyn_peer[42]  lookupHopsSig:vector  ETV
vector 90130  Network.dyn_peer[42]  lookupStabilitySig:vector  ETV
vector 90131  Network.dyn_peer[42]  lookupTimeSig:vector  ETV
vector 90138  Network.dyn_peer[45]  lookupHopsSig:vector  ETV
vector 90139  Network.dyn_peer[45]  lookupStabilitySig:vector  ETV
vector 90140  Network.dyn_peer[45]  lookupTimeSig:vector  ETV
vector 90141  Network.dyn_peer[46]  lookupHopsSig:vector  ETV
vector 90142  Network.dyn_peer[46]  lookupStabilitySig:vector  ETV
vector 90143  Network.dyn_peer[46]  lookupTimeSig:vector  ETV
vector 90189  Network.dyn_peer[62]  lookupHopsSig:vector  ETV
vector 90190  Network.dyn_peer[62]  lookupStabilitySig:vector  ETV
vector 90191  Network.dyn_peer[62]  lookupTimeSig:vector  ETV
vector 90258  Network.dyn_peer[85]  lookupHopsSig:vector  ETV
vector 90259  Network.dyn_peer[85]  lookupStabilitySig:vector  ETV
vector 90260  Network.dyn_peer[85]  lookupTimeSig:vector  ETV
vector 90213  Network.dyn_peer[70]  lookupHopsSig:vector  ETV
vector 90214  Network.dyn_peer[70]  lookupStabilitySig:vector  ETV
vector 90215  Network.dyn_peer[70]  lookupTimeSig:vector  ETV
vector 90288  Network.dyn_peer[95]  lookupHopsSig:vector  ETV
vector 90289  Network.dyn_peer[95]  lookupStabilitySig:vector  ETV
vector 90290  Network.dyn_peer[95]  lookupTimeSig:vector  ETV
vector 90243  Network.dyn_peer[80]  lookupHopsSig:vector  ETV
vector 90244  Network.dyn_peer[80]  lookupStabilitySig:vector  ETV
vector 90245  Network.dyn_peer[80]  lookupTimeSig:vector  ETV
vector 90249  Network.dyn_peer[82]  lookupHopsSig:vector  ETV
vector 90250  Network.dyn_peer[82]  lookupStabilitySig:vector  ETV
vector 90251  Network.dyn_peer[82]  lookupTimeSig:vector  ETV
vector 90282  Network.dyn_peer[93]  lookupHopsSig:vector  ETV
vector 90283  Network.dyn_peer[93]  lookupStabilitySig:vector  ETV
vector 90284  Network.dyn_peer[93]  lookupTimeSig:vector  ETV
vector 90291  Network.dyn_peer[96]  lookupHopsSig:vector  ETV
vector 90292  Network.dyn_peer[96]  lookupStabilitySig:vector  ETV
vector 90293  Network.dyn_peer[96]  lookupTimeSig:vector  ETV
vector 90267  Network.dyn_peer[88]  lookupHopsSig:vector  ETV
vector 90268  Network.dyn_peer[88]  lookupStabilitySig:vector  ETV
vector 90269  Network.dyn_peer[88]  lookupTimeSig:vector  ETV
vector 90285  Network.dyn_peer[94]  lookupHopsSig:vector  ETV
vector 90286  Network.dyn_peer[94]  lookupStabilitySig:vector  ETV
vector 90287  Network.dyn_peer[94]  lookupTimeSig:vector  ETV
vector 90246  Network.dyn_peer[81]  lookupHopsSig:vector  ETV
vector 90247  Network.dyn_peer[81]  lookupStabilitySig:vector  ETV
vector 90248  Network.dyn_peer[81]  lookupTimeSig:vector  ETV
90003	55	20.11	1
90003	385	20.51	3
90003	1850	21.618567804659	10
90003	2792	22.364357407542	3
90003	3366	22.971401054535	5
90003	3721	23.473254162726	4
90004	55	20.11	0.79999999701977
90004	385	20.51	0.39999997615814
90004	1850	21.618567804659	0.23076921701431
90004	2792	22.364357407542	0.90625
90004	3366	22.971401054535	0.91379310190678
90004	3721	23.473254162726	0.94366197288036
90005	55	20.11	0.1
90005	385	20.51	0.4
90005	1850	21.618567804659	1.1
90005	2792	22.364357407542	0.4
90005	3366	22.971401054535	0.6
90005	3721	23.473254162726	0.5
90006	20	20.02	0
90006	190	20.32	2
90006	2112	21.821768466017	14
90006	2573	22.169461948764	2
90006	3021	22.571042763092	3
90006	3368	22.971452568768	3
90006	3727	23.480365562865	4
90006	3912	23.886927045339	3
90007	20	20.02	1
90007	190	20.32	0.59999999403954
90007	2112	21.821768466017	0.066666662693024
90007	2573	22.169461948764	0.92857142537832
90007	3021	22.571042763092	0.92857142537832
90007	3368	22.971452568768	0.94827586039901
90007	3727	23.480365562865	0.94366197288036
90007	3912	23.886927045339	0.96296296268702
90008	20	20.02	0
90008	190	20.32	0.3
90008	2112	21.821768466017	1.5
90008	2573	22.169461948764	0.3
90008	3021	22.571042763092	0.4
90008	3368	22.971452568768	0.4
90008	3727	23.480365562865	0.5
90008	3912	23.886927045339	0.4
90009	67	20.13	1
90009	644	20.73	5
90009	1177	21.130677090084	3
90009	1456	21.337334145169	1
90009	2267	21.940370040469	5
90010	67	20.13	0.79999999701977
90010	644	20.73	0
90010	1177	21.130677090084	0.5
90010	1456	21.337334145169	0.875
90010	2267	21.940370040469	0.72222220897675
90011	67	20.13	0.1
90011	644	20.73	0.6
90011	1177	21.130677090084	0.4
90011	1456	21.337334145169	0.2
90011	2267	21.940370040469	0.6
90012	75	20.14	1
90012	793	20.84	6
90012	2271	21.941691393817	10
90012	2660	22.248454854788	2
90013	75	20.14	0.79999999701977
90013	793	20.84	-0.20000004768372
90013	2271	21.941691393817	0.4736841917038
90013	2660	22.248454854788	0.93103448301554
90014	75	20.14	0.1
90014	793	20.84	0.7
90014	2271	21.941691393817	1.1
90014	2660	22.248454854788	0.3
90015	83	20.15	1
90015	552	20.65	4
90015	2024	21.755324861723	10
90015	2429	22.064049795196	2
90016	83	20.15	0.79999999701977
90016	552	20.65	0.19999998807907
90016	2024	21.755324861723	0.33333331346512
90016	2429	22.064049795196	0.90909090638161
90017	83	20.15	0.1
90017	552	20.65	0.5
90017	2024	21.755324861723	1.1
90017	2429	22.064049795196	0.3
90018	91	20.16	1
90018	958	20.96	7
90018	2962	22.517211313727	4
90018	3327	22.924233996423	3
90018	4025	24.228955303614	12
90019	91	20.16	0.79999999701977
90019	958	20.96	-0.39999997615814
90019	2962	22.517211313727	0.89189188927412
90019	3327	22.924233996423	0.94545454531908
90019	4025	24.228955303614	0.8604651093483
90020	91	20.16	0.1
90020	958	20.96	0.8
90020	2962	22.517211313727	0.5
90020	3327	22.924233996423	0.4
90020	4025	24.228955303614	1.3
90021	231	20.37	3
90021	1104	21.07	6
90021	2707	22.286871562068	11
90021	3387	22.991338013188	6
90021	3782	23.593070726945	5
90022	231	20.37	0.39999997615814
90022	1104	21.07	0
90022	2707	22.286871562068	0.6451613008976
90022	3387	22.991338013188	0.89655172079802
90022	3782	23.593070726945	0.93055555224419
90023	231	20.37	0.3
90023	1104	21.07	0.7
90023	2707	22.286871562068	1.2
90023	3387	22.991338013188	0.7
90023	3782	23.593070726945	0.6
90024	42	20.08	0
90024	989	20.982017497909	8
90024	1260	21.189606512873	1
90024	1819	21.595089419318	3
90024	2459	22.086687014838	2
90024	2930	22.489622038613	3
90024	3540	23.195793794836	6
90025	42	20.08	1
90025	989	20.982017497909	-0.33333337306976
90025	1260	21.189606512873	0.83333332836628
90025	1819	21.595089419318	0.75
90025	2459	22.086687014838	0.91304347664118
90025	2930	22.489622038613	0.9142857119441
90025	3540	23.195793794836	0.90476190298796
90026	42	20.08	0
90026	989	20.982017497909	0.9
90026	1260	21.189606512873	0.2
90026	1819	21.595089419318	0.4
90026	2459	22.086687014838	0.3
90026	2930	22.489622038613	0.4
90026	3540	23.195793794836	0.7
90027	167	20.29	2
90027	1134	21.09	7
90027	2478	22.099719014645	9
90027	3151	22.70606515364	5
90028	167	20.29	0.59999999403954
90028	1134	21.09	-0.16666662693024
90028	2478	22.099719014645	0.63999998569489
90028	3151	22.70606515364	0.89361701905727
90029	167	20.29	0.2
90029	1134	21.09	0.8
90029	2478	22.099719014645	1
90029	3151	22.70606515364	0.6
90030	177	20.3	2
90030	607	20.7	3
90030	1430	21.318467037882	5
90030	2965	22.518509447466	11
90031	177	20.3	0.59999999403954
90031	607	20.7	0.39999997615814
90031	1430	21.318467037882	0.375
90031	2965	22.518509447466	0.70270270109177
90032	177	20.3	0.2
90032	607	20.7	0.4
90032	1430	21.318467037882	0.6
90032	2965	22.518509447466	1.2
90033	389	20.51	4
90033	2497	22.11	15
90034	389	20.51	0.19999998807907
90034	2497	22.11	0.39999997615814
90035	389	20.51	0.4
90035	2497	22.11	1.6
90036	121	20.22	1
90036	414	20.535199501511	2
90036	1603	21.440551367871	8
90036	2655	22.244173953925	7
90036	3578	23.250085683095	9
90036	3709	23.452947659341	1
90037	121	20.22	0.79999999701977
90037	414	20.535199501511	0.59999999403954
90037	1603	21.440551367871	0
90037	2655	22.244173953925	0.75862069427967
90037	3578	23.250085683095	0.85714285075665
90037	3709	23.452947659341	0.98571428563446
90038	121	20.22	0.1
90038	414	20.535199501511	0.3
90038	1603	21.440551367871	0.9
90038	2655	22.244173953925	0.8
90038	3578	23.250085683095	1
90038	3709	23.452947659341	0.2
90039	132	20.23	1
90039	302	20.43	1
90039	1352	21.250331244807	7
90039	2294	21.95915498165	6
90039	3111	22.669056853503	6
90040	132	20.23	0.79999999701977
90040	302	20.43	0.79999999701977
90040	1352	21.250331244807	0
90040	2294	21.95915498165	0.69999998807907
90040	3111	22.669056853503	0.86666665971279
90041	132	20.23	0.1
90041	302	20.43	0.2
90041	1352	21.250331244807	0.8
90041	2294	21.95915498165	0.7
90041	3111	22.669056853503	0.7
90042	423	20.54	4
90042	1065	21.04	4
90042	1747	21.54881791054	4
90043	423	20.54	0.19999998807907
90043	1065	21.04	0.33333331346512
90043	1747	21.54881791054	0.59999999403954
90044	423	20.54	0.4
90044	1065	21.04	0.5
90044	1747	21.54881791054	0.5
90045	324	20.45	3
90045	1481	21.35	8
90045	1760	21.554317927968	1
90045	2359	22.003935085705	2
90045	3793	23.605710023429	15
90046	324	20.45	0.39999997615814
90046	1481	21.35	0
90046	1760	21.554317927968	0.89999999850988
90046	2359	22.003935085705	0.90476190298796
90046	3793	23.605710023429	0.79729729890823
90047	324	20.45	0.3
90047	1481	21.35	0.9
90047	1760	21.554317927968	0.2
90047	2359	22.003935085705	0.3
90047	3793	23.605710023429	1.6
90048	455	20.56	4
90048	959	20.96	3
90048	1223	21.161696090199	1
90048	3009	22.564635102563	13
90049	455	20.56	0.19999998807907
90049	959	20.96	0.39999997615814
90049	1223	21.161696090199	0.83333332836628
90049	3009	22.564635102563	0.68292683362961
90050	455	20.56	0.4
90050	959	20.96	0.4
90050	1223	21.161696090199	0.2
90050	3009	22.564635102563	1.4
90051	235	20.37	2
90051	1642	21.476041789294	10
90051	2221	21.901638489568	3
90051	2624	22.206218224263	2
90051	3557	23.214323820704	9
90052	235	20.37	0.59999999403954
90052	1642	21.476041789294	-0.11111116409302
90052	2221	21.901638489568	0.82352940738201
90052	2624	22.206218224263	0.93103448301554
90052	3557	23.214323820704	0.85714285075665
90053	235	20.37	0.2
90053	1642	21.476041789294	1.1
90053	2221	21.901638489568	0.4
90053	2624	22.206218224263	0.3
90053	3557	23.214323820704	1
90054	250	20.38	2
90054	1246	21.18	7
90054	2457	22.085180072023	8
90054	2833	22.392134764811	2
90054	3668	23.400400544576	9
90055	250	20.38	0.59999999403954
90055	1246	21.18	-0.16666662693024
90055	2457	22.085180072023	0.65217390656471
90055	2833	22.392134764811	0.9375
90055	3668	23.400400544576	0.86363635957241
90056	250	20.38	0.2
90056	1246	21.18	0.8
90056	2457	22.085180072023	0.9
90056	2833	22.392134764811	0.3
90056	3668	23.400400544576	1
90057	367	20.49	3
90057	2345	21.99	14
90057	3225	22.79370580977	7
90058	367	20.49	0.39999997615814
90058	2345	21.99	0.33333331346512
90058	3225	22.79370580977	0.86538460850716
90059	367	20.49	0.3
90059	2345	21.99	1.5
90059	3225	22.79370580977	0.8
90060	272	20.4	2
90060	2089	21.8	13
90060	2732	22.305239496014	4
90061	272	20.4	0.59999999403954
90061	2089	21.8	0.13333332538605
90061	2732	22.305239496014	0.87096774578094
90062	272	20.4	0.2
90062	2089	21.8	1.4
90062	2732	22.305239496014	0.5
90063	284	20.41	2
90063	1028	21.01	5
90063	2503	22.111950257949	10
90064	284	20.41	0.59999999403954
90064	1028	21.01	0.16666668653488
90064	2503	22.111950257949	0.59999999403954
90065	284	20.41	0.2
90065	1028	21.01	0.6
90065	2503	22.111950257949	1.1
90066	400	20.52	3
90066	1879	21.63065886208	10
90066	2131	21.831847140823	1
90067	400	20.52	0.39999997615814
90067	1879	21.63065886208	0.33333331346512
90067	2131	21.831847140823	0.9375
90068	400	20.52	0.3
90068	1879	21.63065886208	1.1
90068	2131	21.831847140823	0.2
90069	526	20.63	4
90069	1051	21.03	3
90069	2531	22.130706929382	10
90069	2986	22.539677346739	3
90070	526	20.63	0.19999998807907
90070	1051	21.03	0.5
90070	2531	22.130706929382	0.62962964177132
90070	2986	22.539677346739	0.92307692021132
90071	526	20.63	0.4
90071	1051	21.03	0.4
90071	2531	22.130706929382	1.1
90071	2986	22.539677346739	0.4
90072	427	20.54	3
90072	1466	21.34	7
90072	2277	21.948168087154	5
90072	2673	22.262811386304	2
90073	427	20.54	0.39999997615814
90073	1466	21.34	0.125
90073	2277	21.948168087154	0.7368420958519
90073	2673	22.262811386304	0.9333333298564
90074	427	20.54	0.3
90074	1466	21.34	0.8
90074	2277	21.948168087154	0.6
90074	2673	22.262811386304	0.3
90075	328	20.45	2
90075	1616	21.45	9
90075	2917	22.479490818886	8
90075	3122	22.684861043658	1
90075	3461	23.08593329249	3
90075	3600	23.292369156242	1
90075	3737	23.495899229589	1
90076	328	20.45	0.59999999403954
90076	1616	21.45	-0.125
90076	2917	22.479490818886	0.77142857015133
90076	3122	22.684861043658	0.97872340492904
90076	3461	23.08593329249	0.94999999925494
90076	3600	23.292369156242	0.98412698321044
90076	3737	23.495899229589	0.98591549322009
90077	328	20.45	0.2
90077	1616	21.45	1
90077	2917	22.479490818886	0.9
90077	3122	22.684861043658	0.2
90077	3461	23.08593329249	0.4
90077	3600	23.292369156242	0.2
90077	3737	23.495899229589	0.2
90078	688	20.76	5
90078	2562	22.16	13
90078	3106	22.665326399721	4
90078	3823	23.668927235097	9
90078	4091	24.469196629064	7
90078	4260	25.469385943655	9
90078	4347	26.070814073141	5
90079	688	20.76	0
90079	2562	22.16	0.53571429848671
90079	3106	22.665326399721	0.91111110895872
90079	3823	23.668927235097	0.88311688601971
90079	4091	24.469196629064	0.9204545468092