version 2
run Stability2-77-20130528-01:36:59-24168
attr configname Stability2
attr datetime 20130528-01:36:59
attr experiment Stability2
attr inifile omnetpp.ini
attr iterationvars $0=300
attr iterationvars2 "$0=300, $repetition=7"
attr measurement $0=300
attr network Network
attr processid 24168
attr repetition 7
attr replication #7
attr resultdir results
attr runnumber 77
attr seedset 77

vector 2340077  Network.churner  inGoingSizeSig:vector  ETV
vector 2310098  Network.dyn_peer[7]  lookupHopsSig:vector  ETV
vector 2310099  Network.dyn_peer[7]  lookupStabilitySig:vector  ETV
vector 2310100  Network.dyn_peer[7]  lookupTimeSig:vector  ETV
vector 2310080  Network.dyn_peer[1]  lookupHopsSig:vector  ETV
vector 2310081  Network.dyn_peer[1]  lookupStabilitySig:vector  ETV
vector 2310082  Network.dyn_peer[1]  lookupTimeSig:vector  ETV
vector 2310083  Network.dyn_peer[2]  lookupHopsSig:vector  ETV
vector 2310084  Network.dyn_peer[2]  lookupStabilitySig:vector  ETV
vector 2310085  Network.dyn_peer[2]  lookupTimeSig:vector  ETV
vector 2310113  Network.dyn_peer[12]  lookupHopsSig:vector  ETV
vector 2310114  Network.dyn_peer[12]  lookupStabilitySig:vector  ETV
vector 2310115  Network.dyn_peer[12]  lookupTimeSig:vector  ETV
vector 2310077  Network.dyn_peer[0]  lookupHopsSig:vector  ETV
vector 2310078  Network.dyn_peer[0]  lookupStabilitySig:vector  ETV
vector 2310079  Network.dyn_peer[0]  lookupTimeSig:vector  ETV
vector 2310143  Network.dyn_peer[22]  lookupHopsSig:vector  ETV
vector 2310144  Network.dyn_peer[22]  lookupStabilitySig:vector  ETV
vector 2310145  Network.dyn_peer[22]  lookupTimeSig:vector  ETV
vector 2310116  Network.dyn_peer[13]  lookupHopsSig:vector  ETV
vector 2310117  Network.dyn_peer[13]  lookupStabilitySig:vector  ETV
vector 2310118  Network.dyn_peer[13]  lookupTimeSig:vector  ETV
vector 2310089  Network.dyn_peer[4]  lookupHopsSig:vector  ETV
vector 2310090  Network.dyn_peer[4]  lookupStabilitySig:vector  ETV
vector 2310091  Network.dyn_peer[4]  lookupTimeSig:vector  ETV
vector 2310128  Network.dyn_peer[17]  lookupHopsSig:vector  ETV
vector 2310129  Network.dyn_peer[17]  lookupStabilitySig:vector  ETV
vector 2310130  Network.dyn_peer[17]  lookupTimeSig:vector  ETV
vector 2310101  Network.dyn_peer[8]  lookupHopsSig:vector  ETV
vector 2310102  Network.dyn_peer[8]  lookupStabilitySig:vector  ETV
vector 2310103  Network.dyn_peer[8]  lookupTimeSig:vector  ETV
vector 2310104  Network.dyn_peer[9]  lookupHopsSig:vector  ETV
vector 2310105  Network.dyn_peer[9]  lookupStabilitySig:vector  ETV
vector 2310106  Network.dyn_peer[9]  lookupTimeSig:vector  ETV
vector 2310107  Network.dyn_peer[10]  lookupHopsSig:vector  ETV
vector 2310108  Network.dyn_peer[10]  lookupStabilitySig:vector  ETV
vector 2310109  Network.dyn_peer[10]  lookupTimeSig:vector  ETV
vector 2310110  Network.dyn_peer[11]  lookupHopsSig:vector  ETV
vector 2310111  Network.dyn_peer[11]  lookupStabilitySig:vector  ETV
vector 2310112  Network.dyn_peer[11]  lookupTimeSig:vector  ETV
vector 2310086  Network.dyn_peer[3]  lookupHopsSig:vector  ETV
vector 2310087  Network.dyn_peer[3]  lookupStabilitySig:vector  ETV
vector 2310088  Network.dyn_peer[3]  lookupTimeSig:vector  ETV
vector 2310119  Network.dyn_peer[14]  lookupHopsSig:vector  ETV
vector 2310120  Network.dyn_peer[14]  lookupStabilitySig:vector  ETV
vector 2310121  Network.dyn_peer[14]  lookupTimeSig:vector  ETV
vector 2310095  Network.dyn_peer[6]  lookupHopsSig:vector  ETV
vector 2310096  Network.dyn_peer[6]  lookupStabilitySig:vector  ETV
vector 2310097  Network.dyn_peer[6]  lookupTimeSig:vector  ETV
vector 2310131  Network.dyn_peer[18]  lookupHopsSig:vector  ETV
vector 2310132  Network.dyn_peer[18]  lookupStabilitySig:vector  ETV
vector 2310133  Network.dyn_peer[18]  lookupTimeSig:vector  ETV
vector 2310164  Network.dyn_peer[29]  lookupHopsSig:vector  ETV
vector 2310165  Network.dyn_peer[29]  lookupStabilitySig:vector  ETV
vector 2310166  Network.dyn_peer[29]  lookupTimeSig:vector  ETV
vector 2310146  Network.dyn_peer[23]  lookupHopsSig:vector  ETV
vector 2310147  Network.dyn_peer[23]  lookupStabilitySig:vector  ETV
vector 2310148  Network.dyn_peer[23]  lookupTimeSig:vector  ETV
vector 2310092  Network.dyn_peer[5]  lookupHopsSig:vector  ETV
vector 2310093  Network.dyn_peer[5]  lookupStabilitySig:vector  ETV
vector 2310094  Network.dyn_peer[5]  lookupTimeSig:vector  ETV
vector 2310125  Network.dyn_peer[16]  lookupHopsSig:vector  ETV
vector 2310126  Network.dyn_peer[16]  lookupStabilitySig:vector  ETV
vector 2310127  Network.dyn_peer[16]  lookupTimeSig:vector  ETV
vector 2310188  Network.dyn_peer[37]  lookupHopsSig:vector  ETV
vector 2310189  Network.dyn_peer[37]  lookupStabilitySig:vector  ETV
vector 2310190  Network.dyn_peer[37]  lookupTimeSig:vector  ETV
vector 2310194  Network.dyn_peer[39]  lookupHopsSig:vector  ETV
vector 2310195  Network.dyn_peer[39]  lookupStabilitySig:vector  ETV
vector 2310196  Network.dyn_peer[39]  lookupTimeSig:vector  ETV
vector 2310152  Network.dyn_peer[25]  lookupHopsSig:vector  ETV
vector 2310153  Network.dyn_peer[25]  lookupStabilitySig:vector  ETV
vector 2310154  Network.dyn_peer[25]  lookupTimeSig:vector  ETV
vector 2310134  Network.dyn_peer[19]  lookupHopsSig:vector  ETV
vector 2310135  Network.dyn_peer[19]  lookupStabilitySig:vector  ETV
vector 2310136  Network.dyn_peer[19]  lookupTimeSig:vector  ETV
vector 2310224  Network.dyn_peer[49]  lookupHopsSig:vector  ETV
vector 2310225  Network.dyn_peer[49]  lookupStabilitySig:vector  ETV
vector 2310226  Network.dyn_peer[49]  lookupTimeSig:vector  ETV
vector 2310137  Network.dyn_peer[20]  lookupHopsSig:vector  ETV
vector 2310138  Network.dyn_peer[20]  lookupStabilitySig:vector  ETV
vector 2310139  Network.dyn_peer[20]  lookupTimeSig:vector  ETV
vector 2310230  Network.dyn_peer[51]  lookupHopsSig:vector  ETV
vector 2310231  Network.dyn_peer[51]  lookupStabilitySig:vector  ETV
vector 2310232  Network.dyn_peer[51]  lookupTimeSig:vector  ETV
vector 2310179  Network.dyn_peer[34]  lookupHopsSig:vector  ETV
vector 2310180  Network.dyn_peer[34]  lookupStabilitySig:vector  ETV
vector 2310181  Network.dyn_peer[34]  lookupTimeSig:vector  ETV
vector 2310158  Network.dyn_peer[27]  lookupHopsSig:vector  ETV
vector 2310159  Network.dyn_peer[27]  lookupStabilitySig:vector  ETV
vector 2310160  Network.dyn_peer[27]  lookupTimeSig:vector  ETV
vector 2310161  Network.dyn_peer[28]  lookupHopsSig:vector  ETV
vector 2310162  Network.dyn_peer[28]  lookupStabilitySig:vector  ETV
vector 2310163  Network.dyn_peer[28]  lookupTimeSig:vector  ETV
vector 2310254  Network.dyn_peer[59]  lookupHopsSig:vector  ETV
vector 2310255  Network.dyn_peer[59]  lookupStabilitySig:vector  ETV
vector 2310256  Network.dyn_peer[59]  lookupTimeSig:vector  ETV
vector 2310140  Network.dyn_peer[21]  lookupHopsSig:vector  ETV
vector 2310141  Network.dyn_peer[21]  lookupStabilitySig:vector  ETV
vector 2310142  Network.dyn_peer[21]  lookupTimeSig:vector  ETV
vector 2310263  Network.dyn_peer[62]  lookupHopsSig:vector  ETV
vector 2310264  Network.dyn_peer[62]  lookupStabilitySig:vector  ETV
vector 2310265  Network.dyn_peer[62]  lookupTimeSig:vector  ETV
vector 2310182  Network.dyn_peer[35]  lookupHopsSig:vector  ETV
vector 2310183  Network.dyn_peer[35]  lookupStabilitySig:vector  ETV
vector 2310184  Network.dyn_peer[35]  lookupTimeSig:vector  ETV
vector 2310215  Network.dyn_peer[46]  lookupHopsSig:vector  ETV
vector 2310216  Network.dyn_peer[46]  lookupStabilitySig:vector  ETV
vector 2310217  Network.dyn_peer[46]  lookupTimeSig:vector  ETV
vector 2310245  Network.dyn_peer[56]  lookupHopsSig:vector  ETV
vector 2310246  Network.dyn_peer[56]  lookupStabilitySig:vector  ETV
vector 2310247  Network.dyn_peer[56]  lookupTimeSig:vector  ETV
vector 2310170  Network.dyn_peer[31]  lookupHopsSig:vector  ETV
vector 2310171  Network.dyn_peer[31]  lookupStabilitySig:vector  ETV
vector 2310172  Network.dyn_peer[31]  lookupTimeSig:vector  ETV
vector 2310200  Network.dyn_peer[41]  lookupHopsSig:vector  ETV
vector 2310201  Network.dyn_peer[41]  lookupStabilitySig:vector  ETV
vector 2310202  Network.dyn_peer[41]  lookupTimeSig:vector  ETV
vector 2310173  Network.dyn_peer[32]  lookupHopsSig:vector  ETV
vector 2310174  Network.dyn_peer[32]  lookupStabilitySig:vector  ETV
vector 2310175  Network.dyn_peer[32]  lookupTimeSig:vector  ETV
vector 2310218  Network.dyn_peer[47]  lookupHopsSig:vector  ETV
vector 2310219  Network.dyn_peer[47]  lookupStabilitySig:vector  ETV
vector 2310220  Network.dyn_peer[47]  lookupTimeSig:vector  ETV
vector 2310278  Network.dyn_peer[67]  lookupHopsSig:vector  ETV
vector 2310279  Network.dyn_peer[67]  lookupStabilitySig:vector  ETV
vector 2310280  Network.dyn_peer[67]  lookupTimeSig:vector  ETV
vector 2310293  Network.dyn_peer[72]  lookupHopsSig:vector  ETV
vector 2310294  Network.dyn_peer[72]  lookupStabilitySig:vector  ETV
vector 2310295  Network.dyn_peer[72]  lookupTimeSig:vector  ETV
vector 2310149  Network.dyn_peer[24]  lookupHopsSig:vector  ETV
vector 2310150  Network.dyn_peer[24]  lookupStabilitySig:vector  ETV
vector 2310151  Network.dyn_peer[24]  lookupTimeSig:vector  ETV
vector 2310239  Network.dyn_peer[54]  lookupHopsSig:vector  ETV
vector 2310240  Network.dyn_peer[54]  lookupStabilitySig:vector  ETV
vector 2310241  Network.dyn_peer[54]  lookupTimeSig:vector  ETV
vector 2310212  Network.dyn_peer[45]  lookupHopsSig:vector  ETV
vector 2310213  Network.dyn_peer[45]  lookupStabilitySig:vector  ETV
vector 2310214  Network.dyn_peer[45]  lookupTimeSig:vector  ETV
vector 2310302  Network.dyn_peer[75]  lookupHopsSig:vector  ETV
vector 2310303  Network.dyn_peer[75]  lookupStabilitySig:vector  ETV
vector 2310304  Network.dyn_peer[75]  lookupTimeSig:vector  ETV
vector 2310338  Network.dyn_peer[87]  lookupHopsSig:vector  ETV
vector 2310339  Network.dyn_peer[87]  lookupStabilitySig:vector  ETV
vector 2310340  Network.dyn_peer[87]  lookupTimeSig:vector  ETV
vector 2310251  Network.dyn_peer[58]  lookupHopsSig:vector  ETV
vector 2310252  Network.dyn_peer[58]  lookupStabilitySig:vector  ETV
vector 2310253  Network.dyn_peer[58]  lookupTimeSig:vector  ETV
vector 2310284  Network.dyn_peer[69]  lookupHopsSig:vector  ETV
vector 2310285  Network.dyn_peer[69]  lookupStabilitySig:vector  ETV
vector 2310286  Network.dyn_peer[69]  lookupTimeSig:vector  ETV
vector 2310350  Network.dyn_peer[91]  lookupHopsSig:vector  ETV
vector 2310351  Network.dyn_peer[91]  lookupStabilitySig:vector  ETV
vector 2310352  Network.dyn_peer[91]  lookupTimeSig:vector  ETV
vector 2310233  Network.dyn_peer[52]  lookupHopsSig:vector  ETV
vector 2310234  Network.dyn_peer[52]  lookupStabilitySig:vector  ETV
vector 2310235  Network.dyn_peer[52]  lookupTimeSig:vector  ETV
vector 2310356  Network.dyn_peer[93]  lookupHopsSig:vector  ETV
vector 2310357  Network.dyn_peer[93]  lookupStabilitySig:vector  ETV
vector 2310358  Network.dyn_peer[93]  lookupTimeSig:vector  ETV
vector 2310191  Network.dyn_peer[38]  lookupHopsSig:vector  ETV
vector 2310192  Network.dyn_peer[38]  lookupStabilitySig:vector  ETV
vector 2310193  Network.dyn_peer[38]  lookupTimeSig:vector  ETV
vector 2310197  Network.dyn_peer[40]  lookupHopsSig:vector  ETV
vector 2310198  Network.dyn_peer[40]  lookupStabilitySig:vector  ETV
vector 2310199  Network.dyn_peer[40]  lookupTimeSig:vector  ETV
vector 2310305  Network.dyn_peer[76]  lookupHopsSig:vector  ETV
vector 2310306  Network.dyn_peer[76]  lookupStabilitySig:vector  ETV
vector 2310307  Network.dyn_peer[76]  lookupTimeSig:vector  ETV
vector 2310395  Network.dyn_peer[106]  lookupHopsSig:vector  ETV
vector 2310396  Network.dyn_peer[106]  lookupStabilitySig:vector  ETV
vector 2310397  Network.dyn_peer[106]  lookupTimeSig:vector  ETV
vector 2310287  Network.dyn_peer[70]  lookupHopsSig:vector  ETV
vector 2310288  Network.dyn_peer[70]  lookupStabilitySig:vector  ETV
vector 2310289  Network.dyn_peer[70]  lookupTimeSig:vector  ETV
vector 2310176  Network.dyn_peer[33]  lookupHopsSig:vector  ETV
vector 2310177  Network.dyn_peer[33]  lookupStabilitySig:vector  ETV
vector 2310178  Network.dyn_peer[33]  lookupTimeSig:vector  ETV
vector 2310296  Network.dyn_peer[73]  lookupHopsSig:vector  ETV
vector 2310297  Network.dyn_peer[73]  lookupStabilitySig:vector  ETV
vector 2310298  Network.dyn_peer[73]  lookupTimeSig:vector  ETV
vector 2310122  Network.dyn_peer[15]  lookupHopsSig:vector  ETV
vector 2310123  Network.dyn_peer[15]  lookupStabilitySig:vector  ETV
vector 2310124  Network.dyn_peer[15]  lookupTimeSig:vector  ETV
vector 2310272  Network.dyn_peer[65]  lookupHopsSig:vector  ETV
vector 2310273  Network.dyn_peer[65]  lookupStabilitySig:vector  ETV
vector 2310274  Network.dyn_peer[65]  lookupTimeSig:vector  ETV
vector 2310368  Network.dyn_peer[97]  lookupHopsSig:vector  ETV
vector 2310369  Network.dyn_peer[97]  lookupStabilitySig:vector  ETV
vector 2310370  Network.dyn_peer[97]  lookupTimeSig:vector  ETV
vector 2310311  Network.dyn_peer[78]  lookupHopsSig:vector  ETV
vector 2310312  Network.dyn_peer[78]  lookupStabilitySig:vector  ETV
vector 2310313  Network.dyn_peer[78]  lookupTimeSig:vector  ETV
vector 2310431  Network.dyn_peer[118]  lookupHopsSig:vector  ETV
vector 2310432  Network.dyn_peer[118]  lookupStabilitySig:vector  ETV
vector 2310433  Network.dyn_peer[118]  lookupTimeSig:vector  ETV
vector 2310167  Network.dyn_peer[30]  lookupHopsSig:vector  ETV
vector 2310168  Network.dyn_peer[30]  lookupStabilitySig:vector  ETV
vector 2310169  Network.dyn_peer[30]  lookupTimeSig:vector  ETV
vector 2310299  Network.dyn_peer[74]  lookupHopsSig:vector  ETV
vector 2310300  Network.dyn_peer[74]  lookupStabilitySig:vector  ETV
vector 2310301  Network.dyn_peer[74]  lookupTimeSig:vector  ETV
vector 2310329  Network.dyn_peer[84]  lookupHopsSig:vector  ETV
vector 2310330  Network.dyn_peer[84]  lookupStabilitySig:vector  ETV
vector 2310331  Network.dyn_peer[84]  lookupTimeSig:vector  ETV
vector 2310155  Network.dyn_peer[26]  lookupHopsSig:vector  ETV
vector 2310156  Network.dyn_peer[26]  lookupStabilitySig:vector  ETV
vector 2310157  Network.dyn_peer[26]  lookupTimeSig:vector  ETV
vector 2310185  Network.dyn_peer[36]  lookupHopsSig:vector  ETV
vector 2310186  Network.dyn_peer[36]  lookupStabilitySig:vector  ETV
vector 2310187  Network.dyn_peer[36]  lookupTimeSig:vector  ETV
vector 2310308  Network.dyn_peer[77]  lookupHopsSig:vector  ETV
vector 2310309  Network.dyn_peer[77]  lookupStabilitySig:vector  ETV
vector 2310310  Network.dyn_peer[77]  lookupTimeSig:vector  ETV
vector 2310407  Network.dyn_peer[110]  lookupHopsSig:vector  ETV
vector 2310408  Network.dyn_peer[110]  lookupStabilitySig:vector  ETV
vector 2310409  Network.dyn_peer[110]  lookupTimeSig:vector  ETV
vector 2310389  Network.dyn_peer[104]  lookupHopsSig:vector  ETV
vector 2310390  Network.dyn_peer[104]  lookupStabilitySig:vector  ETV
vector 2310391  Network.dyn_peer[104]  lookupTimeSig:vector  ETV
vector 2310362  Network.dyn_peer[95]  lookupHopsSig:vector  ETV
vector 2310363  Network.dyn_peer[95]  lookupStabilitySig:vector  ETV
vector 2310364  Network.dyn_peer[95]  lookupTimeSig:vector  ETV
vector 2310275  Network.dyn_peer[66]  lookupHopsSig:vector  ETV
vector 2310276  Network.dyn_peer[66]  lookupStabilitySig:vector  ETV
vector 2310277  Network.dyn_peer[66]  lookupTimeSig:vector  ETV
vector 2310335  Network.dyn_peer[86]  lookupHopsSig:vector  ETV
vector 2310336  Network.dyn_peer[86]  lookupStabilitySig:vector  ETV
vector 2310337  Network.dyn_peer[86]  lookupTimeSig:vector  ETV
vector 2310248  Network.dyn_peer[57]  lookupHopsSig:vector  ETV
vector 2310249  Network.dyn_peer[57]  lookupStabilitySig:vector  ETV
vector 2310250  Network.dyn_peer[57]  lookupTimeSig:vector  ETV
vector 2310371  Network.dyn_peer[98]  lookupHopsSig:vector  ETV
vector 2310372  Network.dyn_peer[98]  lookupStabilitySig:vector  ETV
vector 2310373  Network.dyn_peer[98]  lookupTimeSig:vector  ETV
vector 2310347  Network.dyn_peer[90]  lookupHopsSig:vector  ETV
vector 2310348  Network.dyn_peer[90]  lookupStabilitySig:vector  ETV
vector 2310349  Network.dyn_peer[90]  lookupTimeSig:vector  ETV
vector 2310260  Network.dyn_peer[61]  lookupHopsSig:vector  ETV
vector 2310261  Network.dyn_peer[61]  lookupStabilitySig:vector  ETV
vector 2310262  Network.dyn_peer[61]  lookupTimeSig:vector  ETV
vector 2310320  Network.dyn_peer[81]  lookupHopsSig:vector  ETV
vector 2310321  Network.dyn_peer[81]  lookupStabilitySig:vector  ETV
vector 2310322  Network.dyn_peer[81]  lookupTimeSig:vector  ETV
vector 2310266  Network.dyn_peer[63]  lookupHopsSig:vector  ETV
vector 2310267  Network.dyn_peer[63]  lookupStabilitySig:vector  ETV
vector 2310268  Network.dyn_peer[63]  lookupTimeSig:vector  ETV
vector 2310449  Network.dyn_peer[124]  lookupHopsSig:vector  ETV
vector 2310450  Network.dyn_peer[124]  lookupStabilitySig:vector  ETV
vector 2310451  Network.dyn_peer[124]  lookupTimeSig:vector  ETV
vector 2310485  Network.dyn_peer[136]  lookupHopsSig:vector  ETV
vector 2310486  Network.dyn_peer[136]  lookupStabilitySig:vector  ETV
vector 2310487  Network.dyn_peer[136]  lookupTimeSig:vector  ETV
vector 2310323  Network.dyn_peer[82]  lookupHopsSig:vector  ETV
vector 2310324  Network.dyn_peer[82]  lookupStabilitySig:vector  ETV
vector 2310325  Network.dyn_peer[82]  lookupTimeSig:vector  ETV
vector 2310383  Network.dyn_peer[102]  lookupHopsSig:vector  ETV
vector 2310384  Network.dyn_peer[102]  lookupStabilitySig:vector  ETV
vector 2310385  Network.dyn_peer[102]  lookupTimeSig:vector  ETV
vector 2310386  Network.dyn_peer[103]  lookupHopsSig:vector  ETV
vector 2310387  Network.dyn_peer[103]  lookupStabilitySig:vector  ETV
vector 2310388  Network.dyn_peer[103]  lookupTimeSig:vector  ETV
vector 2310359  Network.dyn_peer[94]  lookupHopsSig:vector  ETV
vector 2310360  Network.dyn_peer[94]  lookupStabilitySig:vector  ETV
vector 2310361  Network.dyn_peer[94]  lookupTimeSig:vector  ETV
vector 2310569  Network.dyn_peer[164]  lookupHopsSig:vector  ETV
vector 2310570  Network.dyn_peer[164]  lookupStabilitySig:vector  ETV
vector 2310571  Network.dyn_peer[164]  lookupTimeSig:vector  ETV
vector 2310242  Network.dyn_peer[55]  lookupHopsSig:vector  ETV
vector 2310243  Network.dyn_peer[55]  lookupStabilitySig:vector  ETV
vector 2310244  Network.dyn_peer[55]  lookupTimeSig:vector  ETV
vector 2310425  Network.dyn_peer[116]  lookupHopsSig:vector  ETV
vector 2310426  Network.dyn_peer[116]  lookupStabilitySig:vector  ETV
vector 2310427  Network.dyn_peer[116]  lookupTimeSig:vector  ETV
vector 2310473  Network.dyn_peer[132]  lookupHopsSig:vector  ETV
vector 2310474  Network.dyn_peer[132]  lookupStabilitySig:vector  ETV
vector 2310475  Network.dyn_peer[132]  lookupTimeSig:vector  ETV
vector 2310281  Network.dyn_peer[68]  lookupHopsSig:vector  ETV
vector 2310282  Network.dyn_peer[68]  lookupStabilitySig:vector  ETV
vector 2310283  Network.dyn_peer[68]  lookupTimeSig:vector  ETV
vector 2310290  Network.dyn_peer[71]  lookupHopsSig:vector  ETV
vector 2310291  Network.dyn_peer[71]  lookupStabilitySig:vector  ETV
vector 2310292  Network.dyn_peer[71]  lookupTimeSig:vector  ETV
vector 2310392  Network.dyn_peer[105]  lookupHopsSig:vector  ETV
vector 2310393  Network.dyn_peer[105]  lookupStabilitySig:vector  ETV
vector 2310394  Network.dyn_peer[105]  lookupTimeSig:vector  ETV
vector 2310482  Network.dyn_peer[135]  lookupHopsSig:vector  ETV
vector 2310483  Network.dyn_peer[135]  lookupStabilitySig:vector  ETV
vector 2310484  Network.dyn_peer[135]  lookupTimeSig:vector  ETV
vector 2310542  Network.dyn_peer[155]  lookupHopsSig:vector  ETV
vector 2310543  Network.dyn_peer[155]  lookupStabilitySig:vector  ETV
vector 2310544  Network.dyn_peer[155]  lookupTimeSig:vector  ETV
vector 2310518  Network.dyn_peer[147]  lookupHopsSig:vector  ETV
vector 2310519  Network.dyn_peer[147]  lookupStabilitySig:vector  ETV
vector 2310520  Network.dyn_peer[147]  lookupTimeSig:vector  ETV
vector 2310548  Network.dyn_peer[157]  lookupHopsSig:vector  ETV
vector 2310549  Network.dyn_peer[157]  lookupStabilitySig:vector  ETV
vector 2310550  Network.dyn_peer[157]  lookupTimeSig:vector  ETV
vector 2310341  Network.dyn_peer[88]  lookupHopsSig:vector  ETV
vector 2310342  Network.dyn_peer[88]  lookupStabilitySig:vector  ETV
vector 2310343  Network.dyn_peer[88]  lookupTimeSig:vector  ETV
vector 2310494  Network.dyn_peer[139]  lookupHopsSig:vector  ETV
vector 2310495  Network.dyn_peer[139]  lookupStabilitySig:vector  ETV
vector 2310496  Network.dyn_peer[139]  lookupTimeSig:vector  ETV
vector 2310554  Network.dyn_peer[159]  lookupHopsSig:vector  ETV
vector 2310555  Network.dyn_peer[159]  lookupStabilitySig:vector  ETV
vector 2310556  Network.dyn_peer[159]  lookupTimeSig:vector  ETV
vector 2310227  Network.dyn_peer[50]  lookupHopsSig:vector  ETV
vector 2310228  Network.dyn_peer[50]  lookupStabilitySig:vector  ETV
vector 2310229  Network.dyn_peer[50]  lookupTimeSig:vector  ETV
vector 2310410  Network.dyn_peer[111]  lookupHopsSig:vector  ETV
vector 2310411  Network.dyn_peer[111]  lookupStabilitySig:vector  ETV
vector 2310412  Network.dyn_peer[111]  lookupTimeSig:vector  ETV
vector 2310533  Network.dyn_peer[152]  lookupHopsSig:vector  ETV
vector 2310534  Network.dyn_peer[152]  lookupStabilitySig:vector  ETV
vector 2310535  Network.dyn_peer[152]  lookupTimeSig:vector  ETV
vector 2310269  Network.dyn_peer[64]  lookupHopsSig:vector  ETV
vector 2310270  Network.dyn_peer[64]  lookupStabilitySig:vector  ETV
vector 2310271  Network.dyn_peer[64]  lookupTimeSig:vector  ETV
vector 2310365  Network.dyn_peer[96]  lookupHopsSig:vector  ETV
vector 2310366  Network.dyn_peer[96]  lookupStabilitySig:vector  ETV
vector 2310367  Network.dyn_peer[96]  lookupTimeSig:vector  ETV
vector 2310314  Network.dyn_peer[79]  lookupHopsSig:vector  ETV
vector 2310315  Network.dyn_peer[79]  lookupStabilitySig:vector  ETV
vector 2310316  Network.dyn_peer[79]  lookupTimeSig:vector  ETV
vector 2310593  Network.dyn_peer[172]  lookupHopsSig:vector  ETV
vector 2310594  Network.dyn_peer[172]  lookupStabilitySig:vector  ETV
vector 2310595  Network.dyn_peer[172]  lookupTimeSig:vector  ETV
vector 2310476  Network.dyn_peer[133]  lookupHopsSig:vector  ETV
vector 2310477  Network.dyn_peer[133]  lookupStabilitySig:vector  ETV
vector 2310478  Network.dyn_peer[133]  lookupTimeSig:vector  ETV
vector 2310209  Network.dyn_peer[44]  lookupHopsSig:vector  ETV
vector 2310210  Network.dyn_peer[44]  lookupStabilitySig:vector  ETV
vector 2310211  Network.dyn_peer[44]  lookupTimeSig:vector  ETV
vector 2310509  Network.dyn_peer[144]  lookupHopsSig:vector  ETV
vector 2310510  Network.dyn_peer[144]  lookupStabilitySig:vector  ETV
vector 2310511  Network.dyn_peer[144]  lookupTimeSig:vector  ETV
vector 2310422  Network.dyn_peer[115]  lookupHopsSig:vector  ETV
vector 2310423  Network.dyn_peer[115]  lookupStabilitySig:vector  ETV
vector 2310424  Network.dyn_peer[115]  lookupTimeSig:vector  ETV
vector 2310440  Network.dyn_peer[121]  lookupHopsSig:vector  ETV
vector 2310441  Network.dyn_peer[121]  lookupStabilitySig:vector  ETV
vector 2310442  Network.dyn_peer[121]  lookupTimeSig:vector  ETV
vector 2310203  Network.dyn_peer[42]  lookupHopsSig:vector  ETV
vector 2310204  Network.dyn_peer[42]  lookupStabilitySig:vector  ETV
vector 2310205  Network.dyn_peer[42]  lookupTimeSig:vector  ETV
vector 2310398  Network.dyn_peer[107]  lookupHopsSig:vector  ETV
vector 2310399  Network.dyn_peer[107]  lookupStabilitySig:vector  ETV
vector 2310400  Network.dyn_peer[107]  lookupTimeSig:vector  ETV
vector 2310221  Network.dyn_peer[48]  lookupHopsSig:vector  ETV
vector 2310222  Network.dyn_peer[48]  lookupStabilitySig:vector  ETV
vector 2310223  Network.dyn_peer[48]  lookupTimeSig:vector  ETV
vector 2310521  Network.dyn_peer[148]  lookupHopsSig:vector  ETV
vector 2310522  Network.dyn_peer[148]  lookupStabilitySig:vector  ETV
vector 2310523  Network.dyn_peer[148]  lookupTimeSig:vector  ETV
vector 2310611  Network.dyn_peer[178]  lookupHopsSig:vector  ETV
vector 2310612  Network.dyn_peer[178]  lookupStabilitySig:vector  ETV
vector 2310613  Network.dyn_peer[178]  lookupTimeSig:vector  ETV
vector 2310464  Network.dyn_peer[129]  lookupHopsSig:vector  ETV
vector 2310465  Network.dyn_peer[129]  lookupStabilitySig:vector  ETV
vector 2310466  Network.dyn_peer[129]  lookupTimeSig:vector  ETV
vector 2310524  Network.dyn_peer[149]  lookupHopsSig:vector  ETV
vector 2310525  Network.dyn_peer[149]  lookupStabilitySig:vector  ETV
vector 2310526  Network.dyn_peer[149]  lookupTimeSig:vector  ETV
vector 2310257  Network.dyn_peer[60]  lookupHopsSig:vector  ETV
vector 2310258  Network.dyn_peer[60]  lookupStabilitySig:vector  ETV
vector 2310259  Network.dyn_peer[60]  lookupTimeSig:vector  ETV
vector 2310377  Network.dyn_peer[100]  lookupHopsSig:vector  ETV
vector 2310378  Network.dyn_peer[100]  lookupStabilitySig:vector  ETV
vector 2310379  Network.dyn_peer[100]  lookupTimeSig:vector  ETV
vector 2310557  Network.dyn_peer[160]  lookupHopsSig:vector  ETV
vector 2310558  Network.dyn_peer[160]  lookupStabilitySig:vector  ETV
vector 2310559  Network.dyn_peer[160]  lookupTimeSig:vector  ETV
vector 2310587  Network.dyn_peer[170]  lookupHopsSig:vector  ETV
vector 2310588  Network.dyn_peer[170]  lookupStabilitySig:vector  ETV
vector 2310589  Network.dyn_peer[170]  lookupTimeSig:vector  ETV
vector 2310500  Network.dyn_peer[141]  lookupHopsSig:vector  ETV
vector 2310501  Network.dyn_peer[141]  lookupStabilitySig:vector  ETV
vector 2310502  Network.dyn_peer[141]  lookupTimeSig:vector  ETV
vector 2310506  Network.dyn_peer[143]  lookupHopsSig:vector  ETV
vector 2310507  Network.dyn_peer[143]  lookupStabilitySig:vector  ETV
vector 2310508  Network.dyn_peer[143]  lookupTimeSig:vector  ETV
vector 2310332  Network.dyn_peer[85]  lookupHopsSig:vector  ETV
vector 2310333  Network.dyn_peer[85]  lookupStabilitySig:vector  ETV
vector 2310334  Network.dyn_peer[85]  lookupTimeSig:vector  ETV
vector 2310545  Network.dyn_peer[156]  lookupHopsSig:vector  ETV
vector 2310546  Network.dyn_peer[156]  lookupStabilitySig:vector  ETV
vector 2310547  Network.dyn_peer[156]  lookupTimeSig:vector  ETV
vector 2310647  Network.dyn_peer[190]  lookupHopsSig:vector  ETV
vector 2310648  Network.dyn_peer[190]  lookupStabilitySig:vector  ETV
vector 2310649  Network.dyn_peer[190]  lookupTimeSig:vector  ETV
vector 2310380  Network.dyn_peer[101]  lookupHopsSig:vector  ETV
vector 2310381  Network.dyn_peer[101]  lookupStabilitySig:vector  ETV
vector 2310382  Network.dyn_peer[101]  lookupTimeSig:vector  ETV
vector 2310680  Network.dyn_peer[201]  lookupHopsSig:vector  ETV
vector 2310681  Network.dyn_peer[201]  lookupStabilitySig:vector  ETV
vector 2310682  Network.dyn_peer[201]  lookupTimeSig:vector  ETV
vector 2310446  Network.dyn_peer[123]  lookupHopsSig:vector  ETV
vector 2310447  Network.dyn_peer[123]  lookupStabilitySig:vector  ETV
vector 2310448  Network.dyn_peer[123]  lookupTimeSig:vector  ETV
vector 2310599  Network.dyn_peer[174]  lookupHopsSig:vector  ETV
vector 2310600  Network.dyn_peer[174]  lookupStabilitySig:vector  ETV
vector 2310601  Network.dyn_peer[174]  lookupTimeSig:vector  ETV
vector 2310632  Network.dyn_peer[185]  lookupHopsSig:vector  ETV
vector 2310633  Network.dyn_peer[185]  lookupStabilitySig:vector  ETV
vector 2310634  Network.dyn_peer[185]  lookupTimeSig:vector  ETV
vector 2310515  Network.dyn_peer[146]  lookupHopsSig:vector  ETV
vector 2310516  Network.dyn_peer[146]  lookupStabilitySig:vector  ETV
vector 2310517  Network.dyn_peer[146]  lookupTimeSig:vector  ETV
vector 2310551  Network.dyn_peer[158]  lookupHopsSig:vector  ETV
vector 2310552  Network.dyn_peer[158]  lookupStabilitySig:vector  ETV
vector 2310553  Network.dyn_peer[158]  lookupTimeSig:vector  ETV
vector 2310344  Network.dyn_peer[89]  lookupHopsSig:vector  ETV
vector 2310345  Network.dyn_peer[89]  lookupStabilitySig:vector  ETV
vector 2310346  Network.dyn_peer[89]  lookupTimeSig:vector  ETV
vector 2310674  Network.dyn_peer[199]  lookupHopsSig:vector  ETV
vector 2310675  Network.dyn_peer[199]  lookupStabilitySig:vector  ETV
vector 2310676  Network.dyn_peer[199]  lookupTimeSig:vector  ETV
vector 2310620  Network.dyn_peer[181]  lookupHopsSig:vector  ETV
vector 2310621  Network.dyn_peer[181]  lookupStabilitySig:vector  ETV
vector 2310622  Network.dyn_peer[181]  lookupTimeSig:vector  ETV
vector 2310596  Network.dyn_peer[173]  lookupHopsSig:vector  ETV
vector 2310597  Network.dyn_peer[173]  lookupStabilitySig:vector  ETV
vector 2310598  Network.dyn_peer[173]  lookupTimeSig:vector  ETV
vector 2310665  Network.dyn_peer[196]  lookupHopsSig:vector  ETV
vector 2310666  Network.dyn_peer[196]  lookupStabilitySig:vector  ETV
vector 2310667  Network.dyn_peer[196]  lookupTimeSig:vector  ETV
vector 2310488  Network.dyn_peer[137]  lookupHopsSig:vector  ETV
vector 2310489  Network.dyn_peer[137]  lookupStabilitySig:vector  ETV
vector 2310490  Network.dyn_peer[137]  lookupTimeSig:vector  ETV
vector 2310461  Network.dyn_peer[128]  lookupHopsSig:vector  ETV
vector 2310462  Network.dyn_peer[128]  lookupStabilitySig:vector  ETV
vector 2310463  Network.dyn_peer[128]  lookupTimeSig:vector  ETV
vector 2310437  Network.dyn_peer[120]  lookupHopsSig:vector  ETV
vector 2310438  Network.dyn_peer[120]  lookupStabilitySig:vector  ETV
vector 2310439  Network.dyn_peer[120]  lookupTimeSig:vector  ETV
vector 2310353  Network.dyn_peer[92]  lookupHopsSig:vector  ETV
vector 2310354  Network.dyn_peer[92]  lookupStabilitySig:vector  ETV
vector 2310355  Network.dyn_peer[92]  lookupTimeSig:vector  ETV
vector 2310443  Network.dyn_peer[122]  lookupHopsSig:vector  ETV
vector 2310444  Network.dyn_peer[122]  lookupStabilitySig:vector  ETV
vector 2310445  Network.dyn_peer[122]  lookupTimeSig:vector  ETV
vector 2310206  Network.dyn_peer[43]  lookupHopsSig:vector  ETV
vector 2310207  Network.dyn_peer[43]  lookupStabilitySig:vector  ETV
vector 2310208  Network.dyn_peer[43]  lookupTimeSig:vector  ETV
vector 2310416  Network.dyn_peer[113]  lookupHopsSig:vector  ETV
vector 2310417  Network.dyn_peer[113]  lookupStabilitySig:vector  ETV
vector 2310418  Network.dyn_peer[113]  lookupTimeSig:vector  ETV