file 2073117 1369697414                                         
version 2
run Stability2-62-20130528-01:29:52-24168
attr configname Stability2
attr datetime 20130528-01:29:52
attr experiment Stability2
attr inifile omnetpp.ini
attr iterationvars $0=200
attr iterationvars2 "$0=200, $repetition=2"
attr measurement $0=200
attr network Network
attr processid 24168
attr repetition 2
attr replication #2
attr resultdir results
attr runnumber 62
attr seedset 62

vector 1890062  Network.churner  inGoingSizeSig:vector  ETV
vector 1860068  Network.dyn_peer[2]  lookupHopsSig:vector  ETV
vector 1860069  Network.dyn_peer[2]  lookupStabilitySig:vector  ETV
vector 1860070  Network.dyn_peer[2]  lookupTimeSig:vector  ETV
vector 1860074  Network.dyn_peer[4]  lookupHopsSig:vector  ETV
vector 1860075  Network.dyn_peer[4]  lookupStabilitySig:vector  ETV
vector 1860076  Network.dyn_peer[4]  lookupTimeSig:vector  ETV
vector 1860080  Network.dyn_peer[6]  lookupHopsSig:vector  ETV
vector 1860081  Network.dyn_peer[6]  lookupStabilitySig:vector  ETV
vector 1860082  Network.dyn_peer[6]  lookupTimeSig:vector  ETV
vector 1860062  Network.dyn_peer[0]  lookupHopsSig:vector  ETV
vector 1860063  Network.dyn_peer[0]  lookupStabilitySig:vector  ETV
vector 1860064  Network.dyn_peer[0]  lookupTimeSig:vector  ETV
vector 1860092  Network.dyn_peer[10]  lookupHopsSig:vector  ETV
vector 1860093  Network.dyn_peer[10]  lookupStabilitySig:vector  ETV
vector 1860094  Network.dyn_peer[10]  lookupTimeSig:vector  ETV
vector 1860077  Network.dyn_peer[5]  lookupHopsSig:vector  ETV
vector 1860078  Network.dyn_peer[5]  lookupStabilitySig:vector  ETV
vector 1860079  Network.dyn_peer[5]  lookupTimeSig:vector  ETV
vector 1860083  Network.dyn_peer[7]  lookupHopsSig:vector  ETV
vector 1860084  Network.dyn_peer[7]  lookupStabilitySig:vector  ETV
vector 1860085  Network.dyn_peer[7]  lookupTimeSig:vector  ETV
vector 1860086  Network.dyn_peer[8]  lookupHopsSig:vector  ETV
vector 1860087  Network.dyn_peer[8]  lookupStabilitySig:vector  ETV
vector 1860088  Network.dyn_peer[8]  lookupTimeSig:vector  ETV
vector 1860089  Network.dyn_peer[9]  lookupHopsSig:vector  ETV
vector 1860090  Network.dyn_peer[9]  lookupStabilitySig:vector  ETV
vector 1860091  Network.dyn_peer[9]  lookupTimeSig:vector  ETV
vector 1860101  Network.dyn_peer[13]  lookupHopsSig:vector  ETV
vector 1860102  Network.dyn_peer[13]  lookupStabilitySig:vector  ETV
vector 1860103  Network.dyn_peer[13]  lookupTimeSig:vector  ETV
vector 1860065  Network.dyn_peer[1]  lookupHopsSig:vector  ETV
vector 1860066  Network.dyn_peer[1]  lookupStabilitySig:vector  ETV
vector 1860067  Network.dyn_peer[1]  lookupTimeSig:vector  ETV
vector 1860095  Network.dyn_peer[11]  lookupHopsSig:vector  ETV
vector 1860096  Network.dyn_peer[11]  lookupStabilitySig:vector  ETV
vector 1860097  Network.dyn_peer[11]  lookupTimeSig:vector  ETV
vector 1860128  Network.dyn_peer[22]  lookupHopsSig:vector  ETV
vector 1860129  Network.dyn_peer[22]  lookupStabilitySig:vector  ETV
vector 1860130  Network.dyn_peer[22]  lookupTimeSig:vector  ETV
vector 1860104  Network.dyn_peer[14]  lookupHopsSig:vector  ETV
vector 1860105  Network.dyn_peer[14]  lookupStabilitySig:vector  ETV
vector 1860106  Network.dyn_peer[14]  lookupTimeSig:vector  ETV
vector 1860107  Network.dyn_peer[15]  lookupHopsSig:vector  ETV
vector 1860108  Network.dyn_peer[15]  lookupStabilitySig:vector  ETV
vector 1860109  Network.dyn_peer[15]  lookupTimeSig:vector  ETV
vector 1860137  Network.dyn_peer[25]  lookupHopsSig:vector  ETV
vector 1860138  Network.dyn_peer[25]  lookupStabilitySig:vector  ETV
vector 1860139  Network.dyn_peer[25]  lookupTimeSig:vector  ETV
vector 1860110  Network.dyn_peer[16]  lookupHopsSig:vector  ETV
vector 1860111  Network.dyn_peer[16]  lookupStabilitySig:vector  ETV
vector 1860112  Network.dyn_peer[16]  lookupTimeSig:vector  ETV
vector 1860158  Network.dyn_peer[32]  lookupHopsSig:vector  ETV
vector 1860159  Network.dyn_peer[32]  lookupStabilitySig:vector  ETV
vector 1860160  Network.dyn_peer[32]  lookupTimeSig:vector  ETV
vector 1860071  Network.dyn_peer[3]  lookupHopsSig:vector  ETV
vector 1860072  Network.dyn_peer[3]  lookupStabilitySig:vector  ETV
vector 1860073  Network.dyn_peer[3]  lookupTimeSig:vector  ETV
vector 1860131  Network.dyn_peer[23]  lookupHopsSig:vector  ETV
vector 1860132  Network.dyn_peer[23]  lookupStabilitySig:vector  ETV
vector 1860133  Network.dyn_peer[23]  lookupTimeSig:vector  ETV
vector 1860164  Network.dyn_peer[34]  lookupHopsSig:vector  ETV
vector 1860165  Network.dyn_peer[34]  lookupStabilitySig:vector  ETV
vector 1860166  Network.dyn_peer[34]  lookupTimeSig:vector  ETV
vector 1860116  Network.dyn_peer[18]  lookupHopsSig:vector  ETV
vector 1860117  Network.dyn_peer[18]  lookupStabilitySig:vector  ETV
vector 1860118  Network.dyn_peer[18]  lookupTimeSig:vector  ETV
vector 1860152  Network.dyn_peer[30]  lookupHopsSig:vector  ETV
vector 1860153  Network.dyn_peer[30]  lookupStabilitySig:vector  ETV
vector 1860154  Network.dyn_peer[30]  lookupTimeSig:vector  ETV
vector 1860125  Network.dyn_peer[21]  lookupHopsSig:vector  ETV
vector 1860126  Network.dyn_peer[21]  lookupStabilitySig:vector  ETV
vector 1860127  Network.dyn_peer[21]  lookupTimeSig:vector  ETV
vector 1860098  Network.dyn_peer[12]  lookupHopsSig:vector  ETV
vector 1860099  Network.dyn_peer[12]  lookupStabilitySig:vector  ETV
vector 1860100  Network.dyn_peer[12]  lookupTimeSig:vector  ETV
vector 1860161  Network.dyn_peer[33]  lookupHopsSig:vector  ETV
vector 1860162  Network.dyn_peer[33]  lookupStabilitySig:vector  ETV
vector 1860163  Network.dyn_peer[33]  lookupTimeSig:vector  ETV
vector 1860191  Network.dyn_peer[43]  lookupHopsSig:vector  ETV
vector 1860192  Network.dyn_peer[43]  lookupStabilitySig:vector  ETV
vector 1860193  Network.dyn_peer[43]  lookupTimeSig:vector  ETV
vector 1860134  Network.dyn_peer[24]  lookupHopsSig:vector  ETV
vector 1860135  Network.dyn_peer[24]  lookupStabilitySig:vector  ETV
vector 1860136  Network.dyn_peer[24]  lookupTimeSig:vector  ETV
vector 1860113  Network.dyn_peer[17]  lookupHopsSig:vector  ETV
vector 1860114  Network.dyn_peer[17]  lookupStabilitySig:vector  ETV
vector 1860115  Network.dyn_peer[17]  lookupTimeSig:vector  ETV
vector 1860143  Network.dyn_peer[27]  lookupHopsSig:vector  ETV
vector 1860144  Network.dyn_peer[27]  lookupStabilitySig:vector  ETV
vector 1860145  Network.dyn_peer[27]  lookupTimeSig:vector  ETV
vector 1860122  Network.dyn_peer[20]  lookupHopsSig:vector  ETV
vector 1860123  Network.dyn_peer[20]  lookupStabilitySig:vector  ETV
vector 1860124  Network.dyn_peer[20]  lookupTimeSig:vector  ETV
vector 1860185  Network.dyn_peer[41]  lookupHopsSig:vector  ETV
vector 1860186  Network.dyn_peer[41]  lookupStabilitySig:vector  ETV
vector 1860187  Network.dyn_peer[41]  lookupTimeSig:vector  ETV
vector 1860167  Network.dyn_peer[35]  lookupHopsSig:vector  ETV
vector 1860168  Network.dyn_peer[35]  lookupStabilitySig:vector  ETV
vector 1860169  Network.dyn_peer[35]  lookupTimeSig:vector  ETV
vector 1860146  Network.dyn_peer[28]  lookupHopsSig:vector  ETV
vector 1860147  Network.dyn_peer[28]  lookupStabilitySig:vector  ETV
vector 1860148  Network.dyn_peer[28]  lookupTimeSig:vector  ETV
vector 1860155  Network.dyn_peer[31]  lookupHopsSig:vector  ETV
vector 1860156  Network.dyn_peer[31]  lookupStabilitySig:vector  ETV
vector 1860157  Network.dyn_peer[31]  lookupTimeSig:vector  ETV
vector 1860218  Network.dyn_peer[52]  lookupHopsSig:vector  ETV
vector 1860219  Network.dyn_peer[52]  lookupStabilitySig:vector  ETV
vector 1860220  Network.dyn_peer[52]  lookupTimeSig:vector  ETV
vector 1860221  Network.dyn_peer[53]  lookupHopsSig:vector  ETV
vector 1860222  Network.dyn_peer[53]  lookupStabilitySig:vector  ETV
vector 1860223  Network.dyn_peer[53]  lookupTimeSig:vector  ETV
vector 1860176  Network.dyn_peer[38]  lookupHopsSig:vector  ETV
vector 1860177  Network.dyn_peer[38]  lookupStabilitySig:vector  ETV
vector 1860178  Network.dyn_peer[38]  lookupTimeSig:vector  ETV
vector 1860119  Network.dyn_peer[19]  lookupHopsSig:vector  ETV
vector 1860120  Network.dyn_peer[19]  lookupStabilitySig:vector  ETV
vector 1860121  Network.dyn_peer[19]  lookupTimeSig:vector  ETV
vector 1860149  Network.dyn_peer[29]  lookupHopsSig:vector  ETV
vector 1860150  Network.dyn_peer[29]  lookupStabilitySig:vector  ETV
vector 1860151  Network.dyn_peer[29]  lookupTimeSig:vector  ETV
vector 1860197  Network.dyn_peer[45]  lookupHopsSig:vector  ETV
vector 1860198  Network.dyn_peer[45]  lookupStabilitySig:vector  ETV
vector 1860199  Network.dyn_peer[45]  lookupTimeSig:vector  ETV
vector 1860257  Network.dyn_peer[65]  lookupHopsSig:vector  ETV
vector 1860258  Network.dyn_peer[65]  lookupStabilitySig:vector  ETV
vector 1860259  Network.dyn_peer[65]  lookupTimeSig:vector  ETV
vector 1860290  Network.dyn_peer[76]  lookupHopsSig:vector  ETV
vector 1860291  Network.dyn_peer[76]  lookupStabilitySig:vector  ETV
vector 1860292  Network.dyn_peer[76]  lookupTimeSig:vector  ETV
vector 1860173  Network.dyn_peer[37]  lookupHopsSig:vector  ETV
vector 1860174  Network.dyn_peer[37]  lookupStabilitySig:vector  ETV
vector 1860175  Network.dyn_peer[37]  lookupTimeSig:vector  ETV
vector 1860287  Network.dyn_peer[75]  lookupHopsSig:vector  ETV
vector 1860288  Network.dyn_peer[75]  lookupStabilitySig:vector  ETV
vector 1860289  Network.dyn_peer[75]  lookupTimeSig:vector  ETV
vector 1860140  Network.dyn_peer[26]  lookupHopsSig:vector  ETV
vector 1860141  Network.dyn_peer[26]  lookupStabilitySig:vector  ETV
vector 1860142  Network.dyn_peer[26]  lookupTimeSig:vector  ETV
vector 1860170  Network.dyn_peer[36]  lookupHopsSig:vector  ETV
vector 1860171  Network.dyn_peer[36]  lookupStabilitySig:vector  ETV
vector 1860172  Network.dyn_peer[36]  lookupTimeSig:vector  ETV
vector 1860263  Network.dyn_peer[67]  lookupHopsSig:vector  ETV
vector 1860264  Network.dyn_peer[67]  lookupStabilitySig:vector  ETV
vector 1860265  Network.dyn_peer[67]  lookupTimeSig:vector  ETV
vector 1860239  Network.dyn_peer[59]  lookupHopsSig:vector  ETV
vector 1860240  Network.dyn_peer[59]  lookupStabilitySig:vector  ETV
vector 1860241  Network.dyn_peer[59]  lookupTimeSig:vector  ETV
vector 1860272  Network.dyn_peer[70]  lookupHopsSig:vector  ETV
vector 1860273  Network.dyn_peer[70]  lookupStabilitySig:vector  ETV
vector 1860274  Network.dyn_peer[70]  lookupTimeSig:vector  ETV
vector 1860248  Network.dyn_peer[62]  lookupHopsSig:vector  ETV
vector 1860249  Network.dyn_peer[62]  lookupStabilitySig:vector  ETV
vector 1860250  Network.dyn_peer[62]  lookupTimeSig:vector  ETV
vector 1860278  Network.dyn_peer[72]  lookupHopsSig:vector  ETV
vector 1860279  Network.dyn_peer[72]  lookupStabilitySig:vector  ETV
vector 1860280  Network.dyn_peer[72]  lookupTimeSig:vector  ETV
vector 1860341  Network.dyn_peer[93]  lookupHopsSig:vector  ETV
vector 1860342  Network.dyn_peer[93]  lookupStabilitySig:vector  ETV
vector 1860343  Network.dyn_peer[93]  lookupTimeSig:vector  ETV
vector 1860224  Network.dyn_peer[54]  lookupHopsSig:vector  ETV
vector 1860225  Network.dyn_peer[54]  lookupStabilitySig:vector  ETV
vector 1860226  Network.dyn_peer[54]  lookupTimeSig:vector  ETV
vector 1860347  Network.dyn_peer[95]  lookupHopsSig:vector  ETV
vector 1860348  Network.dyn_peer[95]  lookupStabilitySig:vector  ETV
vector 1860349  Network.dyn_peer[95]  lookupTimeSig:vector  ETV
vector 1860200  Network.dyn_peer[46]  lookupHopsSig:vector  ETV
vector 1860201  Network.dyn_peer[46]  lookupStabilitySig:vector  ETV
vector 1860202  Network.dyn_peer[46]  lookupTimeSig:vector  ETV
vector 1860206  Network.dyn_peer[48]  lookupHopsSig:vector  ETV
vector 1860207  Network.dyn_peer[48]  lookupStabilitySig:vector  ETV
vector 1860208  Network.dyn_peer[48]  lookupTimeSig:vector  ETV
vector 1860296  Network.dyn_peer[78]  lookupHopsSig:vector  ETV
vector 1860297  Network.dyn_peer[78]  lookupStabilitySig:vector  ETV
vector 1860298  Network.dyn_peer[78]  lookupTimeSig:vector  ETV
vector 1860251  Network.dyn_peer[63]  lookupHopsSig:vector  ETV
vector 1860252  Network.dyn_peer[63]  lookupStabilitySig:vector  ETV
vector 1860253  Network.dyn_peer[63]  lookupTimeSig:vector  ETV
vector 1860281  Network.dyn_peer[73]  lookupHopsSig:vector  ETV
vector 1860282  Network.dyn_peer[73]  lookupStabilitySig:vector  ETV
vector 1860283  Network.dyn_peer[73]  lookupTimeSig:vector  ETV
vector 1860254  Network.dyn_peer[64]  lookupHopsSig:vector  ETV
vector 1860255  Network.dyn_peer[64]  lookupStabilitySig:vector  ETV
vector 1860256  Network.dyn_peer[64]  lookupTimeSig:vector  ETV
vector 1860314  Network.dyn_peer[84]  lookupHopsSig:vector  ETV
vector 1860315  Network.dyn_peer[84]  lookupStabilitySig:vector  ETV
vector 1860316  Network.dyn_peer[84]  lookupTimeSig:vector  ETV
vector 1860209  Network.dyn_peer[49]  lookupHopsSig:vector  ETV
vector 1860210  Network.dyn_peer[49]  lookupStabilitySig:vector  ETV
vector 1860211  Network.dyn_peer[49]  lookupTimeSig:vector  ETV
vector 1860182  Network.dyn_peer[40]  lookupHopsSig:vector  ETV
vector 1860183  Network.dyn_peer[40]  lookupStabilitySig:vector  ETV
vector 1860184  Network.dyn_peer[40]  lookupTimeSig:vector  ETV
vector 1860359  Network.dyn_peer[99]  lookupHopsSig:vector  ETV
vector 1860360  Network.dyn_peer[99]  lookupStabilitySig:vector  ETV
vector 1860361  Network.dyn_peer[99]  lookupTimeSig:vector  ETV
vector 1860212  Network.dyn_peer[50]  lookupHopsSig:vector  ETV
vector 1860213  Network.dyn_peer[50]  lookupStabilitySig:vector  ETV
vector 1860214  Network.dyn_peer[50]  lookupTimeSig:vector  ETV
vector 1860305  Network.dyn_peer[81]  lookupHopsSig:vector  ETV
vector 1860306  Network.dyn_peer[81]  lookupStabilitySig:vector  ETV
vector 1860307  Network.dyn_peer[81]  lookupTimeSig:vector  ETV
vector 1860431  Network.dyn_peer[123]  lookupHopsSig:vector  ETV
vector 1860432  Network.dyn_peer[123]  lookupStabilitySig:vector  ETV
vector 1860433  Network.dyn_peer[123]  lookupTimeSig:vector  ETV
vector 1860194  Network.dyn_peer[44]  lookupHopsSig:vector  ETV
vector 1860195  Network.dyn_peer[44]  lookupStabilitySig:vector  ETV
vector 1860196  Network.dyn_peer[44]  lookupTimeSig:vector  ETV
vector 1860227  Network.dyn_peer[55]  lookupHopsSig:vector  ETV
vector 1860228  Network.dyn_peer[55]  lookupStabilitySig:vector  ETV
vector 1860229  Network.dyn_peer[55]  lookupTimeSig:vector  ETV
vector 1860437  Network.dyn_peer[125]  lookupHopsSig:vector  ETV
vector 1860438  Network.dyn_peer[125]  lookupStabilitySig:vector  ETV
vector 1860439  Network.dyn_peer[125]  lookupTimeSig:vector  ETV
vector 1860350  Network.dyn_peer[96]  lookupHopsSig:vector  ETV
vector 1860351  Network.dyn_peer[96]  lookupStabilitySig:vector  ETV
vector 1860352  Network.dyn_peer[96]  lookupTimeSig:vector  ETV
vector 1860236  Network.dyn_peer[58]  lookupHopsSig:vector  ETV
vector 1860237  Network.dyn_peer[58]  lookupStabilitySig:vector  ETV
vector 1860238  Network.dyn_peer[58]  lookupTimeSig:vector  ETV
vector 1860245  Network.dyn_peer[61]  lookupHopsSig:vector  ETV
vector 1860246  Network.dyn_peer[61]  lookupStabilitySig:vector  ETV
vector 1860247  Network.dyn_peer[61]  lookupTimeSig:vector  ETV
vector 1860443  Network.dyn_peer[127]  lookupHopsSig:vector  ETV
vector 1860444  Network.dyn_peer[127]  lookupStabilitySig:vector  ETV
vector 1860445  Network.dyn_peer[127]  lookupTimeSig:vector  ETV
vector 1860269  Network.dyn_peer[69]  lookupHopsSig:vector  ETV
vector 1860270  Network.dyn_peer[69]  lookupStabilitySig:vector  ETV
vector 1860271  Network.dyn_peer[69]  lookupTimeSig:vector  ETV
vector 1860392  Network.dyn_peer[110]  lookupHopsSig:vector  ETV
vector 1860393  Network.dyn_peer[110]  lookupStabilitySig:vector  ETV
vector 1860394  Network.dyn_peer[110]  lookupTimeSig:vector  ETV
vector 1860422  Network.dyn_peer[120]  lookupHopsSig:vector  ETV
vector 1860423  Network.dyn_peer[120]  lookupStabilitySig:vector  ETV
vector 1860424  Network.dyn_peer[120]  lookupTimeSig:vector  ETV
vector 1860395  Network.dyn_peer[111]  lookupHopsSig:vector  ETV
vector 1860396  Network.dyn_peer[111]  lookupStabilitySig:vector  ETV
vector 1860397  Network.dyn_peer[111]  lookupTimeSig:vector  ETV
vector 1860344  Network.dyn_peer[94]  lookupHopsSig:vector  ETV
vector 1860345  Network.dyn_peer[94]  lookupStabilitySig:vector  ETV
vector 1860346  Network.dyn_peer[94]  lookupTimeSig:vector  ETV
vector 1860470  Network.dyn_peer[136]  lookupHopsSig:vector  ETV
vector 1860471  Network.dyn_peer[136]  lookupStabilitySig:vector  ETV
vector 1860472  Network.dyn_peer[136]  lookupTimeSig:vector  ETV
vector 1860203  Network.dyn_peer[47]  lookupHopsSig:vector  ETV
vector 1860204  Network.dyn_peer[47]  lookupStabilitySig:vector  ETV
vector 1860205  Network.dyn_peer[47]  lookupTimeSig:vector  ETV
vector 1860293  Network.dyn_peer[77]  lookupHopsSig:vector  ETV
vector 1860294  Network.dyn_peer[77]  lookupStabilitySig:vector  ETV
vector 1860295  Network.dyn_peer[77]  lookupTimeSig:vector  ETV
vector 1860419  Network.dyn_peer[119]  lookupHopsSig:vector  ETV
vector 1860420  Network.dyn_peer[119]  lookupStabilitySig:vector  ETV
vector 1860421  Network.dyn_peer[119]  lookupTimeSig:vector  ETV
vector 1860242  Network.dyn_peer[60]  lookupHopsSig:vector  ETV
vector 1860243  Network.dyn_peer[60]  lookupStabilitySig:vector  ETV
vector 1860244  Network.dyn_peer[60]  lookupTimeSig:vector  ETV
vector 1860362  Network.dyn_peer[100]  lookupHopsSig:vector  ETV
vector 1860363  Network.dyn_peer[100]  lookupStabilitySig:vector  ETV
vector 1860364  Network.dyn_peer[100]  lookupTimeSig:vector  ETV
vector 1860215  Network.dyn_peer[51]  lookupHopsSig:vector  ETV
vector 1860216  Network.dyn_peer[51]  lookupStabilitySig:vector  ETV
vector 1860217  Network.dyn_peer[51]  lookupTimeSig:vector  ETV
vector 1860335  Network.dyn_peer[91]  lookupHopsSig:vector  ETV
vector 1860336  Network.dyn_peer[91]  lookupStabilitySig:vector  ETV
vector 1860337  Network.dyn_peer[91]  lookupTimeSig:vector  ETV
vector 1860428  Network.dyn_peer[122]  lookupHopsSig:vector  ETV
vector 1860429  Network.dyn_peer[122]  lookupStabilitySig:vector  ETV
vector 1860430  Network.dyn_peer[122]  lookupTimeSig:vector  ETV
vector 1860488  Network.dyn_peer[142]  lookupHopsSig:vector  ETV
vector 1860489  Network.dyn_peer[142]  lookupStabilitySig:vector  ETV
vector 1860490  Network.dyn_peer[142]  lookupTimeSig:vector  ETV
vector 1860434  Network.dyn_peer[124]  lookupHopsSig:vector  ETV
vector 1860435  Network.dyn_peer[124]  lookupStabilitySig:vector  ETV
vector 1860436  Network.dyn_peer[124]  lookupTimeSig:vector  ETV
vector 1860233  Network.dyn_peer[57]  lookupHopsSig:vector  ETV
vector 1860234  Network.dyn_peer[57]  lookupStabilitySig:vector  ETV
vector 1860235  Network.dyn_peer[57]  lookupTimeSig:vector  ETV
vector 1860353  Network.dyn_peer[97]  lookupHopsSig:vector  ETV
vector 1860354  Network.dyn_peer[97]  lookupStabilitySig:vector  ETV
vector 1860355  Network.dyn_peer[97]  lookupTimeSig:vector  ETV
vector 1860383  Network.dyn_peer[107]  lookupHopsSig:vector  ETV
vector 1860384  Network.dyn_peer[107]  lookupStabilitySig:vector  ETV
vector 1860385  Network.dyn_peer[107]  lookupTimeSig:vector  ETV
vector 1860179  Network.dyn_peer[39]  lookupHopsSig:vector  ETV
vector 1860180  Network.dyn_peer[39]  lookupStabilitySig:vector  ETV
vector 1860181  Network.dyn_peer[39]  lookupTimeSig:vector  ETV
vector 1860539  Network.dyn_peer[159]  lookupHopsSig:vector  ETV
vector 1860540  Network.dyn_peer[159]  lookupStabilitySig:vector  ETV
vector 1860541  Network.dyn_peer[159]  lookupTimeSig:vector  ETV
vector 1860425  Network.dyn_peer[121]  lookupHopsSig:vector  ETV
vector 1860426  Network.dyn_peer[121]  lookupStabilitySig:vector  ETV
vector 1860427  Network.dyn_peer[121]  lookupTimeSig:vector  ETV
vector 1860458  Network.dyn_peer[132]  lookupHopsSig:vector  ETV
vector 1860459  Network.dyn_peer[132]  lookupStabilitySig:vector  ETV
vector 1860460  Network.dyn_peer[132]  lookupTimeSig:vector  ETV
vector 1860407  Network.dyn_peer[115]  lookupHopsSig:vector  ETV
vector 1860408  Network.dyn_peer[115]  lookupStabilitySig:vector  ETV
vector 1860409  Network.dyn_peer[115]  lookupTimeSig:vector  ETV
vector 1860380  Network.dyn_peer[106]  lookupHopsSig:vector  ETV
vector 1860381  Network.dyn_peer[106]  lookupStabilitySig:vector  ETV
vector 1860382  Network.dyn_peer[106]  lookupTimeSig:vector  ETV
vector 1860389  Network.dyn_peer[109]  lookupHopsSig:vector  ETV
vector 1860390  Network.dyn_peer[109]  lookupStabilitySig:vector  ETV
vector 1860391  Network.dyn_peer[109]  lookupTimeSig:vector  ETV
vector 1860332  Network.dyn_peer[90]  lookupHopsSig:vector  ETV
vector 1860333  Network.dyn_peer[90]  lookupStabilitySig:vector  ETV
vector 1860334  Network.dyn_peer[90]  lookupTimeSig:vector  ETV
vector 1860482  Network.dyn_peer[140]  lookupHopsSig:vector  ETV
vector 1860483  Network.dyn_peer[140]  lookupStabilitySig:vector  ETV
vector 1860484  Network.dyn_peer[140]  lookupTimeSig:vector  ETV
vector 1860518  Network.dyn_peer[152]  lookupHopsSig:vector  ETV
vector 1860519  Network.dyn_peer[152]  lookupStabilitySig:vector  ETV
vector 1860520  Network.dyn_peer[152]  lookupTimeSig:vector  ETV
vector 1860401  Network.dyn_peer[113]  lookupHopsSig:vector  ETV
vector 1860402  Network.dyn_peer[113]  lookupStabilitySig:vector  ETV
vector 1860403  Network.dyn_peer[113]  lookupTimeSig:vector  ETV
vector 1860374  Network.dyn_peer[104]  lookupHopsSig:vector  ETV
vector 1860375  Network.dyn_peer[104]  lookupStabilitySig:vector  ETV
vector 1860376  Network.dyn_peer[104]  lookupTimeSig:vector  ETV
vector 1860464  Network.dyn_peer[134]  lookupHopsSig:vector  ETV
vector 1860465  Network.dyn_peer[134]  lookupStabilitySig:vector  ETV
vector 1860466  Network.dyn_peer[134]  lookupTimeSig:vector  ETV
vector 1860416  Network.dyn_peer[118]  lookupHopsSig:vector  ETV
vector 1860417  Network.dyn_peer[118]  lookupStabilitySig:vector  ETV
vector 1860418  Network.dyn_peer[118]  lookupTimeSig:vector  ETV
vector 1860506  Network.dyn_peer[148]  lookupHopsSig:vector  ETV
vector 1860507  Network.dyn_peer[148]  lookupStabilitySig:vector  ETV
vector 1860508  Network.dyn_peer[148]  lookupTimeSig:vector  ETV
vector 1860449  Network.dyn_peer[129]  lookupHopsSig:vector  ETV
vector 1860450  Network.dyn_peer[129]  lookupStabilitySig:vector  ETV
vector 1860451  Network.dyn_peer[129]  lookupTimeSig:vector  ETV
vector 1860302  Network.dyn_peer[80]  lookupHopsSig:vector  ETV
vector 1860303  Network.dyn_peer[80]  lookupStabilitySig:vector  ETV
vector 1860304  Network.dyn_peer[80]  lookupTimeSig:vector  ETV
vector 1860398  Network.dyn_peer[112]  lookupHopsSig:vector  ETV
vector 1860399  Network.dyn_peer[112]  lookupStabilitySig:vector  ETV
vector 1860400  Network.dyn_peer[112]  lookupTimeSig:vector  ETV
vector 1860494  Network.dyn_peer[144]  lookupHopsSig:vector  ETV
vector 1860495  Network.dyn_peer[144]  lookupStabilitySig:vector  ETV
vector 1860496  Network.dyn_peer[144]  lookupTimeSig:vector  ETV
vector 1860527  Network.dyn_peer[155]  lookupHopsSig:vector  ETV
vector 1860528  Network.dyn_peer[155]  lookupStabilitySig:vector  ETV
vector 1860529  Network.dyn_peer[155]  lookupTimeSig:vector  ETV
vector 1860260  Network.dyn_peer[66]  lookupHopsSig:vector  ETV
vector 1860261  Network.dyn_peer[66]  lookupStabilitySig:vector  ETV
vector 1860262  Network.dyn_peer[66]  lookupTimeSig:vector  ETV
vector 1860440  Network.dyn_peer[126]  lookupHopsSig:vector  ETV
vector 1860441  Network.dyn_peer[126]  lookupStabilitySig:vector  ETV
vector 1860442  Network.dyn_peer[126]  lookupTimeSig:vector  ETV
vector 1860266  Network.dyn_peer[68]  lookupHopsSig:vector  ETV
vector 1860267  Network.dyn_peer[68]  lookupStabilitySig:vector  ETV
vector 1860268  Network.dyn_peer[68]  lookupTimeSig:vector  ETV
vector 1860356  Network.dyn_peer[98]  lookupHopsSig:vector  ETV
vector 1860357  Network.dyn_peer[98]  lookupStabilitySig:vector  ETV
vector 1860358  Network.dyn_peer[98]  lookupTimeSig:vector  ETV
vector 1860329  Network.dyn_peer[89]  lookupHopsSig:vector  ETV
vector 1860330  Network.dyn_peer[89]  lookupStabilitySig:vector  ETV
vector 1860331  Network.dyn_peer[89]  lookupTimeSig:vector  ETV
vector 1860479  Network.dyn_peer[139]  lookupHopsSig:vector  ETV
vector 1860480  Network.dyn_peer[139]  lookupStabilitySig:vector  ETV
vector 1860481  Network.dyn_peer[139]  lookupTimeSig:vector  ETV
vector 1860599  Network.dyn_peer[179]  lookupHopsSig:vector  ETV
vector 1860600  Network.dyn_peer[179]  lookupStabilitySig:vector  ETV
vector 1860601  Network.dyn_peer[179]  lookupTimeSig:vector  ETV
vector 1860551  Network.dyn_peer[163]  lookupHopsSig:vector  ETV
vector 1860552  Network.dyn_peer[163]  lookupStabilitySig:vector  ETV
vector 1860553  Network.dyn_peer[163]  lookupTimeSig:vector  ETV
vector 1860284  Network.dyn_peer[74]  lookupHopsSig:vector  ETV
vector 1860285  Network.dyn_peer[74]  lookupStabilitySig:vector  ETV
vector 1860286  Network.dyn_peer[74]  lookupTimeSig:vector  ETV
vector 1860647  Network.dyn_peer[195]  lookupHopsSig:vector  ETV
vector 1860648  Network.dyn_peer[195]  lookupStabilitySig:vector  ETV
vector 1860649  Network.dyn_peer[195]  lookupTimeSig:vector  ETV
vector 1860530  Network.dyn_peer[156]  lookupHopsSig:vector  ETV
vector 1860531  Network.dyn_peer[156]  lookupStabilitySig:vector  ETV
vector 1860532  Network.dyn_peer[156]  lookupTimeSig:vector  ETV
vector 1860560  Network.dyn_peer[166]  lookupHopsSig:vector  ETV
vector 1860561  Network.dyn_peer[166]  lookupStabilitySig:vector  ETV
vector 1860562  Network.dyn_peer[166]  lookupTimeSig:vector  ETV
vector 1860275  Network.dyn_peer[71]  lookupHopsSig:vector  ETV
vector 1860276  Network.dyn_peer[71]  lookupStabilitySig:vector  ETV
vector 1860277  Network.dyn_peer[71]  lookupTimeSig:vector  ETV
vector 1860548  Network.dyn_peer[162]  lookupHopsSig:vector  ETV
vector 1860549  Network.dyn_peer[162]  lookupStabilitySig:vector  ETV
vector 1860550  Network.dyn_peer[162]  lookupTimeSig:vector  ETV
vector 1860608  Network.dyn_peer[182]  lookupHopsSig:vector  ETV
vector 1860609  Network.dyn_peer[182]  lookupStabilitySig:vector  ETV
vector 1860610  Network.dyn_peer[182]  lookupTimeSig:vector  ETV
vector 1860638  Network.dyn_peer[192]  lookupHopsSig:vector  ETV
vector 1860639  Network.dyn_peer[192]  lookupStabilitySig:vector  ETV
vector 1860640  Network.dyn_peer[192]  lookupTimeSig:vector  ETV
vector 1860404  Network.dyn_peer[114]  lookupHopsSig:vector  ETV
vector 1860405  Network.dyn_peer[114]  lookupStabilitySig:vector  ETV
vector 1860406  Network.dyn_peer[114]  lookupTimeSig:vector  ETV
vector 1860554  Network.dyn_peer[164]  lookupHopsSig:vector  ETV
vector 1860555  Network.dyn_peer[164]  lookupStabilitySig:vector  ETV
vector 1860556  Network.dyn_peer[164]  lookupTimeSig:vector  ETV
vector 1860377  Network.dyn_peer[105]  lookupHopsSig:vector  ETV
vector 1860378  Network.dyn_peer[105]  lookupStabilitySig:vector  ETV
vector 1860379  Network.dyn_peer[105]  lookupTimeSig:vector  ETV
vector 1860386  Network.dyn_peer[108]  lookupHopsSig:vector  ETV
vector 1860387  Network.dyn_peer[108]  lookupStabilitySig:vector  ETV
vector 1860388  Network.dyn_peer[108]  lookupTimeSig:vector  ETV
vector 1860572  Network.dyn_peer[170]  lookupHopsSig:vector  ETV
vector 1860573  Network.dyn_peer[170]  lookupStabilitySig:vector  ETV
vector 1860574  Network.dyn_peer[170]  lookupTimeSig:vector  ETV
vector 1860632  Network.dyn_peer[190]  lookupHopsSig:vector  ETV
vector 1860633  Network.dyn_peer[190]  lookupStabilitySig:vector  ETV
vector 1860634  Network.dyn_peer[190]  lookupTimeSig:vector  ETV
vector 1860581  Network.dyn_peer[173]  lookupHopsSig:vector  ETV
vector 1860582  Network.dyn_peer[173]  lookupStabilitySig:vector  ETV
vector 1860583  Network.dyn_peer[173]  lookupTimeSig:vector  ETV
vector 1860473  Network.dyn_peer[137]  lookupHopsSig:vector  ETV
vector 1860474  Network.dyn_peer[137]  lookupStabilitySig:vector  ETV
vector 1860475  Network.dyn_peer[137]  lookupTimeSig:vector  ETV
vector 1860503  Network.dyn_peer[147]  lookupHopsSig:vector  ETV
vector 1860504  Network.dyn_peer[147]  lookupStabilitySig:vector  ETV
vector 1860505  Network.dyn_peer[147]  lookupTimeSig:vector  ETV
vector 1860563  Network.dyn_peer[167]  lookupHopsSig:vector  ETV
vector 1860564  Network.dyn_peer[167]  lookupStabilitySig:vector  ETV
vector 1860565  Network.dyn_peer[167]  lookupTimeSig:vector  ETV
vector 1860653  Network.dyn_peer[197]  lookupHopsSig:vector  ETV
vector 1860654  Network.dyn_peer[197]  lookupStabilitySig:vector  ETV
vector 1860655  Network.dyn_peer[197]  lookupTimeSig:vector  ETV
vector 1860326  Network.dyn_peer[88]  lookupHopsSig:vector  ETV
vector 1860327  Network.dyn_peer[88]  lookupStabilitySig:vector  ETV
vector 1860328  Network.dyn_peer[88]  lookupTimeSig:vector  ETV
vector 1860602  Network.dyn_peer[180]  lookupHopsSig:vector  ETV
vector 1860603  Network.dyn_peer[180]  lookupStabilitySig:vector  ETV
vector 1860604  Network.dyn_peer[180]  lookupTimeSig:vector  ETV
vector 1860410  Network.dyn_peer[116]  lookupHopsSig:vector  ETV
vector 1860411  Network.dyn_peer[116]  lookupStabilitySig:vector  ETV
vector 1860412  Network.dyn_peer[116]  lookupTimeSig:vector  ETV
vector 1860536  Network.dyn_peer[158]  lookupHopsSig:vector  ETV
vector 1860537  Network.dyn_peer[158]  lookupStabilitySig:vector  ETV
vector 1860538  Network.dyn_peer[158]  lookupTimeSig:vector  ETV
vector 1860299  Network.dyn_peer[79]  lookupHopsSig:vector  ETV
vector 1860300  Network.dyn_peer[79]  lookupStabilitySig:vector  ETV
vector 1860301  Network.dyn_peer[79]  lookupTimeSig:vector  ETV
vector 1860542  Network.dyn_peer[160]  lookupHopsSig:vector  ETV
vector 1860543  Network.dyn_peer[160]  lookupStabilitySig:vector  ETV
vector 1860544  Network.dyn_peer[160]  lookupTimeSig:vector  ETV
vector 1860722  Network.dyn_peer[220]  lookupHopsSig:vector  ETV
vector 1860723  Network.dyn_peer[220]  lookupStabilitySig:vector  ETV
vector 1860724  Network.dyn_peer[220]  lookupTimeSig:vector  ETV
vector 1860485  Network.dyn_peer[141]  lookupHopsSig:vector  ETV
vector 1860486  Network.dyn_peer[141]  lookupStabilitySig:vector  ETV