file 2109122 1369933127                                         
version 2
run Stability2-67-20130528-01:31:45-24168
attr configname Stability2
attr datetime 20130528-01:31:45
attr experiment Stability2
attr inifile omnetpp.ini
attr iterationvars $0=200
attr iterationvars2 "$0=200, $repetition=7"
attr measurement $0=200
attr network Network
attr processid 24168
attr repetition 7
attr replication #7
attr resultdir results
attr runnumber 67
attr seedset 67
vector 2040067  Network.churner  inGoingSizeSig:vector  ETV
2040067	2060954 48168 10 185115 20 40 2001 0 1205 1345533 1130621869
vector 2010073  Network.dyn_peer[2]  lookupHopsSig:vector  ETV
2010073	405754 308 23 242576 20.03 43.761855984786 10 0 70 214 8786
vector 2010074  Network.dyn_peer[2]  lookupStabilitySig:vector  ETV
2010074	406062 428 23 242576 20.03 43.761855984786 10 -0.125 1 7.8175457566977 7.1465164903967
vector 2010075  Network.dyn_peer[2]  lookupTimeSig:vector  ETV
2010075	406490 315 23 242576 20.03 43.761855984786 10 0 7.1 22.3 92.23
vector 2010079  Network.dyn_peer[4]  lookupHopsSig:vector  ETV
2010079	407657 245 35 269535 20.05 45.801892572832 8 0 52 140 4826
vector 2010080  Network.dyn_peer[4]  lookupStabilitySig:vector  ETV
2010080	407902 347 35 269535 20.05 45.801892572832 8 -0.16666662693024 1 5.810868460685 5.2040745479239
vector 2010081  Network.dyn_peer[4]  lookupTimeSig:vector  ETV
2010081	408249 255 35 269535 20.05 45.801892572832 8 0 5.3 14.7 51.13
vector 2010067  Network.dyn_peer[0]  lookupHopsSig:vector  ETV
2010067	403125 404 58 238436 20.11 43.469648272338 13 1 46 193 5453
vector 2010068  Network.dyn_peer[0]  lookupStabilitySig:vector  ETV
2010068	403529 592 58 238436 20.11 43.469648272338 13 0.19999998807907 0.97517378441989 10.398243209347 8.9053012508383
vector 2010069  Network.dyn_peer[0]  lookupTimeSig:vector  ETV
2010069	404121 424 58 238436 20.11 43.469648272338 13 0.1 4.7 20.5 58.49
vector 2010076  Network.dyn_peer[3]  lookupHopsSig:vector  ETV
2010076	406805 241 76 69380 20.14 31.560673830794 8 1 36 105 2477
vector 2010077  Network.dyn_peer[3]  lookupStabilitySig:vector  ETV
2010077	407046 358 76 69380 20.14 31.560673830794 8 -0.39999997615814 0.95238095149398 5.548343077302 5.2559808279844
vector 2010078  Network.dyn_peer[3]  lookupTimeSig:vector  ETV
2010078	407404 253 76 69380 20.14 31.560673830794 8 0.1 3.7 11.2 26.92
vector 2010082  Network.dyn_peer[5]  lookupHopsSig:vector  ETV
2010082	408504 236 88 102920 20.16 34.418771958945 8 1 26 120 2488
vector 2010083  Network.dyn_peer[5]  lookupStabilitySig:vector  ETV
2010083	408740 350 88 102920 20.16 34.418771958945 8 -0.22222220897675 0.9584158398211 5.8901790380478 5.4288499322827
vector 2010084  Network.dyn_peer[5]  lookupTimeSig:vector  ETV
2010084	409090 245 88 102920 20.16 34.418771958945 8 0.1 2.7 12.7 27.33
vector 2010085  Network.dyn_peer[6]  lookupHopsSig:vector  ETV
2010085	409335 232 97 99506 20.17 34.143579788332 8 1 37 122 3012
vector 2010086  Network.dyn_peer[6]  lookupStabilitySig:vector  ETV
2010086	409567 348 97 99506 20.17 34.143579788332 8 -0.33333337306976 0.92494928836823 5.5833434164524 5.1588482522668
vector 2010087  Network.dyn_peer[6]  lookupTimeSig:vector  ETV
2010087	409915 242 97 99506 20.17 34.143579788332 8 0.1 3.8 12.9 32.61
vector 2010124  Network.dyn_peer[19]  lookupHopsSig:vector  ETV
2010124	424763 364 115 332153 20.2 52.195447913761 12 0 48 229 7323
vector 2010125  Network.dyn_peer[19]  lookupStabilitySig:vector  ETV
2010125	425127 522 115 332153 20.2 52.195447913761 12 -0.20000004768372 1 9.8783354461193 9.4107523335996
vector 2010126  Network.dyn_peer[19]  lookupTimeSig:vector  ETV
2010126	425649 377 115 332153 20.2 52.195447913761 12 0 4.9 24 77.92
vector 2010070  Network.dyn_peer[1]  lookupHopsSig:vector  ETV
2010070	404545 349 127 141040 20.22 37.185754923769 11 2 18 136 1884
vector 2010071  Network.dyn_peer[1]  lookupStabilitySig:vector  ETV
2010071	404894 498 127 141040 20.22 37.185754923769 11 0.076923072338104 0.97872340492904 8.9053841531277 7.9594110310991
vector 2010072  Network.dyn_peer[1]  lookupTimeSig:vector  ETV
2010072	405392 362 127 141040 20.22 37.185754923769 11 0.2 1.9 14.6 21.62
vector 2010115  Network.dyn_peer[16]  lookupHopsSig:vector  ETV
2010115	421020 300 159 225966 20.27 42.608036056296 10 1 61 200 8366
vector 2010116  Network.dyn_peer[16]  lookupStabilitySig:vector  ETV
2010116	421320 447 159 225966 20.27 42.608036056296 10 -0.33333337306976 0.98706896509975 7.6464388286695 7.231623921896
vector 2010117  Network.dyn_peer[16]  lookupTimeSig:vector  ETV
2010117	421767 312 159 225966 20.27 42.608036056296 10 0.1 6.2 20.9 87.73
vector 2010091  Network.dyn_peer[8]  lookupHopsSig:vector  ETV
2010091	411101 262 175 61109 20.29 30.779067206107 9 2 28 74 1186
vector 2010092  Network.dyn_peer[8]  lookupStabilitySig:vector  ETV
2010092	411363 394 175 61109 20.29 30.779067206107 9 0.59999999403954 0.96165191754699 6.884872045368 5.4312710963645
vector 2010093  Network.dyn_peer[8]  lookupTimeSig:vector  ETV
2010093	411757 275 175 61109 20.29 30.779067206107 9 0.2 2.9 8.2 13.38
vector 2010100  Network.dyn_peer[11]  lookupHopsSig:vector  ETV
2010100	414702 498 195 330814 20.32 52.009752819844 16 2 73 296 12126
vector 2010101  Network.dyn_peer[11]  lookupStabilitySig:vector  ETV
2010101	415200 714 195 330814 20.32 52.009752819844 16 0 0.99207397643477 13.44452670496 12.229507602264
vector 2010102  Network.dyn_peer[11]  lookupTimeSig:vector  ETV
2010102	415914 521 195 330814 20.32 52.009752819844 16 0.2 7.4 31.1 127.29
vector 2010103  Network.dyn_peer[12]  lookupHopsSig:vector  ETV
2010103	416435 368 206 315426 20.33 50.083645045102 12 2 73 248 9712
vector 2010104  Network.dyn_peer[12]  lookupStabilitySig:vector  ETV
2010104	416803 541 206 315426 20.33 50.083645045102 12 0.21428573131561 0.98284488916397 9.9720383565873 8.8309730471107
vector 2010105  Network.dyn_peer[12]  lookupTimeSig:vector  ETV
2010105	417344 379 206 315426 20.33 50.083645045102 12 0.2 7.4 25.9 102.15
vector 2010133  Network.dyn_peer[22]  lookupHopsSig:vector  ETV
2010133	428486 398 210 243285 20.33 43.811027908111 13 1 28 136 2286
vector 2010134  Network.dyn_peer[22]  lookupStabilitySig:vector  ETV
2010134	428884 574 210 243285 20.33 43.811027908111 13 0.39999997615814 0.99229583982378 11.06323243957 9.7994196033099
vector 2010135  Network.dyn_peer[22]  lookupTimeSig:vector  ETV
2010135	429458 416 210 243285 20.33 43.811027908111 13 0.1 2.9 14.8 25.68
vector 2010139  Network.dyn_peer[24]  lookupHopsSig:vector  ETV
2010139	431261 337 228 237819 20.35 43.42300254766 11 1 44 221 6819
vector 2010140  Network.dyn_peer[24]  lookupStabilitySig:vector  ETV
2010140	431598 494 228 237819 20.35 43.42300254766 11 0.44444441795349 0.97802197746933 9.3636343870312 8.2207946389945
vector 2010141  Network.dyn_peer[24]  lookupTimeSig:vector  ETV
2010141	432092 349 228 237819 20.35 43.42300254766 11 0.1 4.5 23.1 72.69
vector 2010112  Network.dyn_peer[15]  lookupHopsSig:vector  ETV
2010112	420077 267 239 108202 20.36 34.822322807959 9 2 32 132 3058
vector 2010113  Network.dyn_peer[15]  lookupStabilitySig:vector  ETV
2010113	420344 398 239 108202 20.36 34.822322807959 9 -0.16666662693024 0.97912713512778 6.5942586027086 5.8680424507631
vector 2010114  Network.dyn_peer[15]  lookupTimeSig:vector  ETV
2010114	420742 278 239 108202 20.36 34.822322807959 9 0.2 3.3 14 33.26
vector 2010088  Network.dyn_peer[7]  lookupHopsSig:vector  ETV
2010088	410157 267 257 255003 20.38 44.673265227007 9 1 76 181 9141
vector 2010089  Network.dyn_peer[7]  lookupStabilitySig:vector  ETV
2010089	410424 398 257 255003 20.38 44.673265227007 9 0.39999997615814 0.98507462721318 7.4728293856606 6.6160816049474
vector 2010090  Network.dyn_peer[7]  lookupTimeSig:vector  ETV
2010090	410822 279 257 255003 20.38 44.673265227007 9 0.2 7.7 18.9 95.05
vector 2010097  Network.dyn_peer[10]  lookupHopsSig:vector  ETV
2010097	413092 462 280 238155 20.41 43.448095408229 15 1 43 183 3851
vector 2010098  Network.dyn_peer[10]  lookupStabilitySig:vector  ETV
2010098	413554 667 280 238155 20.41 43.448095408229 15 0.39999997615814 0.98005319200456 12.614574005827 11.026111082907
vector 2010099  Network.dyn_peer[10]  lookupTimeSig:vector  ETV
2010099	414221 481 280 238155 20.41 43.448095408229 15 0.2 4.4 19.7 42.25
vector 2010127  Network.dyn_peer[20]  lookupHopsSig:vector  ETV
2010127	426026 372 284 327168 20.41 51.514597139593 12 2 61 270 9908
vector 2010128  Network.dyn_peer[20]  lookupStabilitySig:vector  ETV
2010128	426398 528 284 327168 20.41 51.514597139593 12 0 0.98289902321994 9.4954042620957 8.3619687301919
vector 2010129  Network.dyn_peer[20]  lookupTimeSig:vector  ETV
2010129	426926 383 284 327168 20.41 51.514597139593 12 0.2 6.2 28.1 104.55
vector 2010130  Network.dyn_peer[21]  lookupHopsSig:vector  ETV
2010130	427309 335 295 148885 20.42 37.715173348723 11 1 23 126 1980
vector 2010131  Network.dyn_peer[21]  lookupStabilitySig:vector  ETV
2010131	427644 492 295 148885 20.42 37.715173348723 11 0.26666665077209 0.98245614022017 9.3784515410662 8.5048087771309
vector 2010132  Network.dyn_peer[21]  lookupTimeSig:vector  ETV
2010132	428136 350 295 148885 20.42 37.715173348723 11 0.2 2.4 13.6 22.38
vector 2010193  Network.dyn_peer[42]  lookupHopsSig:vector  ETV
2010193	452264 433 309 305742 20.43 49.041800935357 14 0 43 255 7425
vector 2010194  Network.dyn_peer[42]  lookupStabilitySig:vector  ETV
2010194	452697 621 309 305742 20.43 49.041800935357 14 0.39999997615814 1 12.434867267963 11.342094721795
vector 2010195  Network.dyn_peer[42]  lookupTimeSig:vector  ETV
2010195	453318 446 309 305742 20.43 49.041800935357 14 0 4.4 26.8 79.48
vector 2010136  Network.dyn_peer[23]  lookupHopsSig:vector  ETV
2010136	429874 400 319 257068 20.44 44.825892642636 13 2 43 195 5237
vector 2010137  Network.dyn_peer[23]  lookupStabilitySig:vector  ETV
2010137	430274 570 319 257068 20.44 44.825892642636 13 0 0.98366394452751 10.668466279283 9.6200645077065
vector 2010138  Network.dyn_peer[23]  lookupTimeSig:vector  ETV
2010138	430844 417 319 257068 20.44 44.825892642636 13 0.2 4.4 20.7 56.35
vector 2010109  Network.dyn_peer[14]  lookupHopsSig:vector  ETV
2010109	418891 341 330 313997 20.45 49.923552329981 11 3 58 272 9314
vector 2010110  Network.dyn_peer[14]  lookupStabilitySig:vector  ETV
2010110	419232 497 330 313997 20.45 49.923552329981 11 0.28571426868439 0.97406340017915 8.8126997053623 7.6430452823704
vector 2010111  Network.dyn_peer[14]  lookupTimeSig:vector  ETV
2010111	419729 348 330 313997 20.45 49.923552329981 11 0.3 5.9 28.2 98.62
vector 2010145  Network.dyn_peer[26]  lookupHopsSig:vector  ETV
2010145	433839 431 350 305423 20.47 49.007439867822 14 1 55 227 8227
vector 2010146  Network.dyn_peer[26]  lookupStabilitySig:vector  ETV
2010146	434270 626 350 305423 20.47 49.007439867822 14 0.16666668653488 0.99416569434106 11.930918217637 10.833162913492
vector 2010147  Network.dyn_peer[26]  lookupTimeSig:vector  ETV
2010147	434896 453 350 305423 20.47 49.007439867822 14 0.2 5.6 24 86.9
vector 2010121  Network.dyn_peer[18]  lookupHopsSig:vector  ETV
2010121	423477 371 370 315870 20.49 50.132245531756 12 3 61 276 10258
vector 2010122  Network.dyn_peer[18]  lookupStabilitySig:vector  ETV
2010122	423848 532 370 315870 20.49 50.132245531756 12 0.39999997615814 0.99398108338937 9.9370587537997 8.6998510982915
vector 2010123  Network.dyn_peer[18]  lookupTimeSig:vector  ETV
2010123	424380 383 370 315870 20.49 50.132245531756 12 0.3 6.2 28.7 108.15
vector 2010106  Network.dyn_peer[13]  lookupHopsSig:vector  ETV
2010106	417723 336 414 299265 20.54 48.400350216721 11 3 46 207 6801
vector 2010107  Network.dyn_peer[13]  lookupStabilitySig:vector  ETV
2010107	418059 481 414 299265 20.54 48.400350216721 11 0.125 0.99378881976008 8.5739929545671 7.6759352442783
vector 2010108  Network.dyn_peer[13]  lookupTimeSig:vector  ETV
2010108	418540 351 414 299265 20.54 48.400350216721 11 0.4 4.7 21.7 72.17
vector 2010118  Network.dyn_peer[17]  lookupHopsSig:vector  ETV
2010118	422079 399 455 239632 20.58 43.55192681146 13 2 39 202 5052
vector 2010119  Network.dyn_peer[17]  lookupStabilitySig:vector  ETV
2010119	422478 586 455 239632 20.58 43.55192681146 13 0.19999998807907 0.98184818401933 10.560025449842 9.384081450783
vector 2010120  Network.dyn_peer[17]  lookupTimeSig:vector  ETV
2010120	423064 413 455 239632 20.58 43.55192681146 13 0.3 4 21.4 54.6
vector 2010148  Network.dyn_peer[27]  lookupHopsSig:vector  ETV
2010148	435349 301 459 204477 20.58 41.212457771297 10 2 77 200 8674
vector 2010149  Network.dyn_peer[27]  lookupStabilitySig:vector  ETV
2010149	435650 415 459 204477 20.58 41.212457771297 10 0.25 0.97790697589517 7.6972087435424 6.4567138283031
vector 2010150  Network.dyn_peer[27]  lookupTimeSig:vector  ETV
2010150	436065 314 459 204477 20.58 41.212457771297 10 0.3 7.8 20.9 90.77
vector 2010178  Network.dyn_peer[37]  lookupHopsSig:vector  ETV
2010178	446797 364 463 285597 20.58 47.139169418843 12 2 50 160 4082
vector 2010179  Network.dyn_peer[37]  lookupStabilitySig:vector  ETV
2010179	447161 527 463 285597 20.58 47.139169418843 12 0.33333331346512 0.97810219042003 10.200212238356 9.0828274899569
vector 2010180  Network.dyn_peer[37]  lookupTimeSig:vector  ETV
2010180	447688 381 463 285597 20.58 47.139169418843 12 0.2 5.1 17.1 44.09
vector 2010181  Network.dyn_peer[38]  lookupHopsSig:vector  ETV
2010181	448069 400 478 368186 20.59 60.715787621115 13 2 80 289 12635
vector 2010182  Network.dyn_peer[38]  lookupStabilitySig:vector  ETV
2010182	448469 563 478 368186 20.59 60.715787621115 13 0.5 0.98561151046306 11.076001481153 9.7740688755218
vector 2010183  Network.dyn_peer[38]  lookupTimeSig:vector  ETV
2010183	449032 417 478 368186 20.59 60.715787621115 13 0.2 8.1 30.1 132.21
vector 2010184  Network.dyn_peer[39]  lookupHopsSig:vector  ETV
2010184	449449 264 493 190836 20.6 40.356913971644 9 2 63 142 5562
vector 2010185  Network.dyn_peer[39]  lookupStabilitySig:vector  ETV
2010185	449713 380 493 190836 20.6 40.356913971644 9 0.5 0.95710784196854 7.1761414147914 5.9487292221261
vector 2010186  Network.dyn_peer[39]  lookupTimeSig:vector  ETV
2010186	450093 278 493 190836 20.6 40.356913971644 9 0.2 6.4 15 58.5
vector 2010157  Network.dyn_peer[30]  lookupHopsSig:vector  ETV
2010157	439085 271 505 218489 20.61 42.118981750624 9 3 43 153 4181
vector 2010158  Network.dyn_peer[30]  lookupStabilitySig:vector  ETV
2010158	439356 393 505 218489 20.61 42.118981750624 9 0.39999997615814 0.98975409846753 7.4855733318254 6.6561396458445
vector 2010159  Network.dyn_peer[30]  lookupTimeSig:vector  ETV
2010159	439749 281 505 218489 20.61 42.118981750624 9 0.3 4.4 16.1 44.89
vector 2010217  Network.dyn_peer[50]  lookupHopsSig:vector  ETV
2010217	461782 572 510 371320 20.61 62.243856356092 18 1 37 339 8827
vector 2010218  Network.dyn_peer[50]  lookupStabilitySig:vector  ETV
2010218	462354 817 510 371320 20.61 62.243856356092 18 0.25 0.99731615674682 16.011642166646 14.785761280949
vector 2010219  Network.dyn_peer[50]  lookupTimeSig:vector  ETV
2010219	463171 590 510 371320 20.61 62.243856356092 18 0.1 3.8 35.6 95.2
vector 2010166  Network.dyn_peer[33]  lookupHopsSig:vector  ETV
2010166	442534 304 549 259900 20.64 45.04474901799 10 2 65 188 6446
vector 2010167  Network.dyn_peer[33]  lookupStabilitySig:vector  ETV
2010167	442838 433 549 259900 20.64 45.04474901799 10 0.39999997615814 0.99038461502641 8.2674852451309 7.2257667370967
vector 2010168  Network.dyn_peer[33]  lookupTimeSig:vector  ETV
2010168	443271 315 549 259900 20.64 45.04474901799 10 0.3 6.6 19.7 68.25
vector 2010226  Network.dyn_peer[53]  lookupHopsSig:vector  ETV
2010226	466477 434 553 300157 20.64 48.486781492221 14 1 58 234 7058
vector 2010227  Network.dyn_peer[53]  lookupStabilitySig:vector  ETV
2010227	466911 629 553 300157 20.64 48.486781492221 14 0.33333331346512 0.98149575851858 12.107188444585 10.830082153274
vector 2010228  Network.dyn_peer[53]  lookupTimeSig:vector  ETV
2010228	467540 452 553 300157 20.64 48.486781492221 14 0.1 5.9 24.7 75.37
vector 2010142  Network.dyn_peer[25]  lookupHopsSig:vector  ETV
2010142	432441 403 576 242473 20.66 43.753709030464 13 1 34 217 5033
vector 2010143  Network.dyn_peer[25]  lookupStabilitySig:vector  ETV
2010143	432844 577 576 242473 20.66 43.753709030464 13 0.19999998807907 0.98639455810189 10.688207983971 9.5709982342398
vector 2010144  Network.dyn_peer[25]  lookupTimeSig:vector  ETV
2010144	433421 418 576 242473 20.66 43.753709030464 13 0.2 3.5 22.9 54.71
vector 2010199  Network.dyn_peer[44]  lookupHopsSig:vector  ETV
2010199	455620 298 671 92648 20.75 33.596390704154 10 1 36 117 2505
vector 2010200  Network.dyn_peer[44]  lookupStabilitySig:vector  ETV
2010200	455918 443 671 92648 20.75 33.596390704154 10 0.39999997615814 0.98940677940845 8.1573677100241 7.0944433767681
vector 2010201  Network.dyn_peer[44]  lookupTimeSig:vector  ETV
2010201	456361 311 671 92648 20.75 33.596390704154 10 0.2 3.7 12.6 27.42
vector 2010259  Network.dyn_peer[64]  lookupHopsSig:vector  ETV
2010259	481469 471 675 308612 20.75 49.337377041259 15 1 51 245 6487
vector 2010260  Network.dyn_peer[64]  lookupStabilitySig:vector  ETV
2010260	481940 672 675 308612 20.75 49.337377041259 15 0.5 0.98580121714622 13.313044966199 12.086173260716
vector 2010261  Network.dyn_peer[64]  lookupTimeSig:vector  ETV
2010261	482612 487 675 308612 20.75 49.337377041259 15 0.1 5.2 25.9 69.89
vector 2010094  Network.dyn_peer[9]  lookupHopsSig:vector  ETV
2010094	412032 302 734 225469 20.8 42.574347818411 10 2 36 151 3233
vector 2010095  Network.dyn_peer[9]  lookupStabilitySig:vector  ETV
2010095	412334 446 734 225469 20.8 42.574347818411 10 -0.39999997615814 0.98879203014076 7.4676905889064 7.1896429393986
vector 2010096  Network.dyn_peer[9]  lookupTimeSig:vector  ETV
2010096	412780 312 734 225469 20.8 42.574347818411 10 0.3 3.7 16 35.3
vector 2010175  Network.dyn_peer[36]  lookupHopsSig:vector  ETV
2010175	445509 374 818 291299 20.87 47.650072465807 12 5 46 212 5116
vector 2010176  Network.dyn_peer[36]  lookupStabilitySig:vector  ETV
2010176	445883 529 818 291299 20.87 47.650072465807 12 0 0.99442231096327 9.8299162471667 8.9586210879473
vector 2010177  Network.dyn_peer[36]  lookupTimeSig:vector  ETV
2010177	446412 385 818 291299 20.87 47.650072465807 12 0.5 4.7 22.3 55.41
vector 2010298  Network.dyn_peer[77]  lookupHopsSig:vector  ETV
2010298	497760 471 834 360809 20.88 58.019810016242 15 1 34 219 4401
vector 2010299  Network.dyn_peer[77]  lookupStabilitySig:vector  ETV
2010299	498231 685 834 360809 20.88 58.019810016242 15 0.59999999403954 0.99549549538642 13.987054280937 13.193654223685
vector 2010300  Network.dyn_peer[77]  lookupTimeSig:vector  ETV
2010300	498916 489 834 360809 20.88 58.019810016242 15 0.1 3.5 23.3 48.51
vector 2010214  Network.dyn_peer[49]  lookupHopsSig:vector  ETV
2010214	460625 331 864 225345 20.9 42.565951456095 11 2 36 128 2584
vector 2010215  Network.dyn_peer[49]  lookupStabilitySig:vector  ETV
2010215	460956 481 864 225345 20.9 42.565951456095 11 0.19999998807907 0.99189189169556 9.1865337518975 8.2425430749199
vector 2010216  Network.dyn_peer[49]  lookupTimeSig:vector  ETV
2010216	461437 345 864 225345 20.9 42.565951456095 11 0.3 3.7 13.8 28.42
vector 2010277  Network.dyn_peer[70]  lookupHopsSig:vector  ETV
2010277	489903 272 879 199466 20.91 40.89322656039 9 2 45 135 3541
vector 2010278  Network.dyn_peer[70]  lookupStabilitySig:vector  ETV
2010278	490175 377 879 199466 20.91 40.89322656039 9 0.59999999403954 0.9870283016935 7.5750880958512 6.564308809633
vector 2010279  Network.dyn_peer[70]  lookupTimeSig:vector  ETV
2010279	490552 284 879 199466 20.91 40.89322656039 9 0.2 4.6 14.3 38.15
vector 2010223  Network.dyn_peer[52]  lookupHopsSig:vector  ETV
2010223	464830 474 908 352271 20.93 55.773578028318 15 1 47 266 6864
vector 2010224  Network.dyn_peer[52]  lookupStabilitySig:vector  ETV
2010224	465304 686 908 352271 20.93 55.773578028318 15 0.19999998807907 0.9876215737313 13.251809807494 12.338914690824
vector 2010225  Network.dyn_peer[52]  lookupTimeSig:vector  ETV
2010225	465990 487 908 352271 20.93 55.773578028318 15 0.2 4.8 28 74.02
vector 2010253  Network.dyn_peer[62]  lookupHopsSig:vector  ETV
2010253	479218 337 912 270047 20.93 45.841969150732 11 3 41 164 3968
vector 2010254  Network.dyn_peer[62]  lookupStabilitySig:vector  ETV
2010254	479555 496 912 270047 20.93 45.841969150732 11 0.39999997615814 0.99436302157119 9.5808968613855 8.7138650455299
vector 2010255  Network.dyn_peer[62]  lookupTimeSig:vector  ETV
2010255	480051 350 912 270047 20.93 45.841969150732 11 0.3 4.2 17.4 43
vector 2010283  Network.dyn_peer[72]  lookupHopsSig:vector  ETV
2010283	492036 305 916 295239 20.93 48.015628061133 10 2 63 205 7605
vector 2010284  Network.dyn_peer[72]  lookupStabilitySig:vector  ETV
2010284	492341 437 916 295239 20.93 48.015628061133 10 0.59999999403954 0.99001996032894 8.6148768011481 7.6519357921918
vector 2010285  Network.dyn_peer[72]  lookupTimeSig:vector  ETV
2010285	492778 317 916 295239 20.93 48.015628061133 10 0.2 6.4 21.4 80.2
vector 2010169  Network.dyn_peer[34]  lookupHopsSig:vector  ETV
2010169	443586 172 955 127107 20.95 36.212462763634 6 3 38 96 2514
vector 2010170  Network.dyn_peer[34]  lookupStabilitySig:vector  ETV
2010170	443758 260 955 127107 20.95 36.212462763634 6 -0.20000004768372 0.96170212700963 4.0691148117185 3.7497000892346
vector 2010171  Network.dyn_peer[34]  lookupTimeSig:vector  ETV
2010171	444018 181 955 127107 20.95 36.212462763634 6 0.4 3.9 10.1 26.99
vector 2010292  Network.dyn_peer[75]  lookupHopsSig:vector  ETV
2010292	495376 340 974 224206 20.96 42.491142623414 11 2 46 199 5117
vector 2010293  Network.dyn_peer[75]  lookupStabilitySig:vector  ETV
2010293	495716 496 974 224206 20.96 42.491142623414 11 0.64285713434219 0.97765957377851 9.4888718891889 8.3519151701902
vector 2010294  Network.dyn_peer[75]  lookupTimeSig:vector  ETV
2010294	496212 353 974 224206 20.96 42.491142623414 11 0.2 4.7 20.9 55.21
vector 2010250  Network.dyn_peer[61]  lookupHopsSig:vector  ETV
2010250	477334 541 1060 365858 21.02 59.760316646963 17 4 41 320 7462
vector 2010251  Network.dyn_peer[61]  lookupStabilitySig:vector  ETV
2010251	477875 782 1060 365858 21.02 59.760316646963 17 0.33333331346512 0.99258414143696 15.257810470182 14.164295960092
vector 2010252  Network.dyn_peer[61]  lookupTimeSig:vector  ETV
2010252	478657 561 1060 365858 21.02 59.760316646963 17 0.4 4.2 33.6 81.1
vector 2010340  Network.dyn_peer[91]  lookupHopsSig:vector  ETV
2010340	516521 467 1064 307630 21.02 49.23682506477 15 1 60 206 6248
vector 2010341  Network.dyn_peer[91]  lookupStabilitySig:vector  ETV
2010341	516988 673 1064 307630 21.02 49.23682506477 15 0.69999998807907 0.98707403056324 13.867408493534 12.906837311783
vector 2010342  Network.dyn_peer[91]  lookupTimeSig:vector  ETV
2010342	517661 487 1064 307630 21.02 49.23682506477 15 0.1 6.1 22 66.72
vector 2010358  Network.dyn_peer[97]  lookupHopsSig:vector  ETV
2010358	524056 400 1162 310273 21.08 49.51301177263 13 1 108 243 15177
vector 2010359  Network.dyn_peer[97]  lookupStabilitySig:vector  ETV
2010359	524456 588 1162 310273 21.08 49.51301177263 13 0.69999998807907 0.99324324307963 11.918785901275 11.00229257417
vector 2010360  Network.dyn_peer[97]  lookupTimeSig:vector  ETV
2010360	525044 421 1162 310273 21.08 49.51301177263 13 0.1 10.9 25.5 156.73
vector 2010151  Network.dyn_peer[28]  lookupHopsSig:vector  ETV
2010151	436379 373 1178 288203 21.09 47.371173629629 12 8 30 207 4137
vector 2010152  Network.dyn_peer[28]  lookupStabilitySig:vector  ETV
2010152	436752 543 1178 288203 21.09 47.371173629629 12 -0.33333337306976 0.97920604981482 9.7728557735682 9.5123836247936
vector 2010153  Network.dyn_peer[28]  lookupTimeSig:vector  ETV
2010153	437295 382 1178 288203 21.09 47.371173629629 12 0.8 3.1 21.8 45.46
vector 2010301  Network.dyn_peer[78]  lookupHopsSig:vector  ETV
2010301	499405 339 1182 179733 21.09 39.679186473753 11 3 39 168 3700
vector 2010302  Network.dyn_peer[78]  lookupStabilitySig:vector  ETV
2010302	499744 484 1182 179733 21.09 39.679186473753 11 0.5 0.98716302961111 9.5127461310476 8.4538231084537
vector 2010303  Network.dyn_peer[78]  lookupTimeSig:vector  ETV
2010303	500228 352 1182 179733 21.09 39.679186473753 11 0.3 4 17.8 40.4
vector 2010160  Network.dyn_peer[31]  lookupHopsSig:vector  ETV
2010160	440030 241 1230 210380 21.12 41.591065261241 8 6 68 158 6182
vector 2010161  Network.dyn_peer[31]  lookupStabilitySig:vector  ETV
2010161	440271 356 1230 210380 21.12 41.591065261241 8 -0.33333337306976 0.99129353277385 5.7851172499359 5.5350697234566
vector 2010162  Network.dyn_peer[31]  lookupTimeSig:vector  ETV
2010162	440627 252 1230 210380 21.12 41.591065261241 8 0.7 6.9 16.5 64.89
vector 2010346  Network.dyn_peer[93]  lookupHopsSig:vector  ETV
2010346	519570 372 1266 245815 21.14 43.992130399034 12 1 42 178 4124
vector 2010347  Network.dyn_peer[93]  lookupStabilitySig:vector  ETV
2010347	519942 538 1266 245815 21.14 43.992130399034 12 0.63414633274078 0.99358974350616 10.844195369165 9.9611882429942
vector 2010348  Network.dyn_peer[93]  lookupTimeSig:vector  ETV
2010348	520480 388 1266 245815 21.14 43.992130399034 12 0.2 4.3 18.9 44.87
vector 2010202  Network.dyn_peer[45]  lookupHopsSig:vector  ETV
2010202	456672 247 1307 268252 21.16 45.699895965033 8 7 58 138 4612
vector 2010203  Network.dyn_peer[45]  lookupStabilitySig:vector  ETV
2010203	456919 363 1307 268252 21.16 45.699895965033 8 -0.16666662693024 0.96315789595246 6.0398051813245 5.5866860752327
vector 2010204  Network.dyn_peer[45]  lookupTimeSig:vector  ETV
2010204	457282 257 1307 268252 21.16 45.699895965033 8 0.7 5.9 14.5 48.81
vector 2010232  Network.dyn_peer[55]  lookupHopsSig:vector  ETV
2010232	470010 336 1311 279549 21.16 46.621536892559 11 1 59 201 6731
vector 2010233  Network.dyn_peer[55]  lookupStabilitySig:vector  ETV
2010233	470346 479 1311 279549 21.16 46.621536892559 11 0 0.98076923005283 9.0583568308502 8.272411197178
vector 2010234  Network.dyn_peer[55]  lookupTimeSig:vector  ETV
2010234	470825 345 1311 279549 21.16 46.621536892559 11 0.2 6 21.1 71.31
vector 2010208  Network.dyn_peer[47]  lookupHopsSig:vector  ETV
2010208	458948 149 1348 27993 21.18 26.923576353826 5 1 25 52 880
vector 2010209  Network.dyn_peer[47]  lookupStabilitySig:vector  ETV
2010209	459097 207 1348 27993 21.18 26.923576353826 5 0 0.97872340492904 3.3719845991582 2.8780427780235
vector 2010210  Network.dyn_peer[47]  lookupTimeSig:vector  ETV
2010210	459304 157 1348 27993 21.18 26.923576353826 5 0.2 2.6 5.6 9.74
vector 2010211  Network.dyn_peer[48]  lookupHopsSig:vector  ETV
2010211	459461 335 1366 137939 21.19 36.971028448091 11 6 37 153 3003
vector 2010212  Network.dyn_peer[48]  lookupStabilitySig:vector  ETV
2010212	459796 478 1366 137939 21.19 36.971028448091 11 0 0.9763779528439 9.0802461393178 8.3340014821758
vector 2010213  Network.dyn_peer[48]  lookupTimeSig:vector  ETV
2010213	460274 351 1366 137939 21.19 36.971028448091 11 0.7 3.8 16.3 33.05
vector 2010244  Network.dyn_peer[59]  lookupHopsSig:vector  ETV
2010244	474861 507 1385 331444 21.2 52.096080458286 16 6 35 259 5531
vector 2010245  Network.dyn_peer[59]  lookupStabilitySig:vector  ETV
2010245	475368 710 1385 331444 21.2 52.096080458286 16 0.25 0.99103504512459 14.205442191102 13.146476571399
vector 2010246  Network.dyn_peer[59]  lookupTimeSig:vector  ETV
2010246	476078 520 1385 331444 21.2 52.096080458286 16 0.6 3.6 27.4 60.52
vector 2010190  Network.dyn_peer[41]  lookupHopsSig:vector  ETV
2010190	451773 143 1418 143005 21.22 37.319288369589 5 8 43 126 4174
vector 2010191  Network.dyn_peer[41]  lookupStabilitySig:vector  ETV
2010191	451916 199 1418 143005 21.22 37.319288369589 5 0 0.93494705110788 3.3960932940245 2.9320214353176
vector 2010192  Network.dyn_peer[41]  lookupTimeSig:vector  ETV
2010192	452115 149 1418 143005 21.22 37.319288369589 5 0.8 4.4 13 44.14
vector 2010196  Network.dyn_peer[43]  lookupHopsSig:vector  ETV
2010196	453764 536 1457 326703 21.24 51.45341956969 17 2 49 268 6866
vector 2010197  Network.dyn_peer[43]  lookupStabilitySig:vector  ETV
2010197	454300 765 1457 326703 21.24 51.45341956969 17 0 0.99728997284546 15.021451035514 14.159530875369
vector 2010198  Network.dyn_peer[43]  lookupTimeSig:vector  ETV
2010198	455065 555 1457 326703 21.24 51.45341956969 17 0.3 5 28.4 74.02
vector 2010376  Network.dyn_peer[103]  lookupHopsSig:vector  ETV
2010376	532453 177 1461 289668 21.24 47.504322961815 6 2 69 160 7326
vector 2010377  Network.dyn_peer[103]  lookupStabilitySig:vector  ETV
2010377	532630 250 1461 289668 21.24 47.504322961815 6 0.66666665673256 0.96631916612387 5.0287540107965 4.2819913292103
vector 2010378  Network.dyn_peer[103]  lookupTimeSig:vector  ETV
2010378	532880 182 1461 289668 21.24 47.504322961815 6 0.2 7 16.5 76.47
vector 2010436  Network.dyn_peer[123]  lookupHopsSig:vector  ETV
2010436	554251 467 1467 317143 21.24 50.280818828248 15 0 59 242 7114
vector 2010437  Network.dyn_peer[123]  lookupStabilitySig:vector  ETV
2010437	554718 667 1467 317143 21.24 50.280818828248 15 0.78787878155708 1 13.99738300778 13.106520149989
vector 2010438  Network.dyn_peer[123]  lookupTimeSig:vector  ETV
2010438	555385 483 1467 317143 21.24 50.280818828248 15 0 6 25.6 76.12
vector 2010328  Network.dyn_peer[87]  lookupHopsSig:vector  ETV
2010328	511118 241 1540 263391 21.28 45.314824452851 8 4 52 154 4670
vector 2010329  Network.dyn_peer[87]  lookupStabilitySig:vector  ETV
2010329	511359 343 1540 263391 21.28 45.314824452851 8 0.5 0.98209489695728 6.6741582714021 5.7573652603582
vector 2010330  Network.dyn_peer[87]  lookupTimeSig:vector  ETV
2010330	511702 250 1540 263391 21.28 45.314824452851 8 0.4 5.3 16.1 49.77
vector 2010274  Network.dyn_peer[69]  lookupHopsSig:vector  ETV
2010274	488418 429 1575 155068 21.3 38.124305074991 14 1 28 140 2090
vector 2010275  Network.dyn_peer[69]  lookupStabilitySig:vector  ETV
2010275	488847 608 1575 155068 21.3 38.124305074991 14 0.25 0.98412698321044 12.344379320741 11.376431147947
vector 2010276  Network.dyn_peer[69]  lookupTimeSig:vector  ETV