version 2
run Stability2-22-20130528-01:23:41-24168
attr configname Stability2
attr datetime 20130528-01:23:41
attr experiment Stability2
attr inifile omnetpp.ini
attr iterationvars $0=30
attr iterationvars2 "$0=30, $repetition=2"
attr measurement $0=30
attr network Network
attr processid 24168
attr repetition 2
attr replication #2
attr resultdir results
attr runnumber 22
attr seedset 22

vector 690022  Network.churner  inGoingSizeSig:vector  ETV
vector 660022  Network.dyn_peer[0]  lookupHopsSig:vector  ETV
vector 660023  Network.dyn_peer[0]  lookupStabilitySig:vector  ETV
vector 660024  Network.dyn_peer[0]  lookupTimeSig:vector  ETV
vector 660052  Network.dyn_peer[10]  lookupHopsSig:vector  ETV
vector 660053  Network.dyn_peer[10]  lookupStabilitySig:vector  ETV
vector 660054  Network.dyn_peer[10]  lookupTimeSig:vector  ETV
vector 660025  Network.dyn_peer[1]  lookupHopsSig:vector  ETV
vector 660026  Network.dyn_peer[1]  lookupStabilitySig:vector  ETV
vector 660027  Network.dyn_peer[1]  lookupTimeSig:vector  ETV
vector 660028  Network.dyn_peer[2]  lookupHopsSig:vector  ETV
vector 660029  Network.dyn_peer[2]  lookupStabilitySig:vector  ETV
vector 660030  Network.dyn_peer[2]  lookupTimeSig:vector  ETV
vector 660037  Network.dyn_peer[5]  lookupHopsSig:vector  ETV
vector 660038  Network.dyn_peer[5]  lookupStabilitySig:vector  ETV
vector 660039  Network.dyn_peer[5]  lookupTimeSig:vector  ETV
vector 660055  Network.dyn_peer[11]  lookupHopsSig:vector  ETV
vector 660056  Network.dyn_peer[11]  lookupStabilitySig:vector  ETV
vector 660057  Network.dyn_peer[11]  lookupTimeSig:vector  ETV
vector 660031  Network.dyn_peer[3]  lookupHopsSig:vector  ETV
vector 660032  Network.dyn_peer[3]  lookupStabilitySig:vector  ETV
vector 660033  Network.dyn_peer[3]  lookupTimeSig:vector  ETV
vector 660040  Network.dyn_peer[6]  lookupHopsSig:vector  ETV
vector 660041  Network.dyn_peer[6]  lookupStabilitySig:vector  ETV
vector 660042  Network.dyn_peer[6]  lookupTimeSig:vector  ETV
vector 660043  Network.dyn_peer[7]  lookupHopsSig:vector  ETV
vector 660044  Network.dyn_peer[7]  lookupStabilitySig:vector  ETV
vector 660045  Network.dyn_peer[7]  lookupTimeSig:vector  ETV
vector 660046  Network.dyn_peer[8]  lookupHopsSig:vector  ETV
vector 660047  Network.dyn_peer[8]  lookupStabilitySig:vector  ETV
vector 660048  Network.dyn_peer[8]  lookupTimeSig:vector  ETV
vector 660079  Network.dyn_peer[19]  lookupHopsSig:vector  ETV
vector 660080  Network.dyn_peer[19]  lookupStabilitySig:vector  ETV
vector 660081  Network.dyn_peer[19]  lookupTimeSig:vector  ETV
vector 660085  Network.dyn_peer[21]  lookupHopsSig:vector  ETV
vector 660086  Network.dyn_peer[21]  lookupStabilitySig:vector  ETV
vector 660087  Network.dyn_peer[21]  lookupTimeSig:vector  ETV
vector 660058  Network.dyn_peer[12]  lookupHopsSig:vector  ETV
vector 660059  Network.dyn_peer[12]  lookupStabilitySig:vector  ETV
vector 660060  Network.dyn_peer[12]  lookupTimeSig:vector  ETV
vector 660061  Network.dyn_peer[13]  lookupHopsSig:vector  ETV
vector 660062  Network.dyn_peer[13]  lookupStabilitySig:vector  ETV
vector 660063  Network.dyn_peer[13]  lookupTimeSig:vector  ETV
vector 660091  Network.dyn_peer[23]  lookupHopsSig:vector  ETV
vector 660092  Network.dyn_peer[23]  lookupStabilitySig:vector  ETV
vector 660093  Network.dyn_peer[23]  lookupTimeSig:vector  ETV
vector 660034  Network.dyn_peer[4]  lookupHopsSig:vector  ETV
vector 660035  Network.dyn_peer[4]  lookupStabilitySig:vector  ETV
vector 660036  Network.dyn_peer[4]  lookupTimeSig:vector  ETV
vector 660067  Network.dyn_peer[15]  lookupHopsSig:vector  ETV
vector 660068  Network.dyn_peer[15]  lookupStabilitySig:vector  ETV
vector 660069  Network.dyn_peer[15]  lookupTimeSig:vector  ETV
vector 660136  Network.dyn_peer[38]  lookupHopsSig:vector  ETV
vector 660137  Network.dyn_peer[38]  lookupStabilitySig:vector  ETV
vector 660138  Network.dyn_peer[38]  lookupTimeSig:vector  ETV
vector 660064  Network.dyn_peer[14]  lookupHopsSig:vector  ETV
vector 660065  Network.dyn_peer[14]  lookupStabilitySig:vector  ETV
vector 660066  Network.dyn_peer[14]  lookupTimeSig:vector  ETV
vector 660097  Network.dyn_peer[25]  lookupHopsSig:vector  ETV
vector 660098  Network.dyn_peer[25]  lookupStabilitySig:vector  ETV
vector 660099  Network.dyn_peer[25]  lookupTimeSig:vector  ETV
vector 660049  Network.dyn_peer[9]  lookupHopsSig:vector  ETV
vector 660050  Network.dyn_peer[9]  lookupStabilitySig:vector  ETV
vector 660051  Network.dyn_peer[9]  lookupTimeSig:vector  ETV
vector 660172  Network.dyn_peer[50]  lookupHopsSig:vector  ETV
vector 660173  Network.dyn_peer[50]  lookupStabilitySig:vector  ETV
vector 660174  Network.dyn_peer[50]  lookupTimeSig:vector  ETV
vector 660088  Network.dyn_peer[22]  lookupHopsSig:vector  ETV
vector 660089  Network.dyn_peer[22]  lookupStabilitySig:vector  ETV
vector 660090  Network.dyn_peer[22]  lookupTimeSig:vector  ETV
vector 660100  Network.dyn_peer[26]  lookupHopsSig:vector  ETV
vector 660101  Network.dyn_peer[26]  lookupStabilitySig:vector  ETV
vector 660102  Network.dyn_peer[26]  lookupTimeSig:vector  ETV
vector 660103  Network.dyn_peer[27]  lookupHopsSig:vector  ETV
vector 660104  Network.dyn_peer[27]  lookupStabilitySig:vector  ETV
vector 660105  Network.dyn_peer[27]  lookupTimeSig:vector  ETV
vector 660118  Network.dyn_peer[32]  lookupHopsSig:vector  ETV
vector 660119  Network.dyn_peer[32]  lookupStabilitySig:vector  ETV
vector 660120  Network.dyn_peer[32]  lookupTimeSig:vector  ETV
vector 660070  Network.dyn_peer[16]  lookupHopsSig:vector  ETV
vector 660071  Network.dyn_peer[16]  lookupStabilitySig:vector  ETV
vector 660072  Network.dyn_peer[16]  lookupTimeSig:vector  ETV
vector 660190  Network.dyn_peer[56]  lookupHopsSig:vector  ETV
vector 660191  Network.dyn_peer[56]  lookupStabilitySig:vector  ETV
vector 660192  Network.dyn_peer[56]  lookupTimeSig:vector  ETV
vector 660229  Network.dyn_peer[69]  lookupHopsSig:vector  ETV
vector 660230  Network.dyn_peer[69]  lookupStabilitySig:vector  ETV
vector 660231  Network.dyn_peer[69]  lookupTimeSig:vector  ETV
vector 660142  Network.dyn_peer[40]  lookupHopsSig:vector  ETV
vector 660143  Network.dyn_peer[40]  lookupStabilitySig:vector  ETV
vector 660144  Network.dyn_peer[40]  lookupTimeSig:vector  ETV
vector 660115  Network.dyn_peer[31]  lookupHopsSig:vector  ETV
vector 660116  Network.dyn_peer[31]  lookupStabilitySig:vector  ETV
vector 660117  Network.dyn_peer[31]  lookupTimeSig:vector  ETV
vector 660127  Network.dyn_peer[35]  lookupHopsSig:vector  ETV
vector 660128  Network.dyn_peer[35]  lookupStabilitySig:vector  ETV
vector 660129  Network.dyn_peer[35]  lookupTimeSig:vector  ETV
vector 660160  Network.dyn_peer[46]  lookupHopsSig:vector  ETV
vector 660161  Network.dyn_peer[46]  lookupStabilitySig:vector  ETV
vector 660162  Network.dyn_peer[46]  lookupTimeSig:vector  ETV
vector 660139  Network.dyn_peer[39]  lookupHopsSig:vector  ETV
vector 660140  Network.dyn_peer[39]  lookupStabilitySig:vector  ETV
vector 660141  Network.dyn_peer[39]  lookupTimeSig:vector  ETV
vector 660199  Network.dyn_peer[59]  lookupHopsSig:vector  ETV
vector 660200  Network.dyn_peer[59]  lookupStabilitySig:vector  ETV
vector 660201  Network.dyn_peer[59]  lookupTimeSig:vector  ETV
vector 660145  Network.dyn_peer[41]  lookupHopsSig:vector  ETV
vector 660146  Network.dyn_peer[41]  lookupStabilitySig:vector  ETV
vector 660147  Network.dyn_peer[41]  lookupTimeSig:vector  ETV
vector 660154  Network.dyn_peer[44]  lookupHopsSig:vector  ETV
vector 660155  Network.dyn_peer[44]  lookupStabilitySig:vector  ETV
vector 660156  Network.dyn_peer[44]  lookupTimeSig:vector  ETV
vector 660130  Network.dyn_peer[36]  lookupHopsSig:vector  ETV
vector 660131  Network.dyn_peer[36]  lookupStabilitySig:vector  ETV
vector 660132  Network.dyn_peer[36]  lookupTimeSig:vector  ETV
vector 660073  Network.dyn_peer[17]  lookupHopsSig:vector  ETV
vector 660074  Network.dyn_peer[17]  lookupStabilitySig:vector  ETV
vector 660075  Network.dyn_peer[17]  lookupTimeSig:vector  ETV
vector 660163  Network.dyn_peer[47]  lookupHopsSig:vector  ETV
vector 660164  Network.dyn_peer[47]  lookupStabilitySig:vector  ETV
vector 660165  Network.dyn_peer[47]  lookupTimeSig:vector  ETV
vector 660076  Network.dyn_peer[18]  lookupHopsSig:vector  ETV
vector 660077  Network.dyn_peer[18]  lookupStabilitySig:vector  ETV
vector 660078  Network.dyn_peer[18]  lookupTimeSig:vector  ETV
vector 660259  Network.dyn_peer[79]  lookupHopsSig:vector  ETV
vector 660260  Network.dyn_peer[79]  lookupStabilitySig:vector  ETV
vector 660261  Network.dyn_peer[79]  lookupTimeSig:vector  ETV
vector 660208  Network.dyn_peer[62]  lookupHopsSig:vector  ETV
vector 660209  Network.dyn_peer[62]  lookupStabilitySig:vector  ETV
vector 660210  Network.dyn_peer[62]  lookupTimeSig:vector  ETV
vector 660214  Network.dyn_peer[64]  lookupHopsSig:vector  ETV
vector 660215  Network.dyn_peer[64]  lookupStabilitySig:vector  ETV
vector 660216  Network.dyn_peer[64]  lookupTimeSig:vector  ETV
vector 660157  Network.dyn_peer[45]  lookupHopsSig:vector  ETV
vector 660158  Network.dyn_peer[45]  lookupStabilitySig:vector  ETV
vector 660159  Network.dyn_peer[45]  lookupTimeSig:vector  ETV
vector 660226  Network.dyn_peer[68]  lookupHopsSig:vector  ETV
vector 660227  Network.dyn_peer[68]  lookupStabilitySig:vector  ETV
vector 660228  Network.dyn_peer[68]  lookupTimeSig:vector  ETV
vector 660082  Network.dyn_peer[20]  lookupHopsSig:vector  ETV
vector 660083  Network.dyn_peer[20]  lookupStabilitySig:vector  ETV
vector 660084  Network.dyn_peer[20]  lookupTimeSig:vector  ETV
vector 660175  Network.dyn_peer[51]  lookupHopsSig:vector  ETV
vector 660176  Network.dyn_peer[51]  lookupStabilitySig:vector  ETV
vector 660177  Network.dyn_peer[51]  lookupTimeSig:vector  ETV
vector 660295  Network.dyn_peer[91]  lookupHopsSig:vector  ETV
vector 660296  Network.dyn_peer[91]  lookupStabilitySig:vector  ETV
vector 660297  Network.dyn_peer[91]  lookupTimeSig:vector  ETV
vector 660247  Network.dyn_peer[75]  lookupHopsSig:vector  ETV
vector 660248  Network.dyn_peer[75]  lookupStabilitySig:vector  ETV
vector 660249  Network.dyn_peer[75]  lookupTimeSig:vector  ETV
vector 660280  Network.dyn_peer[86]  lookupHopsSig:vector  ETV
vector 660281  Network.dyn_peer[86]  lookupStabilitySig:vector  ETV
vector 660282  Network.dyn_peer[86]  lookupTimeSig:vector  ETV
vector 660109  Network.dyn_peer[29]  lookupHopsSig:vector  ETV
vector 660110  Network.dyn_peer[29]  lookupStabilitySig:vector  ETV
vector 660111  Network.dyn_peer[29]  lookupTimeSig:vector  ETV
vector 660265  Network.dyn_peer[81]  lookupHopsSig:vector  ETV
vector 660266  Network.dyn_peer[81]  lookupStabilitySig:vector  ETV
vector 660267  Network.dyn_peer[81]  lookupTimeSig:vector  ETV
vector 660238  Network.dyn_peer[72]  lookupHopsSig:vector  ETV
vector 660239  Network.dyn_peer[72]  lookupStabilitySig:vector  ETV
vector 660240  Network.dyn_peer[72]  lookupTimeSig:vector  ETV
vector 660217  Network.dyn_peer[65]  lookupHopsSig:vector  ETV
vector 660218  Network.dyn_peer[65]  lookupStabilitySig:vector  ETV
vector 660219  Network.dyn_peer[65]  lookupTimeSig:vector  ETV
vector 660223  Network.dyn_peer[67]  lookupHopsSig:vector  ETV
vector 660224  Network.dyn_peer[67]  lookupStabilitySig:vector  ETV
vector 660225  Network.dyn_peer[67]  lookupTimeSig:vector  ETV
vector 660379  Network.dyn_peer[119]  lookupHopsSig:vector  ETV
vector 660380  Network.dyn_peer[119]  lookupStabilitySig:vector  ETV
vector 660381  Network.dyn_peer[119]  lookupTimeSig:vector  ETV
vector 660112  Network.dyn_peer[30]  lookupHopsSig:vector  ETV
vector 660113  Network.dyn_peer[30]  lookupStabilitySig:vector  ETV
vector 660114  Network.dyn_peer[30]  lookupTimeSig:vector  ETV
vector 660202  Network.dyn_peer[60]  lookupHopsSig:vector  ETV
vector 660203  Network.dyn_peer[60]  lookupStabilitySig:vector  ETV
vector 660204  Network.dyn_peer[60]  lookupTimeSig:vector  ETV
vector 660232  Network.dyn_peer[70]  lookupHopsSig:vector  ETV
vector 660233  Network.dyn_peer[70]  lookupStabilitySig:vector  ETV
vector 660234  Network.dyn_peer[70]  lookupTimeSig:vector  ETV
vector 660328  Network.dyn_peer[102]  lookupHopsSig:vector  ETV
vector 660329  Network.dyn_peer[102]  lookupStabilitySig:vector  ETV
vector 660330  Network.dyn_peer[102]  lookupTimeSig:vector  ETV
vector 660121  Network.dyn_peer[33]  lookupHopsSig:vector  ETV
vector 660122  Network.dyn_peer[33]  lookupStabilitySig:vector  ETV
vector 660123  Network.dyn_peer[33]  lookupTimeSig:vector  ETV
vector 660211  Network.dyn_peer[63]  lookupHopsSig:vector  ETV
vector 660212  Network.dyn_peer[63]  lookupStabilitySig:vector  ETV
vector 660213  Network.dyn_peer[63]  lookupTimeSig:vector  ETV
vector 660241  Network.dyn_peer[73]  lookupHopsSig:vector  ETV
vector 660242  Network.dyn_peer[73]  lookupStabilitySig:vector  ETV
vector 660243  Network.dyn_peer[73]  lookupTimeSig:vector  ETV
vector 660094  Network.dyn_peer[24]  lookupHopsSig:vector  ETV
vector 660095  Network.dyn_peer[24]  lookupStabilitySig:vector  ETV
vector 660096  Network.dyn_peer[24]  lookupTimeSig:vector  ETV
vector 660187  Network.dyn_peer[55]  lookupHopsSig:vector  ETV
vector 660188  Network.dyn_peer[55]  lookupStabilitySig:vector  ETV
vector 660189  Network.dyn_peer[55]  lookupTimeSig:vector  ETV
vector 660106  Network.dyn_peer[28]  lookupHopsSig:vector  ETV
vector 660107  Network.dyn_peer[28]  lookupStabilitySig:vector  ETV
vector 660108  Network.dyn_peer[28]  lookupTimeSig:vector  ETV
vector 660196  Network.dyn_peer[58]  lookupHopsSig:vector  ETV
vector 660197  Network.dyn_peer[58]  lookupStabilitySig:vector  ETV
vector 660198  Network.dyn_peer[58]  lookupTimeSig:vector  ETV
vector 660316  Network.dyn_peer[98]  lookupHopsSig:vector  ETV
vector 660317  Network.dyn_peer[98]  lookupStabilitySig:vector  ETV
vector 660318  Network.dyn_peer[98]  lookupTimeSig:vector  ETV
vector 660169  Network.dyn_peer[49]  lookupHopsSig:vector  ETV
vector 660170  Network.dyn_peer[49]  lookupStabilitySig:vector  ETV
vector 660171  Network.dyn_peer[49]  lookupTimeSig:vector  ETV
vector 660235  Network.dyn_peer[71]  lookupHopsSig:vector  ETV
vector 660236  Network.dyn_peer[71]  lookupStabilitySig:vector  ETV
vector 660237  Network.dyn_peer[71]  lookupTimeSig:vector  ETV
vector 660268  Network.dyn_peer[82]  lookupHopsSig:vector  ETV
vector 660269  Network.dyn_peer[82]  lookupStabilitySig:vector  ETV
vector 660270  Network.dyn_peer[82]  lookupTimeSig:vector  ETV
vector 660124  Network.dyn_peer[34]  lookupHopsSig:vector  ETV
vector 660125  Network.dyn_peer[34]  lookupStabilitySig:vector  ETV
vector 660126  Network.dyn_peer[34]  lookupTimeSig:vector  ETV
vector 660334  Network.dyn_peer[104]  lookupHopsSig:vector  ETV
vector 660335  Network.dyn_peer[104]  lookupStabilitySig:vector  ETV
vector 660336  Network.dyn_peer[104]  lookupTimeSig:vector  ETV
vector 660250  Network.dyn_peer[76]  lookupHopsSig:vector  ETV
vector 660251  Network.dyn_peer[76]  lookupStabilitySig:vector  ETV
vector 660252  Network.dyn_peer[76]  lookupTimeSig:vector  ETV
vector 660400  Network.dyn_peer[126]  lookupHopsSig:vector  ETV
vector 660401  Network.dyn_peer[126]  lookupStabilitySig:vector  ETV
vector 660402  Network.dyn_peer[126]  lookupTimeSig:vector  ETV
vector 660256  Network.dyn_peer[78]  lookupHopsSig:vector  ETV
vector 660257  Network.dyn_peer[78]  lookupStabilitySig:vector  ETV
vector 660258  Network.dyn_peer[78]  lookupTimeSig:vector  ETV
vector 660286  Network.dyn_peer[88]  lookupHopsSig:vector  ETV
vector 660287  Network.dyn_peer[88]  lookupStabilitySig:vector  ETV
vector 660288  Network.dyn_peer[88]  lookupTimeSig:vector  ETV
vector 660349  Network.dyn_peer[109]  lookupHopsSig:vector  ETV
vector 660350  Network.dyn_peer[109]  lookupStabilitySig:vector  ETV
vector 660351  Network.dyn_peer[109]  lookupTimeSig:vector  ETV
vector 660178  Network.dyn_peer[52]  lookupHopsSig:vector  ETV
vector 660179  Network.dyn_peer[52]  lookupStabilitySig:vector  ETV
vector 660180  Network.dyn_peer[52]  lookupTimeSig:vector  ETV
vector 660298  Network.dyn_peer[92]  lookupHopsSig:vector  ETV
vector 660299  Network.dyn_peer[92]  lookupStabilitySig:vector  ETV
vector 660300  Network.dyn_peer[92]  lookupTimeSig:vector  ETV
vector 660301  Network.dyn_peer[93]  lookupHopsSig:vector  ETV
vector 660302  Network.dyn_peer[93]  lookupStabilitySig:vector  ETV
vector 660303  Network.dyn_peer[93]  lookupTimeSig:vector  ETV
vector 660406  Network.dyn_peer[128]  lookupHopsSig:vector  ETV
vector 660407  Network.dyn_peer[128]  lookupStabilitySig:vector  ETV
vector 660408  Network.dyn_peer[128]  lookupTimeSig:vector  ETV
vector 660244  Network.dyn_peer[74]  lookupHopsSig:vector  ETV
vector 660245  Network.dyn_peer[74]  lookupStabilitySig:vector  ETV
vector 660246  Network.dyn_peer[74]  lookupTimeSig:vector  ETV
vector 660304  Network.dyn_peer[94]  lookupHopsSig:vector  ETV
vector 660305  Network.dyn_peer[94]  lookupStabilitySig:vector  ETV
vector 660306  Network.dyn_peer[94]  lookupTimeSig:vector  ETV
vector 660277  Network.dyn_peer[85]  lookupHopsSig:vector  ETV
vector 660278  Network.dyn_peer[85]  lookupStabilitySig:vector  ETV
vector 660279  Network.dyn_peer[85]  lookupTimeSig:vector  ETV
vector 660307  Network.dyn_peer[95]  lookupHopsSig:vector  ETV
vector 660308  Network.dyn_peer[95]  lookupStabilitySig:vector  ETV
vector 660309  Network.dyn_peer[95]  lookupTimeSig:vector  ETV
vector 660310  Network.dyn_peer[96]  lookupHopsSig:vector  ETV
vector 660311  Network.dyn_peer[96]  lookupStabilitySig:vector  ETV
vector 660312  Network.dyn_peer[96]  lookupTimeSig:vector  ETV
vector 660370  Network.dyn_peer[116]  lookupHopsSig:vector  ETV
vector 660371  Network.dyn_peer[116]  lookupStabilitySig:vector  ETV
vector 660372  Network.dyn_peer[116]  lookupTimeSig:vector  ETV
vector 660133  Network.dyn_peer[37]  lookupHopsSig:vector  ETV
vector 660134  Network.dyn_peer[37]  lookupStabilitySig:vector  ETV
vector 660135  Network.dyn_peer[37]  lookupTimeSig:vector  ETV
vector 660193  Network.dyn_peer[57]  lookupHopsSig:vector  ETV
vector 660194  Network.dyn_peer[57]  lookupStabilitySig:vector  ETV
vector 660195  Network.dyn_peer[57]  lookupTimeSig:vector  ETV
vector 660475  Network.dyn_peer[151]  lookupHopsSig:vector  ETV
vector 660476  Network.dyn_peer[151]  lookupStabilitySig:vector  ETV
vector 660477  Network.dyn_peer[151]  lookupTimeSig:vector  ETV
vector 660151  Network.dyn_peer[43]  lookupHopsSig:vector  ETV
vector 660152  Network.dyn_peer[43]  lookupStabilitySig:vector  ETV
vector 660153  Network.dyn_peer[43]  lookupTimeSig:vector  ETV
vector 660481  Network.dyn_peer[153]  lookupHopsSig:vector  ETV
vector 660482  Network.dyn_peer[153]  lookupStabilitySig:vector  ETV
vector 660483  Network.dyn_peer[153]  lookupTimeSig:vector  ETV
vector 660364  Network.dyn_peer[114]  lookupHopsSig:vector  ETV
vector 660365  Network.dyn_peer[114]  lookupStabilitySig:vector  ETV
vector 660366  Network.dyn_peer[114]  lookupTimeSig:vector  ETV
vector 660397  Network.dyn_peer[125]  lookupHopsSig:vector  ETV
vector 660398  Network.dyn_peer[125]  lookupStabilitySig:vector  ETV
vector 660399  Network.dyn_peer[125]  lookupTimeSig:vector  ETV
vector 660463  Network.dyn_peer[147]  lookupHopsSig:vector  ETV
vector 660464  Network.dyn_peer[147]  lookupStabilitySig:vector  ETV
vector 660465  Network.dyn_peer[147]  lookupTimeSig:vector  ETV
vector 660166  Network.dyn_peer[48]  lookupHopsSig:vector  ETV
vector 660167  Network.dyn_peer[48]  lookupStabilitySig:vector  ETV
vector 660168  Network.dyn_peer[48]  lookupTimeSig:vector  ETV
vector 660289  Network.dyn_peer[89]  lookupHopsSig:vector  ETV
vector 660290  Network.dyn_peer[89]  lookupStabilitySig:vector  ETV
vector 660291  Network.dyn_peer[89]  lookupTimeSig:vector  ETV
vector 660358  Network.dyn_peer[112]  lookupHopsSig:vector  ETV
vector 660359  Network.dyn_peer[112]  lookupStabilitySig:vector  ETV
vector 660360  Network.dyn_peer[112]  lookupTimeSig:vector  ETV
vector 660253  Network.dyn_peer[77]  lookupHopsSig:vector  ETV
vector 660254  Network.dyn_peer[77]  lookupStabilitySig:vector  ETV
vector 660255  Network.dyn_peer[77]  lookupTimeSig:vector  ETV
vector 660436  Network.dyn_peer[138]  lookupHopsSig:vector  ETV
vector 660437  Network.dyn_peer[138]  lookupStabilitySig:vector  ETV
vector 660438  Network.dyn_peer[138]  lookupTimeSig:vector  ETV
vector 660409  Network.dyn_peer[129]  lookupHopsSig:vector  ETV
vector 660410  Network.dyn_peer[129]  lookupStabilitySig:vector  ETV
vector 660411  Network.dyn_peer[129]  lookupTimeSig:vector  ETV
vector 660469  Network.dyn_peer[149]  lookupHopsSig:vector  ETV
vector 660470  Network.dyn_peer[149]  lookupStabilitySig:vector  ETV
vector 660471  Network.dyn_peer[149]  lookupTimeSig:vector  ETV
vector 660352  Network.dyn_peer[110]  lookupHopsSig:vector  ETV
vector 660353  Network.dyn_peer[110]  lookupStabilitySig:vector  ETV
vector 660354  Network.dyn_peer[110]  lookupTimeSig:vector  ETV
vector 660412  Network.dyn_peer[130]  lookupHopsSig:vector  ETV
vector 660413  Network.dyn_peer[130]  lookupStabilitySig:vector  ETV
vector 660414  Network.dyn_peer[130]  lookupTimeSig:vector  ETV
vector 660448  Network.dyn_peer[142]  lookupHopsSig:vector  ETV
vector 660449  Network.dyn_peer[142]  lookupStabilitySig:vector  ETV
vector 660450  Network.dyn_peer[142]  lookupTimeSig:vector  ETV
vector 660508  Network.dyn_peer[162]  lookupHopsSig:vector  ETV
vector 660509  Network.dyn_peer[162]  lookupStabilitySig:vector  ETV
vector 660510  Network.dyn_peer[162]  lookupTimeSig:vector  ETV
vector 660538  Network.dyn_peer[172]  lookupHopsSig:vector  ETV
vector 660539  Network.dyn_peer[172]  lookupStabilitySig:vector  ETV
vector 660540  Network.dyn_peer[172]  lookupTimeSig:vector  ETV
vector 660331  Network.dyn_peer[103]  lookupHopsSig:vector  ETV
vector 660332  Network.dyn_peer[103]  lookupStabilitySig:vector  ETV
vector 660333  Network.dyn_peer[103]  lookupTimeSig:vector  ETV
vector 660424  Network.dyn_peer[134]  lookupHopsSig:vector  ETV
vector 660425  Network.dyn_peer[134]  lookupStabilitySig:vector  ETV
vector 660426  Network.dyn_peer[134]  lookupTimeSig:vector  ETV
vector 660367  Network.dyn_peer[115]  lookupHopsSig:vector  ETV
vector 660368  Network.dyn_peer[115]  lookupStabilitySig:vector  ETV
vector 660369  Network.dyn_peer[115]  lookupTimeSig:vector  ETV
vector 660517  Network.dyn_peer[165]  lookupHopsSig:vector  ETV
vector 660518  Network.dyn_peer[165]  lookupStabilitySig:vector  ETV
vector 660519  Network.dyn_peer[165]  lookupTimeSig:vector  ETV
vector 660490  Network.dyn_peer[156]  lookupHopsSig:vector  ETV
vector 660491  Network.dyn_peer[156]  lookupStabilitySig:vector  ETV
vector 660492  Network.dyn_peer[156]  lookupTimeSig:vector  ETV
vector 660499  Network.dyn_peer[159]  lookupHopsSig:vector  ETV
vector 660500  Network.dyn_peer[159]  lookupStabilitySig:vector  ETV
vector 660501  Network.dyn_peer[159]  lookupTimeSig:vector  ETV
vector 660148  Network.dyn_peer[42]  lookupHopsSig:vector  ETV
vector 660149  Network.dyn_peer[42]  lookupStabilitySig:vector  ETV
vector 660150  Network.dyn_peer[42]  lookupTimeSig:vector  ETV
vector 660451  Network.dyn_peer[143]  lookupHopsSig:vector  ETV
vector 660452  Network.dyn_peer[143]  lookupStabilitySig:vector  ETV
vector 660453  Network.dyn_peer[143]  lookupTimeSig:vector  ETV
vector 660574  Network.dyn_peer[184]  lookupHopsSig:vector  ETV
vector 660575  Network.dyn_peer[184]  lookupStabilitySig:vector  ETV
vector 660576  Network.dyn_peer[184]  lookupTimeSig:vector  ETV
vector 660337  Network.dyn_peer[105]  lookupHopsSig:vector  ETV
vector 660338  Network.dyn_peer[105]  lookupStabilitySig:vector  ETV
vector 660339  Network.dyn_peer[105]  lookupTimeSig:vector  ETV
vector 660340  Network.dyn_peer[106]  lookupHopsSig:vector  ETV
vector 660341  Network.dyn_peer[106]  lookupStabilitySig:vector  ETV
vector 660342  Network.dyn_peer[106]  lookupTimeSig:vector  ETV
vector 660373  Network.dyn_peer[117]  lookupHopsSig:vector  ETV
vector 660374  Network.dyn_peer[117]  lookupStabilitySig:vector  ETV
vector 660375  Network.dyn_peer[117]  lookupTimeSig:vector  ETV
vector 660433  Network.dyn_peer[137]  lookupHopsSig:vector  ETV
vector 660434  Network.dyn_peer[137]  lookupStabilitySig:vector  ETV
vector 660435  Network.dyn_peer[137]  lookupTimeSig:vector  ETV
vector 660319  Network.dyn_peer[99]  lookupHopsSig:vector  ETV
vector 660320  Network.dyn_peer[99]  lookupStabilitySig:vector  ETV
vector 660321  Network.dyn_peer[99]  lookupTimeSig:vector  ETV
vector 660439  Network.dyn_peer[139]  lookupHopsSig:vector  ETV
vector 660440  Network.dyn_peer[139]  lookupStabilitySig:vector  ETV
vector 660441  Network.dyn_peer[139]  lookupTimeSig:vector  ETV
vector 660472  Network.dyn_peer[150]  lookupHopsSig:vector  ETV
vector 660473  Network.dyn_peer[150]  lookupStabilitySig:vector  ETV
vector 660474  Network.dyn_peer[150]  lookupTimeSig:vector  ETV
vector 660385  Network.dyn_peer[121]  lookupHopsSig:vector  ETV
vector 660386  Network.dyn_peer[121]  lookupStabilitySig:vector  ETV
vector 660387  Network.dyn_peer[121]  lookupTimeSig:vector  ETV
vector 660445  Network.dyn_peer[141]  lookupHopsSig:vector  ETV
vector 660446  Network.dyn_peer[141]  lookupStabilitySig:vector  ETV
vector 660447  Network.dyn_peer[141]  lookupTimeSig:vector  ETV
vector 660478  Network.dyn_peer[152]  lookupHopsSig:vector  ETV
vector 660479  Network.dyn_peer[152]  lookupStabilitySig:vector  ETV
vector 660480  Network.dyn_peer[152]  lookupTimeSig:vector  ETV
vector 660181  Network.dyn_peer[53]  lookupHopsSig:vector  ETV
vector 660182  Network.dyn_peer[53]  lookupStabilitySig:vector  ETV
vector 660183  Network.dyn_peer[53]  lookupTimeSig:vector  ETV
vector 660430  Network.dyn_peer[136]  lookupHopsSig:vector  ETV
vector 660431  Network.dyn_peer[136]  lookupStabilitySig:vector  ETV
vector 660432  Network.dyn_peer[136]  lookupTimeSig:vector  ETV
vector 660523  Network.dyn_peer[167]  lookupHopsSig:vector  ETV
vector 660524  Network.dyn_peer[167]  lookupStabilitySig:vector  ETV
vector 660525  Network.dyn_peer[167]  lookupTimeSig:vector  ETV
vector 660619  Network.dyn_peer[199]  lookupHopsSig:vector  ETV
vector 660620  Network.dyn_peer[199]  lookupStabilitySig:vector  ETV
vector 660621  Network.dyn_peer[199]  lookupTimeSig:vector  ETV
vector 660262  Network.dyn_peer[80]  lookupHopsSig:vector  ETV
vector 660263  Network.dyn_peer[80]  lookupStabilitySig:vector  ETV
vector 660264  Network.dyn_peer[80]  lookupTimeSig:vector  ETV
vector 660442  Network.dyn_peer[140]  lookupHopsSig:vector  ETV
vector 660443  Network.dyn_peer[140]  lookupStabilitySig:vector  ETV
vector 660444  Network.dyn_peer[140]  lookupTimeSig:vector  ETV
vector 660595  Network.dyn_peer[191]  lookupHopsSig:vector  ETV
vector 660596  Network.dyn_peer[191]  lookupStabilitySig:vector  ETV
vector 660597  Network.dyn_peer[191]  lookupTimeSig:vector  ETV
vector 660598  Network.dyn_peer[192]  lookupHopsSig:vector  ETV
vector 660599  Network.dyn_peer[192]  lookupStabilitySig:vector  ETV
vector 660600  Network.dyn_peer[192]  lookupTimeSig:vector  ETV
vector 660361  Network.dyn_peer[113]  lookupHopsSig:vector  ETV
vector 660362  Network.dyn_peer[113]  lookupStabilitySig:vector  ETV
vector 660363  Network.dyn_peer[113]  lookupTimeSig:vector  ETV
vector 660601  Network.dyn_peer[193]  lookupHopsSig:vector  ETV
vector 660602  Network.dyn_peer[193]  lookupStabilitySig:vector  ETV
vector 660603  Network.dyn_peer[193]  lookupTimeSig:vector  ETV
vector 660184  Network.dyn_peer[54]  lookupHopsSig:vector  ETV
vector 660185  Network.dyn_peer[54]  lookupStabilitySig:vector  ETV
vector 660186  Network.dyn_peer[54]  lookupTimeSig:vector  ETV
vector 660274  Network.dyn_peer[84]  lookupHopsSig:vector  ETV
vector 660275  Network.dyn_peer[84]  lookupStabilitySig:vector  ETV
vector 660276  Network.dyn_peer[84]  lookupTimeSig:vector  ETV
vector 660394  Network.dyn_peer[124]  lookupHopsSig:vector  ETV
vector 660395  Network.dyn_peer[124]  lookupStabilitySig:vector  ETV
vector 660396  Network.dyn_peer[124]  lookupTimeSig:vector  ETV
vector 660427  Network.dyn_peer[135]  lookupHopsSig:vector  ETV
vector 660428  Network.dyn_peer[135]  lookupStabilitySig:vector  ETV
vector 660429  Network.dyn_peer[135]  lookupTimeSig:vector  ETV
vector 660607  Network.dyn_peer[195]  lookupHopsSig:vector  ETV
vector 660608  Network.dyn_peer[195]  lookupStabilitySig:vector  ETV
vector 660609  Network.dyn_peer[195]  lookupTimeSig:vector  ETV
vector 660403  Network.dyn_peer[127]  lookupHopsSig:vector  ETV
vector 660404  Network.dyn_peer[127]  lookupStabilitySig:vector  ETV
vector 660405  Network.dyn_peer[127]  lookupTimeSig:vector  ETV
vector 660583  Network.dyn_peer[187]  lookupHopsSig:vector  ETV
vector 660584  Network.dyn_peer[187]  lookupStabilitySig:vector  ETV
vector 660585  Network.dyn_peer[187]  lookupTimeSig:vector  ETV
vector 660346  Network.dyn_peer[108]  lookupHopsSig:vector  ETV
vector 660347  Network.dyn_peer[108]  lookupStabilitySig:vector  ETV
vector 660348  Network.dyn_peer[108]  lookupTimeSig:vector  ETV
vector 660496  Network.dyn_peer[158]  lookupHopsSig:vector  ETV
vector 660497  Network.dyn_peer[158]  lookupStabilitySig:vector  ETV
vector 660498  Network.dyn_peer[158]  lookupTimeSig:vector  ETV
vector 660526  Network.dyn_peer[168]  lookupHopsSig:vector  ETV
vector 660527  Network.dyn_peer[168]  lookupStabilitySig:vector  ETV
vector 660528  Network.dyn_peer[168]  lookupTimeSig:vector  ETV
vector 660616  Network.dyn_peer[198]  lookupHopsSig:vector  ETV
vector 660617  Network.dyn_peer[198]  lookupStabilitySig:vector  ETV
vector 660618  Network.dyn_peer[198]  lookupTimeSig:vector  ETV
vector 660589  Network.dyn_peer[189]  lookupHopsSig:vector  ETV
vector 660590  Network.dyn_peer[189]  lookupStabilitySig:vector  ETV
vector 660591  Network.dyn_peer[189]  lookupTimeSig:vector  ETV
vector 660649  Network.dyn_peer[209]  lookupHopsSig:vector  ETV
vector 660650  Network.dyn_peer[209]  lookupStabilitySig:vector  ETV
vector 660651  Network.dyn_peer[209]  lookupTimeSig:vector  ETV
vector 660532  Network.dyn_peer[170]  lookupHopsSig:vector  ETV