file 3354668 1369697783                                         
version 2
run Stability2-75-20130528-01:35:49-24168
attr configname Stability2
attr datetime 20130528-01:35:49
attr experiment Stability2
attr inifile omnetpp.ini
attr iterationvars $0=300
attr iterationvars2 "$0=300, $repetition=5"
attr measurement $0=300
attr network Network
attr processid 24168
attr repetition 5
attr replication #5
attr resultdir results
attr runnumber 75
attr seedset 75

vector 2280075  Network.churner  inGoingSizeSig:vector  ETV
vector 2250096  Network.dyn_peer[7]  lookupHopsSig:vector  ETV
vector 2250097  Network.dyn_peer[7]  lookupStabilitySig:vector  ETV
vector 2250098  Network.dyn_peer[7]  lookupTimeSig:vector  ETV
vector 2250099  Network.dyn_peer[8]  lookupHopsSig:vector  ETV
vector 2250100  Network.dyn_peer[8]  lookupStabilitySig:vector  ETV
vector 2250101  Network.dyn_peer[8]  lookupTimeSig:vector  ETV
vector 2250102  Network.dyn_peer[9]  lookupHopsSig:vector  ETV
vector 2250103  Network.dyn_peer[9]  lookupStabilitySig:vector  ETV
vector 2250104  Network.dyn_peer[9]  lookupTimeSig:vector  ETV
vector 2250078  Network.dyn_peer[1]  lookupHopsSig:vector  ETV
vector 2250079  Network.dyn_peer[1]  lookupStabilitySig:vector  ETV
vector 2250080  Network.dyn_peer[1]  lookupTimeSig:vector  ETV
vector 2250108  Network.dyn_peer[11]  lookupHopsSig:vector  ETV
vector 2250109  Network.dyn_peer[11]  lookupStabilitySig:vector  ETV
vector 2250110  Network.dyn_peer[11]  lookupTimeSig:vector  ETV
vector 2250081  Network.dyn_peer[2]  lookupHopsSig:vector  ETV
vector 2250082  Network.dyn_peer[2]  lookupStabilitySig:vector  ETV
vector 2250083  Network.dyn_peer[2]  lookupTimeSig:vector  ETV
vector 2250084  Network.dyn_peer[3]  lookupHopsSig:vector  ETV
vector 2250085  Network.dyn_peer[3]  lookupStabilitySig:vector  ETV
vector 2250086  Network.dyn_peer[3]  lookupTimeSig:vector  ETV
vector 2250090  Network.dyn_peer[5]  lookupHopsSig:vector  ETV
vector 2250091  Network.dyn_peer[5]  lookupStabilitySig:vector  ETV
vector 2250092  Network.dyn_peer[5]  lookupTimeSig:vector  ETV
vector 2250075  Network.dyn_peer[0]  lookupHopsSig:vector  ETV
vector 2250076  Network.dyn_peer[0]  lookupStabilitySig:vector  ETV
vector 2250077  Network.dyn_peer[0]  lookupTimeSig:vector  ETV
vector 2250105  Network.dyn_peer[10]  lookupHopsSig:vector  ETV
vector 2250106  Network.dyn_peer[10]  lookupStabilitySig:vector  ETV
vector 2250107  Network.dyn_peer[10]  lookupTimeSig:vector  ETV
vector 2250111  Network.dyn_peer[12]  lookupHopsSig:vector  ETV
vector 2250112  Network.dyn_peer[12]  lookupStabilitySig:vector  ETV
vector 2250113  Network.dyn_peer[12]  lookupTimeSig:vector  ETV
vector 2250153  Network.dyn_peer[26]  lookupHopsSig:vector  ETV
vector 2250154  Network.dyn_peer[26]  lookupStabilitySig:vector  ETV
vector 2250155  Network.dyn_peer[26]  lookupTimeSig:vector  ETV
vector 2250138  Network.dyn_peer[21]  lookupHopsSig:vector  ETV
vector 2250139  Network.dyn_peer[21]  lookupStabilitySig:vector  ETV
vector 2250140  Network.dyn_peer[21]  lookupTimeSig:vector  ETV
vector 2250114  Network.dyn_peer[13]  lookupHopsSig:vector  ETV
vector 2250115  Network.dyn_peer[13]  lookupStabilitySig:vector  ETV
vector 2250116  Network.dyn_peer[13]  lookupTimeSig:vector  ETV
vector 2250144  Network.dyn_peer[23]  lookupHopsSig:vector  ETV
vector 2250145  Network.dyn_peer[23]  lookupStabilitySig:vector  ETV
vector 2250146  Network.dyn_peer[23]  lookupTimeSig:vector  ETV
vector 2250087  Network.dyn_peer[4]  lookupHopsSig:vector  ETV
vector 2250088  Network.dyn_peer[4]  lookupStabilitySig:vector  ETV
vector 2250089  Network.dyn_peer[4]  lookupTimeSig:vector  ETV
vector 2250117  Network.dyn_peer[14]  lookupHopsSig:vector  ETV
vector 2250118  Network.dyn_peer[14]  lookupStabilitySig:vector  ETV
vector 2250119  Network.dyn_peer[14]  lookupTimeSig:vector  ETV
vector 2250120  Network.dyn_peer[15]  lookupHopsSig:vector  ETV
vector 2250121  Network.dyn_peer[15]  lookupStabilitySig:vector  ETV
vector 2250122  Network.dyn_peer[15]  lookupTimeSig:vector  ETV
vector 2250093  Network.dyn_peer[6]  lookupHopsSig:vector  ETV
vector 2250094  Network.dyn_peer[6]  lookupStabilitySig:vector  ETV
vector 2250095  Network.dyn_peer[6]  lookupTimeSig:vector  ETV
vector 2250123  Network.dyn_peer[16]  lookupHopsSig:vector  ETV
vector 2250124  Network.dyn_peer[16]  lookupStabilitySig:vector  ETV
vector 2250125  Network.dyn_peer[16]  lookupTimeSig:vector  ETV
vector 2250132  Network.dyn_peer[19]  lookupHopsSig:vector  ETV
vector 2250133  Network.dyn_peer[19]  lookupStabilitySig:vector  ETV
vector 2250134  Network.dyn_peer[19]  lookupTimeSig:vector  ETV
vector 2250141  Network.dyn_peer[22]  lookupHopsSig:vector  ETV
vector 2250142  Network.dyn_peer[22]  lookupStabilitySig:vector  ETV
vector 2250143  Network.dyn_peer[22]  lookupTimeSig:vector  ETV
vector 2250147  Network.dyn_peer[24]  lookupHopsSig:vector  ETV
vector 2250148  Network.dyn_peer[24]  lookupStabilitySig:vector  ETV
vector 2250149  Network.dyn_peer[24]  lookupTimeSig:vector  ETV
vector 2250126  Network.dyn_peer[17]  lookupHopsSig:vector  ETV
vector 2250127  Network.dyn_peer[17]  lookupStabilitySig:vector  ETV
vector 2250128  Network.dyn_peer[17]  lookupTimeSig:vector  ETV
vector 2250159  Network.dyn_peer[28]  lookupHopsSig:vector  ETV
vector 2250160  Network.dyn_peer[28]  lookupStabilitySig:vector  ETV
vector 2250161  Network.dyn_peer[28]  lookupTimeSig:vector  ETV
vector 2250162  Network.dyn_peer[29]  lookupHopsSig:vector  ETV
vector 2250163  Network.dyn_peer[29]  lookupStabilitySig:vector  ETV
vector 2250164  Network.dyn_peer[29]  lookupTimeSig:vector  ETV
vector 2250156  Network.dyn_peer[27]  lookupHopsSig:vector  ETV
vector 2250157  Network.dyn_peer[27]  lookupStabilitySig:vector  ETV
vector 2250158  Network.dyn_peer[27]  lookupTimeSig:vector  ETV
vector 2250129  Network.dyn_peer[18]  lookupHopsSig:vector  ETV
vector 2250130  Network.dyn_peer[18]  lookupStabilitySig:vector  ETV
vector 2250131  Network.dyn_peer[18]  lookupTimeSig:vector  ETV
vector 2250219  Network.dyn_peer[48]  lookupHopsSig:vector  ETV
vector 2250220  Network.dyn_peer[48]  lookupStabilitySig:vector  ETV
vector 2250221  Network.dyn_peer[48]  lookupTimeSig:vector  ETV
vector 2250168  Network.dyn_peer[31]  lookupHopsSig:vector  ETV
vector 2250169  Network.dyn_peer[31]  lookupStabilitySig:vector  ETV
vector 2250170  Network.dyn_peer[31]  lookupTimeSig:vector  ETV
vector 2250198  Network.dyn_peer[41]  lookupHopsSig:vector  ETV
vector 2250199  Network.dyn_peer[41]  lookupStabilitySig:vector  ETV
vector 2250200  Network.dyn_peer[41]  lookupTimeSig:vector  ETV
vector 2250228  Network.dyn_peer[51]  lookupHopsSig:vector  ETV
vector 2250229  Network.dyn_peer[51]  lookupStabilitySig:vector  ETV
vector 2250230  Network.dyn_peer[51]  lookupTimeSig:vector  ETV
vector 2250207  Network.dyn_peer[44]  lookupHopsSig:vector  ETV
vector 2250208  Network.dyn_peer[44]  lookupStabilitySig:vector  ETV
vector 2250209  Network.dyn_peer[44]  lookupTimeSig:vector  ETV
vector 2250150  Network.dyn_peer[25]  lookupHopsSig:vector  ETV
vector 2250151  Network.dyn_peer[25]  lookupStabilitySig:vector  ETV
vector 2250152  Network.dyn_peer[25]  lookupTimeSig:vector  ETV
vector 2250189  Network.dyn_peer[38]  lookupHopsSig:vector  ETV
vector 2250190  Network.dyn_peer[38]  lookupStabilitySig:vector  ETV
vector 2250191  Network.dyn_peer[38]  lookupTimeSig:vector  ETV
vector 2250231  Network.dyn_peer[52]  lookupHopsSig:vector  ETV
vector 2250232  Network.dyn_peer[52]  lookupStabilitySig:vector  ETV
vector 2250233  Network.dyn_peer[52]  lookupTimeSig:vector  ETV
vector 2250204  Network.dyn_peer[43]  lookupHopsSig:vector  ETV
vector 2250205  Network.dyn_peer[43]  lookupStabilitySig:vector  ETV
vector 2250206  Network.dyn_peer[43]  lookupTimeSig:vector  ETV
vector 2250135  Network.dyn_peer[20]  lookupHopsSig:vector  ETV
vector 2250136  Network.dyn_peer[20]  lookupStabilitySig:vector  ETV
vector 2250137  Network.dyn_peer[20]  lookupTimeSig:vector  ETV
vector 2250165  Network.dyn_peer[30]  lookupHopsSig:vector  ETV
vector 2250166  Network.dyn_peer[30]  lookupStabilitySig:vector  ETV
vector 2250167  Network.dyn_peer[30]  lookupTimeSig:vector  ETV
vector 2250201  Network.dyn_peer[42]  lookupHopsSig:vector  ETV
vector 2250202  Network.dyn_peer[42]  lookupStabilitySig:vector  ETV
vector 2250203  Network.dyn_peer[42]  lookupTimeSig:vector  ETV
vector 2250174  Network.dyn_peer[33]  lookupHopsSig:vector  ETV
vector 2250175  Network.dyn_peer[33]  lookupStabilitySig:vector  ETV
vector 2250176  Network.dyn_peer[33]  lookupTimeSig:vector  ETV
vector 2250330  Network.dyn_peer[85]  lookupHopsSig:vector  ETV
vector 2250331  Network.dyn_peer[85]  lookupStabilitySig:vector  ETV
vector 2250332  Network.dyn_peer[85]  lookupTimeSig:vector  ETV
vector 2250216  Network.dyn_peer[47]  lookupHopsSig:vector  ETV
vector 2250217  Network.dyn_peer[47]  lookupStabilitySig:vector  ETV
vector 2250218  Network.dyn_peer[47]  lookupTimeSig:vector  ETV
vector 2250249  Network.dyn_peer[58]  lookupHopsSig:vector  ETV
vector 2250250  Network.dyn_peer[58]  lookupStabilitySig:vector  ETV
vector 2250251  Network.dyn_peer[58]  lookupTimeSig:vector  ETV
vector 2250309  Network.dyn_peer[78]  lookupHopsSig:vector  ETV
vector 2250310  Network.dyn_peer[78]  lookupStabilitySig:vector  ETV
vector 2250311  Network.dyn_peer[78]  lookupTimeSig:vector  ETV
vector 2250252  Network.dyn_peer[59]  lookupHopsSig:vector  ETV
vector 2250253  Network.dyn_peer[59]  lookupStabilitySig:vector  ETV
vector 2250254  Network.dyn_peer[59]  lookupTimeSig:vector  ETV
vector 2250195  Network.dyn_peer[40]  lookupHopsSig:vector  ETV
vector 2250196  Network.dyn_peer[40]  lookupStabilitySig:vector  ETV
vector 2250197  Network.dyn_peer[40]  lookupTimeSig:vector  ETV
vector 2250225  Network.dyn_peer[50]  lookupHopsSig:vector  ETV
vector 2250226  Network.dyn_peer[50]  lookupStabilitySig:vector  ETV
vector 2250227  Network.dyn_peer[50]  lookupTimeSig:vector  ETV
vector 2250258  Network.dyn_peer[61]  lookupHopsSig:vector  ETV
vector 2250259  Network.dyn_peer[61]  lookupStabilitySig:vector  ETV
vector 2250260  Network.dyn_peer[61]  lookupTimeSig:vector  ETV
vector 2250177  Network.dyn_peer[34]  lookupHopsSig:vector  ETV
vector 2250178  Network.dyn_peer[34]  lookupStabilitySig:vector  ETV
vector 2250179  Network.dyn_peer[34]  lookupTimeSig:vector  ETV
vector 2250273  Network.dyn_peer[66]  lookupHopsSig:vector  ETV
vector 2250274  Network.dyn_peer[66]  lookupStabilitySig:vector  ETV
vector 2250275  Network.dyn_peer[66]  lookupTimeSig:vector  ETV
vector 2250276  Network.dyn_peer[67]  lookupHopsSig:vector  ETV
vector 2250277  Network.dyn_peer[67]  lookupStabilitySig:vector  ETV
vector 2250278  Network.dyn_peer[67]  lookupTimeSig:vector  ETV
vector 2250339  Network.dyn_peer[88]  lookupHopsSig:vector  ETV
vector 2250340  Network.dyn_peer[88]  lookupStabilitySig:vector  ETV
vector 2250341  Network.dyn_peer[88]  lookupTimeSig:vector  ETV
vector 2250192  Network.dyn_peer[39]  lookupHopsSig:vector  ETV
vector 2250193  Network.dyn_peer[39]  lookupStabilitySig:vector  ETV
vector 2250194  Network.dyn_peer[39]  lookupTimeSig:vector  ETV
vector 2250255  Network.dyn_peer[60]  lookupHopsSig:vector  ETV
vector 2250256  Network.dyn_peer[60]  lookupStabilitySig:vector  ETV
vector 2250257  Network.dyn_peer[60]  lookupTimeSig:vector  ETV
vector 2250171  Network.dyn_peer[32]  lookupHopsSig:vector  ETV
vector 2250172  Network.dyn_peer[32]  lookupStabilitySig:vector  ETV
vector 2250173  Network.dyn_peer[32]  lookupTimeSig:vector  ETV
vector 2250351  Network.dyn_peer[92]  lookupHopsSig:vector  ETV
vector 2250352  Network.dyn_peer[92]  lookupStabilitySig:vector  ETV
vector 2250353  Network.dyn_peer[92]  lookupTimeSig:vector  ETV
vector 2250234  Network.dyn_peer[53]  lookupHopsSig:vector  ETV
vector 2250235  Network.dyn_peer[53]  lookupStabilitySig:vector  ETV
vector 2250236  Network.dyn_peer[53]  lookupTimeSig:vector  ETV
vector 2250336  Network.dyn_peer[87]  lookupHopsSig:vector  ETV
vector 2250337  Network.dyn_peer[87]  lookupStabilitySig:vector  ETV
vector 2250338  Network.dyn_peer[87]  lookupTimeSig:vector  ETV
vector 2250354  Network.dyn_peer[93]  lookupHopsSig:vector  ETV
vector 2250355  Network.dyn_peer[93]  lookupStabilitySig:vector  ETV
vector 2250356  Network.dyn_peer[93]  lookupTimeSig:vector  ETV
vector 2250270  Network.dyn_peer[65]  lookupHopsSig:vector  ETV
vector 2250271  Network.dyn_peer[65]  lookupStabilitySig:vector  ETV
vector 2250272  Network.dyn_peer[65]  lookupTimeSig:vector  ETV
vector 2250279  Network.dyn_peer[68]  lookupHopsSig:vector  ETV
vector 2250280  Network.dyn_peer[68]  lookupStabilitySig:vector  ETV
vector 2250281  Network.dyn_peer[68]  lookupTimeSig:vector  ETV
vector 2250222  Network.dyn_peer[49]  lookupHopsSig:vector  ETV
vector 2250223  Network.dyn_peer[49]  lookupStabilitySig:vector  ETV
vector 2250224  Network.dyn_peer[49]  lookupTimeSig:vector  ETV
vector 2250288  Network.dyn_peer[71]  lookupHopsSig:vector  ETV
vector 2250289  Network.dyn_peer[71]  lookupStabilitySig:vector  ETV
vector 2250290  Network.dyn_peer[71]  lookupTimeSig:vector  ETV
vector 2250246  Network.dyn_peer[57]  lookupHopsSig:vector  ETV
vector 2250247  Network.dyn_peer[57]  lookupStabilitySig:vector  ETV
vector 2250248  Network.dyn_peer[57]  lookupTimeSig:vector  ETV
vector 2250492  Network.dyn_peer[139]  lookupHopsSig:vector  ETV
vector 2250493  Network.dyn_peer[139]  lookupStabilitySig:vector  ETV
vector 2250494  Network.dyn_peer[139]  lookupTimeSig:vector  ETV
vector 2250438  Network.dyn_peer[121]  lookupHopsSig:vector  ETV
vector 2250439  Network.dyn_peer[121]  lookupStabilitySig:vector  ETV
vector 2250440  Network.dyn_peer[121]  lookupTimeSig:vector  ETV
vector 2250381  Network.dyn_peer[102]  lookupHopsSig:vector  ETV
vector 2250382  Network.dyn_peer[102]  lookupStabilitySig:vector  ETV
vector 2250383  Network.dyn_peer[102]  lookupTimeSig:vector  ETV
vector 2250411  Network.dyn_peer[112]  lookupHopsSig:vector  ETV
vector 2250412  Network.dyn_peer[112]  lookupStabilitySig:vector  ETV
vector 2250413  Network.dyn_peer[112]  lookupTimeSig:vector  ETV
vector 2250387  Network.dyn_peer[104]  lookupHopsSig:vector  ETV
vector 2250388  Network.dyn_peer[104]  lookupStabilitySig:vector  ETV
vector 2250389  Network.dyn_peer[104]  lookupTimeSig:vector  ETV
vector 2250300  Network.dyn_peer[75]  lookupHopsSig:vector  ETV
vector 2250301  Network.dyn_peer[75]  lookupStabilitySig:vector  ETV
vector 2250302  Network.dyn_peer[75]  lookupTimeSig:vector  ETV
vector 2250213  Network.dyn_peer[46]  lookupHopsSig:vector  ETV
vector 2250214  Network.dyn_peer[46]  lookupStabilitySig:vector  ETV
vector 2250215  Network.dyn_peer[46]  lookupTimeSig:vector  ETV
vector 2250393  Network.dyn_peer[106]  lookupHopsSig:vector  ETV
vector 2250394  Network.dyn_peer[106]  lookupStabilitySig:vector  ETV
vector 2250395  Network.dyn_peer[106]  lookupTimeSig:vector  ETV
vector 2250285  Network.dyn_peer[70]  lookupHopsSig:vector  ETV
vector 2250286  Network.dyn_peer[70]  lookupStabilitySig:vector  ETV
vector 2250287  Network.dyn_peer[70]  lookupTimeSig:vector  ETV
vector 2250408  Network.dyn_peer[111]  lookupHopsSig:vector  ETV
vector 2250409  Network.dyn_peer[111]  lookupStabilitySig:vector  ETV
vector 2250410  Network.dyn_peer[111]  lookupTimeSig:vector  ETV
vector 2250183  Network.dyn_peer[36]  lookupHopsSig:vector  ETV
vector 2250184  Network.dyn_peer[36]  lookupStabilitySig:vector  ETV
vector 2250185  Network.dyn_peer[36]  lookupTimeSig:vector  ETV
vector 2250366  Network.dyn_peer[97]  lookupHopsSig:vector  ETV
vector 2250367  Network.dyn_peer[97]  lookupStabilitySig:vector  ETV
vector 2250368  Network.dyn_peer[97]  lookupTimeSig:vector  ETV
vector 2250405  Network.dyn_peer[110]  lookupHopsSig:vector  ETV
vector 2250406  Network.dyn_peer[110]  lookupStabilitySig:vector  ETV
vector 2250407  Network.dyn_peer[110]  lookupTimeSig:vector  ETV
vector 2250435  Network.dyn_peer[120]  lookupHopsSig:vector  ETV
vector 2250436  Network.dyn_peer[120]  lookupStabilitySig:vector  ETV
vector 2250437  Network.dyn_peer[120]  lookupTimeSig:vector  ETV
vector 2250291  Network.dyn_peer[72]  lookupHopsSig:vector  ETV
vector 2250292  Network.dyn_peer[72]  lookupStabilitySig:vector  ETV
vector 2250293  Network.dyn_peer[72]  lookupTimeSig:vector  ETV
vector 2250501  Network.dyn_peer[142]  lookupHopsSig:vector  ETV
vector 2250502  Network.dyn_peer[142]  lookupStabilitySig:vector  ETV
vector 2250503  Network.dyn_peer[142]  lookupTimeSig:vector  ETV
vector 2250237  Network.dyn_peer[54]  lookupHopsSig:vector  ETV
vector 2250238  Network.dyn_peer[54]  lookupStabilitySig:vector  ETV
vector 2250239  Network.dyn_peer[54]  lookupTimeSig:vector  ETV
vector 2250570  Network.dyn_peer[165]  lookupHopsSig:vector  ETV
vector 2250571  Network.dyn_peer[165]  lookupStabilitySig:vector  ETV
vector 2250572  Network.dyn_peer[165]  lookupTimeSig:vector  ETV
vector 2250459  Network.dyn_peer[128]  lookupHopsSig:vector  ETV
vector 2250460  Network.dyn_peer[128]  lookupStabilitySig:vector  ETV
vector 2250461  Network.dyn_peer[128]  lookupTimeSig:vector  ETV
vector 2250522  Network.dyn_peer[149]  lookupHopsSig:vector  ETV
vector 2250523  Network.dyn_peer[149]  lookupStabilitySig:vector  ETV
vector 2250524  Network.dyn_peer[149]  lookupTimeSig:vector  ETV
vector 2250495  Network.dyn_peer[140]  lookupHopsSig:vector  ETV
vector 2250496  Network.dyn_peer[140]  lookupStabilitySig:vector  ETV
vector 2250497  Network.dyn_peer[140]  lookupTimeSig:vector  ETV
vector 2250555  Network.dyn_peer[160]  lookupHopsSig:vector  ETV
vector 2250556  Network.dyn_peer[160]  lookupStabilitySig:vector  ETV
vector 2250557  Network.dyn_peer[160]  lookupTimeSig:vector  ETV
vector 2250261  Network.dyn_peer[62]  lookupHopsSig:vector  ETV
vector 2250262  Network.dyn_peer[62]  lookupStabilitySig:vector  ETV
vector 2250263  Network.dyn_peer[62]  lookupTimeSig:vector  ETV
vector 2250321  Network.dyn_peer[82]  lookupHopsSig:vector  ETV
vector 2250322  Network.dyn_peer[82]  lookupStabilitySig:vector  ETV
vector 2250323  Network.dyn_peer[82]  lookupTimeSig:vector  ETV
vector 2250504  Network.dyn_peer[143]  lookupHopsSig:vector  ETV
vector 2250505  Network.dyn_peer[143]  lookupStabilitySig:vector  ETV
vector 2250506  Network.dyn_peer[143]  lookupTimeSig:vector  ETV
vector 2250510  Network.dyn_peer[145]  lookupHopsSig:vector  ETV
vector 2250511  Network.dyn_peer[145]  lookupStabilitySig:vector  ETV
vector 2250512  Network.dyn_peer[145]  lookupTimeSig:vector  ETV
vector 2250303  Network.dyn_peer[76]  lookupHopsSig:vector  ETV
vector 2250304  Network.dyn_peer[76]  lookupStabilitySig:vector  ETV
vector 2250305  Network.dyn_peer[76]  lookupTimeSig:vector  ETV
vector 2250306  Network.dyn_peer[77]  lookupHopsSig:vector  ETV
vector 2250307  Network.dyn_peer[77]  lookupStabilitySig:vector  ETV
vector 2250308  Network.dyn_peer[77]  lookupTimeSig:vector  ETV
vector 2250429  Network.dyn_peer[118]  lookupHopsSig:vector  ETV
vector 2250430  Network.dyn_peer[118]  lookupStabilitySig:vector  ETV
vector 2250431  Network.dyn_peer[118]  lookupTimeSig:vector  ETV
vector 2250414  Network.dyn_peer[113]  lookupHopsSig:vector  ETV
vector 2250415  Network.dyn_peer[113]  lookupStabilitySig:vector  ETV
vector 2250416  Network.dyn_peer[113]  lookupTimeSig:vector  ETV
vector 2250180  Network.dyn_peer[35]  lookupHopsSig:vector  ETV
vector 2250181  Network.dyn_peer[35]  lookupStabilitySig:vector  ETV
vector 2250182  Network.dyn_peer[35]  lookupTimeSig:vector  ETV
vector 2250240  Network.dyn_peer[55]  lookupHopsSig:vector  ETV
vector 2250241  Network.dyn_peer[55]  lookupStabilitySig:vector  ETV
vector 2250242  Network.dyn_peer[55]  lookupTimeSig:vector  ETV
vector 2250363  Network.dyn_peer[96]  lookupHopsSig:vector  ETV
vector 2250364  Network.dyn_peer[96]  lookupStabilitySig:vector  ETV
vector 2250365  Network.dyn_peer[96]  lookupTimeSig:vector  ETV
vector 2250483  Network.dyn_peer[136]  lookupHopsSig:vector  ETV
vector 2250484  Network.dyn_peer[136]  lookupStabilitySig:vector  ETV
vector 2250485  Network.dyn_peer[136]  lookupTimeSig:vector  ETV
vector 2250396  Network.dyn_peer[107]  lookupHopsSig:vector  ETV
vector 2250397  Network.dyn_peer[107]  lookupStabilitySig:vector  ETV
vector 2250398  Network.dyn_peer[107]  lookupTimeSig:vector  ETV
vector 2250312  Network.dyn_peer[79]  lookupHopsSig:vector  ETV
vector 2250313  Network.dyn_peer[79]  lookupStabilitySig:vector  ETV
vector 2250314  Network.dyn_peer[79]  lookupTimeSig:vector  ETV
vector 2250315  Network.dyn_peer[80]  lookupHopsSig:vector  ETV
vector 2250316  Network.dyn_peer[80]  lookupStabilitySig:vector  ETV
vector 2250317  Network.dyn_peer[80]  lookupTimeSig:vector  ETV
vector 2250375  Network.dyn_peer[100]  lookupHopsSig:vector  ETV
vector 2250376  Network.dyn_peer[100]  lookupStabilitySig:vector  ETV
vector 2250377  Network.dyn_peer[100]  lookupTimeSig:vector  ETV
vector 2250318  Network.dyn_peer[81]  lookupHopsSig:vector  ETV
vector 2250319  Network.dyn_peer[81]  lookupStabilitySig:vector  ETV
vector 2250320  Network.dyn_peer[81]  lookupTimeSig:vector  ETV
vector 2250498  Network.dyn_peer[141]  lookupHopsSig:vector  ETV
vector 2250499  Network.dyn_peer[141]  lookupStabilitySig:vector  ETV
vector 2250500  Network.dyn_peer[141]  lookupTimeSig:vector  ETV
vector 2250588  Network.dyn_peer[171]  lookupHopsSig:vector  ETV
vector 2250589  Network.dyn_peer[171]  lookupStabilitySig:vector  ETV
vector 2250590  Network.dyn_peer[171]  lookupTimeSig:vector  ETV
vector 2250384  Network.dyn_peer[103]  lookupHopsSig:vector  ETV
vector 2250385  Network.dyn_peer[103]  lookupStabilitySig:vector  ETV
vector 2250386  Network.dyn_peer[103]  lookupTimeSig:vector  ETV
vector 2250327  Network.dyn_peer[84]  lookupHopsSig:vector  ETV
vector 2250328  Network.dyn_peer[84]  lookupStabilitySig:vector  ETV
vector 2250329  Network.dyn_peer[84]  lookupTimeSig:vector  ETV
vector 2250537  Network.dyn_peer[154]  lookupHopsSig:vector  ETV
vector 2250538  Network.dyn_peer[154]  lookupStabilitySig:vector  ETV
vector 2250539  Network.dyn_peer[154]  lookupTimeSig:vector  ETV
vector 2250567  Network.dyn_peer[164]  lookupHopsSig:vector  ETV
vector 2250568  Network.dyn_peer[164]  lookupStabilitySig:vector  ETV
vector 2250569  Network.dyn_peer[164]  lookupTimeSig:vector  ETV
vector 2250597  Network.dyn_peer[174]  lookupHopsSig:vector  ETV
vector 2250598  Network.dyn_peer[174]  lookupStabilitySig:vector  ETV
vector 2250599  Network.dyn_peer[174]  lookupTimeSig:vector  ETV
vector 2250480  Network.dyn_peer[135]  lookupHopsSig:vector  ETV
vector 2250481  Network.dyn_peer[135]  lookupStabilitySig:vector  ETV
vector 2250482  Network.dyn_peer[135]  lookupTimeSig:vector  ETV
vector 2250540  Network.dyn_peer[155]  lookupHopsSig:vector  ETV
vector 2250541  Network.dyn_peer[155]  lookupStabilitySig:vector  ETV
vector 2250542  Network.dyn_peer[155]  lookupTimeSig:vector  ETV
vector 2250603  Network.dyn_peer[176]  lookupHopsSig:vector  ETV
vector 2250604  Network.dyn_peer[176]  lookupStabilitySig:vector  ETV
vector 2250605  Network.dyn_peer[176]  lookupTimeSig:vector  ETV
vector 2250456  Network.dyn_peer[127]  lookupHopsSig:vector  ETV
vector 2250457  Network.dyn_peer[127]  lookupStabilitySig:vector  ETV
vector 2250458  Network.dyn_peer[127]  lookupTimeSig:vector  ETV
vector 2250516  Network.dyn_peer[147]  lookupHopsSig:vector  ETV
vector 2250517  Network.dyn_peer[147]  lookupStabilitySig:vector  ETV
vector 2250518  Network.dyn_peer[147]  lookupTimeSig:vector  ETV
vector 2250546  Network.dyn_peer[157]  lookupHopsSig:vector  ETV
vector 2250547  Network.dyn_peer[157]  lookupStabilitySig:vector  ETV
vector 2250548  Network.dyn_peer[157]  lookupTimeSig:vector  ETV
vector 2250636  Network.dyn_peer[187]  lookupHopsSig:vector  ETV
vector 2250637  Network.dyn_peer[187]  lookupStabilitySig:vector  ETV
vector 2250638  Network.dyn_peer[187]  lookupTimeSig:vector  ETV
vector 2250465  Network.dyn_peer[130]  lookupHopsSig:vector  ETV
vector 2250466  Network.dyn_peer[130]  lookupStabilitySig:vector  ETV
vector 2250467  Network.dyn_peer[130]  lookupTimeSig:vector  ETV
vector 2250525  Network.dyn_peer[150]  lookupHopsSig:vector  ETV
vector 2250526  Network.dyn_peer[150]  lookupStabilitySig:vector  ETV
vector 2250527  Network.dyn_peer[150]  lookupTimeSig:vector  ETV
vector 2250324  Network.dyn_peer[83]  lookupHopsSig:vector  ETV
vector 2250325  Network.dyn_peer[83]  lookupStabilitySig:vector  ETV
vector 2250326  Network.dyn_peer[83]  lookupTimeSig:vector  ETV
vector 2250507  Network.dyn_peer[144]  lookupHopsSig:vector  ETV
vector 2250508  Network.dyn_peer[144]  lookupStabilitySig:vector  ETV
vector 2250509  Network.dyn_peer[144]  lookupTimeSig:vector  ETV
vector 2250420  Network.dyn_peer[115]  lookupHopsSig:vector  ETV
vector 2250421  Network.dyn_peer[115]  lookupStabilitySig:vector  ETV
vector 2250422  Network.dyn_peer[115]  lookupTimeSig:vector  ETV
vector 2250426  Network.dyn_peer[117]  lookupHopsSig:vector  ETV
vector 2250427  Network.dyn_peer[117]  lookupStabilitySig:vector  ETV
vector 2250428  Network.dyn_peer[117]  lookupTimeSig:vector  ETV
vector 2250372  Network.dyn_peer[99]  lookupHopsSig:vector  ETV
vector 2250373  Network.dyn_peer[99]  lookupStabilitySig:vector  ETV
vector 2250374  Network.dyn_peer[99]  lookupTimeSig:vector  ETV
vector 2250402  Network.dyn_peer[109]  lookupHopsSig:vector  ETV
vector 2250403  Network.dyn_peer[109]  lookupStabilitySig:vector  ETV
vector 2250404  Network.dyn_peer[109]  lookupTimeSig:vector  ETV
vector 2250345  Network.dyn_peer[90]  lookupHopsSig:vector  ETV
vector 2250346  Network.dyn_peer[90]  lookupStabilitySig:vector  ETV
vector 2250347  Network.dyn_peer[90]  lookupTimeSig:vector  ETV
vector 2250471  Network.dyn_peer[132]  lookupHopsSig:vector  ETV
vector 2250472  Network.dyn_peer[132]  lookupStabilitySig:vector  ETV
vector 2250473  Network.dyn_peer[132]  lookupTimeSig:vector  ETV
vector 2250621  Network.dyn_peer[182]  lookupHopsSig:vector  ETV
vector 2250622  Network.dyn_peer[182]  lookupStabilitySig:vector  ETV
vector 2250623  Network.dyn_peer[182]  lookupTimeSig:vector  ETV
vector 2250264  Network.dyn_peer[63]  lookupHopsSig:vector  ETV
vector 2250265  Network.dyn_peer[63]  lookupStabilitySig:vector  ETV
vector 2250266  Network.dyn_peer[63]  lookupTimeSig:vector  ETV
vector 2250297  Network.dyn_peer[74]  lookupHopsSig:vector  ETV
vector 2250298  Network.dyn_peer[74]  lookupStabilitySig:vector  ETV
vector 2250299  Network.dyn_peer[74]  lookupTimeSig:vector  ETV
vector 2250333  Network.dyn_peer[86]  lookupHopsSig:vector  ETV
vector 2250334  Network.dyn_peer[86]  lookupStabilitySig:vector  ETV
vector 2250335  Network.dyn_peer[86]  lookupTimeSig:vector  ETV
vector 2250453  Network.dyn_peer[126]  lookupHopsSig:vector  ETV
vector 2250454  Network.dyn_peer[126]  lookupStabilitySig:vector  ETV
vector 2250455  Network.dyn_peer[126]  lookupTimeSig:vector  ETV
vector 2250513  Network.dyn_peer[146]  lookupHopsSig:vector  ETV
vector 2250514  Network.dyn_peer[146]  lookupStabilitySig:vector  ETV
vector 2250515  Network.dyn_peer[146]  lookupTimeSig:vector  ETV
vector 2250579  Network.dyn_peer[168]  lookupHopsSig:vector  ETV
vector 2250580  Network.dyn_peer[168]  lookupStabilitySig:vector  ETV
vector 2250581  Network.dyn_peer[168]  lookupTimeSig:vector  ETV
vector 2250282  Network.dyn_peer[69]  lookupHopsSig:vector  ETV
vector 2250283  Network.dyn_peer[69]  lookupStabilitySig:vector  ETV
vector 2250284  Network.dyn_peer[69]  lookupTimeSig:vector  ETV
vector 2250432  Network.dyn_peer[119]  lookupHopsSig:vector  ETV
vector 2250433  Network.dyn_peer[119]  lookupStabilitySig:vector  ETV
vector 2250434  Network.dyn_peer[119]  lookupTimeSig:vector  ETV
vector 2250468  Network.dyn_peer[131]  lookupHopsSig:vector  ETV
vector 2250469  Network.dyn_peer[131]  lookupStabilitySig:vector  ETV
vector 2250470  Network.dyn_peer[131]  lookupTimeSig:vector  ETV
vector 2250531  Network.dyn_peer[152]  lookupHopsSig:vector  ETV
vector 2250532  Network.dyn_peer[152]  lookupStabilitySig:vector  ETV
vector 2250533  Network.dyn_peer[152]  lookupTimeSig:vector  ETV
vector 2250294  Network.dyn_peer[73]  lookupHopsSig:vector  ETV
vector 2250295  Network.dyn_peer[73]  lookupStabilitySig:vector  ETV
vector 2250296  Network.dyn_peer[73]  lookupTimeSig:vector  ETV
vector 2250417  Network.dyn_peer[114]  lookupHopsSig:vector  ETV
vector 2250418  Network.dyn_peer[114]  lookupStabilitySig:vector  ETV
vector 2250419  Network.dyn_peer[114]  lookupTimeSig:vector  ETV
vector 2250660  Network.dyn_peer[195]  lookupHopsSig:vector  ETV
vector 2250661  Network.dyn_peer[195]  lookupStabilitySig:vector  ETV
vector 2250662  Network.dyn_peer[195]  lookupTimeSig:vector  ETV
vector 2250342  Network.dyn_peer[89]  lookupHopsSig:vector  ETV
vector 2250343  Network.dyn_peer[89]  lookupStabilitySig:vector  ETV
vector 2250344  Network.dyn_peer[89]  lookupTimeSig:vector  ETV
vector 2250462  Network.dyn_peer[129]  lookupHopsSig:vector  ETV
vector 2250463  Network.dyn_peer[129]  lookupStabilitySig:vector  ETV
vector 2250464  Network.dyn_peer[129]  lookupTimeSig:vector  ETV
vector 2250561  Network.dyn_peer[162]  lookupHopsSig:vector  ETV
vector 2250562  Network.dyn_peer[162]  lookupStabilitySig:vector  ETV
vector 2250563  Network.dyn_peer[162]  lookupTimeSig:vector  ETV
vector 2250681  Network.dyn_peer[202]  lookupHopsSig:vector  ETV
vector 2250682  Network.dyn_peer[202]  lookupStabilitySig:vector  ETV
vector 2250683  Network.dyn_peer[202]  lookupTimeSig:vector  ETV
vector 2250564  Network.dyn_peer[163]  lookupHopsSig:vector  ETV
vector 2250565  Network.dyn_peer[163]  lookupStabilitySig:vector  ETV
vector 2250566  Network.dyn_peer[163]  lookupTimeSig:vector  ETV
vector 2250654  Network.dyn_peer[193]  lookupHopsSig:vector  ETV
vector 2250655  Network.dyn_peer[193]  lookupStabilitySig:vector  ETV
vector 2250656  Network.dyn_peer[193]  lookupTimeSig:vector  ETV
vector 2250243  Network.dyn_peer[56]  lookupHopsSig:vector  ETV
vector 2250244  Network.dyn_peer[56]  lookupStabilitySig:vector  ETV