version 2
run Stability2-48-20130528-01:26:47-24168
attr configname Stability2
attr datetime 20130528-01:26:47
attr experiment Stability2
attr inifile omnetpp.ini
attr iterationvars $0=50
attr iterationvars2 "$0=50, $repetition=8"
attr measurement $0=50
attr network Network
attr processid 24168
attr repetition 8
attr replication #8
attr resultdir results
attr runnumber 48
attr seedset 48

vector 1470048  Network.churner  inGoingSizeSig:vector  ETV
vector 1440066  Network.dyn_peer[6]  lookupHopsSig:vector  ETV
vector 1440067  Network.dyn_peer[6]  lookupStabilitySig:vector  ETV
vector 1440068  Network.dyn_peer[6]  lookupTimeSig:vector  ETV
vector 1440069  Network.dyn_peer[7]  lookupHopsSig:vector  ETV
vector 1440070  Network.dyn_peer[7]  lookupStabilitySig:vector  ETV
vector 1440071  Network.dyn_peer[7]  lookupTimeSig:vector  ETV
vector 1440075  Network.dyn_peer[9]  lookupHopsSig:vector  ETV
vector 1440076  Network.dyn_peer[9]  lookupStabilitySig:vector  ETV
vector 1440077  Network.dyn_peer[9]  lookupTimeSig:vector  ETV
vector 1440048  Network.dyn_peer[0]  lookupHopsSig:vector  ETV
vector 1440049  Network.dyn_peer[0]  lookupStabilitySig:vector  ETV
vector 1440050  Network.dyn_peer[0]  lookupTimeSig:vector  ETV
vector 1440051  Network.dyn_peer[1]  lookupHopsSig:vector  ETV
vector 1440052  Network.dyn_peer[1]  lookupStabilitySig:vector  ETV
vector 1440053  Network.dyn_peer[1]  lookupTimeSig:vector  ETV
vector 1440054  Network.dyn_peer[2]  lookupHopsSig:vector  ETV
vector 1440055  Network.dyn_peer[2]  lookupStabilitySig:vector  ETV
vector 1440056  Network.dyn_peer[2]  lookupTimeSig:vector  ETV
vector 1440060  Network.dyn_peer[4]  lookupHopsSig:vector  ETV
vector 1440061  Network.dyn_peer[4]  lookupStabilitySig:vector  ETV
vector 1440062  Network.dyn_peer[4]  lookupTimeSig:vector  ETV
vector 1440072  Network.dyn_peer[8]  lookupHopsSig:vector  ETV
vector 1440073  Network.dyn_peer[8]  lookupStabilitySig:vector  ETV
vector 1440074  Network.dyn_peer[8]  lookupTimeSig:vector  ETV
vector 1440081  Network.dyn_peer[11]  lookupHopsSig:vector  ETV
vector 1440082  Network.dyn_peer[11]  lookupStabilitySig:vector  ETV
vector 1440083  Network.dyn_peer[11]  lookupTimeSig:vector  ETV
vector 1440084  Network.dyn_peer[12]  lookupHopsSig:vector  ETV
vector 1440085  Network.dyn_peer[12]  lookupStabilitySig:vector  ETV
vector 1440086  Network.dyn_peer[12]  lookupTimeSig:vector  ETV
vector 1440063  Network.dyn_peer[5]  lookupHopsSig:vector  ETV
vector 1440064  Network.dyn_peer[5]  lookupStabilitySig:vector  ETV
vector 1440065  Network.dyn_peer[5]  lookupTimeSig:vector  ETV
vector 1440093  Network.dyn_peer[15]  lookupHopsSig:vector  ETV
vector 1440094  Network.dyn_peer[15]  lookupStabilitySig:vector  ETV
vector 1440095  Network.dyn_peer[15]  lookupTimeSig:vector  ETV
vector 1440099  Network.dyn_peer[17]  lookupHopsSig:vector  ETV
vector 1440100  Network.dyn_peer[17]  lookupStabilitySig:vector  ETV
vector 1440101  Network.dyn_peer[17]  lookupTimeSig:vector  ETV
vector 1440078  Network.dyn_peer[10]  lookupHopsSig:vector  ETV
vector 1440079  Network.dyn_peer[10]  lookupStabilitySig:vector  ETV
vector 1440080  Network.dyn_peer[10]  lookupTimeSig:vector  ETV
vector 1440087  Network.dyn_peer[13]  lookupHopsSig:vector  ETV
vector 1440088  Network.dyn_peer[13]  lookupStabilitySig:vector  ETV
vector 1440089  Network.dyn_peer[13]  lookupTimeSig:vector  ETV
vector 1440090  Network.dyn_peer[14]  lookupHopsSig:vector  ETV
vector 1440091  Network.dyn_peer[14]  lookupStabilitySig:vector  ETV
vector 1440092  Network.dyn_peer[14]  lookupTimeSig:vector  ETV
vector 1440129  Network.dyn_peer[27]  lookupHopsSig:vector  ETV
vector 1440130  Network.dyn_peer[27]  lookupStabilitySig:vector  ETV
vector 1440131  Network.dyn_peer[27]  lookupTimeSig:vector  ETV
vector 1440102  Network.dyn_peer[18]  lookupHopsSig:vector  ETV
vector 1440103  Network.dyn_peer[18]  lookupStabilitySig:vector  ETV
vector 1440104  Network.dyn_peer[18]  lookupTimeSig:vector  ETV
vector 1440105  Network.dyn_peer[19]  lookupHopsSig:vector  ETV
vector 1440106  Network.dyn_peer[19]  lookupStabilitySig:vector  ETV
vector 1440107  Network.dyn_peer[19]  lookupTimeSig:vector  ETV
vector 1440117  Network.dyn_peer[23]  lookupHopsSig:vector  ETV
vector 1440118  Network.dyn_peer[23]  lookupStabilitySig:vector  ETV
vector 1440119  Network.dyn_peer[23]  lookupTimeSig:vector  ETV
vector 1440126  Network.dyn_peer[26]  lookupHopsSig:vector  ETV
vector 1440127  Network.dyn_peer[26]  lookupStabilitySig:vector  ETV
vector 1440128  Network.dyn_peer[26]  lookupTimeSig:vector  ETV
vector 1440132  Network.dyn_peer[28]  lookupHopsSig:vector  ETV
vector 1440133  Network.dyn_peer[28]  lookupStabilitySig:vector  ETV
vector 1440134  Network.dyn_peer[28]  lookupTimeSig:vector  ETV
vector 1440168  Network.dyn_peer[40]  lookupHopsSig:vector  ETV
vector 1440169  Network.dyn_peer[40]  lookupStabilitySig:vector  ETV
vector 1440170  Network.dyn_peer[40]  lookupTimeSig:vector  ETV
vector 1440111  Network.dyn_peer[21]  lookupHopsSig:vector  ETV
vector 1440112  Network.dyn_peer[21]  lookupStabilitySig:vector  ETV
vector 1440113  Network.dyn_peer[21]  lookupTimeSig:vector  ETV
vector 1440057  Network.dyn_peer[3]  lookupHopsSig:vector  ETV
vector 1440058  Network.dyn_peer[3]  lookupStabilitySig:vector  ETV
vector 1440059  Network.dyn_peer[3]  lookupTimeSig:vector  ETV
vector 1440123  Network.dyn_peer[25]  lookupHopsSig:vector  ETV
vector 1440124  Network.dyn_peer[25]  lookupStabilitySig:vector  ETV
vector 1440125  Network.dyn_peer[25]  lookupTimeSig:vector  ETV
vector 1440162  Network.dyn_peer[38]  lookupHopsSig:vector  ETV
vector 1440163  Network.dyn_peer[38]  lookupStabilitySig:vector  ETV
vector 1440164  Network.dyn_peer[38]  lookupTimeSig:vector  ETV
vector 1440201  Network.dyn_peer[51]  lookupHopsSig:vector  ETV
vector 1440202  Network.dyn_peer[51]  lookupStabilitySig:vector  ETV
vector 1440203  Network.dyn_peer[51]  lookupTimeSig:vector  ETV
vector 1440144  Network.dyn_peer[32]  lookupHopsSig:vector  ETV
vector 1440145  Network.dyn_peer[32]  lookupStabilitySig:vector  ETV
vector 1440146  Network.dyn_peer[32]  lookupTimeSig:vector  ETV
vector 1440177  Network.dyn_peer[43]  lookupHopsSig:vector  ETV
vector 1440178  Network.dyn_peer[43]  lookupStabilitySig:vector  ETV
vector 1440179  Network.dyn_peer[43]  lookupTimeSig:vector  ETV
vector 1440120  Network.dyn_peer[24]  lookupHopsSig:vector  ETV
vector 1440121  Network.dyn_peer[24]  lookupStabilitySig:vector  ETV
vector 1440122  Network.dyn_peer[24]  lookupTimeSig:vector  ETV
vector 1440159  Network.dyn_peer[37]  lookupHopsSig:vector  ETV
vector 1440160  Network.dyn_peer[37]  lookupStabilitySig:vector  ETV
vector 1440161  Network.dyn_peer[37]  lookupTimeSig:vector  ETV
vector 1440189  Network.dyn_peer[47]  lookupHopsSig:vector  ETV
vector 1440190  Network.dyn_peer[47]  lookupStabilitySig:vector  ETV
vector 1440191  Network.dyn_peer[47]  lookupTimeSig:vector  ETV
vector 1440165  Network.dyn_peer[39]  lookupHopsSig:vector  ETV
vector 1440166  Network.dyn_peer[39]  lookupStabilitySig:vector  ETV
vector 1440167  Network.dyn_peer[39]  lookupTimeSig:vector  ETV
vector 1440195  Network.dyn_peer[49]  lookupHopsSig:vector  ETV
vector 1440196  Network.dyn_peer[49]  lookupStabilitySig:vector  ETV
vector 1440197  Network.dyn_peer[49]  lookupTimeSig:vector  ETV
vector 1440114  Network.dyn_peer[22]  lookupHopsSig:vector  ETV
vector 1440115  Network.dyn_peer[22]  lookupStabilitySig:vector  ETV
vector 1440116  Network.dyn_peer[22]  lookupTimeSig:vector  ETV
vector 1440213  Network.dyn_peer[55]  lookupHopsSig:vector  ETV
vector 1440214  Network.dyn_peer[55]  lookupStabilitySig:vector  ETV
vector 1440215  Network.dyn_peer[55]  lookupTimeSig:vector  ETV
vector 1440096  Network.dyn_peer[16]  lookupHopsSig:vector  ETV
vector 1440097  Network.dyn_peer[16]  lookupStabilitySig:vector  ETV
vector 1440098  Network.dyn_peer[16]  lookupTimeSig:vector  ETV
vector 1440216  Network.dyn_peer[56]  lookupHopsSig:vector  ETV
vector 1440217  Network.dyn_peer[56]  lookupStabilitySig:vector  ETV
vector 1440218  Network.dyn_peer[56]  lookupTimeSig:vector  ETV
vector 1440219  Network.dyn_peer[57]  lookupHopsSig:vector  ETV
vector 1440220  Network.dyn_peer[57]  lookupStabilitySig:vector  ETV
vector 1440221  Network.dyn_peer[57]  lookupTimeSig:vector  ETV
vector 1440108  Network.dyn_peer[20]  lookupHopsSig:vector  ETV
vector 1440109  Network.dyn_peer[20]  lookupStabilitySig:vector  ETV
vector 1440110  Network.dyn_peer[20]  lookupTimeSig:vector  ETV
vector 1440267  Network.dyn_peer[73]  lookupHopsSig:vector  ETV
vector 1440268  Network.dyn_peer[73]  lookupStabilitySig:vector  ETV
vector 1440269  Network.dyn_peer[73]  lookupTimeSig:vector  ETV
vector 1440138  Network.dyn_peer[30]  lookupHopsSig:vector  ETV
vector 1440139  Network.dyn_peer[30]  lookupStabilitySig:vector  ETV
vector 1440140  Network.dyn_peer[30]  lookupTimeSig:vector  ETV
vector 1440153  Network.dyn_peer[35]  lookupHopsSig:vector  ETV
vector 1440154  Network.dyn_peer[35]  lookupStabilitySig:vector  ETV
vector 1440155  Network.dyn_peer[35]  lookupTimeSig:vector  ETV
vector 1440273  Network.dyn_peer[75]  lookupHopsSig:vector  ETV
vector 1440274  Network.dyn_peer[75]  lookupStabilitySig:vector  ETV
vector 1440275  Network.dyn_peer[75]  lookupTimeSig:vector  ETV
vector 1440276  Network.dyn_peer[76]  lookupHopsSig:vector  ETV
vector 1440277  Network.dyn_peer[76]  lookupStabilitySig:vector  ETV
vector 1440278  Network.dyn_peer[76]  lookupTimeSig:vector  ETV
vector 1440198  Network.dyn_peer[50]  lookupHopsSig:vector  ETV
vector 1440199  Network.dyn_peer[50]  lookupStabilitySig:vector  ETV
vector 1440200  Network.dyn_peer[50]  lookupTimeSig:vector  ETV
vector 1440204  Network.dyn_peer[52]  lookupHopsSig:vector  ETV
vector 1440205  Network.dyn_peer[52]  lookupStabilitySig:vector  ETV
vector 1440206  Network.dyn_peer[52]  lookupTimeSig:vector  ETV
vector 1440264  Network.dyn_peer[72]  lookupHopsSig:vector  ETV
vector 1440265  Network.dyn_peer[72]  lookupStabilitySig:vector  ETV
vector 1440266  Network.dyn_peer[72]  lookupTimeSig:vector  ETV
vector 1440357  Network.dyn_peer[103]  lookupHopsSig:vector  ETV
vector 1440358  Network.dyn_peer[103]  lookupStabilitySig:vector  ETV
vector 1440359  Network.dyn_peer[103]  lookupTimeSig:vector  ETV
vector 1440240  Network.dyn_peer[64]  lookupHopsSig:vector  ETV
vector 1440241  Network.dyn_peer[64]  lookupStabilitySig:vector  ETV
vector 1440242  Network.dyn_peer[64]  lookupTimeSig:vector  ETV
vector 1440243  Network.dyn_peer[65]  lookupHopsSig:vector  ETV
vector 1440244  Network.dyn_peer[65]  lookupStabilitySig:vector  ETV
vector 1440245  Network.dyn_peer[65]  lookupTimeSig:vector  ETV
vector 1440222  Network.dyn_peer[58]  lookupHopsSig:vector  ETV
vector 1440223  Network.dyn_peer[58]  lookupStabilitySig:vector  ETV
vector 1440224  Network.dyn_peer[58]  lookupTimeSig:vector  ETV
vector 1440252  Network.dyn_peer[68]  lookupHopsSig:vector  ETV
vector 1440253  Network.dyn_peer[68]  lookupStabilitySig:vector  ETV
vector 1440254  Network.dyn_peer[68]  lookupTimeSig:vector  ETV
vector 1440345  Network.dyn_peer[99]  lookupHopsSig:vector  ETV
vector 1440346  Network.dyn_peer[99]  lookupStabilitySig:vector  ETV
vector 1440347  Network.dyn_peer[99]  lookupTimeSig:vector  ETV
vector 1440228  Network.dyn_peer[60]  lookupHopsSig:vector  ETV
vector 1440229  Network.dyn_peer[60]  lookupStabilitySig:vector  ETV
vector 1440230  Network.dyn_peer[60]  lookupTimeSig:vector  ETV
vector 1440258  Network.dyn_peer[70]  lookupHopsSig:vector  ETV
vector 1440259  Network.dyn_peer[70]  lookupStabilitySig:vector  ETV
vector 1440260  Network.dyn_peer[70]  lookupTimeSig:vector  ETV
vector 1440141  Network.dyn_peer[31]  lookupHopsSig:vector  ETV
vector 1440142  Network.dyn_peer[31]  lookupStabilitySig:vector  ETV
vector 1440143  Network.dyn_peer[31]  lookupTimeSig:vector  ETV
vector 1440234  Network.dyn_peer[62]  lookupHopsSig:vector  ETV
vector 1440235  Network.dyn_peer[62]  lookupStabilitySig:vector  ETV
vector 1440236  Network.dyn_peer[62]  lookupTimeSig:vector  ETV
vector 1440147  Network.dyn_peer[33]  lookupHopsSig:vector  ETV
vector 1440148  Network.dyn_peer[33]  lookupStabilitySig:vector  ETV
vector 1440149  Network.dyn_peer[33]  lookupTimeSig:vector  ETV
vector 1440180  Network.dyn_peer[44]  lookupHopsSig:vector  ETV
vector 1440181  Network.dyn_peer[44]  lookupStabilitySig:vector  ETV
vector 1440182  Network.dyn_peer[44]  lookupTimeSig:vector  ETV
vector 1440300  Network.dyn_peer[84]  lookupHopsSig:vector  ETV
vector 1440301  Network.dyn_peer[84]  lookupStabilitySig:vector  ETV
vector 1440302  Network.dyn_peer[84]  lookupTimeSig:vector  ETV
vector 1440183  Network.dyn_peer[45]  lookupHopsSig:vector  ETV
vector 1440184  Network.dyn_peer[45]  lookupStabilitySig:vector  ETV
vector 1440185  Network.dyn_peer[45]  lookupTimeSig:vector  ETV
vector 1440225  Network.dyn_peer[59]  lookupHopsSig:vector  ETV
vector 1440226  Network.dyn_peer[59]  lookupStabilitySig:vector  ETV
vector 1440227  Network.dyn_peer[59]  lookupTimeSig:vector  ETV
vector 1440231  Network.dyn_peer[61]  lookupHopsSig:vector  ETV
vector 1440232  Network.dyn_peer[61]  lookupStabilitySig:vector  ETV
vector 1440233  Network.dyn_peer[61]  lookupTimeSig:vector  ETV
vector 1440354  Network.dyn_peer[102]  lookupHopsSig:vector  ETV
vector 1440355  Network.dyn_peer[102]  lookupStabilitySig:vector  ETV
vector 1440356  Network.dyn_peer[102]  lookupTimeSig:vector  ETV
vector 1440414  Network.dyn_peer[122]  lookupHopsSig:vector  ETV
vector 1440415  Network.dyn_peer[122]  lookupStabilitySig:vector  ETV
vector 1440416  Network.dyn_peer[122]  lookupTimeSig:vector  ETV
vector 1440381  Network.dyn_peer[111]  lookupHopsSig:vector  ETV
vector 1440382  Network.dyn_peer[111]  lookupStabilitySig:vector  ETV
vector 1440383  Network.dyn_peer[111]  lookupTimeSig:vector  ETV
vector 1440411  Network.dyn_peer[121]  lookupHopsSig:vector  ETV
vector 1440412  Network.dyn_peer[121]  lookupStabilitySig:vector  ETV
vector 1440413  Network.dyn_peer[121]  lookupTimeSig:vector  ETV
vector 1440237  Network.dyn_peer[63]  lookupHopsSig:vector  ETV
vector 1440238  Network.dyn_peer[63]  lookupStabilitySig:vector  ETV
vector 1440239  Network.dyn_peer[63]  lookupTimeSig:vector  ETV
vector 1440303  Network.dyn_peer[85]  lookupHopsSig:vector  ETV
vector 1440304  Network.dyn_peer[85]  lookupStabilitySig:vector  ETV
vector 1440305  Network.dyn_peer[85]  lookupTimeSig:vector  ETV
vector 1440366  Network.dyn_peer[106]  lookupHopsSig:vector  ETV
vector 1440367  Network.dyn_peer[106]  lookupStabilitySig:vector  ETV
vector 1440368  Network.dyn_peer[106]  lookupTimeSig:vector  ETV
vector 1440249  Network.dyn_peer[67]  lookupHopsSig:vector  ETV
vector 1440250  Network.dyn_peer[67]  lookupStabilitySig:vector  ETV
vector 1440251  Network.dyn_peer[67]  lookupTimeSig:vector  ETV
vector 1440135  Network.dyn_peer[29]  lookupHopsSig:vector  ETV
vector 1440136  Network.dyn_peer[29]  lookupStabilitySig:vector  ETV
vector 1440137  Network.dyn_peer[29]  lookupTimeSig:vector  ETV
vector 1440174  Network.dyn_peer[42]  lookupHopsSig:vector  ETV
vector 1440175  Network.dyn_peer[42]  lookupStabilitySig:vector  ETV
vector 1440176  Network.dyn_peer[42]  lookupTimeSig:vector  ETV
vector 1440207  Network.dyn_peer[53]  lookupHopsSig:vector  ETV
vector 1440208  Network.dyn_peer[53]  lookupStabilitySig:vector  ETV
vector 1440209  Network.dyn_peer[53]  lookupTimeSig:vector  ETV
vector 1440297  Network.dyn_peer[83]  lookupHopsSig:vector  ETV
vector 1440298  Network.dyn_peer[83]  lookupStabilitySig:vector  ETV
vector 1440299  Network.dyn_peer[83]  lookupTimeSig:vector  ETV
vector 1440150  Network.dyn_peer[34]  lookupHopsSig:vector  ETV
vector 1440151  Network.dyn_peer[34]  lookupStabilitySig:vector  ETV
vector 1440152  Network.dyn_peer[34]  lookupTimeSig:vector  ETV
vector 1440480  Network.dyn_peer[144]  lookupHopsSig:vector  ETV
vector 1440481  Network.dyn_peer[144]  lookupStabilitySig:vector  ETV
vector 1440482  Network.dyn_peer[144]  lookupTimeSig:vector  ETV
vector 1440459  Network.dyn_peer[137]  lookupHopsSig:vector  ETV
vector 1440460  Network.dyn_peer[137]  lookupStabilitySig:vector  ETV
vector 1440461  Network.dyn_peer[137]  lookupTimeSig:vector  ETV
vector 1440255  Network.dyn_peer[69]  lookupHopsSig:vector  ETV
vector 1440256  Network.dyn_peer[69]  lookupStabilitySig:vector  ETV
vector 1440257  Network.dyn_peer[69]  lookupTimeSig:vector  ETV
vector 1440318  Network.dyn_peer[90]  lookupHopsSig:vector  ETV
vector 1440319  Network.dyn_peer[90]  lookupStabilitySig:vector  ETV
vector 1440320  Network.dyn_peer[90]  lookupTimeSig:vector  ETV
vector 1440210  Network.dyn_peer[54]  lookupHopsSig:vector  ETV
vector 1440211  Network.dyn_peer[54]  lookupStabilitySig:vector  ETV
vector 1440212  Network.dyn_peer[54]  lookupTimeSig:vector  ETV
vector 1440285  Network.dyn_peer[79]  lookupHopsSig:vector  ETV
vector 1440286  Network.dyn_peer[79]  lookupStabilitySig:vector  ETV
vector 1440287  Network.dyn_peer[79]  lookupTimeSig:vector  ETV
vector 1440261  Network.dyn_peer[71]  lookupHopsSig:vector  ETV
vector 1440262  Network.dyn_peer[71]  lookupStabilitySig:vector  ETV
vector 1440263  Network.dyn_peer[71]  lookupTimeSig:vector  ETV
vector 1440291  Network.dyn_peer[81]  lookupHopsSig:vector  ETV
vector 1440292  Network.dyn_peer[81]  lookupStabilitySig:vector  ETV
vector 1440293  Network.dyn_peer[81]  lookupTimeSig:vector  ETV
vector 1440327  Network.dyn_peer[93]  lookupHopsSig:vector  ETV
vector 1440328  Network.dyn_peer[93]  lookupStabilitySig:vector  ETV
vector 1440329  Network.dyn_peer[93]  lookupTimeSig:vector  ETV
vector 1440537  Network.dyn_peer[163]  lookupHopsSig:vector  ETV
vector 1440538  Network.dyn_peer[163]  lookupStabilitySig:vector  ETV
vector 1440539  Network.dyn_peer[163]  lookupTimeSig:vector  ETV
vector 1440360  Network.dyn_peer[104]  lookupHopsSig:vector  ETV
vector 1440361  Network.dyn_peer[104]  lookupStabilitySig:vector  ETV
vector 1440362  Network.dyn_peer[104]  lookupTimeSig:vector  ETV
vector 1440333  Network.dyn_peer[95]  lookupHopsSig:vector  ETV
vector 1440334  Network.dyn_peer[95]  lookupStabilitySig:vector  ETV
vector 1440335  Network.dyn_peer[95]  lookupTimeSig:vector  ETV
vector 1440363  Network.dyn_peer[105]  lookupHopsSig:vector  ETV
vector 1440364  Network.dyn_peer[105]  lookupStabilitySig:vector  ETV
vector 1440365  Network.dyn_peer[105]  lookupTimeSig:vector  ETV
vector 1440246  Network.dyn_peer[66]  lookupHopsSig:vector  ETV
vector 1440247  Network.dyn_peer[66]  lookupStabilitySig:vector  ETV
vector 1440248  Network.dyn_peer[66]  lookupTimeSig:vector  ETV
vector 1440492  Network.dyn_peer[148]  lookupHopsSig:vector  ETV
vector 1440493  Network.dyn_peer[148]  lookupStabilitySig:vector  ETV
vector 1440494  Network.dyn_peer[148]  lookupTimeSig:vector  ETV
vector 1440375  Network.dyn_peer[109]  lookupHopsSig:vector  ETV
vector 1440376  Network.dyn_peer[109]  lookupStabilitySig:vector  ETV
vector 1440377  Network.dyn_peer[109]  lookupTimeSig:vector  ETV
vector 1440438  Network.dyn_peer[130]  lookupHopsSig:vector  ETV
vector 1440439  Network.dyn_peer[130]  lookupStabilitySig:vector  ETV
vector 1440440  Network.dyn_peer[130]  lookupTimeSig:vector  ETV
vector 1440171  Network.dyn_peer[41]  lookupHopsSig:vector  ETV
vector 1440172  Network.dyn_peer[41]  lookupStabilitySig:vector  ETV
vector 1440173  Network.dyn_peer[41]  lookupTimeSig:vector  ETV
vector 1440321  Network.dyn_peer[91]  lookupHopsSig:vector  ETV
vector 1440322  Network.dyn_peer[91]  lookupStabilitySig:vector  ETV
vector 1440323  Network.dyn_peer[91]  lookupTimeSig:vector  ETV
vector 1440501  Network.dyn_peer[151]  lookupHopsSig:vector  ETV
vector 1440502  Network.dyn_peer[151]  lookupStabilitySig:vector  ETV
vector 1440503  Network.dyn_peer[151]  lookupTimeSig:vector  ETV
vector 1440474  Network.dyn_peer[142]  lookupHopsSig:vector  ETV
vector 1440475  Network.dyn_peer[142]  lookupStabilitySig:vector  ETV
vector 1440476  Network.dyn_peer[142]  lookupTimeSig:vector  ETV
vector 1440336  Network.dyn_peer[96]  lookupHopsSig:vector  ETV
vector 1440337  Network.dyn_peer[96]  lookupStabilitySig:vector  ETV
vector 1440338  Network.dyn_peer[96]  lookupTimeSig:vector  ETV
vector 1440288  Network.dyn_peer[80]  lookupHopsSig:vector  ETV
vector 1440289  Network.dyn_peer[80]  lookupStabilitySig:vector  ETV
vector 1440290  Network.dyn_peer[80]  lookupTimeSig:vector  ETV
vector 1440294  Network.dyn_peer[82]  lookupHopsSig:vector  ETV
vector 1440295  Network.dyn_peer[82]  lookupStabilitySig:vector  ETV
vector 1440296  Network.dyn_peer[82]  lookupTimeSig:vector  ETV
vector 1440453  Network.dyn_peer[135]  lookupHopsSig:vector  ETV
vector 1440454  Network.dyn_peer[135]  lookupStabilitySig:vector  ETV
vector 1440455  Network.dyn_peer[135]  lookupTimeSig:vector  ETV
vector 1440156  Network.dyn_peer[36]  lookupHopsSig:vector  ETV
vector 1440157  Network.dyn_peer[36]  lookupStabilitySig:vector  ETV
vector 1440158  Network.dyn_peer[36]  lookupTimeSig:vector  ETV
vector 1440309  Network.dyn_peer[87]  lookupHopsSig:vector  ETV
vector 1440310  Network.dyn_peer[87]  lookupStabilitySig:vector  ETV
vector 1440311  Network.dyn_peer[87]  lookupTimeSig:vector  ETV
vector 1440528  Network.dyn_peer[160]  lookupHopsSig:vector  ETV
vector 1440529  Network.dyn_peer[160]  lookupStabilitySig:vector  ETV
vector 1440530  Network.dyn_peer[160]  lookupTimeSig:vector  ETV
vector 1440504  Network.dyn_peer[152]  lookupHopsSig:vector  ETV
vector 1440505  Network.dyn_peer[152]  lookupStabilitySig:vector  ETV
vector 1440506  Network.dyn_peer[152]  lookupTimeSig:vector  ETV
vector 1440306  Network.dyn_peer[86]  lookupHopsSig:vector  ETV
vector 1440307  Network.dyn_peer[86]  lookupStabilitySig:vector  ETV
vector 1440308  Network.dyn_peer[86]  lookupTimeSig:vector  ETV
vector 1440546  Network.dyn_peer[166]  lookupHopsSig:vector  ETV
vector 1440547  Network.dyn_peer[166]  lookupStabilitySig:vector  ETV
vector 1440548  Network.dyn_peer[166]  lookupTimeSig:vector  ETV
vector 1440282  Network.dyn_peer[78]  lookupHopsSig:vector  ETV
vector 1440283  Network.dyn_peer[78]  lookupStabilitySig:vector  ETV
vector 1440284  Network.dyn_peer[78]  lookupTimeSig:vector  ETV
vector 1440510  Network.dyn_peer[154]  lookupHopsSig:vector  ETV
vector 1440511  Network.dyn_peer[154]  lookupStabilitySig:vector  ETV
vector 1440512  Network.dyn_peer[154]  lookupTimeSig:vector  ETV
vector 1440543  Network.dyn_peer[165]  lookupHopsSig:vector  ETV
vector 1440544  Network.dyn_peer[165]  lookupStabilitySig:vector  ETV
vector 1440545  Network.dyn_peer[165]  lookupTimeSig:vector  ETV
vector 1440396  Network.dyn_peer[116]  lookupHopsSig:vector  ETV
vector 1440397  Network.dyn_peer[116]  lookupStabilitySig:vector  ETV
vector 1440398  Network.dyn_peer[116]  lookupTimeSig:vector  ETV
vector 1440399  Network.dyn_peer[117]  lookupHopsSig:vector  ETV
vector 1440400  Network.dyn_peer[117]  lookupStabilitySig:vector  ETV
vector 1440401  Network.dyn_peer[117]  lookupTimeSig:vector  ETV
vector 1440342  Network.dyn_peer[98]  lookupHopsSig:vector  ETV
vector 1440343  Network.dyn_peer[98]  lookupStabilitySig:vector  ETV
vector 1440344  Network.dyn_peer[98]  lookupTimeSig:vector  ETV
vector 1440372  Network.dyn_peer[108]  lookupHopsSig:vector  ETV
vector 1440373  Network.dyn_peer[108]  lookupStabilitySig:vector  ETV
vector 1440374  Network.dyn_peer[108]  lookupTimeSig:vector  ETV
vector 1440612  Network.dyn_peer[188]  lookupHopsSig:vector  ETV
vector 1440613  Network.dyn_peer[188]  lookupStabilitySig:vector  ETV
vector 1440614  Network.dyn_peer[188]  lookupTimeSig:vector  ETV
vector 1440405  Network.dyn_peer[119]  lookupHopsSig:vector  ETV
vector 1440406  Network.dyn_peer[119]  lookupStabilitySig:vector  ETV
vector 1440407  Network.dyn_peer[119]  lookupTimeSig:vector  ETV
vector 1440675  Network.dyn_peer[209]  lookupHopsSig:vector  ETV
vector 1440676  Network.dyn_peer[209]  lookupStabilitySig:vector  ETV
vector 1440677  Network.dyn_peer[209]  lookupTimeSig:vector  ETV
vector 1440588  Network.dyn_peer[180]  lookupHopsSig:vector  ETV
vector 1440589  Network.dyn_peer[180]  lookupStabilitySig:vector  ETV
vector 1440590  Network.dyn_peer[180]  lookupTimeSig:vector  ETV
vector 1440441  Network.dyn_peer[131]  lookupHopsSig:vector  ETV
vector 1440442  Network.dyn_peer[131]  lookupStabilitySig:vector  ETV
vector 1440443  Network.dyn_peer[131]  lookupTimeSig:vector  ETV
vector 1440324  Network.dyn_peer[92]  lookupHopsSig:vector  ETV
vector 1440325  Network.dyn_peer[92]  lookupStabilitySig:vector  ETV
vector 1440326  Network.dyn_peer[92]  lookupTimeSig:vector  ETV
vector 1440387  Network.dyn_peer[113]  lookupHopsSig:vector  ETV
vector 1440388  Network.dyn_peer[113]  lookupStabilitySig:vector  ETV
vector 1440389  Network.dyn_peer[113]  lookupTimeSig:vector  ETV
vector 1440630  Network.dyn_peer[194]  lookupHopsSig:vector  ETV
vector 1440631  Network.dyn_peer[194]  lookupStabilitySig:vector  ETV
vector 1440632  Network.dyn_peer[194]  lookupTimeSig:vector  ETV
vector 1440486  Network.dyn_peer[146]  lookupHopsSig:vector  ETV
vector 1440487  Network.dyn_peer[146]  lookupStabilitySig:vector  ETV
vector 1440488  Network.dyn_peer[146]  lookupTimeSig:vector  ETV
vector 1440339  Network.dyn_peer[97]  lookupHopsSig:vector  ETV
vector 1440340  Network.dyn_peer[97]  lookupStabilitySig:vector  ETV
vector 1440341  Network.dyn_peer[97]  lookupTimeSig:vector  ETV
vector 1440525  Network.dyn_peer[159]  lookupHopsSig:vector  ETV
vector 1440526  Network.dyn_peer[159]  lookupStabilitySig:vector  ETV
vector 1440527  Network.dyn_peer[159]  lookupTimeSig:vector  ETV
vector 1440618  Network.dyn_peer[190]  lookupHopsSig:vector  ETV
vector 1440619  Network.dyn_peer[190]  lookupStabilitySig:vector  ETV
vector 1440620  Network.dyn_peer[190]  lookupTimeSig:vector  ETV
vector 1440531  Network.dyn_peer[161]  lookupHopsSig:vector  ETV
vector 1440532  Network.dyn_peer[161]  lookupStabilitySig:vector  ETV
vector 1440533  Network.dyn_peer[161]  lookupTimeSig:vector  ETV
vector 1440270  Network.dyn_peer[74]  lookupHopsSig:vector  ETV
vector 1440271  Network.dyn_peer[74]  lookupStabilitySig:vector  ETV
vector 1440272  Network.dyn_peer[74]  lookupTimeSig:vector  ETV
vector 1440420  Network.dyn_peer[124]  lookupHopsSig:vector  ETV
vector 1440421  Network.dyn_peer[124]  lookupStabilitySig:vector  ETV
vector 1440422  Network.dyn_peer[124]  lookupTimeSig:vector  ETV
vector 1440186  Network.dyn_peer[46]  lookupHopsSig:vector  ETV
vector 1440187  Network.dyn_peer[46]  lookupStabilitySig:vector  ETV
vector 1440188  Network.dyn_peer[46]  lookupTimeSig:vector  ETV
vector 1440576  Network.dyn_peer[176]  lookupHopsSig:vector  ETV
vector 1440577  Network.dyn_peer[176]  lookupStabilitySig:vector  ETV
vector 1440578  Network.dyn_peer[176]  lookupTimeSig:vector  ETV
vector 1440729  Network.dyn_peer[227]  lookupHopsSig:vector  ETV
vector 1440730  Network.dyn_peer[227]  lookupStabilitySig:vector  ETV
vector 1440731  Network.dyn_peer[227]  lookupTimeSig:vector  ETV
vector 1440432  Network.dyn_peer[128]  lookupHopsSig:vector  ETV
vector 1440433  Network.dyn_peer[128]  lookupStabilitySig:vector  ETV
vector 1440434  Network.dyn_peer[128]  lookupTimeSig:vector  ETV
vector 1440468  Network.dyn_peer[140]  lookupHopsSig:vector  ETV
vector 1440469  Network.dyn_peer[140]  lookupStabilitySig:vector  ETV
vector 1440470  Network.dyn_peer[140]  lookupTimeSig:vector  ETV
vector 1440561  Network.dyn_peer[171]  lookupHopsSig:vector  ETV
vector 1440562  Network.dyn_peer[171]  lookupStabilitySig:vector  ETV
vector 1440563  Network.dyn_peer[171]  lookupTimeSig:vector  ETV
vector 1440390  Network.dyn_peer[114]  lookupHopsSig:vector  ETV
vector 1440391  Network.dyn_peer[114]  lookupStabilitySig:vector  ETV
vector 1440392  Network.dyn_peer[114]  lookupTimeSig:vector  ETV
vector 1440450  Network.dyn_peer[134]  lookupHopsSig:vector  ETV
vector 1440451  Network.dyn_peer[134]  lookupStabilitySig:vector  ETV
vector 1440452  Network.dyn_peer[134]  lookupTimeSig:vector  ETV
vector 1440600  Network.dyn_peer[184]  lookupHopsSig:vector  ETV
vector 1440601  Network.dyn_peer[184]  lookupStabilitySig:vector  ETV
vector 1440602  Network.dyn_peer[184]  lookupTimeSig:vector  ETV
vector 1440483  Network.dyn_peer[145]  lookupHopsSig:vector  ETV
vector 1440484  Network.dyn_peer[145]  lookupStabilitySig:vector  ETV
vector 1440485  Network.dyn_peer[145]  lookupTimeSig:vector  ETV
vector 1440573  Network.dyn_peer[175]  lookupHopsSig:vector  ETV
vector 1440574  Network.dyn_peer[175]  lookupStabilitySig:vector  ETV
vector 1440575  Network.dyn_peer[175]  lookupTimeSig:vector  ETV
vector 1440351  Network.dyn_peer[101]  lookupHopsSig:vector  ETV
vector 1440352  Network.dyn_peer[101]  lookupStabilitySig:vector  ETV
vector 1440353  Network.dyn_peer[101]  lookupTimeSig:vector  ETV
vector 1440651  Network.dyn_peer[201]  lookupHopsSig:vector  ETV
vector 1440652  Network.dyn_peer[201]  lookupStabilitySig:vector  ETV
vector 1440653  Network.dyn_peer[201]  lookupTimeSig:vector  ETV
vector 1440384  Network.dyn_peer[112]  lookupHopsSig:vector  ETV
vector 1440385  Network.dyn_peer[112]  lookupStabilitySig:vector  ETV
vector 1440386  Network.dyn_peer[112]  lookupTimeSig:vector  ETV
vector 1440444  Network.dyn_peer[132]  lookupHopsSig:vector  ETV
vector 1440445  Network.dyn_peer[132]  lookupStabilitySig:vector  ETV
vector 1440446  Network.dyn_peer[132]  lookupTimeSig:vector  ETV
vector 1440417  Network.dyn_peer[123]  lookupHopsSig:vector  ETV
vector 1440418  Network.dyn_peer[123]  lookupStabilitySig:vector  ETV
vector 1440419  Network.dyn_peer[123]  lookupTimeSig:vector  ETV
vector 1440597  Network.dyn_peer[183]  lookupHopsSig:vector  ETV
vector 1440598  Network.dyn_peer[183]  lookupStabilitySig:vector  ETV
vector 1440599  Network.dyn_peer[183]  lookupTimeSig:vector  ETV
vector 1440777  Network.dyn_peer[243]  lookupHopsSig:vector  ETV
vector 1440778  Network.dyn_peer[243]  lookupStabilitySig:vector  ETV
vector 1440779  Network.dyn_peer[243]  lookupTimeSig:vector  ETV