file 6035818 1369698973                                         
version 2
run Stability2-98-20130528-01:55:12-24168
attr configname Stability2
attr datetime 20130528-01:55:12
attr experiment Stability2
attr inifile omnetpp.ini
attr iterationvars $0=500
attr iterationvars2 "$0=500, $repetition=8"
attr measurement $0=500
attr network Network
attr processid 24168
attr repetition 8
attr replication #8
attr resultdir results
attr runnumber 98
attr seedset 98

vector 2970098  Network.churner  inGoingSizeSig:vector  ETV
vector 2940098  Network.dyn_peer[0]  lookupHopsSig:vector  ETV
vector 2940099  Network.dyn_peer[0]  lookupStabilitySig:vector  ETV
vector 2940100  Network.dyn_peer[0]  lookupTimeSig:vector  ETV
vector 2940134  Network.dyn_peer[12]  lookupHopsSig:vector  ETV
vector 2940135  Network.dyn_peer[12]  lookupStabilitySig:vector  ETV
vector 2940136  Network.dyn_peer[12]  lookupTimeSig:vector  ETV
vector 2940107  Network.dyn_peer[3]  lookupHopsSig:vector  ETV
vector 2940108  Network.dyn_peer[3]  lookupStabilitySig:vector  ETV
vector 2940109  Network.dyn_peer[3]  lookupTimeSig:vector  ETV
vector 2940110  Network.dyn_peer[4]  lookupHopsSig:vector  ETV
vector 2940111  Network.dyn_peer[4]  lookupStabilitySig:vector  ETV
vector 2940112  Network.dyn_peer[4]  lookupTimeSig:vector  ETV
vector 2940113  Network.dyn_peer[5]  lookupHopsSig:vector  ETV
vector 2940114  Network.dyn_peer[5]  lookupStabilitySig:vector  ETV
vector 2940115  Network.dyn_peer[5]  lookupTimeSig:vector  ETV
vector 2940119  Network.dyn_peer[7]  lookupHopsSig:vector  ETV
vector 2940120  Network.dyn_peer[7]  lookupStabilitySig:vector  ETV
vector 2940121  Network.dyn_peer[7]  lookupTimeSig:vector  ETV
vector 2940152  Network.dyn_peer[18]  lookupHopsSig:vector  ETV
vector 2940153  Network.dyn_peer[18]  lookupStabilitySig:vector  ETV
vector 2940154  Network.dyn_peer[18]  lookupTimeSig:vector  ETV
vector 2940128  Network.dyn_peer[10]  lookupHopsSig:vector  ETV
vector 2940129  Network.dyn_peer[10]  lookupStabilitySig:vector  ETV
vector 2940130  Network.dyn_peer[10]  lookupTimeSig:vector  ETV
vector 2940140  Network.dyn_peer[14]  lookupHopsSig:vector  ETV
vector 2940141  Network.dyn_peer[14]  lookupStabilitySig:vector  ETV
vector 2940142  Network.dyn_peer[14]  lookupTimeSig:vector  ETV
vector 2940143  Network.dyn_peer[15]  lookupHopsSig:vector  ETV
vector 2940144  Network.dyn_peer[15]  lookupStabilitySig:vector  ETV
vector 2940145  Network.dyn_peer[15]  lookupTimeSig:vector  ETV
vector 2940182  Network.dyn_peer[28]  lookupHopsSig:vector  ETV
vector 2940183  Network.dyn_peer[28]  lookupStabilitySig:vector  ETV
vector 2940184  Network.dyn_peer[28]  lookupTimeSig:vector  ETV
vector 2940125  Network.dyn_peer[9]  lookupHopsSig:vector  ETV
vector 2940126  Network.dyn_peer[9]  lookupStabilitySig:vector  ETV
vector 2940127  Network.dyn_peer[9]  lookupTimeSig:vector  ETV
vector 2940161  Network.dyn_peer[21]  lookupHopsSig:vector  ETV
vector 2940162  Network.dyn_peer[21]  lookupStabilitySig:vector  ETV
vector 2940163  Network.dyn_peer[21]  lookupTimeSig:vector  ETV
vector 2940104  Network.dyn_peer[2]  lookupHopsSig:vector  ETV
vector 2940105  Network.dyn_peer[2]  lookupStabilitySig:vector  ETV
vector 2940106  Network.dyn_peer[2]  lookupTimeSig:vector  ETV
vector 2940116  Network.dyn_peer[6]  lookupHopsSig:vector  ETV
vector 2940117  Network.dyn_peer[6]  lookupStabilitySig:vector  ETV
vector 2940118  Network.dyn_peer[6]  lookupTimeSig:vector  ETV
vector 2940179  Network.dyn_peer[27]  lookupHopsSig:vector  ETV
vector 2940180  Network.dyn_peer[27]  lookupStabilitySig:vector  ETV
vector 2940181  Network.dyn_peer[27]  lookupTimeSig:vector  ETV
vector 2940122  Network.dyn_peer[8]  lookupHopsSig:vector  ETV
vector 2940123  Network.dyn_peer[8]  lookupStabilitySig:vector  ETV
vector 2940124  Network.dyn_peer[8]  lookupTimeSig:vector  ETV
vector 2940188  Network.dyn_peer[30]  lookupHopsSig:vector  ETV
vector 2940189  Network.dyn_peer[30]  lookupStabilitySig:vector  ETV
vector 2940190  Network.dyn_peer[30]  lookupTimeSig:vector  ETV
vector 2940101  Network.dyn_peer[1]  lookupHopsSig:vector  ETV
vector 2940102  Network.dyn_peer[1]  lookupStabilitySig:vector  ETV
vector 2940103  Network.dyn_peer[1]  lookupTimeSig:vector  ETV
vector 2940194  Network.dyn_peer[32]  lookupHopsSig:vector  ETV
vector 2940195  Network.dyn_peer[32]  lookupStabilitySig:vector  ETV
vector 2940196  Network.dyn_peer[32]  lookupTimeSig:vector  ETV
vector 2940137  Network.dyn_peer[13]  lookupHopsSig:vector  ETV
vector 2940138  Network.dyn_peer[13]  lookupStabilitySig:vector  ETV
vector 2940139  Network.dyn_peer[13]  lookupTimeSig:vector  ETV
vector 2940146  Network.dyn_peer[16]  lookupHopsSig:vector  ETV
vector 2940147  Network.dyn_peer[16]  lookupStabilitySig:vector  ETV
vector 2940148  Network.dyn_peer[16]  lookupTimeSig:vector  ETV
vector 2940209  Network.dyn_peer[37]  lookupHopsSig:vector  ETV
vector 2940210  Network.dyn_peer[37]  lookupStabilitySig:vector  ETV
vector 2940211  Network.dyn_peer[37]  lookupTimeSig:vector  ETV
vector 2940212  Network.dyn_peer[38]  lookupHopsSig:vector  ETV
vector 2940213  Network.dyn_peer[38]  lookupStabilitySig:vector  ETV
vector 2940214  Network.dyn_peer[38]  lookupTimeSig:vector  ETV
vector 2940158  Network.dyn_peer[20]  lookupHopsSig:vector  ETV
vector 2940159  Network.dyn_peer[20]  lookupStabilitySig:vector  ETV
vector 2940160  Network.dyn_peer[20]  lookupTimeSig:vector  ETV
vector 2940227  Network.dyn_peer[43]  lookupHopsSig:vector  ETV
vector 2940228  Network.dyn_peer[43]  lookupStabilitySig:vector  ETV
vector 2940229  Network.dyn_peer[43]  lookupTimeSig:vector  ETV
vector 2940170  Network.dyn_peer[24]  lookupHopsSig:vector  ETV
vector 2940171  Network.dyn_peer[24]  lookupStabilitySig:vector  ETV
vector 2940172  Network.dyn_peer[24]  lookupTimeSig:vector  ETV
vector 2940173  Network.dyn_peer[25]  lookupHopsSig:vector  ETV
vector 2940174  Network.dyn_peer[25]  lookupStabilitySig:vector  ETV
vector 2940175  Network.dyn_peer[25]  lookupTimeSig:vector  ETV
vector 2940233  Network.dyn_peer[45]  lookupHopsSig:vector  ETV
vector 2940234  Network.dyn_peer[45]  lookupStabilitySig:vector  ETV
vector 2940235  Network.dyn_peer[45]  lookupTimeSig:vector  ETV
vector 2940176  Network.dyn_peer[26]  lookupHopsSig:vector  ETV
vector 2940177  Network.dyn_peer[26]  lookupStabilitySig:vector  ETV
vector 2940178  Network.dyn_peer[26]  lookupTimeSig:vector  ETV
vector 2940149  Network.dyn_peer[17]  lookupHopsSig:vector  ETV
vector 2940150  Network.dyn_peer[17]  lookupStabilitySig:vector  ETV
vector 2940151  Network.dyn_peer[17]  lookupTimeSig:vector  ETV
vector 2940155  Network.dyn_peer[19]  lookupHopsSig:vector  ETV
vector 2940156  Network.dyn_peer[19]  lookupStabilitySig:vector  ETV
vector 2940157  Network.dyn_peer[19]  lookupTimeSig:vector  ETV
vector 2940131  Network.dyn_peer[11]  lookupHopsSig:vector  ETV
vector 2940132  Network.dyn_peer[11]  lookupStabilitySig:vector  ETV
vector 2940133  Network.dyn_peer[11]  lookupTimeSig:vector  ETV
vector 2940284  Network.dyn_peer[62]  lookupHopsSig:vector  ETV
vector 2940285  Network.dyn_peer[62]  lookupStabilitySig:vector  ETV
vector 2940286  Network.dyn_peer[62]  lookupTimeSig:vector  ETV
vector 2940257  Network.dyn_peer[53]  lookupHopsSig:vector  ETV
vector 2940258  Network.dyn_peer[53]  lookupStabilitySig:vector  ETV
vector 2940259  Network.dyn_peer[53]  lookupTimeSig:vector  ETV
vector 2940248  Network.dyn_peer[50]  lookupHopsSig:vector  ETV
vector 2940249  Network.dyn_peer[50]  lookupStabilitySig:vector  ETV
vector 2940250  Network.dyn_peer[50]  lookupTimeSig:vector  ETV
vector 2940236  Network.dyn_peer[46]  lookupHopsSig:vector  ETV
vector 2940237  Network.dyn_peer[46]  lookupStabilitySig:vector  ETV
vector 2940238  Network.dyn_peer[46]  lookupTimeSig:vector  ETV
vector 2940299  Network.dyn_peer[67]  lookupHopsSig:vector  ETV
vector 2940300  Network.dyn_peer[67]  lookupStabilitySig:vector  ETV
vector 2940301  Network.dyn_peer[67]  lookupTimeSig:vector  ETV
vector 2940245  Network.dyn_peer[49]  lookupHopsSig:vector  ETV
vector 2940246  Network.dyn_peer[49]  lookupStabilitySig:vector  ETV
vector 2940247  Network.dyn_peer[49]  lookupTimeSig:vector  ETV
vector 2940191  Network.dyn_peer[31]  lookupHopsSig:vector  ETV
vector 2940192  Network.dyn_peer[31]  lookupStabilitySig:vector  ETV
vector 2940193  Network.dyn_peer[31]  lookupTimeSig:vector  ETV
vector 2940167  Network.dyn_peer[23]  lookupHopsSig:vector  ETV
vector 2940168  Network.dyn_peer[23]  lookupStabilitySig:vector  ETV
vector 2940169  Network.dyn_peer[23]  lookupTimeSig:vector  ETV
vector 2940200  Network.dyn_peer[34]  lookupHopsSig:vector  ETV
vector 2940201  Network.dyn_peer[34]  lookupStabilitySig:vector  ETV
vector 2940202  Network.dyn_peer[34]  lookupTimeSig:vector  ETV
vector 2940290  Network.dyn_peer[64]  lookupHopsSig:vector  ETV
vector 2940291  Network.dyn_peer[64]  lookupStabilitySig:vector  ETV
vector 2940292  Network.dyn_peer[64]  lookupTimeSig:vector  ETV
vector 2940308  Network.dyn_peer[70]  lookupHopsSig:vector  ETV
vector 2940309  Network.dyn_peer[70]  lookupStabilitySig:vector  ETV
vector 2940310  Network.dyn_peer[70]  lookupTimeSig:vector  ETV
vector 2940221  Network.dyn_peer[41]  lookupHopsSig:vector  ETV
vector 2940222  Network.dyn_peer[41]  lookupStabilitySig:vector  ETV
vector 2940223  Network.dyn_peer[41]  lookupTimeSig:vector  ETV
vector 2940164  Network.dyn_peer[22]  lookupHopsSig:vector  ETV
vector 2940165  Network.dyn_peer[22]  lookupStabilitySig:vector  ETV
vector 2940166  Network.dyn_peer[22]  lookupTimeSig:vector  ETV
vector 2940320  Network.dyn_peer[74]  lookupHopsSig:vector  ETV
vector 2940321  Network.dyn_peer[74]  lookupStabilitySig:vector  ETV
vector 2940322  Network.dyn_peer[74]  lookupTimeSig:vector  ETV
vector 2940263  Network.dyn_peer[55]  lookupHopsSig:vector  ETV
vector 2940264  Network.dyn_peer[55]  lookupStabilitySig:vector  ETV
vector 2940265  Network.dyn_peer[55]  lookupTimeSig:vector  ETV
vector 2940323  Network.dyn_peer[75]  lookupHopsSig:vector  ETV
vector 2940324  Network.dyn_peer[75]  lookupStabilitySig:vector  ETV
vector 2940325  Network.dyn_peer[75]  lookupTimeSig:vector  ETV
vector 2940239  Network.dyn_peer[47]  lookupHopsSig:vector  ETV
vector 2940240  Network.dyn_peer[47]  lookupStabilitySig:vector  ETV
vector 2940241  Network.dyn_peer[47]  lookupTimeSig:vector  ETV
vector 2940185  Network.dyn_peer[29]  lookupHopsSig:vector  ETV
vector 2940186  Network.dyn_peer[29]  lookupStabilitySig:vector  ETV
vector 2940187  Network.dyn_peer[29]  lookupTimeSig:vector  ETV
vector 2940224  Network.dyn_peer[42]  lookupHopsSig:vector  ETV
vector 2940225  Network.dyn_peer[42]  lookupStabilitySig:vector  ETV
vector 2940226  Network.dyn_peer[42]  lookupTimeSig:vector  ETV
vector 2940314  Network.dyn_peer[72]  lookupHopsSig:vector  ETV
vector 2940315  Network.dyn_peer[72]  lookupStabilitySig:vector  ETV
vector 2940316  Network.dyn_peer[72]  lookupTimeSig:vector  ETV
vector 2940350  Network.dyn_peer[84]  lookupHopsSig:vector  ETV
vector 2940351  Network.dyn_peer[84]  lookupStabilitySig:vector  ETV
vector 2940352  Network.dyn_peer[84]  lookupTimeSig:vector  ETV
vector 2940326  Network.dyn_peer[76]  lookupHopsSig:vector  ETV
vector 2940327  Network.dyn_peer[76]  lookupStabilitySig:vector  ETV
vector 2940328  Network.dyn_peer[76]  lookupTimeSig:vector  ETV
vector 2940386  Network.dyn_peer[96]  lookupHopsSig:vector  ETV
vector 2940387  Network.dyn_peer[96]  lookupStabilitySig:vector  ETV
vector 2940388  Network.dyn_peer[96]  lookupTimeSig:vector  ETV
vector 2940218  Network.dyn_peer[40]  lookupHopsSig:vector  ETV
vector 2940219  Network.dyn_peer[40]  lookupStabilitySig:vector  ETV
vector 2940220  Network.dyn_peer[40]  lookupTimeSig:vector  ETV
vector 2940341  Network.dyn_peer[81]  lookupHopsSig:vector  ETV
vector 2940342  Network.dyn_peer[81]  lookupStabilitySig:vector  ETV
vector 2940343  Network.dyn_peer[81]  lookupTimeSig:vector  ETV
vector 2940197  Network.dyn_peer[33]  lookupHopsSig:vector  ETV
vector 2940198  Network.dyn_peer[33]  lookupStabilitySig:vector  ETV
vector 2940199  Network.dyn_peer[33]  lookupTimeSig:vector  ETV
vector 2940203  Network.dyn_peer[35]  lookupHopsSig:vector  ETV
vector 2940204  Network.dyn_peer[35]  lookupStabilitySig:vector  ETV
vector 2940205  Network.dyn_peer[35]  lookupTimeSig:vector  ETV
vector 2940296  Network.dyn_peer[66]  lookupHopsSig:vector  ETV
vector 2940297  Network.dyn_peer[66]  lookupStabilitySig:vector  ETV
vector 2940298  Network.dyn_peer[66]  lookupTimeSig:vector  ETV
vector 2940422  Network.dyn_peer[108]  lookupHopsSig:vector  ETV
vector 2940423  Network.dyn_peer[108]  lookupStabilitySig:vector  ETV
vector 2940424  Network.dyn_peer[108]  lookupTimeSig:vector  ETV
vector 2940305  Network.dyn_peer[69]  lookupHopsSig:vector  ETV
vector 2940306  Network.dyn_peer[69]  lookupStabilitySig:vector  ETV
vector 2940307  Network.dyn_peer[69]  lookupTimeSig:vector  ETV
vector 2940398  Network.dyn_peer[100]  lookupHopsSig:vector  ETV
vector 2940399  Network.dyn_peer[100]  lookupStabilitySig:vector  ETV
vector 2940400  Network.dyn_peer[100]  lookupTimeSig:vector  ETV
vector 2940344  Network.dyn_peer[82]  lookupHopsSig:vector  ETV
vector 2940345  Network.dyn_peer[82]  lookupStabilitySig:vector  ETV
vector 2940346  Network.dyn_peer[82]  lookupTimeSig:vector  ETV
vector 2940260  Network.dyn_peer[54]  lookupHopsSig:vector  ETV
vector 2940261  Network.dyn_peer[54]  lookupStabilitySig:vector  ETV
vector 2940262  Network.dyn_peer[54]  lookupTimeSig:vector  ETV
vector 2940389  Network.dyn_peer[97]  lookupHopsSig:vector  ETV
vector 2940390  Network.dyn_peer[97]  lookupStabilitySig:vector  ETV
vector 2940391  Network.dyn_peer[97]  lookupTimeSig:vector  ETV
vector 2940395  Network.dyn_peer[99]  lookupHopsSig:vector  ETV
vector 2940396  Network.dyn_peer[99]  lookupStabilitySig:vector  ETV
vector 2940397  Network.dyn_peer[99]  lookupTimeSig:vector  ETV
vector 2940431  Network.dyn_peer[111]  lookupHopsSig:vector  ETV
vector 2940432  Network.dyn_peer[111]  lookupStabilitySig:vector  ETV
vector 2940433  Network.dyn_peer[111]  lookupTimeSig:vector  ETV
vector 2940377  Network.dyn_peer[93]  lookupHopsSig:vector  ETV
vector 2940378  Network.dyn_peer[93]  lookupStabilitySig:vector  ETV
vector 2940379  Network.dyn_peer[93]  lookupTimeSig:vector  ETV
vector 2940380  Network.dyn_peer[94]  lookupHopsSig:vector  ETV
vector 2940381  Network.dyn_peer[94]  lookupStabilitySig:vector  ETV
vector 2940382  Network.dyn_peer[94]  lookupTimeSig:vector  ETV
vector 2940359  Network.dyn_peer[87]  lookupHopsSig:vector  ETV
vector 2940360  Network.dyn_peer[87]  lookupStabilitySig:vector  ETV
vector 2940361  Network.dyn_peer[87]  lookupTimeSig:vector  ETV
vector 2940455  Network.dyn_peer[119]  lookupHopsSig:vector  ETV
vector 2940456  Network.dyn_peer[119]  lookupStabilitySig:vector  ETV
vector 2940457  Network.dyn_peer[119]  lookupTimeSig:vector  ETV
vector 2940254  Network.dyn_peer[52]  lookupHopsSig:vector  ETV
vector 2940255  Network.dyn_peer[52]  lookupStabilitySig:vector  ETV
vector 2940256  Network.dyn_peer[52]  lookupTimeSig:vector  ETV
vector 2940374  Network.dyn_peer[92]  lookupHopsSig:vector  ETV
vector 2940375  Network.dyn_peer[92]  lookupStabilitySig:vector  ETV
vector 2940376  Network.dyn_peer[92]  lookupTimeSig:vector  ETV
vector 2940347  Network.dyn_peer[83]  lookupHopsSig:vector  ETV
vector 2940348  Network.dyn_peer[83]  lookupStabilitySig:vector  ETV
vector 2940349  Network.dyn_peer[83]  lookupTimeSig:vector  ETV
vector 2940467  Network.dyn_peer[123]  lookupHopsSig:vector  ETV
vector 2940468  Network.dyn_peer[123]  lookupStabilitySig:vector  ETV
vector 2940469  Network.dyn_peer[123]  lookupTimeSig:vector  ETV
vector 2940230  Network.dyn_peer[44]  lookupHopsSig:vector  ETV
vector 2940231  Network.dyn_peer[44]  lookupStabilitySig:vector  ETV
vector 2940232  Network.dyn_peer[44]  lookupTimeSig:vector  ETV
vector 2940242  Network.dyn_peer[48]  lookupHopsSig:vector  ETV
vector 2940243  Network.dyn_peer[48]  lookupStabilitySig:vector  ETV
vector 2940244  Network.dyn_peer[48]  lookupTimeSig:vector  ETV
vector 2940272  Network.dyn_peer[58]  lookupHopsSig:vector  ETV
vector 2940273  Network.dyn_peer[58]  lookupStabilitySig:vector  ETV
vector 2940274  Network.dyn_peer[58]  lookupTimeSig:vector  ETV
vector 2940302  Network.dyn_peer[68]  lookupHopsSig:vector  ETV
vector 2940303  Network.dyn_peer[68]  lookupStabilitySig:vector  ETV
vector 2940304  Network.dyn_peer[68]  lookupTimeSig:vector  ETV
vector 2940362  Network.dyn_peer[88]  lookupHopsSig:vector  ETV
vector 2940363  Network.dyn_peer[88]  lookupStabilitySig:vector  ETV
vector 2940364  Network.dyn_peer[88]  lookupTimeSig:vector  ETV
vector 2940365  Network.dyn_peer[89]  lookupHopsSig:vector  ETV
vector 2940366  Network.dyn_peer[89]  lookupStabilitySig:vector  ETV
vector 2940367  Network.dyn_peer[89]  lookupTimeSig:vector  ETV
vector 2940485  Network.dyn_peer[129]  lookupHopsSig:vector  ETV
vector 2940486  Network.dyn_peer[129]  lookupStabilitySig:vector  ETV
vector 2940487  Network.dyn_peer[129]  lookupTimeSig:vector  ETV
vector 2940278  Network.dyn_peer[60]  lookupHopsSig:vector  ETV
vector 2940279  Network.dyn_peer[60]  lookupStabilitySig:vector  ETV
vector 2940280  Network.dyn_peer[60]  lookupTimeSig:vector  ETV
vector 2940428  Network.dyn_peer[110]  lookupHopsSig:vector  ETV
vector 2940429  Network.dyn_peer[110]  lookupStabilitySig:vector  ETV
vector 2940430  Network.dyn_peer[110]  lookupTimeSig:vector  ETV
vector 2940281  Network.dyn_peer[61]  lookupHopsSig:vector  ETV
vector 2940282  Network.dyn_peer[61]  lookupStabilitySig:vector  ETV
vector 2940283  Network.dyn_peer[61]  lookupTimeSig:vector  ETV
vector 2940551  Network.dyn_peer[151]  lookupHopsSig:vector  ETV
vector 2940552  Network.dyn_peer[151]  lookupStabilitySig:vector  ETV
vector 2940553  Network.dyn_peer[151]  lookupTimeSig:vector  ETV
vector 2940434  Network.dyn_peer[112]  lookupHopsSig:vector  ETV
vector 2940435  Network.dyn_peer[112]  lookupStabilitySig:vector  ETV
vector 2940436  Network.dyn_peer[112]  lookupTimeSig:vector  ETV
vector 2940206  Network.dyn_peer[36]  lookupHopsSig:vector  ETV
vector 2940207  Network.dyn_peer[36]  lookupStabilitySig:vector  ETV
vector 2940208  Network.dyn_peer[36]  lookupTimeSig:vector  ETV
vector 2940425  Network.dyn_peer[109]  lookupHopsSig:vector  ETV
vector 2940426  Network.dyn_peer[109]  lookupStabilitySig:vector  ETV
vector 2940427  Network.dyn_peer[109]  lookupTimeSig:vector  ETV
vector 2940458  Network.dyn_peer[120]  lookupHopsSig:vector  ETV
vector 2940459  Network.dyn_peer[120]  lookupStabilitySig:vector  ETV
vector 2940460  Network.dyn_peer[120]  lookupTimeSig:vector  ETV
vector 2940404  Network.dyn_peer[102]  lookupHopsSig:vector  ETV
vector 2940405  Network.dyn_peer[102]  lookupStabilitySig:vector  ETV
vector 2940406  Network.dyn_peer[102]  lookupTimeSig:vector  ETV
vector 2940317  Network.dyn_peer[73]  lookupHopsSig:vector  ETV
vector 2940318  Network.dyn_peer[73]  lookupStabilitySig:vector  ETV
vector 2940319  Network.dyn_peer[73]  lookupTimeSig:vector  ETV
vector 2940410  Network.dyn_peer[104]  lookupHopsSig:vector  ETV
vector 2940411  Network.dyn_peer[104]  lookupStabilitySig:vector  ETV
vector 2940412  Network.dyn_peer[104]  lookupTimeSig:vector  ETV
vector 2940443  Network.dyn_peer[115]  lookupHopsSig:vector  ETV
vector 2940444  Network.dyn_peer[115]  lookupStabilitySig:vector  ETV
vector 2940445  Network.dyn_peer[115]  lookupTimeSig:vector  ETV
vector 2940392  Network.dyn_peer[98]  lookupHopsSig:vector  ETV
vector 2940393  Network.dyn_peer[98]  lookupStabilitySig:vector  ETV
vector 2940394  Network.dyn_peer[98]  lookupTimeSig:vector  ETV
vector 2940452  Network.dyn_peer[118]  lookupHopsSig:vector  ETV
vector 2940453  Network.dyn_peer[118]  lookupStabilitySig:vector  ETV
vector 2940454  Network.dyn_peer[118]  lookupTimeSig:vector  ETV
vector 2940275  Network.dyn_peer[59]  lookupHopsSig:vector  ETV
vector 2940276  Network.dyn_peer[59]  lookupStabilitySig:vector  ETV
vector 2940277  Network.dyn_peer[59]  lookupTimeSig:vector  ETV
vector 2940548  Network.dyn_peer[150]  lookupHopsSig:vector  ETV
vector 2940549  Network.dyn_peer[150]  lookupStabilitySig:vector  ETV
vector 2940550  Network.dyn_peer[150]  lookupTimeSig:vector  ETV
vector 2940437  Network.dyn_peer[113]  lookupHopsSig:vector  ETV
vector 2940438  Network.dyn_peer[113]  lookupStabilitySig:vector  ETV
vector 2940439  Network.dyn_peer[113]  lookupTimeSig:vector  ETV
vector 2940557  Network.dyn_peer[153]  lookupHopsSig:vector  ETV
vector 2940558  Network.dyn_peer[153]  lookupStabilitySig:vector  ETV
vector 2940559  Network.dyn_peer[153]  lookupTimeSig:vector  ETV
vector 2940536  Network.dyn_peer[146]  lookupHopsSig:vector  ETV
vector 2940537  Network.dyn_peer[146]  lookupStabilitySig:vector  ETV
vector 2940538  Network.dyn_peer[146]  lookupTimeSig:vector  ETV
vector 2940269  Network.dyn_peer[57]  lookupHopsSig:vector  ETV
vector 2940270  Network.dyn_peer[57]  lookupStabilitySig:vector  ETV
vector 2940271  Network.dyn_peer[57]  lookupTimeSig:vector  ETV
vector 2940479  Network.dyn_peer[127]  lookupHopsSig:vector  ETV
vector 2940480  Network.dyn_peer[127]  lookupStabilitySig:vector  ETV
vector 2940481  Network.dyn_peer[127]  lookupTimeSig:vector  ETV
vector 2940332  Network.dyn_peer[78]  lookupHopsSig:vector  ETV
vector 2940333  Network.dyn_peer[78]  lookupStabilitySig:vector  ETV
vector 2940334  Network.dyn_peer[78]  lookupTimeSig:vector  ETV
vector 2940512  Network.dyn_peer[138]  lookupHopsSig:vector  ETV
vector 2940513  Network.dyn_peer[138]  lookupStabilitySig:vector  ETV
vector 2940514  Network.dyn_peer[138]  lookupTimeSig:vector  ETV
vector 2940464  Network.dyn_peer[122]  lookupHopsSig:vector  ETV
vector 2940465  Network.dyn_peer[122]  lookupStabilitySig:vector  ETV
vector 2940466  Network.dyn_peer[122]  lookupTimeSig:vector  ETV
vector 2940554  Network.dyn_peer[152]  lookupHopsSig:vector  ETV
vector 2940555  Network.dyn_peer[152]  lookupStabilitySig:vector  ETV
vector 2940556  Network.dyn_peer[152]  lookupTimeSig:vector  ETV
vector 2940440  Network.dyn_peer[114]  lookupHopsSig:vector  ETV
vector 2940441  Network.dyn_peer[114]  lookupStabilitySig:vector  ETV
vector 2940442  Network.dyn_peer[114]  lookupTimeSig:vector  ETV
vector 2940473  Network.dyn_peer[125]  lookupHopsSig:vector  ETV
vector 2940474  Network.dyn_peer[125]  lookupStabilitySig:vector  ETV
vector 2940475  Network.dyn_peer[125]  lookupTimeSig:vector  ETV
vector 2940446  Network.dyn_peer[116]  lookupHopsSig:vector  ETV
vector 2940447  Network.dyn_peer[116]  lookupStabilitySig:vector  ETV
vector 2940448  Network.dyn_peer[116]  lookupTimeSig:vector  ETV
vector 2940596  Network.dyn_peer[166]  lookupHopsSig:vector  ETV
vector 2940597  Network.dyn_peer[166]  lookupStabilitySig:vector  ETV
vector 2940598  Network.dyn_peer[166]  lookupTimeSig:vector  ETV
vector 2940338  Network.dyn_peer[80]  lookupHopsSig:vector  ETV
vector 2940339  Network.dyn_peer[80]  lookupStabilitySig:vector  ETV
vector 2940340  Network.dyn_peer[80]  lookupTimeSig:vector  ETV
vector 2940401  Network.dyn_peer[101]  lookupHopsSig:vector  ETV
vector 2940402  Network.dyn_peer[101]  lookupStabilitySig:vector  ETV
vector 2940403  Network.dyn_peer[101]  lookupTimeSig:vector  ETV
vector 2940470  Network.dyn_peer[124]  lookupHopsSig:vector  ETV
vector 2940471  Network.dyn_peer[124]  lookupStabilitySig:vector  ETV
vector 2940472  Network.dyn_peer[124]  lookupTimeSig:vector  ETV
vector 2940383  Network.dyn_peer[95]  lookupHopsSig:vector  ETV
vector 2940384  Network.dyn_peer[95]  lookupStabilitySig:vector  ETV
vector 2940385  Network.dyn_peer[95]  lookupTimeSig:vector  ETV
vector 2940356  Network.dyn_peer[86]  lookupHopsSig:vector  ETV
vector 2940357  Network.dyn_peer[86]  lookupStabilitySig:vector  ETV
vector 2940358  Network.dyn_peer[86]  lookupTimeSig:vector  ETV
vector 2940329  Network.dyn_peer[77]  lookupHopsSig:vector  ETV
vector 2940330  Network.dyn_peer[77]  lookupStabilitySig:vector  ETV
vector 2940331  Network.dyn_peer[77]  lookupTimeSig:vector  ETV
vector 2940335  Network.dyn_peer[79]  lookupHopsSig:vector  ETV
vector 2940336  Network.dyn_peer[79]  lookupStabilitySig:vector  ETV
vector 2940337  Network.dyn_peer[79]  lookupTimeSig:vector  ETV
vector 2940644  Network.dyn_peer[182]  lookupHopsSig:vector  ETV
vector 2940645  Network.dyn_peer[182]  lookupStabilitySig:vector  ETV
vector 2940646  Network.dyn_peer[182]  lookupTimeSig:vector  ETV
vector 2940518  Network.dyn_peer[140]  lookupHopsSig:vector  ETV
vector 2940519  Network.dyn_peer[140]  lookupStabilitySig:vector  ETV
vector 2940520  Network.dyn_peer[140]  lookupTimeSig:vector  ETV
vector 2940578  Network.dyn_peer[160]  lookupHopsSig:vector  ETV
vector 2940579  Network.dyn_peer[160]  lookupStabilitySig:vector  ETV
vector 2940580  Network.dyn_peer[160]  lookupTimeSig:vector  ETV
vector 2940251  Network.dyn_peer[51]  lookupHopsSig:vector  ETV
vector 2940252  Network.dyn_peer[51]  lookupStabilitySig:vector  ETV
vector 2940253  Network.dyn_peer[51]  lookupTimeSig:vector  ETV
vector 2940371  Network.dyn_peer[91]  lookupHopsSig:vector  ETV
vector 2940372  Network.dyn_peer[91]  lookupStabilitySig:vector  ETV
vector 2940373  Network.dyn_peer[91]  lookupTimeSig:vector  ETV
vector 2940491  Network.dyn_peer[131]  lookupHopsSig:vector  ETV
vector 2940492  Network.dyn_peer[131]  lookupStabilitySig:vector  ETV
vector 2940493  Network.dyn_peer[131]  lookupTimeSig:vector  ETV
vector 2940287  Network.dyn_peer[63]  lookupHopsSig:vector  ETV
vector 2940288  Network.dyn_peer[63]  lookupStabilitySig:vector  ETV
vector 2940289  Network.dyn_peer[63]  lookupTimeSig:vector  ETV
vector 2940560  Network.dyn_peer[154]  lookupHopsSig:vector  ETV
vector 2940561  Network.dyn_peer[154]  lookupStabilitySig:vector  ETV
vector 2940562  Network.dyn_peer[154]  lookupTimeSig:vector  ETV
vector 2940266  Network.dyn_peer[56]  lookupHopsSig:vector  ETV
vector 2940267  Network.dyn_peer[56]  lookupStabilitySig:vector  ETV
vector 2940268  Network.dyn_peer[56]  lookupTimeSig:vector  ETV
vector 2940659  Network.dyn_peer[187]  lookupHopsSig:vector  ETV
vector 2940660  Network.dyn_peer[187]  lookupStabilitySig:vector  ETV
vector 2940661  Network.dyn_peer[187]  lookupTimeSig:vector  ETV
vector 2940215  Network.dyn_peer[39]  lookupHopsSig:vector  ETV
vector 2940216  Network.dyn_peer[39]  lookupStabilitySig:vector  ETV
vector 2940217  Network.dyn_peer[39]  lookupTimeSig:vector  ETV
vector 2940575  Network.dyn_peer[159]  lookupHopsSig:vector  ETV
vector 2940576  Network.dyn_peer[159]  lookupStabilitySig:vector  ETV
vector 2940577  Network.dyn_peer[159]  lookupTimeSig:vector  ETV
vector 2940677  Network.dyn_peer[193]  lookupHopsSig:vector  ETV
vector 2940678  Network.dyn_peer[193]  lookupStabilitySig:vector  ETV
vector 2940679  Network.dyn_peer[193]  lookupTimeSig:vector  ETV
vector 2940293  Network.dyn_peer[65]  lookupHopsSig:vector  ETV
vector 2940294  Network.dyn_peer[65]  lookupStabilitySig:vector  ETV
vector 2940295  Network.dyn_peer[65]  lookupTimeSig:vector  ETV
vector 2940593  Network.dyn_peer[165]  lookupHopsSig:vector  ETV
vector 2940594  Network.dyn_peer[165]  lookupStabilitySig:vector  ETV
vector 2940595  Network.dyn_peer[165]  lookupTimeSig:vector  ETV
vector 2940653  Network.dyn_peer[185]  lookupHopsSig:vector  ETV
vector 2940654  Network.dyn_peer[185]  lookupStabilitySig:vector  ETV
vector 2940655  Network.dyn_peer[185]  lookupTimeSig:vector  ETV
vector 2940476  Network.dyn_peer[126]  lookupHopsSig:vector  ETV
vector 2940477  Network.dyn_peer[126]  lookupStabilitySig:vector  ETV
vector 2940478  Network.dyn_peer[126]  lookupTimeSig:vector  ETV
vector 2940629  Network.dyn_peer[177]  lookupHopsSig:vector  ETV
vector 2940630  Network.dyn_peer[177]  lookupStabilitySig:vector  ETV
vector 2940631  Network.dyn_peer[177]  lookupTimeSig:vector  ETV
vector 2940572  Network.dyn_peer[158]  lookupHopsSig:vector  ETV
vector 2940573  Network.dyn_peer[158]  lookupStabilitySig:vector  ETV
vector 2940574  Network.dyn_peer[158]  lookupTimeSig:vector  ETV
vector 2940722  Network.dyn_peer[208]  lookupHopsSig:vector  ETV
vector 2940723  Network.dyn_peer[208]  lookupStabilitySig:vector  ETV
vector 2940724  Network.dyn_peer[208]  lookupTimeSig:vector  ETV
vector 2940605  Network.dyn_peer[169]  lookupHopsSig:vector  ETV
vector 2940606  Network.dyn_peer[169]  lookupStabilitySig:vector  ETV
vector 2940607  Network.dyn_peer[169]  lookupTimeSig:vector  ETV
vector 2940701  Network.dyn_peer[201]  lookupHopsSig:vector  ETV
vector 2940702  Network.dyn_peer[201]  lookupStabilitySig:vector  ETV
vector 2940703  Network.dyn_peer[201]  lookupTimeSig:vector  ETV
vector 2940497  Network.dyn_peer[133]  lookupHopsSig:vector  ETV
vector 2940498  Network.dyn_peer[133]  lookupStabilitySig:vector  ETV
vector 2940499  Network.dyn_peer[133]  lookupTimeSig:vector  ETV
vector 2940500  Network.dyn_peer[134]  lookupHopsSig:vector  ETV
vector 2940501  Network.dyn_peer[134]  lookupStabilitySig:vector  ETV
vector 2940502  Network.dyn_peer[134]  lookupTimeSig:vector  ETV
vector 2940482  Network.dyn_peer[128]  lookupHopsSig:vector  ETV
vector 2940483  Network.dyn_peer[128]  lookupStabilitySig:vector  ETV
vector 2940484  Network.dyn_peer[128]  lookupTimeSig:vector  ETV
vector 2940368  Network.dyn_peer[90]  lookupHopsSig:vector  ETV
vector 2940369  Network.dyn_peer[90]  lookupStabilitySig:vector  ETV
vector 2940370  Network.dyn_peer[90]  lookupTimeSig:vector  ETV
vector 2940638  Network.dyn_peer[180]  lookupHopsSig:vector  ETV
vector 2940639  Network.dyn_peer[180]  lookupStabilitySig:vector  ETV
vector 2940640  Network.dyn_peer[180]  lookupTimeSig:vector  ETV
vector 2940581  Network.dyn_peer[161]  lookupHopsSig:vector  ETV
vector 2940582  Network.dyn_peer[161]  lookupStabilitySig:vector  ETV
vector 2940583  Network.dyn_peer[161]  lookupTimeSig:vector  ETV
vector 2940494  Network.dyn_peer[132]  lookupHopsSig:vector  ETV
vector 2940495  Network.dyn_peer[132]  lookupStabilitySig:vector  ETV
vector 2940496  Network.dyn_peer[132]  lookupTimeSig:vector  ETV