file 70741 1369933126                                           
version 2
run Stability2-4-20130528-01:22:00-24168
attr configname Stability2
attr datetime 20130528-01:22:00
attr experiment Stability2
attr inifile omnetpp.ini
attr iterationvars $0=10
attr iterationvars2 "$0=10, $repetition=4"
attr measurement $0=10
attr network Network
attr processid 24168
attr repetition 4
attr replication #4
attr resultdir results
attr runnumber 4
attr seedset 4
vector 150004  Network.churner  inGoingSizeSig:vector  ETV
150004	68768 1973 9 1003 20 21 101 0 98 4938 326118
vector 120004  Network.dyn_peer[0]  lookupHopsSig:vector  ETV
120004	19818 128 16 4224 20.01 23.930817311241 5 0 18 35 433
vector 120005  Network.dyn_peer[0]  lookupStabilitySig:vector  ETV
120005	19946 187 16 4224 20.01 23.930817311241 5 0.14285713434219 1 3.2805969789624 2.6905531159539
vector 120006  Network.dyn_peer[0]  lookupTimeSig:vector  ETV
120006	20133 135 16 4224 20.01 23.930817311241 5 0 1.9 3.9 5.07
vector 120007  Network.dyn_peer[1]  lookupHopsSig:vector  ETV
120007	20268 69 53 3062 20.12 22.629180806505 3 1 13 22 234
vector 120008  Network.dyn_peer[1]  lookupStabilitySig:vector  ETV
120008	20337 114 53 3062 20.12 22.629180806505 3 -0.33333337306976 0.79999999701977 1.0473117977381 1.0882599506771
vector 120009  Network.dyn_peer[1]  lookupTimeSig:vector  ETV
120009	20451 74 53 3062 20.12 22.629180806505 3 0.1 1.4 2.4 2.78
vector 120019  Network.dyn_peer[5]  lookupHopsSig:vector  ETV
120019	22105 97 73 1917 20.16 21.670306555309 4 1 6 13 63
vector 120020  Network.dyn_peer[5]  lookupStabilitySig:vector  ETV
120020	22202 142 73 1917 20.16 21.670306555309 4 0 0.92307692021132 2.1230768933892 1.652070976785
vector 120021  Network.dyn_peer[5]  lookupTimeSig:vector  ETV
120021	22344 105 73 1917 20.16 21.670306555309 4 0.1 0.7 1.6 0.9
vector 120022  Network.dyn_peer[6]  lookupHopsSig:vector  ETV
120022	22449 156 81 4262 20.17 23.989525178432 6 1 12 32 260
vector 120023  Network.dyn_peer[6]  lookupStabilitySig:vector  ETV
120023	22605 244 81 4262 20.17 23.989525178432 6 0.19999998807907 0.87323944270611 3.8589536845684 2.7692817688372
vector 120024  Network.dyn_peer[6]  lookupTimeSig:vector  ETV
120024	22849 165 81 4262 20.17 23.989525178432 6 0.1 1.3 3.7 3.27
vector 120055  Network.dyn_peer[17]  lookupHopsSig:vector  ETV
120055	27620 157 91 3803 20.18 23.36759906146 6 0 10 24 158
vector 120056  Network.dyn_peer[17]  lookupStabilitySig:vector  ETV
120056	27777 231 91 3803 20.18 23.36759906146 6 0.19999998807907 1 4.1554898321629 3.3803450114827
vector 120057  Network.dyn_peer[17]  lookupTimeSig:vector  ETV
120057	28008 166 91 3803 20.18 23.36759906146 6 0 1.1 2.9 2.11
vector 120037  Network.dyn_peer[11]  lookupHopsSig:vector  ETV
120037	24848 129 111 4229 20.22 23.938987303592 5 1 9 34 276
vector 120038  Network.dyn_peer[11]  lookupStabilitySig:vector  ETV
120038	24977 192 111 4229 20.22 23.938987303592 5 -0.125 0.8823529407382 2.9621148332953 2.4551467508062
vector 120039  Network.dyn_peer[11]  lookupTimeSig:vector  ETV
120039	25169 135 111 4229 20.22 23.938987303592 5 0.1 1 3.8 3.46
vector 120010  Network.dyn_peer[2]  lookupHopsSig:vector  ETV
120010	20525 130 120 4456 20.23 24.386896791796 5 1 17 34 394
vector 120011  Network.dyn_peer[2]  lookupStabilitySig:vector  ETV
120011	20655 188 120 4456 20.23 24.386896791796 5 0 0.9833333324641 3.3535378035158 2.8967903362259
vector 120012  Network.dyn_peer[2]  lookupTimeSig:vector  ETV
120012	20843 139 120 4456 20.23 24.386896791796 5 0.2 1.8 3.8 4.62
vector 120016  Network.dyn_peer[4]  lookupHopsSig:vector  ETV
120016	21434 189 134 4798 20.25 25.466821420885 7 1 23 45 635
vector 120017  Network.dyn_peer[4]  lookupStabilitySig:vector  ETV
120017	21623 280 134 4798 20.25 25.466821420885 7 0.25 0.9886363632977 4.9761455766857 3.9543981986511
vector 120018  Network.dyn_peer[4]  lookupTimeSig:vector  ETV
120018	21903 202 134 4798 20.25 25.466821420885 7 0.2 2.4 5.1 7.27
vector 120025  Network.dyn_peer[7]  lookupHopsSig:vector  ETV
120025	23014 245 153 4712 20.28 25.13022435348 9 1 14 41 313
vector 120026  Network.dyn_peer[7]  lookupStabilitySig:vector  ETV
120026	23259 379 153 4712 20.28 25.13022435348 9 0.39999997615814 0.97674418613315 6.8685675337911 5.5571306509574
vector 120027  Network.dyn_peer[7]  lookupTimeSig:vector  ETV
120027	23638 262 153 4712 20.28 25.13022435348 9 0.2 1.5 4.9 3.99
vector 120088  Network.dyn_peer[28]  lookupHopsSig:vector  ETV
120088	32134 99 164 3352 20.29 22.896649834142 4 0 9 23 181
vector 120089  Network.dyn_peer[28]  lookupStabilitySig:vector  ETV
120089	32233 128 164 3352 20.29 22.896649834142 4 0 1 2.4135338366032 2.0356718921845
vector 120090  Network.dyn_peer[28]  lookupTimeSig:vector  ETV
120090	32361 103 164 3352 20.29 22.896649834142 4 0 1 2.6 2.3
vector 120046  Network.dyn_peer[14]  lookupHopsSig:vector  ETV
120046	26248 70 201 2979 20.35 22.559291746353 3 2 14 22 236
vector 120047  Network.dyn_peer[14]  lookupStabilitySig:vector  ETV
120047	26318 101 201 2979 20.35 22.559291746353 3 0.14285713434219 0.59999999403954 1.2428571283817 0.63040815367991
vector 120048  Network.dyn_peer[14]  lookupTimeSig:vector  ETV
120048	26419 75 201 2979 20.35 22.559291746353 3 0.2 1.5 2.4 2.78
vector 120028  Network.dyn_peer[8]  lookupHopsSig:vector  ETV
120028	23900 40 229 3025 20.39 22.59 2 3 21 24 450
vector 120029  Network.dyn_peer[8]  lookupStabilitySig:vector  ETV
120029	23940 69 229 3025 20.39 22.59 2 0.30000001192093 0.39999997615814 0.69999998807907 0.24999998807907
vector 120030  Network.dyn_peer[8]  lookupTimeSig:vector  ETV
120030	24009 43 229 3025 20.39 22.59 2 0.3 2.2 2.5 4.93
vector 120031  Network.dyn_peer[9]  lookupHopsSig:vector  ETV
120031	24052 126 239 3374 20.4 22.91332105069 5 1 7 24 144
vector 120032  Network.dyn_peer[9]  lookupStabilitySig:vector  ETV
120032	24178 190 239 3374 20.4 22.91332105069 5 0.125 0.97499999962747 2.9411764349788 2.1755579231577
vector 120033  Network.dyn_peer[9]  lookupTimeSig:vector  ETV
120033	24368 136 239 3374 20.4 22.91332105069 5 0.2 0.8 2.8 1.9
vector 120067  Network.dyn_peer[21]  lookupHopsSig:vector  ETV
120067	29455 69 260 2828 20.42 22.42504945713 3 2 13 20 198
vector 120068  Network.dyn_peer[21]  lookupStabilitySig:vector  ETV
120068	29524 114 260 2828 20.42 22.42504945713 3 0.071428596973419 0.79166667163372 1.4630952626467 0.99183815628865
vector 120069  Network.dyn_peer[21]  lookupTimeSig:vector  ETV
120069	29638 74 260 2828 20.42 22.42504945713 3 0.2 1.4 2.2 2.36
vector 120040  Network.dyn_peer[12]  lookupHopsSig:vector  ETV
120040	25304 130 273 3945 20.43 23.544794485443 5 3 11 30 236
vector 120041  Network.dyn_peer[12]  lookupStabilitySig:vector  ETV
120041	25434 204 273 3945 20.43 23.544794485443 5 0.15384614467621 0.85714285075665 3.0806859433651 2.3123110639419
vector 120042  Network.dyn_peer[12]  lookupTimeSig:vector  ETV
120042	25638 137 273 3945 20.43 23.544794485443 5 0.3 1.2 3.4 2.94
vector 120043  Network.dyn_peer[13]  lookupHopsSig:vector  ETV
120043	25775 130 284 4398 20.44 24.251307750016 5 2 25 37 667
vector 120044  Network.dyn_peer[13]  lookupStabilitySig:vector  ETV
120044	25905 204 284 4398 20.44 24.251307750016 5 0.39999997615814 0.96551724150777 3.6636733263731 3.0488383528549
vector 120045  Network.dyn_peer[13]  lookupTimeSig:vector  ETV
120045	26109 139 284 4398 20.44 24.251307750016 5 0.3 2.6 4.1 7.39
vector 120073  Network.dyn_peer[23]  lookupHopsSig:vector  ETV
120073	29971 70 288 4158 20.44 23.84898772313 3 2 22 34 588
vector 120074  Network.dyn_peer[23]  lookupStabilitySig:vector  ETV
120074	30041 113 288 4158 20.44 23.84898772313 3 0.35294115543365 0.83870968222618 1.7916508316994 1.1880013831062
vector 120075  Network.dyn_peer[23]  lookupTimeSig:vector  ETV
120075	30154 74 288 4158 20.44 23.84898772313 3 0.2 2.3 3.6 6.54
vector 120079  Network.dyn_peer[25]  lookupHopsSig:vector  ETV
120079	30686 100 308 3723 20.46 23.270436573258 4 2 11 27 225
vector 120080  Network.dyn_peer[25]  lookupStabilitySig:vector  ETV
120080	30786 159 308 3723 20.46 23.270436573258 4 0.19999998807907 0.86956521868706 2.2902548611164 1.541399312046
vector 120081  Network.dyn_peer[25]  lookupTimeSig:vector  ETV
120081	30945 107 308 3723 20.46 23.270436573258 4 0.2 1.2 3 2.78
vector 120112  Network.dyn_peer[36]  lookupHopsSig:vector  ETV
120112	35922 129 319 3009 20.47 22.577265357808 5 1 7 18 92
vector 120113  Network.dyn_peer[36]  lookupStabilitySig:vector  ETV
120113	36051 204 319 3009 20.47 22.577265357808 5 0.22222220897675 0.96551724150777 3.5197087414563 2.8022957822955
vector 120114  Network.dyn_peer[36]  lookupTimeSig:vector  ETV
120114	36255 139 319 3009 20.47 22.577265357808 5 0.1 0.8 2.2 1.3
vector 120064  Network.dyn_peer[20]  lookupHopsSig:vector  ETV
120064	29197 69 352 1707 20.51 21.515823888976 3 3 4 11 41
vector 120065  Network.dyn_peer[20]  lookupStabilitySig:vector  ETV
120065	29266 114 352 1707 20.51 21.515823888976 3 0.33333331346512 0.63636362552643 1.3696969151497 0.67606974268529
vector 120066  Network.dyn_peer[20]  lookupTimeSig:vector  ETV
120066	29380 75 352 1707 20.51 21.515823888976 3 0.3 0.5 1.3 0.59
vector 120070  Network.dyn_peer[22]  lookupHopsSig:vector  ETV
120070	29712 70 375 3770 20.53 23.334224909655 3 3 22 29 509
vector 120071  Network.dyn_peer[22]  lookupStabilitySig:vector  ETV
120071	29782 114 375 3770 20.53 23.334224909655 3 0.38888889551163 0.91489361971617 1.7037824913859 1.1482648893761
vector 120072  Network.dyn_peer[22]  lookupTimeSig:vector  ETV
120072	29896 75 375 3770 20.53 23.334224909655 3 0.3 2.3 3.1 5.63
vector 120013  Network.dyn_peer[3]  lookupHopsSig:vector  ETV
120013	20982 128 387 3702 20.54 23.24681146096 5 1 10 28 206
vector 120014  Network.dyn_peer[3]  lookupStabilitySig:vector  ETV
120014	21110 187 387 3702 20.54 23.24681146096 5 0 0.82222221791744 2.7737373411655 2.0965819474708
vector 120015  Network.dyn_peer[3]  lookupTimeSig:vector  ETV
120015	21297 137 387 3702 20.54 23.24681146096 5 0.2 1.1 3.2 2.56
vector 120049  Network.dyn_peer[15]  lookupHopsSig:vector  ETV
120049	26494 159 411 3977 20.56 23.585460322045 6 1 11 29 205
vector 120050  Network.dyn_peer[15]  lookupStabilitySig:vector  ETV
120050	26653 247 411 3977 20.56 23.585460322045 6 0.19999998807907 0.9473684206605 4.024853669107 3.1260613132409
vector 120051  Network.dyn_peer[15]  lookupTimeSig:vector  ETV
120051	26900 170 411 3977 20.56 23.585460322045 6 0.2 1.2 3.4 2.6
vector 120082  Network.dyn_peer[26]  lookupHopsSig:vector  ETV
120082	31052 220 423 4810 20.57 25.496340632204 8 3 11 45 315
vector 120083  Network.dyn_peer[26]  lookupStabilitySig:vector  ETV
120083	31272 338 423 4810 20.57 25.496340632204 8 0.39999997615814 0.9545454531908 5.8827702477574 4.7683945029204
vector 120084  Network.dyn_peer[26]  lookupTimeSig:vector  ETV
120084	31610 235 423 4810 20.57 25.496340632204 8 0.3 1.2 5.2 4.06
vector 120118  Network.dyn_peer[38]  lookupHopsSig:vector  ETV
120118	36972 189 443 4858 20.59 25.706312352758 7 2 10 47 371
vector 120119  Network.dyn_peer[38]  lookupStabilitySig:vector  ETV
120119	37161 256 443 4858 20.59 25.706312352758 7 0.5 0.91666666418314 5.1022893637419 3.9332107852719
vector 120120  Network.dyn_peer[38]  lookupTimeSig:vector  ETV
120120	37417 200 443 4858 20.59 25.706312352758 7 0.2 1.1 5.3 4.67
vector 120061  Network.dyn_peer[19]  lookupHopsSig:vector  ETV
120061	28628 157 455 4485 20.6 24.442912279086 6 1 21 37 541
vector 120062  Network.dyn_peer[19]  lookupStabilitySig:vector  ETV
120062	28785 246 455 4485 20.6 24.442912279086 6 0.19999998807907 0.98749999981374 4.2357455892488 3.41122655419
vector 120063  Network.dyn_peer[19]  lookupTimeSig:vector  ETV
120063	29031 166 455 4485 20.6 24.442912279086 6 0.2 2.2 4.2 6.12
vector 120034  Network.dyn_peer[10]  lookupHopsSig:vector  ETV
120034	24504 97 468 2096 20.61 21.82236559254 4 2 5 14 54
vector 120035  Network.dyn_peer[10]  lookupStabilitySig:vector  ETV
120035	24601 142 468 2096 20.61 21.82236559254 4 0 0.85714285075665 2.012986972928 1.4472929221077
vector 120036  Network.dyn_peer[10]  lookupTimeSig:vector  ETV
120036	24743 105 468 2096 20.61 21.82236559254 4 0.3 0.5 1.7 0.75
vector 120154  Network.dyn_peer[50]  lookupHopsSig:vector  ETV
120154	43416 100 472 2946 20.61 22.530901920989 4 1 11 17 135
vector 120155  Network.dyn_peer[50]  lookupStabilitySig:vector  ETV
120155	43516 159 472 2946 20.61 22.530901920989 4 0.21428573131561 0.90476190298796 2.8079365193844 2.2946359262939
vector 120156  Network.dyn_peer[50]  lookupTimeSig:vector  ETV
120156	43675 107 472 2946 20.61 22.530901920989 4 0.1 1.2 2 1.7
vector 120157  Network.dyn_peer[51]  lookupHopsSig:vector  ETV
120157	43782 80 486 2833 20.62 22.429565965248 3 1 11 17 147
vector 120158  Network.dyn_peer[51]  lookupStabilitySig:vector  ETV
120158	43862 124 486 2833 20.62 22.429565965248 3 0.26666665077209 0.79999999701977 1.8666666448116 1.3511110930973
vector 120159  Network.dyn_peer[51]  lookupTimeSig:vector  ETV
120159	43986 85 486 2833 20.62 22.429565965248 3 0.1 1.2 1.9 1.81
vector 120100  Network.dyn_peer[32]  lookupHopsSig:vector  ETV
120100	33617 219 502 4978 20.63 26.367672906674 8 2 17 53 515
vector 120101  Network.dyn_peer[32]  lookupStabilitySig:vector  ETV
120101	33836 335 502 4978 20.63 26.367672906674 8 0.31999999284744 0.9545454531908 6.2481999583542 5.3601385199886
vector 120102  Network.dyn_peer[32]  lookupTimeSig:vector  ETV
120102	34171 232 502 4978 20.63 26.367672906674 8 0.3 1.8 6 6.22
vector 120160  Network.dyn_peer[52]  lookupHopsSig:vector  ETV
120160	44071 69 506 2716 20.63 22.331281727461 3 1 9 16 118
vector 120161  Network.dyn_peer[52]  lookupStabilitySig:vector  ETV
120161	44140 113 506 2716 20.63 22.331281727461 3 0.39999997615814 0.79999999701977 1.771428540349 1.1265305835374
vector 120162  Network.dyn_peer[52]  lookupTimeSig:vector  ETV
120162	44253 73 506 2716 20.63 22.331281727461 3 0.1 1 1.8 1.5
vector 120052  Network.dyn_peer[16]  lookupHopsSig:vector  ETV
120052	27070 158 549 4458 20.67 24.38801161835 6 1 14 37 323
vector 120053  Network.dyn_peer[16]  lookupStabilitySig:vector  ETV
120053	27228 223 549 4458 20.67 24.38801161835 6 0 0.94936708733439 3.884130757302 3.2166254478326
vector 120054  Network.dyn_peer[16]  lookupTimeSig:vector  ETV
120054	27451 169 549 4458 20.67 24.38801161835 6 0.2 1.5 4.2 3.92
vector 120085  Network.dyn_peer[27]  lookupHopsSig:vector  ETV
120085	31845 80 565 2794 20.68 22.392473752421 3 4 11 19 153
vector 120086  Network.dyn_peer[27]  lookupStabilitySig:vector  ETV
120086	31925 124 565 2794 20.68 22.392473752421 3 0.19999998807907 0.82608695328236 1.3790280967951 0.8469871088138
vector 120087  Network.dyn_peer[27]  lookupTimeSig:vector  ETV
120087	32049 85 565 2794 20.68 22.392473752421 3 0.4 1.2 2.1 1.85
vector 120058  Network.dyn_peer[18]  lookupHopsSig:vector  ETV
120058	28174 128 581 3402 20.69 22.948793208337 5 1 6 20 96
vector 120059  Network.dyn_peer[18]  lookupStabilitySig:vector  ETV
120059	28302 188 581 3402 20.69 22.948793208337 5 0 0.85365854203701 3.115563288331 2.4481206388896
vector 120060  Network.dyn_peer[18]  lookupTimeSig:vector  ETV
120060	28490 138 581 3402 20.69 22.948793208337 5 0.2 0.7 2.4 1.3
vector 120091  Network.dyn_peer[29]  lookupHopsSig:vector  ETV
120091	32464 187 594 4492 20.7 24.462819139116 7 3 8 33 181
vector 120092  Network.dyn_peer[29]  lookupStabilitySig:vector  ETV
120092	32651 279 594 4492 20.7 24.462819139116 7 0.19999998807907 0.96296296268702 5.024775415659 4.0481874540328
vector 120093  Network.dyn_peer[29]  lookupTimeSig:vector  ETV
120093	32930 201 594 4492 20.7 24.462819139116 7 0.4 0.9 3.9 2.45
vector 120121  Network.dyn_peer[39]  lookupHopsSig:vector  ETV
120121	37617 95 598 1702 20.7 21.513704862821 4 1 3 8 18
vector 120122  Network.dyn_peer[39]  lookupStabilitySig:vector  ETV
120122	37712 144 598 1702 20.7 21.513704862821 4 0.39999997615814 0.875 2.7598484456539 2.039490890862
vector 120123  Network.dyn_peer[39]  lookupTimeSig:vector  ETV
120123	37856 103 598 1702 20.7 21.513704862821 4 0.2 0.3 1.1 0.31
vector 120220  Network.dyn_peer[72]  lookupHopsSig:vector  ETV
120220	54093 160 637 4745 20.73 25.259028593123 6 0 16 40 426
vector 120221  Network.dyn_peer[72]  lookupStabilitySig:vector  ETV
120221	54253 234 637 4745 20.73 25.259028593123 6 0.36000001430511 1 4.9863225892186 4.4176353738027
vector 120222  Network.dyn_peer[72]  lookupTimeSig:vector  ETV
120222	54487 167 637 4745 20.73 25.259028593123 6 0 1.7 4.5 5.11
vector 120103  Network.dyn_peer[33]  lookupHopsSig:vector  ETV
120103	34403 217 649 4358 20.74 24.165072243757 8 1 9 31 165
vector 120104  Network.dyn_peer[33]  lookupStabilitySig:vector  ETV
120104	34620 326 649 4358 20.74 24.165072243757 8 0.19999998807907 0.97619047574699 6.0981581695378 5.2972293906696
vector 120105  Network.dyn_peer[33]  lookupTimeSig:vector  ETV
120105	34946 231 649 4358 20.74 24.165072243757 8 0.2 1 3.8 2.26
vector 120076  Network.dyn_peer[24]  lookupHopsSig:vector  ETV
120076	30228 130 667 4038 20.75 23.666613003081 5 4 10 30 202
vector 120077  Network.dyn_peer[24]  lookupStabilitySig:vector  ETV
120077	30358 189 667 4038 20.75 23.666613003081 5 0 0.91379310190678 2.9224510788918 2.3502442762978
vector 120078  Network.dyn_peer[24]  lookupTimeSig:vector  ETV
120078	30547 139 667 4038 20.75 23.666613003081 5 0.5 1.1 3.4 2.56
vector 120106  Network.dyn_peer[34]  lookupHopsSig:vector  ETV
120106	35177 99 671 3321 20.75 22.866357163692 4 4 8 22 132
vector 120107  Network.dyn_peer[34]  lookupStabilitySig:vector  ETV
120107	35276 158 671 3321 20.75 22.866357163692 4 0.19999998807907 0.78378377854824 2.1484896242618 1.3990920728381
vector 120108  Network.dyn_peer[34]  lookupTimeSig:vector  ETV
120108	35434 107 671 3321 20.75 22.866357163692 4 0.4 0.9 2.5 1.71
vector 120115  Network.dyn_peer[37]  lookupHopsSig:vector  ETV
120115	36394 160 708 4423 20.78 24.291884656189 6 2 12 34 270
vector 120116  Network.dyn_peer[37]  lookupStabilitySig:vector  ETV
120116	36554 249 708 4423 20.78 24.291884656189 6 0.19999998807907 0.96721311658621 4.1290013119578 3.4000025807437
vector 120117  Network.dyn_peer[37]  lookupTimeSig:vector  ETV
120117	36803 169 708 4423 20.78 24.291884656189 6 0.3 1.3 3.9 3.35
vector 120145  Network.dyn_peer[47]  lookupHopsSig:vector  ETV
120145	41168 70 712 2426 20.78 22.081378051557 3 1 10 14 110
vector 120146  Network.dyn_peer[47]  lookupStabilitySig:vector  ETV
120146	41238 113 712 2426 20.78 22.081378051557 3 0.39999997615814 0.9473684206605 1.7591330781579 1.2270570581897
vector 120147  Network.dyn_peer[47]  lookupTimeSig:vector  ETV
120147	41351 75 712 2426 20.78 22.081378051557 3 0.2 1.1 1.6 1.34
vector 120097  Network.dyn_peer[31]  lookupHopsSig:vector  ETV
120097	33386 70 763 4146 20.82 23.821405949732 3 3 25 33 659
vector 120098  Network.dyn_peer[31]  lookupStabilitySig:vector  ETV
120098	33456 86 763 4146 20.82 23.821405949732 3 0 0.95081967115402 1.450819671154 1.1540580470534
vector 120099  Network.dyn_peer[31]  lookupTimeSig:vector  ETV
120099	33542 75 763 4146 20.82 23.821405949732 3 0.4 2.6 3.5 7.17
vector 120127  Network.dyn_peer[41]  lookupHopsSig:vector  ETV
120127	38106 100 767 3936 20.82 23.528821175484 4 4 12 28 234
vector 120128  Network.dyn_peer[41]  lookupStabilitySig:vector  ETV
120128	38206 159 767 3936 20.82 23.528821175484 4 0.19999998807907 0.86792452633381 2.3494370877743 1.7044750661877
vector 120129  Network.dyn_peer[41]  lookupTimeSig:vector  ETV
120129	38365 107 767 3936 20.82 23.528821175484 4 0.4 1.3 3.1 2.85
vector 120214  Network.dyn_peer[70]  lookupHopsSig:vector  ETV
120214	53683 40 881 3156 20.91 22.71 2 2 17 19 293
vector 120215  Network.dyn_peer[70]  lookupStabilitySig:vector  ETV
120215	53723 68 881 3156 20.91 22.71 2 0.4848484992981 0.66666665673256 1.1515151560307 0.67952249847059
vector 120216  Network.dyn_peer[70]  lookupTimeSig:vector  ETV
120216	53791 43 881 3156 20.91 22.71 2 0.2 1.8 2 3.28
vector 120217  Network.dyn_peer[71]  lookupHopsSig:vector  ETV
120217	53834 70 897 2935 20.92 22.522797276522 3 2 10 16 120
vector 120218  Network.dyn_peer[71]  lookupStabilitySig:vector  ETV
120218	53904 114 897 2935 20.92 22.522797276522 3 0.41176468133926 0.84615384042263 1.9245851784944 1.3299709056594
vector 120219  Network.dyn_peer[71]  lookupTimeSig:vector  ETV
120219	54018 75 897 2935 20.92 22.522797276522 3 0.2 1.1 1.8 1.5
vector 120109  Network.dyn_peer[35]  lookupHopsSig:vector  ETV
120109	35541 110 952 4043 20.96 23.671754177859 4 5 14 30 282
vector 120110  Network.dyn_peer[35]  lookupStabilitySig:vector  ETV
120110	35651 154 952 4043 20.96 23.671754177859 4 0 0.91525423526764 2.2577450498939 1.8267851381415
vector 120111  Network.dyn_peer[35]  lookupTimeSig:vector  ETV
120111	35805 117 952 4043 20.96 23.671754177859 4 0.6 1.5 3.3 3.33
vector 120151  Network.dyn_peer[49]  lookupHopsSig:vector  ETV
120151	42738 187 1007 4212 21 23.919330985915 7 2 13 28 214
vector 120152  Network.dyn_peer[49]  lookupStabilitySig:vector  ETV
120152	42925 291 1007 4212 21 23.919330985915 7 0.16666668653488 0.96969696879387 5.4094359092414 4.8165778060218
vector 120153  Network.dyn_peer[49]  lookupTimeSig:vector  ETV
120153	43216 200 1007 4212 21 23.919330985915 7 0.3 1.4 3.4 2.66
vector 120094  Network.dyn_peer[30]  lookupHopsSig:vector  ETV
120094	33131 72 1029 4202 21.01 23.912572214987 3 7 17 34 438
vector 120095  Network.dyn_peer[30]  lookupStabilitySig:vector  ETV
120095	33203 107 1029 4202 21.01 23.912572214987 3 -0.16666662693024 0.84375 1.204861164093 1.0182412237297
vector 120096  Network.dyn_peer[30]  lookupTimeSig:vector  ETV
120096	33310 76 1029 4202 21.01 23.912572214987 3 0.7 1.8 3.6 4.94
vector 120229  Network.dyn_peer[75]  lookupHopsSig:vector  ETV
120229	55497 71 1098 3105 21.06 22.662892738289 3 3 10 17 125
vector 120230  Network.dyn_peer[75]  lookupStabilitySig:vector  ETV
120230	55568 104 1098 3105 21.06 22.662892738289 3 0.5714285671711 0.69230768084526 1.9512362480164 1.2784767823366
vector 120231  Network.dyn_peer[75]  lookupTimeSig:vector  ETV
120231	55672 76 1098 3105 21.06 22.662892738289 3 0.3 1.1 1.9 1.55
vector 120202  Network.dyn_peer[66]  lookupHopsSig:vector  ETV
120202	51472 100 1114 2420 21.07 22.077761536854 4 1 5 11 43
vector 120203  Network.dyn_peer[66]  lookupStabilitySig:vector  ETV
120203	51572 159 1114 2420 21.07 22.077761536854 4 0.42857140302658 0.94444444403052 2.9295769259334 2.3401601201162
vector 120204  Network.dyn_peer[66]  lookupTimeSig:vector  ETV
120204	51731 108 1114 2420 21.07 22.077761536854 4 0.2 0.6 1.4 0.6
vector 120232  Network.dyn_peer[76]  lookupHopsSig:vector  ETV
120232	55748 71 1118 3234 21.07 22.776497084624 3 3 10 18 134
vector 120233  Network.dyn_peer[76]  lookupStabilitySig:vector  ETV
120233	55819 114 1118 3234 21.07 22.776497084624 3 0.5714285671711 0.71428570151329 1.9010988771916 1.2154328871531
vector 120234  Network.dyn_peer[76]  lookupTimeSig:vector  ETV
120234	55933 76 1118 3234 21.07 22.776497084624 3 0.3 1.1 2 1.66
vector 120205  Network.dyn_peer[67]  lookupHopsSig:vector  ETV
120205	51839 129 1133 4258 21.08 23.986382743226 5 3 8 29 187
vector 120206  Network.dyn_peer[67]  lookupStabilitySig:vector  ETV
120206	51968 204 1133 4258 21.08 23.986382743226 5 0.42857140302658 0.90140844881535 3.5230628401041 2.6186695305325
vector 120207  Network.dyn_peer[67]  lookupTimeSig:vector  ETV
120207	52172 139 1133 4258 21.08 23.986382743226 5 0.4 0.9 3.3 2.41
vector 120139  Network.dyn_peer[45]  lookupHopsSig:vector  ETV
120139	40341 161 1224 4249 21.16 23.971141628649 6 2 13 30 244
vector 120140  Network.dyn_peer[45]  lookupStabilitySig:vector  ETV
120140	40502 234 1224 4249 21.16 23.971141628649 6 0 0.97101449221373 4.3556028045714 3.9230365592918
vector 120141  Network.dyn_peer[45]  lookupTimeSig:vector  ETV
120141	40736 172 1224 4249 21.16 23.971141628649 6 0.3 1.4 3.5 2.95
vector 120298  Network.dyn_peer[98]  lookupHopsSig:vector  ETV
120298	68266 70 1261 3354 21.19 22.89684400117 3 2 13 17 177
vector 120299  Network.dyn_peer[98]  lookupStabilitySig:vector  ETV
120299	68336 102 1261 3354 21.19 22.89684400117 3 0.65789473056793 0.81818181276321 2.2260765433311 1.6647469552455
vector 120300  Network.dyn_peer[98]  lookupTimeSig:vector  ETV
120300	68438 75 1261 3354 21.19 22.89684400117 3 0.2 1.4 1.9 2.09
vector 120181  Network.dyn_peer[59]  lookupHopsSig:vector  ETV
120181	47269 186 1277 4651 21.2 24.92424011996 7 1 9 37 247
vector 120182  Network.dyn_peer[59]  lookupStabilitySig:vector  ETV
120182	47455 275 1277 4651 21.2 24.92424011996 7 0.25 0.98749999981374 5.4374658158049 4.672582298905
vector 120183  Network.dyn_peer[59]  lookupTimeSig:vector  ETV
120183	47730 196 1277 4651 21.2 24.92424011996 7 0.2 1 4.3 3.15
vector 120184  Network.dyn_peer[60]  lookupHopsSig:vector  ETV
120184	47926 130 1291 4081 21.21 23.726526920322 5 1 9 27 183
vector 120185  Network.dyn_peer[60]  lookupStabilitySig:vector  ETV
120185	48056 192 1291 4081 21.21 23.726526920322 5 0.25 0.9833333324641 3.5318112056702 2.8475647121338
vector 120186  Network.dyn_peer[60]  lookupTimeSig:vector  ETV
120186	48248 138 1291 4081 21.21 23.726526920322 5 0.2 1 3.1 2.29
vector 120187  Network.dyn_peer[61]  lookupHopsSig:vector  ETV
120187	48386 70 1310 3060 21.22 22.629175986542 3 4 8 18 116
vector 120188  Network.dyn_peer[61]  lookupStabilitySig:vector  ETV
120188	48456 103 1310 3060 21.22 22.629175986542 3 0.25 0.74193549156189 1.7062211930752 1.1231723370255
vector 120189  Network.dyn_peer[61]  lookupTimeSig:vector  ETV
120189	48559 76 1310 3060 21.22 22.629175986542 3 0.5 0.9 2 1.42
vector 120247  Network.dyn_peer[81]  lookupHopsSig:vector  ETV
120247	59474 279 1314 5123 21.22 27.853123052143 10 2 9 61 419
vector 120248  Network.dyn_peer[81]  lookupStabilitySig:vector  ETV
120248	59753 415 1314 5123 21.22 27.853123052143 10 0.5 0.97333333268762 8.4222912229598 7.3454230068677
vector 120249  Network.dyn_peer[81]  lookupTimeSig:vector  ETV
120249	60168 295 1314 5123 21.22 27.853123052143 10 0.3 1 7 5.42
vector 120277  Network.dyn_peer[91]  lookupHopsSig:vector  ETV
120277	65314 130 1318 3583 21.22 23.125301875866 5 3 5 18 68
vector 120278  Network.dyn_peer[91]  lookupStabilitySig:vector  ETV
120278	65444 193 1318 3583 21.22 23.125301875866 5 0.625 0.92857142537832 3.9670598953962 3.2036314437583
vector 120279  Network.dyn_peer[91]  lookupTimeSig:vector  ETV
120279	65637 140 1318 3583 21.22 23.125301875866 5 0.3 0.6 2.2 1.02
vector 120130  Network.dyn_peer[42]  lookupHopsSig:vector  ETV
120130	38472 250 1337 4564 21.23 24.667051779583 9 1 8 34 160
vector 120131  Network.dyn_peer[42]  lookupStabilitySig:vector  ETV
120131	38722 370 1337 4564 21.23 24.667051779583 9 0 0.98701298702508 7.1685263672843 6.5031941854396
vector 120132  Network.dyn_peer[42]  lookupTimeSig:vector  ETV
120132	39092 268 1337 4564 21.23 24.667051779583 9 0.2 0.8 4.2 2.2
vector 120253  Network.dyn_peer[83]  lookupHopsSig:vector  ETV
120253	61368 101 1351 3868 21.24 23.448566773335 4 2 12 23 189
vector 120254  Network.dyn_peer[83]  lookupStabilitySig:vector  ETV
120254	61469 146 1351 3868 21.24 23.448566773335 4 0.5 0.96078431233764 2.9159338064492 2.2805997789258
vector 120255  Network.dyn_peer[83]  lookupTimeSig:vector  ETV
120255	61615 108 1351 3868 21.24 23.448566773335 4 0.3 1.3 2.6 2.3
vector 120199  Network.dyn_peer[65]  lookupHopsSig:vector  ETV
120199	51225 70 1376 3216 21.26 22.762513302341 3 4 9 19 133
vector 120200  Network.dyn_peer[65]  lookupStabilitySig:vector  ETV
120200	51295 103 1376 3216 21.26 22.762513302341 3 0.25 0.73529410362244 1.6995798051357 1.1133614822083
vector 120201  Network.dyn_peer[65]  lookupTimeSig:vector  ETV
120201	51398 74 1376 3216 21.26 22.762513302341 3 0.5 1 2.1 1.61
vector 120175  Network.dyn_peer[57]  lookupHopsSig:vector  ETV
120175	45691 130 1402 4673 21.28 24.990195969561 5 7 9 40 324
vector 120176  Network.dyn_peer[57]  lookupStabilitySig:vector  ETV
120176	45821 204 1402 4673 21.28 24.990195969561 5 0.22222220897675 0.89411764591932 3.4084256961942 2.6571479031724
vector 120177  Network.dyn_peer[57]  lookupTimeSig:vector  ETV
120177	46025 136 1402 4673 21.28 24.990195969561 5 0.7 1 4.4 3.94
vector 120211  Network.dyn_peer[69]  lookupHopsSig:vector  ETV
120211	52893 219 1427 5003 21.3 26.528474646189 8 4 11 51 369
vector 120212  Network.dyn_peer[69]  lookupStabilitySig:vector  ETV
120212	53112 337 1427 5003 21.3 26.528474646189 8 0.39999997615814 0.95789473503828 6.4937148578465 5.5616511433203
vector 120213  Network.dyn_peer[69]  lookupTimeSig:vector  ETV
120213	53449 234 1427 5003 21.3 26.528474646189 8 0.5 1.2 5.8 4.66
vector 120241  Network.dyn_peer[79]  lookupHopsSig:vector  ETV
120241	57695 219 1431 4827 21.3 25.546087840212 8 3 12 40 270
vector 120242  Network.dyn_peer[79]  lookupStabilitySig:vector  ETV
120242	57914 324 1431 4827 21.3 25.546087840212 8 0.5 0.96428571268916 6.7694325149059 5.9598789175784
vector 120243  Network.dyn_peer[79]  lookupTimeSig:vector  ETV
120243	58238 234 1431 4827 21.3 25.546087840212 8 0.4 1.3 4.7 3.47
vector 120124  Network.dyn_peer[40]  lookupHopsSig:vector  ETV
120124	37959 41 1448 4200 21.31 23.91 2 9 25 34 706
vector 120125  Network.dyn_peer[40]  lookupStabilitySig:vector  ETV
120125	38000 62 1448 4200 21.31 23.91 2 0.10000002384186 0.609375 0.70937502384186 0.38133789539337
vector 120126  Network.dyn_peer[40]  lookupTimeSig:vector  ETV
120126	38062 44 1448 4200 21.31 23.91 2 0.9 2.6 3.5 7.57
vector 120274  Network.dyn_peer[90]  lookupHopsSig:vector  ETV
120274	64950 100 1452 3855 21.31 23.428223118336 4 3 9 22 142
vector 120275  Network.dyn_peer[90]  lookupStabilitySig:vector  ETV
120275	65050 158 1452 3855 21.31 23.428223118336 4 0.5714285671711 0.9400000013411 2.9685714133084 2.3048244693512
vector 120276  Network.dyn_peer[90]  lookupTimeSig:vector  ETV
120276	65208 106 1452 3855 21.31 23.428223118336 4 0.4 1 2.5 1.81
vector 120283  Network.dyn_peer[93]  lookupHopsSig:vector  ETV
120283	65932 41 1494 3774 21.34 23.34 2 4 19 23 377
vector 120284  Network.dyn_peer[93]  lookupStabilitySig:vector  ETV