version 2
run Stability2-70-20130528-01:32:53-24168
attr configname Stability2
attr datetime 20130528-01:32:53
attr experiment Stability2
attr inifile omnetpp.ini
attr iterationvars $0=300
attr iterationvars2 "$0=300, $repetition=0"
attr measurement $0=300
attr network Network
attr processid 24168
attr repetition 0
attr replication #0
attr resultdir results
attr runnumber 70
attr seedset 70

vector 2130070  Network.churner  inGoingSizeSig:vector  ETV
vector 2100073  Network.dyn_peer[1]  lookupHopsSig:vector  ETV
vector 2100074  Network.dyn_peer[1]  lookupStabilitySig:vector  ETV
vector 2100075  Network.dyn_peer[1]  lookupTimeSig:vector  ETV
vector 2100097  Network.dyn_peer[9]  lookupHopsSig:vector  ETV
vector 2100098  Network.dyn_peer[9]  lookupStabilitySig:vector  ETV
vector 2100099  Network.dyn_peer[9]  lookupTimeSig:vector  ETV
vector 2100103  Network.dyn_peer[11]  lookupHopsSig:vector  ETV
vector 2100104  Network.dyn_peer[11]  lookupStabilitySig:vector  ETV
vector 2100105  Network.dyn_peer[11]  lookupTimeSig:vector  ETV
vector 2100076  Network.dyn_peer[2]  lookupHopsSig:vector  ETV
vector 2100077  Network.dyn_peer[2]  lookupStabilitySig:vector  ETV
vector 2100078  Network.dyn_peer[2]  lookupTimeSig:vector  ETV
vector 2100082  Network.dyn_peer[4]  lookupHopsSig:vector  ETV
vector 2100083  Network.dyn_peer[4]  lookupStabilitySig:vector  ETV
vector 2100084  Network.dyn_peer[4]  lookupTimeSig:vector  ETV
vector 2100085  Network.dyn_peer[5]  lookupHopsSig:vector  ETV
vector 2100086  Network.dyn_peer[5]  lookupStabilitySig:vector  ETV
vector 2100087  Network.dyn_peer[5]  lookupTimeSig:vector  ETV
vector 2100115  Network.dyn_peer[15]  lookupHopsSig:vector  ETV
vector 2100116  Network.dyn_peer[15]  lookupStabilitySig:vector  ETV
vector 2100117  Network.dyn_peer[15]  lookupTimeSig:vector  ETV
vector 2100094  Network.dyn_peer[8]  lookupHopsSig:vector  ETV
vector 2100095  Network.dyn_peer[8]  lookupStabilitySig:vector  ETV
vector 2100096  Network.dyn_peer[8]  lookupTimeSig:vector  ETV
vector 2100070  Network.dyn_peer[0]  lookupHopsSig:vector  ETV
vector 2100071  Network.dyn_peer[0]  lookupStabilitySig:vector  ETV
vector 2100072  Network.dyn_peer[0]  lookupTimeSig:vector  ETV
vector 2100112  Network.dyn_peer[14]  lookupHopsSig:vector  ETV
vector 2100113  Network.dyn_peer[14]  lookupStabilitySig:vector  ETV
vector 2100114  Network.dyn_peer[14]  lookupTimeSig:vector  ETV
vector 2100142  Network.dyn_peer[24]  lookupHopsSig:vector  ETV
vector 2100143  Network.dyn_peer[24]  lookupStabilitySig:vector  ETV
vector 2100144  Network.dyn_peer[24]  lookupTimeSig:vector  ETV
vector 2100145  Network.dyn_peer[25]  lookupHopsSig:vector  ETV
vector 2100146  Network.dyn_peer[25]  lookupStabilitySig:vector  ETV
vector 2100147  Network.dyn_peer[25]  lookupTimeSig:vector  ETV
vector 2100088  Network.dyn_peer[6]  lookupHopsSig:vector  ETV
vector 2100089  Network.dyn_peer[6]  lookupStabilitySig:vector  ETV
vector 2100090  Network.dyn_peer[6]  lookupTimeSig:vector  ETV
vector 2100121  Network.dyn_peer[17]  lookupHopsSig:vector  ETV
vector 2100122  Network.dyn_peer[17]  lookupStabilitySig:vector  ETV
vector 2100123  Network.dyn_peer[17]  lookupTimeSig:vector  ETV
vector 2100124  Network.dyn_peer[18]  lookupHopsSig:vector  ETV
vector 2100125  Network.dyn_peer[18]  lookupStabilitySig:vector  ETV
vector 2100126  Network.dyn_peer[18]  lookupTimeSig:vector  ETV
vector 2100127  Network.dyn_peer[19]  lookupHopsSig:vector  ETV
vector 2100128  Network.dyn_peer[19]  lookupStabilitySig:vector  ETV
vector 2100129  Network.dyn_peer[19]  lookupTimeSig:vector  ETV
vector 2100139  Network.dyn_peer[23]  lookupHopsSig:vector  ETV
vector 2100140  Network.dyn_peer[23]  lookupStabilitySig:vector  ETV
vector 2100141  Network.dyn_peer[23]  lookupTimeSig:vector  ETV
vector 2100091  Network.dyn_peer[7]  lookupHopsSig:vector  ETV
vector 2100092  Network.dyn_peer[7]  lookupStabilitySig:vector  ETV
vector 2100093  Network.dyn_peer[7]  lookupTimeSig:vector  ETV
vector 2100130  Network.dyn_peer[20]  lookupHopsSig:vector  ETV
vector 2100131  Network.dyn_peer[20]  lookupStabilitySig:vector  ETV
vector 2100132  Network.dyn_peer[20]  lookupTimeSig:vector  ETV
vector 2100133  Network.dyn_peer[21]  lookupHopsSig:vector  ETV
vector 2100134  Network.dyn_peer[21]  lookupStabilitySig:vector  ETV
vector 2100135  Network.dyn_peer[21]  lookupTimeSig:vector  ETV
vector 2100136  Network.dyn_peer[22]  lookupHopsSig:vector  ETV
vector 2100137  Network.dyn_peer[22]  lookupStabilitySig:vector  ETV
vector 2100138  Network.dyn_peer[22]  lookupTimeSig:vector  ETV
vector 2100079  Network.dyn_peer[3]  lookupHopsSig:vector  ETV
vector 2100080  Network.dyn_peer[3]  lookupStabilitySig:vector  ETV
vector 2100081  Network.dyn_peer[3]  lookupTimeSig:vector  ETV
vector 2100118  Network.dyn_peer[16]  lookupHopsSig:vector  ETV
vector 2100119  Network.dyn_peer[16]  lookupStabilitySig:vector  ETV
vector 2100120  Network.dyn_peer[16]  lookupTimeSig:vector  ETV
vector 2100187  Network.dyn_peer[39]  lookupHopsSig:vector  ETV
vector 2100188  Network.dyn_peer[39]  lookupStabilitySig:vector  ETV
vector 2100189  Network.dyn_peer[39]  lookupTimeSig:vector  ETV
vector 2100172  Network.dyn_peer[34]  lookupHopsSig:vector  ETV
vector 2100173  Network.dyn_peer[34]  lookupStabilitySig:vector  ETV
vector 2100174  Network.dyn_peer[34]  lookupTimeSig:vector  ETV
vector 2100160  Network.dyn_peer[30]  lookupHopsSig:vector  ETV
vector 2100161  Network.dyn_peer[30]  lookupStabilitySig:vector  ETV
vector 2100162  Network.dyn_peer[30]  lookupTimeSig:vector  ETV
vector 2100250  Network.dyn_peer[60]  lookupHopsSig:vector  ETV
vector 2100251  Network.dyn_peer[60]  lookupStabilitySig:vector  ETV
vector 2100252  Network.dyn_peer[60]  lookupTimeSig:vector  ETV
vector 2100157  Network.dyn_peer[29]  lookupHopsSig:vector  ETV
vector 2100158  Network.dyn_peer[29]  lookupStabilitySig:vector  ETV
vector 2100159  Network.dyn_peer[29]  lookupTimeSig:vector  ETV
vector 2100247  Network.dyn_peer[59]  lookupHopsSig:vector  ETV
vector 2100248  Network.dyn_peer[59]  lookupStabilitySig:vector  ETV
vector 2100249  Network.dyn_peer[59]  lookupTimeSig:vector  ETV
vector 2100190  Network.dyn_peer[40]  lookupHopsSig:vector  ETV
vector 2100191  Network.dyn_peer[40]  lookupStabilitySig:vector  ETV
vector 2100192  Network.dyn_peer[40]  lookupTimeSig:vector  ETV
vector 2100196  Network.dyn_peer[42]  lookupHopsSig:vector  ETV
vector 2100197  Network.dyn_peer[42]  lookupStabilitySig:vector  ETV
vector 2100198  Network.dyn_peer[42]  lookupTimeSig:vector  ETV
vector 2100274  Network.dyn_peer[68]  lookupHopsSig:vector  ETV
vector 2100275  Network.dyn_peer[68]  lookupStabilitySig:vector  ETV
vector 2100276  Network.dyn_peer[68]  lookupTimeSig:vector  ETV
vector 2100169  Network.dyn_peer[33]  lookupHopsSig:vector  ETV
vector 2100170  Network.dyn_peer[33]  lookupStabilitySig:vector  ETV
vector 2100171  Network.dyn_peer[33]  lookupTimeSig:vector  ETV
vector 2100202  Network.dyn_peer[44]  lookupHopsSig:vector  ETV
vector 2100203  Network.dyn_peer[44]  lookupStabilitySig:vector  ETV
vector 2100204  Network.dyn_peer[44]  lookupTimeSig:vector  ETV
vector 2100322  Network.dyn_peer[84]  lookupHopsSig:vector  ETV
vector 2100323  Network.dyn_peer[84]  lookupStabilitySig:vector  ETV
vector 2100324  Network.dyn_peer[84]  lookupTimeSig:vector  ETV
vector 2100298  Network.dyn_peer[76]  lookupHopsSig:vector  ETV
vector 2100299  Network.dyn_peer[76]  lookupStabilitySig:vector  ETV
vector 2100300  Network.dyn_peer[76]  lookupTimeSig:vector  ETV
vector 2100151  Network.dyn_peer[27]  lookupHopsSig:vector  ETV
vector 2100152  Network.dyn_peer[27]  lookupStabilitySig:vector  ETV
vector 2100153  Network.dyn_peer[27]  lookupTimeSig:vector  ETV
vector 2100184  Network.dyn_peer[38]  lookupHopsSig:vector  ETV
vector 2100185  Network.dyn_peer[38]  lookupStabilitySig:vector  ETV
vector 2100186  Network.dyn_peer[38]  lookupTimeSig:vector  ETV
vector 2100280  Network.dyn_peer[70]  lookupHopsSig:vector  ETV
vector 2100281  Network.dyn_peer[70]  lookupStabilitySig:vector  ETV
vector 2100282  Network.dyn_peer[70]  lookupTimeSig:vector  ETV
vector 2100316  Network.dyn_peer[82]  lookupHopsSig:vector  ETV
vector 2100317  Network.dyn_peer[82]  lookupStabilitySig:vector  ETV
vector 2100318  Network.dyn_peer[82]  lookupTimeSig:vector  ETV
vector 2100289  Network.dyn_peer[73]  lookupHopsSig:vector  ETV
vector 2100290  Network.dyn_peer[73]  lookupStabilitySig:vector  ETV
vector 2100291  Network.dyn_peer[73]  lookupTimeSig:vector  ETV
vector 2100271  Network.dyn_peer[67]  lookupHopsSig:vector  ETV
vector 2100272  Network.dyn_peer[67]  lookupStabilitySig:vector  ETV
vector 2100273  Network.dyn_peer[67]  lookupTimeSig:vector  ETV
vector 2100304  Network.dyn_peer[78]  lookupHopsSig:vector  ETV
vector 2100305  Network.dyn_peer[78]  lookupStabilitySig:vector  ETV
vector 2100306  Network.dyn_peer[78]  lookupTimeSig:vector  ETV
vector 2100193  Network.dyn_peer[41]  lookupHopsSig:vector  ETV
vector 2100194  Network.dyn_peer[41]  lookupStabilitySig:vector  ETV
vector 2100195  Network.dyn_peer[41]  lookupTimeSig:vector  ETV
vector 2100283  Network.dyn_peer[71]  lookupHopsSig:vector  ETV
vector 2100284  Network.dyn_peer[71]  lookupStabilitySig:vector  ETV
vector 2100285  Network.dyn_peer[71]  lookupTimeSig:vector  ETV
vector 2100166  Network.dyn_peer[32]  lookupHopsSig:vector  ETV
vector 2100167  Network.dyn_peer[32]  lookupStabilitySig:vector  ETV
vector 2100168  Network.dyn_peer[32]  lookupTimeSig:vector  ETV
vector 2100229  Network.dyn_peer[53]  lookupHopsSig:vector  ETV
vector 2100230  Network.dyn_peer[53]  lookupStabilitySig:vector  ETV
vector 2100231  Network.dyn_peer[53]  lookupTimeSig:vector  ETV
vector 2100232  Network.dyn_peer[54]  lookupHopsSig:vector  ETV
vector 2100233  Network.dyn_peer[54]  lookupStabilitySig:vector  ETV
vector 2100234  Network.dyn_peer[54]  lookupTimeSig:vector  ETV
vector 2100208  Network.dyn_peer[46]  lookupHopsSig:vector  ETV
vector 2100209  Network.dyn_peer[46]  lookupStabilitySig:vector  ETV
vector 2100210  Network.dyn_peer[46]  lookupTimeSig:vector  ETV
vector 2100358  Network.dyn_peer[96]  lookupHopsSig:vector  ETV
vector 2100359  Network.dyn_peer[96]  lookupStabilitySig:vector  ETV
vector 2100360  Network.dyn_peer[96]  lookupTimeSig:vector  ETV
vector 2100181  Network.dyn_peer[37]  lookupHopsSig:vector  ETV
vector 2100182  Network.dyn_peer[37]  lookupStabilitySig:vector  ETV
vector 2100183  Network.dyn_peer[37]  lookupTimeSig:vector  ETV
vector 2100100  Network.dyn_peer[10]  lookupHopsSig:vector  ETV
vector 2100101  Network.dyn_peer[10]  lookupStabilitySig:vector  ETV
vector 2100102  Network.dyn_peer[10]  lookupTimeSig:vector  ETV
vector 2100220  Network.dyn_peer[50]  lookupHopsSig:vector  ETV
vector 2100221  Network.dyn_peer[50]  lookupStabilitySig:vector  ETV
vector 2100222  Network.dyn_peer[50]  lookupTimeSig:vector  ETV
vector 2100256  Network.dyn_peer[62]  lookupHopsSig:vector  ETV
vector 2100257  Network.dyn_peer[62]  lookupStabilitySig:vector  ETV
vector 2100258  Network.dyn_peer[62]  lookupTimeSig:vector  ETV
vector 2100286  Network.dyn_peer[72]  lookupHopsSig:vector  ETV
vector 2100287  Network.dyn_peer[72]  lookupStabilitySig:vector  ETV
vector 2100288  Network.dyn_peer[72]  lookupTimeSig:vector  ETV
vector 2100259  Network.dyn_peer[63]  lookupHopsSig:vector  ETV
vector 2100260  Network.dyn_peer[63]  lookupStabilitySig:vector  ETV
vector 2100261  Network.dyn_peer[63]  lookupTimeSig:vector  ETV
vector 2100409  Network.dyn_peer[113]  lookupHopsSig:vector  ETV
vector 2100410  Network.dyn_peer[113]  lookupStabilitySig:vector  ETV
vector 2100411  Network.dyn_peer[113]  lookupTimeSig:vector  ETV
vector 2100265  Network.dyn_peer[65]  lookupHopsSig:vector  ETV
vector 2100266  Network.dyn_peer[65]  lookupStabilitySig:vector  ETV
vector 2100267  Network.dyn_peer[65]  lookupTimeSig:vector  ETV
vector 2100148  Network.dyn_peer[26]  lookupHopsSig:vector  ETV
vector 2100149  Network.dyn_peer[26]  lookupStabilitySig:vector  ETV
vector 2100150  Network.dyn_peer[26]  lookupTimeSig:vector  ETV
vector 2100394  Network.dyn_peer[108]  lookupHopsSig:vector  ETV
vector 2100395  Network.dyn_peer[108]  lookupStabilitySig:vector  ETV
vector 2100396  Network.dyn_peer[108]  lookupTimeSig:vector  ETV
vector 2100217  Network.dyn_peer[49]  lookupHopsSig:vector  ETV
vector 2100218  Network.dyn_peer[49]  lookupStabilitySig:vector  ETV
vector 2100219  Network.dyn_peer[49]  lookupTimeSig:vector  ETV
vector 2100343  Network.dyn_peer[91]  lookupHopsSig:vector  ETV
vector 2100344  Network.dyn_peer[91]  lookupStabilitySig:vector  ETV
vector 2100345  Network.dyn_peer[91]  lookupTimeSig:vector  ETV
vector 2100106  Network.dyn_peer[12]  lookupHopsSig:vector  ETV
vector 2100107  Network.dyn_peer[12]  lookupStabilitySig:vector  ETV
vector 2100108  Network.dyn_peer[12]  lookupTimeSig:vector  ETV
vector 2100109  Network.dyn_peer[13]  lookupHopsSig:vector  ETV
vector 2100110  Network.dyn_peer[13]  lookupStabilitySig:vector  ETV
vector 2100111  Network.dyn_peer[13]  lookupTimeSig:vector  ETV
vector 2100199  Network.dyn_peer[43]  lookupHopsSig:vector  ETV
vector 2100200  Network.dyn_peer[43]  lookupStabilitySig:vector  ETV
vector 2100201  Network.dyn_peer[43]  lookupTimeSig:vector  ETV
vector 2100262  Network.dyn_peer[64]  lookupHopsSig:vector  ETV
vector 2100263  Network.dyn_peer[64]  lookupStabilitySig:vector  ETV
vector 2100264  Network.dyn_peer[64]  lookupTimeSig:vector  ETV
vector 2100295  Network.dyn_peer[75]  lookupHopsSig:vector  ETV
vector 2100296  Network.dyn_peer[75]  lookupStabilitySig:vector  ETV
vector 2100297  Network.dyn_peer[75]  lookupTimeSig:vector  ETV
vector 2100301  Network.dyn_peer[77]  lookupHopsSig:vector  ETV
vector 2100302  Network.dyn_peer[77]  lookupStabilitySig:vector  ETV
vector 2100303  Network.dyn_peer[77]  lookupTimeSig:vector  ETV
vector 2100277  Network.dyn_peer[69]  lookupHopsSig:vector  ETV
vector 2100278  Network.dyn_peer[69]  lookupStabilitySig:vector  ETV
vector 2100279  Network.dyn_peer[69]  lookupTimeSig:vector  ETV
vector 2100445  Network.dyn_peer[125]  lookupHopsSig:vector  ETV
vector 2100446  Network.dyn_peer[125]  lookupStabilitySig:vector  ETV
vector 2100447  Network.dyn_peer[125]  lookupTimeSig:vector  ETV
vector 2100307  Network.dyn_peer[79]  lookupHopsSig:vector  ETV
vector 2100308  Network.dyn_peer[79]  lookupStabilitySig:vector  ETV
vector 2100309  Network.dyn_peer[79]  lookupTimeSig:vector  ETV
vector 2100367  Network.dyn_peer[99]  lookupHopsSig:vector  ETV
vector 2100368  Network.dyn_peer[99]  lookupStabilitySig:vector  ETV
vector 2100369  Network.dyn_peer[99]  lookupTimeSig:vector  ETV
vector 2100487  Network.dyn_peer[139]  lookupHopsSig:vector  ETV
vector 2100488  Network.dyn_peer[139]  lookupStabilitySig:vector  ETV
vector 2100489  Network.dyn_peer[139]  lookupTimeSig:vector  ETV
vector 2100361  Network.dyn_peer[97]  lookupHopsSig:vector  ETV
vector 2100362  Network.dyn_peer[97]  lookupStabilitySig:vector  ETV
vector 2100363  Network.dyn_peer[97]  lookupTimeSig:vector  ETV
vector 2100313  Network.dyn_peer[81]  lookupHopsSig:vector  ETV
vector 2100314  Network.dyn_peer[81]  lookupStabilitySig:vector  ETV
vector 2100315  Network.dyn_peer[81]  lookupTimeSig:vector  ETV
vector 2100379  Network.dyn_peer[103]  lookupHopsSig:vector  ETV
vector 2100380  Network.dyn_peer[103]  lookupStabilitySig:vector  ETV
vector 2100381  Network.dyn_peer[103]  lookupTimeSig:vector  ETV
vector 2100352  Network.dyn_peer[94]  lookupHopsSig:vector  ETV
vector 2100353  Network.dyn_peer[94]  lookupStabilitySig:vector  ETV
vector 2100354  Network.dyn_peer[94]  lookupTimeSig:vector  ETV
vector 2100382  Network.dyn_peer[104]  lookupHopsSig:vector  ETV
vector 2100383  Network.dyn_peer[104]  lookupStabilitySig:vector  ETV
vector 2100384  Network.dyn_peer[104]  lookupTimeSig:vector  ETV
vector 2100211  Network.dyn_peer[47]  lookupHopsSig:vector  ETV
vector 2100212  Network.dyn_peer[47]  lookupStabilitySig:vector  ETV
vector 2100213  Network.dyn_peer[47]  lookupTimeSig:vector  ETV
vector 2100481  Network.dyn_peer[137]  lookupHopsSig:vector  ETV
vector 2100482  Network.dyn_peer[137]  lookupStabilitySig:vector  ETV
vector 2100483  Network.dyn_peer[137]  lookupTimeSig:vector  ETV
vector 2100337  Network.dyn_peer[89]  lookupHopsSig:vector  ETV
vector 2100338  Network.dyn_peer[89]  lookupStabilitySig:vector  ETV
vector 2100339  Network.dyn_peer[89]  lookupTimeSig:vector  ETV
vector 2100400  Network.dyn_peer[110]  lookupHopsSig:vector  ETV
vector 2100401  Network.dyn_peer[110]  lookupStabilitySig:vector  ETV
vector 2100402  Network.dyn_peer[110]  lookupTimeSig:vector  ETV
vector 2100319  Network.dyn_peer[83]  lookupHopsSig:vector  ETV
vector 2100320  Network.dyn_peer[83]  lookupStabilitySig:vector  ETV
vector 2100321  Network.dyn_peer[83]  lookupTimeSig:vector  ETV
vector 2100439  Network.dyn_peer[123]  lookupHopsSig:vector  ETV
vector 2100440  Network.dyn_peer[123]  lookupStabilitySig:vector  ETV
vector 2100441  Network.dyn_peer[123]  lookupTimeSig:vector  ETV
vector 2100559  Network.dyn_peer[163]  lookupHopsSig:vector  ETV
vector 2100560  Network.dyn_peer[163]  lookupStabilitySig:vector  ETV
vector 2100561  Network.dyn_peer[163]  lookupTimeSig:vector  ETV
vector 2100205  Network.dyn_peer[45]  lookupHopsSig:vector  ETV
vector 2100206  Network.dyn_peer[45]  lookupStabilitySig:vector  ETV
vector 2100207  Network.dyn_peer[45]  lookupTimeSig:vector  ETV
vector 2100505  Network.dyn_peer[145]  lookupHopsSig:vector  ETV
vector 2100506  Network.dyn_peer[145]  lookupStabilitySig:vector  ETV
vector 2100507  Network.dyn_peer[145]  lookupTimeSig:vector  ETV
vector 2100391  Network.dyn_peer[107]  lookupHopsSig:vector  ETV
vector 2100392  Network.dyn_peer[107]  lookupStabilitySig:vector  ETV
vector 2100393  Network.dyn_peer[107]  lookupTimeSig:vector  ETV
vector 2100421  Network.dyn_peer[117]  lookupHopsSig:vector  ETV
vector 2100422  Network.dyn_peer[117]  lookupStabilitySig:vector  ETV
vector 2100423  Network.dyn_peer[117]  lookupTimeSig:vector  ETV
vector 2100427  Network.dyn_peer[119]  lookupHopsSig:vector  ETV
vector 2100428  Network.dyn_peer[119]  lookupStabilitySig:vector  ETV
vector 2100429  Network.dyn_peer[119]  lookupTimeSig:vector  ETV
vector 2100310  Network.dyn_peer[80]  lookupHopsSig:vector  ETV
vector 2100311  Network.dyn_peer[80]  lookupStabilitySig:vector  ETV
vector 2100312  Network.dyn_peer[80]  lookupTimeSig:vector  ETV
vector 2100520  Network.dyn_peer[150]  lookupHopsSig:vector  ETV
vector 2100521  Network.dyn_peer[150]  lookupStabilitySig:vector  ETV
vector 2100522  Network.dyn_peer[150]  lookupTimeSig:vector  ETV
vector 2100403  Network.dyn_peer[111]  lookupHopsSig:vector  ETV
vector 2100404  Network.dyn_peer[111]  lookupStabilitySig:vector  ETV
vector 2100405  Network.dyn_peer[111]  lookupTimeSig:vector  ETV
vector 2100436  Network.dyn_peer[122]  lookupHopsSig:vector  ETV
vector 2100437  Network.dyn_peer[122]  lookupStabilitySig:vector  ETV
vector 2100438  Network.dyn_peer[122]  lookupTimeSig:vector  ETV
vector 2100472  Network.dyn_peer[134]  lookupHopsSig:vector  ETV
vector 2100473  Network.dyn_peer[134]  lookupStabilitySig:vector  ETV
vector 2100474  Network.dyn_peer[134]  lookupTimeSig:vector  ETV
vector 2100532  Network.dyn_peer[154]  lookupHopsSig:vector  ETV
vector 2100533  Network.dyn_peer[154]  lookupStabilitySig:vector  ETV
vector 2100534  Network.dyn_peer[154]  lookupTimeSig:vector  ETV
vector 2100175  Network.dyn_peer[35]  lookupHopsSig:vector  ETV
vector 2100176  Network.dyn_peer[35]  lookupStabilitySig:vector  ETV
vector 2100177  Network.dyn_peer[35]  lookupTimeSig:vector  ETV
vector 2100325  Network.dyn_peer[85]  lookupHopsSig:vector  ETV
vector 2100326  Network.dyn_peer[85]  lookupStabilitySig:vector  ETV
vector 2100327  Network.dyn_peer[85]  lookupTimeSig:vector  ETV
vector 2100355  Network.dyn_peer[95]  lookupHopsSig:vector  ETV
vector 2100356  Network.dyn_peer[95]  lookupStabilitySig:vector  ETV
vector 2100357  Network.dyn_peer[95]  lookupTimeSig:vector  ETV
vector 2100268  Network.dyn_peer[66]  lookupHopsSig:vector  ETV
vector 2100269  Network.dyn_peer[66]  lookupStabilitySig:vector  ETV
vector 2100270  Network.dyn_peer[66]  lookupTimeSig:vector  ETV
vector 2100568  Network.dyn_peer[166]  lookupHopsSig:vector  ETV
vector 2100569  Network.dyn_peer[166]  lookupStabilitySig:vector  ETV
vector 2100570  Network.dyn_peer[166]  lookupTimeSig:vector  ETV
vector 2100244  Network.dyn_peer[58]  lookupHopsSig:vector  ETV
vector 2100245  Network.dyn_peer[58]  lookupStabilitySig:vector  ETV
vector 2100246  Network.dyn_peer[58]  lookupTimeSig:vector  ETV
vector 2100397  Network.dyn_peer[109]  lookupHopsSig:vector  ETV
vector 2100398  Network.dyn_peer[109]  lookupStabilitySig:vector  ETV
vector 2100399  Network.dyn_peer[109]  lookupTimeSig:vector  ETV
vector 2100457  Network.dyn_peer[129]  lookupHopsSig:vector  ETV
vector 2100458  Network.dyn_peer[129]  lookupStabilitySig:vector  ETV
vector 2100459  Network.dyn_peer[129]  lookupTimeSig:vector  ETV
vector 2100340  Network.dyn_peer[90]  lookupHopsSig:vector  ETV
vector 2100341  Network.dyn_peer[90]  lookupStabilitySig:vector  ETV
vector 2100342  Network.dyn_peer[90]  lookupTimeSig:vector  ETV
vector 2100430  Network.dyn_peer[120]  lookupHopsSig:vector  ETV
vector 2100431  Network.dyn_peer[120]  lookupStabilitySig:vector  ETV
vector 2100432  Network.dyn_peer[120]  lookupTimeSig:vector  ETV
vector 2100163  Network.dyn_peer[31]  lookupHopsSig:vector  ETV
vector 2100164  Network.dyn_peer[31]  lookupStabilitySig:vector  ETV
vector 2100165  Network.dyn_peer[31]  lookupTimeSig:vector  ETV
vector 2100499  Network.dyn_peer[143]  lookupHopsSig:vector  ETV
vector 2100500  Network.dyn_peer[143]  lookupStabilitySig:vector  ETV
vector 2100501  Network.dyn_peer[143]  lookupTimeSig:vector  ETV
vector 2100238  Network.dyn_peer[56]  lookupHopsSig:vector  ETV
vector 2100239  Network.dyn_peer[56]  lookupStabilitySig:vector  ETV
vector 2100240  Network.dyn_peer[56]  lookupTimeSig:vector  ETV
vector 2100388  Network.dyn_peer[106]  lookupHopsSig:vector  ETV
vector 2100389  Network.dyn_peer[106]  lookupStabilitySig:vector  ETV
vector 2100390  Network.dyn_peer[106]  lookupTimeSig:vector  ETV
vector 2100583  Network.dyn_peer[171]  lookupHopsSig:vector  ETV
vector 2100584  Network.dyn_peer[171]  lookupStabilitySig:vector  ETV
vector 2100585  Network.dyn_peer[171]  lookupTimeSig:vector  ETV
vector 2100376  Network.dyn_peer[102]  lookupHopsSig:vector  ETV
vector 2100377  Network.dyn_peer[102]  lookupStabilitySig:vector  ETV
vector 2100378  Network.dyn_peer[102]  lookupTimeSig:vector  ETV
vector 2100652  Network.dyn_peer[194]  lookupHopsSig:vector  ETV
vector 2100653  Network.dyn_peer[194]  lookupStabilitySig:vector  ETV
vector 2100654  Network.dyn_peer[194]  lookupTimeSig:vector  ETV
vector 2100178  Network.dyn_peer[36]  lookupHopsSig:vector  ETV
vector 2100179  Network.dyn_peer[36]  lookupStabilitySig:vector  ETV
vector 2100180  Network.dyn_peer[36]  lookupTimeSig:vector  ETV
vector 2100448  Network.dyn_peer[126]  lookupHopsSig:vector  ETV
vector 2100449  Network.dyn_peer[126]  lookupStabilitySig:vector  ETV
vector 2100450  Network.dyn_peer[126]  lookupTimeSig:vector  ETV
vector 2100508  Network.dyn_peer[146]  lookupHopsSig:vector  ETV
vector 2100509  Network.dyn_peer[146]  lookupStabilitySig:vector  ETV
vector 2100510  Network.dyn_peer[146]  lookupTimeSig:vector  ETV
vector 2100541  Network.dyn_peer[157]  lookupHopsSig:vector  ETV
vector 2100542  Network.dyn_peer[157]  lookupStabilitySig:vector  ETV
vector 2100543  Network.dyn_peer[157]  lookupTimeSig:vector  ETV
vector 2100424  Network.dyn_peer[118]  lookupHopsSig:vector  ETV
vector 2100425  Network.dyn_peer[118]  lookupStabilitySig:vector  ETV
vector 2100426  Network.dyn_peer[118]  lookupTimeSig:vector  ETV
vector 2100370  Network.dyn_peer[100]  lookupHopsSig:vector  ETV
vector 2100371  Network.dyn_peer[100]  lookupStabilitySig:vector  ETV
vector 2100372  Network.dyn_peer[100]  lookupTimeSig:vector  ETV
vector 2100460  Network.dyn_peer[130]  lookupHopsSig:vector  ETV
vector 2100461  Network.dyn_peer[130]  lookupStabilitySig:vector  ETV
vector 2100462  Network.dyn_peer[130]  lookupTimeSig:vector  ETV
vector 2100523  Network.dyn_peer[151]  lookupHopsSig:vector  ETV
vector 2100524  Network.dyn_peer[151]  lookupStabilitySig:vector  ETV
vector 2100525  Network.dyn_peer[151]  lookupTimeSig:vector  ETV
vector 2100586  Network.dyn_peer[172]  lookupHopsSig:vector  ETV
vector 2100587  Network.dyn_peer[172]  lookupStabilitySig:vector  ETV
vector 2100588  Network.dyn_peer[172]  lookupTimeSig:vector  ETV
vector 2100469  Network.dyn_peer[133]  lookupHopsSig:vector  ETV
vector 2100470  Network.dyn_peer[133]  lookupStabilitySig:vector  ETV
vector 2100471  Network.dyn_peer[133]  lookupTimeSig:vector  ETV
vector 2100622  Network.dyn_peer[184]  lookupHopsSig:vector  ETV
vector 2100623  Network.dyn_peer[184]  lookupStabilitySig:vector  ETV
vector 2100624  Network.dyn_peer[184]  lookupTimeSig:vector  ETV
vector 2100154  Network.dyn_peer[28]  lookupHopsSig:vector  ETV
vector 2100155  Network.dyn_peer[28]  lookupStabilitySig:vector  ETV
vector 2100156  Network.dyn_peer[28]  lookupTimeSig:vector  ETV
vector 2100334  Network.dyn_peer[88]  lookupHopsSig:vector  ETV
vector 2100335  Network.dyn_peer[88]  lookupStabilitySig:vector  ETV
vector 2100336  Network.dyn_peer[88]  lookupTimeSig:vector  ETV
vector 2100364  Network.dyn_peer[98]  lookupHopsSig:vector  ETV
vector 2100365  Network.dyn_peer[98]  lookupStabilitySig:vector  ETV
vector 2100366  Network.dyn_peer[98]  lookupTimeSig:vector  ETV
vector 2100580  Network.dyn_peer[170]  lookupHopsSig:vector  ETV
vector 2100581  Network.dyn_peer[170]  lookupStabilitySig:vector  ETV
vector 2100582  Network.dyn_peer[170]  lookupTimeSig:vector  ETV
vector 2100253  Network.dyn_peer[61]  lookupHopsSig:vector  ETV
vector 2100254  Network.dyn_peer[61]  lookupStabilitySig:vector  ETV
vector 2100255  Network.dyn_peer[61]  lookupTimeSig:vector  ETV
vector 2100463  Network.dyn_peer[131]  lookupHopsSig:vector  ETV
vector 2100464  Network.dyn_peer[131]  lookupStabilitySig:vector  ETV
vector 2100465  Network.dyn_peer[131]  lookupTimeSig:vector  ETV
vector 2100613  Network.dyn_peer[181]  lookupHopsSig:vector  ETV
vector 2100614  Network.dyn_peer[181]  lookupStabilitySig:vector  ETV
vector 2100615  Network.dyn_peer[181]  lookupTimeSig:vector  ETV
vector 2100466  Network.dyn_peer[132]  lookupHopsSig:vector  ETV
vector 2100467  Network.dyn_peer[132]  lookupStabilitySig:vector  ETV
vector 2100468  Network.dyn_peer[132]  lookupTimeSig:vector  ETV
vector 2100349  Network.dyn_peer[93]  lookupHopsSig:vector  ETV
vector 2100350  Network.dyn_peer[93]  lookupStabilitySig:vector  ETV
vector 2100351  Network.dyn_peer[93]  lookupTimeSig:vector  ETV
vector 2100502  Network.dyn_peer[144]  lookupHopsSig:vector  ETV
vector 2100503  Network.dyn_peer[144]  lookupStabilitySig:vector  ETV
vector 2100504  Network.dyn_peer[144]  lookupTimeSig:vector  ETV
vector 2100475  Network.dyn_peer[135]  lookupHopsSig:vector  ETV
vector 2100476  Network.dyn_peer[135]  lookupStabilitySig:vector  ETV
vector 2100477  Network.dyn_peer[135]  lookupTimeSig:vector  ETV
vector 2100418  Network.dyn_peer[116]  lookupHopsSig:vector  ETV
vector 2100419  Network.dyn_peer[116]  lookupStabilitySig:vector  ETV
vector 2100420  Network.dyn_peer[116]  lookupTimeSig:vector  ETV
vector 2100598  Network.dyn_peer[176]  lookupHopsSig:vector  ETV
vector 2100599  Network.dyn_peer[176]  lookupStabilitySig:vector  ETV
vector 2100600  Network.dyn_peer[176]  lookupTimeSig:vector  ETV
vector 2100658  Network.dyn_peer[196]  lookupHopsSig:vector  ETV
vector 2100659  Network.dyn_peer[196]  lookupStabilitySig:vector  ETV
vector 2100660  Network.dyn_peer[196]  lookupTimeSig:vector  ETV
vector 2100574  Network.dyn_peer[168]  lookupHopsSig:vector  ETV
vector 2100575  Network.dyn_peer[168]  lookupStabilitySig:vector  ETV
vector 2100576  Network.dyn_peer[168]  lookupTimeSig:vector  ETV
vector 2100604  Network.dyn_peer[178]  lookupHopsSig:vector  ETV
vector 2100605  Network.dyn_peer[178]  lookupStabilitySig:vector  ETV
vector 2100606  Network.dyn_peer[178]  lookupTimeSig:vector  ETV
vector 2100577  Network.dyn_peer[169]  lookupHopsSig:vector  ETV
vector 2100578  Network.dyn_peer[169]  lookupStabilitySig:vector  ETV
vector 2100579  Network.dyn_peer[169]  lookupTimeSig:vector  ETV
vector 2100637  Network.dyn_peer[189]  lookupHopsSig:vector  ETV
vector 2100638  Network.dyn_peer[189]  lookupStabilitySig:vector  ETV
vector 2100639  Network.dyn_peer[189]  lookupTimeSig:vector  ETV
vector 2100526  Network.dyn_peer[152]  lookupHopsSig:vector  ETV
vector 2100527  Network.dyn_peer[152]  lookupStabilitySig:vector  ETV
vector 2100528  Network.dyn_peer[152]  lookupTimeSig:vector  ETV
vector 2100616  Network.dyn_peer[182]  lookupHopsSig:vector  ETV
vector 2100617  Network.dyn_peer[182]  lookupStabilitySig:vector  ETV
vector 2100618  Network.dyn_peer[182]  lookupTimeSig:vector  ETV
vector 2100235  Network.dyn_peer[55]  lookupHopsSig:vector  ETV
vector 2100236  Network.dyn_peer[55]  lookupStabilitySig:vector  ETV
vector 2100237  Network.dyn_peer[55]  lookupTimeSig:vector  ETV
vector 2100535  Network.dyn_peer[155]  lookupHopsSig:vector  ETV
vector 2100536  Network.dyn_peer[155]  lookupStabilitySig:vector  ETV
vector 2100537  Network.dyn_peer[155]  lookupTimeSig:vector  ETV
vector 2100241  Network.dyn_peer[57]  lookupHopsSig:vector  ETV
vector 2100242  Network.dyn_peer[57]  lookupStabilitySig:vector  ETV
vector 2100243  Network.dyn_peer[57]  lookupTimeSig:vector  ETV
vector 2100214  Network.dyn_peer[48]  lookupHopsSig:vector  ETV
vector 2100215  Network.dyn_peer[48]  lookupStabilitySig:vector  ETV
vector 2100216  Network.dyn_peer[48]  lookupTimeSig:vector  ETV
vector 2100607  Network.dyn_peer[179]  lookupHopsSig:vector  ETV
vector 2100608  Network.dyn_peer[179]  lookupStabilitySig:vector  ETV
vector 2100609  Network.dyn_peer[179]  lookupTimeSig:vector  ETV