file 2013264 1369697482                                         
version 2
run Stability2-65-20130528-01:30:59-24168
attr configname Stability2
attr datetime 20130528-01:30:59
attr experiment Stability2
attr inifile omnetpp.ini
attr iterationvars $0=200
attr iterationvars2 "$0=200, $repetition=5"
attr measurement $0=200
attr network Network
attr processid 24168
attr repetition 5
attr replication #5
attr resultdir results
attr runnumber 65
attr seedset 65

vector 1980065  Network.churner  inGoingSizeSig:vector  ETV
vector 1950065  Network.dyn_peer[0]  lookupHopsSig:vector  ETV
vector 1950066  Network.dyn_peer[0]  lookupStabilitySig:vector  ETV
vector 1950067  Network.dyn_peer[0]  lookupTimeSig:vector  ETV
vector 1950080  Network.dyn_peer[5]  lookupHopsSig:vector  ETV
vector 1950081  Network.dyn_peer[5]  lookupStabilitySig:vector  ETV
vector 1950082  Network.dyn_peer[5]  lookupTimeSig:vector  ETV
vector 1950071  Network.dyn_peer[2]  lookupHopsSig:vector  ETV
vector 1950072  Network.dyn_peer[2]  lookupStabilitySig:vector  ETV
vector 1950073  Network.dyn_peer[2]  lookupTimeSig:vector  ETV
vector 1950086  Network.dyn_peer[7]  lookupHopsSig:vector  ETV
vector 1950087  Network.dyn_peer[7]  lookupStabilitySig:vector  ETV
vector 1950088  Network.dyn_peer[7]  lookupTimeSig:vector  ETV
vector 1950092  Network.dyn_peer[9]  lookupHopsSig:vector  ETV
vector 1950093  Network.dyn_peer[9]  lookupStabilitySig:vector  ETV
vector 1950094  Network.dyn_peer[9]  lookupTimeSig:vector  ETV
vector 1950068  Network.dyn_peer[1]  lookupHopsSig:vector  ETV
vector 1950069  Network.dyn_peer[1]  lookupStabilitySig:vector  ETV
vector 1950070  Network.dyn_peer[1]  lookupTimeSig:vector  ETV
vector 1950101  Network.dyn_peer[12]  lookupHopsSig:vector  ETV
vector 1950102  Network.dyn_peer[12]  lookupStabilitySig:vector  ETV
vector 1950103  Network.dyn_peer[12]  lookupTimeSig:vector  ETV
vector 1950104  Network.dyn_peer[13]  lookupHopsSig:vector  ETV
vector 1950105  Network.dyn_peer[13]  lookupStabilitySig:vector  ETV
vector 1950106  Network.dyn_peer[13]  lookupTimeSig:vector  ETV
vector 1950077  Network.dyn_peer[4]  lookupHopsSig:vector  ETV
vector 1950078  Network.dyn_peer[4]  lookupStabilitySig:vector  ETV
vector 1950079  Network.dyn_peer[4]  lookupTimeSig:vector  ETV
vector 1950107  Network.dyn_peer[14]  lookupHopsSig:vector  ETV
vector 1950108  Network.dyn_peer[14]  lookupStabilitySig:vector  ETV
vector 1950109  Network.dyn_peer[14]  lookupTimeSig:vector  ETV
vector 1950083  Network.dyn_peer[6]  lookupHopsSig:vector  ETV
vector 1950084  Network.dyn_peer[6]  lookupStabilitySig:vector  ETV
vector 1950085  Network.dyn_peer[6]  lookupTimeSig:vector  ETV
vector 1950089  Network.dyn_peer[8]  lookupHopsSig:vector  ETV
vector 1950090  Network.dyn_peer[8]  lookupStabilitySig:vector  ETV
vector 1950091  Network.dyn_peer[8]  lookupTimeSig:vector  ETV
vector 1950149  Network.dyn_peer[28]  lookupHopsSig:vector  ETV
vector 1950150  Network.dyn_peer[28]  lookupStabilitySig:vector  ETV
vector 1950151  Network.dyn_peer[28]  lookupTimeSig:vector  ETV
vector 1950122  Network.dyn_peer[19]  lookupHopsSig:vector  ETV
vector 1950123  Network.dyn_peer[19]  lookupStabilitySig:vector  ETV
vector 1950124  Network.dyn_peer[19]  lookupTimeSig:vector  ETV
vector 1950095  Network.dyn_peer[10]  lookupHopsSig:vector  ETV
vector 1950096  Network.dyn_peer[10]  lookupStabilitySig:vector  ETV
vector 1950097  Network.dyn_peer[10]  lookupTimeSig:vector  ETV
vector 1950131  Network.dyn_peer[22]  lookupHopsSig:vector  ETV
vector 1950132  Network.dyn_peer[22]  lookupStabilitySig:vector  ETV
vector 1950133  Network.dyn_peer[22]  lookupTimeSig:vector  ETV
vector 1950134  Network.dyn_peer[23]  lookupHopsSig:vector  ETV
vector 1950135  Network.dyn_peer[23]  lookupStabilitySig:vector  ETV
vector 1950136  Network.dyn_peer[23]  lookupTimeSig:vector  ETV
vector 1950113  Network.dyn_peer[16]  lookupHopsSig:vector  ETV
vector 1950114  Network.dyn_peer[16]  lookupStabilitySig:vector  ETV
vector 1950115  Network.dyn_peer[16]  lookupTimeSig:vector  ETV
vector 1950119  Network.dyn_peer[18]  lookupHopsSig:vector  ETV
vector 1950120  Network.dyn_peer[18]  lookupStabilitySig:vector  ETV
vector 1950121  Network.dyn_peer[18]  lookupTimeSig:vector  ETV
vector 1950074  Network.dyn_peer[3]  lookupHopsSig:vector  ETV
vector 1950075  Network.dyn_peer[3]  lookupStabilitySig:vector  ETV
vector 1950076  Network.dyn_peer[3]  lookupTimeSig:vector  ETV
vector 1950143  Network.dyn_peer[26]  lookupHopsSig:vector  ETV
vector 1950144  Network.dyn_peer[26]  lookupStabilitySig:vector  ETV
vector 1950145  Network.dyn_peer[26]  lookupTimeSig:vector  ETV
vector 1950116  Network.dyn_peer[17]  lookupHopsSig:vector  ETV
vector 1950117  Network.dyn_peer[17]  lookupStabilitySig:vector  ETV
vector 1950118  Network.dyn_peer[17]  lookupTimeSig:vector  ETV
vector 1950098  Network.dyn_peer[11]  lookupHopsSig:vector  ETV
vector 1950099  Network.dyn_peer[11]  lookupStabilitySig:vector  ETV
vector 1950100  Network.dyn_peer[11]  lookupTimeSig:vector  ETV
vector 1950128  Network.dyn_peer[21]  lookupHopsSig:vector  ETV
vector 1950129  Network.dyn_peer[21]  lookupStabilitySig:vector  ETV
vector 1950130  Network.dyn_peer[21]  lookupTimeSig:vector  ETV
vector 1950227  Network.dyn_peer[54]  lookupHopsSig:vector  ETV
vector 1950228  Network.dyn_peer[54]  lookupStabilitySig:vector  ETV
vector 1950229  Network.dyn_peer[54]  lookupTimeSig:vector  ETV
vector 1950110  Network.dyn_peer[15]  lookupHopsSig:vector  ETV
vector 1950111  Network.dyn_peer[15]  lookupStabilitySig:vector  ETV
vector 1950112  Network.dyn_peer[15]  lookupTimeSig:vector  ETV
vector 1950209  Network.dyn_peer[48]  lookupHopsSig:vector  ETV
vector 1950210  Network.dyn_peer[48]  lookupStabilitySig:vector  ETV
vector 1950211  Network.dyn_peer[48]  lookupTimeSig:vector  ETV
vector 1950152  Network.dyn_peer[29]  lookupHopsSig:vector  ETV
vector 1950153  Network.dyn_peer[29]  lookupStabilitySig:vector  ETV
vector 1950154  Network.dyn_peer[29]  lookupTimeSig:vector  ETV
vector 1950212  Network.dyn_peer[49]  lookupHopsSig:vector  ETV
vector 1950213  Network.dyn_peer[49]  lookupStabilitySig:vector  ETV
vector 1950214  Network.dyn_peer[49]  lookupTimeSig:vector  ETV
vector 1950125  Network.dyn_peer[20]  lookupHopsSig:vector  ETV
vector 1950126  Network.dyn_peer[20]  lookupStabilitySig:vector  ETV
vector 1950127  Network.dyn_peer[20]  lookupTimeSig:vector  ETV
vector 1950140  Network.dyn_peer[25]  lookupHopsSig:vector  ETV
vector 1950141  Network.dyn_peer[25]  lookupStabilitySig:vector  ETV
vector 1950142  Network.dyn_peer[25]  lookupTimeSig:vector  ETV
vector 1950206  Network.dyn_peer[47]  lookupHopsSig:vector  ETV
vector 1950207  Network.dyn_peer[47]  lookupStabilitySig:vector  ETV
vector 1950208  Network.dyn_peer[47]  lookupTimeSig:vector  ETV
vector 1950236  Network.dyn_peer[57]  lookupHopsSig:vector  ETV
vector 1950237  Network.dyn_peer[57]  lookupStabilitySig:vector  ETV
vector 1950238  Network.dyn_peer[57]  lookupTimeSig:vector  ETV
vector 1950251  Network.dyn_peer[62]  lookupHopsSig:vector  ETV
vector 1950252  Network.dyn_peer[62]  lookupStabilitySig:vector  ETV
vector 1950253  Network.dyn_peer[62]  lookupTimeSig:vector  ETV
vector 1950170  Network.dyn_peer[35]  lookupHopsSig:vector  ETV
vector 1950171  Network.dyn_peer[35]  lookupStabilitySig:vector  ETV
vector 1950172  Network.dyn_peer[35]  lookupTimeSig:vector  ETV
vector 1950275  Network.dyn_peer[70]  lookupHopsSig:vector  ETV
vector 1950276  Network.dyn_peer[70]  lookupStabilitySig:vector  ETV
vector 1950277  Network.dyn_peer[70]  lookupTimeSig:vector  ETV
vector 1950260  Network.dyn_peer[65]  lookupHopsSig:vector  ETV
vector 1950261  Network.dyn_peer[65]  lookupStabilitySig:vector  ETV
vector 1950262  Network.dyn_peer[65]  lookupTimeSig:vector  ETV
vector 1950320  Network.dyn_peer[85]  lookupHopsSig:vector  ETV
vector 1950321  Network.dyn_peer[85]  lookupStabilitySig:vector  ETV
vector 1950322  Network.dyn_peer[85]  lookupTimeSig:vector  ETV
vector 1950176  Network.dyn_peer[37]  lookupHopsSig:vector  ETV
vector 1950177  Network.dyn_peer[37]  lookupStabilitySig:vector  ETV
vector 1950178  Network.dyn_peer[37]  lookupTimeSig:vector  ETV
vector 1950326  Network.dyn_peer[87]  lookupHopsSig:vector  ETV
vector 1950327  Network.dyn_peer[87]  lookupStabilitySig:vector  ETV
vector 1950328  Network.dyn_peer[87]  lookupTimeSig:vector  ETV
vector 1950215  Network.dyn_peer[50]  lookupHopsSig:vector  ETV
vector 1950216  Network.dyn_peer[50]  lookupStabilitySig:vector  ETV
vector 1950217  Network.dyn_peer[50]  lookupTimeSig:vector  ETV
vector 1950224  Network.dyn_peer[53]  lookupHopsSig:vector  ETV
vector 1950225  Network.dyn_peer[53]  lookupStabilitySig:vector  ETV
vector 1950226  Network.dyn_peer[53]  lookupTimeSig:vector  ETV
vector 1950167  Network.dyn_peer[34]  lookupHopsSig:vector  ETV
vector 1950168  Network.dyn_peer[34]  lookupStabilitySig:vector  ETV
vector 1950169  Network.dyn_peer[34]  lookupTimeSig:vector  ETV
vector 1950287  Network.dyn_peer[74]  lookupHopsSig:vector  ETV
vector 1950288  Network.dyn_peer[74]  lookupStabilitySig:vector  ETV
vector 1950289  Network.dyn_peer[74]  lookupTimeSig:vector  ETV
vector 1950179  Network.dyn_peer[38]  lookupHopsSig:vector  ETV
vector 1950180  Network.dyn_peer[38]  lookupStabilitySig:vector  ETV
vector 1950181  Network.dyn_peer[38]  lookupTimeSig:vector  ETV
vector 1950359  Network.dyn_peer[98]  lookupHopsSig:vector  ETV
vector 1950360  Network.dyn_peer[98]  lookupStabilitySig:vector  ETV
vector 1950361  Network.dyn_peer[98]  lookupTimeSig:vector  ETV
vector 1950155  Network.dyn_peer[30]  lookupHopsSig:vector  ETV
vector 1950156  Network.dyn_peer[30]  lookupStabilitySig:vector  ETV
vector 1950157  Network.dyn_peer[30]  lookupTimeSig:vector  ETV
vector 1950185  Network.dyn_peer[40]  lookupHopsSig:vector  ETV
vector 1950186  Network.dyn_peer[40]  lookupStabilitySig:vector  ETV
vector 1950187  Network.dyn_peer[40]  lookupTimeSig:vector  ETV
vector 1950221  Network.dyn_peer[52]  lookupHopsSig:vector  ETV
vector 1950222  Network.dyn_peer[52]  lookupStabilitySig:vector  ETV
vector 1950223  Network.dyn_peer[52]  lookupTimeSig:vector  ETV
vector 1950233  Network.dyn_peer[56]  lookupHopsSig:vector  ETV
vector 1950234  Network.dyn_peer[56]  lookupStabilitySig:vector  ETV
vector 1950235  Network.dyn_peer[56]  lookupTimeSig:vector  ETV
vector 1950239  Network.dyn_peer[58]  lookupHopsSig:vector  ETV
vector 1950240  Network.dyn_peer[58]  lookupStabilitySig:vector  ETV
vector 1950241  Network.dyn_peer[58]  lookupTimeSig:vector  ETV
vector 1950161  Network.dyn_peer[32]  lookupHopsSig:vector  ETV
vector 1950162  Network.dyn_peer[32]  lookupStabilitySig:vector  ETV
vector 1950163  Network.dyn_peer[32]  lookupTimeSig:vector  ETV
vector 1950257  Network.dyn_peer[64]  lookupHopsSig:vector  ETV
vector 1950258  Network.dyn_peer[64]  lookupStabilitySig:vector  ETV
vector 1950259  Network.dyn_peer[64]  lookupTimeSig:vector  ETV
vector 1950350  Network.dyn_peer[95]  lookupHopsSig:vector  ETV
vector 1950351  Network.dyn_peer[95]  lookupStabilitySig:vector  ETV
vector 1950352  Network.dyn_peer[95]  lookupTimeSig:vector  ETV
vector 1950299  Network.dyn_peer[78]  lookupHopsSig:vector  ETV
vector 1950300  Network.dyn_peer[78]  lookupStabilitySig:vector  ETV
vector 1950301  Network.dyn_peer[78]  lookupTimeSig:vector  ETV
vector 1950182  Network.dyn_peer[39]  lookupHopsSig:vector  ETV
vector 1950183  Network.dyn_peer[39]  lookupStabilitySig:vector  ETV
vector 1950184  Network.dyn_peer[39]  lookupTimeSig:vector  ETV
vector 1950332  Network.dyn_peer[89]  lookupHopsSig:vector  ETV
vector 1950333  Network.dyn_peer[89]  lookupStabilitySig:vector  ETV
vector 1950334  Network.dyn_peer[89]  lookupTimeSig:vector  ETV
vector 1950245  Network.dyn_peer[60]  lookupHopsSig:vector  ETV
vector 1950246  Network.dyn_peer[60]  lookupStabilitySig:vector  ETV
vector 1950247  Network.dyn_peer[60]  lookupTimeSig:vector  ETV
vector 1950188  Network.dyn_peer[41]  lookupHopsSig:vector  ETV
vector 1950189  Network.dyn_peer[41]  lookupStabilitySig:vector  ETV
vector 1950190  Network.dyn_peer[41]  lookupTimeSig:vector  ETV
vector 1950368  Network.dyn_peer[101]  lookupHopsSig:vector  ETV
vector 1950369  Network.dyn_peer[101]  lookupStabilitySig:vector  ETV
vector 1950370  Network.dyn_peer[101]  lookupTimeSig:vector  ETV
vector 1950191  Network.dyn_peer[42]  lookupHopsSig:vector  ETV
vector 1950192  Network.dyn_peer[42]  lookupStabilitySig:vector  ETV
vector 1950193  Network.dyn_peer[42]  lookupTimeSig:vector  ETV
vector 1950344  Network.dyn_peer[93]  lookupHopsSig:vector  ETV
vector 1950345  Network.dyn_peer[93]  lookupStabilitySig:vector  ETV
vector 1950346  Network.dyn_peer[93]  lookupTimeSig:vector  ETV
vector 1950269  Network.dyn_peer[68]  lookupHopsSig:vector  ETV
vector 1950270  Network.dyn_peer[68]  lookupStabilitySig:vector  ETV
vector 1950271  Network.dyn_peer[68]  lookupTimeSig:vector  ETV
vector 1950305  Network.dyn_peer[80]  lookupHopsSig:vector  ETV
vector 1950306  Network.dyn_peer[80]  lookupStabilitySig:vector  ETV
vector 1950307  Network.dyn_peer[80]  lookupTimeSig:vector  ETV
vector 1950335  Network.dyn_peer[90]  lookupHopsSig:vector  ETV
vector 1950336  Network.dyn_peer[90]  lookupStabilitySig:vector  ETV
vector 1950337  Network.dyn_peer[90]  lookupTimeSig:vector  ETV
vector 1950218  Network.dyn_peer[51]  lookupHopsSig:vector  ETV
vector 1950219  Network.dyn_peer[51]  lookupStabilitySig:vector  ETV
vector 1950220  Network.dyn_peer[51]  lookupTimeSig:vector  ETV
vector 1950338  Network.dyn_peer[91]  lookupHopsSig:vector  ETV
vector 1950339  Network.dyn_peer[91]  lookupStabilitySig:vector  ETV
vector 1950340  Network.dyn_peer[91]  lookupTimeSig:vector  ETV
vector 1950371  Network.dyn_peer[102]  lookupHopsSig:vector  ETV
vector 1950372  Network.dyn_peer[102]  lookupStabilitySig:vector  ETV
vector 1950373  Network.dyn_peer[102]  lookupTimeSig:vector  ETV
vector 1950164  Network.dyn_peer[33]  lookupHopsSig:vector  ETV
vector 1950165  Network.dyn_peer[33]  lookupStabilitySig:vector  ETV
vector 1950166  Network.dyn_peer[33]  lookupTimeSig:vector  ETV
vector 1950290  Network.dyn_peer[75]  lookupHopsSig:vector  ETV
vector 1950291  Network.dyn_peer[75]  lookupStabilitySig:vector  ETV
vector 1950292  Network.dyn_peer[75]  lookupTimeSig:vector  ETV
vector 1950173  Network.dyn_peer[36]  lookupHopsSig:vector  ETV
vector 1950174  Network.dyn_peer[36]  lookupStabilitySig:vector  ETV
vector 1950175  Network.dyn_peer[36]  lookupTimeSig:vector  ETV
vector 1950203  Network.dyn_peer[46]  lookupHopsSig:vector  ETV
vector 1950204  Network.dyn_peer[46]  lookupStabilitySig:vector  ETV
vector 1950205  Network.dyn_peer[46]  lookupTimeSig:vector  ETV
vector 1950293  Network.dyn_peer[76]  lookupHopsSig:vector  ETV
vector 1950294  Network.dyn_peer[76]  lookupStabilitySig:vector  ETV
vector 1950295  Network.dyn_peer[76]  lookupTimeSig:vector  ETV
vector 1950443  Network.dyn_peer[126]  lookupHopsSig:vector  ETV
vector 1950444  Network.dyn_peer[126]  lookupStabilitySig:vector  ETV
vector 1950445  Network.dyn_peer[126]  lookupTimeSig:vector  ETV
vector 1950392  Network.dyn_peer[109]  lookupHopsSig:vector  ETV
vector 1950393  Network.dyn_peer[109]  lookupStabilitySig:vector  ETV
vector 1950394  Network.dyn_peer[109]  lookupTimeSig:vector  ETV
vector 1950341  Network.dyn_peer[92]  lookupHopsSig:vector  ETV
vector 1950342  Network.dyn_peer[92]  lookupStabilitySig:vector  ETV
vector 1950343  Network.dyn_peer[92]  lookupTimeSig:vector  ETV
vector 1950254  Network.dyn_peer[63]  lookupHopsSig:vector  ETV
vector 1950255  Network.dyn_peer[63]  lookupStabilitySig:vector  ETV
vector 1950256  Network.dyn_peer[63]  lookupTimeSig:vector  ETV
vector 1950314  Network.dyn_peer[83]  lookupHopsSig:vector  ETV
vector 1950315  Network.dyn_peer[83]  lookupStabilitySig:vector  ETV
vector 1950316  Network.dyn_peer[83]  lookupTimeSig:vector  ETV
vector 1950137  Network.dyn_peer[24]  lookupHopsSig:vector  ETV
vector 1950138  Network.dyn_peer[24]  lookupStabilitySig:vector  ETV
vector 1950139  Network.dyn_peer[24]  lookupTimeSig:vector  ETV
vector 1950197  Network.dyn_peer[44]  lookupHopsSig:vector  ETV
vector 1950198  Network.dyn_peer[44]  lookupStabilitySig:vector  ETV
vector 1950199  Network.dyn_peer[44]  lookupTimeSig:vector  ETV
vector 1950437  Network.dyn_peer[124]  lookupHopsSig:vector  ETV
vector 1950438  Network.dyn_peer[124]  lookupStabilitySig:vector  ETV
vector 1950439  Network.dyn_peer[124]  lookupTimeSig:vector  ETV
vector 1950200  Network.dyn_peer[45]  lookupHopsSig:vector  ETV
vector 1950201  Network.dyn_peer[45]  lookupStabilitySig:vector  ETV
vector 1950202  Network.dyn_peer[45]  lookupTimeSig:vector  ETV
vector 1950296  Network.dyn_peer[77]  lookupHopsSig:vector  ETV
vector 1950297  Network.dyn_peer[77]  lookupStabilitySig:vector  ETV
vector 1950298  Network.dyn_peer[77]  lookupTimeSig:vector  ETV
vector 1950356  Network.dyn_peer[97]  lookupHopsSig:vector  ETV
vector 1950357  Network.dyn_peer[97]  lookupStabilitySig:vector  ETV
vector 1950358  Network.dyn_peer[97]  lookupTimeSig:vector  ETV
vector 1950194  Network.dyn_peer[43]  lookupHopsSig:vector  ETV
vector 1950195  Network.dyn_peer[43]  lookupStabilitySig:vector  ETV
vector 1950196  Network.dyn_peer[43]  lookupTimeSig:vector  ETV
vector 1950380  Network.dyn_peer[105]  lookupHopsSig:vector  ETV
vector 1950381  Network.dyn_peer[105]  lookupStabilitySig:vector  ETV
vector 1950382  Network.dyn_peer[105]  lookupTimeSig:vector  ETV
vector 1950410  Network.dyn_peer[115]  lookupHopsSig:vector  ETV
vector 1950411  Network.dyn_peer[115]  lookupStabilitySig:vector  ETV
vector 1950412  Network.dyn_peer[115]  lookupTimeSig:vector  ETV
vector 1950419  Network.dyn_peer[118]  lookupHopsSig:vector  ETV
vector 1950420  Network.dyn_peer[118]  lookupStabilitySig:vector  ETV
vector 1950421  Network.dyn_peer[118]  lookupTimeSig:vector  ETV
vector 1950362  Network.dyn_peer[99]  lookupHopsSig:vector  ETV
vector 1950363  Network.dyn_peer[99]  lookupStabilitySig:vector  ETV
vector 1950364  Network.dyn_peer[99]  lookupTimeSig:vector  ETV
vector 1950422  Network.dyn_peer[119]  lookupHopsSig:vector  ETV
vector 1950423  Network.dyn_peer[119]  lookupStabilitySig:vector  ETV
vector 1950424  Network.dyn_peer[119]  lookupTimeSig:vector  ETV
vector 1950482  Network.dyn_peer[139]  lookupHopsSig:vector  ETV
vector 1950483  Network.dyn_peer[139]  lookupStabilitySig:vector  ETV
vector 1950484  Network.dyn_peer[139]  lookupTimeSig:vector  ETV
vector 1950395  Network.dyn_peer[110]  lookupHopsSig:vector  ETV
vector 1950396  Network.dyn_peer[110]  lookupStabilitySig:vector  ETV
vector 1950397  Network.dyn_peer[110]  lookupTimeSig:vector  ETV
vector 1950518  Network.dyn_peer[151]  lookupHopsSig:vector  ETV
vector 1950519  Network.dyn_peer[151]  lookupStabilitySig:vector  ETV
vector 1950520  Network.dyn_peer[151]  lookupTimeSig:vector  ETV
vector 1950281  Network.dyn_peer[72]  lookupHopsSig:vector  ETV
vector 1950282  Network.dyn_peer[72]  lookupStabilitySig:vector  ETV
vector 1950283  Network.dyn_peer[72]  lookupTimeSig:vector  ETV
vector 1950374  Network.dyn_peer[103]  lookupHopsSig:vector  ETV
vector 1950375  Network.dyn_peer[103]  lookupStabilitySig:vector  ETV
vector 1950376  Network.dyn_peer[103]  lookupTimeSig:vector  ETV
vector 1950479  Network.dyn_peer[138]  lookupHopsSig:vector  ETV
vector 1950480  Network.dyn_peer[138]  lookupStabilitySig:vector  ETV
vector 1950481  Network.dyn_peer[138]  lookupTimeSig:vector  ETV
vector 1950278  Network.dyn_peer[71]  lookupHopsSig:vector  ETV
vector 1950279  Network.dyn_peer[71]  lookupStabilitySig:vector  ETV
vector 1950280  Network.dyn_peer[71]  lookupTimeSig:vector  ETV
vector 1950428  Network.dyn_peer[121]  lookupHopsSig:vector  ETV
vector 1950429  Network.dyn_peer[121]  lookupStabilitySig:vector  ETV
vector 1950430  Network.dyn_peer[121]  lookupTimeSig:vector  ETV
vector 1950434  Network.dyn_peer[123]  lookupHopsSig:vector  ETV
vector 1950435  Network.dyn_peer[123]  lookupStabilitySig:vector  ETV
vector 1950436  Network.dyn_peer[123]  lookupTimeSig:vector  ETV
vector 1950230  Network.dyn_peer[55]  lookupHopsSig:vector  ETV
vector 1950231  Network.dyn_peer[55]  lookupStabilitySig:vector  ETV
vector 1950232  Network.dyn_peer[55]  lookupTimeSig:vector  ETV
vector 1950263  Network.dyn_peer[66]  lookupHopsSig:vector  ETV
vector 1950264  Network.dyn_peer[66]  lookupStabilitySig:vector  ETV
vector 1950265  Network.dyn_peer[66]  lookupTimeSig:vector  ETV
vector 1950266  Network.dyn_peer[67]  lookupHopsSig:vector  ETV
vector 1950267  Network.dyn_peer[67]  lookupStabilitySig:vector  ETV
vector 1950268  Network.dyn_peer[67]  lookupTimeSig:vector  ETV
vector 1950329  Network.dyn_peer[88]  lookupHopsSig:vector  ETV
vector 1950330  Network.dyn_peer[88]  lookupStabilitySig:vector  ETV
vector 1950331  Network.dyn_peer[88]  lookupTimeSig:vector  ETV
vector 1950449  Network.dyn_peer[128]  lookupHopsSig:vector  ETV
vector 1950450  Network.dyn_peer[128]  lookupStabilitySig:vector  ETV
vector 1950451  Network.dyn_peer[128]  lookupTimeSig:vector  ETV
vector 1950242  Network.dyn_peer[59]  lookupHopsSig:vector  ETV
vector 1950243  Network.dyn_peer[59]  lookupStabilitySig:vector  ETV
vector 1950244  Network.dyn_peer[59]  lookupTimeSig:vector  ETV
vector 1950365  Network.dyn_peer[100]  lookupHopsSig:vector  ETV
vector 1950366  Network.dyn_peer[100]  lookupStabilitySig:vector  ETV
vector 1950367  Network.dyn_peer[100]  lookupTimeSig:vector  ETV
vector 1950485  Network.dyn_peer[140]  lookupHopsSig:vector  ETV
vector 1950486  Network.dyn_peer[140]  lookupStabilitySig:vector  ETV
vector 1950487  Network.dyn_peer[140]  lookupTimeSig:vector  ETV
vector 1950158  Network.dyn_peer[31]  lookupHopsSig:vector  ETV
vector 1950159  Network.dyn_peer[31]  lookupStabilitySig:vector  ETV
vector 1950160  Network.dyn_peer[31]  lookupTimeSig:vector  ETV
vector 1950464  Network.dyn_peer[133]  lookupHopsSig:vector  ETV
vector 1950465  Network.dyn_peer[133]  lookupStabilitySig:vector  ETV
vector 1950466  Network.dyn_peer[133]  lookupTimeSig:vector  ETV
vector 1950353  Network.dyn_peer[96]  lookupHopsSig:vector  ETV
vector 1950354  Network.dyn_peer[96]  lookupStabilitySig:vector  ETV
vector 1950355  Network.dyn_peer[96]  lookupTimeSig:vector  ETV
vector 1950602  Network.dyn_peer[179]  lookupHopsSig:vector  ETV
vector 1950603  Network.dyn_peer[179]  lookupStabilitySig:vector  ETV
vector 1950604  Network.dyn_peer[179]  lookupTimeSig:vector  ETV
vector 1950521  Network.dyn_peer[152]  lookupHopsSig:vector  ETV
vector 1950522  Network.dyn_peer[152]  lookupStabilitySig:vector  ETV
vector 1950523  Network.dyn_peer[152]  lookupTimeSig:vector  ETV
vector 1950584  Network.dyn_peer[173]  lookupHopsSig:vector  ETV
vector 1950585  Network.dyn_peer[173]  lookupStabilitySig:vector  ETV
vector 1950586  Network.dyn_peer[173]  lookupTimeSig:vector  ETV
vector 1950377  Network.dyn_peer[104]  lookupHopsSig:vector  ETV
vector 1950378  Network.dyn_peer[104]  lookupStabilitySig:vector  ETV
vector 1950379  Network.dyn_peer[104]  lookupTimeSig:vector  ETV
vector 1950497  Network.dyn_peer[144]  lookupHopsSig:vector  ETV
vector 1950498  Network.dyn_peer[144]  lookupStabilitySig:vector  ETV
vector 1950499  Network.dyn_peer[144]  lookupTimeSig:vector  ETV
vector 1950383  Network.dyn_peer[106]  lookupHopsSig:vector  ETV
vector 1950384  Network.dyn_peer[106]  lookupStabilitySig:vector  ETV
vector 1950385  Network.dyn_peer[106]  lookupTimeSig:vector  ETV
vector 1950386  Network.dyn_peer[107]  lookupHopsSig:vector  ETV
vector 1950387  Network.dyn_peer[107]  lookupStabilitySig:vector  ETV
vector 1950388  Network.dyn_peer[107]  lookupTimeSig:vector  ETV
vector 1950509  Network.dyn_peer[148]  lookupHopsSig:vector  ETV
vector 1950510  Network.dyn_peer[148]  lookupStabilitySig:vector  ETV
vector 1950511  Network.dyn_peer[148]  lookupTimeSig:vector  ETV
vector 1950272  Network.dyn_peer[69]  lookupHopsSig:vector  ETV
vector 1950273  Network.dyn_peer[69]  lookupStabilitySig:vector  ETV
vector 1950274  Network.dyn_peer[69]  lookupTimeSig:vector  ETV
vector 1950662  Network.dyn_peer[199]  lookupHopsSig:vector  ETV
vector 1950663  Network.dyn_peer[199]  lookupStabilitySig:vector  ETV
vector 1950664  Network.dyn_peer[199]  lookupTimeSig:vector  ETV
vector 1950575  Network.dyn_peer[170]  lookupHopsSig:vector  ETV
vector 1950576  Network.dyn_peer[170]  lookupStabilitySig:vector  ETV
vector 1950577  Network.dyn_peer[170]  lookupTimeSig:vector  ETV
vector 1950458  Network.dyn_peer[131]  lookupHopsSig:vector  ETV
vector 1950459  Network.dyn_peer[131]  lookupStabilitySig:vector  ETV
vector 1950460  Network.dyn_peer[131]  lookupTimeSig:vector  ETV
vector 1950311  Network.dyn_peer[82]  lookupHopsSig:vector  ETV
vector 1950312  Network.dyn_peer[82]  lookupStabilitySig:vector  ETV
vector 1950313  Network.dyn_peer[82]  lookupTimeSig:vector  ETV
vector 1950491  Network.dyn_peer[142]  lookupHopsSig:vector  ETV
vector 1950492  Network.dyn_peer[142]  lookupStabilitySig:vector  ETV
vector 1950493  Network.dyn_peer[142]  lookupTimeSig:vector  ETV
vector 1950323  Network.dyn_peer[86]  lookupHopsSig:vector  ETV
vector 1950324  Network.dyn_peer[86]  lookupStabilitySig:vector  ETV
vector 1950325  Network.dyn_peer[86]  lookupTimeSig:vector  ETV
vector 1950425  Network.dyn_peer[120]  lookupHopsSig:vector  ETV
vector 1950426  Network.dyn_peer[120]  lookupStabilitySig:vector  ETV
vector 1950427  Network.dyn_peer[120]  lookupTimeSig:vector  ETV
vector 1950548  Network.dyn_peer[161]  lookupHopsSig:vector  ETV
vector 1950549  Network.dyn_peer[161]  lookupStabilitySig:vector  ETV
vector 1950550  Network.dyn_peer[161]  lookupTimeSig:vector  ETV
vector 1950404  Network.dyn_peer[113]  lookupHopsSig:vector  ETV
vector 1950405  Network.dyn_peer[113]  lookupStabilitySig:vector  ETV
vector 1950406  Network.dyn_peer[113]  lookupTimeSig:vector  ETV
vector 1950530  Network.dyn_peer[155]  lookupHopsSig:vector  ETV
vector 1950531  Network.dyn_peer[155]  lookupStabilitySig:vector  ETV
vector 1950532  Network.dyn_peer[155]  lookupTimeSig:vector  ETV
vector 1950416  Network.dyn_peer[117]  lookupHopsSig:vector  ETV
vector 1950417  Network.dyn_peer[117]  lookupStabilitySig:vector  ETV
vector 1950418  Network.dyn_peer[117]  lookupTimeSig:vector  ETV
vector 1950476  Network.dyn_peer[137]  lookupHopsSig:vector  ETV
vector 1950477  Network.dyn_peer[137]  lookupStabilitySig:vector  ETV
vector 1950478  Network.dyn_peer[137]  lookupTimeSig:vector  ETV
vector 1950539  Network.dyn_peer[158]  lookupHopsSig:vector  ETV
vector 1950540  Network.dyn_peer[158]  lookupStabilitySig:vector  ETV
vector 1950541  Network.dyn_peer[158]  lookupTimeSig:vector  ETV
vector 1950440  Network.dyn_peer[125]  lookupHopsSig:vector  ETV
vector 1950441  Network.dyn_peer[125]  lookupStabilitySig:vector  ETV
vector 1950442  Network.dyn_peer[125]  lookupTimeSig:vector  ETV
vector 1950536  Network.dyn_peer[157]  lookupHopsSig:vector  ETV
vector 1950537  Network.dyn_peer[157]  lookupStabilitySig:vector  ETV
vector 1950538  Network.dyn_peer[157]  lookupTimeSig:vector  ETV
vector 1950572  Network.dyn_peer[169]  lookupHopsSig:vector  ETV
vector 1950573  Network.dyn_peer[169]  lookupStabilitySig:vector  ETV
vector 1950574  Network.dyn_peer[169]  lookupTimeSig:vector  ETV
vector 1950698  Network.dyn_peer[211]  lookupHopsSig:vector  ETV
vector 1950699  Network.dyn_peer[211]  lookupStabilitySig:vector  ETV
vector 1950700  Network.dyn_peer[211]  lookupTimeSig:vector  ETV
vector 1950284  Network.dyn_peer[73]  lookupHopsSig:vector  ETV
vector 1950285  Network.dyn_peer[73]  lookupStabilitySig:vector  ETV
vector 1950286  Network.dyn_peer[73]  lookupTimeSig:vector  ETV
vector 1950407  Network.dyn_peer[114]  lookupHopsSig:vector  ETV
vector 1950408  Network.dyn_peer[114]  lookupStabilitySig:vector  ETV
vector 1950409  Network.dyn_peer[114]  lookupTimeSig:vector  ETV
vector 1950593  Network.dyn_peer[176]  lookupHopsSig:vector  ETV
vector 1950594  Network.dyn_peer[176]  lookupStabilitySig:vector  ETV
vector 1950595  Network.dyn_peer[176]  lookupTimeSig:vector  ETV
vector 1950146  Network.dyn_peer[27]  lookupHopsSig:vector  ETV
vector 1950147  Network.dyn_peer[27]  lookupStabilitySig:vector  ETV
vector 1950148  Network.dyn_peer[27]  lookupTimeSig:vector  ETV
vector 1950566  Network.dyn_peer[167]  lookupHopsSig:vector  ETV
vector 1950567  Network.dyn_peer[167]  lookupStabilitySig:vector  ETV
vector 1950568  Network.dyn_peer[167]  lookupTimeSig:vector  ETV
vector 1950689  Network.dyn_peer[208]  lookupHopsSig:vector  ETV
vector 1950690  Network.dyn_peer[208]  lookupStabilitySig:vector  ETV
vector 1950691  Network.dyn_peer[208]  lookupTimeSig:vector  ETV
vector 1950452  Network.dyn_peer[129]  lookupHopsSig:vector  ETV
vector 1950453  Network.dyn_peer[129]  lookupStabilitySig:vector  ETV
vector 1950454  Network.dyn_peer[129]  lookupTimeSig:vector  ETV
vector 1950551  Network.dyn_peer[162]  lookupHopsSig:vector  ETV
vector 1950552  Network.dyn_peer[162]  lookupStabilitySig:vector  ETV
vector 1950553  Network.dyn_peer[162]  lookupTimeSig:vector  ETV
vector 1950524  Network.dyn_peer[153]  lookupHopsSig:vector  ETV
vector 1950525  Network.dyn_peer[153]  lookupStabilitySig:vector  ETV
vector 1950526  Network.dyn_peer[153]  lookupTimeSig:vector  ETV
vector 1950500  Network.dyn_peer[145]  lookupHopsSig:vector  ETV
vector 1950501  Network.dyn_peer[145]  lookupStabilitySig:vector  ETV
vector 1950502  Network.dyn_peer[145]  lookupTimeSig:vector  ETV
vector 1950515  Network.dyn_peer[150]  lookupHopsSig:vector  ETV
vector 1950516  Network.dyn_peer[150]  lookupStabilitySig:vector  ETV
vector 1950517  Network.dyn_peer[150]  lookupTimeSig:vector  ETV
vector 1950665  Network.dyn_peer[200]  lookupHopsSig:vector  ETV
vector 1950666  Network.dyn_peer[200]  lookupStabilitySig:vector  ETV
vector 1950667  Network.dyn_peer[200]  lookupTimeSig:vector  ETV
vector 1950248  Network.dyn_peer[61]  lookupHopsSig:vector  ETV
vector 1950249  Network.dyn_peer[61]  lookupStabilitySig:vector  ETV