version 2
run Stability2-2-20130528-01:21:50-24168
attr configname Stability2
attr datetime 20130528-01:21:50
attr experiment Stability2
attr inifile omnetpp.ini
attr iterationvars $0=10
attr iterationvars2 "$0=10, $repetition=2"
attr measurement $0=10
attr network Network
attr processid 24168
attr repetition 2
attr replication #2
attr resultdir results
attr runnumber 2
attr seedset 2

vector 90002  Network.churner  inGoingSizeSig:vector  ETV
vector 60005  Network.dyn_peer[1]  lookupHopsSig:vector  ETV
vector 60006  Network.dyn_peer[1]  lookupStabilitySig:vector  ETV
vector 60007  Network.dyn_peer[1]  lookupTimeSig:vector  ETV
vector 60011  Network.dyn_peer[3]  lookupHopsSig:vector  ETV
vector 60012  Network.dyn_peer[3]  lookupStabilitySig:vector  ETV
vector 60013  Network.dyn_peer[3]  lookupTimeSig:vector  ETV
vector 60014  Network.dyn_peer[4]  lookupHopsSig:vector  ETV
vector 60015  Network.dyn_peer[4]  lookupStabilitySig:vector  ETV
vector 60016  Network.dyn_peer[4]  lookupTimeSig:vector  ETV
vector 60017  Network.dyn_peer[5]  lookupHopsSig:vector  ETV
vector 60018  Network.dyn_peer[5]  lookupStabilitySig:vector  ETV
vector 60019  Network.dyn_peer[5]  lookupTimeSig:vector  ETV
vector 60050  Network.dyn_peer[16]  lookupHopsSig:vector  ETV
vector 60051  Network.dyn_peer[16]  lookupStabilitySig:vector  ETV
vector 60052  Network.dyn_peer[16]  lookupTimeSig:vector  ETV
vector 60023  Network.dyn_peer[7]  lookupHopsSig:vector  ETV
vector 60024  Network.dyn_peer[7]  lookupStabilitySig:vector  ETV
vector 60025  Network.dyn_peer[7]  lookupTimeSig:vector  ETV
vector 60053  Network.dyn_peer[17]  lookupHopsSig:vector  ETV
vector 60054  Network.dyn_peer[17]  lookupStabilitySig:vector  ETV
vector 60055  Network.dyn_peer[17]  lookupTimeSig:vector  ETV
vector 60029  Network.dyn_peer[9]  lookupHopsSig:vector  ETV
vector 60030  Network.dyn_peer[9]  lookupStabilitySig:vector  ETV
vector 60031  Network.dyn_peer[9]  lookupTimeSig:vector  ETV
vector 60002  Network.dyn_peer[0]  lookupHopsSig:vector  ETV
vector 60003  Network.dyn_peer[0]  lookupStabilitySig:vector  ETV
vector 60004  Network.dyn_peer[0]  lookupTimeSig:vector  ETV
vector 60008  Network.dyn_peer[2]  lookupHopsSig:vector  ETV
vector 60009  Network.dyn_peer[2]  lookupStabilitySig:vector  ETV
vector 60010  Network.dyn_peer[2]  lookupTimeSig:vector  ETV
vector 60044  Network.dyn_peer[14]  lookupHopsSig:vector  ETV
vector 60045  Network.dyn_peer[14]  lookupStabilitySig:vector  ETV
vector 60046  Network.dyn_peer[14]  lookupTimeSig:vector  ETV
vector 60026  Network.dyn_peer[8]  lookupHopsSig:vector  ETV
vector 60027  Network.dyn_peer[8]  lookupStabilitySig:vector  ETV
vector 60028  Network.dyn_peer[8]  lookupTimeSig:vector  ETV
vector 60059  Network.dyn_peer[19]  lookupHopsSig:vector  ETV
vector 60060  Network.dyn_peer[19]  lookupStabilitySig:vector  ETV
vector 60061  Network.dyn_peer[19]  lookupTimeSig:vector  ETV
vector 60041  Network.dyn_peer[13]  lookupHopsSig:vector  ETV
vector 60042  Network.dyn_peer[13]  lookupStabilitySig:vector  ETV
vector 60043  Network.dyn_peer[13]  lookupTimeSig:vector  ETV
vector 60020  Network.dyn_peer[6]  lookupHopsSig:vector  ETV
vector 60021  Network.dyn_peer[6]  lookupStabilitySig:vector  ETV
vector 60022  Network.dyn_peer[6]  lookupTimeSig:vector  ETV
vector 60083  Network.dyn_peer[27]  lookupHopsSig:vector  ETV
vector 60084  Network.dyn_peer[27]  lookupStabilitySig:vector  ETV
vector 60085  Network.dyn_peer[27]  lookupTimeSig:vector  ETV
vector 60113  Network.dyn_peer[37]  lookupHopsSig:vector  ETV
vector 60114  Network.dyn_peer[37]  lookupStabilitySig:vector  ETV
vector 60115  Network.dyn_peer[37]  lookupTimeSig:vector  ETV
vector 60056  Network.dyn_peer[18]  lookupHopsSig:vector  ETV
vector 60057  Network.dyn_peer[18]  lookupStabilitySig:vector  ETV
vector 60058  Network.dyn_peer[18]  lookupTimeSig:vector  ETV
vector 60089  Network.dyn_peer[29]  lookupHopsSig:vector  ETV
vector 60090  Network.dyn_peer[29]  lookupStabilitySig:vector  ETV
vector 60091  Network.dyn_peer[29]  lookupTimeSig:vector  ETV
vector 60032  Network.dyn_peer[10]  lookupHopsSig:vector  ETV
vector 60033  Network.dyn_peer[10]  lookupStabilitySig:vector  ETV
vector 60034  Network.dyn_peer[10]  lookupTimeSig:vector  ETV
vector 60065  Network.dyn_peer[21]  lookupHopsSig:vector  ETV
vector 60066  Network.dyn_peer[21]  lookupStabilitySig:vector  ETV
vector 60067  Network.dyn_peer[21]  lookupTimeSig:vector  ETV
vector 60038  Network.dyn_peer[12]  lookupHopsSig:vector  ETV
vector 60039  Network.dyn_peer[12]  lookupStabilitySig:vector  ETV
vector 60040  Network.dyn_peer[12]  lookupTimeSig:vector  ETV
vector 60107  Network.dyn_peer[35]  lookupHopsSig:vector  ETV
vector 60108  Network.dyn_peer[35]  lookupStabilitySig:vector  ETV
vector 60109  Network.dyn_peer[35]  lookupTimeSig:vector  ETV
vector 60086  Network.dyn_peer[28]  lookupHopsSig:vector  ETV
vector 60087  Network.dyn_peer[28]  lookupStabilitySig:vector  ETV
vector 60088  Network.dyn_peer[28]  lookupTimeSig:vector  ETV
vector 60155  Network.dyn_peer[51]  lookupHopsSig:vector  ETV
vector 60156  Network.dyn_peer[51]  lookupStabilitySig:vector  ETV
vector 60157  Network.dyn_peer[51]  lookupTimeSig:vector  ETV
vector 60068  Network.dyn_peer[22]  lookupHopsSig:vector  ETV
vector 60069  Network.dyn_peer[22]  lookupStabilitySig:vector  ETV
vector 60070  Network.dyn_peer[22]  lookupTimeSig:vector  ETV
vector 60077  Network.dyn_peer[25]  lookupHopsSig:vector  ETV
vector 60078  Network.dyn_peer[25]  lookupStabilitySig:vector  ETV
vector 60079  Network.dyn_peer[25]  lookupTimeSig:vector  ETV
vector 60080  Network.dyn_peer[26]  lookupHopsSig:vector  ETV
vector 60081  Network.dyn_peer[26]  lookupStabilitySig:vector  ETV
vector 60082  Network.dyn_peer[26]  lookupTimeSig:vector  ETV
vector 60146  Network.dyn_peer[48]  lookupHopsSig:vector  ETV
vector 60147  Network.dyn_peer[48]  lookupStabilitySig:vector  ETV
vector 60148  Network.dyn_peer[48]  lookupTimeSig:vector  ETV
vector 60062  Network.dyn_peer[20]  lookupHopsSig:vector  ETV
vector 60063  Network.dyn_peer[20]  lookupStabilitySig:vector  ETV
vector 60064  Network.dyn_peer[20]  lookupTimeSig:vector  ETV
vector 60035  Network.dyn_peer[11]  lookupHopsSig:vector  ETV
vector 60036  Network.dyn_peer[11]  lookupStabilitySig:vector  ETV
vector 60037  Network.dyn_peer[11]  lookupTimeSig:vector  ETV
vector 60098  Network.dyn_peer[32]  lookupHopsSig:vector  ETV
vector 60099  Network.dyn_peer[32]  lookupStabilitySig:vector  ETV
vector 60100  Network.dyn_peer[32]  lookupTimeSig:vector  ETV
vector 60071  Network.dyn_peer[23]  lookupHopsSig:vector  ETV
vector 60072  Network.dyn_peer[23]  lookupStabilitySig:vector  ETV
vector 60073  Network.dyn_peer[23]  lookupTimeSig:vector  ETV
vector 60074  Network.dyn_peer[24]  lookupHopsSig:vector  ETV
vector 60075  Network.dyn_peer[24]  lookupStabilitySig:vector  ETV
vector 60076  Network.dyn_peer[24]  lookupTimeSig:vector  ETV
vector 60092  Network.dyn_peer[30]  lookupHopsSig:vector  ETV
vector 60093  Network.dyn_peer[30]  lookupStabilitySig:vector  ETV
vector 60094  Network.dyn_peer[30]  lookupTimeSig:vector  ETV
vector 60191  Network.dyn_peer[63]  lookupHopsSig:vector  ETV
vector 60192  Network.dyn_peer[63]  lookupStabilitySig:vector  ETV
vector 60193  Network.dyn_peer[63]  lookupTimeSig:vector  ETV
vector 60104  Network.dyn_peer[34]  lookupHopsSig:vector  ETV
vector 60105  Network.dyn_peer[34]  lookupStabilitySig:vector  ETV
vector 60106  Network.dyn_peer[34]  lookupTimeSig:vector  ETV
vector 60134  Network.dyn_peer[44]  lookupHopsSig:vector  ETV
vector 60135  Network.dyn_peer[44]  lookupStabilitySig:vector  ETV
vector 60136  Network.dyn_peer[44]  lookupTimeSig:vector  ETV
vector 60140  Network.dyn_peer[46]  lookupHopsSig:vector  ETV
vector 60141  Network.dyn_peer[46]  lookupStabilitySig:vector  ETV
vector 60142  Network.dyn_peer[46]  lookupTimeSig:vector  ETV
vector 60170  Network.dyn_peer[56]  lookupHopsSig:vector  ETV
vector 60171  Network.dyn_peer[56]  lookupStabilitySig:vector  ETV
vector 60172  Network.dyn_peer[56]  lookupTimeSig:vector  ETV
vector 60185  Network.dyn_peer[61]  lookupHopsSig:vector  ETV
vector 60186  Network.dyn_peer[61]  lookupStabilitySig:vector  ETV
vector 60187  Network.dyn_peer[61]  lookupTimeSig:vector  ETV
vector 60128  Network.dyn_peer[42]  lookupHopsSig:vector  ETV
vector 60129  Network.dyn_peer[42]  lookupStabilitySig:vector  ETV
vector 60130  Network.dyn_peer[42]  lookupTimeSig:vector  ETV
vector 60161  Network.dyn_peer[53]  lookupHopsSig:vector  ETV
vector 60162  Network.dyn_peer[53]  lookupStabilitySig:vector  ETV
vector 60163  Network.dyn_peer[53]  lookupTimeSig:vector  ETV
vector 60047  Network.dyn_peer[15]  lookupHopsSig:vector  ETV
vector 60048  Network.dyn_peer[15]  lookupStabilitySig:vector  ETV
vector 60049  Network.dyn_peer[15]  lookupTimeSig:vector  ETV
vector 60122  Network.dyn_peer[40]  lookupHopsSig:vector  ETV
vector 60123  Network.dyn_peer[40]  lookupStabilitySig:vector  ETV
vector 60124  Network.dyn_peer[40]  lookupTimeSig:vector  ETV
vector 60182  Network.dyn_peer[60]  lookupHopsSig:vector  ETV
vector 60183  Network.dyn_peer[60]  lookupStabilitySig:vector  ETV
vector 60184  Network.dyn_peer[60]  lookupTimeSig:vector  ETV
vector 60101  Network.dyn_peer[33]  lookupHopsSig:vector  ETV
vector 60102  Network.dyn_peer[33]  lookupStabilitySig:vector  ETV
vector 60103  Network.dyn_peer[33]  lookupTimeSig:vector  ETV
vector 60167  Network.dyn_peer[55]  lookupHopsSig:vector  ETV
vector 60168  Network.dyn_peer[55]  lookupStabilitySig:vector  ETV
vector 60169  Network.dyn_peer[55]  lookupTimeSig:vector  ETV
vector 60197  Network.dyn_peer[65]  lookupHopsSig:vector  ETV
vector 60198  Network.dyn_peer[65]  lookupStabilitySig:vector  ETV
vector 60199  Network.dyn_peer[65]  lookupTimeSig:vector  ETV
vector 60230  Network.dyn_peer[76]  lookupHopsSig:vector  ETV
vector 60231  Network.dyn_peer[76]  lookupStabilitySig:vector  ETV
vector 60232  Network.dyn_peer[76]  lookupTimeSig:vector  ETV
vector 60203  Network.dyn_peer[67]  lookupHopsSig:vector  ETV
vector 60204  Network.dyn_peer[67]  lookupStabilitySig:vector  ETV
vector 60205  Network.dyn_peer[67]  lookupTimeSig:vector  ETV
vector 60215  Network.dyn_peer[71]  lookupHopsSig:vector  ETV
vector 60216  Network.dyn_peer[71]  lookupStabilitySig:vector  ETV
vector 60217  Network.dyn_peer[71]  lookupTimeSig:vector  ETV
vector 60116  Network.dyn_peer[38]  lookupHopsSig:vector  ETV
vector 60117  Network.dyn_peer[38]  lookupStabilitySig:vector  ETV
vector 60118  Network.dyn_peer[38]  lookupTimeSig:vector  ETV
vector 60119  Network.dyn_peer[39]  lookupHopsSig:vector  ETV
vector 60120  Network.dyn_peer[39]  lookupStabilitySig:vector  ETV
vector 60121  Network.dyn_peer[39]  lookupTimeSig:vector  ETV
vector 60239  Network.dyn_peer[79]  lookupHopsSig:vector  ETV
vector 60240  Network.dyn_peer[79]  lookupStabilitySig:vector  ETV
vector 60241  Network.dyn_peer[79]  lookupTimeSig:vector  ETV
vector 60218  Network.dyn_peer[72]  lookupHopsSig:vector  ETV
vector 60219  Network.dyn_peer[72]  lookupStabilitySig:vector  ETV
vector 60220  Network.dyn_peer[72]  lookupTimeSig:vector  ETV
vector 60257  Network.dyn_peer[85]  lookupHopsSig:vector  ETV
vector 60258  Network.dyn_peer[85]  lookupStabilitySig:vector  ETV
vector 60259  Network.dyn_peer[85]  lookupTimeSig:vector  ETV
vector 60236  Network.dyn_peer[78]  lookupHopsSig:vector  ETV
vector 60237  Network.dyn_peer[78]  lookupStabilitySig:vector  ETV
vector 60238  Network.dyn_peer[78]  lookupTimeSig:vector  ETV
vector 60095  Network.dyn_peer[31]  lookupHopsSig:vector  ETV
vector 60096  Network.dyn_peer[31]  lookupStabilitySig:vector  ETV
vector 60097  Network.dyn_peer[31]  lookupTimeSig:vector  ETV
vector 60188  Network.dyn_peer[62]  lookupHopsSig:vector  ETV
vector 60189  Network.dyn_peer[62]  lookupStabilitySig:vector  ETV
vector 60190  Network.dyn_peer[62]  lookupTimeSig:vector  ETV
vector 60251  Network.dyn_peer[83]  lookupHopsSig:vector  ETV
vector 60252  Network.dyn_peer[83]  lookupStabilitySig:vector  ETV
vector 60253  Network.dyn_peer[83]  lookupTimeSig:vector  ETV
vector 60137  Network.dyn_peer[45]  lookupHopsSig:vector  ETV
vector 60138  Network.dyn_peer[45]  lookupStabilitySig:vector  ETV
vector 60139  Network.dyn_peer[45]  lookupTimeSig:vector  ETV
vector 60296  Network.dyn_peer[98]  lookupHopsSig:vector  ETV
vector 60297  Network.dyn_peer[98]  lookupStabilitySig:vector  ETV
vector 60298  Network.dyn_peer[98]  lookupTimeSig:vector  ETV
vector 60149  Network.dyn_peer[49]  lookupHopsSig:vector  ETV
vector 60150  Network.dyn_peer[49]  lookupStabilitySig:vector  ETV
vector 60151  Network.dyn_peer[49]  lookupTimeSig:vector  ETV
vector 60272  Network.dyn_peer[90]  lookupHopsSig:vector  ETV
vector 60273  Network.dyn_peer[90]  lookupStabilitySig:vector  ETV
vector 60274  Network.dyn_peer[90]  lookupTimeSig:vector  ETV
vector 60158  Network.dyn_peer[52]  lookupHopsSig:vector  ETV
vector 60159  Network.dyn_peer[52]  lookupStabilitySig:vector  ETV
vector 60160  Network.dyn_peer[52]  lookupTimeSig:vector  ETV
vector 60248  Network.dyn_peer[82]  lookupHopsSig:vector  ETV
vector 60249  Network.dyn_peer[82]  lookupStabilitySig:vector  ETV
vector 60250  Network.dyn_peer[82]  lookupTimeSig:vector  ETV
vector 60200  Network.dyn_peer[66]  lookupHopsSig:vector  ETV
vector 60201  Network.dyn_peer[66]  lookupStabilitySig:vector  ETV
vector 60202  Network.dyn_peer[66]  lookupTimeSig:vector  ETV
vector 60233  Network.dyn_peer[77]  lookupHopsSig:vector  ETV
vector 60234  Network.dyn_peer[77]  lookupStabilitySig:vector  ETV
vector 60235  Network.dyn_peer[77]  lookupTimeSig:vector  ETV
vector 60212  Network.dyn_peer[70]  lookupHopsSig:vector  ETV
vector 60213  Network.dyn_peer[70]  lookupStabilitySig:vector  ETV
vector 60214  Network.dyn_peer[70]  lookupTimeSig:vector  ETV
vector 60206  Network.dyn_peer[68]  lookupHopsSig:vector  ETV
vector 60207  Network.dyn_peer[68]  lookupStabilitySig:vector  ETV
vector 60208  Network.dyn_peer[68]  lookupTimeSig:vector  ETV
vector 60164  Network.dyn_peer[54]  lookupHopsSig:vector  ETV
vector 60165  Network.dyn_peer[54]  lookupStabilitySig:vector  ETV
vector 60166  Network.dyn_peer[54]  lookupTimeSig:vector  ETV
vector 60110  Network.dyn_peer[36]  lookupHopsSig:vector  ETV
vector 60111  Network.dyn_peer[36]  lookupStabilitySig:vector  ETV
vector 60112  Network.dyn_peer[36]  lookupTimeSig:vector  ETV
vector 60176  Network.dyn_peer[58]  lookupHopsSig:vector  ETV
vector 60177  Network.dyn_peer[58]  lookupStabilitySig:vector  ETV
vector 60178  Network.dyn_peer[58]  lookupTimeSig:vector  ETV
vector 60209  Network.dyn_peer[69]  lookupHopsSig:vector  ETV
vector 60210  Network.dyn_peer[69]  lookupStabilitySig:vector  ETV
vector 60211  Network.dyn_peer[69]  lookupTimeSig:vector  ETV
vector 60221  Network.dyn_peer[73]  lookupHopsSig:vector  ETV
vector 60222  Network.dyn_peer[73]  lookupStabilitySig:vector  ETV
vector 60223  Network.dyn_peer[73]  lookupTimeSig:vector  ETV
vector 60254  Network.dyn_peer[84]  lookupHopsSig:vector  ETV
vector 60255  Network.dyn_peer[84]  lookupStabilitySig:vector  ETV
vector 60256  Network.dyn_peer[84]  lookupTimeSig:vector  ETV
vector 60263  Network.dyn_peer[87]  lookupHopsSig:vector  ETV
vector 60264  Network.dyn_peer[87]  lookupStabilitySig:vector  ETV
vector 60265  Network.dyn_peer[87]  lookupTimeSig:vector  ETV
vector 60179  Network.dyn_peer[59]  lookupHopsSig:vector  ETV
vector 60180  Network.dyn_peer[59]  lookupStabilitySig:vector  ETV
vector 60181  Network.dyn_peer[59]  lookupTimeSig:vector  ETV
vector 60242  Network.dyn_peer[80]  lookupHopsSig:vector  ETV
vector 60243  Network.dyn_peer[80]  lookupStabilitySig:vector  ETV
vector 60244  Network.dyn_peer[80]  lookupTimeSig:vector  ETV
vector 60125  Network.dyn_peer[41]  lookupHopsSig:vector  ETV
vector 60126  Network.dyn_peer[41]  lookupStabilitySig:vector  ETV
vector 60127  Network.dyn_peer[41]  lookupTimeSig:vector  ETV
vector 60131  Network.dyn_peer[43]  lookupHopsSig:vector  ETV
vector 60132  Network.dyn_peer[43]  lookupStabilitySig:vector  ETV
vector 60133  Network.dyn_peer[43]  lookupTimeSig:vector  ETV
vector 60152  Network.dyn_peer[50]  lookupHopsSig:vector  ETV
vector 60153  Network.dyn_peer[50]  lookupStabilitySig:vector  ETV
vector 60154  Network.dyn_peer[50]  lookupTimeSig:vector  ETV
vector 60194  Network.dyn_peer[64]  lookupHopsSig:vector  ETV
vector 60195  Network.dyn_peer[64]  lookupStabilitySig:vector  ETV
vector 60196  Network.dyn_peer[64]  lookupTimeSig:vector  ETV
vector 60290  Network.dyn_peer[96]  lookupHopsSig:vector  ETV
vector 60291  Network.dyn_peer[96]  lookupStabilitySig:vector  ETV
vector 60292  Network.dyn_peer[96]  lookupTimeSig:vector  ETV
vector 60245  Network.dyn_peer[81]  lookupHopsSig:vector  ETV
vector 60246  Network.dyn_peer[81]  lookupStabilitySig:vector  ETV
vector 60247  Network.dyn_peer[81]  lookupTimeSig:vector  ETV
vector 60143  Network.dyn_peer[47]  lookupHopsSig:vector  ETV
vector 60144  Network.dyn_peer[47]  lookupStabilitySig:vector  ETV
vector 60145  Network.dyn_peer[47]  lookupTimeSig:vector  ETV
vector 60266  Network.dyn_peer[88]  lookupHopsSig:vector  ETV
vector 60267  Network.dyn_peer[88]  lookupStabilitySig:vector  ETV
vector 60268  Network.dyn_peer[88]  lookupTimeSig:vector  ETV
vector 60269  Network.dyn_peer[89]  lookupHopsSig:vector  ETV
vector 60270  Network.dyn_peer[89]  lookupStabilitySig:vector  ETV
vector 60271  Network.dyn_peer[89]  lookupTimeSig:vector  ETV
vector 60173  Network.dyn_peer[57]  lookupHopsSig:vector  ETV
vector 60174  Network.dyn_peer[57]  lookupStabilitySig:vector  ETV
vector 60175  Network.dyn_peer[57]  lookupTimeSig:vector  ETV
vector 60299  Network.dyn_peer[99]  lookupHopsSig:vector  ETV
vector 60300  Network.dyn_peer[99]  lookupStabilitySig:vector  ETV
vector 60301  Network.dyn_peer[99]  lookupTimeSig:vector  ETV
vector 60281  Network.dyn_peer[93]  lookupHopsSig:vector  ETV
vector 60282  Network.dyn_peer[93]  lookupStabilitySig:vector  ETV
vector 60283  Network.dyn_peer[93]  lookupTimeSig:vector  ETV
vector 60275  Network.dyn_peer[91]  lookupHopsSig:vector  ETV
vector 60276  Network.dyn_peer[91]  lookupStabilitySig:vector  ETV
vector 60277  Network.dyn_peer[91]  lookupTimeSig:vector  ETV
vector 60278  Network.dyn_peer[92]  lookupHopsSig:vector  ETV
vector 60279  Network.dyn_peer[92]  lookupStabilitySig:vector  ETV
vector 60280  Network.dyn_peer[92]  lookupTimeSig:vector  ETV
vector 60287  Network.dyn_peer[95]  lookupHopsSig:vector  ETV
vector 60288  Network.dyn_peer[95]  lookupStabilitySig:vector  ETV
vector 60289  Network.dyn_peer[95]  lookupTimeSig:vector  ETV
vector 60260  Network.dyn_peer[86]  lookupHopsSig:vector  ETV
vector 60261  Network.dyn_peer[86]  lookupStabilitySig:vector  ETV
vector 60262  Network.dyn_peer[86]  lookupTimeSig:vector  ETV
vector 60224  Network.dyn_peer[74]  lookupHopsSig:vector  ETV
vector 60225  Network.dyn_peer[74]  lookupStabilitySig:vector  ETV
vector 60226  Network.dyn_peer[74]  lookupTimeSig:vector  ETV
vector 60293  Network.dyn_peer[97]  lookupHopsSig:vector  ETV
vector 60294  Network.dyn_peer[97]  lookupStabilitySig:vector  ETV
vector 60295  Network.dyn_peer[97]  lookupTimeSig:vector  ETV
vector 60284  Network.dyn_peer[94]  lookupHopsSig:vector  ETV
vector 60285  Network.dyn_peer[94]  lookupStabilitySig:vector  ETV
vector 60286  Network.dyn_peer[94]  lookupTimeSig:vector  ETV
vector 60227  Network.dyn_peer[75]  lookupHopsSig:vector  ETV
vector 60228  Network.dyn_peer[75]  lookupStabilitySig:vector  ETV
vector 60229  Network.dyn_peer[75]  lookupTimeSig:vector  ETV
60002	128	20.21	2
60002	1064	21.01	7
60002	1955	21.715792075649	6
60002	2994	22.617873704533	8
60003	128	20.21	0.59999999403954
60003	1064	21.01	-0.16666662693024
60003	1955	21.715792075649	0.45454543828964
60003	2994	22.617873704533	0.81395348906517
60004	128	20.21	0.2
60004	1064	21.01	0.8
60004	1955	21.715792075649	0.7
60004	2994	22.617873704533	0.9
60005	50	20.12	1
60005	211	20.338781617776	1
60005	433	20.550845413871	1
60005	1637	21.451744360133	8
60005	3068	22.694889081271	10
60005	4044	24.19760577587	14
60006	50	20.12	0.79999999701977
60006	211	20.338781617776	0.79999999701977
60006	433	20.550845413871	0.79999999701977
60006	1637	21.451744360133	0.11111110448837
60006	3068	22.694889081271	0.78260870277882
60006	4044	24.19760577587	0.82051281630993
60007	50	20.12	0.1
60007	211	20.338781617776	0.2
60007	433	20.550845413871	0.2
60007	1637	21.451744360133	0.9
60007	3068	22.694889081271	1.1
60007	4044	24.19760577587	1.5
60008	141	20.23	2
60008	529	20.63	3
60008	1492	21.335483179464	6
60009	141	20.23	0.59999999403954
60009	529	20.63	0.39999997615814
60009	1492	21.335483179464	0.25
60010	141	20.23	0.2
60010	529	20.63	0.4
60010	1492	21.335483179464	0.7
60011	66	20.14	1
60011	326	20.445485207308	2
60011	684	20.755459452525	2
60011	1134	21.070823271692	2
60012	66	20.14	0.79999999701977
60012	326	20.445485207308	0.59999999403954
60012	684	20.755459452525	0.59999999403954
60012	1134	21.070823271692	0.66666665673256
60013	66	20.14	0.1
60013	326	20.445485207308	0.3
60013	684	20.755459452525	0.3
60013	1134	21.070823271692	0.3
60014	75	20.15	1
60014	682	20.754537499654	5
60014	2043	21.779510809574	7
60014	3144	22.784939353533	9
60014	3470	23.18920380188	3
60015	75	20.15	0.79999999701977
60015	682	20.754537499654	0
60015	2043	21.779510809574	0.41666668653488
60015	3144	22.784939353533	0.81632652878761
60015	3470	23.18920380188	0.95081967115402
60016	75	20.15	0.1
60016	682	20.754537499654	0.6
60016	2043	21.779510809574	0.8
60016	3144	22.784939353533	1
60016	3470	23.18920380188	0.4
60017	84	20.16	1
60017	1524	21.36	11
60017	2025	21.768115071884	3
60017	2309	21.974121326754	1
60017	3933	23.982582018955	7
60017	4363	25.18663494918	11
60017	4449	25.593486627717	3
60017	4539	26.098915795729	4
60017	4627	26.707787783293	5
60018	84	20.16	0.79999999701977
60018	1524	21.36	-0.22222220897675
60018	2025	21.768115071884	0.75
60018	2309	21.974121326754	0.94999999925494
60018	3933	23.982582018955	0.9066666662693
60018	4363	25.18663494918	0.88172043114901
60018	4449	25.593486627717	0.96808510646224
60018	4539	26.098915795729	0.95789473503828
60018	4627	26.707787783293	0.94949495047331
60019	84	20.16	0.1
60019	1524	21.36	1.2
60019	2025	21.768115071884	0.4
60019	2309	21.974121326754	0.2
60019	3933	23.982582018955	0.8
60019	4363	25.18663494918	1.2
60019	4449	25.593486627717	0.4
60019	4539	26.098915795729	0.5
60019	4627	26.707787783293	0.6
60020	245	20.37	3
60020	1270	21.17	7
60020	2037	21.770621215705	5
60020	2863	22.479126483648	6
60021	245	20.37	0.39999997615814
60021	1270	21.17	0
60021	2037	21.770621215705	0.58333334326744
60021	2863	22.479126483648	0.84210526943207
60022	245	20.37	0.3
60022	1270	21.17	0.8
60022	2037	21.770621215705	0.6
60022	2863	22.479126483648	0.7
60023	100	20.18	1
60023	863	20.88	6
60023	2965	22.580137742736	16
60024	100	20.18	0.79999999701977
60024	863	20.88	0
60024	2965	22.580137742736	0.60975611209869
60025	100	20.18	0.1
60025	863	20.88	0.7
60025	2965	22.580137742736	1.7
60026	179	20.29	2
60026	2770	22.39	20
60027	179	20.29	0.59999999403954
60027	2770	22.39	0.41176468133926
60028	179	20.29	0.2
60028	2770	22.39	2.1
60029	118	20.2	1
60029	2089	21.804910131781	15
60030	118	20.2	0.79999999701977
60030	2089	21.804910131781	-0.071428537368774
60031	118	20.2	0.1
60031	2089	21.804910131781	1.6
60032	294	20.41	3
60032	506	20.61	1
60032	1595	21.411857916815	7
60032	2574	22.219603099126	7
60033	294	20.41	0.39999997615814
60033	506	20.61	0.79999999701977
60033	1595	21.411857916815	0.22222220897675
60033	2574	22.219603099126	0.75
60034	294	20.41	0.3
60034	506	20.61	0.2
60034	1595	21.411857916815	0.8
60034	2574	22.219603099126	0.8
60035	519	20.62	5
60035	1208	21.12	4
60035	2479	22.123279513244	9
60036	519	20.62	0
60036	1208	21.12	0.42857140302658
60036	2479	22.123279513244	0.63999998569489
60037	519	20.62	0.5
60037	1208	21.12	0.5
60037	2479	22.123279513244	1
60038	315	20.43	3
60038	942	20.93760647482	4
60038	1504	21.345304388775	3
60038	2395	22.05333390045	6
60038	3401	23.096819758913	7
60039	315	20.43	0.39999997615814
60039	942	20.93760647482	0.33333331346512
60039	1504	21.345304388775	0.66666665673256
60039	2395	22.05333390045	0.73913043737411
60039	3401	23.096819758913	0.87719298154116
60040	315	20.43	0.3
60040	942	20.93760647482	0.5
60040	1504	21.345304388775	0.4
60040	2395	22.05333390045	0.7
60040	3401	23.096819758913	0.8
60041	218	20.34	2
60041	1988	21.74	13
60041	2715	22.341936308706	5
60041	3105	22.746641562044	3
60041	3509	23.256013347372	4
60042	218	20.34	0.59999999403954
60042	1988	21.74	-0.083333373069763
60042	2715	22.341936308706	0.84848484396935
60042	3105	22.746641562044	0.93617021292448
60042	3509	23.256013347372	0.93442623317242
60043	218	20.34	0.2
60043	1988	21.74	1.4
60043	2715	22.341936308706	0.6
60043	3105	22.746641562044	0.4
60043	3509	23.256013347372	0.5
60044	155	20.25	1
60044	332	20.45	1
60044	2627	22.267509601665	17
60044	2853	22.470296557866	1
60044	3716	23.578213127638	10
60044	3879	23.884056194741	2
60045	155	20.25	0.79999999701977
60045	332	20.45	0.79999999701977
60045	2627	22.267509601665	0.45161288976669
60045	2853	22.470296557866	0.97368421033025
60045	3716	23.578213127638	0.85294117033482
60045	3879	23.884056194741	0.97183098644018
60046	155	20.25	0.1
60046	332	20.45	0.2
60046	2627	22.267509601665	1.8
60046	2853	22.470296557866	0.2
60046	3716	23.578213127638	1.1
60046	3879	23.884056194741	0.3
60047	838	20.86	7
60047	1651	21.467832764808	5
60047	3127	22.76872148516	12
60047	3596	23.377527123932	5
60047	3986	24.084476136739	6
60048	838	20.86	-0.16666662693024
60048	1651	21.467832764808	0.5
60048	3127	22.76872148516	0.75
60048	3596	23.377527123932	0.921875
60048	3986	24.084476136739	0.92000000178814
60049	838	20.86	0.7
60049	1651	21.467832764808	0.6
60049	3127	22.76872148516	1.3
60049	3596	23.377527123932	0.6
60049	3986	24.084476136739	0.7
60050	94	20.17	0
60050	706	20.77	5
60050	2434	22.087915307383	12
60051	94	20.17	1
60051	706	20.77	0.16666668653488
60051	2434	22.087915307383	0.5
60052	94	20.17	0
60052	706	20.77	0.6
60052	2434	22.087915307383	1.3
60053	106	20.18	0
60053	2072	21.790970403535	15
60054	106	20.18	1
60054	2072	21.790970403535	-0.25
60055	106	20.18	0
60055	2072	21.790970403535	1.6
60056	270	20.39	2
60056	884	20.896847889532	4
60056	1186	21.106223921265	1
60056	1442	21.308502979093	1
60057	270	20.39	0.59999999403954
60057	884	20.896847889532	0.33333331346512
60057	1186	21.106223921265	0.85714285075665
60057	1442	21.308502979093	0.85714285075665
60058	270	20.39	0.2
60058	884	20.896847889532	0.5
60058	1186	21.106223921265	0.2
60058	1442	21.308502979093	0.2
60059	189	20.3	1
60059	611	20.7	3
60059	2679	22.306551707985	15
60059	3263	22.916310103416	5
60060	189	20.3	0.79999999701977
60060	611	20.7	0.39999997615814
60060	2679	22.306551707985	0.51612904667854
60060	3263	22.916310103416	0.90196078270674
60061	189	20.3	0.1
60061	611	20.7	0.4
60061	2679	22.306551707985	1.6
60061	3263	22.916310103416	0.6
60062	505	20.61	4
60062	1823	21.61	9
60062	2469	22.116914490284	4
60062	2700	22.326599795699	1
60063	505	20.61	0.19999998807907
60063	1823	21.61	0.18181818723679
60063	2469	22.116914490284	0.84000000357628
60063	2700	22.326599795699	0.96875
60064	505	20.61	0.4
60064	1823	21.61	1
60064	2469	22.116914490284	0.5
60064	2700	22.326599795699	0.2
60065	304	20.42	2
60065	3267	22.92	24
60066	304	20.42	0.59999999403954
60066	3267	22.92	0.5294117629528
60067	304	20.42	0.2
60067	3267	22.92	2.5
60068	414	20.53	3
60068	1091	21.03	4
60068	2820	22.436360516434	13
60068	3284	22.942599755923	4
60069	414	20.53	0.39999997615814
60069	1091	21.03	0.33333331346512
60069	2820	22.436360516434	0.64864864945412
60069	3284	22.942599755923	0.92452830076218
60070	414	20.53	0.3
60070	1091	21.03	0.5
60070	2820	22.436360516434	1.4
60070	3284	22.942599755923	0.5
60071	547	20.64	4
60071	1858	21.64	9
60071	3438	23.145919893835	14
60071	3566	23.348425977804	1
60071	3976	24.060890342721	6
60071	4321	24.970545413533	8
60072	547	20.64	0.19999998807907
60072	1858	21.64	0.18181818723679
60072	3438	23.145919893835	0.76666666567326
60072	3566	23.348425977804	0.984375
60072	3976	24.060890342721	0.92000000178814
60072	4321	24.970545413533	0.91304347664118
60073	547	20.64	0.4
60073	1858	21.64	1
60073	3438	23.145919893835	1.5
60073	3566	23.348425977804	0.2
60073	3976	24.060890342721	0.7
60073	4321	24.970545413533	0.9
60074	559	20.65	4
60074	1873	21.65	9
60074	2934	22.554447757862	8
60075	559	20.65	0.19999998807907
60075	1873	21.65	0.18181818723679
60075	2934	22.554447757862	0.79999999701977
60076	559	20.65	0.4
60076	1873	21.65	1
60076	2934	22.554447757862	0.9
60077	446	20.56	3
60077	1386	21.26	6
60077	2943	22.56301732734	12
60077	3124	22.76455676603	1
60077	3966	24.054329764344	6
60077	4216	24.654482005631	5
60077	4426	25.462583695763	7
60077	4511	25.962932367777	4
60077	4620	26.669062401836	6
60077	4676	27.370684553174	6
60077	4702	27.876167838155	4
60077	4737	28.776716043889	8
60078	446	20.56	0.39999997615814
60078	1386	21.26	0.14285713434219
60078	2943	22.56301732734	0.70731708407402
60078	3124	22.76455676603	0.97916666604578
60078	3966	24.054329764344	0.92000000178814
60078	4216	24.654482005631	0.94186046347022
60078	4426	25.462583695763	0.92553191632032
60078	4511	25.962932367777	0.95744680985808
60078	4620	26.669062401836	0.93939393758774
60078	4676	27.370684553174	0.9411764703691
60078	4702	27.876167838155	0.96116504818201
60078	4737	28.776716043889	0.92233009636402
60079	446	20.56	0.3
60079	1386	21.26	0.7
60079	2943	22.56301732734	1.3
60079	3124	22.76455676603	0.2
60079	3966	24.054329764344	0.7
60079	4216	24.654482005631	0.6
60079	4426	25.462583695763	0.8
60079	4511	25.962932367777	0.5
60079	4620	26.669062401836	0.7
60079	4676	27.370684553174	0.7
60079	4702	27.876167838155	0.5
60079	4737	28.776716043889	0.9
60080	459	20.57	3
60080	711	20.77	1
60080	2953	22.573472271827	17
60080	3312	22.976598656568	3
60081	459	20.57	0.39999997615814
60081	711	20.77	0.83333332836628
60081	2953	22.573472271827	0.58536586165428
60081	3312	22.976598656568	0.94444444403052
60082	459	20.57	0.3
60082	711	20.77	0.2