file 234215 1369933126                                          
version 2
run Stability2-25-20130528-01:24:00-24168
attr configname Stability2
attr datetime 20130528-01:24:00
attr experiment Stability2
attr inifile omnetpp.ini
attr iterationvars $0=30
attr iterationvars2 "$0=30, $repetition=5"
attr measurement $0=30
attr network Network
attr processid 24168
attr repetition 5
attr replication #5
attr resultdir results
attr runnumber 25
attr seedset 25
vector 780025  Network.churner  inGoingSizeSig:vector  ETV
780025	227862 6353 11 6492 20 23 301 0 260 40823 7231923
vector 750025  Network.dyn_peer[0]  lookupHopsSig:vector  ETV
750025	59221 168 18 8938 20.01 23.726491322186 6 0 13 31 251
vector 750026  Network.dyn_peer[0]  lookupStabilitySig:vector  ETV
750026	59389 229 18 8938 20.01 23.726491322186 6 0.19999998807907 1 4.1536685451865 3.3569789729454
vector 750027  Network.dyn_peer[0]  lookupTimeSig:vector  ETV
750027	59618 177 18 8938 20.01 23.726491322186 6 0 1.4 3.6 3.18
vector 750028  Network.dyn_peer[1]  lookupHopsSig:vector  ETV
750028	59795 169 26 13874 20.02 25.349478962183 6 0 34 47 1213
vector 750029  Network.dyn_peer[1]  lookupStabilitySig:vector  ETV
750029	59964 243 26 13874 20.02 25.349478962183 6 0.45454543828964 1 4.4675918892026 3.5592134637214
vector 750030  Network.dyn_peer[1]  lookupTimeSig:vector  ETV
750030	60207 178 26 13874 20.02 25.349478962183 6 0 3.5 5.2 13.12
vector 750031  Network.dyn_peer[2]  lookupHopsSig:vector  ETV
750031	60385 284 34 18268 20.03 27.553509639286 10 0 24 63 867
vector 750032  Network.dyn_peer[2]  lookupStabilitySig:vector  ETV
750032	60669 416 34 18268 20.03 27.553509639286 10 0.28571426868439 1 8.0138605930842 7.0739885196913
vector 750033  Network.dyn_peer[2]  lookupTimeSig:vector  ETV
750033	61085 300 34 18268 20.03 27.553509639286 10 0 2.5 7.2 10.02
vector 750043  Network.dyn_peer[6]  lookupHopsSig:vector  ETV
750043	63267 161 50 16098 20.07 26.308853875433 6 0 18 56 814
vector 750044  Network.dyn_peer[6]  lookupStabilitySig:vector  ETV
750044	63428 233 50 16098 20.07 26.308853875433 6 0.39999997615814 1 4.2287423685193 3.3050710764637
vector 750045  Network.dyn_peer[6]  lookupTimeSig:vector  ETV
750045	63661 168 50 16098 20.07 26.308853875433 6 0 1.9 6.1 9.31
vector 750046  Network.dyn_peer[7]  lookupHopsSig:vector  ETV
750046	63829 230 57 18648 20.08 27.811527748419 8 0 28 67 1275
vector 750047  Network.dyn_peer[7]  lookupStabilitySig:vector  ETV
750047	64059 333 57 18648 20.08 27.811527748419 8 0.58333334326744 1 6.0748743116856 4.7762127537857
vector 750048  Network.dyn_peer[7]  lookupTimeSig:vector  ETV
750048	64392 242 57 18648 20.08 27.811527748419 8 0 2.9 7.4 14.16
vector 750040  Network.dyn_peer[5]  lookupHopsSig:vector  ETV
750040	62904 100 90 13079 20.16 25.067534185095 4 1 27 47 995
vector 750041  Network.dyn_peer[5]  lookupStabilitySig:vector  ETV
750041	63004 157 90 13079 20.16 25.067534185095 4 0.39999997615814 0.79999999701977 2.3959393948317 1.5599520217721
vector 750042  Network.dyn_peer[5]  lookupTimeSig:vector  ETV
750042	63161 106 90 13079 20.16 25.067534185095 4 0.1 2.8 5 10.9
vector 750052  Network.dyn_peer[9]  lookupHopsSig:vector  ETV
750052	65429 97 110 3950 20.2 22.269754240451 4 1 8 18 106
vector 750053  Network.dyn_peer[9]  lookupStabilitySig:vector  ETV
750053	65526 157 110 3950 20.2 22.269754240451 4 0.11111110448837 0.86206896603107 2.5459073334932 1.9926160025149
vector 750054  Network.dyn_peer[9]  lookupTimeSig:vector  ETV
750054	65683 105 110 3950 20.2 22.269754240451 4 0.1 0.9 2.1 1.43
vector 750058  Network.dyn_peer[11]  lookupHopsSig:vector  ETV
750058	66584 250 123 19132 20.22 28.176846824997 9 1 13 59 501
vector 750059  Network.dyn_peer[11]  lookupStabilitySig:vector  ETV
750059	66834 367 123 19132 20.22 28.176846824997 9 0 0.96756756678224 6.8910539597273 5.9986863989682
vector 750060  Network.dyn_peer[11]  lookupTimeSig:vector  ETV
750060	67201 266 123 19132 20.22 28.176846824997 9 0.1 1.4 6.7 6.25
vector 750061  Network.dyn_peer[12]  lookupHopsSig:vector  ETV
750061	67467 162 133 15182 20.23 25.888712240551 6 1 18 49 591
vector 750062  Network.dyn_peer[12]  lookupStabilitySig:vector  ETV
750062	67629 234 133 15182 20.23 25.888712240551 6 0 0.87671232968569 4.0448801890016 3.2851362421753
vector 750063  Network.dyn_peer[12]  lookupTimeSig:vector  ETV
750063	67863 171 133 15182 20.23 25.888712240551 6 0.1 1.9 5.4 6.92
vector 750037  Network.dyn_peer[4]  lookupHopsSig:vector  ETV
750037	61961 267 147 20337 20.25 29.39708386222 9 2 16 74 812
vector 750038  Network.dyn_peer[4]  lookupStabilitySig:vector  ETV
750038	62228 397 147 20337 20.25 29.39708386222 9 0.36363637447357 0.9902912620455 7.3970047719777 6.4297636225153
vector 750039  Network.dyn_peer[4]  lookupTimeSig:vector  ETV
750039	62625 279 147 20337 20.25 29.39708386222 9 0.2 1.7 8.2 9.64
vector 750073  Network.dyn_peer[16]  lookupHopsSig:vector  ETV
750073	69886 134 162 14950 20.27 25.787105085664 5 1 18 52 738
vector 750074  Network.dyn_peer[16]  lookupStabilitySig:vector  ETV
750074	70020 205 162 14950 20.27 25.787105085664 5 0.35294115543365 0.91304347664118 3.6310808882117 2.8446013017443
vector 750075  Network.dyn_peer[16]  lookupTimeSig:vector  ETV
750075	70225 141 162 14950 20.27 25.787105085664 5 0.1 1.9 5.6 8.44
vector 750082  Network.dyn_peer[19]  lookupHopsSig:vector  ETV
750082	71847 187 182 10678 20.3 24.262299338401 7 1 11 32 240
vector 750083  Network.dyn_peer[19]  lookupStabilitySig:vector  ETV
750083	72034 291 182 10678 20.3 24.262299338401 7 0.19999998807907 0.96551724150777 5.2363359369338 4.2917924246626
vector 750084  Network.dyn_peer[19]  lookupTimeSig:vector  ETV
750084	72325 200 182 10678 20.3 24.262299338401 7 0.1 1.2 3.8 3.08
vector 750091  Network.dyn_peer[22]  lookupHopsSig:vector  ETV
750091	74111 161 206 13599 20.33 25.250836785933 6 1 17 45 569
vector 750092  Network.dyn_peer[22]  lookupStabilitySig:vector  ETV
750092	74272 248 206 13599 20.33 25.250836785933 6 0.16666668653488 0.8534482717514 4.1524033546448 3.212323935518
vector 750093  Network.dyn_peer[22]  lookupTimeSig:vector  ETV
750093	74520 171 206 13599 20.33 25.250836785933 6 0.1 1.8 5 6.62
vector 750067  Network.dyn_peer[14]  lookupHopsSig:vector  ETV
750067	68508 162 224 18889 20.35 27.974506936674 6 2 34 73 1593
vector 750068  Network.dyn_peer[14]  lookupStabilitySig:vector  ETV
750068	68670 250 224 18889 20.35 27.974506936674 6 0.33333331346512 0.84403669834137 3.9672134816647 2.7951739463689
vector 750069  Network.dyn_peer[14]  lookupTimeSig:vector  ETV
750069	68920 172 224 18889 20.35 27.974506936674 6 0.2 3.5 7.8 17.4
vector 750097  Network.dyn_peer[24]  lookupHopsSig:vector  ETV
750097	75076 163 228 12477 20.35 24.850286171623 6 1 13 37 335
vector 750098  Network.dyn_peer[24]  lookupStabilitySig:vector  ETV
750098	75239 239 228 12477 20.35 24.850286171623 6 0.25 0.94999999925494 4.4525396376848 3.6468390174643
vector 750099  Network.dyn_peer[24]  lookupTimeSig:vector  ETV
750099	75478 173 228 12477 20.35 24.850286171623 6 0.1 1.4 4.2 4.12
vector 750079  Network.dyn_peer[18]  lookupHopsSig:vector  ETV
750079	70820 287 259 19000 20.39 28.066351471424 10 2 23 69 883
vector 750080  Network.dyn_peer[18]  lookupStabilitySig:vector  ETV
750080	71107 435 259 19000 20.39 28.066351471424 10 0.33333331346512 0.98198198154569 8.2396421656013 7.207426328307
vector 750081  Network.dyn_peer[18]  lookupTimeSig:vector  ETV
750081	71542 305 259 19000 20.39 28.066351471424 10 0.2 2.4 7.8 10.26
vector 750055  Network.dyn_peer[10]  lookupHopsSig:vector  ETV
750055	65788 220 277 11560 20.41 24.549741213401 8 1 8 36 216
vector 750056  Network.dyn_peer[10]  lookupStabilitySig:vector  ETV
750056	66008 340 277 11560 20.41 24.549741213401 8 0.33333331346512 0.98749999981374 5.9586938759312 4.8689828550008
vector 750057  Network.dyn_peer[10]  lookupTimeSig:vector  ETV
750057	66348 236 277 11560 20.41 24.549741213401 8 0.2 0.9 4.3 2.89
vector 750088  Network.dyn_peer[21]  lookupHopsSig:vector  ETV
750088	73522 165 288 18650 20.42 27.811809062108 6 1 26 69 1233
vector 750089  Network.dyn_peer[21]  lookupStabilitySig:vector  ETV
750089	73687 251 288 18650 20.42 27.811809062108 6 0.41666668653488 0.99107142817229 4.528942364268 3.6370638613524
vector 750090  Network.dyn_peer[21]  lookupTimeSig:vector  ETV
750090	73938 173 288 18650 20.42 27.811809062108 6 0.2 2.7 7.4 13.72
vector 750034  Network.dyn_peer[3]  lookupHopsSig:vector  ETV
750034	61385 164 309 13574 20.44 25.242930906885 6 2 12 41 365
vector 750035  Network.dyn_peer[3]  lookupStabilitySig:vector  ETV
750035	61549 238 309 13574 20.44 25.242930906885 6 0.19999998807907 0.97894736751914 4.1357797384262 3.3127709130909
vector 750036  Network.dyn_peer[3]  lookupTimeSig:vector  ETV
750036	61787 174 309 13574 20.44 25.242930906885 6 0.3 1.3 4.6 4.44
vector 750130  Network.dyn_peer[35]  lookupHopsSig:vector  ETV
750130	80287 133 328 15401 20.46 25.983444314046 5 1 18 52 738
vector 750131  Network.dyn_peer[35]  lookupStabilitySig:vector  ETV
750131	80420 194 328 15401 20.46 25.983444314046 5 0.4482758641243 0.92666666954756 3.8411010727286 3.0885515184311
vector 750132  Network.dyn_peer[35]  lookupTimeSig:vector  ETV
750132	80614 140 328 15401 20.46 25.983444314046 5 0.1 1.9 5.6 8.44
vector 750106  Network.dyn_peer[27]  lookupHopsSig:vector  ETV
750106	76475 234 349 19664 20.48 28.643772575188 8 1 13 56 560
vector 750107  Network.dyn_peer[27]  lookupStabilitySig:vector  ETV
750107	76709 350 349 19664 20.48 28.643772575188 8 0.5714285671711 0.96954314783216 6.5059886276722 5.4831382338642
vector 750108  Network.dyn_peer[27]  lookupTimeSig:vector  ETV
750108	77059 245 349 19664 20.48 28.643772575188 8 0.2 1.4 6.3 6.75
vector 750049  Network.dyn_peer[8]  lookupHopsSig:vector  ETV
750049	64634 223 362 20551 20.49 29.673640872326 8 2 18 84 1126
vector 750050  Network.dyn_peer[8]  lookupStabilitySig:vector  ETV
750050	64857 339 362 20551 20.49 29.673640872326 8 0.19999998807907 0.94861660152674 5.7732268869877 4.6011114168401
vector 750051  Network.dyn_peer[8]  lookupTimeSig:vector  ETV
750051	65196 233 362 20551 20.49 29.673640872326 8 0.3 1.9 9.1 12.93
vector 750109  Network.dyn_peer[28]  lookupHopsSig:vector  ETV
750109	77304 101 366 14236 20.49 25.4975592473 4 2 20 49 809
vector 750110  Network.dyn_peer[28]  lookupStabilitySig:vector  ETV
750110	77405 157 366 14236 20.49 25.4975592473 4 0.41176468133926 0.92913385480642 2.7130504325032 1.9890584260466
vector 750111  Network.dyn_peer[28]  lookupTimeSig:vector  ETV
750111	77562 105 366 14236 20.49 25.4975592473 4 0.2 2.1 5.2 9.06
vector 750121  Network.dyn_peer[32]  lookupHopsSig:vector  ETV
750121	78856 134 403 15785 20.53 26.157193775891 5 2 14 44 470
vector 750122  Network.dyn_peer[32]  lookupStabilitySig:vector  ETV
750122	78990 193 403 15785 20.53 26.157193775891 5 0.5 0.93827160447836 3.6442913487554 2.788431139579
vector 750123  Network.dyn_peer[32]  lookupTimeSig:vector  ETV
750123	79183 141 403 15785 20.53 26.157193775891 5 0.2 1.5 4.8 5.58
vector 750064  Network.dyn_peer[13]  lookupHopsSig:vector  ETV
750064	68034 131 418 12802 20.54 24.962965316536 5 2 16 44 536
vector 750065  Network.dyn_peer[13]  lookupStabilitySig:vector  ETV
750065	68165 204 418 12802 20.54 24.962965316536 5 0.19999998807907 0.84615384042263 3.0716460347176 2.1762233020494
vector 750066  Network.dyn_peer[13]  lookupTimeSig:vector  ETV
750066	68369 139 418 12802 20.54 24.962965316536 5 0.3 1.7 4.8 6.2
vector 750070  Network.dyn_peer[15]  lookupHopsSig:vector  ETV
750070	69092 226 444 19349 20.56 28.344369476611 8 2 18 60 642
vector 750071  Network.dyn_peer[15]  lookupStabilitySig:vector  ETV
750071	69318 329 444 19349 20.56 28.344369476611 8 0.19999998807907 0.97395833395422 6.162104787305 5.2766653467346
vector 750072  Network.dyn_peer[15]  lookupTimeSig:vector  ETV
750072	69647 239 444 19349 20.56 28.344369476611 8 0.3 1.9 6.7 7.61
vector 750103  Network.dyn_peer[26]  lookupHopsSig:vector  ETV
750103	76017 129 456 12967 20.57 25.02523346447 5 2 18 37 443
vector 750104  Network.dyn_peer[26]  lookupStabilitySig:vector  ETV
750104	76146 193 456 12967 20.57 25.02523346447 5 0.39999997615814 0.82857142388821 3.4136203974485 2.4494011454789
vector 750105  Network.dyn_peer[26]  lookupTimeSig:vector  ETV
750105	76339 136 456 12967 20.57 25.02523346447 5 0.3 1.9 4.1 5.15
vector 750115  Network.dyn_peer[30]  lookupHopsSig:vector  ETV
750115	78216 81 495 10541 20.61 24.226672479884 3 3 20 37 605
vector 750116  Network.dyn_peer[30]  lookupStabilitySig:vector  ETV
750116	78297 124 495 10541 20.61 24.226672479884 3 0.39999997615814 0.72972974181175 1.6469711065292 0.96004413104995
vector 750117  Network.dyn_peer[30]  lookupTimeSig:vector  ETV
750117	78421 85 495 10541 20.61 24.226672479884 3 0.3 2.1 3.9 6.75
vector 750220  Network.dyn_peer[65]  lookupHopsSig:vector  ETV
750220	96401 110 550 10395 20.66 24.179144258519 4 0 20 32 480
vector 750221  Network.dyn_peer[65]  lookupStabilitySig:vector  ETV
750221	96511 154 550 10395 20.66 24.179144258519 4 0.55555555224419 1 3.1277367919684 2.5517340778279
vector 750222  Network.dyn_peer[65]  lookupTimeSig:vector  ETV
750222	96665 115 550 10395 20.66 24.179144258519 4 0 2.1 3.5 5.47
vector 750076  Network.dyn_peer[17]  lookupHopsSig:vector  ETV
750076	70366 131 570 13131 20.68 25.086149040513 5 3 19 45 557
vector 750077  Network.dyn_peer[17]  lookupStabilitySig:vector  ETV
750077	70497 189 570 13131 20.68 25.086149040513 5 0 0.88461538404226 3.0876645073295 2.440430580155
vector 750078  Network.dyn_peer[17]  lookupTimeSig:vector  ETV
750078	70686 134 570 13131 20.68 25.086149040513 5 0.4 2 4.9 6.41
vector 750136  Network.dyn_peer[37]  lookupHopsSig:vector  ETV
750136	81565 193 574 14578 20.68 25.632479009612 7 2 13 43 345
vector 750137  Network.dyn_peer[37]  lookupStabilitySig:vector  ETV
750137	81758 284 574 14578 20.68 25.632479009612 7 0.39999997615814 0.98507462721318 5.5061999550089 4.6704441006699
vector 750138  Network.dyn_peer[37]  lookupTimeSig:vector  ETV
750138	82042 206 574 14578 20.68 25.632479009612 7 0.3 1.4 4.9 4.31
vector 750226  Network.dyn_peer[67]  lookupHopsSig:vector  ETV
750226	97135 297 580 20776 20.68 30.009087781588 10 0 19 81 949
vector 750227  Network.dyn_peer[67]  lookupStabilitySig:vector  ETV
750227	97432 427 580 20776 20.68 30.009087781588 10 0.58333334326744 1 8.8314630328678 7.9652199743493
vector 750228  Network.dyn_peer[67]  lookupTimeSig:vector  ETV
750228	97859 309 580 20776 20.68 30.009087781588 10 0 2 9 11.2
vector 750085  Network.dyn_peer[20]  lookupHopsSig:vector  ETV
750085	72525 286 617 20896 20.71 30.165602381778 10 1 13 70 618
vector 750086  Network.dyn_peer[20]  lookupStabilitySig:vector  ETV
750086	72811 408 617 20896 20.71 30.165602381778 10 0 0.97297297231853 7.9707222618163 7.1977193201337
vector 750087  Network.dyn_peer[20]  lookupTimeSig:vector  ETV
750087	73219 303 617 20896 20.71 30.165602381778 10 0.2 1.4 7.9 7.57
vector 750094  Network.dyn_peer[23]  lookupHopsSig:vector  ETV
750094	74691 112 652 12205 20.74 24.759423906064 4 3 12 31 299
vector 750095  Network.dyn_peer[23]  lookupStabilitySig:vector  ETV
750095	74803 155 652 12205 20.74 24.759423906064 4 0 0.94915254414082 2.3533630818129 1.9531188191642
vector 750096  Network.dyn_peer[23]  lookupTimeSig:vector  ETV
750096	74958 118 652 12205 20.74 24.759423906064 4 0.4 1.3 3.4 3.54
vector 750154  Network.dyn_peer[43]  lookupHopsSig:vector  ETV
750154	84535 132 656 12800 20.74 24.962330356995 5 2 20 41 541
vector 750155  Network.dyn_peer[43]  lookupStabilitySig:vector  ETV
750155	84667 206 656 12800 20.74 24.962330356995 5 0.39999997615814 0.97101449221373 3.5933938324451 2.7998075297094
vector 750156  Network.dyn_peer[43]  lookupTimeSig:vector  ETV
750156	84873 141 656 12800 20.74 24.962330356995 5 0.3 2.1 4.5 6.21
vector 750217  Network.dyn_peer[64]  lookupHopsSig:vector  ETV
750217	96152 70 672 4888 20.75 22.556517487566 3 1 10 17 137
vector 750218  Network.dyn_peer[64]  lookupStabilitySig:vector  ETV
750218	96222 104 672 4888 20.75 22.556517487566 3 0.64705881476402 0.79999999701977 2.1345588117838 1.5313413549955
vector 750219  Network.dyn_peer[64]  lookupTimeSig:vector  ETV
750219	96326 75 672 4888 20.75 22.556517487566 3 0.1 1.1 1.9 1.71
vector 750190  Network.dyn_peer[55]  lookupHopsSig:vector  ETV
750190	91194 133 687 14675 20.76 25.670186217397 5 2 20 47 621
vector 750191  Network.dyn_peer[55]  lookupStabilitySig:vector  ETV
750191	91327 205 687 14675 20.76 25.670186217397 5 0.59090909361839 0.9558823518455 3.7068105600774 2.8408580165946
vector 750192  Network.dyn_peer[55]  lookupTimeSig:vector  ETV
750192	91532 139 687 14675 20.76 25.670186217397 5 0.2 2.1 5.1 7.15
vector 750139  Network.dyn_peer[38]  lookupHopsSig:vector  ETV
750139	82248 171 723 14565 20.79 25.629122147259 6 1 15 40 380
vector 750140  Network.dyn_peer[38]  lookupStabilitySig:vector  ETV
750140	82419 237 723 14565 20.79 25.629122147259 6 0.19999998807907 0.94999999925494 4.4515350721777 3.7154409415054
vector 750141  Network.dyn_peer[38]  lookupTimeSig:vector  ETV
750141	82656 182 723 14565 20.79 25.629122147259 6 0.2 1.6 4.5 4.57
vector 750232  Network.dyn_peer[69]  lookupHopsSig:vector  ETV
750232	99532 190 742 17254 20.8 26.927830023593 7 1 17 56 686
vector 750233  Network.dyn_peer[69]  lookupStabilitySig:vector  ETV
750233	99722 279 742 17254 20.8 26.927830023593 7 0.5 0.92499999701977 5.8834818378091 5.0921123236501
vector 750234  Network.dyn_peer[69]  lookupTimeSig:vector  ETV
750234	100001 201 742 17254 20.8 26.927830023593 7 0.1 1.8 6.2 8.02
vector 750205  Network.dyn_peer[60]  lookupHopsSig:vector  ETV
750205	93564 82 757 11189 20.81 24.430731812159 3 2 23 35 633
vector 750206  Network.dyn_peer[60]  lookupStabilitySig:vector  ETV
750206	93646 125 757 11189 20.81 24.430731812159 3 0.56521740555763 0.70512819290161 1.8703455924988 1.1766764768174
vector 750207  Network.dyn_peer[60]  lookupTimeSig:vector  ETV
750207	93771 86 757 11189 20.81 24.430731812159 3 0.2 2.4 3.7 7.01
vector 750148  Network.dyn_peer[41]  lookupHopsSig:vector  ETV
750148	83900 102 774 12133 20.82 24.732785851848 4 4 18 40 504
vector 750149  Network.dyn_peer[41]  lookupStabilitySig:vector  ETV
750149	84002 160 774 12133 20.82 24.732785851848 4 0.19999998807907 0.80645161867142 2.3897849470377 1.6706419930886
vector 750150  Network.dyn_peer[41]  lookupTimeSig:vector  ETV
750150	84162 108 774 12133 20.82 24.732785851848 4 0.4 1.9 4.3 5.79
vector 750184  Network.dyn_peer[53]  lookupHopsSig:vector  ETV
750184	89600 348 802 20327 20.84 29.374432792888 12 1 13 76 672
vector 750185  Network.dyn_peer[53]  lookupStabilitySig:vector  ETV
750185	89948 508 802 20327 20.84 29.374432792888 12 0.5 0.99532710295171 10.554196270183 9.5922652622003
vector 750186  Network.dyn_peer[53]  lookupTimeSig:vector  ETV
750186	90456 369 802 20327 20.84 29.374432792888 12 0.2 1.4 8.7 8.29
vector 750157  Network.dyn_peer[44]  lookupHopsSig:vector  ETV
750157	85014 164 820 19480 20.85 28.468145201428 6 1 30 75 1631
vector 750158  Network.dyn_peer[44]  lookupStabilitySig:vector  ETV
750158	85178 250 820 19480 20.85 28.468145201428 6 0.33333331346512 0.96774193644524 4.4395650550723 3.5867648120233
vector 750159  Network.dyn_peer[44]  lookupTimeSig:vector  ETV
750159	85428 173 820 19480 20.85 28.468145201428 6 0.2 3.1 8 17.78
vector 750160  Network.dyn_peer[45]  lookupHopsSig:vector  ETV
750160	85601 221 838 17926 20.86 27.345149426794 8 2 15 49 443
vector 750161  Network.dyn_peer[45]  lookupStabilitySig:vector  ETV
750161	85822 326 838 17926 20.86 27.345149426794 8 0.33333331346512 0.9558823518455 6.53358989954 5.6487331059145
vector 750162  Network.dyn_peer[45]  lookupTimeSig:vector  ETV
750162	86148 235 838 17926 20.86 27.345149426794 8 0.3 1.6 5.6 5.4
vector 750163  Network.dyn_peer[46]  lookupHopsSig:vector  ETV
750163	86383 162 854 12010 20.87 24.697497133103 6 1 12 37 299
vector 750164  Network.dyn_peer[46]  lookupStabilitySig:vector  ETV
750164	86545 250 854 12010 20.87 24.697497133103 6 0.33333331346512 0.9545454531908 4.5139262825251 3.6631975149839
vector 750165  Network.dyn_peer[46]  lookupTimeSig:vector  ETV
750165	86795 173 854 12010 20.87 24.697497133103 6 0.2 1.3 4.2 3.7
vector 750193  Network.dyn_peer[56]  lookupHopsSig:vector  ETV
750193	91671 133 859 18847 20.87 27.939159184276 5 3 17 46 540
vector 750194  Network.dyn_peer[56]  lookupStabilitySig:vector  ETV
750194	91804 193 859 18847 20.87 27.939159184276 5 0.5 0.96774193644524 3.7784779146314 3.0089644257019
vector 750195  Network.dyn_peer[56]  lookupTimeSig:vector  ETV
750195	91997 141 859 18847 20.87 27.939159184276 5 0.3 1.8 5 6.3
vector 750166  Network.dyn_peer[47]  lookupHopsSig:vector  ETV
750166	86968 221 874 12635 20.88 24.909728365526 8 1 8 37 219
vector 750167  Network.dyn_peer[47]  lookupStabilitySig:vector  ETV
750167	87189 340 874 12635 20.88 24.909728365526 8 0.33333331346512 0.9746835436672 6.4941970743239 5.6202918694885
vector 750168  Network.dyn_peer[47]  lookupTimeSig:vector  ETV
750168	87529 237 874 12635 20.88 24.909728365526 8 0.2 0.9 4.4 2.92
vector 750112  Network.dyn_peer[29]  lookupHopsSig:vector  ETV
750112	77667 159 903 16538 20.9 26.528140221291 6 1 25 46 728
vector 750113  Network.dyn_peer[29]  lookupStabilitySig:vector  ETV
750113	77826 220 903 16538 20.9 26.528140221291 6 0 0.9473684206605 4.3736677020788 3.8492499481768
vector 750114  Network.dyn_peer[29]  lookupTimeSig:vector  ETV
750114	78046 170 903 16538 20.9 26.528140221291 6 0.2 2.6 5.1 8.13
vector 750265  Network.dyn_peer[80]  lookupHopsSig:vector  ETV
750265	107004 444 919 22312 20.91 36.011643730444 15 1 22 127 1481
vector 750266  Network.dyn_peer[80]  lookupStabilitySig:vector  ETV
750266	107448 662 919 22312 20.91 36.011643730444 15 0.63636362552643 0.99285714281723 13.721968590748 12.706122042048
vector 750267  Network.dyn_peer[80]  lookupTimeSig:vector  ETV
750267	108110 466 919 22312 20.91 36.011643730444 15 0.1 2.3 14.1 17.47
vector 750118  Network.dyn_peer[31]  lookupHopsSig:vector  ETV
750118	78506 100 936 7607 20.92 23.327027223738 4 1 16 27 309
vector 750119  Network.dyn_peer[31]  lookupStabilitySig:vector  ETV
750119	78606 143 936 7607 20.92 23.327027223738 4 0 0.97499999962747 2.4303376879543 2.0882406333061
vector 750120  Network.dyn_peer[31]  lookupTimeSig:vector  ETV
750120	78749 107 936 7607 20.92 23.327027223738 4 0.2 1.7 3 3.54
vector 750214  Network.dyn_peer[63]  lookupHopsSig:vector  ETV
750214	95154 290 967 21099 20.94 30.473227997723 10 2 16 89 973
vector 750215  Network.dyn_peer[63]  lookupStabilitySig:vector  ETV
750215	95444 406 967 21099 20.94 30.473227997723 10 0.5 0.96183206140995 8.5267917849123 7.5621019459424
vector 750216  Network.dyn_peer[63]  lookupTimeSig:vector  ETV
750216	95850 302 967 21099 20.94 30.473227997723 10 0.3 1.7 9.8 11.54
vector 750247  Network.dyn_peer[74]  lookupHopsSig:vector  ETV
750247	103780 173 983 19434 20.95 28.427620605482 6 2 21 64 928
vector 750248  Network.dyn_peer[74]  lookupStabilitySig:vector  ETV
750248	103953 261 983 19434 20.95 28.427620605482 6 0.66666665673256 0.96506550163031 4.8259628415108 3.9551059853812
vector 750249  Network.dyn_peer[74]  lookupTimeSig:vector  ETV
750249	104214 181 983 19434 20.95 28.427620605482 6 0.2 2.2 6.9 10.57
vector 750250  Network.dyn_peer[75]  lookupHopsSig:vector  ETV
750250	104395 100 1003 4972 20.96 22.576350684494 4 1 7 15 79
vector 750251  Network.dyn_peer[75]  lookupStabilitySig:vector  ETV
750251	104495 160 1003 4972 20.96 22.576350684494 4 0.66666665673256 0.96969696879387 3.1172065287828 2.4818669194156
vector 750252  Network.dyn_peer[75]  lookupTimeSig:vector  ETV
750252	104655 108 1003 4972 20.96 22.576350684494 4 0.2 0.8 1.8 1.08
vector 750172  Network.dyn_peer[49]  lookupHopsSig:vector  ETV
750172	88240 128 1058 12336 21 24.804182001158 5 3 12 33 267
vector 750173  Network.dyn_peer[49]  lookupStabilitySig:vector  ETV
750173	88368 191 1058 12336 21 24.804182001158 5 0.16666668653488 0.94915254414082 3.5428286790848 2.9044451183135
vector 750174  Network.dyn_peer[49]  lookupTimeSig:vector  ETV
750174	88559 137 1058 12336 21 24.804182001158 5 0.4 1.3 3.7 3.27
vector 750202  Network.dyn_peer[59]  lookupHopsSig:vector  ETV
750202	93202 100 1062 14784 21 25.719563109401 4 4 17 48 682
vector 750203  Network.dyn_peer[59]  lookupStabilitySig:vector  ETV
750203	93302 157 1062 14784 21 25.719563109401 4 0.33333331346512 0.87681159377098 2.5846807211638 1.8334493465765
vector 750204  Network.dyn_peer[59]  lookupTimeSig:vector  ETV
750204	93459 105 1062 14784 21 25.719563109401 4 0.4 1.8 5.1 7.73
vector 750181  Network.dyn_peer[52]  lookupHopsSig:vector  ETV
750181	89444 42 1104 12988 21.03 25.03 2 5 39 44 1546
vector 750182  Network.dyn_peer[52]  lookupStabilitySig:vector  ETV
750182	89486 71 1104 12988 21.03 25.03 2 0.28571426868439 0.62857142090797 0.91428568959236 0.47673467451212
vector 750183  Network.dyn_peer[52]  lookupTimeSig:vector  ETV
750183	89557 43 1104 12988 21.03 25.03 2 0.5 4 4.5 16.25
vector 750274  Network.dyn_peer[83]  lookupHopsSig:vector  ETV
750274	109215 162 1123 12260 21.04 24.774556879254 6 2 12 33 263
vector 750275  Network.dyn_peer[83]  lookupStabilitySig:vector  ETV
750275	109377 230 1123 12260 21.04 24.774556879254 6 0.70967742800713 0.93103448301554 4.9693268835545 4.1654650713899
vector 750276  Network.dyn_peer[83]  lookupTimeSig:vector  ETV
750276	109607 171 1123 12260 21.04 24.774556879254 6 0.2 1.3 3.8 3.3
vector 750127  Network.dyn_peer[34]  lookupHopsSig:vector  ETV
750127	79699 169 1141 21740 21.05 31.864503902434 6 7 38 110 2642
vector 750128  Network.dyn_peer[34]  lookupStabilitySig:vector  ETV
750128	79868 243 1141 21740 21.05 31.864503902434 6 0.125 0.95546558871865 4.2884497158229 3.5873451558441
vector 750129  Network.dyn_peer[34]  lookupTimeSig:vector  ETV
750129	80111 176 1141 21740 21.05 31.864503902434 6 0.7 3.9 11.5 28.53
vector 750100  Network.dyn_peer[25]  lookupHopsSig:vector  ETV
750100	75651 100 1163 8744 21.06 23.669471737246 4 4 14 31 301
vector 750101  Network.dyn_peer[25]  lookupStabilitySig:vector  ETV
750101	75751 159 1163 8744 21.06 23.669471737246 4 0.11111110448837 0.91525423526764 2.5132340118289 2.0116562170671
vector 750102  Network.dyn_peer[25]  lookupTimeSig:vector  ETV
750102	75910 107 1163 8744 21.06 23.669471737246 4 0.5 1.5 3.4 3.5
vector 750283  Network.dyn_peer[86]  lookupHopsSig:vector  ETV
750283	110412 135 1180 15411 21.07 25.987269959972 5 1 17 47 659
vector 750284  Network.dyn_peer[86]  lookupStabilitySig:vector  ETV
750284	110547 205 1180 15411 21.07 25.987269959972 5 0.57575756311417 0.97297297231853 4.0305390562862 3.3426330518397
vector 750285  Network.dyn_peer[86]  lookupTimeSig:vector  ETV
750285	110752 142 1180 15411 21.07 25.987269959972 5 0.2 1.8 5.1 7.53
vector 750196  Network.dyn_peer[57]  lookupHopsSig:vector  ETV
750196	92138 163 1197 14985 21.08 25.804406353696 6 2 19 47 579
vector 750197  Network.dyn_peer[57]  lookupStabilitySig:vector  ETV
750197	92301 251 1197 14985 21.08 25.804406353696 6 0.44444441795349 0.93548387289047 4.6793303117156 3.8214318817072
vector 750198  Network.dyn_peer[57]  lookupTimeSig:vector  ETV
750198	92552 171 1197 14985 21.08 25.804406353696 6 0.3 2 5.2 6.68
vector 750292  Network.dyn_peer[89]  lookupHopsSig:vector  ETV
750292	111531 412 1231 22287 21.1 35.570746931883 14 1 29 131 1935
vector 750293  Network.dyn_peer[89]  lookupStabilitySig:vector  ETV
750293	111943 616 1231 22287 21.1 35.570746931883 14 0.74193549156189 0.99645390082151 12.639343577437 11.516744850861
vector 750294  Network.dyn_peer[89]  lookupTimeSig:vector  ETV
750294	112559 429 1231 22287 21.1 35.570746931883 14 0.2 3 14.4 22.06
vector 750244  Network.dyn_peer[73]  lookupHopsSig:vector  ETV
750244	103082 195 1290 17399 21.14 27.015869155007 7 3 16 54 544
vector 750245  Network.dyn_peer[73]  lookupStabilitySig:vector  ETV
750245	103277 298 1290 17399 21.14 27.015869155007 7 0.62068966031075 0.96842105314136 5.8663954287767 5.0473645544055
vector 750246  Network.dyn_peer[73]  lookupTimeSig:vector  ETV
750246	103575 205 1290 17399 21.14 27.015869155007 7 0.4 1.7 6 6.5
vector 750280  Network.dyn_peer[85]  lookupHopsSig:vector  ETV
750280	110043 101 1324 6339 21.16 22.964658207226 4 1 11 18 140
vector 750281  Network.dyn_peer[85]  lookupStabilitySig:vector  ETV
750281	110144 160 1324 6339 21.16 22.964658207226 4 0.62068966031075 0.96969696879387 3.2462307736278 2.7167383657461
vector 750282  Network.dyn_peer[85]  lookupTimeSig:vector  ETV
750282	110304 108 1324 6339 21.16 22.964658207226 4 0.2 1.2 2.1 1.73
vector 750370  Network.dyn_peer[115]  lookupHopsSig:vector  ETV
750370	125773 287 1330 19769 21.16 28.761729038526 10 0 11 62 472
vector 750371  Network.dyn_peer[115]  lookupStabilitySig:vector  ETV
750371	126060 418 1330 19769 21.16 28.761729038526 10 0.62068966031075 1 9.1477502454072 8.4850410192267
vector 750372  Network.dyn_peer[115]  lookupTimeSig:vector  ETV
750372	126478 302 1330 19769 21.16 28.761729038526 10 0 1.2 7.1 6.05
vector 750262  Network.dyn_peer[79]  lookupHopsSig:vector  ETV
750262	106535 129 1393 15392 21.2 25.978188717888 5 3 22 37 541
vector 750263  Network.dyn_peer[79]  lookupStabilitySig:vector  ETV
750263	106664 202 1393 15392 21.2 25.978188717888 5 0.63636362552643 0.9333333298564 4.1082154735923 3.4243435679141
vector 750264  Network.dyn_peer[79]  lookupTimeSig:vector  ETV
750264	106866 138 1393 15392 21.2 25.978188717888 5 0.4 2.3 4.1 6.11
vector 750145  Network.dyn_peer[40]  lookupHopsSig:vector  ETV
750145	83639 70 1409 3531 21.21 22.111750695053 3 3 8 15 89
vector 750146  Network.dyn_peer[40]  lookupStabilitySig:vector  ETV
750146	83709 115 1409 3531 21.21 22.111750695053 3 0.27272725105286 0.85714285075665 1.9798700958491 1.5315740099373
vector 750147  Network.dyn_peer[40]  lookupTimeSig:vector  ETV
750147	83824 76 1409 3531 21.21 22.111750695053 3 0.4 0.8 1.7 1.05
vector 750238  Network.dyn_peer[71]  lookupHopsSig:vector  ETV
750238	100462 353 1430 21630 21.22 31.553298389811 12 2 24 97 1275
vector 750239  Network.dyn_peer[71]  lookupStabilitySig:vector  ETV