file 140571 1369696973                                          
version 2
run Stability2-13-20130528-01:22:47-24168
attr configname Stability2
attr datetime 20130528-01:22:47
attr experiment Stability2
attr inifile omnetpp.ini
attr iterationvars $0=20
attr iterationvars2 "$0=20, $repetition=3"
attr measurement $0=20
attr network Network
attr processid 24168
attr repetition 3
attr replication #3
attr resultdir results
attr runnumber 13
attr seedset 13

vector 420013  Network.churner  inGoingSizeSig:vector  ETV
vector 390022  Network.dyn_peer[3]  lookupHopsSig:vector  ETV
vector 390023  Network.dyn_peer[3]  lookupStabilitySig:vector  ETV
vector 390024  Network.dyn_peer[3]  lookupTimeSig:vector  ETV
vector 390028  Network.dyn_peer[5]  lookupHopsSig:vector  ETV
vector 390029  Network.dyn_peer[5]  lookupStabilitySig:vector  ETV
vector 390030  Network.dyn_peer[5]  lookupTimeSig:vector  ETV
vector 390031  Network.dyn_peer[6]  lookupHopsSig:vector  ETV
vector 390032  Network.dyn_peer[6]  lookupStabilitySig:vector  ETV
vector 390033  Network.dyn_peer[6]  lookupTimeSig:vector  ETV
vector 390013  Network.dyn_peer[0]  lookupHopsSig:vector  ETV
vector 390014  Network.dyn_peer[0]  lookupStabilitySig:vector  ETV
vector 390015  Network.dyn_peer[0]  lookupTimeSig:vector  ETV
vector 390016  Network.dyn_peer[1]  lookupHopsSig:vector  ETV
vector 390017  Network.dyn_peer[1]  lookupStabilitySig:vector  ETV
vector 390018  Network.dyn_peer[1]  lookupTimeSig:vector  ETV
vector 390049  Network.dyn_peer[12]  lookupHopsSig:vector  ETV
vector 390050  Network.dyn_peer[12]  lookupStabilitySig:vector  ETV
vector 390051  Network.dyn_peer[12]  lookupTimeSig:vector  ETV
vector 390055  Network.dyn_peer[14]  lookupHopsSig:vector  ETV
vector 390056  Network.dyn_peer[14]  lookupStabilitySig:vector  ETV
vector 390057  Network.dyn_peer[14]  lookupTimeSig:vector  ETV
vector 390061  Network.dyn_peer[16]  lookupHopsSig:vector  ETV
vector 390062  Network.dyn_peer[16]  lookupStabilitySig:vector  ETV
vector 390063  Network.dyn_peer[16]  lookupTimeSig:vector  ETV
vector 390034  Network.dyn_peer[7]  lookupHopsSig:vector  ETV
vector 390035  Network.dyn_peer[7]  lookupStabilitySig:vector  ETV
vector 390036  Network.dyn_peer[7]  lookupTimeSig:vector  ETV
vector 390037  Network.dyn_peer[8]  lookupHopsSig:vector  ETV
vector 390038  Network.dyn_peer[8]  lookupStabilitySig:vector  ETV
vector 390039  Network.dyn_peer[8]  lookupTimeSig:vector  ETV
vector 390040  Network.dyn_peer[9]  lookupHopsSig:vector  ETV
vector 390041  Network.dyn_peer[9]  lookupStabilitySig:vector  ETV
vector 390042  Network.dyn_peer[9]  lookupTimeSig:vector  ETV
vector 390070  Network.dyn_peer[19]  lookupHopsSig:vector  ETV
vector 390071  Network.dyn_peer[19]  lookupStabilitySig:vector  ETV
vector 390072  Network.dyn_peer[19]  lookupTimeSig:vector  ETV
vector 390043  Network.dyn_peer[10]  lookupHopsSig:vector  ETV
vector 390044  Network.dyn_peer[10]  lookupStabilitySig:vector  ETV
vector 390045  Network.dyn_peer[10]  lookupTimeSig:vector  ETV
vector 390046  Network.dyn_peer[11]  lookupHopsSig:vector  ETV
vector 390047  Network.dyn_peer[11]  lookupStabilitySig:vector  ETV
vector 390048  Network.dyn_peer[11]  lookupTimeSig:vector  ETV
vector 390079  Network.dyn_peer[22]  lookupHopsSig:vector  ETV
vector 390080  Network.dyn_peer[22]  lookupStabilitySig:vector  ETV
vector 390081  Network.dyn_peer[22]  lookupTimeSig:vector  ETV
vector 390088  Network.dyn_peer[25]  lookupHopsSig:vector  ETV
vector 390089  Network.dyn_peer[25]  lookupStabilitySig:vector  ETV
vector 390090  Network.dyn_peer[25]  lookupTimeSig:vector  ETV
vector 390118  Network.dyn_peer[35]  lookupHopsSig:vector  ETV
vector 390119  Network.dyn_peer[35]  lookupStabilitySig:vector  ETV
vector 390120  Network.dyn_peer[35]  lookupTimeSig:vector  ETV
vector 390121  Network.dyn_peer[36]  lookupHopsSig:vector  ETV
vector 390122  Network.dyn_peer[36]  lookupStabilitySig:vector  ETV
vector 390123  Network.dyn_peer[36]  lookupTimeSig:vector  ETV
vector 390100  Network.dyn_peer[29]  lookupHopsSig:vector  ETV
vector 390101  Network.dyn_peer[29]  lookupStabilitySig:vector  ETV
vector 390102  Network.dyn_peer[29]  lookupTimeSig:vector  ETV
vector 390073  Network.dyn_peer[20]  lookupHopsSig:vector  ETV
vector 390074  Network.dyn_peer[20]  lookupStabilitySig:vector  ETV
vector 390075  Network.dyn_peer[20]  lookupTimeSig:vector  ETV
vector 390076  Network.dyn_peer[21]  lookupHopsSig:vector  ETV
vector 390077  Network.dyn_peer[21]  lookupStabilitySig:vector  ETV
vector 390078  Network.dyn_peer[21]  lookupTimeSig:vector  ETV
vector 390052  Network.dyn_peer[13]  lookupHopsSig:vector  ETV
vector 390053  Network.dyn_peer[13]  lookupStabilitySig:vector  ETV
vector 390054  Network.dyn_peer[13]  lookupTimeSig:vector  ETV
vector 390085  Network.dyn_peer[24]  lookupHopsSig:vector  ETV
vector 390086  Network.dyn_peer[24]  lookupStabilitySig:vector  ETV
vector 390087  Network.dyn_peer[24]  lookupTimeSig:vector  ETV
vector 390058  Network.dyn_peer[15]  lookupHopsSig:vector  ETV
vector 390059  Network.dyn_peer[15]  lookupStabilitySig:vector  ETV
vector 390060  Network.dyn_peer[15]  lookupTimeSig:vector  ETV
vector 390067  Network.dyn_peer[18]  lookupHopsSig:vector  ETV
vector 390068  Network.dyn_peer[18]  lookupStabilitySig:vector  ETV
vector 390069  Network.dyn_peer[18]  lookupTimeSig:vector  ETV
vector 390115  Network.dyn_peer[34]  lookupHopsSig:vector  ETV
vector 390116  Network.dyn_peer[34]  lookupStabilitySig:vector  ETV
vector 390117  Network.dyn_peer[34]  lookupTimeSig:vector  ETV
vector 390145  Network.dyn_peer[44]  lookupHopsSig:vector  ETV
vector 390146  Network.dyn_peer[44]  lookupStabilitySig:vector  ETV
vector 390147  Network.dyn_peer[44]  lookupTimeSig:vector  ETV
vector 390064  Network.dyn_peer[17]  lookupHopsSig:vector  ETV
vector 390065  Network.dyn_peer[17]  lookupStabilitySig:vector  ETV
vector 390066  Network.dyn_peer[17]  lookupTimeSig:vector  ETV
vector 390094  Network.dyn_peer[27]  lookupHopsSig:vector  ETV
vector 390095  Network.dyn_peer[27]  lookupStabilitySig:vector  ETV
vector 390096  Network.dyn_peer[27]  lookupTimeSig:vector  ETV
vector 390190  Network.dyn_peer[59]  lookupHopsSig:vector  ETV
vector 390191  Network.dyn_peer[59]  lookupStabilitySig:vector  ETV
vector 390192  Network.dyn_peer[59]  lookupTimeSig:vector  ETV
vector 390133  Network.dyn_peer[40]  lookupHopsSig:vector  ETV
vector 390134  Network.dyn_peer[40]  lookupStabilitySig:vector  ETV
vector 390135  Network.dyn_peer[40]  lookupTimeSig:vector  ETV
vector 390091  Network.dyn_peer[26]  lookupHopsSig:vector  ETV
vector 390092  Network.dyn_peer[26]  lookupStabilitySig:vector  ETV
vector 390093  Network.dyn_peer[26]  lookupTimeSig:vector  ETV
vector 390097  Network.dyn_peer[28]  lookupHopsSig:vector  ETV
vector 390098  Network.dyn_peer[28]  lookupStabilitySig:vector  ETV
vector 390099  Network.dyn_peer[28]  lookupTimeSig:vector  ETV
vector 390019  Network.dyn_peer[2]  lookupHopsSig:vector  ETV
vector 390020  Network.dyn_peer[2]  lookupStabilitySig:vector  ETV
vector 390021  Network.dyn_peer[2]  lookupTimeSig:vector  ETV
vector 390199  Network.dyn_peer[62]  lookupHopsSig:vector  ETV
vector 390200  Network.dyn_peer[62]  lookupStabilitySig:vector  ETV
vector 390201  Network.dyn_peer[62]  lookupTimeSig:vector  ETV
vector 390112  Network.dyn_peer[33]  lookupHopsSig:vector  ETV
vector 390113  Network.dyn_peer[33]  lookupStabilitySig:vector  ETV
vector 390114  Network.dyn_peer[33]  lookupTimeSig:vector  ETV
vector 390025  Network.dyn_peer[4]  lookupHopsSig:vector  ETV
vector 390026  Network.dyn_peer[4]  lookupStabilitySig:vector  ETV
vector 390027  Network.dyn_peer[4]  lookupTimeSig:vector  ETV
vector 390154  Network.dyn_peer[47]  lookupHopsSig:vector  ETV
vector 390155  Network.dyn_peer[47]  lookupStabilitySig:vector  ETV
vector 390156  Network.dyn_peer[47]  lookupTimeSig:vector  ETV
vector 390127  Network.dyn_peer[38]  lookupHopsSig:vector  ETV
vector 390128  Network.dyn_peer[38]  lookupStabilitySig:vector  ETV
vector 390129  Network.dyn_peer[38]  lookupTimeSig:vector  ETV
vector 390196  Network.dyn_peer[61]  lookupHopsSig:vector  ETV
vector 390197  Network.dyn_peer[61]  lookupStabilitySig:vector  ETV
vector 390198  Network.dyn_peer[61]  lookupTimeSig:vector  ETV
vector 390109  Network.dyn_peer[32]  lookupHopsSig:vector  ETV
vector 390110  Network.dyn_peer[32]  lookupStabilitySig:vector  ETV
vector 390111  Network.dyn_peer[32]  lookupTimeSig:vector  ETV
vector 390169  Network.dyn_peer[52]  lookupHopsSig:vector  ETV
vector 390170  Network.dyn_peer[52]  lookupStabilitySig:vector  ETV
vector 390171  Network.dyn_peer[52]  lookupTimeSig:vector  ETV
vector 390220  Network.dyn_peer[69]  lookupHopsSig:vector  ETV
vector 390221  Network.dyn_peer[69]  lookupStabilitySig:vector  ETV
vector 390222  Network.dyn_peer[69]  lookupTimeSig:vector  ETV
vector 390103  Network.dyn_peer[30]  lookupHopsSig:vector  ETV
vector 390104  Network.dyn_peer[30]  lookupStabilitySig:vector  ETV
vector 390105  Network.dyn_peer[30]  lookupTimeSig:vector  ETV
vector 390163  Network.dyn_peer[50]  lookupHopsSig:vector  ETV
vector 390164  Network.dyn_peer[50]  lookupStabilitySig:vector  ETV
vector 390165  Network.dyn_peer[50]  lookupTimeSig:vector  ETV
vector 390082  Network.dyn_peer[23]  lookupHopsSig:vector  ETV
vector 390083  Network.dyn_peer[23]  lookupStabilitySig:vector  ETV
vector 390084  Network.dyn_peer[23]  lookupTimeSig:vector  ETV
vector 390205  Network.dyn_peer[64]  lookupHopsSig:vector  ETV
vector 390206  Network.dyn_peer[64]  lookupStabilitySig:vector  ETV
vector 390207  Network.dyn_peer[64]  lookupTimeSig:vector  ETV
vector 390274  Network.dyn_peer[87]  lookupHopsSig:vector  ETV
vector 390275  Network.dyn_peer[87]  lookupStabilitySig:vector  ETV
vector 390276  Network.dyn_peer[87]  lookupTimeSig:vector  ETV
vector 390283  Network.dyn_peer[90]  lookupHopsSig:vector  ETV
vector 390284  Network.dyn_peer[90]  lookupStabilitySig:vector  ETV
vector 390285  Network.dyn_peer[90]  lookupTimeSig:vector  ETV
vector 390136  Network.dyn_peer[41]  lookupHopsSig:vector  ETV
vector 390137  Network.dyn_peer[41]  lookupStabilitySig:vector  ETV
vector 390138  Network.dyn_peer[41]  lookupTimeSig:vector  ETV
vector 390175  Network.dyn_peer[54]  lookupHopsSig:vector  ETV
vector 390176  Network.dyn_peer[54]  lookupStabilitySig:vector  ETV
vector 390177  Network.dyn_peer[54]  lookupTimeSig:vector  ETV
vector 390271  Network.dyn_peer[86]  lookupHopsSig:vector  ETV
vector 390272  Network.dyn_peer[86]  lookupStabilitySig:vector  ETV
vector 390273  Network.dyn_peer[86]  lookupTimeSig:vector  ETV
vector 390217  Network.dyn_peer[68]  lookupHopsSig:vector  ETV
vector 390218  Network.dyn_peer[68]  lookupStabilitySig:vector  ETV
vector 390219  Network.dyn_peer[68]  lookupTimeSig:vector  ETV
vector 390226  Network.dyn_peer[71]  lookupHopsSig:vector  ETV
vector 390227  Network.dyn_peer[71]  lookupStabilitySig:vector  ETV
vector 390228  Network.dyn_peer[71]  lookupTimeSig:vector  ETV
vector 390256  Network.dyn_peer[81]  lookupHopsSig:vector  ETV
vector 390257  Network.dyn_peer[81]  lookupStabilitySig:vector  ETV
vector 390258  Network.dyn_peer[81]  lookupTimeSig:vector  ETV
vector 390142  Network.dyn_peer[43]  lookupHopsSig:vector  ETV
vector 390143  Network.dyn_peer[43]  lookupStabilitySig:vector  ETV
vector 390144  Network.dyn_peer[43]  lookupTimeSig:vector  ETV
vector 390208  Network.dyn_peer[65]  lookupHopsSig:vector  ETV
vector 390209  Network.dyn_peer[65]  lookupStabilitySig:vector  ETV
vector 390210  Network.dyn_peer[65]  lookupTimeSig:vector  ETV
vector 390268  Network.dyn_peer[85]  lookupHopsSig:vector  ETV
vector 390269  Network.dyn_peer[85]  lookupStabilitySig:vector  ETV
vector 390270  Network.dyn_peer[85]  lookupTimeSig:vector  ETV
vector 390301  Network.dyn_peer[96]  lookupHopsSig:vector  ETV
vector 390302  Network.dyn_peer[96]  lookupStabilitySig:vector  ETV
vector 390303  Network.dyn_peer[96]  lookupTimeSig:vector  ETV
vector 390307  Network.dyn_peer[98]  lookupHopsSig:vector  ETV
vector 390308  Network.dyn_peer[98]  lookupStabilitySig:vector  ETV
vector 390309  Network.dyn_peer[98]  lookupTimeSig:vector  ETV
vector 390250  Network.dyn_peer[79]  lookupHopsSig:vector  ETV
vector 390251  Network.dyn_peer[79]  lookupStabilitySig:vector  ETV
vector 390252  Network.dyn_peer[79]  lookupTimeSig:vector  ETV
vector 390139  Network.dyn_peer[42]  lookupHopsSig:vector  ETV
vector 390140  Network.dyn_peer[42]  lookupStabilitySig:vector  ETV
vector 390141  Network.dyn_peer[42]  lookupTimeSig:vector  ETV
vector 390265  Network.dyn_peer[84]  lookupHopsSig:vector  ETV
vector 390266  Network.dyn_peer[84]  lookupStabilitySig:vector  ETV
vector 390267  Network.dyn_peer[84]  lookupTimeSig:vector  ETV
vector 390358  Network.dyn_peer[115]  lookupHopsSig:vector  ETV
vector 390359  Network.dyn_peer[115]  lookupStabilitySig:vector  ETV
vector 390360  Network.dyn_peer[115]  lookupTimeSig:vector  ETV
vector 390124  Network.dyn_peer[37]  lookupHopsSig:vector  ETV
vector 390125  Network.dyn_peer[37]  lookupStabilitySig:vector  ETV
vector 390126  Network.dyn_peer[37]  lookupTimeSig:vector  ETV
vector 390187  Network.dyn_peer[58]  lookupHopsSig:vector  ETV
vector 390188  Network.dyn_peer[58]  lookupStabilitySig:vector  ETV
vector 390189  Network.dyn_peer[58]  lookupTimeSig:vector  ETV
vector 390160  Network.dyn_peer[49]  lookupHopsSig:vector  ETV
vector 390161  Network.dyn_peer[49]  lookupStabilitySig:vector  ETV
vector 390162  Network.dyn_peer[49]  lookupTimeSig:vector  ETV
vector 390340  Network.dyn_peer[109]  lookupHopsSig:vector  ETV
vector 390341  Network.dyn_peer[109]  lookupStabilitySig:vector  ETV
vector 390342  Network.dyn_peer[109]  lookupTimeSig:vector  ETV
vector 390166  Network.dyn_peer[51]  lookupHopsSig:vector  ETV
vector 390167  Network.dyn_peer[51]  lookupStabilitySig:vector  ETV
vector 390168  Network.dyn_peer[51]  lookupTimeSig:vector  ETV
vector 390289  Network.dyn_peer[92]  lookupHopsSig:vector  ETV
vector 390290  Network.dyn_peer[92]  lookupStabilitySig:vector  ETV
vector 390291  Network.dyn_peer[92]  lookupTimeSig:vector  ETV
vector 390319  Network.dyn_peer[102]  lookupHopsSig:vector  ETV
vector 390320  Network.dyn_peer[102]  lookupStabilitySig:vector  ETV
vector 390321  Network.dyn_peer[102]  lookupTimeSig:vector  ETV
vector 390232  Network.dyn_peer[73]  lookupHopsSig:vector  ETV
vector 390233  Network.dyn_peer[73]  lookupStabilitySig:vector  ETV
vector 390234  Network.dyn_peer[73]  lookupTimeSig:vector  ETV
vector 390328  Network.dyn_peer[105]  lookupHopsSig:vector  ETV
vector 390329  Network.dyn_peer[105]  lookupStabilitySig:vector  ETV
vector 390330  Network.dyn_peer[105]  lookupTimeSig:vector  ETV
vector 390151  Network.dyn_peer[46]  lookupHopsSig:vector  ETV
vector 390152  Network.dyn_peer[46]  lookupStabilitySig:vector  ETV
vector 390153  Network.dyn_peer[46]  lookupTimeSig:vector  ETV
vector 390247  Network.dyn_peer[78]  lookupHopsSig:vector  ETV
vector 390248  Network.dyn_peer[78]  lookupStabilitySig:vector  ETV
vector 390249  Network.dyn_peer[78]  lookupTimeSig:vector  ETV
vector 390373  Network.dyn_peer[120]  lookupHopsSig:vector  ETV
vector 390374  Network.dyn_peer[120]  lookupStabilitySig:vector  ETV
vector 390375  Network.dyn_peer[120]  lookupTimeSig:vector  ETV
vector 390106  Network.dyn_peer[31]  lookupHopsSig:vector  ETV
vector 390107  Network.dyn_peer[31]  lookupStabilitySig:vector  ETV
vector 390108  Network.dyn_peer[31]  lookupTimeSig:vector  ETV
vector 390406  Network.dyn_peer[131]  lookupHopsSig:vector  ETV
vector 390407  Network.dyn_peer[131]  lookupStabilitySig:vector  ETV
vector 390408  Network.dyn_peer[131]  lookupTimeSig:vector  ETV
vector 390148  Network.dyn_peer[45]  lookupHopsSig:vector  ETV
vector 390149  Network.dyn_peer[45]  lookupStabilitySig:vector  ETV
vector 390150  Network.dyn_peer[45]  lookupTimeSig:vector  ETV
vector 390178  Network.dyn_peer[55]  lookupHopsSig:vector  ETV
vector 390179  Network.dyn_peer[55]  lookupStabilitySig:vector  ETV
vector 390180  Network.dyn_peer[55]  lookupTimeSig:vector  ETV
vector 390238  Network.dyn_peer[75]  lookupHopsSig:vector  ETV
vector 390239  Network.dyn_peer[75]  lookupStabilitySig:vector  ETV
vector 390240  Network.dyn_peer[75]  lookupTimeSig:vector  ETV
vector 390214  Network.dyn_peer[67]  lookupHopsSig:vector  ETV
vector 390215  Network.dyn_peer[67]  lookupStabilitySig:vector  ETV
vector 390216  Network.dyn_peer[67]  lookupTimeSig:vector  ETV
vector 390244  Network.dyn_peer[77]  lookupHopsSig:vector  ETV
vector 390245  Network.dyn_peer[77]  lookupStabilitySig:vector  ETV
vector 390246  Network.dyn_peer[77]  lookupTimeSig:vector  ETV
vector 390337  Network.dyn_peer[108]  lookupHopsSig:vector  ETV
vector 390338  Network.dyn_peer[108]  lookupStabilitySig:vector  ETV
vector 390339  Network.dyn_peer[108]  lookupTimeSig:vector  ETV
vector 390253  Network.dyn_peer[80]  lookupHopsSig:vector  ETV
vector 390254  Network.dyn_peer[80]  lookupStabilitySig:vector  ETV
vector 390255  Network.dyn_peer[80]  lookupTimeSig:vector  ETV
vector 390229  Network.dyn_peer[72]  lookupHopsSig:vector  ETV
vector 390230  Network.dyn_peer[72]  lookupStabilitySig:vector  ETV
vector 390231  Network.dyn_peer[72]  lookupTimeSig:vector  ETV
vector 390202  Network.dyn_peer[63]  lookupHopsSig:vector  ETV
vector 390203  Network.dyn_peer[63]  lookupStabilitySig:vector  ETV
vector 390204  Network.dyn_peer[63]  lookupTimeSig:vector  ETV
vector 390322  Network.dyn_peer[103]  lookupHopsSig:vector  ETV
vector 390323  Network.dyn_peer[103]  lookupStabilitySig:vector  ETV
vector 390324  Network.dyn_peer[103]  lookupTimeSig:vector  ETV
vector 390412  Network.dyn_peer[133]  lookupHopsSig:vector  ETV
vector 390413  Network.dyn_peer[133]  lookupStabilitySig:vector  ETV
vector 390414  Network.dyn_peer[133]  lookupTimeSig:vector  ETV
vector 390388  Network.dyn_peer[125]  lookupHopsSig:vector  ETV
vector 390389  Network.dyn_peer[125]  lookupStabilitySig:vector  ETV
vector 390390  Network.dyn_peer[125]  lookupTimeSig:vector  ETV
vector 390211  Network.dyn_peer[66]  lookupHopsSig:vector  ETV
vector 390212  Network.dyn_peer[66]  lookupStabilitySig:vector  ETV
vector 390213  Network.dyn_peer[66]  lookupTimeSig:vector  ETV
vector 390364  Network.dyn_peer[117]  lookupHopsSig:vector  ETV
vector 390365  Network.dyn_peer[117]  lookupStabilitySig:vector  ETV
vector 390366  Network.dyn_peer[117]  lookupTimeSig:vector  ETV
vector 390280  Network.dyn_peer[89]  lookupHopsSig:vector  ETV
vector 390281  Network.dyn_peer[89]  lookupStabilitySig:vector  ETV
vector 390282  Network.dyn_peer[89]  lookupTimeSig:vector  ETV
vector 390343  Network.dyn_peer[110]  lookupHopsSig:vector  ETV
vector 390344  Network.dyn_peer[110]  lookupStabilitySig:vector  ETV
vector 390345  Network.dyn_peer[110]  lookupTimeSig:vector  ETV
vector 390403  Network.dyn_peer[130]  lookupHopsSig:vector  ETV
vector 390404  Network.dyn_peer[130]  lookupStabilitySig:vector  ETV
vector 390405  Network.dyn_peer[130]  lookupTimeSig:vector  ETV
vector 390172  Network.dyn_peer[53]  lookupHopsSig:vector  ETV
vector 390173  Network.dyn_peer[53]  lookupStabilitySig:vector  ETV
vector 390174  Network.dyn_peer[53]  lookupTimeSig:vector  ETV
vector 390355  Network.dyn_peer[114]  lookupHopsSig:vector  ETV
vector 390356  Network.dyn_peer[114]  lookupStabilitySig:vector  ETV
vector 390357  Network.dyn_peer[114]  lookupTimeSig:vector  ETV
vector 390241  Network.dyn_peer[76]  lookupHopsSig:vector  ETV
vector 390242  Network.dyn_peer[76]  lookupStabilitySig:vector  ETV
vector 390243  Network.dyn_peer[76]  lookupTimeSig:vector  ETV
vector 390331  Network.dyn_peer[106]  lookupHopsSig:vector  ETV
vector 390332  Network.dyn_peer[106]  lookupStabilitySig:vector  ETV
vector 390333  Network.dyn_peer[106]  lookupTimeSig:vector  ETV
vector 390184  Network.dyn_peer[57]  lookupHopsSig:vector  ETV
vector 390185  Network.dyn_peer[57]  lookupStabilitySig:vector  ETV
vector 390186  Network.dyn_peer[57]  lookupTimeSig:vector  ETV
vector 390514  Network.dyn_peer[167]  lookupHopsSig:vector  ETV
vector 390515  Network.dyn_peer[167]  lookupStabilitySig:vector  ETV
vector 390516  Network.dyn_peer[167]  lookupTimeSig:vector  ETV
vector 390157  Network.dyn_peer[48]  lookupHopsSig:vector  ETV
vector 390158  Network.dyn_peer[48]  lookupStabilitySig:vector  ETV
vector 390159  Network.dyn_peer[48]  lookupTimeSig:vector  ETV
vector 390367  Network.dyn_peer[118]  lookupHopsSig:vector  ETV
vector 390368  Network.dyn_peer[118]  lookupStabilitySig:vector  ETV
vector 390369  Network.dyn_peer[118]  lookupTimeSig:vector  ETV
vector 390259  Network.dyn_peer[82]  lookupHopsSig:vector  ETV
vector 390260  Network.dyn_peer[82]  lookupStabilitySig:vector  ETV
vector 390261  Network.dyn_peer[82]  lookupTimeSig:vector  ETV
vector 390382  Network.dyn_peer[123]  lookupHopsSig:vector  ETV
vector 390383  Network.dyn_peer[123]  lookupStabilitySig:vector  ETV
vector 390384  Network.dyn_peer[123]  lookupTimeSig:vector  ETV
vector 390295  Network.dyn_peer[94]  lookupHopsSig:vector  ETV
vector 390296  Network.dyn_peer[94]  lookupStabilitySig:vector  ETV
vector 390297  Network.dyn_peer[94]  lookupTimeSig:vector  ETV
vector 390361  Network.dyn_peer[116]  lookupHopsSig:vector  ETV
vector 390362  Network.dyn_peer[116]  lookupStabilitySig:vector  ETV
vector 390363  Network.dyn_peer[116]  lookupTimeSig:vector  ETV
vector 390277  Network.dyn_peer[88]  lookupHopsSig:vector  ETV
vector 390278  Network.dyn_peer[88]  lookupStabilitySig:vector  ETV
vector 390279  Network.dyn_peer[88]  lookupTimeSig:vector  ETV
vector 390130  Network.dyn_peer[39]  lookupHopsSig:vector  ETV
vector 390131  Network.dyn_peer[39]  lookupStabilitySig:vector  ETV
vector 390132  Network.dyn_peer[39]  lookupTimeSig:vector  ETV
vector 390193  Network.dyn_peer[60]  lookupHopsSig:vector  ETV
vector 390194  Network.dyn_peer[60]  lookupStabilitySig:vector  ETV
vector 390195  Network.dyn_peer[60]  lookupTimeSig:vector  ETV
vector 390463  Network.dyn_peer[150]  lookupHopsSig:vector  ETV
vector 390464  Network.dyn_peer[150]  lookupStabilitySig:vector  ETV
vector 390465  Network.dyn_peer[150]  lookupTimeSig:vector  ETV
vector 390316  Network.dyn_peer[101]  lookupHopsSig:vector  ETV
vector 390317  Network.dyn_peer[101]  lookupStabilitySig:vector  ETV
vector 390318  Network.dyn_peer[101]  lookupTimeSig:vector  ETV
vector 390349  Network.dyn_peer[112]  lookupHopsSig:vector  ETV
vector 390350  Network.dyn_peer[112]  lookupStabilitySig:vector  ETV
vector 390351  Network.dyn_peer[112]  lookupTimeSig:vector  ETV
vector 390469  Network.dyn_peer[152]  lookupHopsSig:vector  ETV
vector 390470  Network.dyn_peer[152]  lookupStabilitySig:vector  ETV
vector 390471  Network.dyn_peer[152]  lookupTimeSig:vector  ETV
vector 390262  Network.dyn_peer[83]  lookupHopsSig:vector  ETV
vector 390263  Network.dyn_peer[83]  lookupStabilitySig:vector  ETV
vector 390264  Network.dyn_peer[83]  lookupTimeSig:vector  ETV
vector 390181  Network.dyn_peer[56]  lookupHopsSig:vector  ETV
vector 390182  Network.dyn_peer[56]  lookupStabilitySig:vector  ETV
vector 390183  Network.dyn_peer[56]  lookupTimeSig:vector  ETV
vector 390493  Network.dyn_peer[160]  lookupHopsSig:vector  ETV
vector 390494  Network.dyn_peer[160]  lookupStabilitySig:vector  ETV
vector 390495  Network.dyn_peer[160]  lookupTimeSig:vector  ETV
vector 390439  Network.dyn_peer[142]  lookupHopsSig:vector  ETV
vector 390440  Network.dyn_peer[142]  lookupStabilitySig:vector  ETV
vector 390441  Network.dyn_peer[142]  lookupTimeSig:vector  ETV
vector 390442  Network.dyn_peer[143]  lookupHopsSig:vector  ETV
vector 390443  Network.dyn_peer[143]  lookupStabilitySig:vector  ETV
vector 390444  Network.dyn_peer[143]  lookupTimeSig:vector  ETV
vector 390445  Network.dyn_peer[144]  lookupHopsSig:vector  ETV
vector 390446  Network.dyn_peer[144]  lookupStabilitySig:vector  ETV
vector 390447  Network.dyn_peer[144]  lookupTimeSig:vector  ETV
vector 390511  Network.dyn_peer[166]  lookupHopsSig:vector  ETV
vector 390512  Network.dyn_peer[166]  lookupStabilitySig:vector  ETV
vector 390513  Network.dyn_peer[166]  lookupTimeSig:vector  ETV
vector 390400  Network.dyn_peer[129]  lookupHopsSig:vector  ETV
vector 390401  Network.dyn_peer[129]  lookupStabilitySig:vector  ETV
vector 390402  Network.dyn_peer[129]  lookupTimeSig:vector  ETV
vector 390436  Network.dyn_peer[141]  lookupHopsSig:vector  ETV
vector 390437  Network.dyn_peer[141]  lookupStabilitySig:vector  ETV
vector 390438  Network.dyn_peer[141]  lookupTimeSig:vector  ETV
vector 390409  Network.dyn_peer[132]  lookupHopsSig:vector  ETV
vector 390410  Network.dyn_peer[132]  lookupStabilitySig:vector  ETV
vector 390411  Network.dyn_peer[132]  lookupTimeSig:vector  ETV
vector 390352  Network.dyn_peer[113]  lookupHopsSig:vector  ETV
vector 390353  Network.dyn_peer[113]  lookupStabilitySig:vector  ETV
vector 390354  Network.dyn_peer[113]  lookupTimeSig:vector  ETV
vector 390325  Network.dyn_peer[104]  lookupHopsSig:vector  ETV
vector 390326  Network.dyn_peer[104]  lookupStabilitySig:vector  ETV
vector 390327  Network.dyn_peer[104]  lookupTimeSig:vector  ETV
vector 390535  Network.dyn_peer[174]  lookupHopsSig:vector  ETV
vector 390536  Network.dyn_peer[174]  lookupStabilitySig:vector  ETV
vector 390537  Network.dyn_peer[174]  lookupTimeSig:vector  ETV
vector 390448  Network.dyn_peer[145]  lookupHopsSig:vector  ETV
vector 390449  Network.dyn_peer[145]  lookupStabilitySig:vector  ETV
vector 390450  Network.dyn_peer[145]  lookupTimeSig:vector  ETV
vector 390223  Network.dyn_peer[70]  lookupHopsSig:vector  ETV
vector 390224  Network.dyn_peer[70]  lookupStabilitySig:vector  ETV
vector 390225  Network.dyn_peer[70]  lookupTimeSig:vector  ETV
vector 390556  Network.dyn_peer[181]  lookupHopsSig:vector  ETV
vector 390557  Network.dyn_peer[181]  lookupStabilitySig:vector  ETV
vector 390558  Network.dyn_peer[181]  lookupTimeSig:vector  ETV
vector 390589  Network.dyn_peer[192]  lookupHopsSig:vector  ETV
vector 390590  Network.dyn_peer[192]  lookupStabilitySig:vector  ETV
vector 390591  Network.dyn_peer[192]  lookupTimeSig:vector  ETV
vector 390595  Network.dyn_peer[194]  lookupHopsSig:vector  ETV
vector 390596  Network.dyn_peer[194]  lookupStabilitySig:vector  ETV
vector 390597  Network.dyn_peer[194]  lookupTimeSig:vector  ETV
vector 390298  Network.dyn_peer[95]  lookupHopsSig:vector  ETV
vector 390299  Network.dyn_peer[95]  lookupStabilitySig:vector  ETV
vector 390300  Network.dyn_peer[95]  lookupTimeSig:vector  ETV
vector 390541  Network.dyn_peer[176]  lookupHopsSig:vector  ETV
vector 390542  Network.dyn_peer[176]  lookupStabilitySig:vector  ETV
vector 390543  Network.dyn_peer[176]  lookupTimeSig:vector  ETV
vector 390397  Network.dyn_peer[128]  lookupHopsSig:vector  ETV
vector 390398  Network.dyn_peer[128]  lookupStabilitySig:vector  ETV
vector 390399  Network.dyn_peer[128]  lookupTimeSig:vector  ETV
vector 390520  Network.dyn_peer[169]  lookupHopsSig:vector  ETV
vector 390521  Network.dyn_peer[169]  lookupStabilitySig:vector  ETV
vector 390522  Network.dyn_peer[169]  lookupTimeSig:vector  ETV
vector 390433  Network.dyn_peer[140]  lookupHopsSig:vector  ETV
vector 390434  Network.dyn_peer[140]  lookupStabilitySig:vector  ETV
vector 390435  Network.dyn_peer[140]  lookupTimeSig:vector  ETV
vector 390523  Network.dyn_peer[170]  lookupHopsSig:vector  ETV
vector 390524  Network.dyn_peer[170]  lookupStabilitySig:vector  ETV
vector 390525  Network.dyn_peer[170]  lookupTimeSig:vector  ETV
vector 390286  Network.dyn_peer[91]  lookupHopsSig:vector  ETV
vector 390287  Network.dyn_peer[91]  lookupStabilitySig:vector  ETV
vector 390288  Network.dyn_peer[91]  lookupTimeSig:vector  ETV
vector 390526  Network.dyn_peer[171]  lookupHopsSig:vector  ETV
vector 390527  Network.dyn_peer[171]  lookupStabilitySig:vector  ETV
vector 390528  Network.dyn_peer[171]  lookupTimeSig:vector  ETV
vector 390379  Network.dyn_peer[122]  lookupHopsSig:vector  ETV
vector 390380  Network.dyn_peer[122]  lookupStabilitySig:vector  ETV
vector 390381  Network.dyn_peer[122]  lookupTimeSig:vector  ETV
vector 390391  Network.dyn_peer[126]  lookupHopsSig:vector  ETV
vector 390392  Network.dyn_peer[126]  lookupStabilitySig:vector  ETV
vector 390393  Network.dyn_peer[126]  lookupTimeSig:vector  ETV
vector 390334  Network.dyn_peer[107]  lookupHopsSig:vector  ETV
vector 390335  Network.dyn_peer[107]  lookupStabilitySig:vector  ETV
vector 390336  Network.dyn_peer[107]  lookupTimeSig:vector  ETV
vector 390505  Network.dyn_peer[164]  lookupHopsSig:vector  ETV
vector 390506  Network.dyn_peer[164]  lookupStabilitySig:vector  ETV
vector 390507  Network.dyn_peer[164]  lookupTimeSig:vector  ETV
vector 390421  Network.dyn_peer[136]  lookupHopsSig:vector  ETV
vector 390422  Network.dyn_peer[136]  lookupStabilitySig:vector  ETV
vector 390423  Network.dyn_peer[136]  lookupTimeSig:vector  ETV
vector 390304  Network.dyn_peer[97]  lookupHopsSig:vector  ETV
vector 390305  Network.dyn_peer[97]  lookupStabilitySig:vector  ETV
vector 390306  Network.dyn_peer[97]  lookupTimeSig:vector  ETV
vector 390457  Network.dyn_peer[148]  lookupHopsSig:vector  ETV
vector 390458  Network.dyn_peer[148]  lookupStabilitySig:vector  ETV
vector 390459  Network.dyn_peer[148]  lookupTimeSig:vector  ETV
vector 390607  Network.dyn_peer[198]  lookupHopsSig:vector  ETV
vector 390608  Network.dyn_peer[198]  lookupStabilitySig:vector  ETV
vector 390609  Network.dyn_peer[198]  lookupTimeSig:vector  ETV
vector 390313  Network.dyn_peer[100]  lookupHopsSig:vector  ETV
vector 390314  Network.dyn_peer[100]  lookupStabilitySig:vector  ETV
vector 390315  Network.dyn_peer[100]  lookupTimeSig:vector  ETV
vector 390394  Network.dyn_peer[127]  lookupHopsSig:vector  ETV
vector 390395  Network.dyn_peer[127]  lookupStabilitySig:vector  ETV
vector 390396  Network.dyn_peer[127]  lookupTimeSig:vector  ETV
vector 390496  Network.dyn_peer[161]  lookupHopsSig:vector  ETV
vector 390497  Network.dyn_peer[161]  lookupStabilitySig:vector  ETV
vector 390498  Network.dyn_peer[161]  lookupTimeSig:vector  ETV