file 63374 1369933125                                           
version 2
run Stability2-2-20130528-01:21:50-24168
attr configname Stability2
attr datetime 20130528-01:21:50
attr experiment Stability2
attr inifile omnetpp.ini
attr iterationvars $0=10
attr iterationvars2 "$0=10, $repetition=2"
attr measurement $0=10
attr network Network
attr processid 24168
attr repetition 2
attr replication #2
attr resultdir results
attr runnumber 2
attr seedset 2
vector 90002  Network.churner  inGoingSizeSig:vector  ETV
90002	61496 1878 10 1049 20 21 101 0 98 4925 324025
vector 60005  Network.dyn_peer[1]  lookupHopsSig:vector  ETV
60005	19871 161 50 4044 20.12 24.19760577587 6 1 14 35 363
vector 60006  Network.dyn_peer[1]  lookupStabilitySig:vector  ETV
60006	20032 249 50 4044 20.12 24.19760577587 6 0.11111110448837 0.82051281630993 4.1142326146364 3.2180633266295
vector 60007  Network.dyn_peer[1]  lookupTimeSig:vector  ETV
60007	20281 171 50 4044 20.12 24.19760577587 6 0.1 1.5 4 4.36
vector 60011  Network.dyn_peer[3]  lookupHopsSig:vector  ETV
60011	20686 102 66 1134 20.14 21.070823271692 4 1 2 7 13
vector 60012  Network.dyn_peer[3]  lookupStabilitySig:vector  ETV
60012	20788 162 66 1134 20.14 21.070823271692 4 0.59999999403954 0.79999999701977 2.6666666418314 1.8044444121255
vector 60013  Network.dyn_peer[3]  lookupTimeSig:vector  ETV
60013	20950 110 66 1134 20.14 21.070823271692 4 0.1 0.3 1 0.28
vector 60014  Network.dyn_peer[4]  lookupHopsSig:vector  ETV
60014	21060 131 75 3470 20.15 23.18920380188 5 1 9 25 165
vector 60015  Network.dyn_peer[4]  lookupStabilitySig:vector  ETV
60015	21191 191 75 3470 20.15 23.18920380188 5 0 0.95081967115402 2.9838128834963 2.3840581715555
vector 60016  Network.dyn_peer[4]  lookupTimeSig:vector  ETV
60016	21382 139 75 3470 20.15 23.18920380188 5 0.1 1 2.9 2.17
vector 60017  Network.dyn_peer[5]  lookupHopsSig:vector  ETV
60017	21521 240 84 4627 20.16 26.707787783293 9 1 11 46 352
vector 60018  Network.dyn_peer[5]  lookupStabilitySig:vector  ETV
60018	21761 361 84 4627 20.16 26.707787783293 9 -0.22222220897675 0.96808510646224 6.9416396766901 6.5101498241504
vector 60019  Network.dyn_peer[5]  lookupTimeSig:vector  ETV
60019	22122 256 84 4627 20.16 26.707787783293 9 0.1 1.2 5.4 4.5
vector 60050  Network.dyn_peer[16]  lookupHopsSig:vector  ETV
60050	25790 65 94 2434 20.17 22.087915307383 3 0 12 17 169
vector 60051  Network.dyn_peer[16]  lookupStabilitySig:vector  ETV
60051	25855 81 94 2434 20.17 22.087915307383 3 0.16666668653488 1 1.6666666865349 1.2777777844005
vector 60052  Network.dyn_peer[16]  lookupTimeSig:vector  ETV
60052	25936 68 94 2434 20.17 22.087915307383 3 0 1.3 1.9 2.05
vector 60023  Network.dyn_peer[7]  lookupHopsSig:vector  ETV
60023	22716 66 100 2965 20.18 22.580137742736 3 1 16 23 293
vector 60024  Network.dyn_peer[7]  lookupStabilitySig:vector  ETV
60024	22782 95 100 2965 20.18 22.580137742736 3 0 0.79999999701977 1.4097561091185 1.0118025114733
vector 60025  Network.dyn_peer[7]  lookupTimeSig:vector  ETV
60025	22877 71 100 2965 20.18 22.580137742736 3 0.1 1.7 2.5 3.39
vector 60053  Network.dyn_peer[17]  lookupHopsSig:vector  ETV
60053	26004 48 106 2072 20.18 21.790970403535 2 0 15 15 225
vector 60054  Network.dyn_peer[17]  lookupStabilitySig:vector  ETV
60054	26052 51 106 2072 20.18 21.790970403535 2 -0.25 1 0.75 1.0625
vector 60055  Network.dyn_peer[17]  lookupTimeSig:vector  ETV
60055	26103 49 106 2072 20.18 21.790970403535 2 0 1.6 1.6 2.56
vector 60029  Network.dyn_peer[9]  lookupHopsSig:vector  ETV
60029	23094 47 118 2089 20.2 21.804910131781 2 1 15 16 226
vector 60030  Network.dyn_peer[9]  lookupStabilitySig:vector  ETV
60030	23141 78 118 2089 20.2 21.804910131781 2 -0.071428537368774 0.79999999701977 0.728571459651 0.64510203118227
vector 60031  Network.dyn_peer[9]  lookupTimeSig:vector  ETV
60031	23219 50 118 2089 20.2 21.804910131781 2 0.1 1.6 1.7 2.57
vector 60002  Network.dyn_peer[0]  lookupHopsSig:vector  ETV
60002	19517 95 128 2994 20.21 22.617873704533 4 2 8 23 153
vector 60003  Network.dyn_peer[0]  lookupStabilitySig:vector  ETV
60003	19612 156 128 2994 20.21 22.617873704533 4 -0.16666662693024 0.81395348906517 1.7018322944641 1.256909595211
vector 60004  Network.dyn_peer[0]  lookupTimeSig:vector  ETV
60004	19768 103 128 2994 20.21 22.617873704533 4 0.2 0.9 2.6 1.98
vector 60008  Network.dyn_peer[2]  lookupHopsSig:vector  ETV
60008	20452 65 141 1492 20.23 21.335483179464 3 2 6 11 49
vector 60009  Network.dyn_peer[2]  lookupStabilitySig:vector  ETV
60009	20517 98 141 1492 20.23 21.335483179464 3 0.25 0.59999999403954 1.2499999701977 0.58249997377396
vector 60010  Network.dyn_peer[2]  lookupTimeSig:vector  ETV
60010	20615 71 141 1492 20.23 21.335483179464 3 0.2 0.7 1.3 0.69
vector 60044  Network.dyn_peer[14]  lookupHopsSig:vector  ETV
60044	24777 154 155 3879 20.25 23.884056194741 6 1 17 32 396
vector 60045  Network.dyn_peer[14]  lookupStabilitySig:vector  ETV
60045	24931 242 155 3879 20.25 23.884056194741 6 0.45161288976669 0.97368421033025 4.8500692509115 4.1039792403706
vector 60046  Network.dyn_peer[14]  lookupTimeSig:vector  ETV
60046	25173 164 155 3879 20.25 23.884056194741 6 0.1 1.8 3.7 4.63
vector 60026  Network.dyn_peer[8]  lookupHopsSig:vector  ETV
60026	22948 38 179 2770 20.29 22.39 2 2 20 22 404
vector 60027  Network.dyn_peer[8]  lookupStabilitySig:vector  ETV
60027	22986 67 179 2770 20.29 22.39 2 0.41176468133926 0.59999999403954 1.0117646753788 0.52955014564587
vector 60028  Network.dyn_peer[8]  lookupTimeSig:vector  ETV
60028	23053 41 179 2770 20.29 22.39 2 0.2 2.1 2.3 4.45
vector 60059  Network.dyn_peer[19]  lookupHopsSig:vector  ETV
60059	26532 93 189 3263 20.3 22.916310103416 4 1 15 24 260
vector 60060  Network.dyn_peer[19]  lookupStabilitySig:vector  ETV
60060	26625 152 189 3263 20.3 22.916310103416 4 0.39999997615814 0.90196078270674 2.6180898025632 1.8799224225244
vector 60061  Network.dyn_peer[19]  lookupTimeSig:vector  ETV
60061	26777 100 189 3263 20.3 22.916310103416 4 0.1 1.6 2.7 3.09
vector 60041  Network.dyn_peer[13]  lookupHopsSig:vector  ETV
60041	24317 125 218 3509 20.34 23.256013347372 5 2 13 27 223
vector 60042  Network.dyn_peer[13]  lookupStabilitySig:vector  ETV
60042	24442 201 218 3509 20.34 23.256013347372 5 -0.083333373069763 0.93617021292448 3.235747911036 2.8364380271682
vector 60043  Network.dyn_peer[13]  lookupTimeSig:vector  ETV
60043	24643 134 218 3509 20.34 23.256013347372 5 0.2 1.4 3.1 2.77
vector 60020  Network.dyn_peer[6]  lookupHopsSig:vector  ETV
60020	22378 95 245 2863 20.37 22.479126483648 4 3 7 21 119
vector 60021  Network.dyn_peer[6]  lookupStabilitySig:vector  ETV
60021	22473 140 245 2863 20.37 22.479126483648 4 0 0.84210526943207 1.8254385888576 1.2094190550993
vector 60022  Network.dyn_peer[6]  lookupTimeSig:vector  ETV
60022	22613 103 245 2863 20.37 22.479126483648 4 0.3 0.8 2.4 1.58
vector 60083  Network.dyn_peer[27]  lookupHopsSig:vector  ETV
60083	30047 66 255 2322 20.38 21.980297488914 3 1 13 15 171
vector 60084  Network.dyn_peer[27]  lookupStabilitySig:vector  ETV
60084	30113 110 255 2322 20.38 21.980297488914 3 0.38095235824585 0.79999999701977 1.9809523522854 1.4251246897163
vector 60085  Network.dyn_peer[27]  lookupTimeSig:vector  ETV
60085	30223 71 255 2322 20.38 21.980297488914 3 0.1 1.4 1.7 2.01
vector 60113  Network.dyn_peer[37]  lookupHopsSig:vector  ETV
60113	33677 65 261 2194 20.38 21.882360485116 3 0 9 13 97
vector 60114  Network.dyn_peer[37]  lookupStabilitySig:vector  ETV
60114	33742 95 261 2194 20.38 21.882360485116 3 0.33333331346512 1 1.80392152071 1.3325643586636
vector 60115  Network.dyn_peer[37]  lookupTimeSig:vector  ETV
60115	33837 67 261 2194 20.38 21.882360485116 3 0 1 1.5 1.25
vector 60056  Network.dyn_peer[18]  lookupHopsSig:vector  ETV
60056	26152 104 270 1442 20.39 21.308502979093 4 1 4 8 22
vector 60057  Network.dyn_peer[18]  lookupStabilitySig:vector  ETV
60057	26256 164 270 1442 20.39 21.308502979093 4 0.33333331346512 0.85714285075665 2.647619009018 1.9404988239196
vector 60058  Network.dyn_peer[18]  lookupTimeSig:vector  ETV
60058	26420 112 270 1442 20.39 21.308502979093 4 0.2 0.5 1.1 0.37
vector 60089  Network.dyn_peer[29]  lookupHopsSig:vector  ETV
60089	30645 94 282 3619 20.4 23.405519586756 4 1 16 28 322
vector 60090  Network.dyn_peer[29]  lookupStabilitySig:vector  ETV
60090	30739 153 282 3619 20.4 23.405519586756 4 0.36000001430511 0.93846153840423 2.9612066410482 2.3946391571905
vector 60091  Network.dyn_peer[29]  lookupTimeSig:vector  ETV
60091	30892 101 282 3619 20.4 23.405519586756 4 0.1 1.7 3.1 3.79
vector 60032  Network.dyn_peer[10]  lookupHopsSig:vector  ETV
60032	23269 94 294 2574 20.41 22.219603099126 4 1 7 18 108
vector 60033  Network.dyn_peer[10]  lookupStabilitySig:vector  ETV
60033	23363 142 294 2574 20.41 22.219603099126 4 0.22222220897675 0.79999999701977 2.1722221821547 1.4118826863207
vector 60034  Network.dyn_peer[10]  lookupTimeSig:vector  ETV
60034	23505 102 294 2574 20.41 22.219603099126 4 0.2 0.8 2.1 1.41
vector 60065  Network.dyn_peer[21]  lookupHopsSig:vector  ETV
60065	27219 38 304 3267 20.42 22.92 2 2 24 26 580
vector 60066  Network.dyn_peer[21]  lookupStabilitySig:vector  ETV
60066	27257 66 304 3267 20.42 22.92 2 0.5294117629528 0.59999999403954 1.1294117569923 0.64027680760024
vector 60067  Network.dyn_peer[21]  lookupTimeSig:vector  ETV
60067	27323 41 304 3267 20.42 22.92 2 0.2 2.5 2.7 6.29
vector 60038  Network.dyn_peer[12]  lookupHopsSig:vector  ETV
60038	23839 131 315 3401 20.43 23.096819758913 5 3 7 23 119
vector 60039  Network.dyn_peer[12]  lookupStabilitySig:vector  ETV
60039	23970 206 315 3401 20.43 23.096819758913 5 0.33333331346512 0.87719298154116 3.0163233652711 2.031336840309
vector 60040  Network.dyn_peer[12]  lookupTimeSig:vector  ETV
60040	24176 141 315 3401 20.43 23.096819758913 5 0.3 0.8 2.7 1.63
vector 60107  Network.dyn_peer[35]  lookupHopsSig:vector  ETV
60107	32890 124 347 3310 20.46 22.975068507882 5 1 12 22 180
vector 60108  Network.dyn_peer[35]  lookupStabilitySig:vector  ETV
60108	33014 183 347 3310 20.46 22.975068507882 5 0 0.98148148134351 3.5687418319285 3.2045318813146
vector 60109  Network.dyn_peer[35]  lookupTimeSig:vector  ETV
60109	33197 133 347 3310 20.46 22.975068507882 5 0.1 1.3 2.6 2.26
vector 60086  Network.dyn_peer[28]  lookupHopsSig:vector  ETV
60086	30294 95 373 2780 20.49 22.396985514801 4 1 13 18 178
vector 60087  Network.dyn_peer[28]  lookupStabilitySig:vector  ETV
60087	30389 154 373 2780 20.49 22.396985514801 4 0.27777779102325 0.96000000089407 2.7822222299874 2.2507358036099
vector 60088  Network.dyn_peer[28]  lookupTimeSig:vector  ETV
60088	30543 102 373 2780 20.49 22.396985514801 4 0.2 1.4 2.1 2.13
vector 60155  Network.dyn_peer[51]  lookupHopsSig:vector  ETV
60155	40702 241 404 4470 20.52 25.744695050364 9 0 18 39 399
vector 60156  Network.dyn_peer[51]  lookupStabilitySig:vector  ETV
60156	40943 348 404 4470 20.52 25.744695050364 9 0.33333331346512 1 7.4426584998146 6.5283077847487
vector 60157  Network.dyn_peer[51]  lookupTimeSig:vector  ETV
60157	41291 256 404 4470 20.52 25.744695050364 9 0 1.9 4.7 4.85
vector 60068  Network.dyn_peer[22]  lookupHopsSig:vector  ETV
60068	27364 96 414 3284 20.53 22.942599755923 4 3 13 24 210
vector 60069  Network.dyn_peer[22]  lookupStabilitySig:vector  ETV
60069	27460 155 414 3284 20.53 22.942599755923 4 0.33333331346512 0.92452830076218 2.3065102398396 1.546608728141
vector 60070  Network.dyn_peer[22]  lookupTimeSig:vector  ETV
60070	27615 103 414 3284 20.53 22.942599755923 4 0.3 1.4 2.7 2.55
vector 60077  Network.dyn_peer[25]  lookupHopsSig:vector  ETV
60077	28517 326 446 4737 20.56 28.776716043889 12 1 12 68 468
vector 60078  Network.dyn_peer[25]  lookupStabilitySig:vector  ETV
60078	28843 504 446 4737 20.56 28.776716043889 12 0.14285713434219 0.97916666604578 9.7382456045598 8.6890929917093
vector 60079  Network.dyn_peer[25]  lookupTimeSig:vector  ETV
60079	29347 349 446 4737 20.56 28.776716043889 12 0.2 1.3 7.9 6.09
vector 60080  Network.dyn_peer[26]  lookupHopsSig:vector  ETV
60080	29696 95 459 3312 20.57 22.976598656568 4 1 17 24 308
vector 60081  Network.dyn_peer[26]  lookupStabilitySig:vector  ETV
60081	29791 154 459 3312 20.57 22.976598656568 4 0.39999997615814 0.94444444403052 2.7631436102092 2.0890729169429
vector 60082  Network.dyn_peer[26]  lookupTimeSig:vector  ETV
60082	29945 102 459 3312 20.57 22.976598656568 4 0.2 1.8 2.7 3.53
vector 60146  Network.dyn_peer[48]  lookupHopsSig:vector  ETV
60146	39024 153 481 4127 20.59 24.411272820056 6 1 15 34 336
vector 60147  Network.dyn_peer[48]  lookupStabilitySig:vector  ETV
60147	39177 241 481 4127 20.59 24.411272820056 6 0.5714285671711 0.93877550959587 4.9552197307348 4.1834133675158
vector 60148  Network.dyn_peer[48]  lookupTimeSig:vector  ETV
60148	39418 164 481 4127 20.59 24.411272820056 6 0.1 1.6 3.9 4.07
vector 60062  Network.dyn_peer[20]  lookupHopsSig:vector  ETV
60062	26877 95 505 2700 20.61 22.326599795699 4 1 9 18 114
vector 60063  Network.dyn_peer[20]  lookupStabilitySig:vector  ETV
60063	26972 146 505 2700 20.61 22.326599795699 4 0.18181818723679 0.96875 2.1905681788921 1.7171344169499
vector 60064  Network.dyn_peer[20]  lookupTimeSig:vector  ETV
60064	27118 101 505 2700 20.61 22.326599795699 4 0.2 1 2.1 1.45
vector 60035  Network.dyn_peer[11]  lookupHopsSig:vector  ETV
60035	23607 66 519 2479 20.62 22.123279513244 3 4 9 18 122
vector 60036  Network.dyn_peer[11]  lookupStabilitySig:vector  ETV
60036	23673 96 519 2479 20.62 22.123279513244 3 0 0.63999998569489 1.0685713887215 0.59327342918163
vector 60037  Network.dyn_peer[11]  lookupTimeSig:vector  ETV
60037	23769 70 519 2479 20.62 22.123279513244 3 0.5 1 2 1.5
vector 60098  Network.dyn_peer[32]  lookupHopsSig:vector  ETV
60098	31936 124 533 4395 20.63 25.353116677984 5 3 28 46 870
vector 60099  Network.dyn_peer[32]  lookupStabilitySig:vector  ETV
60099	32060 197 533 4395 20.63 25.353116677984 5 0.39999997615814 0.95698924735188 3.8136227764189 3.1673066913122
vector 60100  Network.dyn_peer[32]  lookupTimeSig:vector  ETV
60100	32257 133 533 4395 20.63 25.353116677984 5 0.3 2.9 5 9.6
vector 60071  Network.dyn_peer[23]  lookupHopsSig:vector  ETV
60071	27718 154 547 4321 20.64 24.970545413533 6 1 14 42 394
vector 60072  Network.dyn_peer[23]  lookupStabilitySig:vector  ETV
60072	27872 235 547 4321 20.64 24.970545413533 6 0.18181818723679 0.984375 3.9659033194184 3.3098781588484
vector 60073  Network.dyn_peer[23]  lookupTimeSig:vector  ETV
60073	28107 163 547 4321 20.64 24.970545413533 6 0.2 1.5 4.7 4.75
vector 60074  Network.dyn_peer[24]  lookupHopsSig:vector  ETV
60074	28270 66 559 2934 20.65 22.554447757862 3 4 9 21 161
vector 60075  Network.dyn_peer[24]  lookupStabilitySig:vector  ETV
60075	28336 111 559 2934 20.65 22.554447757862 3 0.18181818723679 0.79999999701977 1.1818181723356 0.71305784367333
vector 60076  Network.dyn_peer[24]  lookupTimeSig:vector  ETV
60076	28447 70 559 2934 20.65 22.554447757862 3 0.4 1 2.3 1.97
vector 60092  Network.dyn_peer[30]  lookupHopsSig:vector  ETV
60092	30993 94 626 2366 20.71 22.023071775189 4 1 5 14 58
vector 60093  Network.dyn_peer[30]  lookupStabilitySig:vector  ETV
60093	31087 154 626 2366 20.71 22.023071775189 4 0.19999998807907 0.89999999850988 2.2038960680366 1.6010541146158
vector 60094  Network.dyn_peer[30]  lookupTimeSig:vector  ETV
60094	31241 102 626 2366 20.71 22.023071775189 4 0.2 0.6 1.7 0.81
vector 60191  Network.dyn_peer[63]  lookupHopsSig:vector  ETV
60191	45007 154 660 4229 20.74 24.68145268925 6 1 12 35 325
vector 60192  Network.dyn_peer[63]  lookupStabilitySig:vector  ETV
60192	45161 233 660 4229 20.74 24.68145268925 6 0.38888889551163 0.984375 4.8261532410979 4.1073529662807
vector 60193  Network.dyn_peer[63]  lookupTimeSig:vector  ETV
60193	45394 164 660 4229 20.74 24.68145268925 6 0.1 1.3 4 3.98
vector 60104  Network.dyn_peer[34]  lookupHopsSig:vector  ETV
60104	32537 96 673 3031 20.75 22.656724032985 4 1 12 20 170
vector 60105  Network.dyn_peer[34]  lookupStabilitySig:vector  ETV
60105	32633 154 673 3031 20.75 22.656724032985 4 0.19999998807907 0.96774193644524 2.5793361291289 2.0763690197222
vector 60106  Network.dyn_peer[34]  lookupTimeSig:vector  ETV
60106	32787 103 673 3031 20.75 22.656724032985 4 0.2 1.3 2.3 2.05
vector 60134  Network.dyn_peer[44]  lookupHopsSig:vector  ETV
60134	36487 298 677 4671 20.75 27.282489092664 11 1 13 58 418
vector 60135  Network.dyn_peer[44]  lookupStabilitySig:vector  ETV
60135	36785 451 677 4671 20.75 27.282489092664 11 0.36363637447357 0.98924731183797 9.0613870592788 7.9705811718896
vector 60136  Network.dyn_peer[44]  lookupTimeSig:vector  ETV
60136	37236 319 677 4671 20.75 27.282489092664 11 0.2 1.4 6.8 5.38
vector 60140  Network.dyn_peer[46]  lookupHopsSig:vector  ETV
60140	38225 124 710 3790 20.77 23.689735317339 5 3 14 28 248
vector 60141  Network.dyn_peer[46]  lookupStabilitySig:vector  ETV
60141	38349 185 710 3790 20.77 23.689735317339 5 0.5 0.95714285597205 3.859667416662 3.1858827200175
vector 60142  Network.dyn_peer[46]  lookupTimeSig:vector  ETV
60142	38534 133 710 3790 20.77 23.689735317339 5 0.3 1.5 3.2 3.02
vector 60170  Network.dyn_peer[56]  lookupHopsSig:vector  ETV
60170	43090 95 715 3230 20.77 22.879021621844 4 2 9 20 130
vector 60171  Network.dyn_peer[56]  lookupStabilitySig:vector  ETV
60171	43185 142 715 3230 20.77 22.879021621844 4 0.25 0.9400000013411 2.6987719275057 2.0996857185255
vector 60172  Network.dyn_peer[56]  lookupTimeSig:vector  ETV
60172	43327 101 715 3230 20.77 22.879021621844 4 0.2 1 2.3 1.69
vector 60185  Network.dyn_peer[61]  lookupHopsSig:vector  ETV
60185	44610 38 779 2581 20.82 22.22 2 2 13 15 173
vector 60186  Network.dyn_peer[61]  lookupStabilitySig:vector  ETV
60186	44648 66 779 2581 20.82 22.22 2 0.5517241358757 0.66666665673256 1.2183907926083 0.74884395330676
vector 60187  Network.dyn_peer[61]  lookupTimeSig:vector  ETV
60187	44714 41 779 2581 20.82 22.22 2 0.2 1.4 1.6 2
vector 60128  Network.dyn_peer[42]  lookupHopsSig:vector  ETV
60128	35807 67 793 3425 20.83 23.131297703231 3 4 17 25 321
vector 60129  Network.dyn_peer[42]  lookupStabilitySig:vector  ETV
60129	35874 98 793 3425 20.83 23.131297703231 3 0.33333331346512 0.70689654350281 1.5402298569679 0.86081382108186
vector 60130  Network.dyn_peer[42]  lookupTimeSig:vector  ETV
60130	35972 72 793 3425 20.83 23.131297703231 3 0.4 1.8 2.7 3.65
vector 60161  Network.dyn_peer[53]  lookupHopsSig:vector  ETV
60161	41869 153 809 3773 20.84 23.662681676801 6 1 9 26 168
vector 60162  Network.dyn_peer[53]  lookupStabilitySig:vector  ETV
60162	42022 222 809 3773 20.84 23.662681676801 6 0.33333331346512 0.97101449221373 4.518035158515 3.765362221552
vector 60163  Network.dyn_peer[53]  lookupTimeSig:vector  ETV
60163	42244 163 809 3773 20.84 23.662681676801 6 0.2 1 3.1 2.19
vector 60047  Network.dyn_peer[15]  lookupHopsSig:vector  ETV
60047	25337 134 838 3986 20.86 24.084476136739 5 5 12 35 279
vector 60048  Network.dyn_peer[15]  lookupStabilitySig:vector  ETV
60048	25471 176 838 3986 20.86 24.084476136739 5 -0.16666662693024 0.921875 2.9252083748579 2.5365312834475
vector 60049  Network.dyn_peer[15]  lookupTimeSig:vector  ETV
60049	25647 143 838 3986 20.86 24.084476136739 5 0.6 1.3 3.9 3.39
vector 60122  Network.dyn_peer[40]  lookupHopsSig:vector  ETV
60122	34490 297 910 4607 20.91 26.563294482507 11 2 9 51 281
vector 60123  Network.dyn_peer[40]  lookupStabilitySig:vector  ETV
60123	34787 449 910 4607 20.91 26.563294482507 11 0.16666668653488 0.97752808965743 9.1374357547611 8.2579135636122
vector 60124  Network.dyn_peer[40]  lookupTimeSig:vector  ETV
60124	35236 317 910 4607 20.91 26.563294482507 11 0.3 1 6.1 3.83
vector 60182  Network.dyn_peer[60]  lookupHopsSig:vector  ETV
60182	44270 95 914 2686 20.91 22.316424758114 4 1 6 14 62
vector 60183  Network.dyn_peer[60]  lookupStabilitySig:vector  ETV
60183	44365 142 914 2686 20.91 22.316424758114 4 0.5 0.96774193644524 2.7832974940538 2.072766435338
vector 60184  Network.dyn_peer[60]  lookupTimeSig:vector  ETV
60184	44507 103 914 2686 20.91 22.316424758114 4 0.2 0.7 1.7 0.87
vector 60101  Network.dyn_peer[33]  lookupHopsSig:vector  ETV
60101	32390 47 956 1738 20.94 21.545657261342 2 5 6 11 61
vector 60102  Network.dyn_peer[33]  lookupStabilitySig:vector  ETV
60102	32437 49 956 1738 20.94 21.545657261342 2 0 0.5 0.5 0.25
vector 60103  Network.dyn_peer[33]  lookupTimeSig:vector  ETV
60103	32486 51 956 1738 20.94 21.545657261342 2 0.6 0.6 1.2 0.72
vector 60167  Network.dyn_peer[55]  lookupHopsSig:vector  ETV
60167	42635 124 984 3929 20.96 23.974176360116 5 3 12 30 230
vector 60168  Network.dyn_peer[55]  lookupStabilitySig:vector  ETV
60168	42759 198 984 3929 20.96 23.974176360116 5 0.33333331346512 0.95945946127176 3.451586574316 2.7015711253693
vector 60169  Network.dyn_peer[55]  lookupTimeSig:vector  ETV
60169	42957 133 984 3929 20.96 23.974176360116 5 0.4 1.3 3.4 2.86
vector 60197  Network.dyn_peer[65]  lookupHopsSig:vector  ETV
60197	46018 66 988 2519 20.96 22.164903697911 3 2 8 13 77
vector 60198  Network.dyn_peer[65]  lookupStabilitySig:vector  ETV
60198	46084 85 988 2519 20.96 22.164903697911 3 0.5 0.92592592537403 1.925925925374 1.3573388192798
vector 60199  Network.dyn_peer[65]  lookupTimeSig:vector  ETV
60199	46169 72 988 2519 20.96 22.164903697911 3 0.3 0.9 1.5 0.99
vector 60230  Network.dyn_peer[76]  lookupHopsSig:vector  ETV
60230	50480 68 1005 3456 20.97 23.172153090343 3 2 11 22 206
vector 60231  Network.dyn_peer[76]  lookupStabilitySig:vector  ETV
60231	50548 112 1005 3456 20.97 23.172153090343 3 0.60714286565781 0.84999999403954 2.1238095164299 1.5355668803854
vector 60232  Network.dyn_peer[76]  lookupTimeSig:vector  ETV
60232	50660 71 1005 3456 20.97 23.172153090343 3 0.2 1.2 2.4 2.48
vector 60203  Network.dyn_peer[67]  lookupHopsSig:vector  ETV
60203	46481 38 1021 2189 20.98 21.88 2 3 8 11 73
vector 60204  Network.dyn_peer[67]  lookupStabilitySig:vector  ETV
60204	46519 42 1021 2189 20.98 21.88 2 0.5 0.5 1 0.5
vector 60205  Network.dyn_peer[67]  lookupTimeSig:vector  ETV
60205	46561 42 1021 2189 20.98 21.88 2 0.3 0.9 1.2 0.9
vector 60215  Network.dyn_peer[71]  lookupHopsSig:vector  ETV
60215	47853 126 1080 4005 21.02 24.130742695185 5 3 11 30 220
vector 60216  Network.dyn_peer[71]  lookupStabilitySig:vector  ETV
60216	47979 185 1080 4005 21.02 24.130742695185 5 0.5 0.9411764703691 3.715737875551 2.9442842195868
vector 60217  Network.dyn_peer[71]  lookupTimeSig:vector  ETV
60217	48164 135 1080 4005 21.02 24.130742695185 5 0.3 1.2 3.4 2.78
vector 60116  Network.dyn_peer[38]  lookupHopsSig:vector  ETV
60116	33904 96 1163 3616 21.09 23.402875805217 4 4 8 27 193
vector 60117  Network.dyn_peer[38]  lookupStabilitySig:vector  ETV
60117	34000 131 1163 3616 21.09 23.402875805217 4 0 0.9375 2.417000874877 1.9947453351356
vector 60118  Network.dyn_peer[38]  lookupTimeSig:vector  ETV
60118	34131 104 1163 3616 21.09 23.402875805217 4 0.5 0.9 3 2.36
vector 60119  Network.dyn_peer[39]  lookupHopsSig:vector  ETV
60119	34235 73 1178 2122 21.1 21.826108535 3 2 7 12 62
vector 60120  Network.dyn_peer[39]  lookupStabilitySig:vector  ETV
60120	34308 103 1178 2122 21.1 21.826108535 3 0 0.86666665971279 1.5666666477919 1.2411110823684
vector 60121  Network.dyn_peer[39]  lookupTimeSig:vector  ETV
60121	34411 79 1178 2122 21.1 21.826108535 3 0.3 0.7 1.4 0.74
vector 60239  Network.dyn_peer[79]  lookupHopsSig:vector  ETV
60239	51637 36 1182 2086 21.1 21.8 2 3 6 9 45
vector 60240  Network.dyn_peer[79]  lookupStabilitySig:vector  ETV
60240	51673 65 1182 2086 21.1 21.8 2 0.53846153616905 0.5714285671711 1.1098901033402 0.61647143331275
vector 60241  Network.dyn_peer[79]  lookupTimeSig:vector  ETV
60241	51738 40 1182 2086 21.1 21.8 2 0.3 0.7 1 0.58
vector 60218  Network.dyn_peer[72]  lookupHopsSig:vector  ETV
60218	48299 77 1223 3099 21.13 22.739027090581 3 4 7 18 114
vector 60219  Network.dyn_peer[72]  lookupStabilitySig:vector  ETV
60219	48376 122 1223 3099 21.13 22.739027090581 3 0.42857140302658 0.84782609343529 1.8875086009502 1.2759393142309
vector 60220  Network.dyn_peer[72]  lookupTimeSig:vector  ETV
60220	48498 83 1223 3099 21.13 22.739027090581 3 0.4 0.8 2 1.44
vector 60257  Network.dyn_peer[85]  lookupHopsSig:vector  ETV
60257	53216 67 1258 2847 21.16 22.467429720793 3 3 8 14 82
vector 60258  Network.dyn_peer[85]  lookupStabilitySig:vector  ETV
60258	53283 111 1258 2847 21.16 22.467429720793 3 0.5714285671711 0.78378377854824 2.0824850648642 1.4697732269069
vector 60259  Network.dyn_peer[85]  lookupTimeSig:vector  ETV
60259	53394 73 1258 2847 21.16 22.467429720793 3 0.3 0.9 1.6 1.06
vector 60236  Network.dyn_peer[78]  lookupHopsSig:vector  ETV
60236	51073 154 1297 3743 21.19 23.615478604401 6 1 6 23 103
vector 60237  Network.dyn_peer[78]  lookupStabilitySig:vector  ETV
60237	51227 244 1297 3743 21.19 23.615478604401 6 0.42857140302658 0.98529411759228 4.7270234180614 3.985128254049
vector 60238  Network.dyn_peer[78]  lookupTimeSig:vector  ETV
60238	51471 166 1297 3743 21.19 23.615478604401 6 0.2 0.7 2.8 1.46
vector 60095  Network.dyn_peer[31]  lookupHopsSig:vector  ETV
60095	31343 164 1331 4143 21.22 24.446423680163 6 2 9 36 256
vector 60096  Network.dyn_peer[31]  lookupStabilitySig:vector  ETV
60096	31507 255 1331 4143 21.22 24.446423680163 6 -0.28571426868439 0.95180723071098 4.0060695335269 3.817577682727
vector 60097  Network.dyn_peer[31]  lookupTimeSig:vector  ETV
60097	31762 174 1331 4143 21.22 24.446423680163 6 0.3 1 4.1 3.15
vector 60188  Network.dyn_peer[62]  lookupHopsSig:vector  ETV
60188	44755 67 1346 2598 21.23 22.235125273696 3 4 6 14 68
vector 60189  Network.dyn_peer[62]  lookupStabilitySig:vector  ETV
60189	44822 112 1346 2598 21.23 22.235125273696 3 0.14285713434219 0.86666665971279 1.6458874195814 1.1764779237833
vector 60190  Network.dyn_peer[62]  lookupTimeSig:vector  ETV
60190	44934 73 1346 2598 21.23 22.235125273696 3 0.5 0.6 1.6 0.86
vector 60251  Network.dyn_peer[83]  lookupHopsSig:vector  ETV
60251	52626 68 1361 3197 21.24 22.848025706929 3 3 11 18 146
vector 60252  Network.dyn_peer[83]  lookupStabilitySig:vector  ETV
60252	52694 112 1361 3197 21.24 22.848025706929 3 0.42857140302658 0.77551020681858 1.93135432899 1.3140151363843
vector 60253  Network.dyn_peer[83]  lookupTimeSig:vector  ETV
60253	52806 73 1361 3197 21.24 22.848025706929 3 0.4 1.2 2 1.76
vector 60137  Network.dyn_peer[45]  lookupHopsSig:vector  ETV
60137	37555 184 1385 4238 21.26 24.708374014151 7 1 11 32 228
vector 60138  Network.dyn_peer[45]  lookupStabilitySig:vector  ETV
60138	37739 289 1385 4238 21.26 24.708374014151 7 -0.14285719394684 0.98876404482871 5.2185197202489 4.8595793494404
vector 60139  Network.dyn_peer[45]  lookupTimeSig:vector  ETV
60139	38028 197 1385 4238 21.26 24.708374014151 7 0.2 1.2 3.8 2.82
vector 60296  Network.dyn_peer[98]  lookupHopsSig:vector  ETV
60296	60866 67 1424 2774 21.29 22.390949138042 3 2 7 12 62
vector 60297  Network.dyn_peer[98]  lookupStabilitySig:vector  ETV
60297	60933 111 1424 2774 21.29 22.390949138042 3 0.5714285671711 0.81818181276321 2.1896103769541 1.6359520813473
vector 60298  Network.dyn_peer[98]  lookupTimeSig:vector  ETV
60298	61044 73 1424 2774 21.29 22.390949138042 3 0.3 0.8 1.4 0.82
vector 60149  Network.dyn_peer[49]  lookupHopsSig:vector  ETV
60149	39582 122 1438 4131 21.3 24.416359944456 5 4 10 35 269
vector 60150  Network.dyn_peer[49]  lookupStabilitySig:vector  ETV
60150	39704 197 1438 4131 21.3 24.416359944456 5 -0.14285719394684 0.93548387289047 3.2281267940998 2.8855961241443
vector 60151  Network.dyn_peer[49]  lookupTimeSig:vector  ETV
60151	39901 131 1438 4131 21.3 24.416359944456 5 0.5 1.1 3.9 3.27
vector 60272  Network.dyn_peer[90]  lookupHopsSig:vector  ETV
60272	54979 96 1455 2907 21.31 22.523292205067 4 1 6 13 57
vector 60273  Network.dyn_peer[90]  lookupStabilitySig:vector  ETV
60273	55075 156 1455 2907 21.31 22.523292205067 4 0.42857140302658 0.96428571268916 3.0688477829099 2.5425117361518
vector 60274  Network.dyn_peer[90]  lookupTimeSig:vector  ETV
60274	55231 104 1455 2907 21.31 22.523292205067 4 0.2 0.7 1.6 0.78
vector 60158  Network.dyn_peer[52]  lookupHopsSig:vector  ETV
60158	41547 94 1483 3016 21.33 22.63339149377 4 1 8 18 106
vector 60159  Network.dyn_peer[52]  lookupStabilitySig:vector  ETV
60159	41641 126 1483 3016 21.33 22.63339149377 4 0 0.9772727265954 2.5921375975013 2.2655532270743
vector 60160  Network.dyn_peer[52]  lookupTimeSig:vector  ETV
60160	41767 102 1483 3016 21.33 22.63339149377 4 0.2 0.8 2.1 1.29
vector 60248  Network.dyn_peer[82]  lookupHopsSig:vector  ETV
60248	52385 67 1488 2253 21.33 21.933957636335 3 2 5 9 33
vector 60249  Network.dyn_peer[82]  lookupStabilitySig:vector  ETV
60249	52452 101 1488 2253 21.33 21.933957636335 3 0.375 0.88888888806105 2.0820707008243 1.6001699340549
vector 60250  Network.dyn_peer[82]  lookupTimeSig:vector  ETV
60250	52553 73 1488 2253 21.33 21.933957636335 3 0.3 0.5 1.1 0.43
vector 60200  Network.dyn_peer[66]  lookupHopsSig:vector  ETV
60200	46241 67 1540 2750 21.37 22.376018332168 3 3 7 15 83
vector 60201  Network.dyn_peer[66]  lookupStabilitySig:vector  ETV
60201	46308 100 1540 2750 21.37 22.376018332168 3 0.22222220897675 0.90909090638161 1.8813131153584 1.4383289862282
vector 60202  Network.dyn_peer[66]  lookupTimeSig:vector  ETV
60202	46408 73 1540 2750 21.37 22.376018332168 3 0.4 0.7 1.7 1.01
vector 60233  Network.dyn_peer[77]  lookupHopsSig:vector  ETV
60233	50731 96 1553 3882 21.38 23.88520168414 4 1 15 28 298
vector 60234  Network.dyn_peer[77]  lookupStabilitySig:vector  ETV
60234	50827 143 1553 3882 21.38 23.88520168414 4 0.33333331346512 0.98591549322009 2.8549630902708 2.2629873930674
vector 60235  Network.dyn_peer[77]  lookupTimeSig:vector  ETV
60235	50970 103 1553 3882 21.38 23.88520168414 4 0.2 1.6 3.1 3.45
vector 60212  Network.dyn_peer[70]  lookupHopsSig:vector  ETV
60212	47515 94 1592 3427 21.41 23.1314109208 4 3 7 21 123
vector 60213  Network.dyn_peer[70]  lookupStabilitySig:vector  ETV
60213	47609 142 1592 3427 21.41 23.1314109208 4 0.22222220897675 0.93103448301554 2.8334892466664 2.3440405245021
vector 60214  Network.dyn_peer[70]  lookupTimeSig:vector  ETV