file 4624563 1369933130                                         
version 2
run Stability2-84-20130528-01:42:02-24168
attr configname Stability2
attr datetime 20130528-01:42:02
attr experiment Stability2
attr inifile omnetpp.ini
attr iterationvars $0=400
attr iterationvars2 "$0=400, $repetition=4"
attr measurement $0=400
attr network Network
attr processid 24168
attr repetition 4
attr replication #4
attr resultdir results
attr runnumber 84
attr seedset 84
vector 2550084  Network.churner  inGoingSizeSig:vector  ETV
2550084	4524652 99911 11 638630 20 60 4001 0 2031 4568691 6474613641
vector 2520087  Network.dyn_peer[1]  lookupHopsSig:vector  ETV
2520087	810529 399 21 997378 20.02 76.179105150035 13 0 72 436 23318
vector 2520088  Network.dyn_peer[1]  lookupStabilitySig:vector  ETV
2520088	810928 552 21 997378 20.02 76.179105150035 13 0.44444441795349 1 11.085684272461 9.867339570379
vector 2520089  Network.dyn_peer[1]  lookupTimeSig:vector  ETV
2520089	811480 414 21 997378 20.02 76.179105150035 13 0 7.3 44.8 242.02
vector 2520096  Network.dyn_peer[4]  lookupHopsSig:vector  ETV
2520096	815396 372 34 724526 20.05 63.060783424051 12 0 76 319 14157
vector 2520097  Network.dyn_peer[4]  lookupStabilitySig:vector  ETV
2520097	815768 526 34 724526 20.05 63.060783424051 12 0.21428573131561 1 10.273936058395 9.373863742797
vector 2520098  Network.dyn_peer[4]  lookupTimeSig:vector  ETV
2520098	816294 384 34 724526 20.05 63.060783424051 12 0 7.7 33 148.06
vector 2520108  Network.dyn_peer[8]  lookupHopsSig:vector  ETV
2520108	821444 403 50 801237 20.09 66.033726339629 13 0 61 281 10483
vector 2520109  Network.dyn_peer[8]  lookupStabilitySig:vector  ETV
2520109	821847 575 50 801237 20.09 66.033726339629 13 0.59999999403954 1 11.409840046428 10.315043937137
vector 2520110  Network.dyn_peer[8]  lookupTimeSig:vector  ETV
2520110	822422 413 50 801237 20.09 66.033726339629 13 0 6.2 29.3 110.57
vector 2520084  Network.dyn_peer[0]  lookupHopsSig:vector  ETV
2520084	809125 400 59 799961 20.11 65.980148177591 13 1 84 311 14827
vector 2520085  Network.dyn_peer[0]  lookupStabilitySig:vector  ETV
2520085	809525 587 59 799961 20.11 65.980148177591 13 0.28571426868439 0.99619358335622 10.899164969334 9.6497512232054
vector 2520086  Network.dyn_peer[0]  lookupTimeSig:vector  ETV
2520086	810112 417 59 799961 20.11 65.980148177591 13 0.1 8.5 32.3 154.59
vector 2520090  Network.dyn_peer[2]  lookupHopsSig:vector  ETV
2520090	811894 574 71 1075537 20.13 83.578275644177 18 1 96 568 31966
vector 2520091  Network.dyn_peer[2]  lookupStabilitySig:vector  ETV
2520091	812468 829 71 1075537 20.13 83.578275644177 18 0.27777779102325 0.99115964677185 16.059258002788 14.814828234338
vector 2520092  Network.dyn_peer[2]  lookupTimeSig:vector  ETV
2520092	813297 592 71 1075537 20.13 83.578275644177 18 0.1 9.7 58.5 331.17
vector 2520093  Network.dyn_peer[3]  lookupHopsSig:vector  ETV
2520093	813889 435 79 811806 20.14 66.468628749529 14 1 81 411 19307
vector 2520094  Network.dyn_peer[3]  lookupStabilitySig:vector  ETV
2520094	814324 619 79 811806 20.14 66.468628749529 14 0.28571426868439 0.98762886598706 11.357223598287 9.8357495828089
vector 2520095  Network.dyn_peer[3]  lookupTimeSig:vector  ETV
2520095	814943 453 79 811806 20.14 66.468628749529 14 0.1 8.2 42.4 201.4
vector 2520120  Network.dyn_peer[12]  lookupHopsSig:vector  ETV
2520120	828197 476 126 731535 20.23 63.32078728322 15 1 73 291 11579
vector 2520121  Network.dyn_peer[12]  lookupStabilitySig:vector  ETV
2520121	828673 654 126 731535 20.23 63.32078728322 15 0.5 0.99176694080234 12.810820551589 11.23680289005
vector 2520122  Network.dyn_peer[12]  lookupTimeSig:vector  ETV
2520122	829327 496 126 731535 20.23 63.32078728322 15 0.1 7.4 30.5 121.73
vector 2520123  Network.dyn_peer[13]  lookupHopsSig:vector  ETV
2520123	829823 575 137 539856 20.24 56.43596542967 18 1 44 331 8907
vector 2520124  Network.dyn_peer[13]  lookupStabilitySig:vector  ETV
2520124	830398 822 137 539856 20.24 56.43596542967 18 0.59999999403954 0.9886363632977 16.1266945526 14.656099520141
vector 2520125  Network.dyn_peer[13]  lookupTimeSig:vector  ETV
2520125	831220 596 137 539856 20.24 56.43596542967 18 0.1 4.5 34.8 95.84
vector 2520126  Network.dyn_peer[14]  lookupHopsSig:vector  ETV
2520126	831816 534 148 816931 20.25 66.681017346131 17 1 58 286 9646
vector 2520127  Network.dyn_peer[14]  lookupStabilitySig:vector  ETV
2520127	832350 777 148 816931 20.25 66.681017346131 17 -0.10000002384186 0.98885172791779 14.896173128858 14.129209470093
vector 2520128  Network.dyn_peer[14]  lookupTimeSig:vector  ETV
2520128	833127 556 148 816931 20.25 66.681017346131 17 0.1 5.9 30.2 102.32
vector 2520129  Network.dyn_peer[15]  lookupHopsSig:vector  ETV
2520129	833683 665 157 1091862 20.26 86.185042570077 21 1 145 607 46275
vector 2520130  Network.dyn_peer[15]  lookupStabilitySig:vector  ETV
2520130	834348 966 157 1091862 20.26 86.185042570077 21 0.66666665673256 0.9994514536229 18.851965010574 17.135669417326
vector 2520131  Network.dyn_peer[15]  lookupTimeSig:vector  ETV
2520131	835314 695 157 1091862 20.26 86.185042570077 21 0.1 14.6 62.7 475.07
vector 2520105  Network.dyn_peer[7]  lookupHopsSig:vector  ETV
2520105	819969 429 171 956284 20.28 73.531562315447 14 1 99 321 18061
vector 2520106  Network.dyn_peer[7]  lookupStabilitySig:vector  ETV
2520106	820398 601 171 956284 20.28 73.531562315447 14 -0.14285719394684 0.9814751278609 11.54333114624 10.678024826223
vector 2520107  Network.dyn_peer[7]  lookupTimeSig:vector  ETV
2520107	820999 445 171 956284 20.28 73.531562315447 14 0.2 10 33.4 187.12
vector 2520144  Network.dyn_peer[20]  lookupHopsSig:vector  ETV
2520144	842623 475 193 1019856 20.31 77.884846438114 15 1 63 416 17174
vector 2520145  Network.dyn_peer[20]  lookupStabilitySig:vector  ETV
2520145	843098 687 193 1019856 20.31 77.884846438114 15 0.27272725105286 0.99252934893593 13.302478317637 12.265933486766
vector 2520146  Network.dyn_peer[20]  lookupTimeSig:vector  ETV
2520146	843785 485 193 1019856 20.31 77.884846438114 15 0.1 6.4 43 180.18
vector 2520147  Network.dyn_peer[21]  lookupHopsSig:vector  ETV
2520147	844270 375 203 877440 20.32 69.378815006835 12 1 83 330 14010
vector 2520148  Network.dyn_peer[21]  lookupStabilitySig:vector  ETV
2520148	844645 542 203 877440 20.32 69.378815006835 12 0.47826087474823 0.99208443239331 10.761769089848 9.8838418460882
vector 2520149  Network.dyn_peer[21]  lookupTimeSig:vector  ETV
2520149	845187 385 203 877440 20.32 69.378815006835 12 0.1 8.4 34.1 146.79
vector 2520099  Network.dyn_peer[5]  lookupHopsSig:vector  ETV
2520099	816678 540 236 1010462 20.36 77.142841748063 17 1 105 526 31130
vector 2520100  Network.dyn_peer[5]  lookupStabilitySig:vector  ETV
2520100	817218 781 236 1010462 20.36 77.142841748063 17 0.14285713434219 0.99572649551556 14.28490537731 12.87801064195
vector 2520101  Network.dyn_peer[5]  lookupTimeSig:vector  ETV
2520101	817999 560 236 1010462 20.36 77.142841748063 17 0.2 10.6 54.2 321.92
vector 2520159  Network.dyn_peer[25]  lookupHopsSig:vector  ETV
2520159	850279 497 240 714956 20.36 62.709729550072 16 1 82 356 17628
vector 2520160  Network.dyn_peer[25]  lookupStabilitySig:vector  ETV
2520160	850776 725 240 714956 20.36 62.709729550072 16 0.42857140302658 0.98894154839218 14.105959879234 12.75925266875
vector 2520161  Network.dyn_peer[25]  lookupTimeSig:vector  ETV
2520161	851501 518 240 714956 20.36 62.709729550072 16 0.1 8.3 37.1 183.53
vector 2520132  Network.dyn_peer[16]  lookupHopsSig:vector  ETV
2520132	836009 476 251 1066020 20.37 82.355933568105 15 1 82 370 18014
vector 2520133  Network.dyn_peer[16]  lookupStabilitySig:vector  ETV
2520133	836485 690 251 1066020 20.37 82.355933568105 15 0.49090909957886 0.99882949667517 13.635724195396 12.72715207992
vector 2520134  Network.dyn_peer[16]  lookupTimeSig:vector  ETV
2520134	837175 490 251 1066020 20.37 82.355933568105 15 0.2 8.3 38.4 187.64
vector 2520135  Network.dyn_peer[17]  lookupHopsSig:vector  ETV
2520135	837665 476 262 793804 20.38 65.730486783049 15 2 52 264 7440
vector 2520136  Network.dyn_peer[17]  lookupStabilitySig:vector  ETV
2520136	838141 691 262 793804 20.38 65.730486783049 15 0.47058820724487 0.99408014584333 13.045865589753 11.750638990103
vector 2520137  Network.dyn_peer[17]  lookupTimeSig:vector  ETV
2520137	838832 495 262 793804 20.38 65.730486783049 15 0.2 5.3 27.8 79.78
vector 2520165  Network.dyn_peer[27]  lookupHopsSig:vector  ETV
2520165	853513 502 266 739243 20.38 63.610042067595 16 1 56 249 6933
vector 2520166  Network.dyn_peer[27]  lookupStabilitySig:vector  ETV
2520166	854015 717 266 739243 20.38 63.610042067595 16 0.5 0.99553571408615 14.474664554 13.383326847638
vector 2520167  Network.dyn_peer[27]  lookupTimeSig:vector  ETV
2520167	854732 521 266 739243 20.38 63.610042067595 16 0.1 5.7 26.4 74.44
vector 2520138  Network.dyn_peer[18]  lookupHopsSig:vector  ETV
2520138	839327 447 281 392933 20.39 50.494277242051 14 2 44 208 4816
vector 2520139  Network.dyn_peer[18]  lookupStabilitySig:vector  ETV
2520139	839774 622 281 392933 20.39 50.494277242051 14 0 0.99557913374156 11.726155227982 10.720601356764
vector 2520140  Network.dyn_peer[18]  lookupTimeSig:vector  ETV
2520140	840396 466 281 392933 20.39 50.494277242051 14 0.2 4.5 22.1 52.41
vector 2520201  Network.dyn_peer[39]  lookupHopsSig:vector  ETV
2520201	871684 470 295 560635 20.4 57.212234654441 15 0 41 274 7134
vector 2520202  Network.dyn_peer[39]  lookupStabilitySig:vector  ETV
2520202	872154 659 295 560635 20.4 57.212234654441 15 -0.125 1 13.019858253188 12.440007394069
vector 2520203  Network.dyn_peer[39]  lookupTimeSig:vector  ETV
2520203	872813 483 295 560635 20.4 57.212234654441 15 0 4.2 28.8 76.96
vector 2520114  Network.dyn_peer[10]  lookupHopsSig:vector  ETV
2520114	824929 341 303 613143 20.41 59.116181156965 11 3 94 337 18079
vector 2520115  Network.dyn_peer[10]  lookupStabilitySig:vector  ETV
2520115	825270 496 303 613143 20.41 59.116181156965 11 0.39999997615814 0.97786458395422 8.8891673628241 7.6710878481769
vector 2520116  Network.dyn_peer[10]  lookupTimeSig:vector  ETV
2520116	825766 350 303 613143 20.41 59.116181156965 11 0.3 9.5 34.7 187.57
vector 2520117  Network.dyn_peer[11]  lookupHopsSig:vector  ETV
2520117	826116 600 314 752736 20.42 64.125679834717 19 1 74 378 14142
vector 2520118  Network.dyn_peer[11]  lookupStabilitySig:vector  ETV
2520118	826716 861 314 752736 20.42 64.125679834717 19 0.14285713434219 0.99789473693818 16.400167793036 15.075987398763
vector 2520119  Network.dyn_peer[11]  lookupTimeSig:vector  ETV
2520119	827577 620 314 752736 20.42 64.125679834717 19 0.2 7.5 39.6 149.1
vector 2520150  Network.dyn_peer[22]  lookupHopsSig:vector  ETV
2520150	845572 411 324 650179 20.43 60.403712353125 13 2 69 318 11922
vector 2520151  Network.dyn_peer[22]  lookupStabilitySig:vector  ETV
2520151	845983 593 324 650179 20.43 60.403712353125 13 0.48648649454117 0.98800959251821 11.417277073488 10.326156457542
vector 2520152  Network.dyn_peer[22]  lookupTimeSig:vector  ETV
2520152	846576 421 324 650179 20.43 60.403712353125 13 0.2 7 33 125.66
vector 2520153  Network.dyn_peer[23]  lookupHopsSig:vector  ETV
2520153	846997 604 338 1016464 20.44 77.614580816657 19 2 54 340 9118
vector 2520154  Network.dyn_peer[23]  lookupStabilitySig:vector  ETV
2520154	847601 861 338 1016464 20.44 77.614580816657 19 0.44444441795349 0.99600798403844 16.863614432514 15.50886571977
vector 2520155  Network.dyn_peer[23]  lookupTimeSig:vector  ETV
2520155	848462 629 338 1016464 20.44 77.614580816657 19 0.2 5.5 35.8 98.12
vector 2520156  Network.dyn_peer[24]  lookupHopsSig:vector  ETV
2520156	849091 343 350 398760 20.45 50.74593677355 11 1 81 281 15137
vector 2520157  Network.dyn_peer[24]  lookupStabilitySig:vector  ETV
2520157	849434 487 350 398760 20.45 50.74593677355 11 0.5714285671711 0.98305084742606 9.1217076722533 7.8265580534383
vector 2520158  Network.dyn_peer[24]  lookupTimeSig:vector  ETV
2520158	849921 358 350 398760 20.45 50.74593677355 11 0.2 8.2 29.1 157.05
vector 2520186  Network.dyn_peer[34]  lookupHopsSig:vector  ETV
2520186	864300 336 354 724115 20.45 63.04571994206 11 1 197 356 42886
vector 2520187  Network.dyn_peer[34]  lookupStabilitySig:vector  ETV
2520187	864636 483 354 724115 20.45 63.04571994206 11 0.28571426868439 0.98746867198497 9.3608051622286 8.379522841256
vector 2520188  Network.dyn_peer[34]  lookupTimeSig:vector  ETV
2520188	865119 343 354 724115 20.45 63.04571994206 11 0.1 19.8 36.6 436.06
vector 2520162  Network.dyn_peer[26]  lookupHopsSig:vector  ETV
2520162	852019 435 377 523008 20.47 55.792109951902 14 1 52 271 8989
vector 2520163  Network.dyn_peer[26]  lookupStabilitySig:vector  ETV
2520163	852454 606 377 523008 20.47 55.792109951902 14 0.3125 0.98675496689975 12.150833019987 11.011450553407
vector 2520164  Network.dyn_peer[26]  lookupTimeSig:vector  ETV
2520164	853060 453 377 523008 20.47 55.792109951902 14 0.2 5.3 28.4 95.4
vector 2520195  Network.dyn_peer[37]  lookupHopsSig:vector  ETV
2520195	869103 405 388 918115 20.48 71.417213587955 13 1 61 332 13598
vector 2520196  Network.dyn_peer[37]  lookupStabilitySig:vector  ETV
2520196	869508 581 388 918115 20.48 71.417213587955 13 0.55319148302078 0.99578059092164 11.723057768308 10.75970054736
vector 2520197  Network.dyn_peer[37]  lookupTimeSig:vector  ETV
2520197	870089 422 388 918115 20.48 71.417213587955 13 0.1 6.2 34.4 142.72
vector 2520168  Network.dyn_peer[28]  lookupHopsSig:vector  ETV
2520168	855253 582 400 928608 20.49 71.977182150144 18 2 58 324 10878
vector 2520169  Network.dyn_peer[28]  lookupStabilitySig:vector  ETV
2520169	855835 840 400 928608 20.49 71.977182150144 18 0.18181818723679 0.99820035987068 16.14417602832 15.18159019815
vector 2520170  Network.dyn_peer[28]  lookupTimeSig:vector  ETV
2520170	856675 603 400 928608 20.49 71.977182150144 18 0.2 5.9 34.1 115.39
vector 2520111  Network.dyn_peer[9]  lookupHopsSig:vector  ETV
2520111	822835 603 414 1056757 20.5 81.308879607042 19 3 66 442 16630
vector 2520112  Network.dyn_peer[9]  lookupStabilitySig:vector  ETV
2520112	823438 869 414 1056757 20.5 81.308879607042 19 0.19999998807907 0.99331103684381 16.796896488871 15.613671135517
vector 2520113  Network.dyn_peer[9]  lookupTimeSig:vector  ETV
2520113	824307 622 414 1056757 20.5 81.308879607042 19 0.4 6.7 46 175.24
vector 2520102  Network.dyn_peer[6]  lookupHopsSig:vector  ETV
2520102	818559 407 484 495971 20.57 54.745013421847 13 4 67 295 11607
vector 2520103  Network.dyn_peer[6]  lookupStabilitySig:vector  ETV
2520103	818966 580 484 495971 20.57 54.745013421847 13 0.16666668653488 0.9916317993775 10.724324999377 9.6599872145641
vector 2520104  Network.dyn_peer[6]  lookupTimeSig:vector  ETV
2520104	819546 423 484 495971 20.57 54.745013421847 13 0.5 6.8 30.7 121.99
vector 2520255  Network.dyn_peer[57]  lookupHopsSig:vector  ETV
2520255	898640 336 498 692251 20.58 61.886002921938 11 0 53 184 5584
vector 2520256  Network.dyn_peer[57]  lookupStabilitySig:vector  ETV
2520256	898976 468 498 692251 20.58 61.886002921938 11 0.375 1 9.6929421303794 8.8543438779628
vector 2520257  Network.dyn_peer[57]  lookupTimeSig:vector  ETV
2520257	899444 347 498 692251 20.58 61.886002921938 11 0 5.4 19.4 59.62
vector 2520141  Network.dyn_peer[19]  lookupHopsSig:vector  ETV
2520141	840862 505 519 992354 20.6 75.831561432556 16 4 124 517 31839
vector 2520142  Network.dyn_peer[19]  lookupStabilitySig:vector  ETV
2520142	841367 731 519 992354 20.6 75.831561432556 16 0.33333331346512 0.9836586471647 13.843137046322 12.578682906517
vector 2520143  Network.dyn_peer[19]  lookupTimeSig:vector  ETV
2520143	842098 525 519 992354 20.6 75.831561432556 16 0.4 12.5 53.2 328.8
vector 2520171  Network.dyn_peer[29]  lookupHopsSig:vector  ETV
2520171	857278 370 523 842006 20.6 67.758532442494 12 3 46 246 7192
vector 2520172  Network.dyn_peer[29]  lookupStabilitySig:vector  ETV
2520172	857648 527 523 842006 20.6 67.758532442494 12 0.28571426868439 0.99008723255247 10.08125884179 9.016511014426
vector 2520173  Network.dyn_peer[29]  lookupTimeSig:vector  ETV
2520173	858175 386 523 842006 20.6 67.758532442494 12 0.3 4.7 25.7 76.89
vector 2520228  Network.dyn_peer[48]  lookupHopsSig:vector  ETV
2520228	883824 543 618 989438 20.69 75.630060768214 17 1 104 459 28299
vector 2520229  Network.dyn_peer[48]  lookupStabilitySig:vector  ETV
2520229	884367 784 618 989438 20.69 75.630060768214 17 0.5714285671711 0.99462365591899 15.294937879313 13.998706105487
vector 2520230  Network.dyn_peer[48]  lookupTimeSig:vector  ETV
2520230	885151 559 618 989438 20.69 75.630060768214 17 0.2 10.5 47.5 292.29
vector 2520234  Network.dyn_peer[50]  lookupHopsSig:vector  ETV
2520234	887472 309 647 745801 20.71 63.860039393936 10 2 123 330 22472
vector 2520235  Network.dyn_peer[50]  lookupStabilitySig:vector  ETV
2520235	887781 448 647 745801 20.71 63.860039393936 10 0.45454543828964 0.98399246670306 8.6045944560319 7.6715573384902
vector 2520236  Network.dyn_peer[50]  lookupTimeSig:vector  ETV
2520236	888229 321 647 745801 20.71 63.860039393936 10 0.2 12.4 33.9 231.37
vector 2520237  Network.dyn_peer[51]  lookupHopsSig:vector  ETV
2520237	888550 566 661 696059 20.72 62.022023641418 18 1 34 195 3635
vector 2520238  Network.dyn_peer[51]  lookupStabilitySig:vector  ETV
2520238	889116 827 661 696059 20.72 62.022023641418 18 0.28571426868439 0.99326145555824 16.356424295343 15.375126147669
vector 2520239  Network.dyn_peer[51]  lookupTimeSig:vector  ETV
2520239	889943 594 661 696059 20.72 62.022023641418 18 0.2 3.5 21.2 40.38
vector 2520273  Network.dyn_peer[63]  lookupHopsSig:vector  ETV
2520273	907605 271 684 808516 20.74 66.331820475724 9 1 130 297 22971
vector 2520274  Network.dyn_peer[63]  lookupStabilitySig:vector  ETV
2520274	907876 388 684 808516 20.74 66.331820475724 9 0.375 0.94999999925494 7.4327496923506 6.4411381497331
vector 2520275  Network.dyn_peer[63]  lookupTimeSig:vector  ETV
2520275	908264 283 684 808516 20.74 66.331820475724 9 0.1 13.1 30.5 235.71
vector 2520189  Network.dyn_peer[35]  lookupHopsSig:vector  ETV
2520189	865462 471 708 747466 20.76 63.92223437837 15 3 68 342 14044
vector 2520190  Network.dyn_peer[35]  lookupStabilitySig:vector  ETV
2520190	865933 672 708 747466 20.76 63.92223437837 15 0.33333331346512 0.99613686534576 13.064057509182 11.927825725336
vector 2520191  Network.dyn_peer[35]  lookupTimeSig:vector  ETV
2520191	866605 490 708 747466 20.76 63.92223437837 15 0.4 6.9 35.6 147.34
vector 2520219  Network.dyn_peer[45]  lookupHopsSig:vector  ETV
2520219	881108 302 712 252219 20.76 43.821924702419 10 3 37 174 4616
vector 2520220  Network.dyn_peer[45]  lookupStabilitySig:vector  ETV
2520220	881410 433 712 252219 20.76 43.821924702419 10 0.5 0.99139784928411 8.520720497705 7.5256549595757
vector 2520221  Network.dyn_peer[45]  lookupTimeSig:vector  ETV
2520221	881843 316 712 252219 20.76 43.821924702419 10 0.3 3.8 18.3 49.67
vector 2520216  Network.dyn_peer[44]  lookupHopsSig:vector  ETV
2520216	879344 504 820 707169 20.85 62.424967255077 16 4 67 359 13929
vector 2520217  Network.dyn_peer[44]  lookupStabilitySig:vector  ETV
2520217	879848 735 820 707169 20.85 62.424967255077 16 0.42857140302658 0.99344620434567 14.264057605527 13.125282459042
vector 2520218  Network.dyn_peer[44]  lookupTimeSig:vector  ETV
2520218	880583 525 820 707169 20.85 62.424967255077 16 0.4 6.8 37.4 146.54
vector 2520294  Network.dyn_peer[70]  lookupHopsSig:vector  ETV
2520294	916901 606 906 1057354 20.91 81.371080006763 19 2 104 451 24885
vector 2520295  Network.dyn_peer[70]  lookupStabilitySig:vector  ETV
2520295	917507 877 906 1057354 20.91 81.371080006763 19 0.63043478131294 0.99499852908775 17.67281624442 16.60819137795
vector 2520296  Network.dyn_peer[70]  lookupTimeSig:vector  ETV
2520296	918384 632 906 1057354 20.91 81.371080006763 19 0.2 10.5 46.9 258.01
vector 2520300  Network.dyn_peer[72]  lookupHopsSig:vector  ETV
2520300	921211 443 939 919754 20.93 71.504592789546 14 2 108 264 14708
vector 2520301  Network.dyn_peer[72]  lookupStabilitySig:vector  ETV
2520301	921654 632 939 919754 20.93 71.504592789546 14 0.625 0.98286937922239 12.408837875351 11.148256149397
vector 2520302  Network.dyn_peer[72]  lookupTimeSig:vector  ETV
2520302	922286 458 939 919754 20.93 71.504592789546 14 0.2 10.9 27.7 152.45
vector 2520276  Network.dyn_peer[64]  lookupHopsSig:vector  ETV
2520276	908547 436 968 783493 20.95 65.320042869018 14 1 86 328 16406
vector 2520277  Network.dyn_peer[64]  lookupStabilitySig:vector  ETV
2520277	908983 638 968 783493 20.95 65.320042869018 14 0.5714285671711 0.98959881160408 12.618451043032 11.612252463898
vector 2520278  Network.dyn_peer[64]  lookupTimeSig:vector  ETV
2520278	909621 455 968 783493 20.95 65.320042869018 14 0.2 8.7 34.1 170.69
vector 2520222  Network.dyn_peer[46]  lookupHopsSig:vector  ETV
2520222	882159 240 998 453610 20.97 53.047769481291 8 5 66 226 9700
vector 2520223  Network.dyn_peer[46]  lookupStabilitySig:vector  ETV
2520223	882399 355 998 453610 20.97 53.047769481291 8 0.28571426868439 0.96770472824574 6.2708324827254 5.2810739512752
vector 2520224  Network.dyn_peer[46]  lookupTimeSig:vector  ETV
2520224	882754 249 998 453610 20.97 53.047769481291 8 0.5 6.7 23.3 101.49
vector 2520291  Network.dyn_peer[69]  lookupHopsSig:vector  ETV
2520291	915749 331 1043 148200 21 37.789523038601 11 3 34 137 2411
vector 2520292  Network.dyn_peer[69]  lookupStabilitySig:vector  ETV
2520292	916080 476 1043 148200 21 37.789523038601 11 0.5714285671711 0.97613882832229 9.6355200894177 8.6566035742591
vector 2520293  Network.dyn_peer[69]  lookupTimeSig:vector  ETV
2520293	916556 345 1043 148200 21 37.789523038601 11 0.3 3.5 14.7 26.89
vector 2520174  Network.dyn_peer[30]  lookupHopsSig:vector  ETV
2520174	858561 407 1061 429254 21.01 52.035080483816 13 4 47 235 6121
vector 2520175  Network.dyn_peer[30]  lookupStabilitySig:vector  ETV
2520175	858968 579 1061 429254 21.01 52.035080483816 13 0 0.99307616241276 10.92449349165 10.099720971167
vector 2520176  Network.dyn_peer[30]  lookupTimeSig:vector  ETV
2520176	859547 425 1061 429254 21.01 52.035080483816 13 0.5 4.8 24.7 65.89
vector 2520354  Network.dyn_peer[90]  lookupHopsSig:vector  ETV
2520354	947944 305 1065 530606 21.01 56.084125350046 10 1 63 173 6133
vector 2520355  Network.dyn_peer[90]  lookupStabilitySig:vector  ETV
2520355	948249 448 1065 530606 21.01 56.084125350046 10 0.59999999403954 0.99410029500723 9.039741775021 8.2942968822841
vector 2520356  Network.dyn_peer[90]  lookupTimeSig:vector  ETV
2520356	948697 320 1065 530606 21.01 56.084125350046 10 0.1 6.4 18.2 64.86
vector 2520177  Network.dyn_peer[31]  lookupHopsSig:vector  ETV
2520177	859972 608 1083 1018976 21.02 77.815072714642 19 3 69 505 20689
vector 2520178  Network.dyn_peer[31]  lookupStabilitySig:vector  ETV
2520178	860580 861 1083 1018976 21.02 77.815072714642 19 0 0.99733333336189 16.844428239856 15.915723053448
vector 2520179  Network.dyn_peer[31]  lookupTimeSig:vector  ETV
2520179	861441 631 1083 1018976 21.02 77.815072714642 19 0.4 7 52.3 217.03
vector 2520303  Network.dyn_peer[73]  lookupHopsSig:vector  ETV
2520303	922744 538 1112 666213 21.04 60.969152515384 17 2 46 270 6686
vector 2520304  Network.dyn_peer[73]  lookupStabilitySig:vector  ETV
2520304	923282 759 1112 666213 21.04 60.969152515384 17 0.5714285671711 0.99162223935127 15.48490139097 14.30617393079
vector 2520305  Network.dyn_peer[73]  lookupTimeSig:vector  ETV
2520305	924041 559 1112 666213 21.04 60.969152515384 17 0.3 4.7 28.6 72.36
vector 2520249  Network.dyn_peer[55]  lookupHopsSig:vector  ETV
2520249	894427 439 1143 461562 21.06 53.370047876805 14 1 97 291 14681
vector 2520250  Network.dyn_peer[55]  lookupStabilitySig:vector  ETV
2520250	894866 618 1143 461562 21.06 53.370047876805 14 0.28571426868439 0.98985415324569 12.309719922021 11.312309554521
vector 2520251  Network.dyn_peer[55]  lookupTimeSig:vector  ETV
2520251	895484 454 1143 461562 21.06 53.370047876805 14 0.2 9.8 30.4 152.66
vector 2520279  Network.dyn_peer[65]  lookupHopsSig:vector  ETV
2520279	910076 474 1147 657512 21.06 60.661854676065 15 4 66 331 11839
vector 2520280  Network.dyn_peer[65]  lookupStabilitySig:vector  ETV
2520280	910550 683 1147 657512 21.06 60.661854676065 15 0.42857140302658 0.98558246809989 13.359283040278 12.250470048085
vector 2520281  Network.dyn_peer[65]  lookupTimeSig:vector  ETV
2520281	911233 493 1147 657512 21.06 60.661854676065 15 0.4 6.7 34.5 125.07
vector 2520252  Network.dyn_peer[56]  lookupHopsSig:vector  ETV
2520252	895938 780 1172 1114723 21.07 92.048285108779 24 4 140 601 34139
vector 2520253  Network.dyn_peer[56]  lookupStabilitySig:vector  ETV
2520253	896718 1116 1172 1114723 21.07 92.048285108779 24 0.28571426868439 0.99552322318777 22.071836678777 20.853295450482
vector 2520254  Network.dyn_peer[56]  lookupTimeSig:vector  ETV
2520254	897834 806 1172 1114723 21.07 92.048285108779 24 0.5 14.1 62.4 353.54
vector 2520312  Network.dyn_peer[76]  lookupHopsSig:vector  ETV
2520312	928122 607 1176 993299 21.07 75.894688948305 19 3 54 484 16484
vector 2520313  Network.dyn_peer[76]  lookupStabilitySig:vector  ETV
2520313	928729 870 1176 993299 21.07 75.894688948305 19 0.5714285671711 0.99411764694378 17.501111035701 16.363707931763
vector 2520314  Network.dyn_peer[76]  lookupTimeSig:vector  ETV
2520314	929599 624 1176 993299 21.07 75.894688948305 19 0.3 5.5 50.2 174.64
vector 2520345  Network.dyn_peer[87]  lookupHopsSig:vector  ETV
2520345	945320 207 1193 106410 21.08 34.794319558371 7 2 29 110 2398
vector 2520346  Network.dyn_peer[87]  lookupStabilitySig:vector  ETV
2520346	945527 305 1193 106410 21.08 34.794319558371 7 0.63333332538605 0.95375722646713 5.9240511134267 5.1124988940754
vector 2520347  Network.dyn_peer[87]  lookupTimeSig:vector  ETV
2520347	945832 214 1193 106410 21.08 34.794319558371 7 0.2 3 11.6 26.2
vector 2520240  Network.dyn_peer[52]  lookupHopsSig:vector  ETV
2520240	890537 374 1270 549966 21.13 56.810877780322 12 4 52 256 8412
vector 2520241  Network.dyn_peer[52]  lookupStabilitySig:vector  ETV
2520241	890911 536 1270 549966 21.13 56.810877780322 12 0.14285713434219 0.98614958487451 10.198271501809 9.3118435206287
vector 2520242  Network.dyn_peer[52]  lookupTimeSig:vector  ETV
2520242	891447 386 1270 549966 21.13 56.810877780322 12 0.5 5.3 26.7 89.23
vector 2520306  Network.dyn_peer[74]  lookupHopsSig:vector  ETV
2520306	924600 637 1306 827144 21.15 67.115880144926 20 2 40 315 7447
vector 2520307  Network.dyn_peer[74]  lookupStabilitySig:vector  ETV
2520307	925237 922 1306 827144 21.15 67.115880144926 20 0.42857140302658 0.99596977327019 18.466061514337 17.395986631874
vector 2520308  Network.dyn_peer[74]  lookupTimeSig:vector  ETV
2520308	926159 665 1306 827144 21.15 67.115880144926 20 0.3 4.1 33.4 80.88
vector 2520225  Network.dyn_peer[47]  lookupHopsSig:vector  ETV
2520225	883003 240 1356 873905 21.18 69.209630507249 8 3 85 196 9570
vector 2520226  Network.dyn_peer[47]  lookupStabilitySig:vector  ETV
2520226	883243 330 1356 873905 21.18 69.209630507249 8 0 0.97032640874386 6.2562488019466 5.6650669496909
vector 2520227  Network.dyn_peer[47]  lookupTimeSig:vector  ETV
2520227	883573 251 1356 873905 21.18 69.209630507249 8 0.4 8.6 20.3 99.55
vector 2520315  Network.dyn_peer[77]  lookupHopsSig:vector  ETV
2520315	930223 239 1360 715563 21.18 62.730581674202 8 1 77 204 11560
vector 2520316  Network.dyn_peer[77]  lookupStabilitySig:vector  ETV
2520316	930462 353 1360 715563 21.18 62.730581674202 8 0.42857140302658 0.9833729211241 6.7866322621703 6.0200556910215
vector 2520317  Network.dyn_peer[77]  lookupTimeSig:vector  ETV
2520317	930815 251 1360 715563 21.18 62.730581674202 8 0.2 7.8 21.1 119.67
vector 2520387  Network.dyn_peer[101]  lookupHopsSig:vector  ETV
2520387	963713 406 1436 962870 21.22 73.92540319409 13 1 43 224 7022
vector 2520388  Network.dyn_peer[101]  lookupStabilitySig:vector  ETV
2520388	964119 580 1436 962870 21.22 73.92540319409 13 0.71428570151329 0.99864222679753 12.077380167437 11.304535863242
vector 2520389  Network.dyn_peer[101]  lookupTimeSig:vector  ETV
2520389	964699 423 1436 962870 21.22 73.92540319409 13 0.2 4.4 23.6 74.78
vector 2520390  Network.dyn_peer[102]  lookupHopsSig:vector  ETV
2520390	965122 516 1454 887799 21.23 69.879471880361 16 2 54 466 17056
vector 2520391  Network.dyn_peer[102]  lookupStabilitySig:vector  ETV
2520391	965638 739 1454 887799 21.23 69.879471880361 16 0.69565218687057 0.99031296558678 14.765497241169 13.77507539462
vector 2520392  Network.dyn_peer[102]  lookupTimeSig:vector  ETV
2520392	966377 533 1454 887799 21.23 69.879471880361 16 0.2 5.5 48.1 179.99
vector 2520192  Network.dyn_peer[36]  lookupHopsSig:vector  ETV
2520192	867095 579 1519 957871 21.27 73.625959852901 18 8 63 480 17824
vector 2520193  Network.dyn_peer[36]  lookupStabilitySig:vector  ETV
2520193	867674 834 1519 957871 21.27 73.625959852901 18 -0.28571426868439 0.99039780534804 15.641760908067 15.100571599667
vector 2520194  Network.dyn_peer[36]  lookupTimeSig:vector  ETV
2520194	868508 595 1519 957871 21.27 73.625959852901 18 0.9 6.4 49.7 187.83
vector 2520372  Network.dyn_peer[96]  lookupHopsSig:vector  ETV
2520372	955922 406 1523 790565 21.27 65.600740066212 13 2 108 284 16126
vector 2520373  Network.dyn_peer[96]  lookupStabilitySig:vector  ETV
2520373	956328 592 1523 790565 21.27 65.600740066212 13 0.5714285671711 0.99019607808441 11.789556412958 10.85098305838
vector 2520374  Network.dyn_peer[96]  lookupTimeSig:vector  ETV
2520374	956920 423 1523 790565 21.27 65.600740066212 13 0.3 10.9 29.6 167
vector 2520402  Network.dyn_peer[106]  lookupHopsSig:vector  ETV
2520402	972456 512 1527 1064121 21.27 82.13001620793 16 1 159 466 35992
vector 2520403  Network.dyn_peer[106]  lookupStabilitySig:vector  ETV
2520403	972968 738 1527 1064121 21.27 82.13001620793 16 0.71428570151329 0.99860335199628 14.752170574502 13.738244504752
vector 2520404  Network.dyn_peer[106]  lookupTimeSig:vector  ETV
2520404	973706 526 1527 1064121 21.27 82.13001620793 16 0.2 16 48.1 369.35
vector 2520285  Network.dyn_peer[67]  lookupHopsSig:vector  ETV