version 2
run Stability2-7-20130528-01:22:16-24168
attr configname Stability2
attr datetime 20130528-01:22:16
attr experiment Stability2
attr inifile omnetpp.ini
attr iterationvars $0=10
attr iterationvars2 "$0=10, $repetition=7"
attr measurement $0=10
attr network Network
attr processid 24168
attr repetition 7
attr replication #7
attr resultdir results
attr runnumber 7
attr seedset 7

vector 240007  Network.churner  inGoingSizeSig:vector  ETV
vector 210013  Network.dyn_peer[2]  lookupHopsSig:vector  ETV
vector 210014  Network.dyn_peer[2]  lookupStabilitySig:vector  ETV
vector 210015  Network.dyn_peer[2]  lookupTimeSig:vector  ETV
vector 210007  Network.dyn_peer[0]  lookupHopsSig:vector  ETV
vector 210008  Network.dyn_peer[0]  lookupStabilitySig:vector  ETV
vector 210009  Network.dyn_peer[0]  lookupTimeSig:vector  ETV
vector 210010  Network.dyn_peer[1]  lookupHopsSig:vector  ETV
vector 210011  Network.dyn_peer[1]  lookupStabilitySig:vector  ETV
vector 210012  Network.dyn_peer[1]  lookupTimeSig:vector  ETV
vector 210043  Network.dyn_peer[12]  lookupHopsSig:vector  ETV
vector 210044  Network.dyn_peer[12]  lookupStabilitySig:vector  ETV
vector 210045  Network.dyn_peer[12]  lookupTimeSig:vector  ETV
vector 210049  Network.dyn_peer[14]  lookupHopsSig:vector  ETV
vector 210050  Network.dyn_peer[14]  lookupStabilitySig:vector  ETV
vector 210051  Network.dyn_peer[14]  lookupTimeSig:vector  ETV
vector 210025  Network.dyn_peer[6]  lookupHopsSig:vector  ETV
vector 210026  Network.dyn_peer[6]  lookupStabilitySig:vector  ETV
vector 210027  Network.dyn_peer[6]  lookupTimeSig:vector  ETV
vector 210055  Network.dyn_peer[16]  lookupHopsSig:vector  ETV
vector 210056  Network.dyn_peer[16]  lookupStabilitySig:vector  ETV
vector 210057  Network.dyn_peer[16]  lookupTimeSig:vector  ETV
vector 210028  Network.dyn_peer[7]  lookupHopsSig:vector  ETV
vector 210029  Network.dyn_peer[7]  lookupStabilitySig:vector  ETV
vector 210030  Network.dyn_peer[7]  lookupTimeSig:vector  ETV
vector 210031  Network.dyn_peer[8]  lookupHopsSig:vector  ETV
vector 210032  Network.dyn_peer[8]  lookupStabilitySig:vector  ETV
vector 210033  Network.dyn_peer[8]  lookupTimeSig:vector  ETV
vector 210034  Network.dyn_peer[9]  lookupHopsSig:vector  ETV
vector 210035  Network.dyn_peer[9]  lookupStabilitySig:vector  ETV
vector 210036  Network.dyn_peer[9]  lookupTimeSig:vector  ETV
vector 210037  Network.dyn_peer[10]  lookupHopsSig:vector  ETV
vector 210038  Network.dyn_peer[10]  lookupStabilitySig:vector  ETV
vector 210039  Network.dyn_peer[10]  lookupTimeSig:vector  ETV
vector 210046  Network.dyn_peer[13]  lookupHopsSig:vector  ETV
vector 210047  Network.dyn_peer[13]  lookupStabilitySig:vector  ETV
vector 210048  Network.dyn_peer[13]  lookupTimeSig:vector  ETV
vector 210022  Network.dyn_peer[5]  lookupHopsSig:vector  ETV
vector 210023  Network.dyn_peer[5]  lookupStabilitySig:vector  ETV
vector 210024  Network.dyn_peer[5]  lookupTimeSig:vector  ETV
vector 210052  Network.dyn_peer[15]  lookupHopsSig:vector  ETV
vector 210053  Network.dyn_peer[15]  lookupStabilitySig:vector  ETV
vector 210054  Network.dyn_peer[15]  lookupTimeSig:vector  ETV
vector 210064  Network.dyn_peer[19]  lookupHopsSig:vector  ETV
vector 210065  Network.dyn_peer[19]  lookupStabilitySig:vector  ETV
vector 210066  Network.dyn_peer[19]  lookupTimeSig:vector  ETV
vector 210040  Network.dyn_peer[11]  lookupHopsSig:vector  ETV
vector 210041  Network.dyn_peer[11]  lookupStabilitySig:vector  ETV
vector 210042  Network.dyn_peer[11]  lookupTimeSig:vector  ETV
vector 210016  Network.dyn_peer[3]  lookupHopsSig:vector  ETV
vector 210017  Network.dyn_peer[3]  lookupStabilitySig:vector  ETV
vector 210018  Network.dyn_peer[3]  lookupTimeSig:vector  ETV
vector 210019  Network.dyn_peer[4]  lookupHopsSig:vector  ETV
vector 210020  Network.dyn_peer[4]  lookupStabilitySig:vector  ETV
vector 210021  Network.dyn_peer[4]  lookupTimeSig:vector  ETV
vector 210085  Network.dyn_peer[26]  lookupHopsSig:vector  ETV
vector 210086  Network.dyn_peer[26]  lookupStabilitySig:vector  ETV
vector 210087  Network.dyn_peer[26]  lookupTimeSig:vector  ETV
vector 210067  Network.dyn_peer[20]  lookupHopsSig:vector  ETV
vector 210068  Network.dyn_peer[20]  lookupStabilitySig:vector  ETV
vector 210069  Network.dyn_peer[20]  lookupTimeSig:vector  ETV
vector 210097  Network.dyn_peer[30]  lookupHopsSig:vector  ETV
vector 210098  Network.dyn_peer[30]  lookupStabilitySig:vector  ETV
vector 210099  Network.dyn_peer[30]  lookupTimeSig:vector  ETV
vector 210073  Network.dyn_peer[22]  lookupHopsSig:vector  ETV
vector 210074  Network.dyn_peer[22]  lookupStabilitySig:vector  ETV
vector 210075  Network.dyn_peer[22]  lookupTimeSig:vector  ETV
vector 210106  Network.dyn_peer[33]  lookupHopsSig:vector  ETV
vector 210107  Network.dyn_peer[33]  lookupStabilitySig:vector  ETV
vector 210108  Network.dyn_peer[33]  lookupTimeSig:vector  ETV
vector 210118  Network.dyn_peer[37]  lookupHopsSig:vector  ETV
vector 210119  Network.dyn_peer[37]  lookupStabilitySig:vector  ETV
vector 210120  Network.dyn_peer[37]  lookupTimeSig:vector  ETV
vector 210070  Network.dyn_peer[21]  lookupHopsSig:vector  ETV
vector 210071  Network.dyn_peer[21]  lookupStabilitySig:vector  ETV
vector 210072  Network.dyn_peer[21]  lookupTimeSig:vector  ETV
vector 210100  Network.dyn_peer[31]  lookupHopsSig:vector  ETV
vector 210101  Network.dyn_peer[31]  lookupStabilitySig:vector  ETV
vector 210102  Network.dyn_peer[31]  lookupTimeSig:vector  ETV
vector 210115  Network.dyn_peer[36]  lookupHopsSig:vector  ETV
vector 210116  Network.dyn_peer[36]  lookupStabilitySig:vector  ETV
vector 210117  Network.dyn_peer[36]  lookupTimeSig:vector  ETV
vector 210088  Network.dyn_peer[27]  lookupHopsSig:vector  ETV
vector 210089  Network.dyn_peer[27]  lookupStabilitySig:vector  ETV
vector 210090  Network.dyn_peer[27]  lookupTimeSig:vector  ETV
vector 210148  Network.dyn_peer[47]  lookupHopsSig:vector  ETV
vector 210149  Network.dyn_peer[47]  lookupStabilitySig:vector  ETV
vector 210150  Network.dyn_peer[47]  lookupTimeSig:vector  ETV
vector 210121  Network.dyn_peer[38]  lookupHopsSig:vector  ETV
vector 210122  Network.dyn_peer[38]  lookupStabilitySig:vector  ETV
vector 210123  Network.dyn_peer[38]  lookupTimeSig:vector  ETV
vector 210136  Network.dyn_peer[43]  lookupHopsSig:vector  ETV
vector 210137  Network.dyn_peer[43]  lookupStabilitySig:vector  ETV
vector 210138  Network.dyn_peer[43]  lookupTimeSig:vector  ETV
vector 210109  Network.dyn_peer[34]  lookupHopsSig:vector  ETV
vector 210110  Network.dyn_peer[34]  lookupStabilitySig:vector  ETV
vector 210111  Network.dyn_peer[34]  lookupTimeSig:vector  ETV
vector 210205  Network.dyn_peer[66]  lookupHopsSig:vector  ETV
vector 210206  Network.dyn_peer[66]  lookupStabilitySig:vector  ETV
vector 210207  Network.dyn_peer[66]  lookupTimeSig:vector  ETV
vector 210103  Network.dyn_peer[32]  lookupHopsSig:vector  ETV
vector 210104  Network.dyn_peer[32]  lookupStabilitySig:vector  ETV
vector 210105  Network.dyn_peer[32]  lookupTimeSig:vector  ETV
vector 210076  Network.dyn_peer[23]  lookupHopsSig:vector  ETV
vector 210077  Network.dyn_peer[23]  lookupStabilitySig:vector  ETV
vector 210078  Network.dyn_peer[23]  lookupTimeSig:vector  ETV
vector 210082  Network.dyn_peer[25]  lookupHopsSig:vector  ETV
vector 210083  Network.dyn_peer[25]  lookupStabilitySig:vector  ETV
vector 210084  Network.dyn_peer[25]  lookupTimeSig:vector  ETV
vector 210112  Network.dyn_peer[35]  lookupHopsSig:vector  ETV
vector 210113  Network.dyn_peer[35]  lookupStabilitySig:vector  ETV
vector 210114  Network.dyn_peer[35]  lookupTimeSig:vector  ETV
vector 210145  Network.dyn_peer[46]  lookupHopsSig:vector  ETV
vector 210146  Network.dyn_peer[46]  lookupStabilitySig:vector  ETV
vector 210147  Network.dyn_peer[46]  lookupTimeSig:vector  ETV
vector 210133  Network.dyn_peer[42]  lookupHopsSig:vector  ETV
vector 210134  Network.dyn_peer[42]  lookupStabilitySig:vector  ETV
vector 210135  Network.dyn_peer[42]  lookupTimeSig:vector  ETV
vector 210193  Network.dyn_peer[62]  lookupHopsSig:vector  ETV
vector 210194  Network.dyn_peer[62]  lookupStabilitySig:vector  ETV
vector 210195  Network.dyn_peer[62]  lookupTimeSig:vector  ETV
vector 210232  Network.dyn_peer[75]  lookupHopsSig:vector  ETV
vector 210233  Network.dyn_peer[75]  lookupStabilitySig:vector  ETV
vector 210234  Network.dyn_peer[75]  lookupTimeSig:vector  ETV
vector 210058  Network.dyn_peer[17]  lookupHopsSig:vector  ETV
vector 210059  Network.dyn_peer[17]  lookupStabilitySig:vector  ETV
vector 210060  Network.dyn_peer[17]  lookupTimeSig:vector  ETV
vector 210061  Network.dyn_peer[18]  lookupHopsSig:vector  ETV
vector 210062  Network.dyn_peer[18]  lookupStabilitySig:vector  ETV
vector 210063  Network.dyn_peer[18]  lookupTimeSig:vector  ETV
vector 210094  Network.dyn_peer[29]  lookupHopsSig:vector  ETV
vector 210095  Network.dyn_peer[29]  lookupStabilitySig:vector  ETV
vector 210096  Network.dyn_peer[29]  lookupTimeSig:vector  ETV
vector 210187  Network.dyn_peer[60]  lookupHopsSig:vector  ETV
vector 210188  Network.dyn_peer[60]  lookupStabilitySig:vector  ETV
vector 210189  Network.dyn_peer[60]  lookupTimeSig:vector  ETV
vector 210169  Network.dyn_peer[54]  lookupHopsSig:vector  ETV
vector 210170  Network.dyn_peer[54]  lookupStabilitySig:vector  ETV
vector 210171  Network.dyn_peer[54]  lookupTimeSig:vector  ETV
vector 210199  Network.dyn_peer[64]  lookupHopsSig:vector  ETV
vector 210200  Network.dyn_peer[64]  lookupStabilitySig:vector  ETV
vector 210201  Network.dyn_peer[64]  lookupTimeSig:vector  ETV
vector 210091  Network.dyn_peer[28]  lookupHopsSig:vector  ETV
vector 210092  Network.dyn_peer[28]  lookupStabilitySig:vector  ETV
vector 210093  Network.dyn_peer[28]  lookupTimeSig:vector  ETV
vector 210184  Network.dyn_peer[59]  lookupHopsSig:vector  ETV
vector 210185  Network.dyn_peer[59]  lookupStabilitySig:vector  ETV
vector 210186  Network.dyn_peer[59]  lookupTimeSig:vector  ETV
vector 210157  Network.dyn_peer[50]  lookupHopsSig:vector  ETV
vector 210158  Network.dyn_peer[50]  lookupStabilitySig:vector  ETV
vector 210159  Network.dyn_peer[50]  lookupTimeSig:vector  ETV
vector 210166  Network.dyn_peer[53]  lookupHopsSig:vector  ETV
vector 210167  Network.dyn_peer[53]  lookupStabilitySig:vector  ETV
vector 210168  Network.dyn_peer[53]  lookupTimeSig:vector  ETV
vector 210256  Network.dyn_peer[83]  lookupHopsSig:vector  ETV
vector 210257  Network.dyn_peer[83]  lookupStabilitySig:vector  ETV
vector 210258  Network.dyn_peer[83]  lookupTimeSig:vector  ETV
vector 210079  Network.dyn_peer[24]  lookupHopsSig:vector  ETV
vector 210080  Network.dyn_peer[24]  lookupStabilitySig:vector  ETV
vector 210081  Network.dyn_peer[24]  lookupTimeSig:vector  ETV
vector 210211  Network.dyn_peer[68]  lookupHopsSig:vector  ETV
vector 210212  Network.dyn_peer[68]  lookupStabilitySig:vector  ETV
vector 210213  Network.dyn_peer[68]  lookupTimeSig:vector  ETV
vector 210271  Network.dyn_peer[88]  lookupHopsSig:vector  ETV
vector 210272  Network.dyn_peer[88]  lookupStabilitySig:vector  ETV
vector 210273  Network.dyn_peer[88]  lookupTimeSig:vector  ETV
vector 210286  Network.dyn_peer[93]  lookupHopsSig:vector  ETV
vector 210287  Network.dyn_peer[93]  lookupStabilitySig:vector  ETV
vector 210288  Network.dyn_peer[93]  lookupTimeSig:vector  ETV
vector 210139  Network.dyn_peer[44]  lookupHopsSig:vector  ETV
vector 210140  Network.dyn_peer[44]  lookupStabilitySig:vector  ETV
vector 210141  Network.dyn_peer[44]  lookupTimeSig:vector  ETV
vector 210142  Network.dyn_peer[45]  lookupHopsSig:vector  ETV
vector 210143  Network.dyn_peer[45]  lookupStabilitySig:vector  ETV
vector 210144  Network.dyn_peer[45]  lookupTimeSig:vector  ETV
vector 210265  Network.dyn_peer[86]  lookupHopsSig:vector  ETV
vector 210266  Network.dyn_peer[86]  lookupStabilitySig:vector  ETV
vector 210267  Network.dyn_peer[86]  lookupTimeSig:vector  ETV
vector 210238  Network.dyn_peer[77]  lookupHopsSig:vector  ETV
vector 210239  Network.dyn_peer[77]  lookupStabilitySig:vector  ETV
vector 210240  Network.dyn_peer[77]  lookupTimeSig:vector  ETV
vector 210268  Network.dyn_peer[87]  lookupHopsSig:vector  ETV
vector 210269  Network.dyn_peer[87]  lookupStabilitySig:vector  ETV
vector 210270  Network.dyn_peer[87]  lookupTimeSig:vector  ETV
vector 210244  Network.dyn_peer[79]  lookupHopsSig:vector  ETV
vector 210245  Network.dyn_peer[79]  lookupStabilitySig:vector  ETV
vector 210246  Network.dyn_peer[79]  lookupTimeSig:vector  ETV
vector 210277  Network.dyn_peer[90]  lookupHopsSig:vector  ETV
vector 210278  Network.dyn_peer[90]  lookupStabilitySig:vector  ETV
vector 210279  Network.dyn_peer[90]  lookupTimeSig:vector  ETV
vector 210259  Network.dyn_peer[84]  lookupHopsSig:vector  ETV
vector 210260  Network.dyn_peer[84]  lookupStabilitySig:vector  ETV
vector 210261  Network.dyn_peer[84]  lookupTimeSig:vector  ETV
vector 210208  Network.dyn_peer[67]  lookupHopsSig:vector  ETV
vector 210209  Network.dyn_peer[67]  lookupStabilitySig:vector  ETV
vector 210210  Network.dyn_peer[67]  lookupTimeSig:vector  ETV
vector 210298  Network.dyn_peer[97]  lookupHopsSig:vector  ETV
vector 210299  Network.dyn_peer[97]  lookupStabilitySig:vector  ETV
vector 210300  Network.dyn_peer[97]  lookupTimeSig:vector  ETV
vector 210247  Network.dyn_peer[80]  lookupHopsSig:vector  ETV
vector 210248  Network.dyn_peer[80]  lookupStabilitySig:vector  ETV
vector 210249  Network.dyn_peer[80]  lookupTimeSig:vector  ETV
vector 210130  Network.dyn_peer[41]  lookupHopsSig:vector  ETV
vector 210131  Network.dyn_peer[41]  lookupStabilitySig:vector  ETV
vector 210132  Network.dyn_peer[41]  lookupTimeSig:vector  ETV
vector 210160  Network.dyn_peer[51]  lookupHopsSig:vector  ETV
vector 210161  Network.dyn_peer[51]  lookupStabilitySig:vector  ETV
vector 210162  Network.dyn_peer[51]  lookupTimeSig:vector  ETV
vector 210190  Network.dyn_peer[61]  lookupHopsSig:vector  ETV
vector 210191  Network.dyn_peer[61]  lookupStabilitySig:vector  ETV
vector 210192  Network.dyn_peer[61]  lookupTimeSig:vector  ETV
vector 210202  Network.dyn_peer[65]  lookupHopsSig:vector  ETV
vector 210203  Network.dyn_peer[65]  lookupStabilitySig:vector  ETV
vector 210204  Network.dyn_peer[65]  lookupTimeSig:vector  ETV
vector 210124  Network.dyn_peer[39]  lookupHopsSig:vector  ETV
vector 210125  Network.dyn_peer[39]  lookupStabilitySig:vector  ETV
vector 210126  Network.dyn_peer[39]  lookupTimeSig:vector  ETV
vector 210223  Network.dyn_peer[72]  lookupHopsSig:vector  ETV
vector 210224  Network.dyn_peer[72]  lookupStabilitySig:vector  ETV
vector 210225  Network.dyn_peer[72]  lookupTimeSig:vector  ETV
vector 210172  Network.dyn_peer[55]  lookupHopsSig:vector  ETV
vector 210173  Network.dyn_peer[55]  lookupStabilitySig:vector  ETV
vector 210174  Network.dyn_peer[55]  lookupTimeSig:vector  ETV
vector 210154  Network.dyn_peer[49]  lookupHopsSig:vector  ETV
vector 210155  Network.dyn_peer[49]  lookupStabilitySig:vector  ETV
vector 210156  Network.dyn_peer[49]  lookupTimeSig:vector  ETV
vector 210304  Network.dyn_peer[99]  lookupHopsSig:vector  ETV
vector 210305  Network.dyn_peer[99]  lookupStabilitySig:vector  ETV
vector 210306  Network.dyn_peer[99]  lookupTimeSig:vector  ETV
vector 210217  Network.dyn_peer[70]  lookupHopsSig:vector  ETV
vector 210218  Network.dyn_peer[70]  lookupStabilitySig:vector  ETV
vector 210219  Network.dyn_peer[70]  lookupTimeSig:vector  ETV
vector 210229  Network.dyn_peer[74]  lookupHopsSig:vector  ETV
vector 210230  Network.dyn_peer[74]  lookupStabilitySig:vector  ETV
vector 210231  Network.dyn_peer[74]  lookupTimeSig:vector  ETV
vector 210262  Network.dyn_peer[85]  lookupHopsSig:vector  ETV
vector 210263  Network.dyn_peer[85]  lookupStabilitySig:vector  ETV
vector 210264  Network.dyn_peer[85]  lookupTimeSig:vector  ETV
vector 210178  Network.dyn_peer[57]  lookupHopsSig:vector  ETV
vector 210179  Network.dyn_peer[57]  lookupStabilitySig:vector  ETV
vector 210180  Network.dyn_peer[57]  lookupTimeSig:vector  ETV
vector 210151  Network.dyn_peer[48]  lookupHopsSig:vector  ETV
vector 210152  Network.dyn_peer[48]  lookupStabilitySig:vector  ETV
vector 210153  Network.dyn_peer[48]  lookupTimeSig:vector  ETV
vector 210127  Network.dyn_peer[40]  lookupHopsSig:vector  ETV
vector 210128  Network.dyn_peer[40]  lookupStabilitySig:vector  ETV
vector 210129  Network.dyn_peer[40]  lookupTimeSig:vector  ETV
vector 210283  Network.dyn_peer[92]  lookupHopsSig:vector  ETV
vector 210284  Network.dyn_peer[92]  lookupStabilitySig:vector  ETV
vector 210285  Network.dyn_peer[92]  lookupTimeSig:vector  ETV
vector 210226  Network.dyn_peer[73]  lookupHopsSig:vector  ETV
vector 210227  Network.dyn_peer[73]  lookupStabilitySig:vector  ETV
vector 210228  Network.dyn_peer[73]  lookupTimeSig:vector  ETV
vector 210235  Network.dyn_peer[76]  lookupHopsSig:vector  ETV
vector 210236  Network.dyn_peer[76]  lookupStabilitySig:vector  ETV
vector 210237  Network.dyn_peer[76]  lookupTimeSig:vector  ETV
vector 210292  Network.dyn_peer[95]  lookupHopsSig:vector  ETV
vector 210293  Network.dyn_peer[95]  lookupStabilitySig:vector  ETV
vector 210294  Network.dyn_peer[95]  lookupTimeSig:vector  ETV
vector 210181  Network.dyn_peer[58]  lookupHopsSig:vector  ETV
vector 210182  Network.dyn_peer[58]  lookupStabilitySig:vector  ETV
vector 210183  Network.dyn_peer[58]  lookupTimeSig:vector  ETV
vector 210163  Network.dyn_peer[52]  lookupHopsSig:vector  ETV
vector 210164  Network.dyn_peer[52]  lookupStabilitySig:vector  ETV
vector 210165  Network.dyn_peer[52]  lookupTimeSig:vector  ETV
vector 210175  Network.dyn_peer[56]  lookupHopsSig:vector  ETV
vector 210176  Network.dyn_peer[56]  lookupStabilitySig:vector  ETV
vector 210177  Network.dyn_peer[56]  lookupTimeSig:vector  ETV
vector 210295  Network.dyn_peer[96]  lookupHopsSig:vector  ETV
vector 210296  Network.dyn_peer[96]  lookupStabilitySig:vector  ETV
vector 210297  Network.dyn_peer[96]  lookupTimeSig:vector  ETV
vector 210214  Network.dyn_peer[69]  lookupHopsSig:vector  ETV
vector 210215  Network.dyn_peer[69]  lookupStabilitySig:vector  ETV
vector 210216  Network.dyn_peer[69]  lookupTimeSig:vector  ETV
vector 210250  Network.dyn_peer[81]  lookupHopsSig:vector  ETV
vector 210251  Network.dyn_peer[81]  lookupStabilitySig:vector  ETV
vector 210252  Network.dyn_peer[81]  lookupTimeSig:vector  ETV
vector 210274  Network.dyn_peer[89]  lookupHopsSig:vector  ETV
vector 210275  Network.dyn_peer[89]  lookupStabilitySig:vector  ETV
vector 210276  Network.dyn_peer[89]  lookupTimeSig:vector  ETV
vector 210280  Network.dyn_peer[91]  lookupHopsSig:vector  ETV
vector 210281  Network.dyn_peer[91]  lookupStabilitySig:vector  ETV
vector 210282  Network.dyn_peer[91]  lookupTimeSig:vector  ETV
vector 210196  Network.dyn_peer[63]  lookupHopsSig:vector  ETV
vector 210197  Network.dyn_peer[63]  lookupStabilitySig:vector  ETV
vector 210198  Network.dyn_peer[63]  lookupTimeSig:vector  ETV
vector 210241  Network.dyn_peer[78]  lookupHopsSig:vector  ETV
vector 210242  Network.dyn_peer[78]  lookupStabilitySig:vector  ETV
vector 210243  Network.dyn_peer[78]  lookupTimeSig:vector  ETV
vector 210301  Network.dyn_peer[98]  lookupHopsSig:vector  ETV
vector 210302  Network.dyn_peer[98]  lookupStabilitySig:vector  ETV
vector 210303  Network.dyn_peer[98]  lookupTimeSig:vector  ETV
vector 210289  Network.dyn_peer[94]  lookupHopsSig:vector  ETV
vector 210290  Network.dyn_peer[94]  lookupStabilitySig:vector  ETV
vector 210291  Network.dyn_peer[94]  lookupTimeSig:vector  ETV
vector 210253  Network.dyn_peer[82]  lookupHopsSig:vector  ETV
vector 210254  Network.dyn_peer[82]  lookupStabilitySig:vector  ETV
vector 210255  Network.dyn_peer[82]  lookupTimeSig:vector  ETV
vector 210220  Network.dyn_peer[71]  lookupHopsSig:vector  ETV
vector 210221  Network.dyn_peer[71]  lookupStabilitySig:vector  ETV
vector 210222  Network.dyn_peer[71]  lookupTimeSig:vector  ETV
210007	50	20.11	1
210007	1343	21.21	10
210007	2146	21.81926467284	5
210007	2718	22.319660277854	4
210008	50	20.11	0.79999999701977
210008	1343	21.21	0.090909063816071
210008	2146	21.81926467284	0.77272726595402
210008	2718	22.319660277854	0.88888888806105
210009	50	20.11	0.1
210009	1343	21.21	1.1
210009	2146	21.81926467284	0.6
210009	2718	22.319660277854	0.5
210010	58	20.12	1
210010	299	20.42	2
210010	508	20.627640096289	1
210010	918	20.93412961442	2
210010	2180	21.843872615017	7
210010	2436	22.053849759425	1
210010	3066	22.656305531924	5
210011	58	20.12	0.79999999701977
210011	299	20.42	0.59999999403954
210011	508	20.627640096289	0.79999999701977
210011	918	20.93412961442	0.59999999403954
210011	2180	21.843872615017	0.69565218687057
210011	2436	22.053849759425	0.96774193644524
210011	3066	22.656305531924	0.88888888806105
210012	58	20.12	0.1
210012	299	20.42	0.3
210012	508	20.627640096289	0.2
210012	918	20.93412961442	0.3
210012	2180	21.843872615017	0.8
210012	2436	22.053849759425	0.2
210012	3066	22.656305531924	0.6
210013	23	20.03	0
210013	215	20.33	2
210013	636	20.733218056475	3
210013	1077	21.037753224211	2
210013	3727	23.446150692788	23
210014	23	20.03	1
210014	215	20.33	0.59999999403954
210014	636	20.733218056475	0.39999997615814
210014	1077	21.037753224211	0.75
210014	3727	23.446150692788	0.61016950011253
210015	23	20.03	0
210015	215	20.33	0.3
210015	636	20.733218056475	0.4
210015	1077	21.037753224211	0.3
210015	3727	23.446150692788	2.4
210016	228	20.34	3
210016	1650	21.44	10
210016	2319	21.946239731896	4
210016	4193	24.220283107212	7
210016	4654	25.321789020958	10
210016	4775	25.726470597369	3
210016	4955	26.527257359732	7
210016	5059	27.428528781245	8
210017	228	20.34	0.39999997615814
210017	1650	21.44	0.28571426868439
210017	2319	21.946239731896	0.85714285075665
210017	4193	24.220283107212	0.90909090638161
210017	4654	25.321789020958	0.88636363297701
210017	4775	25.726470597369	0.9666666649282
210017	4955	26.527257359732	0.92708333581686
210017	5059	27.428528781245	0.92000000178814
210018	228	20.34	0.3
210018	1650	21.44	1.1
210018	2319	21.946239731896	0.5
210018	4193	24.220283107212	0.8
210018	4654	25.321789020958	1.1
210018	4775	25.726470597369	0.4
210018	4955	26.527257359732	0.8
210018	5059	27.428528781245	0.9
210019	239	20.35	3
210019	1113	21.05	6
210019	1945	21.657649478116	5
210019	3935	23.758192532958	20
210020	239	20.35	0.39999997615814
210020	1113	21.05	0.25
210020	1945	21.657649478116	0.70588234066963
210020	3935	23.758192532958	0.70588234066963
210021	239	20.35	0.3
210021	1113	21.05	0.7
210021	1945	21.657649478116	0.6
210021	3935	23.758192532958	2.1
210022	163	20.26	2
210022	1270	21.16	8
210022	1552	21.362035831618	1
210022	2211	21.870046509681	4
210022	2980	22.571464788363	6
210023	163	20.26	0.59999999403954
210023	1270	21.16	0.19999998807907
210023	1552	21.362035831618	0.92307692021132
210023	2211	21.870046509681	0.82608695328236
210023	2980	22.571464788363	0.8604651093483
210024	163	20.26	0.2
210024	1270	21.16	0.9
210024	1552	21.362035831618	0.2
210024	2211	21.870046509681	0.5
210024	2980	22.571464788363	0.7
210025	90	20.17	1
210025	438	20.57	3
210025	1698	21.47882853528	8
210025	2259	21.903241105093	3
210025	2697	22.303351512324	3
210026	90	20.17	0.79999999701977
210026	438	20.57	0.39999997615814
210026	1698	21.47882853528	0.46666663885117
210026	2259	21.903241105093	0.88888888806105
210026	2697	22.303351512324	0.91666666418314
210027	90	20.17	0.1
210027	438	20.57	0.4
210027	1698	21.47882853528	0.9
210027	2259	21.903241105093	0.4
210027	2697	22.303351512324	0.4
210028	103	20.18	1
210028	1002	20.981346273659	7
210028	1925	21.643039473276	5
210028	2420	22.043872030176	3
210028	3733	23.453490129472	13
210029	103	20.18	0.79999999701977
210029	1002	20.981346273659	-0.16666662693024
210029	1925	21.643039473276	0.70588234066963
210029	2420	22.043872030176	0.89999999850988
210029	3733	23.453490129472	0.78333333134651
210030	103	20.18	0.1
210030	1002	20.981346273659	0.8
210030	1925	21.643039473276	0.6
210030	2420	22.043872030176	0.4
210030	3733	23.453490129472	1.4
210031	112	20.19	1
210031	472	20.59	3
210031	2139	21.812258601473	11
210032	112	20.19	0.79999999701977
210032	472	20.59	0.39999997615814
210032	2139	21.812258601473	0.47619044780731
210033	112	20.19	0.1
210033	472	20.59	0.4
210033	2139	21.812258601473	1.2
210034	120	20.2	1
210034	1184	21.1	8
210034	1604	21.40551334978	2
210034	2384	22.005621777555	5
210035	120	20.2	0.79999999701977
210035	1184	21.1	0.11111110448837
210035	1604	21.40551334978	0.85714285075665
210035	2384	22.005621777555	0.82758620381355
210036	120	20.2	0.1
210036	1184	21.1	0.9
210036	1604	21.40551334978	0.3
210036	2384	22.005621777555	0.6
210037	129	20.21	1
210037	1195	21.11	8
210037	2141	21.813236523428	6
210038	129	20.21	0.79999999701977
210038	1195	21.11	0.11111110448837
210038	2141	21.813236523428	0.72727271914482
210039	129	20.21	0.1
210039	1195	21.11	0.9
210039	2141	21.813236523428	0.7
210040	208	20.32	2
210040	1628	21.42	10
210040	2029	21.728089184749	2
210040	3393	23.036607180605	12
210041	208	20.32	0.59999999403954
210041	1628	21.42	0.28571426868439
210041	2029	21.728089184749	0.88888888806105
210041	3393	23.036607180605	0.7647058814764
210042	208	20.32	0.2
210042	1628	21.42	1.1
210042	2029	21.728089184749	0.3
210042	3393	23.036607180605	1.3
210043	68	20.13	0
210043	216	20.33	1
210043	1506	21.334501042547	9
210043	2629	22.23769368553	8
210043	3533	23.205040828755	8
210043	4570	25.108173520725	18
210043	4707	25.512568233752	3
210044	68	20.13	1
210044	216	20.33	0.79999999701977
210044	1506	21.334501042547	0.25
210044	2629	22.23769368553	0.77142857015133
210044	3533	23.205040828755	0.84905660152435
210044	4570	25.108173520725	0.78823529183865
210044	4707	25.512568233752	0.9659090898931
210045	68	20.13	0
210045	216	20.33	0.2
210045	1506	21.334501042547	1
210045	2629	22.23769368553	0.9
210045	3533	23.205040828755	0.9
210045	4570	25.108173520725	1.9
210045	4707	25.512568233752	0.4
210046	148	20.24	1
210046	527	20.64	3
210046	2428	22.04768027537	13
210046	3057	22.64784095358	5
210046	3489	23.1509300677	4
210047	148	20.24	0.79999999701977
210047	527	20.64	0.39999997615814
210047	2428	22.04768027537	0.58064517378807
210047	3057	22.64784095358	0.88888888806105
210047	3489	23.1509300677	0.92307692021132
210048	148	20.24	0.1
210048	527	20.64	0.4
210048	2428	22.04768027537	1.4
210048	3057	22.64784095358	0.6
210048	3489	23.1509300677	0.5
210049	80	20.15	0
210049	240	20.35	1
210049	2644	22.251889046709	18
210049	2960	22.552125765044	2
210050	80	20.15	1
210050	240	20.35	0.79999999701977
210050	2644	22.251889046709	0.5
210050	2960	22.552125765044	0.95121951401234
210051	80	20.15	0
210051	240	20.35	0.2
210051	2644	22.251889046709	1.9
210051	2960	22.552125765044	0.3
210052	167	20.26	1
210052	556	20.66	3
210052	1554	21.369426867414	6
210052	3078	22.671077128993	6
210052	3813	23.573609748531	8
210052	4001	23.8750655801	2
210052	4314	24.478308858248	5
210052	4554	25.081065082301	5
210052	4755	25.692039738148	5
210053	167	20.26	0.79999999701977
210053	556	20.66	0.39999997615814
210053	1554	21.369426867414	0.53846153616905
210053	3078	22.671077128993	0.86666665971279
210053	3813	23.573609748531	0.87301586568356
210053	4001	23.8750655801	0.97222222201526
210053	4314	24.478308858248	0.9375
210053	4554	25.081065082301	0.9411764703691
210053	4755	25.692039738148	0.94382022321224
210054	167	20.26	0.1
210054	556	20.66	0.4
210054	1554	21.369426867414	0.7
210054	3078	22.671077128993	0.7
210054	3813	23.573609748531	0.9
210054	4001	23.8750655801	0.3
210054	4314	24.478308858248	0.6
210054	4554	25.081065082301	0.6
210054	4755	25.692039738148	0.6
210055	96	20.17	0
210055	446	20.575259907743	3
210055	1140	21.077028594935	4
210055	2481	22.099571490925	9
210055	3617	23.300448590546	11
210055	4129	24.105215683505	7
210055	4462	24.813561600232	6
210055	4651	25.318499760727	4
210055	4859	26.027188512838	6
210055	4928	26.335170029051	2
210055	5026	27.041263181898	6
210056	96	20.17	1
210056	446	20.575259907743	0.39999997615814
210056	1140	21.077028594935	0.5
210056	2481	22.099571490925	0.72727271914482
210056	3617	23.300448590546	0.8035714328289
210056	4129	24.105215683505	0.90410958975554
210056	4462	24.813561600232	0.92682927101851
210056	4651	25.318499760727	0.9545454531908
210056	4859	26.027188512838	0.93406593054533
210056	4928	26.335170029051	0.97916666604578
210056	5026	27.041263181898	0.93939393758774
210057	96	20.17	0
210057	446	20.575259907743	0.4
210057	1140	21.077028594935	0.5
210057	2481	22.099571490925	1
210057	3617	23.300448590546	1.2
210057	4129	24.105215683505	0.8
210057	4462	24.813561600232	0.7
210057	4651	25.318499760727	0.5
210057	4859	26.027188512838	0.7
210057	4928	26.335170029051	0.3
210057	5026	27.041263181898	0.7
210058	843	20.88	7
210058	1432	21.28	3
210058	1708	21.483086586794	1
210058	1978	21.683700854104	1
210059	843	20.88	-0.39999997615814
210059	1432	21.28	0.72727271914482
210059	1708	21.483086586794	0.9411764703691
210059	1978	21.683700854104	0.9411764703691
210060	843	20.88	0.7
210060	1432	21.28	0.4
210060	1708	21.483086586794	0.2
210060	1978	21.683700854104	0.2
210061	859	20.89	7
210061	1586	21.39	4
210061	2240	21.892238072073	4
210062	859	20.89	-0.39999997615814
210062	1586	21.39	0.71428570151329
210062	2240	21.892238072073	0.83333332836628
210063	859	20.89	0.7
210063	1586	21.39	0.5
210063	2240	21.892238072073	0.5
210064	192	20.3	1
210064	1030	21	6
210064	2270	21.910902470908	8
210064	3216	22.811198554398	8
210065	192	20.3	0.79999999701977
210065	1030	21	0.14285713434219
210065	2270	21.910902470908	0.70370370149612
210065	3216	22.811198554398	0.82222221791744
210066	192	20.3	0.1
210066	1030	21	0.7
210066	2270	21.910902470908	0.9
210066	3216	22.811198554398	0.9
210067	287	20.41	2
210067	743	20.81	3
210067	1054	21.014348849132	1
210067	2501	22.114750006359	5
210067	2817	22.417030876178	2
210067	3125	22.7205256923	2
210067	3383	23.027664113064	2
210067	3786	23.528244826605	4
210068	287	20.41	0.59999999403954
210068	743	20.81	0.39999997615814
210068	1054	21.014348849132	0.85714285075665
210068	2501	22.114750006359	0.84848484396935
210068	2817	22.417030876178	0.94999999925494
210068	3125	22.7205256923	0.95555555447936