file 144039 1369933121                                          
version 2
run Stability2-10-20130528-01:22:31-24168
attr configname Stability2
attr datetime 20130528-01:22:31
attr experiment Stability2
attr inifile omnetpp.ini
attr iterationvars $0=20
attr iterationvars2 "$0=20, $repetition=0"
attr measurement $0=20
attr network Network
attr processid 24168
attr repetition 0
attr replication #0
attr resultdir results
attr runnumber 10
attr seedset 10
vector 330010  Network.churner  inGoingSizeSig:vector  ETV
330010	139877 4162 10 3221 20 22 201 0 185 18961 2358591
vector 300022  Network.dyn_peer[4]  lookupHopsSig:vector  ETV
300022	41607 249 29 10900 20.05 26.902251811245 9 0 14 47 421
vector 300023  Network.dyn_peer[4]  lookupStabilitySig:vector  ETV
300023	41856 367 29 10900 20.05 26.902251811245 9 0.19999998807907 1 6.9804905643687 5.9485903918449
vector 300024  Network.dyn_peer[4]  lookupTimeSig:vector  ETV
300024	42223 263 29 10900 20.05 26.902251811245 9 0 1.5 5.5 5.23
vector 300031  Network.dyn_peer[7]  lookupHopsSig:vector  ETV
300031	43519 188 42 8412 20.08 24.404828342464 7 0 14 37 379
vector 300032  Network.dyn_peer[7]  lookupStabilitySig:vector  ETV
300032	43707 276 42 8412 20.08 24.404828342464 7 0.39999997615814 1 5.0913095744327 4.0055392050728
vector 300033  Network.dyn_peer[7]  lookupTimeSig:vector  ETV
300033	43983 198 42 8412 20.08 24.404828342464 7 0 1.5 4.3 4.59
vector 300010  Network.dyn_peer[0]  lookupHopsSig:vector  ETV
300010	39521 258 54 10496 20.11 26.287101780486 9 1 20 51 589
vector 300011  Network.dyn_peer[0]  lookupStabilitySig:vector  ETV
300011	39779 363 54 10496 20.11 26.287101780486 9 0 0.9836065582931 6.7451450116932 5.7306633545784
vector 300012  Network.dyn_peer[0]  lookupTimeSig:vector  ETV
300012	40142 274 54 10496 20.11 26.287101780486 9 0.1 2.1 5.9 6.97
vector 300040  Network.dyn_peer[10]  lookupHopsSig:vector  ETV
300040	45441 128 60 7251 20.11 23.741703290468 5 0 13 30 282
vector 300041  Network.dyn_peer[10]  lookupStabilitySig:vector  ETV
300041	45569 187 60 7251 20.11 23.741703290468 5 0.19999998807907 1 3.2288461327553 2.4476459507267
vector 300042  Network.dyn_peer[10]  lookupTimeSig:vector  ETV
300042	45756 133 60 7251 20.11 23.741703290468 5 0 1.4 3.4 3.46
vector 300016  Network.dyn_peer[2]  lookupHopsSig:vector  ETV
300016	40884 127 71 4090 20.13 22.345232428403 5 1 6 19 85
vector 300017  Network.dyn_peer[2]  lookupStabilitySig:vector  ETV
300017	41011 203 71 4090 20.13 22.345232428403 5 -0.20000004768372 0.84615384042263 2.9279351532459 2.4985349565087
vector 300018  Network.dyn_peer[2]  lookupTimeSig:vector  ETV
300018	41214 137 71 4090 20.13 22.345232428403 5 0.1 0.7 2.3 1.25
vector 300046  Network.dyn_peer[12]  lookupHopsSig:vector  ETV
300046	46341 126 77 7072 20.13 23.6568263068 5 0 15 31 319
vector 300047  Network.dyn_peer[12]  lookupStabilitySig:vector  ETV
300047	46467 185 77 7072 20.13 23.6568263068 5 -0.20000004768372 1 3.0914707183838 2.9138136499053
vector 300048  Network.dyn_peer[12]  lookupTimeSig:vector  ETV
300048	46652 133 77 7072 20.13 23.6568263068 5 0 1.6 3.5 3.85
vector 300025  Network.dyn_peer[5]  lookupHopsSig:vector  ETV
300025	42486 155 91 6958 20.16 23.596240473146 6 1 9 28 174
vector 300026  Network.dyn_peer[5]  lookupStabilitySig:vector  ETV
300026	42641 245 91 6958 20.16 23.596240473146 6 0.19999998807907 0.85714285075665 4.0144716501236 2.977646563016
vector 300027  Network.dyn_peer[5]  lookupTimeSig:vector  ETV
300027	42886 165 91 6958 20.16 23.596240473146 6 0.1 1 3.3 2.33
vector 300037  Network.dyn_peer[9]  lookupHopsSig:vector  ETV
300037	44548 248 111 10267 20.2 25.996212078626 9 1 13 49 413
vector 300038  Network.dyn_peer[9]  lookupStabilitySig:vector  ETV
300038	44796 381 111 10267 20.2 25.996212078626 9 0.46153843402863 0.97402597405016 7.1670711264014 5.9387084352304
vector 300039  Network.dyn_peer[9]  lookupTimeSig:vector  ETV
300039	45177 264 111 10267 20.2 25.996212078626 9 0.1 1.4 5.7 5.17
vector 300013  Network.dyn_peer[1]  lookupHopsSig:vector  ETV
300013	40416 128 125 9709 20.22 25.38053382729 5 2 26 45 777
vector 300014  Network.dyn_peer[1]  lookupStabilitySig:vector  ETV
300014	40544 203 125 9709 20.22 25.38053382729 5 -0.20000004768372 0.95620438084006 3.0040256679058 2.7056768791079
vector 300015  Network.dyn_peer[1]  lookupTimeSig:vector  ETV
300015	40747 137 125 9709 20.22 25.38053382729 5 0.2 2.7 4.9 8.67
vector 300019  Network.dyn_peer[3]  lookupHopsSig:vector  ETV
300019	41351 69 140 3577 20.24 22.140752298575 3 2 9 19 149
vector 300020  Network.dyn_peer[3]  lookupStabilitySig:vector  ETV
300020	41420 114 140 3577 20.24 22.140752298575 3 0.19999998807907 0.59999999403954 1.3499999940395 0.7025000011921
vector 300021  Network.dyn_peer[3]  lookupTimeSig:vector  ETV
300021	41534 73 140 3577 20.24 22.140752298575 3 0.2 1 2.1 1.85
vector 300028  Network.dyn_peer[6]  lookupHopsSig:vector  ETV
300028	43051 129 159 6497 20.27 23.383441151607 5 1 17 29 339
vector 300029  Network.dyn_peer[6]  lookupStabilitySig:vector  ETV
300029	43180 201 159 6497 20.27 23.383441151607 5 0.14285713434219 0.9333333298564 3.1184981539846 2.2962677834194
vector 300030  Network.dyn_peer[6]  lookupTimeSig:vector  ETV
300030	43381 138 159 6497 20.27 23.383441151607 5 0.2 1.8 3.3 3.97
vector 300094  Network.dyn_peer[28]  lookupHopsSig:vector  ETV
300094	54331 99 175 6745 20.29 23.497374924793 4 0 23 29 549
vector 300095  Network.dyn_peer[28]  lookupStabilitySig:vector  ETV
300095	54430 143 175 6745 20.29 23.497374924793 4 0.19999998807907 1 2.5742689818144 2.0007400369508
vector 300096  Network.dyn_peer[28]  lookupTimeSig:vector  ETV
300096	54573 104 175 6745 20.29 23.497374924793 4 0 2.4 3.2 6.1
vector 300067  Network.dyn_peer[19]  lookupHopsSig:vector  ETV
300067	50397 127 182 7599 20.3 23.927363952053 5 1 15 33 335
vector 300068  Network.dyn_peer[19]  lookupStabilitySig:vector  ETV
300068	50524 201 182 7599 20.3 23.927363952053 5 0.39999997615814 0.89999999850988 3.3499999418855 2.4924999442697
vector 300069  Network.dyn_peer[19]  lookupTimeSig:vector  ETV
300069	50725 136 182 7599 20.3 23.927363952053 5 0.1 1.6 3.7 4.03
vector 300043  Network.dyn_peer[11]  lookupHopsSig:vector  ETV
300043	45889 128 198 8904 20.32 24.744138086168 5 2 26 42 750
vector 300044  Network.dyn_peer[11]  lookupStabilitySig:vector  ETV
300044	46017 187 198 8904 20.32 24.744138086168 5 0 0.84210526943207 2.805741623044 2.0122817692644
vector 300045  Network.dyn_peer[11]  lookupTimeSig:vector  ETV
300045	46204 137 198 8904 20.32 24.744138086168 5 0.2 2.7 4.6 8.34
vector 300049  Network.dyn_peer[13]  lookupHopsSig:vector  ETV
300049	46785 220 215 11024 20.34 27.1072149413 8 2 16 62 646
vector 300050  Network.dyn_peer[13]  lookupStabilitySig:vector  ETV
300050	47005 312 215 11024 20.34 27.1072149413 8 0.19999998807907 0.94578313082457 5.7306047976017 4.5111664556992
vector 300051  Network.dyn_peer[13]  lookupTimeSig:vector  ETV
300051	47317 231 215 11024 20.34 27.1072149413 8 0.2 1.7 6.9 7.73
vector 300052  Network.dyn_peer[14]  lookupHopsSig:vector  ETV
300052	47548 131 226 9239 20.35 24.989411348676 5 2 13 38 366
vector 300053  Network.dyn_peer[14]  lookupStabilitySig:vector  ETV
300053	47679 192 226 9239 20.35 24.989411348676 5 0.25 0.94957983121276 3.3883358202875 2.6024144212596
vector 300054  Network.dyn_peer[14]  lookupTimeSig:vector  ETV
300054	47871 139 226 9239 20.35 24.989411348676 5 0.2 1.4 4.2 4.42
vector 300085  Network.dyn_peer[25]  lookupHopsSig:vector  ETV
300085	52698 219 237 9829 20.36 25.49228400528 8 1 16 44 424
vector 300086  Network.dyn_peer[25]  lookupStabilitySig:vector  ETV
300086	52917 337 237 9829 20.36 25.49228400528 8 0.16666668653488 0.97183098644018 6.1958432458341 5.2861572186314
vector 300087  Network.dyn_peer[25]  lookupTimeSig:vector  ETV
300087	53254 233 237 9829 20.36 25.49228400528 8 0.1 1.7 5.1 5.17
vector 300061  Network.dyn_peer[17]  lookupHopsSig:vector  ETV
300061	49683 99 254 5816 20.38 23.083439619319 4 2 13 26 238
vector 300062  Network.dyn_peer[17]  lookupStabilitySig:vector  ETV
300062	49782 158 254 5816 20.38 23.083439619319 4 0.23529410362244 0.90909090638161 2.5185785591602 1.8411852448968
vector 300063  Network.dyn_peer[17]  lookupTimeSig:vector  ETV
300063	49940 106 254 5816 20.38 23.083439619319 4 0.2 1.4 2.9 2.89
vector 300034  Network.dyn_peer[8]  lookupHopsSig:vector  ETV
300034	44181 101 265 7184 20.39 23.709429984008 4 3 15 33 371
vector 300035  Network.dyn_peer[8]  lookupStabilitySig:vector  ETV
300035	44282 159 265 7184 20.39 23.709429984008 4 0.26666665077209 0.94366197288036 2.2911796718836 1.5851671849639
vector 300036  Network.dyn_peer[8]  lookupTimeSig:vector  ETV
300036	44441 107 265 7184 20.39 23.709429984008 4 0.3 1.6 3.6 4.34
vector 300142  Network.dyn_peer[44]  lookupHopsSig:vector  ETV
300142	61377 160 312 7493 20.45 23.873881412176 6 0 12 29 247
vector 300143  Network.dyn_peer[44]  lookupStabilitySig:vector  ETV
300143	61537 233 312 7493 20.45 23.873881412176 6 0.29411762952805 1 4.8888544663787 4.3251480768228
vector 300144  Network.dyn_peer[44]  lookupTimeSig:vector  ETV
300144	61770 169 312 7493 20.45 23.873881412176 6 0 1.3 3.4 3.1
vector 300115  Network.dyn_peer[35]  lookupHopsSig:vector  ETV
300115	57598 99 322 5760 20.46 23.067417594813 4 1 9 24 180
vector 300116  Network.dyn_peer[35]  lookupStabilitySig:vector  ETV
300116	57697 159 322 5760 20.46 23.067417594813 4 0.30769228935242 0.83333332836628 2.6610256135464 1.947518974608
vector 300117  Network.dyn_peer[35]  lookupTimeSig:vector  ETV
300117	57856 105 322 5760 20.46 23.067417594813 4 0.1 1 2.7 2.29
vector 300091  Network.dyn_peer[27]  lookupHopsSig:vector  ETV
300091	53963 102 342 10108 20.48 25.792178375931 4 2 26 52 986
vector 300092  Network.dyn_peer[27]  lookupStabilitySig:vector  ETV
300092	54065 160 342 10108 20.48 25.792178375931 4 0.43478262424469 0.94039735198021 2.8436010181904 2.1875382192847
vector 300093  Network.dyn_peer[27]  lookupTimeSig:vector  ETV
300093	54225 106 342 10108 20.48 25.792178375931 4 0.2 2.7 5.5 10.89
vector 300097  Network.dyn_peer[29]  lookupHopsSig:vector  ETV
300097	54677 67 364 3731 20.5 22.203364917978 3 2 8 17 117
vector 300098  Network.dyn_peer[29]  lookupStabilitySig:vector  ETV
300098	54744 112 364 3731 20.5 22.203364917978 3 0.38461536169052 0.66666665673256 1.6512820124626 0.95237340049475
vector 300099  Network.dyn_peer[29]  lookupTimeSig:vector  ETV
300099	54856 73 364 3731 20.5 22.203364917978 3 0.2 0.9 1.9 1.49
vector 300100  Network.dyn_peer[30]  lookupHopsSig:vector  ETV
300100	54929 130 376 8739 20.51 24.627215078096 5 2 21 39 533
vector 300101  Network.dyn_peer[30]  lookupStabilitySig:vector  ETV
300101	55059 204 376 8739 20.51 24.627215078096 5 0.38235294818878 0.94999999925494 3.7640989720821 3.0877968149735
vector 300102  Network.dyn_peer[30]  lookupTimeSig:vector  ETV
300102	55263 139 376 8739 20.51 24.627215078096 5 0.2 2.2 4.3 6.11
vector 300130  Network.dyn_peer[40]  lookupHopsSig:vector  ETV
300130	59932 131 380 9568 20.51 25.260619930878 5 1 16 42 564
vector 300131  Network.dyn_peer[40]  lookupStabilitySig:vector  ETV
300131	60063 204 380 9568 20.51 25.260619930878 5 0.27272725105286 0.99242424219847 3.7832898199558 3.1758612326626
vector 300132  Network.dyn_peer[40]  lookupTimeSig:vector  ETV
300132	60267 137 380 9568 20.51 25.260619930878 5 0.1 1.7 4.6 6.5
vector 300073  Network.dyn_peer[21]  lookupHopsSig:vector  ETV
300073	51107 128 394 8754 20.52 24.63471978905 5 3 22 40 576
vector 300074  Network.dyn_peer[21]  lookupStabilitySig:vector  ETV
300074	51235 189 394 8754 20.52 24.63471978905 5 0.39999997615814 0.79245282709599 3.208936303854 2.189352048065
vector 300075  Network.dyn_peer[21]  lookupTimeSig:vector  ETV
300075	51424 137 394 8754 20.52 24.63471978905 5 0.3 2.3 4.4 6.54
vector 300079  Network.dyn_peer[23]  lookupHopsSig:vector  ETV
300079	51824 168 415 8446 20.54 24.426915489112 6 2 9 30 192
vector 300080  Network.dyn_peer[23]  lookupStabilitySig:vector  ETV
300080	51992 244 415 8446 20.54 24.426915489112 6 0.39999997615814 0.9666666649282 4.1215090565383 3.0840267976902
vector 300081  Network.dyn_peer[23]  lookupTimeSig:vector  ETV
300081	52236 178 415 8446 20.54 24.426915489112 6 0.3 1 3.5 2.51
vector 300133  Network.dyn_peer[41]  lookupHopsSig:vector  ETV
300133	60404 70 493 6369 20.62 23.329394427211 3 2 19 27 401
vector 300134  Network.dyn_peer[41]  lookupStabilitySig:vector  ETV
300134	60474 114 493 6369 20.62 23.329394427211 3 0.53846153616905 0.61224490404129 1.7507064342499 1.0247846413055
vector 300135  Network.dyn_peer[41]  lookupTimeSig:vector  ETV
300135	60588 73 493 6369 20.62 23.329394427211 3 0.2 2 2.9 4.53
vector 300109  Network.dyn_peer[33]  lookupHopsSig:vector  ETV
300109	56988 70 515 5001 20.64 22.747133985876 3 3 12 22 202
vector 300110  Network.dyn_peer[33]  lookupStabilitySig:vector  ETV
300110	57058 114 515 5001 20.64 22.747133985876 3 0.39999997615814 0.65714284777641 1.5186812579632 0.8048544293958
vector 300111  Network.dyn_peer[33]  lookupTimeSig:vector  ETV
300111	57172 75 515 5001 20.64 22.747133985876 3 0.3 1.3 2.4 2.42
vector 300058  Network.dyn_peer[16]  lookupHopsSig:vector  ETV
300058	48485 338 550 11457 20.67 27.923749142231 12 1 14 66 506
vector 300059  Network.dyn_peer[16]  lookupStabilitySig:vector  ETV
300059	48823 501 550 11457 20.67 27.923749142231 12 0 0.98076923005283 9.6730468980968 8.699056547798
vector 300060  Network.dyn_peer[16]  lookupTimeSig:vector  ETV
300060	49324 359 550 11457 20.67 27.923749142231 12 0.2 1.5 7.7 6.39
vector 300118  Network.dyn_peer[36]  lookupHopsSig:vector  ETV
300118	57961 70 554 4833 20.67 22.670934427373 3 3 10 21 173
vector 300119  Network.dyn_peer[36]  lookupStabilitySig:vector  ETV
300119	58031 102 554 4833 20.67 22.670934427373 3 0.39999997615814 0.75 1.5617646574974 0.89205013372493
vector 300120  Network.dyn_peer[36]  lookupTimeSig:vector  ETV
300120	58133 75 554 4833 20.67 22.670934427373 3 0.3 1.1 2.3 2.11
vector 300064  Network.dyn_peer[18]  lookupHopsSig:vector  ETV
300064	50046 100 578 6204 20.69 23.254979853496 4 2 10 23 165
vector 300065  Network.dyn_peer[18]  lookupStabilitySig:vector  ETV
300065	50146 144 578 6204 20.69 23.254979853496 4 0 0.79166667163372 2.2202380746603 1.6471442457483
vector 300066  Network.dyn_peer[18]  lookupTimeSig:vector  ETV
300066	50290 107 578 6204 20.69 23.254979853496 4 0.3 1.1 2.6 2.04
vector 300136  Network.dyn_peer[42]  lookupHopsSig:vector  ETV
300136	60661 70 628 6638 20.73 23.445592415912 3 2 23 28 542
vector 300137  Network.dyn_peer[42]  lookupStabilitySig:vector  ETV
300137	60731 102 628 6638 20.73 23.445592415912 3 0.39999997615814 0.75 1.7318181693554 1.0610123908618
vector 300138  Network.dyn_peer[42]  lookupTimeSig:vector  ETV
300138	60833 75 628 6638 20.73 23.445592415912 3 0.3 2.4 3 5.94
vector 300205  Network.dyn_peer[65]  lookupHopsSig:vector  ETV
300205	71591 70 661 4579 20.76 22.567605578254 3 1 12 17 161
vector 300206  Network.dyn_peer[65]  lookupStabilitySig:vector  ETV
300206	71661 114 661 4579 20.76 22.567605578254 3 0.36842107772827 0.86666665971279 2.0350877344608 1.5268451848038
vector 300207  Network.dyn_peer[65]  lookupTimeSig:vector  ETV
300207	71775 75 661 4579 20.76 22.567605578254 3 0.1 1.3 1.9 1.95
vector 300121  Network.dyn_peer[37]  lookupHopsSig:vector  ETV
300121	58208 130 686 9362 20.78 25.086378273522 5 4 15 43 459
vector 300122  Network.dyn_peer[37]  lookupStabilitySig:vector  ETV
300122	58338 202 686 9362 20.78 25.086378273522 5 0.19999998807907 0.9473684206605 3.2393311485648 2.4930488380027
vector 300123  Network.dyn_peer[37]  lookupTimeSig:vector  ETV
300123	58540 136 686 9362 20.78 25.086378273522 5 0.4 1.6 4.7 5.41
vector 300226  Network.dyn_peer[72]  lookupHopsSig:vector  ETV
300226	75019 100 754 7806 20.83 24.045913394444 4 1 12 30 302
vector 300227  Network.dyn_peer[72]  lookupStabilitySig:vector  ETV
300227	75119 158 754 7806 20.83 24.045913394444 4 0.39999997615814 0.86746987700462 2.9095751196146 2.2616452484738
vector 300228  Network.dyn_peer[72]  lookupTimeSig:vector  ETV
300228	75277 106 754 7806 20.83 24.045913394444 4 0.1 1.3 3.3 3.63
vector 300139  Network.dyn_peer[43]  lookupHopsSig:vector  ETV
300139	60908 128 771 7242 20.84 23.739138106712 5 2 8 27 169
vector 300140  Network.dyn_peer[43]  lookupStabilitySig:vector  ETV
300140	61036 203 771 7242 20.84 23.739138106712 5 0.19999998807907 0.90277777612209 3.3818600922823 2.5949729310468
vector 300141  Network.dyn_peer[43]  lookupTimeSig:vector  ETV
300141	61239 138 771 7242 20.84 23.739138106712 5 0.3 0.9 3.1 2.19
vector 300235  Network.dyn_peer[75]  lookupHopsSig:vector  ETV
300235	76121 101 801 9278 20.86 25.024401860961 4 1 15 36 428
vector 300236  Network.dyn_peer[75]  lookupStabilitySig:vector  ETV
300236	76222 159 801 9278 20.86 25.024401860961 4 0.42105263471603 0.87394957244396 2.8856998831034 2.2062759910631
vector 300237  Network.dyn_peer[75]  lookupTimeSig:vector  ETV
300237	76381 105 801 9278 20.86 25.024401860961 4 0.1 1.6 3.9 5.01
vector 300088  Network.dyn_peer[26]  lookupHopsSig:vector  ETV
300088	53487 132 818 9719 20.87 25.387761332997 5 2 15 47 561
vector 300089  Network.dyn_peer[26]  lookupStabilitySig:vector  ETV
300089	53619 205 818 9719 20.87 25.387761332997 5 -0.20000004768372 0.97894736751914 3.0158737562597 2.7749308927103
vector 300090  Network.dyn_peer[26]  lookupTimeSig:vector  ETV
300090	53824 139 818 9719 20.87 25.387761332997 5 0.3 1.6 5.1 6.47
vector 300082  Network.dyn_peer[24]  lookupHopsSig:vector  ETV
300082	52414 79 933 7095 20.95 23.66464636607 3 6 19 32 446
vector 300083  Network.dyn_peer[24]  lookupStabilitySig:vector  ETV
300083	52493 123 933 7095 20.95 23.66464636607 3 -0.16666662693024 0.7205882370472 1.1539216041565 0.90702516475054
vector 300084  Network.dyn_peer[24]  lookupTimeSig:vector  ETV
300084	52616 82 933 7095 20.95 23.66464636607 3 0.7 2 3.4 4.98
vector 300112  Network.dyn_peer[34]  lookupHopsSig:vector  ETV
300112	57247 100 937 7286 20.95 23.764882445332 4 6 11 31 257
vector 300113  Network.dyn_peer[34]  lookupStabilitySig:vector  ETV
300113	57347 144 937 7286 20.95 23.764882445332 4 0 0.88888888806105 2.2071846053004 1.7260220827066
vector 300114  Network.dyn_peer[34]  lookupTimeSig:vector  ETV
300114	57491 107 937 7286 20.95 23.764882445332 4 0.6 1.2 3.4 3.1
vector 300055  Network.dyn_peer[15]  lookupHopsSig:vector  ETV
300055	48010 131 954 9334 20.96 25.072684812127 5 5 14 45 465
vector 300056  Network.dyn_peer[15]  lookupStabilitySig:vector  ETV
300056	48141 205 954 9334 20.96 25.072684812127 5 -0.33333337306976 0.92063491791487 2.8377529159188 2.7270382262468
vector 300057  Network.dyn_peer[15]  lookupTimeSig:vector  ETV
300057	48346 139 954 9334 20.96 25.072684812127 5 0.6 1.5 4.9 5.43
vector 300127  Network.dyn_peer[39]  lookupHopsSig:vector  ETV
300127	59045 251 1017 11587 21 28.293293486613 9 1 13 68 652
vector 300128  Network.dyn_peer[39]  lookupStabilitySig:vector  ETV
300128	59296 370 1017 11587 21 28.293293486613 9 0.25 0.99404761893675 7.2794587495737 6.3585970033134
vector 300129  Network.dyn_peer[39]  lookupTimeSig:vector  ETV
300129	59666 266 1017 11587 21 28.293293486613 9 0.2 1.4 7.6 7.84
vector 300157  Network.dyn_peer[49]  lookupHopsSig:vector  ETV
300157	65254 155 1021 8703 21 24.599127572381 6 2 6 21 87
vector 300158  Network.dyn_peer[49]  lookupStabilitySig:vector  ETV
300158	65409 214 1021 8703 21 24.599127572381 6 0.375 0.98095238022506 4.8899857830256 4.2470480652545
vector 300159  Network.dyn_peer[49]  lookupTimeSig:vector  ETV
300159	65623 167 1021 8703 21 24.599127572381 6 0.3 0.7 2.6 1.24
vector 300277  Network.dyn_peer[89]  lookupHopsSig:vector  ETV
300277	83458 98 1025 10590 21 26.4152968971 4 1 24 52 954
vector 300278  Network.dyn_peer[89]  lookupStabilitySig:vector  ETV
300278	83556 142 1025 10590 21 26.4152968971 4 0.5294117629528 0.875 3.1105198711157 2.5013743529886
vector 300279  Network.dyn_peer[89]  lookupTimeSig:vector  ETV
300279	83698 103 1025 10590 21 26.4152968971 4 0.1 2.5 5.5 10.59
vector 300070  Network.dyn_peer[20]  lookupHopsSig:vector  ETV
300070	50861 71 1041 6106 21.01 23.213580283236 3 6 14 28 296
vector 300071  Network.dyn_peer[20]  lookupStabilitySig:vector  ETV
300071	50932 99 1041 6106 21.01 23.213580283236 3 0 0.7021276652813 1.3491864800453 0.91166836811719
vector 300072  Network.dyn_peer[20]  lookupTimeSig:vector  ETV
300072	51031 76 1041 6106 21.01 23.213580283236 3 0.7 1.5 3 3.38
vector 300106  Network.dyn_peer[32]  lookupHopsSig:vector  ETV
300106	56317 193 1072 10228 21.03 25.940980363395 7 2 12 50 438
vector 300107  Network.dyn_peer[32]  lookupStabilitySig:vector  ETV
300107	56510 274 1072 10228 21.03 25.940980363395 7 0.125 0.97037037089467 5.2943452224135 4.6174191271281
vector 300108  Network.dyn_peer[32]  lookupTimeSig:vector  ETV
300108	56784 204 1072 10228 21.03 25.940980363395 7 0.3 1.3 5.6 5.3
vector 300175  Network.dyn_peer[55]  lookupHopsSig:vector  ETV
300175	67828 131 1124 10087 21.06 25.773349133281 5 5 22 48 664
vector 300176  Network.dyn_peer[55]  lookupStabilitySig:vector  ETV
300176	67959 205 1124 10087 21.06 25.773349133281 5 0.44444441795349 0.95798319205642 3.657586928457 2.9025314605497
vector 300177  Network.dyn_peer[55]  lookupTimeSig:vector  ETV
300177	68164 138 1124 10087 21.06 25.773349133281 5 0.5 2.3 5.2 7.54
vector 300148  Network.dyn_peer[46]  lookupHopsSig:vector  ETV
300148	62640 440 1141 12040 21.07 31.834058209409 15 2 14 94 834
vector 300149  Network.dyn_peer[46]  lookupStabilitySig:vector  ETV
300149	63080 661 1141 12040 21.07 31.834058209409 15 0.33333331346512 0.98795180767775 13.213812700473 12.139040451472
vector 300150  Network.dyn_peer[46]  lookupTimeSig:vector  ETV
300150	63741 465 1141 12040 21.07 31.834058209409 15 0.3 1.5 10.8 10.24
vector 300124  Network.dyn_peer[38]  lookupHopsSig:vector  ETV
300124	58676 101 1172 7551 21.09 23.900584152293 4 4 15 32 326
vector 300125  Network.dyn_peer[38]  lookupStabilitySig:vector  ETV
300125	58777 160 1172 7551 21.09 23.900584152293 4 0.22222220897675 0.84000000357628 2.5169733315706 1.8260346842849
vector 300126  Network.dyn_peer[38]  lookupTimeSig:vector  ETV
300126	58937 108 1172 7551 21.09 23.900584152293 4 0.5 1.6 3.5 3.79
vector 300307  Network.dyn_peer[99]  lookupHopsSig:vector  ETV
300307	87131 190 1191 10465 21.1 26.241183262549 7 1 17 42 446
vector 300308  Network.dyn_peer[99]  lookupStabilitySig:vector  ETV
300308	87321 287 1191 10465 21.1 26.241183262549 7 0.76923076808453 0.99280575523153 6.218862707261 5.5613817478742
vector 300309  Network.dyn_peer[99]  lookupTimeSig:vector  ETV
300309	87608 201 1191 10465 21.1 26.241183262549 7 0.1 1.8 4.8 5.34
vector 300160  Network.dyn_peer[50]  lookupHopsSig:vector  ETV
300160	65790 71 1209 6774 21.11 23.513627984994 3 6 13 28 286
vector 300161  Network.dyn_peer[50]  lookupStabilitySig:vector  ETV
300161	65861 114 1209 6774 21.11 23.513627984994 3 0.33333331346512 0.84745763242245 1.7325150817633 1.1336950587245
vector 300162  Network.dyn_peer[50]  lookupTimeSig:vector  ETV
300162	65975 74 1209 6774 21.11 23.513627984994 3 0.6 1.4 3 3.32
vector 300223  Network.dyn_peer[71]  lookupHopsSig:vector  ETV
300223	74865 41 1230 4255 21.12 22.42 2 4 12 16 160
vector 300224  Network.dyn_peer[71]  lookupStabilitySig:vector  ETV
300224	74906 69 1230 4255 21.12 22.42 2 0.5714285671711 0.59999999403954 1.1714285612106 0.68653060022666
vector 300225  Network.dyn_peer[71]  lookupTimeSig:vector  ETV
300225	74975 44 1230 4255 21.12 22.42 2 0.4 1.3 1.7 1.85
vector 300283  Network.dyn_peer[91]  lookupHopsSig:vector  ETV
300283	84062 102 1234 9020 21.12 24.827619814523 4 2 15 36 414
vector 300284  Network.dyn_peer[91]  lookupStabilitySig:vector  ETV
300284	84164 160 1234 9020 21.12 24.827619814523 4 0.56000000238419 0.86842104792595 3.0617543756962 2.4021995505488
vector 300285  Network.dyn_peer[91]  lookupTimeSig:vector  ETV
300285	84324 108 1234 9020 21.12 24.827619814523 4 0.2 1.6 3.9 4.85
vector 300286  Network.dyn_peer[92]  lookupHopsSig:vector  ETV
300286	84432 72 1251 6616 21.13 23.431643462504 3 2 11 23 225
vector 300287  Network.dyn_peer[92]  lookupStabilitySig:vector  ETV
300287	84504 115 1251 6616 21.13 23.431643462504 3 0.56000000238419 0.81481482088566 2.1748148202896 1.6175231902369
vector 300288  Network.dyn_peer[92]  lookupTimeSig:vector  ETV
300288	84619 76 1251 6616 21.13 23.431643462504 3 0.2 1.2 2.5 2.69
vector 300328  Network.dyn_peer[106]  lookupHopsSig:vector  ETV
300328	91955 101 1323 8056 21.17 24.181484913072 4 1 15 28 298
vector 300329  Network.dyn_peer[106]  lookupStabilitySig:vector  ETV
300329	92056 160 1323 8056 21.17 24.181484913072 4 0.68421053886414 0.91666666418314 3.2442853376269 2.6592822574964
vector 300330  Network.dyn_peer[106]  lookupTimeSig:vector  ETV
300330	92216 108 1323 8056 21.17 24.181484913072 4 0.1 1.6 3.1 3.55
vector 300154  Network.dyn_peer[48]  lookupHopsSig:vector  ETV
300154	64903 99 1356 7559 21.19 23.9043753804 4 2 18 31 393
vector 300155  Network.dyn_peer[48]  lookupStabilitySig:vector  ETV
300155	65002 146 1356 7559 21.19 23.9043753804 4 0.41666668653488 0.97435897402465 2.8553113620728 2.1956906013167
vector 300156  Network.dyn_peer[48]  lookupTimeSig:vector  ETV
300156	65148 106 1356 7559 21.19 23.9043753804 4 0.3 1.9 3.4 4.44
vector 300304  Network.dyn_peer[98]  lookupHopsSig:vector  ETV
300304	86977 40 1360 3460 21.19 22.09 2 2 8 10 68
vector 300305  Network.dyn_peer[98]  lookupStabilitySig:vector  ETV
300305	87017 70 1360 3460 21.19 22.09 2 0.57894736528397 0.83333332836628 1.4122806936503 1.0296244879353
vector 300306  Network.dyn_peer[98]  lookupTimeSig:vector  ETV
300306	87087 44 1360 3460 21.19 22.09 2 0.2 0.9 1.1 0.85
vector 300187  Network.dyn_peer[59]  lookupHopsSig:vector  ETV
300187	69198 191 1379 10914 21.2 26.918389028593 7 4 18 57 601
vector 300188  Network.dyn_peer[59]  lookupStabilitySig:vector  ETV
300188	69389 281 1379 10914 21.2 26.918389028593 7 0.5 0.97402597405016 5.8255434241146 5.0791848182463
vector 300189  Network.dyn_peer[59]  lookupTimeSig:vector  ETV
300189	69670 202 1379 10914 21.2 26.918389028593 7 0.5 1.9 6.3 7.09
vector 300220  Network.dyn_peer[70]  lookupHopsSig:vector  ETV
300220	74498 101 1398 9946 21.21 25.617461730042 4 5 25 46 786
vector 300221  Network.dyn_peer[70]  lookupStabilitySig:vector  ETV
300221	74599 159 1398 9946 21.21 25.617461730042 4 0.58333334326744 0.95833333209157 2.9261494316161 2.2340937618292
vector 300222  Network.dyn_peer[70]  lookupTimeSig:vector  ETV
300222	74758 107 1398 9946 21.21 25.617461730042 4 0.5 2.6 4.9 8.71
vector 300229  Network.dyn_peer[73]  lookupHopsSig:vector  ETV
300229	75383 100 1442 6643 21.24 23.447676562512 4 4 8 24 154
vector 300230  Network.dyn_peer[73]  lookupStabilitySig:vector  ETV
300230	75483 160 1442 6643 21.24 23.447676562512 4 0.58333334326744 0.92857142537832 2.9324175789952 2.235763955973
vector 300231  Network.dyn_peer[73]  lookupTimeSig:vector  ETV
300231	75643 108 1442 6643 21.24 23.447676562512 4 0.5 0.9 2.7 1.95
vector 300262  Network.dyn_peer[84]  lookupHopsSig:vector  ETV
300262	80743 255 1464 11686 21.25 28.603751582344 9 3 15 65 589
vector 300263  Network.dyn_peer[84]  lookupStabilitySig:vector  ETV
300263	80998 377 1464 11686 21.25 28.603751582344 9 0.625 0.98387096822262 7.8636079058051 7.0154385250772
vector 300264  Network.dyn_peer[84]  lookupTimeSig:vector  ETV
300264	81375 266 1464 11686 21.25 28.603751582344 9 0.4 1.6 7.3 7.19
vector 300295  Network.dyn_peer[95]  lookupHopsSig:vector  ETV
300295	85327 100 1483 5308 21.26 22.873794022157 4 2 7 16 78
vector 300296  Network.dyn_peer[95]  lookupStabilitySig:vector  ETV
300296	85427 159 1483 5308 21.26 22.873794022157 4 0.7647058814764 0.89473684132099 3.2444629669189 2.6425575441623
vector 300297  Network.dyn_peer[95]  lookupTimeSig:vector  ETV
300297	85586 108 1483 5308 21.26 22.873794022157 4 0.3 0.8 1.9 1.07
vector 300178  Network.dyn_peer[56]  lookupHopsSig:vector  ETV
300178	68302 102 1503 7331 21.27 23.782006505224 4 1 11 29 271
vector 300179  Network.dyn_peer[56]  lookupStabilitySig:vector  ETV
300179	68404 160 1503 7331 21.27 23.782006505224 4 0.46153843402863 0.98648648615927 2.9099844163284 2.2791639045541
vector 300180  Network.dyn_peer[56]  lookupTimeSig:vector  ETV
300180	68564 108 1503 7331 21.27 23.782006505224 4 0.2 1.2 3.2 3.18
vector 300208  Network.dyn_peer[66]  lookupHopsSig:vector  ETV
300208	71850 161 1507 9761 21.27 25.425802334412 6 1 15 39 377
vector 300209  Network.dyn_peer[66]  lookupStabilitySig:vector  ETV
300209	72011 242 1507 9761 21.27 25.425802334412 6 0.53846153616905 0.98666666634381 4.9083203021437 4.1408394500811
vector 300210  Network.dyn_peer[66]  lookupTimeSig:vector  ETV
300210	72253 170 1507 9761 21.27 25.425802334412 6 0.2 1.6 4.4 4.48
vector 300334  Network.dyn_peer[108]  lookupHopsSig:vector  ETV
300334	93010 287 1543 11661 21.29 28.529879006555 10 2 17 65 617
vector 300335  Network.dyn_peer[108]  lookupStabilitySig:vector  ETV
300335	93297 435 1543 11661 21.29 28.529879006555 10 0.61904761195183 0.98802395164967 8.9626957848668 8.1479004536037
vector 300336  Network.dyn_peer[108]  lookupTimeSig:vector  ETV
300336	93732 305 1543 11661 21.29 28.529879006555 10 0.2 1.8 7.4 7.52
vector 300247  Network.dyn_peer[79]  lookupHopsSig:vector  ETV
300247	78126 218 1566 9159 21.3 24.931894469614 8 2 12 34 226
vector 300248  Network.dyn_peer[79]  lookupStabilitySig:vector  ETV
300248	78344 336 1566 9159 21.3 24.931894469614 8 0.61290323734283 0.98290598206222 6.9828389082104 6.2789282115487
vector 300249  Network.dyn_peer[79]  lookupTimeSig:vector  ETV
300249	78680 233 1566 9159 21.3 24.931894469614 8 0.3 1.3 4.1 2.91
vector 300163  Network.dyn_peer[51]  lookupHopsSig:vector  ETV
300163	66049 70 1604 3781 21.32 22.223427722915 3 2 8 15 93
vector 300164  Network.dyn_peer[51]  lookupStabilitySig:vector  ETV
300164	66119 114 1604 3781 21.32 22.223427722915 3 0.38461536169052 0.91304347664118 2.0345009341836 1.5245136409048
vector 300165  Network.dyn_peer[51]  lookupTimeSig:vector  ETV
300165	66233 76 1604 3781 21.32 22.223427722915 3 0.3 0.8 1.7 1.09