version 2
run Stability2-17-20130528-01:23:11-24168
attr configname Stability2
attr datetime 20130528-01:23:11
attr experiment Stability2
attr inifile omnetpp.ini
attr iterationvars $0=20
attr iterationvars2 "$0=20, $repetition=7"
attr measurement $0=20
attr network Network
attr processid 24168
attr repetition 7
attr replication #7
attr resultdir results
attr runnumber 17
attr seedset 17

vector 540017  Network.churner  inGoingSizeSig:vector  ETV
vector 510017  Network.dyn_peer[0]  lookupHopsSig:vector  ETV
vector 510018  Network.dyn_peer[0]  lookupStabilitySig:vector  ETV
vector 510019  Network.dyn_peer[0]  lookupTimeSig:vector  ETV
vector 510026  Network.dyn_peer[3]  lookupHopsSig:vector  ETV
vector 510027  Network.dyn_peer[3]  lookupStabilitySig:vector  ETV
vector 510028  Network.dyn_peer[3]  lookupTimeSig:vector  ETV
vector 510029  Network.dyn_peer[4]  lookupHopsSig:vector  ETV
vector 510030  Network.dyn_peer[4]  lookupStabilitySig:vector  ETV
vector 510031  Network.dyn_peer[4]  lookupTimeSig:vector  ETV
vector 510041  Network.dyn_peer[8]  lookupHopsSig:vector  ETV
vector 510042  Network.dyn_peer[8]  lookupStabilitySig:vector  ETV
vector 510043  Network.dyn_peer[8]  lookupTimeSig:vector  ETV
vector 510053  Network.dyn_peer[12]  lookupHopsSig:vector  ETV
vector 510054  Network.dyn_peer[12]  lookupStabilitySig:vector  ETV
vector 510055  Network.dyn_peer[12]  lookupTimeSig:vector  ETV
vector 510083  Network.dyn_peer[22]  lookupHopsSig:vector  ETV
vector 510084  Network.dyn_peer[22]  lookupStabilitySig:vector  ETV
vector 510085  Network.dyn_peer[22]  lookupTimeSig:vector  ETV
vector 510059  Network.dyn_peer[14]  lookupHopsSig:vector  ETV
vector 510060  Network.dyn_peer[14]  lookupStabilitySig:vector  ETV
vector 510061  Network.dyn_peer[14]  lookupTimeSig:vector  ETV
vector 510032  Network.dyn_peer[5]  lookupHopsSig:vector  ETV
vector 510033  Network.dyn_peer[5]  lookupStabilitySig:vector  ETV
vector 510034  Network.dyn_peer[5]  lookupTimeSig:vector  ETV
vector 510092  Network.dyn_peer[25]  lookupHopsSig:vector  ETV
vector 510093  Network.dyn_peer[25]  lookupStabilitySig:vector  ETV
vector 510094  Network.dyn_peer[25]  lookupTimeSig:vector  ETV
vector 510035  Network.dyn_peer[6]  lookupHopsSig:vector  ETV
vector 510036  Network.dyn_peer[6]  lookupStabilitySig:vector  ETV
vector 510037  Network.dyn_peer[6]  lookupTimeSig:vector  ETV
vector 510071  Network.dyn_peer[18]  lookupHopsSig:vector  ETV
vector 510072  Network.dyn_peer[18]  lookupStabilitySig:vector  ETV
vector 510073  Network.dyn_peer[18]  lookupTimeSig:vector  ETV
vector 510044  Network.dyn_peer[9]  lookupHopsSig:vector  ETV
vector 510045  Network.dyn_peer[9]  lookupStabilitySig:vector  ETV
vector 510046  Network.dyn_peer[9]  lookupTimeSig:vector  ETV
vector 510047  Network.dyn_peer[10]  lookupHopsSig:vector  ETV
vector 510048  Network.dyn_peer[10]  lookupStabilitySig:vector  ETV
vector 510049  Network.dyn_peer[10]  lookupTimeSig:vector  ETV
vector 510050  Network.dyn_peer[11]  lookupHopsSig:vector  ETV
vector 510051  Network.dyn_peer[11]  lookupStabilitySig:vector  ETV
vector 510052  Network.dyn_peer[11]  lookupTimeSig:vector  ETV
vector 510023  Network.dyn_peer[2]  lookupHopsSig:vector  ETV
vector 510024  Network.dyn_peer[2]  lookupStabilitySig:vector  ETV
vector 510025  Network.dyn_peer[2]  lookupTimeSig:vector  ETV
vector 510062  Network.dyn_peer[15]  lookupHopsSig:vector  ETV
vector 510063  Network.dyn_peer[15]  lookupStabilitySig:vector  ETV
vector 510064  Network.dyn_peer[15]  lookupTimeSig:vector  ETV
vector 510065  Network.dyn_peer[16]  lookupHopsSig:vector  ETV
vector 510066  Network.dyn_peer[16]  lookupStabilitySig:vector  ETV
vector 510067  Network.dyn_peer[16]  lookupTimeSig:vector  ETV
vector 510038  Network.dyn_peer[7]  lookupHopsSig:vector  ETV
vector 510039  Network.dyn_peer[7]  lookupStabilitySig:vector  ETV
vector 510040  Network.dyn_peer[7]  lookupTimeSig:vector  ETV
vector 510128  Network.dyn_peer[37]  lookupHopsSig:vector  ETV
vector 510129  Network.dyn_peer[37]  lookupStabilitySig:vector  ETV
vector 510130  Network.dyn_peer[37]  lookupTimeSig:vector  ETV
vector 510074  Network.dyn_peer[19]  lookupHopsSig:vector  ETV
vector 510075  Network.dyn_peer[19]  lookupStabilitySig:vector  ETV
vector 510076  Network.dyn_peer[19]  lookupTimeSig:vector  ETV
vector 510077  Network.dyn_peer[20]  lookupHopsSig:vector  ETV
vector 510078  Network.dyn_peer[20]  lookupStabilitySig:vector  ETV
vector 510079  Network.dyn_peer[20]  lookupTimeSig:vector  ETV
vector 510020  Network.dyn_peer[1]  lookupHopsSig:vector  ETV
vector 510021  Network.dyn_peer[1]  lookupStabilitySig:vector  ETV
vector 510022  Network.dyn_peer[1]  lookupTimeSig:vector  ETV
vector 510080  Network.dyn_peer[21]  lookupHopsSig:vector  ETV
vector 510081  Network.dyn_peer[21]  lookupStabilitySig:vector  ETV
vector 510082  Network.dyn_peer[21]  lookupTimeSig:vector  ETV
vector 510089  Network.dyn_peer[24]  lookupHopsSig:vector  ETV
vector 510090  Network.dyn_peer[24]  lookupStabilitySig:vector  ETV
vector 510091  Network.dyn_peer[24]  lookupTimeSig:vector  ETV
vector 510095  Network.dyn_peer[26]  lookupHopsSig:vector  ETV
vector 510096  Network.dyn_peer[26]  lookupStabilitySig:vector  ETV
vector 510097  Network.dyn_peer[26]  lookupTimeSig:vector  ETV
vector 510104  Network.dyn_peer[29]  lookupHopsSig:vector  ETV
vector 510105  Network.dyn_peer[29]  lookupStabilitySig:vector  ETV
vector 510106  Network.dyn_peer[29]  lookupTimeSig:vector  ETV
vector 510137  Network.dyn_peer[40]  lookupHopsSig:vector  ETV
vector 510138  Network.dyn_peer[40]  lookupStabilitySig:vector  ETV
vector 510139  Network.dyn_peer[40]  lookupTimeSig:vector  ETV
vector 510056  Network.dyn_peer[13]  lookupHopsSig:vector  ETV
vector 510057  Network.dyn_peer[13]  lookupStabilitySig:vector  ETV
vector 510058  Network.dyn_peer[13]  lookupTimeSig:vector  ETV
vector 510068  Network.dyn_peer[17]  lookupHopsSig:vector  ETV
vector 510069  Network.dyn_peer[17]  lookupStabilitySig:vector  ETV
vector 510070  Network.dyn_peer[17]  lookupTimeSig:vector  ETV
vector 510101  Network.dyn_peer[28]  lookupHopsSig:vector  ETV
vector 510102  Network.dyn_peer[28]  lookupStabilitySig:vector  ETV
vector 510103  Network.dyn_peer[28]  lookupTimeSig:vector  ETV
vector 510164  Network.dyn_peer[49]  lookupHopsSig:vector  ETV
vector 510165  Network.dyn_peer[49]  lookupStabilitySig:vector  ETV
vector 510166  Network.dyn_peer[49]  lookupTimeSig:vector  ETV
vector 510086  Network.dyn_peer[23]  lookupHopsSig:vector  ETV
vector 510087  Network.dyn_peer[23]  lookupStabilitySig:vector  ETV
vector 510088  Network.dyn_peer[23]  lookupTimeSig:vector  ETV
vector 510173  Network.dyn_peer[52]  lookupHopsSig:vector  ETV
vector 510174  Network.dyn_peer[52]  lookupStabilitySig:vector  ETV
vector 510175  Network.dyn_peer[52]  lookupTimeSig:vector  ETV
vector 510176  Network.dyn_peer[53]  lookupHopsSig:vector  ETV
vector 510177  Network.dyn_peer[53]  lookupStabilitySig:vector  ETV
vector 510178  Network.dyn_peer[53]  lookupTimeSig:vector  ETV
vector 510224  Network.dyn_peer[69]  lookupHopsSig:vector  ETV
vector 510225  Network.dyn_peer[69]  lookupStabilitySig:vector  ETV
vector 510226  Network.dyn_peer[69]  lookupTimeSig:vector  ETV
vector 510107  Network.dyn_peer[30]  lookupHopsSig:vector  ETV
vector 510108  Network.dyn_peer[30]  lookupStabilitySig:vector  ETV
vector 510109  Network.dyn_peer[30]  lookupTimeSig:vector  ETV
vector 510200  Network.dyn_peer[61]  lookupHopsSig:vector  ETV
vector 510201  Network.dyn_peer[61]  lookupStabilitySig:vector  ETV
vector 510202  Network.dyn_peer[61]  lookupTimeSig:vector  ETV
vector 510116  Network.dyn_peer[33]  lookupHopsSig:vector  ETV
vector 510117  Network.dyn_peer[33]  lookupStabilitySig:vector  ETV
vector 510118  Network.dyn_peer[33]  lookupTimeSig:vector  ETV
vector 510266  Network.dyn_peer[83]  lookupHopsSig:vector  ETV
vector 510267  Network.dyn_peer[83]  lookupStabilitySig:vector  ETV
vector 510268  Network.dyn_peer[83]  lookupTimeSig:vector  ETV
vector 510155  Network.dyn_peer[46]  lookupHopsSig:vector  ETV
vector 510156  Network.dyn_peer[46]  lookupStabilitySig:vector  ETV
vector 510157  Network.dyn_peer[46]  lookupTimeSig:vector  ETV
vector 510158  Network.dyn_peer[47]  lookupHopsSig:vector  ETV
vector 510159  Network.dyn_peer[47]  lookupStabilitySig:vector  ETV
vector 510160  Network.dyn_peer[47]  lookupTimeSig:vector  ETV
vector 510161  Network.dyn_peer[48]  lookupHopsSig:vector  ETV
vector 510162  Network.dyn_peer[48]  lookupStabilitySig:vector  ETV
vector 510163  Network.dyn_peer[48]  lookupTimeSig:vector  ETV
vector 510254  Network.dyn_peer[79]  lookupHopsSig:vector  ETV
vector 510255  Network.dyn_peer[79]  lookupStabilitySig:vector  ETV
vector 510256  Network.dyn_peer[79]  lookupTimeSig:vector  ETV
vector 510143  Network.dyn_peer[42]  lookupHopsSig:vector  ETV
vector 510144  Network.dyn_peer[42]  lookupStabilitySig:vector  ETV
vector 510145  Network.dyn_peer[42]  lookupTimeSig:vector  ETV
vector 510119  Network.dyn_peer[34]  lookupHopsSig:vector  ETV
vector 510120  Network.dyn_peer[34]  lookupStabilitySig:vector  ETV
vector 510121  Network.dyn_peer[34]  lookupTimeSig:vector  ETV
vector 510269  Network.dyn_peer[84]  lookupHopsSig:vector  ETV
vector 510270  Network.dyn_peer[84]  lookupStabilitySig:vector  ETV
vector 510271  Network.dyn_peer[84]  lookupTimeSig:vector  ETV
vector 510299  Network.dyn_peer[94]  lookupHopsSig:vector  ETV
vector 510300  Network.dyn_peer[94]  lookupStabilitySig:vector  ETV
vector 510301  Network.dyn_peer[94]  lookupTimeSig:vector  ETV
vector 510242  Network.dyn_peer[75]  lookupHopsSig:vector  ETV
vector 510243  Network.dyn_peer[75]  lookupStabilitySig:vector  ETV
vector 510244  Network.dyn_peer[75]  lookupTimeSig:vector  ETV
vector 510110  Network.dyn_peer[31]  lookupHopsSig:vector  ETV
vector 510111  Network.dyn_peer[31]  lookupStabilitySig:vector  ETV
vector 510112  Network.dyn_peer[31]  lookupTimeSig:vector  ETV
vector 510113  Network.dyn_peer[32]  lookupHopsSig:vector  ETV
vector 510114  Network.dyn_peer[32]  lookupStabilitySig:vector  ETV
vector 510115  Network.dyn_peer[32]  lookupTimeSig:vector  ETV
vector 510146  Network.dyn_peer[43]  lookupHopsSig:vector  ETV
vector 510147  Network.dyn_peer[43]  lookupStabilitySig:vector  ETV
vector 510148  Network.dyn_peer[43]  lookupTimeSig:vector  ETV
vector 510236  Network.dyn_peer[73]  lookupHopsSig:vector  ETV
vector 510237  Network.dyn_peer[73]  lookupStabilitySig:vector  ETV
vector 510238  Network.dyn_peer[73]  lookupTimeSig:vector  ETV
vector 510296  Network.dyn_peer[93]  lookupHopsSig:vector  ETV
vector 510297  Network.dyn_peer[93]  lookupStabilitySig:vector  ETV
vector 510298  Network.dyn_peer[93]  lookupTimeSig:vector  ETV
vector 510305  Network.dyn_peer[96]  lookupHopsSig:vector  ETV
vector 510306  Network.dyn_peer[96]  lookupStabilitySig:vector  ETV
vector 510307  Network.dyn_peer[96]  lookupTimeSig:vector  ETV
vector 510098  Network.dyn_peer[27]  lookupHopsSig:vector  ETV
vector 510099  Network.dyn_peer[27]  lookupStabilitySig:vector  ETV
vector 510100  Network.dyn_peer[27]  lookupTimeSig:vector  ETV
vector 510287  Network.dyn_peer[90]  lookupHopsSig:vector  ETV
vector 510288  Network.dyn_peer[90]  lookupStabilitySig:vector  ETV
vector 510289  Network.dyn_peer[90]  lookupTimeSig:vector  ETV
vector 510239  Network.dyn_peer[74]  lookupHopsSig:vector  ETV
vector 510240  Network.dyn_peer[74]  lookupStabilitySig:vector  ETV
vector 510241  Network.dyn_peer[74]  lookupTimeSig:vector  ETV
vector 510125  Network.dyn_peer[36]  lookupHopsSig:vector  ETV
vector 510126  Network.dyn_peer[36]  lookupStabilitySig:vector  ETV
vector 510127  Network.dyn_peer[36]  lookupTimeSig:vector  ETV
vector 510290  Network.dyn_peer[91]  lookupHopsSig:vector  ETV
vector 510291  Network.dyn_peer[91]  lookupStabilitySig:vector  ETV
vector 510292  Network.dyn_peer[91]  lookupTimeSig:vector  ETV
vector 510122  Network.dyn_peer[35]  lookupHopsSig:vector  ETV
vector 510123  Network.dyn_peer[35]  lookupStabilitySig:vector  ETV
vector 510124  Network.dyn_peer[35]  lookupTimeSig:vector  ETV
vector 510275  Network.dyn_peer[86]  lookupHopsSig:vector  ETV
vector 510276  Network.dyn_peer[86]  lookupStabilitySig:vector  ETV
vector 510277  Network.dyn_peer[86]  lookupTimeSig:vector  ETV
vector 510134  Network.dyn_peer[39]  lookupHopsSig:vector  ETV
vector 510135  Network.dyn_peer[39]  lookupStabilitySig:vector  ETV
vector 510136  Network.dyn_peer[39]  lookupTimeSig:vector  ETV
vector 510194  Network.dyn_peer[59]  lookupHopsSig:vector  ETV
vector 510195  Network.dyn_peer[59]  lookupStabilitySig:vector  ETV
vector 510196  Network.dyn_peer[59]  lookupTimeSig:vector  ETV
vector 510197  Network.dyn_peer[60]  lookupHopsSig:vector  ETV
vector 510198  Network.dyn_peer[60]  lookupStabilitySig:vector  ETV
vector 510199  Network.dyn_peer[60]  lookupTimeSig:vector  ETV
vector 510230  Network.dyn_peer[71]  lookupHopsSig:vector  ETV
vector 510231  Network.dyn_peer[71]  lookupStabilitySig:vector  ETV
vector 510232  Network.dyn_peer[71]  lookupTimeSig:vector  ETV
vector 510260  Network.dyn_peer[81]  lookupHopsSig:vector  ETV
vector 510261  Network.dyn_peer[81]  lookupStabilitySig:vector  ETV
vector 510262  Network.dyn_peer[81]  lookupTimeSig:vector  ETV
vector 510353  Network.dyn_peer[112]  lookupHopsSig:vector  ETV
vector 510354  Network.dyn_peer[112]  lookupStabilitySig:vector  ETV
vector 510355  Network.dyn_peer[112]  lookupTimeSig:vector  ETV
vector 510326  Network.dyn_peer[103]  lookupHopsSig:vector  ETV
vector 510327  Network.dyn_peer[103]  lookupStabilitySig:vector  ETV
vector 510328  Network.dyn_peer[103]  lookupTimeSig:vector  ETV
vector 510356  Network.dyn_peer[113]  lookupHopsSig:vector  ETV
vector 510357  Network.dyn_peer[113]  lookupStabilitySig:vector  ETV
vector 510358  Network.dyn_peer[113]  lookupTimeSig:vector  ETV
vector 510152  Network.dyn_peer[45]  lookupHopsSig:vector  ETV
vector 510153  Network.dyn_peer[45]  lookupStabilitySig:vector  ETV
vector 510154  Network.dyn_peer[45]  lookupTimeSig:vector  ETV
vector 510302  Network.dyn_peer[95]  lookupHopsSig:vector  ETV
vector 510303  Network.dyn_peer[95]  lookupStabilitySig:vector  ETV
vector 510304  Network.dyn_peer[95]  lookupTimeSig:vector  ETV
vector 510362  Network.dyn_peer[115]  lookupHopsSig:vector  ETV
vector 510363  Network.dyn_peer[115]  lookupStabilitySig:vector  ETV
vector 510364  Network.dyn_peer[115]  lookupTimeSig:vector  ETV
vector 510245  Network.dyn_peer[76]  lookupHopsSig:vector  ETV
vector 510246  Network.dyn_peer[76]  lookupStabilitySig:vector  ETV
vector 510247  Network.dyn_peer[76]  lookupTimeSig:vector  ETV
vector 510278  Network.dyn_peer[87]  lookupHopsSig:vector  ETV
vector 510279  Network.dyn_peer[87]  lookupStabilitySig:vector  ETV
vector 510280  Network.dyn_peer[87]  lookupTimeSig:vector  ETV
vector 510221  Network.dyn_peer[68]  lookupHopsSig:vector  ETV
vector 510222  Network.dyn_peer[68]  lookupStabilitySig:vector  ETV
vector 510223  Network.dyn_peer[68]  lookupTimeSig:vector  ETV
vector 510437  Network.dyn_peer[140]  lookupHopsSig:vector  ETV
vector 510438  Network.dyn_peer[140]  lookupStabilitySig:vector  ETV
vector 510439  Network.dyn_peer[140]  lookupTimeSig:vector  ETV
vector 510338  Network.dyn_peer[107]  lookupHopsSig:vector  ETV
vector 510339  Network.dyn_peer[107]  lookupStabilitySig:vector  ETV
vector 510340  Network.dyn_peer[107]  lookupTimeSig:vector  ETV
vector 510431  Network.dyn_peer[138]  lookupHopsSig:vector  ETV
vector 510432  Network.dyn_peer[138]  lookupStabilitySig:vector  ETV
vector 510433  Network.dyn_peer[138]  lookupTimeSig:vector  ETV
vector 510320  Network.dyn_peer[101]  lookupHopsSig:vector  ETV
vector 510321  Network.dyn_peer[101]  lookupStabilitySig:vector  ETV
vector 510322  Network.dyn_peer[101]  lookupTimeSig:vector  ETV
vector 510203  Network.dyn_peer[62]  lookupHopsSig:vector  ETV
vector 510204  Network.dyn_peer[62]  lookupStabilitySig:vector  ETV
vector 510205  Network.dyn_peer[62]  lookupTimeSig:vector  ETV
vector 510383  Network.dyn_peer[122]  lookupHopsSig:vector  ETV
vector 510384  Network.dyn_peer[122]  lookupStabilitySig:vector  ETV
vector 510385  Network.dyn_peer[122]  lookupTimeSig:vector  ETV
vector 510149  Network.dyn_peer[44]  lookupHopsSig:vector  ETV
vector 510150  Network.dyn_peer[44]  lookupStabilitySig:vector  ETV
vector 510151  Network.dyn_peer[44]  lookupTimeSig:vector  ETV
vector 510389  Network.dyn_peer[124]  lookupHopsSig:vector  ETV
vector 510390  Network.dyn_peer[124]  lookupStabilitySig:vector  ETV
vector 510391  Network.dyn_peer[124]  lookupTimeSig:vector  ETV
vector 510347  Network.dyn_peer[110]  lookupHopsSig:vector  ETV
vector 510348  Network.dyn_peer[110]  lookupStabilitySig:vector  ETV
vector 510349  Network.dyn_peer[110]  lookupTimeSig:vector  ETV
vector 510140  Network.dyn_peer[41]  lookupHopsSig:vector  ETV
vector 510141  Network.dyn_peer[41]  lookupStabilitySig:vector  ETV
vector 510142  Network.dyn_peer[41]  lookupTimeSig:vector  ETV
vector 510170  Network.dyn_peer[51]  lookupHopsSig:vector  ETV
vector 510171  Network.dyn_peer[51]  lookupStabilitySig:vector  ETV
vector 510172  Network.dyn_peer[51]  lookupTimeSig:vector  ETV
vector 510263  Network.dyn_peer[82]  lookupHopsSig:vector  ETV
vector 510264  Network.dyn_peer[82]  lookupStabilitySig:vector  ETV
vector 510265  Network.dyn_peer[82]  lookupTimeSig:vector  ETV
vector 510416  Network.dyn_peer[133]  lookupHopsSig:vector  ETV
vector 510417  Network.dyn_peer[133]  lookupStabilitySig:vector  ETV
vector 510418  Network.dyn_peer[133]  lookupTimeSig:vector  ETV
vector 510212  Network.dyn_peer[65]  lookupHopsSig:vector  ETV
vector 510213  Network.dyn_peer[65]  lookupStabilitySig:vector  ETV
vector 510214  Network.dyn_peer[65]  lookupTimeSig:vector  ETV
vector 510452  Network.dyn_peer[145]  lookupHopsSig:vector  ETV
vector 510453  Network.dyn_peer[145]  lookupStabilitySig:vector  ETV
vector 510454  Network.dyn_peer[145]  lookupTimeSig:vector  ETV
vector 510284  Network.dyn_peer[89]  lookupHopsSig:vector  ETV
vector 510285  Network.dyn_peer[89]  lookupStabilitySig:vector  ETV
vector 510286  Network.dyn_peer[89]  lookupTimeSig:vector  ETV
vector 510494  Network.dyn_peer[159]  lookupHopsSig:vector  ETV
vector 510495  Network.dyn_peer[159]  lookupStabilitySig:vector  ETV
vector 510496  Network.dyn_peer[159]  lookupTimeSig:vector  ETV
vector 510227  Network.dyn_peer[70]  lookupHopsSig:vector  ETV
vector 510228  Network.dyn_peer[70]  lookupStabilitySig:vector  ETV
vector 510229  Network.dyn_peer[70]  lookupTimeSig:vector  ETV
vector 510377  Network.dyn_peer[120]  lookupHopsSig:vector  ETV
vector 510378  Network.dyn_peer[120]  lookupStabilitySig:vector  ETV
vector 510379  Network.dyn_peer[120]  lookupTimeSig:vector  ETV
vector 510233  Network.dyn_peer[72]  lookupHopsSig:vector  ETV
vector 510234  Network.dyn_peer[72]  lookupStabilitySig:vector  ETV
vector 510235  Network.dyn_peer[72]  lookupTimeSig:vector  ETV
vector 510386  Network.dyn_peer[123]  lookupHopsSig:vector  ETV
vector 510387  Network.dyn_peer[123]  lookupStabilitySig:vector  ETV
vector 510388  Network.dyn_peer[123]  lookupTimeSig:vector  ETV
vector 510476  Network.dyn_peer[153]  lookupHopsSig:vector  ETV
vector 510477  Network.dyn_peer[153]  lookupStabilitySig:vector  ETV
vector 510478  Network.dyn_peer[153]  lookupTimeSig:vector  ETV
vector 510479  Network.dyn_peer[154]  lookupHopsSig:vector  ETV
vector 510480  Network.dyn_peer[154]  lookupStabilitySig:vector  ETV
vector 510481  Network.dyn_peer[154]  lookupTimeSig:vector  ETV
vector 510395  Network.dyn_peer[126]  lookupHopsSig:vector  ETV
vector 510396  Network.dyn_peer[126]  lookupStabilitySig:vector  ETV
vector 510397  Network.dyn_peer[126]  lookupTimeSig:vector  ETV
vector 510251  Network.dyn_peer[78]  lookupHopsSig:vector  ETV
vector 510252  Network.dyn_peer[78]  lookupStabilitySig:vector  ETV
vector 510253  Network.dyn_peer[78]  lookupTimeSig:vector  ETV
vector 510341  Network.dyn_peer[108]  lookupHopsSig:vector  ETV
vector 510342  Network.dyn_peer[108]  lookupStabilitySig:vector  ETV
vector 510343  Network.dyn_peer[108]  lookupTimeSig:vector  ETV
vector 510257  Network.dyn_peer[80]  lookupHopsSig:vector  ETV
vector 510258  Network.dyn_peer[80]  lookupStabilitySig:vector  ETV
vector 510259  Network.dyn_peer[80]  lookupTimeSig:vector  ETV
vector 510440  Network.dyn_peer[141]  lookupHopsSig:vector  ETV
vector 510441  Network.dyn_peer[141]  lookupStabilitySig:vector  ETV
vector 510442  Network.dyn_peer[141]  lookupTimeSig:vector  ETV
vector 510503  Network.dyn_peer[162]  lookupHopsSig:vector  ETV
vector 510504  Network.dyn_peer[162]  lookupStabilitySig:vector  ETV
vector 510505  Network.dyn_peer[162]  lookupTimeSig:vector  ETV
vector 510446  Network.dyn_peer[143]  lookupHopsSig:vector  ETV
vector 510447  Network.dyn_peer[143]  lookupStabilitySig:vector  ETV
vector 510448  Network.dyn_peer[143]  lookupTimeSig:vector  ETV
vector 510209  Network.dyn_peer[64]  lookupHopsSig:vector  ETV
vector 510210  Network.dyn_peer[64]  lookupStabilitySig:vector  ETV
vector 510211  Network.dyn_peer[64]  lookupTimeSig:vector  ETV
vector 510329  Network.dyn_peer[104]  lookupHopsSig:vector  ETV
vector 510330  Network.dyn_peer[104]  lookupStabilitySig:vector  ETV
vector 510331  Network.dyn_peer[104]  lookupTimeSig:vector  ETV
vector 510215  Network.dyn_peer[66]  lookupHopsSig:vector  ETV
vector 510216  Network.dyn_peer[66]  lookupStabilitySig:vector  ETV
vector 510217  Network.dyn_peer[66]  lookupTimeSig:vector  ETV
vector 510545  Network.dyn_peer[176]  lookupHopsSig:vector  ETV
vector 510546  Network.dyn_peer[176]  lookupStabilitySig:vector  ETV
vector 510547  Network.dyn_peer[176]  lookupTimeSig:vector  ETV
vector 510191  Network.dyn_peer[58]  lookupHopsSig:vector  ETV
vector 510192  Network.dyn_peer[58]  lookupStabilitySig:vector  ETV
vector 510193  Network.dyn_peer[58]  lookupTimeSig:vector  ETV
vector 510281  Network.dyn_peer[88]  lookupHopsSig:vector  ETV
vector 510282  Network.dyn_peer[88]  lookupStabilitySig:vector  ETV
vector 510283  Network.dyn_peer[88]  lookupTimeSig:vector  ETV
vector 510311  Network.dyn_peer[98]  lookupHopsSig:vector  ETV
vector 510312  Network.dyn_peer[98]  lookupStabilitySig:vector  ETV
vector 510313  Network.dyn_peer[98]  lookupTimeSig:vector  ETV
vector 510344  Network.dyn_peer[109]  lookupHopsSig:vector  ETV
vector 510345  Network.dyn_peer[109]  lookupStabilitySig:vector  ETV
vector 510346  Network.dyn_peer[109]  lookupTimeSig:vector  ETV
vector 510293  Network.dyn_peer[92]  lookupHopsSig:vector  ETV
vector 510294  Network.dyn_peer[92]  lookupStabilitySig:vector  ETV
vector 510295  Network.dyn_peer[92]  lookupTimeSig:vector  ETV
vector 510533  Network.dyn_peer[172]  lookupHopsSig:vector  ETV
vector 510534  Network.dyn_peer[172]  lookupStabilitySig:vector  ETV
vector 510535  Network.dyn_peer[172]  lookupTimeSig:vector  ETV
vector 510359  Network.dyn_peer[114]  lookupHopsSig:vector  ETV
vector 510360  Network.dyn_peer[114]  lookupStabilitySig:vector  ETV
vector 510361  Network.dyn_peer[114]  lookupTimeSig:vector  ETV
vector 510422  Network.dyn_peer[135]  lookupHopsSig:vector  ETV
vector 510423  Network.dyn_peer[135]  lookupStabilitySig:vector  ETV
vector 510424  Network.dyn_peer[135]  lookupTimeSig:vector  ETV
vector 510515  Network.dyn_peer[166]  lookupHopsSig:vector  ETV
vector 510516  Network.dyn_peer[166]  lookupStabilitySig:vector  ETV
vector 510517  Network.dyn_peer[166]  lookupTimeSig:vector  ETV
vector 510368  Network.dyn_peer[117]  lookupHopsSig:vector  ETV
vector 510369  Network.dyn_peer[117]  lookupStabilitySig:vector  ETV
vector 510370  Network.dyn_peer[117]  lookupTimeSig:vector  ETV
vector 510398  Network.dyn_peer[127]  lookupHopsSig:vector  ETV
vector 510399  Network.dyn_peer[127]  lookupStabilitySig:vector  ETV
vector 510400  Network.dyn_peer[127]  lookupTimeSig:vector  ETV
vector 510488  Network.dyn_peer[157]  lookupHopsSig:vector  ETV
vector 510489  Network.dyn_peer[157]  lookupStabilitySig:vector  ETV
vector 510490  Network.dyn_peer[157]  lookupTimeSig:vector  ETV
vector 510464  Network.dyn_peer[149]  lookupHopsSig:vector  ETV
vector 510465  Network.dyn_peer[149]  lookupStabilitySig:vector  ETV
vector 510466  Network.dyn_peer[149]  lookupTimeSig:vector  ETV
vector 510497  Network.dyn_peer[160]  lookupHopsSig:vector  ETV
vector 510498  Network.dyn_peer[160]  lookupStabilitySig:vector  ETV
vector 510499  Network.dyn_peer[160]  lookupTimeSig:vector  ETV
vector 510527  Network.dyn_peer[170]  lookupHopsSig:vector  ETV
vector 510528  Network.dyn_peer[170]  lookupStabilitySig:vector  ETV
vector 510529  Network.dyn_peer[170]  lookupTimeSig:vector  ETV
vector 510470  Network.dyn_peer[151]  lookupHopsSig:vector  ETV
vector 510471  Network.dyn_peer[151]  lookupStabilitySig:vector  ETV
vector 510472  Network.dyn_peer[151]  lookupTimeSig:vector  ETV
vector 510179  Network.dyn_peer[54]  lookupHopsSig:vector  ETV
vector 510180  Network.dyn_peer[54]  lookupStabilitySig:vector  ETV
vector 510181  Network.dyn_peer[54]  lookupTimeSig:vector  ETV
vector 510332  Network.dyn_peer[105]  lookupHopsSig:vector  ETV
vector 510333  Network.dyn_peer[105]  lookupStabilitySig:vector  ETV
vector 510334  Network.dyn_peer[105]  lookupTimeSig:vector  ETV
vector 510185  Network.dyn_peer[56]  lookupHopsSig:vector  ETV
vector 510186  Network.dyn_peer[56]  lookupStabilitySig:vector  ETV
vector 510187  Network.dyn_peer[56]  lookupTimeSig:vector  ETV
vector 510335  Network.dyn_peer[106]  lookupHopsSig:vector  ETV
vector 510336  Network.dyn_peer[106]  lookupStabilitySig:vector  ETV
vector 510337  Network.dyn_peer[106]  lookupTimeSig:vector  ETV
vector 510458  Network.dyn_peer[147]  lookupHopsSig:vector  ETV
vector 510459  Network.dyn_peer[147]  lookupStabilitySig:vector  ETV
vector 510460  Network.dyn_peer[147]  lookupTimeSig:vector  ETV
vector 510548  Network.dyn_peer[177]  lookupHopsSig:vector  ETV
vector 510549  Network.dyn_peer[177]  lookupStabilitySig:vector  ETV
vector 510550  Network.dyn_peer[177]  lookupTimeSig:vector  ETV
vector 510380  Network.dyn_peer[121]  lookupHopsSig:vector  ETV
vector 510381  Network.dyn_peer[121]  lookupStabilitySig:vector  ETV
vector 510382  Network.dyn_peer[121]  lookupTimeSig:vector  ETV
vector 510410  Network.dyn_peer[131]  lookupHopsSig:vector  ETV
vector 510411  Network.dyn_peer[131]  lookupStabilitySig:vector  ETV
vector 510412  Network.dyn_peer[131]  lookupTimeSig:vector  ETV
vector 510413  Network.dyn_peer[132]  lookupHopsSig:vector  ETV
vector 510414  Network.dyn_peer[132]  lookupStabilitySig:vector  ETV
vector 510415  Network.dyn_peer[132]  lookupTimeSig:vector  ETV
vector 510482  Network.dyn_peer[155]  lookupHopsSig:vector  ETV
vector 510483  Network.dyn_peer[155]  lookupStabilitySig:vector  ETV
vector 510484  Network.dyn_peer[155]  lookupTimeSig:vector  ETV
vector 510365  Network.dyn_peer[116]  lookupHopsSig:vector  ETV
vector 510366  Network.dyn_peer[116]  lookupStabilitySig:vector  ETV
vector 510367  Network.dyn_peer[116]  lookupTimeSig:vector  ETV
vector 510485  Network.dyn_peer[156]  lookupHopsSig:vector  ETV
vector 510486  Network.dyn_peer[156]  lookupStabilitySig:vector  ETV
vector 510487  Network.dyn_peer[156]  lookupTimeSig:vector  ETV
vector 510188  Network.dyn_peer[57]  lookupHopsSig:vector  ETV
vector 510189  Network.dyn_peer[57]  lookupStabilitySig:vector  ETV
vector 510190  Network.dyn_peer[57]  lookupTimeSig:vector  ETV
vector 510218  Network.dyn_peer[67]  lookupHopsSig:vector  ETV
vector 510219  Network.dyn_peer[67]  lookupStabilitySig:vector  ETV
vector 510220  Network.dyn_peer[67]  lookupTimeSig:vector  ETV
vector 510554  Network.dyn_peer[179]  lookupHopsSig:vector  ETV
vector 510555  Network.dyn_peer[179]  lookupStabilitySig:vector  ETV
vector 510556  Network.dyn_peer[179]  lookupTimeSig:vector  ETV
vector 510467  Network.dyn_peer[150]  lookupHopsSig:vector  ETV
vector 510468  Network.dyn_peer[150]  lookupStabilitySig:vector  ETV
vector 510469  Network.dyn_peer[150]  lookupTimeSig:vector  ETV
vector 510587  Network.dyn_peer[190]  lookupHopsSig:vector  ETV
vector 510588  Network.dyn_peer[190]  lookupStabilitySig:vector  ETV
vector 510589  Network.dyn_peer[190]  lookupTimeSig:vector  ETV
vector 510350  Network.dyn_peer[111]  lookupHopsSig:vector  ETV
vector 510351  Network.dyn_peer[111]  lookupStabilitySig:vector  ETV
vector 510352  Network.dyn_peer[111]  lookupTimeSig:vector  ETV
vector 510182  Network.dyn_peer[55]  lookupHopsSig:vector  ETV
vector 510183  Network.dyn_peer[55]  lookupStabilitySig:vector  ETV
vector 510184  Network.dyn_peer[55]  lookupTimeSig:vector  ETV
vector 510455  Network.dyn_peer[146]  lookupHopsSig:vector  ETV
vector 510456  Network.dyn_peer[146]  lookupStabilitySig:vector  ETV
vector 510457  Network.dyn_peer[146]  lookupTimeSig:vector  ETV
vector 510314  Network.dyn_peer[99]  lookupHopsSig:vector  ETV
vector 510315  Network.dyn_peer[99]  lookupStabilitySig:vector  ETV
vector 510316  Network.dyn_peer[99]  lookupTimeSig:vector  ETV
vector 510374  Network.dyn_peer[119]  lookupHopsSig:vector  ETV
vector 510375  Network.dyn_peer[119]  lookupStabilitySig:vector  ETV
vector 510376  Network.dyn_peer[119]  lookupTimeSig:vector  ETV
vector 510584  Network.dyn_peer[189]  lookupHopsSig:vector  ETV
vector 510585  Network.dyn_peer[189]  lookupStabilitySig:vector  ETV
vector 510586  Network.dyn_peer[189]  lookupTimeSig:vector  ETV
vector 510593  Network.dyn_peer[192]  lookupHopsSig:vector  ETV
vector 510594  Network.dyn_peer[192]  lookupStabilitySig:vector  ETV
vector 510595  Network.dyn_peer[192]  lookupTimeSig:vector  ETV
vector 510272  Network.dyn_peer[85]  lookupHopsSig:vector  ETV
vector 510273  Network.dyn_peer[85]  lookupStabilitySig:vector  ETV
vector 510274  Network.dyn_peer[85]  lookupTimeSig:vector  ETV
vector 510425  Network.dyn_peer[136]  lookupHopsSig:vector  ETV
vector 510426  Network.dyn_peer[136]  lookupStabilitySig:vector  ETV
vector 510427  Network.dyn_peer[136]  lookupTimeSig:vector  ETV
vector 510248  Network.dyn_peer[77]  lookupHopsSig:vector  ETV