file 4607536 1369698219                                         
version 2
run Stability2-85-20130528-01:42:51-24168
attr configname Stability2
attr datetime 20130528-01:42:51
attr experiment Stability2
attr inifile omnetpp.ini
attr iterationvars $0=400
attr iterationvars2 "$0=400, $repetition=5"
attr measurement $0=400
attr network Network
attr processid 24168
attr repetition 5
attr replication #5
attr resultdir results
attr runnumber 85
attr seedset 85

vector 2580085  Network.churner  inGoingSizeSig:vector  ETV
vector 2550091  Network.dyn_peer[2]  lookupHopsSig:vector  ETV
vector 2550092  Network.dyn_peer[2]  lookupStabilitySig:vector  ETV
vector 2550093  Network.dyn_peer[2]  lookupTimeSig:vector  ETV
vector 2550109  Network.dyn_peer[8]  lookupHopsSig:vector  ETV
vector 2550110  Network.dyn_peer[8]  lookupStabilitySig:vector  ETV
vector 2550111  Network.dyn_peer[8]  lookupTimeSig:vector  ETV
vector 2550088  Network.dyn_peer[1]  lookupHopsSig:vector  ETV
vector 2550089  Network.dyn_peer[1]  lookupStabilitySig:vector  ETV
vector 2550090  Network.dyn_peer[1]  lookupTimeSig:vector  ETV
vector 2550133  Network.dyn_peer[16]  lookupHopsSig:vector  ETV
vector 2550134  Network.dyn_peer[16]  lookupStabilitySig:vector  ETV
vector 2550135  Network.dyn_peer[16]  lookupTimeSig:vector  ETV
vector 2550112  Network.dyn_peer[9]  lookupHopsSig:vector  ETV
vector 2550113  Network.dyn_peer[9]  lookupStabilitySig:vector  ETV
vector 2550114  Network.dyn_peer[9]  lookupTimeSig:vector  ETV
vector 2550151  Network.dyn_peer[22]  lookupHopsSig:vector  ETV
vector 2550152  Network.dyn_peer[22]  lookupStabilitySig:vector  ETV
vector 2550153  Network.dyn_peer[22]  lookupTimeSig:vector  ETV
vector 2550094  Network.dyn_peer[3]  lookupHopsSig:vector  ETV
vector 2550095  Network.dyn_peer[3]  lookupStabilitySig:vector  ETV
vector 2550096  Network.dyn_peer[3]  lookupTimeSig:vector  ETV
vector 2550160  Network.dyn_peer[25]  lookupHopsSig:vector  ETV
vector 2550161  Network.dyn_peer[25]  lookupStabilitySig:vector  ETV
vector 2550162  Network.dyn_peer[25]  lookupTimeSig:vector  ETV
vector 2550172  Network.dyn_peer[29]  lookupHopsSig:vector  ETV
vector 2550173  Network.dyn_peer[29]  lookupStabilitySig:vector  ETV
vector 2550174  Network.dyn_peer[29]  lookupTimeSig:vector  ETV
vector 2550085  Network.dyn_peer[0]  lookupHopsSig:vector  ETV
vector 2550086  Network.dyn_peer[0]  lookupStabilitySig:vector  ETV
vector 2550087  Network.dyn_peer[0]  lookupTimeSig:vector  ETV
vector 2550115  Network.dyn_peer[10]  lookupHopsSig:vector  ETV
vector 2550116  Network.dyn_peer[10]  lookupStabilitySig:vector  ETV
vector 2550117  Network.dyn_peer[10]  lookupTimeSig:vector  ETV
vector 2550145  Network.dyn_peer[20]  lookupHopsSig:vector  ETV
vector 2550146  Network.dyn_peer[20]  lookupStabilitySig:vector  ETV
vector 2550147  Network.dyn_peer[20]  lookupTimeSig:vector  ETV
vector 2550118  Network.dyn_peer[11]  lookupHopsSig:vector  ETV
vector 2550119  Network.dyn_peer[11]  lookupStabilitySig:vector  ETV
vector 2550120  Network.dyn_peer[11]  lookupTimeSig:vector  ETV
vector 2550124  Network.dyn_peer[13]  lookupHopsSig:vector  ETV
vector 2550125  Network.dyn_peer[13]  lookupStabilitySig:vector  ETV
vector 2550126  Network.dyn_peer[13]  lookupTimeSig:vector  ETV
vector 2550097  Network.dyn_peer[4]  lookupHopsSig:vector  ETV
vector 2550098  Network.dyn_peer[4]  lookupStabilitySig:vector  ETV
vector 2550099  Network.dyn_peer[4]  lookupTimeSig:vector  ETV
vector 2550130  Network.dyn_peer[15]  lookupHopsSig:vector  ETV
vector 2550131  Network.dyn_peer[15]  lookupStabilitySig:vector  ETV
vector 2550132  Network.dyn_peer[15]  lookupTimeSig:vector  ETV
vector 2550163  Network.dyn_peer[26]  lookupHopsSig:vector  ETV
vector 2550164  Network.dyn_peer[26]  lookupStabilitySig:vector  ETV
vector 2550165  Network.dyn_peer[26]  lookupTimeSig:vector  ETV
vector 2550166  Network.dyn_peer[27]  lookupHopsSig:vector  ETV
vector 2550167  Network.dyn_peer[27]  lookupStabilitySig:vector  ETV
vector 2550168  Network.dyn_peer[27]  lookupTimeSig:vector  ETV
vector 2550148  Network.dyn_peer[21]  lookupHopsSig:vector  ETV
vector 2550149  Network.dyn_peer[21]  lookupStabilitySig:vector  ETV
vector 2550150  Network.dyn_peer[21]  lookupTimeSig:vector  ETV
vector 2550121  Network.dyn_peer[12]  lookupHopsSig:vector  ETV
vector 2550122  Network.dyn_peer[12]  lookupStabilitySig:vector  ETV
vector 2550123  Network.dyn_peer[12]  lookupTimeSig:vector  ETV
vector 2550154  Network.dyn_peer[23]  lookupHopsSig:vector  ETV
vector 2550155  Network.dyn_peer[23]  lookupStabilitySig:vector  ETV
vector 2550156  Network.dyn_peer[23]  lookupTimeSig:vector  ETV
vector 2550103  Network.dyn_peer[6]  lookupHopsSig:vector  ETV
vector 2550104  Network.dyn_peer[6]  lookupStabilitySig:vector  ETV
vector 2550105  Network.dyn_peer[6]  lookupTimeSig:vector  ETV
vector 2550136  Network.dyn_peer[17]  lookupHopsSig:vector  ETV
vector 2550137  Network.dyn_peer[17]  lookupStabilitySig:vector  ETV
vector 2550138  Network.dyn_peer[17]  lookupTimeSig:vector  ETV
vector 2550139  Network.dyn_peer[18]  lookupHopsSig:vector  ETV
vector 2550140  Network.dyn_peer[18]  lookupStabilitySig:vector  ETV
vector 2550141  Network.dyn_peer[18]  lookupTimeSig:vector  ETV
vector 2550169  Network.dyn_peer[28]  lookupHopsSig:vector  ETV
vector 2550170  Network.dyn_peer[28]  lookupStabilitySig:vector  ETV
vector 2550171  Network.dyn_peer[28]  lookupTimeSig:vector  ETV
vector 2550178  Network.dyn_peer[31]  lookupHopsSig:vector  ETV
vector 2550179  Network.dyn_peer[31]  lookupStabilitySig:vector  ETV
vector 2550180  Network.dyn_peer[31]  lookupTimeSig:vector  ETV
vector 2550127  Network.dyn_peer[14]  lookupHopsSig:vector  ETV
vector 2550128  Network.dyn_peer[14]  lookupStabilitySig:vector  ETV
vector 2550129  Network.dyn_peer[14]  lookupTimeSig:vector  ETV
vector 2550247  Network.dyn_peer[54]  lookupHopsSig:vector  ETV
vector 2550248  Network.dyn_peer[54]  lookupStabilitySig:vector  ETV
vector 2550249  Network.dyn_peer[54]  lookupTimeSig:vector  ETV
vector 2550100  Network.dyn_peer[5]  lookupHopsSig:vector  ETV
vector 2550101  Network.dyn_peer[5]  lookupStabilitySig:vector  ETV
vector 2550102  Network.dyn_peer[5]  lookupTimeSig:vector  ETV
vector 2550106  Network.dyn_peer[7]  lookupHopsSig:vector  ETV
vector 2550107  Network.dyn_peer[7]  lookupStabilitySig:vector  ETV
vector 2550108  Network.dyn_peer[7]  lookupTimeSig:vector  ETV
vector 2550229  Network.dyn_peer[48]  lookupHopsSig:vector  ETV
vector 2550230  Network.dyn_peer[48]  lookupStabilitySig:vector  ETV
vector 2550231  Network.dyn_peer[48]  lookupTimeSig:vector  ETV
vector 2550211  Network.dyn_peer[42]  lookupHopsSig:vector  ETV
vector 2550212  Network.dyn_peer[42]  lookupStabilitySig:vector  ETV
vector 2550213  Network.dyn_peer[42]  lookupTimeSig:vector  ETV
vector 2550157  Network.dyn_peer[24]  lookupHopsSig:vector  ETV
vector 2550158  Network.dyn_peer[24]  lookupStabilitySig:vector  ETV
vector 2550159  Network.dyn_peer[24]  lookupTimeSig:vector  ETV
vector 2550187  Network.dyn_peer[34]  lookupHopsSig:vector  ETV
vector 2550188  Network.dyn_peer[34]  lookupStabilitySig:vector  ETV
vector 2550189  Network.dyn_peer[34]  lookupTimeSig:vector  ETV
vector 2550142  Network.dyn_peer[19]  lookupHopsSig:vector  ETV
vector 2550143  Network.dyn_peer[19]  lookupStabilitySig:vector  ETV
vector 2550144  Network.dyn_peer[19]  lookupTimeSig:vector  ETV
vector 2550280  Network.dyn_peer[65]  lookupHopsSig:vector  ETV
vector 2550281  Network.dyn_peer[65]  lookupStabilitySig:vector  ETV
vector 2550282  Network.dyn_peer[65]  lookupTimeSig:vector  ETV
vector 2550193  Network.dyn_peer[36]  lookupHopsSig:vector  ETV
vector 2550194  Network.dyn_peer[36]  lookupStabilitySig:vector  ETV
vector 2550195  Network.dyn_peer[36]  lookupTimeSig:vector  ETV
vector 2550202  Network.dyn_peer[39]  lookupHopsSig:vector  ETV
vector 2550203  Network.dyn_peer[39]  lookupStabilitySig:vector  ETV
vector 2550204  Network.dyn_peer[39]  lookupTimeSig:vector  ETV
vector 2550265  Network.dyn_peer[60]  lookupHopsSig:vector  ETV
vector 2550266  Network.dyn_peer[60]  lookupStabilitySig:vector  ETV
vector 2550267  Network.dyn_peer[60]  lookupTimeSig:vector  ETV
vector 2550253  Network.dyn_peer[56]  lookupHopsSig:vector  ETV
vector 2550254  Network.dyn_peer[56]  lookupStabilitySig:vector  ETV
vector 2550255  Network.dyn_peer[56]  lookupTimeSig:vector  ETV
vector 2550226  Network.dyn_peer[47]  lookupHopsSig:vector  ETV
vector 2550227  Network.dyn_peer[47]  lookupStabilitySig:vector  ETV
vector 2550228  Network.dyn_peer[47]  lookupTimeSig:vector  ETV
vector 2550286  Network.dyn_peer[67]  lookupHopsSig:vector  ETV
vector 2550287  Network.dyn_peer[67]  lookupStabilitySig:vector  ETV
vector 2550288  Network.dyn_peer[67]  lookupTimeSig:vector  ETV
vector 2550268  Network.dyn_peer[61]  lookupHopsSig:vector  ETV
vector 2550269  Network.dyn_peer[61]  lookupStabilitySig:vector  ETV
vector 2550270  Network.dyn_peer[61]  lookupTimeSig:vector  ETV
vector 2550214  Network.dyn_peer[43]  lookupHopsSig:vector  ETV
vector 2550215  Network.dyn_peer[43]  lookupStabilitySig:vector  ETV
vector 2550216  Network.dyn_peer[43]  lookupTimeSig:vector  ETV
vector 2550298  Network.dyn_peer[71]  lookupHopsSig:vector  ETV
vector 2550299  Network.dyn_peer[71]  lookupStabilitySig:vector  ETV
vector 2550300  Network.dyn_peer[71]  lookupTimeSig:vector  ETV
vector 2550391  Network.dyn_peer[102]  lookupHopsSig:vector  ETV
vector 2550392  Network.dyn_peer[102]  lookupStabilitySig:vector  ETV
vector 2550393  Network.dyn_peer[102]  lookupTimeSig:vector  ETV
vector 2550190  Network.dyn_peer[35]  lookupHopsSig:vector  ETV
vector 2550191  Network.dyn_peer[35]  lookupStabilitySig:vector  ETV
vector 2550192  Network.dyn_peer[35]  lookupTimeSig:vector  ETV
vector 2550250  Network.dyn_peer[55]  lookupHopsSig:vector  ETV
vector 2550251  Network.dyn_peer[55]  lookupStabilitySig:vector  ETV
vector 2550252  Network.dyn_peer[55]  lookupTimeSig:vector  ETV
vector 2550175  Network.dyn_peer[30]  lookupHopsSig:vector  ETV
vector 2550176  Network.dyn_peer[30]  lookupStabilitySig:vector  ETV
vector 2550177  Network.dyn_peer[30]  lookupTimeSig:vector  ETV
vector 2550271  Network.dyn_peer[62]  lookupHopsSig:vector  ETV
vector 2550272  Network.dyn_peer[62]  lookupStabilitySig:vector  ETV
vector 2550273  Network.dyn_peer[62]  lookupTimeSig:vector  ETV
vector 2550304  Network.dyn_peer[73]  lookupHopsSig:vector  ETV
vector 2550305  Network.dyn_peer[73]  lookupStabilitySig:vector  ETV
vector 2550306  Network.dyn_peer[73]  lookupTimeSig:vector  ETV
vector 2550340  Network.dyn_peer[85]  lookupHopsSig:vector  ETV
vector 2550341  Network.dyn_peer[85]  lookupStabilitySig:vector  ETV
vector 2550342  Network.dyn_peer[85]  lookupTimeSig:vector  ETV
vector 2550370  Network.dyn_peer[95]  lookupHopsSig:vector  ETV
vector 2550371  Network.dyn_peer[95]  lookupStabilitySig:vector  ETV
vector 2550372  Network.dyn_peer[95]  lookupTimeSig:vector  ETV
vector 2550196  Network.dyn_peer[37]  lookupHopsSig:vector  ETV
vector 2550197  Network.dyn_peer[37]  lookupStabilitySig:vector  ETV
vector 2550198  Network.dyn_peer[37]  lookupTimeSig:vector  ETV
vector 2550199  Network.dyn_peer[38]  lookupHopsSig:vector  ETV
vector 2550200  Network.dyn_peer[38]  lookupStabilitySig:vector  ETV
vector 2550201  Network.dyn_peer[38]  lookupTimeSig:vector  ETV
vector 2550259  Network.dyn_peer[58]  lookupHopsSig:vector  ETV
vector 2550260  Network.dyn_peer[58]  lookupStabilitySig:vector  ETV
vector 2550261  Network.dyn_peer[58]  lookupTimeSig:vector  ETV
vector 2550322  Network.dyn_peer[79]  lookupHopsSig:vector  ETV
vector 2550323  Network.dyn_peer[79]  lookupStabilitySig:vector  ETV
vector 2550324  Network.dyn_peer[79]  lookupTimeSig:vector  ETV
vector 2550208  Network.dyn_peer[41]  lookupHopsSig:vector  ETV
vector 2550209  Network.dyn_peer[41]  lookupStabilitySig:vector  ETV
vector 2550210  Network.dyn_peer[41]  lookupTimeSig:vector  ETV
vector 2550388  Network.dyn_peer[101]  lookupHopsSig:vector  ETV
vector 2550389  Network.dyn_peer[101]  lookupStabilitySig:vector  ETV
vector 2550390  Network.dyn_peer[101]  lookupTimeSig:vector  ETV
vector 2550181  Network.dyn_peer[32]  lookupHopsSig:vector  ETV
vector 2550182  Network.dyn_peer[32]  lookupStabilitySig:vector  ETV
vector 2550183  Network.dyn_peer[32]  lookupTimeSig:vector  ETV
vector 2550331  Network.dyn_peer[82]  lookupHopsSig:vector  ETV
vector 2550332  Network.dyn_peer[82]  lookupStabilitySig:vector  ETV
vector 2550333  Network.dyn_peer[82]  lookupTimeSig:vector  ETV
vector 2550367  Network.dyn_peer[94]  lookupHopsSig:vector  ETV
vector 2550368  Network.dyn_peer[94]  lookupStabilitySig:vector  ETV
vector 2550369  Network.dyn_peer[94]  lookupTimeSig:vector  ETV
vector 2550310  Network.dyn_peer[75]  lookupHopsSig:vector  ETV
vector 2550311  Network.dyn_peer[75]  lookupStabilitySig:vector  ETV
vector 2550312  Network.dyn_peer[75]  lookupTimeSig:vector  ETV
vector 2550316  Network.dyn_peer[77]  lookupHopsSig:vector  ETV
vector 2550317  Network.dyn_peer[77]  lookupStabilitySig:vector  ETV
vector 2550318  Network.dyn_peer[77]  lookupTimeSig:vector  ETV
vector 2550406  Network.dyn_peer[107]  lookupHopsSig:vector  ETV
vector 2550407  Network.dyn_peer[107]  lookupStabilitySig:vector  ETV
vector 2550408  Network.dyn_peer[107]  lookupTimeSig:vector  ETV
vector 2550349  Network.dyn_peer[88]  lookupHopsSig:vector  ETV
vector 2550350  Network.dyn_peer[88]  lookupStabilitySig:vector  ETV
vector 2550351  Network.dyn_peer[88]  lookupTimeSig:vector  ETV
vector 2550397  Network.dyn_peer[104]  lookupHopsSig:vector  ETV
vector 2550398  Network.dyn_peer[104]  lookupStabilitySig:vector  ETV
vector 2550399  Network.dyn_peer[104]  lookupTimeSig:vector  ETV
vector 2550289  Network.dyn_peer[68]  lookupHopsSig:vector  ETV
vector 2550290  Network.dyn_peer[68]  lookupStabilitySig:vector  ETV
vector 2550291  Network.dyn_peer[68]  lookupTimeSig:vector  ETV
vector 2550319  Network.dyn_peer[78]  lookupHopsSig:vector  ETV
vector 2550320  Network.dyn_peer[78]  lookupStabilitySig:vector  ETV
vector 2550321  Network.dyn_peer[78]  lookupTimeSig:vector  ETV
vector 2550232  Network.dyn_peer[49]  lookupHopsSig:vector  ETV
vector 2550233  Network.dyn_peer[49]  lookupStabilitySig:vector  ETV
vector 2550234  Network.dyn_peer[49]  lookupTimeSig:vector  ETV
vector 2550235  Network.dyn_peer[50]  lookupHopsSig:vector  ETV
vector 2550236  Network.dyn_peer[50]  lookupStabilitySig:vector  ETV
vector 2550237  Network.dyn_peer[50]  lookupTimeSig:vector  ETV
vector 2550361  Network.dyn_peer[92]  lookupHopsSig:vector  ETV
vector 2550362  Network.dyn_peer[92]  lookupStabilitySig:vector  ETV
vector 2550363  Network.dyn_peer[92]  lookupTimeSig:vector  ETV
vector 2550283  Network.dyn_peer[66]  lookupHopsSig:vector  ETV
vector 2550284  Network.dyn_peer[66]  lookupStabilitySig:vector  ETV
vector 2550285  Network.dyn_peer[66]  lookupTimeSig:vector  ETV
vector 2550313  Network.dyn_peer[76]  lookupHopsSig:vector  ETV
vector 2550314  Network.dyn_peer[76]  lookupStabilitySig:vector  ETV
vector 2550315  Network.dyn_peer[76]  lookupTimeSig:vector  ETV
vector 2550463  Network.dyn_peer[126]  lookupHopsSig:vector  ETV
vector 2550464  Network.dyn_peer[126]  lookupStabilitySig:vector  ETV
vector 2550465  Network.dyn_peer[126]  lookupTimeSig:vector  ETV
vector 2550379  Network.dyn_peer[98]  lookupHopsSig:vector  ETV
vector 2550380  Network.dyn_peer[98]  lookupStabilitySig:vector  ETV
vector 2550381  Network.dyn_peer[98]  lookupTimeSig:vector  ETV
vector 2550292  Network.dyn_peer[69]  lookupHopsSig:vector  ETV
vector 2550293  Network.dyn_peer[69]  lookupStabilitySig:vector  ETV
vector 2550294  Network.dyn_peer[69]  lookupTimeSig:vector  ETV
vector 2550442  Network.dyn_peer[119]  lookupHopsSig:vector  ETV
vector 2550443  Network.dyn_peer[119]  lookupStabilitySig:vector  ETV
vector 2550444  Network.dyn_peer[119]  lookupTimeSig:vector  ETV
vector 2550205  Network.dyn_peer[40]  lookupHopsSig:vector  ETV
vector 2550206  Network.dyn_peer[40]  lookupStabilitySig:vector  ETV
vector 2550207  Network.dyn_peer[40]  lookupTimeSig:vector  ETV
vector 2550217  Network.dyn_peer[44]  lookupHopsSig:vector  ETV
vector 2550218  Network.dyn_peer[44]  lookupStabilitySig:vector  ETV
vector 2550219  Network.dyn_peer[44]  lookupTimeSig:vector  ETV
vector 2550382  Network.dyn_peer[99]  lookupHopsSig:vector  ETV
vector 2550383  Network.dyn_peer[99]  lookupStabilitySig:vector  ETV
vector 2550384  Network.dyn_peer[99]  lookupTimeSig:vector  ETV
vector 2550355  Network.dyn_peer[90]  lookupHopsSig:vector  ETV
vector 2550356  Network.dyn_peer[90]  lookupStabilitySig:vector  ETV
vector 2550357  Network.dyn_peer[90]  lookupTimeSig:vector  ETV
vector 2550358  Network.dyn_peer[91]  lookupHopsSig:vector  ETV
vector 2550359  Network.dyn_peer[91]  lookupStabilitySig:vector  ETV
vector 2550360  Network.dyn_peer[91]  lookupTimeSig:vector  ETV
vector 2550511  Network.dyn_peer[142]  lookupHopsSig:vector  ETV
vector 2550512  Network.dyn_peer[142]  lookupStabilitySig:vector  ETV
vector 2550513  Network.dyn_peer[142]  lookupTimeSig:vector  ETV
vector 2550394  Network.dyn_peer[103]  lookupHopsSig:vector  ETV
vector 2550395  Network.dyn_peer[103]  lookupStabilitySig:vector  ETV
vector 2550396  Network.dyn_peer[103]  lookupTimeSig:vector  ETV
vector 2550424  Network.dyn_peer[113]  lookupHopsSig:vector  ETV
vector 2550425  Network.dyn_peer[113]  lookupStabilitySig:vector  ETV
vector 2550426  Network.dyn_peer[113]  lookupTimeSig:vector  ETV
vector 2550445  Network.dyn_peer[120]  lookupHopsSig:vector  ETV
vector 2550446  Network.dyn_peer[120]  lookupStabilitySig:vector  ETV
vector 2550447  Network.dyn_peer[120]  lookupTimeSig:vector  ETV
vector 2550334  Network.dyn_peer[83]  lookupHopsSig:vector  ETV
vector 2550335  Network.dyn_peer[83]  lookupStabilitySig:vector  ETV
vector 2550336  Network.dyn_peer[83]  lookupTimeSig:vector  ETV
vector 2550454  Network.dyn_peer[123]  lookupHopsSig:vector  ETV
vector 2550455  Network.dyn_peer[123]  lookupStabilitySig:vector  ETV
vector 2550456  Network.dyn_peer[123]  lookupTimeSig:vector  ETV
vector 2550517  Network.dyn_peer[144]  lookupHopsSig:vector  ETV
vector 2550518  Network.dyn_peer[144]  lookupStabilitySig:vector  ETV
vector 2550519  Network.dyn_peer[144]  lookupTimeSig:vector  ETV
vector 2550256  Network.dyn_peer[57]  lookupHopsSig:vector  ETV
vector 2550257  Network.dyn_peer[57]  lookupStabilitySig:vector  ETV
vector 2550258  Network.dyn_peer[57]  lookupTimeSig:vector  ETV
vector 2550532  Network.dyn_peer[149]  lookupHopsSig:vector  ETV
vector 2550533  Network.dyn_peer[149]  lookupStabilitySig:vector  ETV
vector 2550534  Network.dyn_peer[149]  lookupTimeSig:vector  ETV
vector 2550244  Network.dyn_peer[53]  lookupHopsSig:vector  ETV
vector 2550245  Network.dyn_peer[53]  lookupStabilitySig:vector  ETV
vector 2550246  Network.dyn_peer[53]  lookupTimeSig:vector  ETV
vector 2550484  Network.dyn_peer[133]  lookupHopsSig:vector  ETV
vector 2550485  Network.dyn_peer[133]  lookupStabilitySig:vector  ETV
vector 2550486  Network.dyn_peer[133]  lookupTimeSig:vector  ETV
vector 2550490  Network.dyn_peer[135]  lookupHopsSig:vector  ETV
vector 2550491  Network.dyn_peer[135]  lookupStabilitySig:vector  ETV
vector 2550492  Network.dyn_peer[135]  lookupTimeSig:vector  ETV
vector 2550499  Network.dyn_peer[138]  lookupHopsSig:vector  ETV
vector 2550500  Network.dyn_peer[138]  lookupStabilitySig:vector  ETV
vector 2550501  Network.dyn_peer[138]  lookupTimeSig:vector  ETV
vector 2550385  Network.dyn_peer[100]  lookupHopsSig:vector  ETV
vector 2550386  Network.dyn_peer[100]  lookupStabilitySig:vector  ETV
vector 2550387  Network.dyn_peer[100]  lookupTimeSig:vector  ETV
vector 2550328  Network.dyn_peer[81]  lookupHopsSig:vector  ETV
vector 2550329  Network.dyn_peer[81]  lookupStabilitySig:vector  ETV
vector 2550330  Network.dyn_peer[81]  lookupTimeSig:vector  ETV
vector 2550421  Network.dyn_peer[112]  lookupHopsSig:vector  ETV
vector 2550422  Network.dyn_peer[112]  lookupStabilitySig:vector  ETV
vector 2550423  Network.dyn_peer[112]  lookupTimeSig:vector  ETV
vector 2550451  Network.dyn_peer[122]  lookupHopsSig:vector  ETV
vector 2550452  Network.dyn_peer[122]  lookupStabilitySig:vector  ETV
vector 2550453  Network.dyn_peer[122]  lookupTimeSig:vector  ETV
vector 2550457  Network.dyn_peer[124]  lookupHopsSig:vector  ETV
vector 2550458  Network.dyn_peer[124]  lookupStabilitySig:vector  ETV
vector 2550459  Network.dyn_peer[124]  lookupTimeSig:vector  ETV
vector 2550502  Network.dyn_peer[139]  lookupHopsSig:vector  ETV
vector 2550503  Network.dyn_peer[139]  lookupStabilitySig:vector  ETV
vector 2550504  Network.dyn_peer[139]  lookupTimeSig:vector  ETV
vector 2550505  Network.dyn_peer[140]  lookupHopsSig:vector  ETV
vector 2550506  Network.dyn_peer[140]  lookupStabilitySig:vector  ETV
vector 2550507  Network.dyn_peer[140]  lookupTimeSig:vector  ETV
vector 2550448  Network.dyn_peer[121]  lookupHopsSig:vector  ETV
vector 2550449  Network.dyn_peer[121]  lookupStabilitySig:vector  ETV
vector 2550450  Network.dyn_peer[121]  lookupTimeSig:vector  ETV
vector 2550508  Network.dyn_peer[141]  lookupHopsSig:vector  ETV
vector 2550509  Network.dyn_peer[141]  lookupStabilitySig:vector  ETV
vector 2550510  Network.dyn_peer[141]  lookupTimeSig:vector  ETV
vector 2550514  Network.dyn_peer[143]  lookupHopsSig:vector  ETV
vector 2550515  Network.dyn_peer[143]  lookupStabilitySig:vector  ETV
vector 2550516  Network.dyn_peer[143]  lookupTimeSig:vector  ETV
vector 2550337  Network.dyn_peer[84]  lookupHopsSig:vector  ETV
vector 2550338  Network.dyn_peer[84]  lookupStabilitySig:vector  ETV
vector 2550339  Network.dyn_peer[84]  lookupTimeSig:vector  ETV
vector 2550352  Network.dyn_peer[89]  lookupHopsSig:vector  ETV
vector 2550353  Network.dyn_peer[89]  lookupStabilitySig:vector  ETV
vector 2550354  Network.dyn_peer[89]  lookupTimeSig:vector  ETV
vector 2550622  Network.dyn_peer[179]  lookupHopsSig:vector  ETV
vector 2550623  Network.dyn_peer[179]  lookupStabilitySig:vector  ETV
vector 2550624  Network.dyn_peer[179]  lookupTimeSig:vector  ETV
vector 2550295  Network.dyn_peer[70]  lookupHopsSig:vector  ETV
vector 2550296  Network.dyn_peer[70]  lookupStabilitySig:vector  ETV
vector 2550297  Network.dyn_peer[70]  lookupTimeSig:vector  ETV
vector 2550598  Network.dyn_peer[171]  lookupHopsSig:vector  ETV
vector 2550599  Network.dyn_peer[171]  lookupStabilitySig:vector  ETV
vector 2550600  Network.dyn_peer[171]  lookupTimeSig:vector  ETV
vector 2550691  Network.dyn_peer[202]  lookupHopsSig:vector  ETV
vector 2550692  Network.dyn_peer[202]  lookupStabilitySig:vector  ETV
vector 2550693  Network.dyn_peer[202]  lookupTimeSig:vector  ETV
vector 2550400  Network.dyn_peer[105]  lookupHopsSig:vector  ETV
vector 2550401  Network.dyn_peer[105]  lookupStabilitySig:vector  ETV
vector 2550402  Network.dyn_peer[105]  lookupTimeSig:vector  ETV
vector 2550430  Network.dyn_peer[115]  lookupHopsSig:vector  ETV
vector 2550431  Network.dyn_peer[115]  lookupStabilitySig:vector  ETV
vector 2550432  Network.dyn_peer[115]  lookupTimeSig:vector  ETV
vector 2550523  Network.dyn_peer[146]  lookupHopsSig:vector  ETV
vector 2550524  Network.dyn_peer[146]  lookupStabilitySig:vector  ETV
vector 2550525  Network.dyn_peer[146]  lookupTimeSig:vector  ETV
vector 2550376  Network.dyn_peer[97]  lookupHopsSig:vector  ETV
vector 2550377  Network.dyn_peer[97]  lookupStabilitySig:vector  ETV
vector 2550378  Network.dyn_peer[97]  lookupTimeSig:vector  ETV
vector 2550439  Network.dyn_peer[118]  lookupHopsSig:vector  ETV
vector 2550440  Network.dyn_peer[118]  lookupStabilitySig:vector  ETV
vector 2550441  Network.dyn_peer[118]  lookupTimeSig:vector  ETV
vector 2550475  Network.dyn_peer[130]  lookupHopsSig:vector  ETV
vector 2550476  Network.dyn_peer[130]  lookupStabilitySig:vector  ETV
vector 2550477  Network.dyn_peer[130]  lookupTimeSig:vector  ETV
vector 2550478  Network.dyn_peer[131]  lookupHopsSig:vector  ETV
vector 2550479  Network.dyn_peer[131]  lookupStabilitySig:vector  ETV
vector 2550480  Network.dyn_peer[131]  lookupTimeSig:vector  ETV
vector 2550601  Network.dyn_peer[172]  lookupHopsSig:vector  ETV
vector 2550602  Network.dyn_peer[172]  lookupStabilitySig:vector  ETV
vector 2550603  Network.dyn_peer[172]  lookupTimeSig:vector  ETV
vector 2550670  Network.dyn_peer[195]  lookupHopsSig:vector  ETV
vector 2550671  Network.dyn_peer[195]  lookupStabilitySig:vector  ETV
vector 2550672  Network.dyn_peer[195]  lookupTimeSig:vector  ETV
vector 2550343  Network.dyn_peer[86]  lookupHopsSig:vector  ETV
vector 2550344  Network.dyn_peer[86]  lookupStabilitySig:vector  ETV
vector 2550345  Network.dyn_peer[86]  lookupTimeSig:vector  ETV
vector 2550403  Network.dyn_peer[106]  lookupHopsSig:vector  ETV
vector 2550404  Network.dyn_peer[106]  lookupStabilitySig:vector  ETV
vector 2550405  Network.dyn_peer[106]  lookupTimeSig:vector  ETV
vector 2550412  Network.dyn_peer[109]  lookupHopsSig:vector  ETV
vector 2550413  Network.dyn_peer[109]  lookupStabilitySig:vector  ETV
vector 2550414  Network.dyn_peer[109]  lookupTimeSig:vector  ETV
vector 2550325  Network.dyn_peer[80]  lookupHopsSig:vector  ETV
vector 2550326  Network.dyn_peer[80]  lookupStabilitySig:vector  ETV
vector 2550327  Network.dyn_peer[80]  lookupTimeSig:vector  ETV
vector 2550427  Network.dyn_peer[114]  lookupHopsSig:vector  ETV
vector 2550428  Network.dyn_peer[114]  lookupStabilitySig:vector  ETV
vector 2550429  Network.dyn_peer[114]  lookupTimeSig:vector  ETV
vector 2550613  Network.dyn_peer[176]  lookupHopsSig:vector  ETV
vector 2550614  Network.dyn_peer[176]  lookupStabilitySig:vector  ETV
vector 2550615  Network.dyn_peer[176]  lookupTimeSig:vector  ETV
vector 2550706  Network.dyn_peer[207]  lookupHopsSig:vector  ETV
vector 2550707  Network.dyn_peer[207]  lookupStabilitySig:vector  ETV
vector 2550708  Network.dyn_peer[207]  lookupTimeSig:vector  ETV
vector 2550469  Network.dyn_peer[128]  lookupHopsSig:vector  ETV
vector 2550470  Network.dyn_peer[128]  lookupStabilitySig:vector  ETV
vector 2550471  Network.dyn_peer[128]  lookupTimeSig:vector  ETV
vector 2550529  Network.dyn_peer[148]  lookupHopsSig:vector  ETV
vector 2550530  Network.dyn_peer[148]  lookupStabilitySig:vector  ETV
vector 2550531  Network.dyn_peer[148]  lookupTimeSig:vector  ETV
vector 2550415  Network.dyn_peer[110]  lookupHopsSig:vector  ETV
vector 2550416  Network.dyn_peer[110]  lookupStabilitySig:vector  ETV
vector 2550417  Network.dyn_peer[110]  lookupTimeSig:vector  ETV
vector 2550655  Network.dyn_peer[190]  lookupHopsSig:vector  ETV
vector 2550656  Network.dyn_peer[190]  lookupStabilitySig:vector  ETV
vector 2550657  Network.dyn_peer[190]  lookupTimeSig:vector  ETV
vector 2550373  Network.dyn_peer[96]  lookupHopsSig:vector  ETV
vector 2550374  Network.dyn_peer[96]  lookupStabilitySig:vector  ETV
vector 2550375  Network.dyn_peer[96]  lookupTimeSig:vector  ETV
vector 2550673  Network.dyn_peer[196]  lookupHopsSig:vector  ETV
vector 2550674  Network.dyn_peer[196]  lookupStabilitySig:vector  ETV
vector 2550675  Network.dyn_peer[196]  lookupTimeSig:vector  ETV
vector 2550346  Network.dyn_peer[87]  lookupHopsSig:vector  ETV
vector 2550347  Network.dyn_peer[87]  lookupStabilitySig:vector  ETV
vector 2550348  Network.dyn_peer[87]  lookupTimeSig:vector  ETV
vector 2550466  Network.dyn_peer[127]  lookupHopsSig:vector  ETV
vector 2550467  Network.dyn_peer[127]  lookupStabilitySig:vector  ETV
vector 2550468  Network.dyn_peer[127]  lookupTimeSig:vector  ETV
vector 2550496  Network.dyn_peer[137]  lookupHopsSig:vector  ETV
vector 2550497  Network.dyn_peer[137]  lookupStabilitySig:vector  ETV
vector 2550498  Network.dyn_peer[137]  lookupTimeSig:vector  ETV
vector 2550556  Network.dyn_peer[157]  lookupHopsSig:vector  ETV
vector 2550557  Network.dyn_peer[157]  lookupStabilitySig:vector  ETV
vector 2550558  Network.dyn_peer[157]  lookupTimeSig:vector  ETV
vector 2550571  Network.dyn_peer[162]  lookupHopsSig:vector  ETV
vector 2550572  Network.dyn_peer[162]  lookupStabilitySig:vector  ETV
vector 2550573  Network.dyn_peer[162]  lookupTimeSig:vector  ETV
vector 2550460  Network.dyn_peer[125]  lookupHopsSig:vector  ETV
vector 2550461  Network.dyn_peer[125]  lookupStabilitySig:vector  ETV
vector 2550462  Network.dyn_peer[125]  lookupTimeSig:vector  ETV
vector 2550790  Network.dyn_peer[235]  lookupHopsSig:vector  ETV
vector 2550791  Network.dyn_peer[235]  lookupStabilitySig:vector  ETV
vector 2550792  Network.dyn_peer[235]  lookupTimeSig:vector  ETV
vector 2550793  Network.dyn_peer[236]  lookupHopsSig:vector  ETV
vector 2550794  Network.dyn_peer[236]  lookupStabilitySig:vector  ETV
vector 2550795  Network.dyn_peer[236]  lookupTimeSig:vector  ETV
vector 2550436  Network.dyn_peer[117]  lookupHopsSig:vector  ETV
vector 2550437  Network.dyn_peer[117]  lookupStabilitySig:vector  ETV
vector 2550438  Network.dyn_peer[117]  lookupTimeSig:vector  ETV
vector 2550409  Network.dyn_peer[108]  lookupHopsSig:vector  ETV
vector 2550410  Network.dyn_peer[108]  lookupStabilitySig:vector  ETV
vector 2550411  Network.dyn_peer[108]  lookupTimeSig:vector  ETV
vector 2550745  Network.dyn_peer[220]  lookupHopsSig:vector  ETV
vector 2550746  Network.dyn_peer[220]  lookupStabilitySig:vector  ETV
vector 2550747  Network.dyn_peer[220]  lookupTimeSig:vector  ETV
vector 2550274  Network.dyn_peer[63]  lookupHopsSig:vector  ETV
vector 2550275  Network.dyn_peer[63]  lookupStabilitySig:vector  ETV
vector 2550276  Network.dyn_peer[63]  lookupTimeSig:vector  ETV
vector 2550610  Network.dyn_peer[175]  lookupHopsSig:vector  ETV
vector 2550611  Network.dyn_peer[175]  lookupStabilitySig:vector  ETV
vector 2550612  Network.dyn_peer[175]  lookupTimeSig:vector  ETV
vector 2550730  Network.dyn_peer[215]  lookupHopsSig:vector  ETV
vector 2550731  Network.dyn_peer[215]  lookupStabilitySig:vector  ETV
vector 2550732  Network.dyn_peer[215]  lookupTimeSig:vector  ETV
vector 2550820  Network.dyn_peer[245]  lookupHopsSig:vector  ETV
vector 2550821  Network.dyn_peer[245]  lookupStabilitySig:vector  ETV