file 6049706 1369698790                                         
version 2
run Stability2-95-20130528-01:52:09-24168
attr configname Stability2
attr datetime 20130528-01:52:09
attr experiment Stability2
attr inifile omnetpp.ini
attr iterationvars $0=500
attr iterationvars2 "$0=500, $repetition=5"
attr measurement $0=500
attr network Network
attr processid 24168
attr repetition 5
attr replication #5
attr resultdir results
attr runnumber 95
attr seedset 95

vector 2880095  Network.churner  inGoingSizeSig:vector  ETV
vector 2850110  Network.dyn_peer[5]  lookupHopsSig:vector  ETV
vector 2850111  Network.dyn_peer[5]  lookupStabilitySig:vector  ETV
vector 2850112  Network.dyn_peer[5]  lookupTimeSig:vector  ETV
vector 2850098  Network.dyn_peer[1]  lookupHopsSig:vector  ETV
vector 2850099  Network.dyn_peer[1]  lookupStabilitySig:vector  ETV
vector 2850100  Network.dyn_peer[1]  lookupTimeSig:vector  ETV
vector 2850101  Network.dyn_peer[2]  lookupHopsSig:vector  ETV
vector 2850102  Network.dyn_peer[2]  lookupStabilitySig:vector  ETV
vector 2850103  Network.dyn_peer[2]  lookupTimeSig:vector  ETV
vector 2850116  Network.dyn_peer[7]  lookupHopsSig:vector  ETV
vector 2850117  Network.dyn_peer[7]  lookupStabilitySig:vector  ETV
vector 2850118  Network.dyn_peer[7]  lookupTimeSig:vector  ETV
vector 2850119  Network.dyn_peer[8]  lookupHopsSig:vector  ETV
vector 2850120  Network.dyn_peer[8]  lookupStabilitySig:vector  ETV
vector 2850121  Network.dyn_peer[8]  lookupTimeSig:vector  ETV
vector 2850122  Network.dyn_peer[9]  lookupHopsSig:vector  ETV
vector 2850123  Network.dyn_peer[9]  lookupStabilitySig:vector  ETV
vector 2850124  Network.dyn_peer[9]  lookupTimeSig:vector  ETV
vector 2850143  Network.dyn_peer[16]  lookupHopsSig:vector  ETV
vector 2850144  Network.dyn_peer[16]  lookupStabilitySig:vector  ETV
vector 2850145  Network.dyn_peer[16]  lookupTimeSig:vector  ETV
vector 2850146  Network.dyn_peer[17]  lookupHopsSig:vector  ETV
vector 2850147  Network.dyn_peer[17]  lookupStabilitySig:vector  ETV
vector 2850148  Network.dyn_peer[17]  lookupTimeSig:vector  ETV
vector 2850095  Network.dyn_peer[0]  lookupHopsSig:vector  ETV
vector 2850096  Network.dyn_peer[0]  lookupStabilitySig:vector  ETV
vector 2850097  Network.dyn_peer[0]  lookupTimeSig:vector  ETV
vector 2850131  Network.dyn_peer[12]  lookupHopsSig:vector  ETV
vector 2850132  Network.dyn_peer[12]  lookupStabilitySig:vector  ETV
vector 2850133  Network.dyn_peer[12]  lookupTimeSig:vector  ETV
vector 2850134  Network.dyn_peer[13]  lookupHopsSig:vector  ETV
vector 2850135  Network.dyn_peer[13]  lookupStabilitySig:vector  ETV
vector 2850136  Network.dyn_peer[13]  lookupTimeSig:vector  ETV
vector 2850137  Network.dyn_peer[14]  lookupHopsSig:vector  ETV
vector 2850138  Network.dyn_peer[14]  lookupStabilitySig:vector  ETV
vector 2850139  Network.dyn_peer[14]  lookupTimeSig:vector  ETV
vector 2850167  Network.dyn_peer[24]  lookupHopsSig:vector  ETV
vector 2850168  Network.dyn_peer[24]  lookupStabilitySig:vector  ETV
vector 2850169  Network.dyn_peer[24]  lookupTimeSig:vector  ETV
vector 2850140  Network.dyn_peer[15]  lookupHopsSig:vector  ETV
vector 2850141  Network.dyn_peer[15]  lookupStabilitySig:vector  ETV
vector 2850142  Network.dyn_peer[15]  lookupTimeSig:vector  ETV
vector 2850170  Network.dyn_peer[25]  lookupHopsSig:vector  ETV
vector 2850171  Network.dyn_peer[25]  lookupStabilitySig:vector  ETV
vector 2850172  Network.dyn_peer[25]  lookupTimeSig:vector  ETV
vector 2850113  Network.dyn_peer[6]  lookupHopsSig:vector  ETV
vector 2850114  Network.dyn_peer[6]  lookupStabilitySig:vector  ETV
vector 2850115  Network.dyn_peer[6]  lookupTimeSig:vector  ETV
vector 2850173  Network.dyn_peer[26]  lookupHopsSig:vector  ETV
vector 2850174  Network.dyn_peer[26]  lookupStabilitySig:vector  ETV
vector 2850175  Network.dyn_peer[26]  lookupTimeSig:vector  ETV
vector 2850149  Network.dyn_peer[18]  lookupHopsSig:vector  ETV
vector 2850150  Network.dyn_peer[18]  lookupStabilitySig:vector  ETV
vector 2850151  Network.dyn_peer[18]  lookupTimeSig:vector  ETV
vector 2850179  Network.dyn_peer[28]  lookupHopsSig:vector  ETV
vector 2850180  Network.dyn_peer[28]  lookupStabilitySig:vector  ETV
vector 2850181  Network.dyn_peer[28]  lookupTimeSig:vector  ETV
vector 2850155  Network.dyn_peer[20]  lookupHopsSig:vector  ETV
vector 2850156  Network.dyn_peer[20]  lookupStabilitySig:vector  ETV
vector 2850157  Network.dyn_peer[20]  lookupTimeSig:vector  ETV
vector 2850128  Network.dyn_peer[11]  lookupHopsSig:vector  ETV
vector 2850129  Network.dyn_peer[11]  lookupStabilitySig:vector  ETV
vector 2850130  Network.dyn_peer[11]  lookupTimeSig:vector  ETV
vector 2850221  Network.dyn_peer[42]  lookupHopsSig:vector  ETV
vector 2850222  Network.dyn_peer[42]  lookupStabilitySig:vector  ETV
vector 2850223  Network.dyn_peer[42]  lookupTimeSig:vector  ETV
vector 2850104  Network.dyn_peer[3]  lookupHopsSig:vector  ETV
vector 2850105  Network.dyn_peer[3]  lookupStabilitySig:vector  ETV
vector 2850106  Network.dyn_peer[3]  lookupTimeSig:vector  ETV
vector 2850164  Network.dyn_peer[23]  lookupHopsSig:vector  ETV
vector 2850165  Network.dyn_peer[23]  lookupStabilitySig:vector  ETV
vector 2850166  Network.dyn_peer[23]  lookupTimeSig:vector  ETV
vector 2850107  Network.dyn_peer[4]  lookupHopsSig:vector  ETV
vector 2850108  Network.dyn_peer[4]  lookupStabilitySig:vector  ETV
vector 2850109  Network.dyn_peer[4]  lookupTimeSig:vector  ETV
vector 2850185  Network.dyn_peer[30]  lookupHopsSig:vector  ETV
vector 2850186  Network.dyn_peer[30]  lookupStabilitySig:vector  ETV
vector 2850187  Network.dyn_peer[30]  lookupTimeSig:vector  ETV
vector 2850158  Network.dyn_peer[21]  lookupHopsSig:vector  ETV
vector 2850159  Network.dyn_peer[21]  lookupStabilitySig:vector  ETV
vector 2850160  Network.dyn_peer[21]  lookupTimeSig:vector  ETV
vector 2850191  Network.dyn_peer[32]  lookupHopsSig:vector  ETV
vector 2850192  Network.dyn_peer[32]  lookupStabilitySig:vector  ETV
vector 2850193  Network.dyn_peer[32]  lookupTimeSig:vector  ETV
vector 2850224  Network.dyn_peer[43]  lookupHopsSig:vector  ETV
vector 2850225  Network.dyn_peer[43]  lookupStabilitySig:vector  ETV
vector 2850226  Network.dyn_peer[43]  lookupTimeSig:vector  ETV
vector 2850182  Network.dyn_peer[29]  lookupHopsSig:vector  ETV
vector 2850183  Network.dyn_peer[29]  lookupStabilitySig:vector  ETV
vector 2850184  Network.dyn_peer[29]  lookupTimeSig:vector  ETV
vector 2850125  Network.dyn_peer[10]  lookupHopsSig:vector  ETV
vector 2850126  Network.dyn_peer[10]  lookupStabilitySig:vector  ETV
vector 2850127  Network.dyn_peer[10]  lookupTimeSig:vector  ETV
vector 2850248  Network.dyn_peer[51]  lookupHopsSig:vector  ETV
vector 2850249  Network.dyn_peer[51]  lookupStabilitySig:vector  ETV
vector 2850250  Network.dyn_peer[51]  lookupTimeSig:vector  ETV
vector 2850161  Network.dyn_peer[22]  lookupHopsSig:vector  ETV
vector 2850162  Network.dyn_peer[22]  lookupStabilitySig:vector  ETV
vector 2850163  Network.dyn_peer[22]  lookupTimeSig:vector  ETV
vector 2850188  Network.dyn_peer[31]  lookupHopsSig:vector  ETV
vector 2850189  Network.dyn_peer[31]  lookupStabilitySig:vector  ETV
vector 2850190  Network.dyn_peer[31]  lookupTimeSig:vector  ETV
vector 2850200  Network.dyn_peer[35]  lookupHopsSig:vector  ETV
vector 2850201  Network.dyn_peer[35]  lookupStabilitySig:vector  ETV
vector 2850202  Network.dyn_peer[35]  lookupTimeSig:vector  ETV
vector 2850230  Network.dyn_peer[45]  lookupHopsSig:vector  ETV
vector 2850231  Network.dyn_peer[45]  lookupStabilitySig:vector  ETV
vector 2850232  Network.dyn_peer[45]  lookupTimeSig:vector  ETV
vector 2850152  Network.dyn_peer[19]  lookupHopsSig:vector  ETV
vector 2850153  Network.dyn_peer[19]  lookupStabilitySig:vector  ETV
vector 2850154  Network.dyn_peer[19]  lookupTimeSig:vector  ETV
vector 2850212  Network.dyn_peer[39]  lookupHopsSig:vector  ETV
vector 2850213  Network.dyn_peer[39]  lookupStabilitySig:vector  ETV
vector 2850214  Network.dyn_peer[39]  lookupTimeSig:vector  ETV
vector 2850263  Network.dyn_peer[56]  lookupHopsSig:vector  ETV
vector 2850264  Network.dyn_peer[56]  lookupStabilitySig:vector  ETV
vector 2850265  Network.dyn_peer[56]  lookupTimeSig:vector  ETV
vector 2850266  Network.dyn_peer[57]  lookupHopsSig:vector  ETV
vector 2850267  Network.dyn_peer[57]  lookupStabilitySig:vector  ETV
vector 2850268  Network.dyn_peer[57]  lookupTimeSig:vector  ETV
vector 2850275  Network.dyn_peer[60]  lookupHopsSig:vector  ETV
vector 2850276  Network.dyn_peer[60]  lookupStabilitySig:vector  ETV
vector 2850277  Network.dyn_peer[60]  lookupTimeSig:vector  ETV
vector 2850290  Network.dyn_peer[65]  lookupHopsSig:vector  ETV
vector 2850291  Network.dyn_peer[65]  lookupStabilitySig:vector  ETV
vector 2850292  Network.dyn_peer[65]  lookupTimeSig:vector  ETV
vector 2850380  Network.dyn_peer[95]  lookupHopsSig:vector  ETV
vector 2850381  Network.dyn_peer[95]  lookupStabilitySig:vector  ETV
vector 2850382  Network.dyn_peer[95]  lookupTimeSig:vector  ETV
vector 2850203  Network.dyn_peer[36]  lookupHopsSig:vector  ETV
vector 2850204  Network.dyn_peer[36]  lookupStabilitySig:vector  ETV
vector 2850205  Network.dyn_peer[36]  lookupTimeSig:vector  ETV
vector 2850233  Network.dyn_peer[46]  lookupHopsSig:vector  ETV
vector 2850234  Network.dyn_peer[46]  lookupStabilitySig:vector  ETV
vector 2850235  Network.dyn_peer[46]  lookupTimeSig:vector  ETV
vector 2850176  Network.dyn_peer[27]  lookupHopsSig:vector  ETV
vector 2850177  Network.dyn_peer[27]  lookupStabilitySig:vector  ETV
vector 2850178  Network.dyn_peer[27]  lookupTimeSig:vector  ETV
vector 2850242  Network.dyn_peer[49]  lookupHopsSig:vector  ETV
vector 2850243  Network.dyn_peer[49]  lookupStabilitySig:vector  ETV
vector 2850244  Network.dyn_peer[49]  lookupTimeSig:vector  ETV
vector 2850341  Network.dyn_peer[82]  lookupHopsSig:vector  ETV
vector 2850342  Network.dyn_peer[82]  lookupStabilitySig:vector  ETV
vector 2850343  Network.dyn_peer[82]  lookupTimeSig:vector  ETV
vector 2850401  Network.dyn_peer[102]  lookupHopsSig:vector  ETV
vector 2850402  Network.dyn_peer[102]  lookupStabilitySig:vector  ETV
vector 2850403  Network.dyn_peer[102]  lookupTimeSig:vector  ETV
vector 2850257  Network.dyn_peer[54]  lookupHopsSig:vector  ETV
vector 2850258  Network.dyn_peer[54]  lookupStabilitySig:vector  ETV
vector 2850259  Network.dyn_peer[54]  lookupTimeSig:vector  ETV
vector 2850287  Network.dyn_peer[64]  lookupHopsSig:vector  ETV
vector 2850288  Network.dyn_peer[64]  lookupStabilitySig:vector  ETV
vector 2850289  Network.dyn_peer[64]  lookupTimeSig:vector  ETV
vector 2850296  Network.dyn_peer[67]  lookupHopsSig:vector  ETV
vector 2850297  Network.dyn_peer[67]  lookupStabilitySig:vector  ETV
vector 2850298  Network.dyn_peer[67]  lookupTimeSig:vector  ETV
vector 2850209  Network.dyn_peer[38]  lookupHopsSig:vector  ETV
vector 2850210  Network.dyn_peer[38]  lookupStabilitySig:vector  ETV
vector 2850211  Network.dyn_peer[38]  lookupTimeSig:vector  ETV
vector 2850239  Network.dyn_peer[48]  lookupHopsSig:vector  ETV
vector 2850240  Network.dyn_peer[48]  lookupStabilitySig:vector  ETV
vector 2850241  Network.dyn_peer[48]  lookupTimeSig:vector  ETV
vector 2850269  Network.dyn_peer[58]  lookupHopsSig:vector  ETV
vector 2850270  Network.dyn_peer[58]  lookupStabilitySig:vector  ETV
vector 2850271  Network.dyn_peer[58]  lookupTimeSig:vector  ETV
vector 2850245  Network.dyn_peer[50]  lookupHopsSig:vector  ETV
vector 2850246  Network.dyn_peer[50]  lookupStabilitySig:vector  ETV
vector 2850247  Network.dyn_peer[50]  lookupTimeSig:vector  ETV
vector 2850299  Network.dyn_peer[68]  lookupHopsSig:vector  ETV
vector 2850300  Network.dyn_peer[68]  lookupStabilitySig:vector  ETV
vector 2850301  Network.dyn_peer[68]  lookupTimeSig:vector  ETV
vector 2850272  Network.dyn_peer[59]  lookupHopsSig:vector  ETV
vector 2850273  Network.dyn_peer[59]  lookupStabilitySig:vector  ETV
vector 2850274  Network.dyn_peer[59]  lookupTimeSig:vector  ETV
vector 2850395  Network.dyn_peer[100]  lookupHopsSig:vector  ETV
vector 2850396  Network.dyn_peer[100]  lookupStabilitySig:vector  ETV
vector 2850397  Network.dyn_peer[100]  lookupTimeSig:vector  ETV
vector 2850218  Network.dyn_peer[41]  lookupHopsSig:vector  ETV
vector 2850219  Network.dyn_peer[41]  lookupStabilitySig:vector  ETV
vector 2850220  Network.dyn_peer[41]  lookupTimeSig:vector  ETV
vector 2850254  Network.dyn_peer[53]  lookupHopsSig:vector  ETV
vector 2850255  Network.dyn_peer[53]  lookupStabilitySig:vector  ETV
vector 2850256  Network.dyn_peer[53]  lookupTimeSig:vector  ETV
vector 2850260  Network.dyn_peer[55]  lookupHopsSig:vector  ETV
vector 2850261  Network.dyn_peer[55]  lookupStabilitySig:vector  ETV
vector 2850262  Network.dyn_peer[55]  lookupTimeSig:vector  ETV
vector 2850323  Network.dyn_peer[76]  lookupHopsSig:vector  ETV
vector 2850324  Network.dyn_peer[76]  lookupStabilitySig:vector  ETV
vector 2850325  Network.dyn_peer[76]  lookupTimeSig:vector  ETV
vector 2850446  Network.dyn_peer[117]  lookupHopsSig:vector  ETV
vector 2850447  Network.dyn_peer[117]  lookupStabilitySig:vector  ETV
vector 2850448  Network.dyn_peer[117]  lookupTimeSig:vector  ETV
vector 2850422  Network.dyn_peer[109]  lookupHopsSig:vector  ETV
vector 2850423  Network.dyn_peer[109]  lookupStabilitySig:vector  ETV
vector 2850424  Network.dyn_peer[109]  lookupTimeSig:vector  ETV
vector 2850215  Network.dyn_peer[40]  lookupHopsSig:vector  ETV
vector 2850216  Network.dyn_peer[40]  lookupStabilitySig:vector  ETV
vector 2850217  Network.dyn_peer[40]  lookupTimeSig:vector  ETV
vector 2850365  Network.dyn_peer[90]  lookupHopsSig:vector  ETV
vector 2850366  Network.dyn_peer[90]  lookupStabilitySig:vector  ETV
vector 2850367  Network.dyn_peer[90]  lookupTimeSig:vector  ETV
vector 2850197  Network.dyn_peer[34]  lookupHopsSig:vector  ETV
vector 2850198  Network.dyn_peer[34]  lookupStabilitySig:vector  ETV
vector 2850199  Network.dyn_peer[34]  lookupTimeSig:vector  ETV
vector 2850440  Network.dyn_peer[115]  lookupHopsSig:vector  ETV
vector 2850441  Network.dyn_peer[115]  lookupStabilitySig:vector  ETV
vector 2850442  Network.dyn_peer[115]  lookupTimeSig:vector  ETV
vector 2850356  Network.dyn_peer[87]  lookupHopsSig:vector  ETV
vector 2850357  Network.dyn_peer[87]  lookupStabilitySig:vector  ETV
vector 2850358  Network.dyn_peer[87]  lookupTimeSig:vector  ETV
vector 2850386  Network.dyn_peer[97]  lookupHopsSig:vector  ETV
vector 2850387  Network.dyn_peer[97]  lookupStabilitySig:vector  ETV
vector 2850388  Network.dyn_peer[97]  lookupTimeSig:vector  ETV
vector 2850476  Network.dyn_peer[127]  lookupHopsSig:vector  ETV
vector 2850477  Network.dyn_peer[127]  lookupStabilitySig:vector  ETV
vector 2850478  Network.dyn_peer[127]  lookupTimeSig:vector  ETV
vector 2850305  Network.dyn_peer[70]  lookupHopsSig:vector  ETV
vector 2850306  Network.dyn_peer[70]  lookupStabilitySig:vector  ETV
vector 2850307  Network.dyn_peer[70]  lookupTimeSig:vector  ETV
vector 2850425  Network.dyn_peer[110]  lookupHopsSig:vector  ETV
vector 2850426  Network.dyn_peer[110]  lookupStabilitySig:vector  ETV
vector 2850427  Network.dyn_peer[110]  lookupTimeSig:vector  ETV
vector 2850308  Network.dyn_peer[71]  lookupHopsSig:vector  ETV
vector 2850309  Network.dyn_peer[71]  lookupStabilitySig:vector  ETV
vector 2850310  Network.dyn_peer[71]  lookupTimeSig:vector  ETV
vector 2850227  Network.dyn_peer[44]  lookupHopsSig:vector  ETV
vector 2850228  Network.dyn_peer[44]  lookupStabilitySig:vector  ETV
vector 2850229  Network.dyn_peer[44]  lookupTimeSig:vector  ETV
vector 2850377  Network.dyn_peer[94]  lookupHopsSig:vector  ETV
vector 2850378  Network.dyn_peer[94]  lookupStabilitySig:vector  ETV
vector 2850379  Network.dyn_peer[94]  lookupTimeSig:vector  ETV
vector 2850443  Network.dyn_peer[116]  lookupHopsSig:vector  ETV
vector 2850444  Network.dyn_peer[116]  lookupStabilitySig:vector  ETV
vector 2850445  Network.dyn_peer[116]  lookupTimeSig:vector  ETV
vector 2850473  Network.dyn_peer[126]  lookupHopsSig:vector  ETV
vector 2850474  Network.dyn_peer[126]  lookupStabilitySig:vector  ETV
vector 2850475  Network.dyn_peer[126]  lookupTimeSig:vector  ETV
vector 2850326  Network.dyn_peer[77]  lookupHopsSig:vector  ETV
vector 2850327  Network.dyn_peer[77]  lookupStabilitySig:vector  ETV
vector 2850328  Network.dyn_peer[77]  lookupTimeSig:vector  ETV
vector 2850398  Network.dyn_peer[101]  lookupHopsSig:vector  ETV
vector 2850399  Network.dyn_peer[101]  lookupStabilitySig:vector  ETV
vector 2850400  Network.dyn_peer[101]  lookupTimeSig:vector  ETV
vector 2850437  Network.dyn_peer[114]  lookupHopsSig:vector  ETV
vector 2850438  Network.dyn_peer[114]  lookupStabilitySig:vector  ETV
vector 2850439  Network.dyn_peer[114]  lookupTimeSig:vector  ETV
vector 2850293  Network.dyn_peer[66]  lookupHopsSig:vector  ETV
vector 2850294  Network.dyn_peer[66]  lookupStabilitySig:vector  ETV
vector 2850295  Network.dyn_peer[66]  lookupTimeSig:vector  ETV
vector 2850533  Network.dyn_peer[146]  lookupHopsSig:vector  ETV
vector 2850534  Network.dyn_peer[146]  lookupStabilitySig:vector  ETV
vector 2850535  Network.dyn_peer[146]  lookupTimeSig:vector  ETV
vector 2850506  Network.dyn_peer[137]  lookupHopsSig:vector  ETV
vector 2850507  Network.dyn_peer[137]  lookupStabilitySig:vector  ETV
vector 2850508  Network.dyn_peer[137]  lookupTimeSig:vector  ETV
vector 2850389  Network.dyn_peer[98]  lookupHopsSig:vector  ETV
vector 2850390  Network.dyn_peer[98]  lookupStabilitySig:vector  ETV
vector 2850391  Network.dyn_peer[98]  lookupTimeSig:vector  ETV
vector 2850518  Network.dyn_peer[141]  lookupHopsSig:vector  ETV
vector 2850519  Network.dyn_peer[141]  lookupStabilitySig:vector  ETV
vector 2850520  Network.dyn_peer[141]  lookupTimeSig:vector  ETV
vector 2850344  Network.dyn_peer[83]  lookupHopsSig:vector  ETV
vector 2850345  Network.dyn_peer[83]  lookupStabilitySig:vector  ETV
vector 2850346  Network.dyn_peer[83]  lookupTimeSig:vector  ETV
vector 2850467  Network.dyn_peer[124]  lookupHopsSig:vector  ETV
vector 2850468  Network.dyn_peer[124]  lookupStabilitySig:vector  ETV
vector 2850469  Network.dyn_peer[124]  lookupTimeSig:vector  ETV
vector 2850353  Network.dyn_peer[86]  lookupHopsSig:vector  ETV
vector 2850354  Network.dyn_peer[86]  lookupStabilitySig:vector  ETV
vector 2850355  Network.dyn_peer[86]  lookupTimeSig:vector  ETV
vector 2850509  Network.dyn_peer[138]  lookupHopsSig:vector  ETV
vector 2850510  Network.dyn_peer[138]  lookupStabilitySig:vector  ETV
vector 2850511  Network.dyn_peer[138]  lookupTimeSig:vector  ETV
vector 2850332  Network.dyn_peer[79]  lookupHopsSig:vector  ETV
vector 2850333  Network.dyn_peer[79]  lookupStabilitySig:vector  ETV
vector 2850334  Network.dyn_peer[79]  lookupTimeSig:vector  ETV
vector 2850392  Network.dyn_peer[99]  lookupHopsSig:vector  ETV
vector 2850393  Network.dyn_peer[99]  lookupStabilitySig:vector  ETV
vector 2850394  Network.dyn_peer[99]  lookupTimeSig:vector  ETV
vector 2850485  Network.dyn_peer[130]  lookupHopsSig:vector  ETV
vector 2850486  Network.dyn_peer[130]  lookupStabilitySig:vector  ETV
vector 2850487  Network.dyn_peer[130]  lookupTimeSig:vector  ETV
vector 2850338  Network.dyn_peer[81]  lookupHopsSig:vector  ETV
vector 2850339  Network.dyn_peer[81]  lookupStabilitySig:vector  ETV
vector 2850340  Network.dyn_peer[81]  lookupTimeSig:vector  ETV
vector 2850371  Network.dyn_peer[92]  lookupHopsSig:vector  ETV
vector 2850372  Network.dyn_peer[92]  lookupStabilitySig:vector  ETV
vector 2850373  Network.dyn_peer[92]  lookupTimeSig:vector  ETV
vector 2850521  Network.dyn_peer[142]  lookupHopsSig:vector  ETV
vector 2850522  Network.dyn_peer[142]  lookupStabilitySig:vector  ETV
vector 2850523  Network.dyn_peer[142]  lookupTimeSig:vector  ETV
vector 2850194  Network.dyn_peer[33]  lookupHopsSig:vector  ETV
vector 2850195  Network.dyn_peer[33]  lookupStabilitySig:vector  ETV
vector 2850196  Network.dyn_peer[33]  lookupTimeSig:vector  ETV
vector 2850317  Network.dyn_peer[74]  lookupHopsSig:vector  ETV
vector 2850318  Network.dyn_peer[74]  lookupStabilitySig:vector  ETV
vector 2850319  Network.dyn_peer[74]  lookupTimeSig:vector  ETV
vector 2850587  Network.dyn_peer[164]  lookupHopsSig:vector  ETV
vector 2850588  Network.dyn_peer[164]  lookupStabilitySig:vector  ETV
vector 2850589  Network.dyn_peer[164]  lookupTimeSig:vector  ETV
vector 2850449  Network.dyn_peer[118]  lookupHopsSig:vector  ETV
vector 2850450  Network.dyn_peer[118]  lookupStabilitySig:vector  ETV
vector 2850451  Network.dyn_peer[118]  lookupTimeSig:vector  ETV
vector 2850302  Network.dyn_peer[69]  lookupHopsSig:vector  ETV
vector 2850303  Network.dyn_peer[69]  lookupStabilitySig:vector  ETV
vector 2850304  Network.dyn_peer[69]  lookupTimeSig:vector  ETV
vector 2850515  Network.dyn_peer[140]  lookupHopsSig:vector  ETV
vector 2850516  Network.dyn_peer[140]  lookupStabilitySig:vector  ETV
vector 2850517  Network.dyn_peer[140]  lookupTimeSig:vector  ETV
vector 2850548  Network.dyn_peer[151]  lookupHopsSig:vector  ETV
vector 2850549  Network.dyn_peer[151]  lookupStabilitySig:vector  ETV
vector 2850550  Network.dyn_peer[151]  lookupTimeSig:vector  ETV
vector 2850284  Network.dyn_peer[63]  lookupHopsSig:vector  ETV
vector 2850285  Network.dyn_peer[63]  lookupStabilitySig:vector  ETV
vector 2850286  Network.dyn_peer[63]  lookupTimeSig:vector  ETV
vector 2850374  Network.dyn_peer[93]  lookupHopsSig:vector  ETV
vector 2850375  Network.dyn_peer[93]  lookupStabilitySig:vector  ETV
vector 2850376  Network.dyn_peer[93]  lookupTimeSig:vector  ETV
vector 2850530  Network.dyn_peer[145]  lookupHopsSig:vector  ETV
vector 2850531  Network.dyn_peer[145]  lookupStabilitySig:vector  ETV
vector 2850532  Network.dyn_peer[145]  lookupTimeSig:vector  ETV
vector 2850206  Network.dyn_peer[37]  lookupHopsSig:vector  ETV
vector 2850207  Network.dyn_peer[37]  lookupStabilitySig:vector  ETV
vector 2850208  Network.dyn_peer[37]  lookupTimeSig:vector  ETV
vector 2850359  Network.dyn_peer[88]  lookupHopsSig:vector  ETV
vector 2850360  Network.dyn_peer[88]  lookupStabilitySig:vector  ETV
vector 2850361  Network.dyn_peer[88]  lookupTimeSig:vector  ETV
vector 2850452  Network.dyn_peer[119]  lookupHopsSig:vector  ETV
vector 2850453  Network.dyn_peer[119]  lookupStabilitySig:vector  ETV
vector 2850454  Network.dyn_peer[119]  lookupTimeSig:vector  ETV
vector 2850335  Network.dyn_peer[80]  lookupHopsSig:vector  ETV
vector 2850336  Network.dyn_peer[80]  lookupStabilitySig:vector  ETV
vector 2850337  Network.dyn_peer[80]  lookupTimeSig:vector  ETV
vector 2850605  Network.dyn_peer[170]  lookupHopsSig:vector  ETV
vector 2850606  Network.dyn_peer[170]  lookupStabilitySig:vector  ETV
vector 2850607  Network.dyn_peer[170]  lookupTimeSig:vector  ETV
vector 2850278  Network.dyn_peer[61]  lookupHopsSig:vector  ETV
vector 2850279  Network.dyn_peer[61]  lookupStabilitySig:vector  ETV
vector 2850280  Network.dyn_peer[61]  lookupTimeSig:vector  ETV
vector 2850488  Network.dyn_peer[131]  lookupHopsSig:vector  ETV
vector 2850489  Network.dyn_peer[131]  lookupStabilitySig:vector  ETV
vector 2850490  Network.dyn_peer[131]  lookupTimeSig:vector  ETV
vector 2850314  Network.dyn_peer[73]  lookupHopsSig:vector  ETV
vector 2850315  Network.dyn_peer[73]  lookupStabilitySig:vector  ETV
vector 2850316  Network.dyn_peer[73]  lookupTimeSig:vector  ETV
vector 2850347  Network.dyn_peer[84]  lookupHopsSig:vector  ETV
vector 2850348  Network.dyn_peer[84]  lookupStabilitySig:vector  ETV
vector 2850349  Network.dyn_peer[84]  lookupTimeSig:vector  ETV
vector 2850596  Network.dyn_peer[167]  lookupHopsSig:vector  ETV
vector 2850597  Network.dyn_peer[167]  lookupStabilitySig:vector  ETV
vector 2850598  Network.dyn_peer[167]  lookupTimeSig:vector  ETV
vector 2850635  Network.dyn_peer[180]  lookupHopsSig:vector  ETV
vector 2850636  Network.dyn_peer[180]  lookupStabilitySig:vector  ETV
vector 2850637  Network.dyn_peer[180]  lookupTimeSig:vector  ETV
vector 2850281  Network.dyn_peer[62]  lookupHopsSig:vector  ETV
vector 2850282  Network.dyn_peer[62]  lookupStabilitySig:vector  ETV
vector 2850283  Network.dyn_peer[62]  lookupTimeSig:vector  ETV
vector 2850464  Network.dyn_peer[123]  lookupHopsSig:vector  ETV
vector 2850465  Network.dyn_peer[123]  lookupStabilitySig:vector  ETV
vector 2850466  Network.dyn_peer[123]  lookupTimeSig:vector  ETV
vector 2850470  Network.dyn_peer[125]  lookupHopsSig:vector  ETV
vector 2850471  Network.dyn_peer[125]  lookupStabilitySig:vector  ETV
vector 2850472  Network.dyn_peer[125]  lookupTimeSig:vector  ETV
vector 2850653  Network.dyn_peer[186]  lookupHopsSig:vector  ETV
vector 2850654  Network.dyn_peer[186]  lookupStabilitySig:vector  ETV
vector 2850655  Network.dyn_peer[186]  lookupTimeSig:vector  ETV
vector 2850329  Network.dyn_peer[78]  lookupHopsSig:vector  ETV
vector 2850330  Network.dyn_peer[78]  lookupStabilitySig:vector  ETV
vector 2850331  Network.dyn_peer[78]  lookupTimeSig:vector  ETV
vector 2850539  Network.dyn_peer[148]  lookupHopsSig:vector  ETV
vector 2850540  Network.dyn_peer[148]  lookupStabilitySig:vector  ETV
vector 2850541  Network.dyn_peer[148]  lookupTimeSig:vector  ETV
vector 2850362  Network.dyn_peer[89]  lookupHopsSig:vector  ETV
vector 2850363  Network.dyn_peer[89]  lookupStabilitySig:vector  ETV
vector 2850364  Network.dyn_peer[89]  lookupTimeSig:vector  ETV
vector 2850572  Network.dyn_peer[159]  lookupHopsSig:vector  ETV
vector 2850573  Network.dyn_peer[159]  lookupStabilitySig:vector  ETV
vector 2850574  Network.dyn_peer[159]  lookupTimeSig:vector  ETV
vector 2850368  Network.dyn_peer[91]  lookupHopsSig:vector  ETV
vector 2850369  Network.dyn_peer[91]  lookupStabilitySig:vector  ETV
vector 2850370  Network.dyn_peer[91]  lookupTimeSig:vector  ETV
vector 2850491  Network.dyn_peer[132]  lookupHopsSig:vector  ETV
vector 2850492  Network.dyn_peer[132]  lookupStabilitySig:vector  ETV
vector 2850493  Network.dyn_peer[132]  lookupTimeSig:vector  ETV
vector 2850581  Network.dyn_peer[162]  lookupHopsSig:vector  ETV
vector 2850582  Network.dyn_peer[162]  lookupStabilitySig:vector  ETV
vector 2850583  Network.dyn_peer[162]  lookupTimeSig:vector  ETV
vector 2850629  Network.dyn_peer[178]  lookupHopsSig:vector  ETV
vector 2850630  Network.dyn_peer[178]  lookupStabilitySig:vector  ETV
vector 2850631  Network.dyn_peer[178]  lookupTimeSig:vector  ETV
vector 2850311  Network.dyn_peer[72]  lookupHopsSig:vector  ETV
vector 2850312  Network.dyn_peer[72]  lookupStabilitySig:vector  ETV
vector 2850313  Network.dyn_peer[72]  lookupTimeSig:vector  ETV
vector 2850494  Network.dyn_peer[133]  lookupHopsSig:vector  ETV
vector 2850495  Network.dyn_peer[133]  lookupStabilitySig:vector  ETV
vector 2850496  Network.dyn_peer[133]  lookupTimeSig:vector  ETV
vector 2850557  Network.dyn_peer[154]  lookupHopsSig:vector  ETV
vector 2850558  Network.dyn_peer[154]  lookupStabilitySig:vector  ETV
vector 2850559  Network.dyn_peer[154]  lookupTimeSig:vector  ETV
vector 2850617  Network.dyn_peer[174]  lookupHopsSig:vector  ETV
vector 2850618  Network.dyn_peer[174]  lookupStabilitySig:vector  ETV
vector 2850619  Network.dyn_peer[174]  lookupTimeSig:vector  ETV
vector 2850707  Network.dyn_peer[204]  lookupHopsSig:vector  ETV
vector 2850708  Network.dyn_peer[204]  lookupStabilitySig:vector  ETV
vector 2850709  Network.dyn_peer[204]  lookupTimeSig:vector  ETV
vector 2850710  Network.dyn_peer[205]  lookupHopsSig:vector  ETV
vector 2850711  Network.dyn_peer[205]  lookupStabilitySig:vector  ETV
vector 2850712  Network.dyn_peer[205]  lookupTimeSig:vector  ETV
vector 2850593  Network.dyn_peer[166]  lookupHopsSig:vector  ETV
vector 2850594  Network.dyn_peer[166]  lookupStabilitySig:vector  ETV
vector 2850595  Network.dyn_peer[166]  lookupTimeSig:vector  ETV
vector 2850716  Network.dyn_peer[207]  lookupHopsSig:vector  ETV
vector 2850717  Network.dyn_peer[207]  lookupStabilitySig:vector  ETV
vector 2850718  Network.dyn_peer[207]  lookupTimeSig:vector  ETV
vector 2850482  Network.dyn_peer[129]  lookupHopsSig:vector  ETV
vector 2850483  Network.dyn_peer[129]  lookupStabilitySig:vector  ETV
vector 2850484  Network.dyn_peer[129]  lookupTimeSig:vector  ETV
vector 2850503  Network.dyn_peer[136]  lookupHopsSig:vector  ETV
vector 2850504  Network.dyn_peer[136]  lookupStabilitySig:vector  ETV
vector 2850505  Network.dyn_peer[136]  lookupTimeSig:vector  ETV
vector 2850551  Network.dyn_peer[152]  lookupHopsSig:vector  ETV
vector 2850552  Network.dyn_peer[152]  lookupStabilitySig:vector  ETV
vector 2850553  Network.dyn_peer[152]  lookupTimeSig:vector  ETV
vector 2850611  Network.dyn_peer[172]  lookupHopsSig:vector  ETV
vector 2850612  Network.dyn_peer[172]  lookupStabilitySig:vector  ETV
vector 2850613  Network.dyn_peer[172]  lookupTimeSig:vector  ETV
vector 2850554  Network.dyn_peer[153]  lookupHopsSig:vector  ETV
vector 2850555  Network.dyn_peer[153]  lookupStabilitySig:vector  ETV
vector 2850556  Network.dyn_peer[153]  lookupTimeSig:vector  ETV
vector 2850614  Network.dyn_peer[173]  lookupHopsSig:vector  ETV
vector 2850615  Network.dyn_peer[173]  lookupStabilitySig:vector  ETV
vector 2850616  Network.dyn_peer[173]  lookupTimeSig:vector  ETV
vector 2850704  Network.dyn_peer[203]  lookupHopsSig:vector  ETV
vector 2850705  Network.dyn_peer[203]  lookupStabilitySig:vector  ETV
vector 2850706  Network.dyn_peer[203]  lookupTimeSig:vector  ETV
vector 2850527  Network.dyn_peer[144]  lookupHopsSig:vector  ETV
vector 2850528  Network.dyn_peer[144]  lookupStabilitySig:vector  ETV
vector 2850529  Network.dyn_peer[144]  lookupTimeSig:vector  ETV
vector 2850320  Network.dyn_peer[75]  lookupHopsSig:vector  ETV
vector 2850321  Network.dyn_peer[75]  lookupStabilitySig:vector  ETV
vector 2850322  Network.dyn_peer[75]  lookupTimeSig:vector  ETV
vector 2850500  Network.dyn_peer[135]  lookupHopsSig:vector  ETV
vector 2850501  Network.dyn_peer[135]  lookupStabilitySig:vector  ETV
vector 2850502  Network.dyn_peer[135]  lookupTimeSig:vector  ETV
vector 2850413  Network.dyn_peer[106]  lookupHopsSig:vector  ETV
vector 2850414  Network.dyn_peer[106]  lookupStabilitySig:vector  ETV