file 419359 1369697175                                          
version 2
run Stability2-43-20130528-01:26:08-24168
attr configname Stability2
attr datetime 20130528-01:26:08
attr experiment Stability2
attr inifile omnetpp.ini
attr iterationvars $0=50
attr iterationvars2 "$0=50, $repetition=3"
attr measurement $0=50
attr network Network
attr processid 24168
attr repetition 3
attr replication #3
attr resultdir results
attr runnumber 43
attr seedset 43

vector 1320043  Network.churner  inGoingSizeSig:vector  ETV
vector 1290046  Network.dyn_peer[1]  lookupHopsSig:vector  ETV
vector 1290047  Network.dyn_peer[1]  lookupStabilitySig:vector  ETV
vector 1290048  Network.dyn_peer[1]  lookupTimeSig:vector  ETV
vector 1290043  Network.dyn_peer[0]  lookupHopsSig:vector  ETV
vector 1290044  Network.dyn_peer[0]  lookupStabilitySig:vector  ETV
vector 1290045  Network.dyn_peer[0]  lookupTimeSig:vector  ETV
vector 1290076  Network.dyn_peer[11]  lookupHopsSig:vector  ETV
vector 1290077  Network.dyn_peer[11]  lookupStabilitySig:vector  ETV
vector 1290078  Network.dyn_peer[11]  lookupTimeSig:vector  ETV
vector 1290049  Network.dyn_peer[2]  lookupHopsSig:vector  ETV
vector 1290050  Network.dyn_peer[2]  lookupStabilitySig:vector  ETV
vector 1290051  Network.dyn_peer[2]  lookupTimeSig:vector  ETV
vector 1290052  Network.dyn_peer[3]  lookupHopsSig:vector  ETV
vector 1290053  Network.dyn_peer[3]  lookupStabilitySig:vector  ETV
vector 1290054  Network.dyn_peer[3]  lookupTimeSig:vector  ETV
vector 1290058  Network.dyn_peer[5]  lookupHopsSig:vector  ETV
vector 1290059  Network.dyn_peer[5]  lookupStabilitySig:vector  ETV
vector 1290060  Network.dyn_peer[5]  lookupTimeSig:vector  ETV
vector 1290067  Network.dyn_peer[8]  lookupHopsSig:vector  ETV
vector 1290068  Network.dyn_peer[8]  lookupStabilitySig:vector  ETV
vector 1290069  Network.dyn_peer[8]  lookupTimeSig:vector  ETV
vector 1290070  Network.dyn_peer[9]  lookupHopsSig:vector  ETV
vector 1290071  Network.dyn_peer[9]  lookupStabilitySig:vector  ETV
vector 1290072  Network.dyn_peer[9]  lookupTimeSig:vector  ETV
vector 1290079  Network.dyn_peer[12]  lookupHopsSig:vector  ETV
vector 1290080  Network.dyn_peer[12]  lookupStabilitySig:vector  ETV
vector 1290081  Network.dyn_peer[12]  lookupTimeSig:vector  ETV
vector 1290082  Network.dyn_peer[13]  lookupHopsSig:vector  ETV
vector 1290083  Network.dyn_peer[13]  lookupStabilitySig:vector  ETV
vector 1290084  Network.dyn_peer[13]  lookupTimeSig:vector  ETV
vector 1290055  Network.dyn_peer[4]  lookupHopsSig:vector  ETV
vector 1290056  Network.dyn_peer[4]  lookupStabilitySig:vector  ETV
vector 1290057  Network.dyn_peer[4]  lookupTimeSig:vector  ETV
vector 1290118  Network.dyn_peer[25]  lookupHopsSig:vector  ETV
vector 1290119  Network.dyn_peer[25]  lookupStabilitySig:vector  ETV
vector 1290120  Network.dyn_peer[25]  lookupTimeSig:vector  ETV
vector 1290073  Network.dyn_peer[10]  lookupHopsSig:vector  ETV
vector 1290074  Network.dyn_peer[10]  lookupStabilitySig:vector  ETV
vector 1290075  Network.dyn_peer[10]  lookupTimeSig:vector  ETV
vector 1290136  Network.dyn_peer[31]  lookupHopsSig:vector  ETV
vector 1290137  Network.dyn_peer[31]  lookupStabilitySig:vector  ETV
vector 1290138  Network.dyn_peer[31]  lookupTimeSig:vector  ETV
vector 1290085  Network.dyn_peer[14]  lookupHopsSig:vector  ETV
vector 1290086  Network.dyn_peer[14]  lookupStabilitySig:vector  ETV
vector 1290087  Network.dyn_peer[14]  lookupTimeSig:vector  ETV
vector 1290088  Network.dyn_peer[15]  lookupHopsSig:vector  ETV
vector 1290089  Network.dyn_peer[15]  lookupStabilitySig:vector  ETV
vector 1290090  Network.dyn_peer[15]  lookupTimeSig:vector  ETV
vector 1290121  Network.dyn_peer[26]  lookupHopsSig:vector  ETV
vector 1290122  Network.dyn_peer[26]  lookupStabilitySig:vector  ETV
vector 1290123  Network.dyn_peer[26]  lookupTimeSig:vector  ETV
vector 1290127  Network.dyn_peer[28]  lookupHopsSig:vector  ETV
vector 1290128  Network.dyn_peer[28]  lookupStabilitySig:vector  ETV
vector 1290129  Network.dyn_peer[28]  lookupTimeSig:vector  ETV
vector 1290100  Network.dyn_peer[19]  lookupHopsSig:vector  ETV
vector 1290101  Network.dyn_peer[19]  lookupStabilitySig:vector  ETV
vector 1290102  Network.dyn_peer[19]  lookupTimeSig:vector  ETV
vector 1290112  Network.dyn_peer[23]  lookupHopsSig:vector  ETV
vector 1290113  Network.dyn_peer[23]  lookupStabilitySig:vector  ETV
vector 1290114  Network.dyn_peer[23]  lookupTimeSig:vector  ETV
vector 1290061  Network.dyn_peer[6]  lookupHopsSig:vector  ETV
vector 1290062  Network.dyn_peer[6]  lookupStabilitySig:vector  ETV
vector 1290063  Network.dyn_peer[6]  lookupTimeSig:vector  ETV
vector 1290151  Network.dyn_peer[36]  lookupHopsSig:vector  ETV
vector 1290152  Network.dyn_peer[36]  lookupStabilitySig:vector  ETV
vector 1290153  Network.dyn_peer[36]  lookupTimeSig:vector  ETV
vector 1290190  Network.dyn_peer[49]  lookupHopsSig:vector  ETV
vector 1290191  Network.dyn_peer[49]  lookupStabilitySig:vector  ETV
vector 1290192  Network.dyn_peer[49]  lookupTimeSig:vector  ETV
vector 1290109  Network.dyn_peer[22]  lookupHopsSig:vector  ETV
vector 1290110  Network.dyn_peer[22]  lookupStabilitySig:vector  ETV
vector 1290111  Network.dyn_peer[22]  lookupTimeSig:vector  ETV
vector 1290148  Network.dyn_peer[35]  lookupHopsSig:vector  ETV
vector 1290149  Network.dyn_peer[35]  lookupStabilitySig:vector  ETV
vector 1290150  Network.dyn_peer[35]  lookupTimeSig:vector  ETV
vector 1290091  Network.dyn_peer[16]  lookupHopsSig:vector  ETV
vector 1290092  Network.dyn_peer[16]  lookupStabilitySig:vector  ETV
vector 1290093  Network.dyn_peer[16]  lookupTimeSig:vector  ETV
vector 1290094  Network.dyn_peer[17]  lookupHopsSig:vector  ETV
vector 1290095  Network.dyn_peer[17]  lookupStabilitySig:vector  ETV
vector 1290096  Network.dyn_peer[17]  lookupTimeSig:vector  ETV
vector 1290160  Network.dyn_peer[39]  lookupHopsSig:vector  ETV
vector 1290161  Network.dyn_peer[39]  lookupStabilitySig:vector  ETV
vector 1290162  Network.dyn_peer[39]  lookupTimeSig:vector  ETV
vector 1290106  Network.dyn_peer[21]  lookupHopsSig:vector  ETV
vector 1290107  Network.dyn_peer[21]  lookupStabilitySig:vector  ETV
vector 1290108  Network.dyn_peer[21]  lookupTimeSig:vector  ETV
vector 1290172  Network.dyn_peer[43]  lookupHopsSig:vector  ETV
vector 1290173  Network.dyn_peer[43]  lookupStabilitySig:vector  ETV
vector 1290174  Network.dyn_peer[43]  lookupTimeSig:vector  ETV
vector 1290202  Network.dyn_peer[53]  lookupHopsSig:vector  ETV
vector 1290203  Network.dyn_peer[53]  lookupStabilitySig:vector  ETV
vector 1290204  Network.dyn_peer[53]  lookupTimeSig:vector  ETV
vector 1290145  Network.dyn_peer[34]  lookupHopsSig:vector  ETV
vector 1290146  Network.dyn_peer[34]  lookupStabilitySig:vector  ETV
vector 1290147  Network.dyn_peer[34]  lookupTimeSig:vector  ETV
vector 1290178  Network.dyn_peer[45]  lookupHopsSig:vector  ETV
vector 1290179  Network.dyn_peer[45]  lookupStabilitySig:vector  ETV
vector 1290180  Network.dyn_peer[45]  lookupTimeSig:vector  ETV
vector 1290064  Network.dyn_peer[7]  lookupHopsSig:vector  ETV
vector 1290065  Network.dyn_peer[7]  lookupStabilitySig:vector  ETV
vector 1290066  Network.dyn_peer[7]  lookupTimeSig:vector  ETV
vector 1290163  Network.dyn_peer[40]  lookupHopsSig:vector  ETV
vector 1290164  Network.dyn_peer[40]  lookupStabilitySig:vector  ETV
vector 1290165  Network.dyn_peer[40]  lookupTimeSig:vector  ETV
vector 1290193  Network.dyn_peer[50]  lookupHopsSig:vector  ETV
vector 1290194  Network.dyn_peer[50]  lookupStabilitySig:vector  ETV
vector 1290195  Network.dyn_peer[50]  lookupTimeSig:vector  ETV
vector 1290166  Network.dyn_peer[41]  lookupHopsSig:vector  ETV
vector 1290167  Network.dyn_peer[41]  lookupStabilitySig:vector  ETV
vector 1290168  Network.dyn_peer[41]  lookupTimeSig:vector  ETV
vector 1290229  Network.dyn_peer[62]  lookupHopsSig:vector  ETV
vector 1290230  Network.dyn_peer[62]  lookupStabilitySig:vector  ETV
vector 1290231  Network.dyn_peer[62]  lookupTimeSig:vector  ETV
vector 1290130  Network.dyn_peer[29]  lookupHopsSig:vector  ETV
vector 1290131  Network.dyn_peer[29]  lookupStabilitySig:vector  ETV
vector 1290132  Network.dyn_peer[29]  lookupTimeSig:vector  ETV
vector 1290283  Network.dyn_peer[80]  lookupHopsSig:vector  ETV
vector 1290284  Network.dyn_peer[80]  lookupStabilitySig:vector  ETV
vector 1290285  Network.dyn_peer[80]  lookupTimeSig:vector  ETV
vector 1290139  Network.dyn_peer[32]  lookupHopsSig:vector  ETV
vector 1290140  Network.dyn_peer[32]  lookupStabilitySig:vector  ETV
vector 1290141  Network.dyn_peer[32]  lookupTimeSig:vector  ETV
vector 1290205  Network.dyn_peer[54]  lookupHopsSig:vector  ETV
vector 1290206  Network.dyn_peer[54]  lookupStabilitySig:vector  ETV
vector 1290207  Network.dyn_peer[54]  lookupTimeSig:vector  ETV
vector 1290208  Network.dyn_peer[55]  lookupHopsSig:vector  ETV
vector 1290209  Network.dyn_peer[55]  lookupStabilitySig:vector  ETV
vector 1290210  Network.dyn_peer[55]  lookupTimeSig:vector  ETV
vector 1290097  Network.dyn_peer[18]  lookupHopsSig:vector  ETV
vector 1290098  Network.dyn_peer[18]  lookupStabilitySig:vector  ETV
vector 1290099  Network.dyn_peer[18]  lookupTimeSig:vector  ETV
vector 1290259  Network.dyn_peer[72]  lookupHopsSig:vector  ETV
vector 1290260  Network.dyn_peer[72]  lookupStabilitySig:vector  ETV
vector 1290261  Network.dyn_peer[72]  lookupTimeSig:vector  ETV
vector 1290175  Network.dyn_peer[44]  lookupHopsSig:vector  ETV
vector 1290176  Network.dyn_peer[44]  lookupStabilitySig:vector  ETV
vector 1290177  Network.dyn_peer[44]  lookupTimeSig:vector  ETV
vector 1290181  Network.dyn_peer[46]  lookupHopsSig:vector  ETV
vector 1290182  Network.dyn_peer[46]  lookupStabilitySig:vector  ETV
vector 1290183  Network.dyn_peer[46]  lookupTimeSig:vector  ETV
vector 1290271  Network.dyn_peer[76]  lookupHopsSig:vector  ETV
vector 1290272  Network.dyn_peer[76]  lookupStabilitySig:vector  ETV
vector 1290273  Network.dyn_peer[76]  lookupTimeSig:vector  ETV
vector 1290277  Network.dyn_peer[78]  lookupHopsSig:vector  ETV
vector 1290278  Network.dyn_peer[78]  lookupStabilitySig:vector  ETV
vector 1290279  Network.dyn_peer[78]  lookupTimeSig:vector  ETV
vector 1290319  Network.dyn_peer[92]  lookupHopsSig:vector  ETV
vector 1290320  Network.dyn_peer[92]  lookupStabilitySig:vector  ETV
vector 1290321  Network.dyn_peer[92]  lookupTimeSig:vector  ETV
vector 1290262  Network.dyn_peer[73]  lookupHopsSig:vector  ETV
vector 1290263  Network.dyn_peer[73]  lookupStabilitySig:vector  ETV
vector 1290264  Network.dyn_peer[73]  lookupTimeSig:vector  ETV
vector 1290295  Network.dyn_peer[84]  lookupHopsSig:vector  ETV
vector 1290296  Network.dyn_peer[84]  lookupStabilitySig:vector  ETV
vector 1290297  Network.dyn_peer[84]  lookupTimeSig:vector  ETV
vector 1290268  Network.dyn_peer[75]  lookupHopsSig:vector  ETV
vector 1290269  Network.dyn_peer[75]  lookupStabilitySig:vector  ETV
vector 1290270  Network.dyn_peer[75]  lookupTimeSig:vector  ETV
vector 1290211  Network.dyn_peer[56]  lookupHopsSig:vector  ETV
vector 1290212  Network.dyn_peer[56]  lookupStabilitySig:vector  ETV
vector 1290213  Network.dyn_peer[56]  lookupTimeSig:vector  ETV
vector 1290253  Network.dyn_peer[70]  lookupHopsSig:vector  ETV
vector 1290254  Network.dyn_peer[70]  lookupStabilitySig:vector  ETV
vector 1290255  Network.dyn_peer[70]  lookupTimeSig:vector  ETV
vector 1290169  Network.dyn_peer[42]  lookupHopsSig:vector  ETV
vector 1290170  Network.dyn_peer[42]  lookupStabilitySig:vector  ETV
vector 1290171  Network.dyn_peer[42]  lookupTimeSig:vector  ETV
vector 1290232  Network.dyn_peer[63]  lookupHopsSig:vector  ETV
vector 1290233  Network.dyn_peer[63]  lookupStabilitySig:vector  ETV
vector 1290234  Network.dyn_peer[63]  lookupTimeSig:vector  ETV
vector 1290241  Network.dyn_peer[66]  lookupHopsSig:vector  ETV
vector 1290242  Network.dyn_peer[66]  lookupStabilitySig:vector  ETV
vector 1290243  Network.dyn_peer[66]  lookupTimeSig:vector  ETV
vector 1290220  Network.dyn_peer[59]  lookupHopsSig:vector  ETV
vector 1290221  Network.dyn_peer[59]  lookupStabilitySig:vector  ETV
vector 1290222  Network.dyn_peer[59]  lookupTimeSig:vector  ETV
vector 1290256  Network.dyn_peer[71]  lookupHopsSig:vector  ETV
vector 1290257  Network.dyn_peer[71]  lookupStabilitySig:vector  ETV
vector 1290258  Network.dyn_peer[71]  lookupTimeSig:vector  ETV
vector 1290382  Network.dyn_peer[113]  lookupHopsSig:vector  ETV
vector 1290383  Network.dyn_peer[113]  lookupStabilitySig:vector  ETV
vector 1290384  Network.dyn_peer[113]  lookupTimeSig:vector  ETV
vector 1290265  Network.dyn_peer[74]  lookupHopsSig:vector  ETV
vector 1290266  Network.dyn_peer[74]  lookupStabilitySig:vector  ETV
vector 1290267  Network.dyn_peer[74]  lookupTimeSig:vector  ETV
vector 1290325  Network.dyn_peer[94]  lookupHopsSig:vector  ETV
vector 1290326  Network.dyn_peer[94]  lookupStabilitySig:vector  ETV
vector 1290327  Network.dyn_peer[94]  lookupTimeSig:vector  ETV
vector 1290298  Network.dyn_peer[85]  lookupHopsSig:vector  ETV
vector 1290299  Network.dyn_peer[85]  lookupStabilitySig:vector  ETV
vector 1290300  Network.dyn_peer[85]  lookupTimeSig:vector  ETV
vector 1290304  Network.dyn_peer[87]  lookupHopsSig:vector  ETV
vector 1290305  Network.dyn_peer[87]  lookupStabilitySig:vector  ETV
vector 1290306  Network.dyn_peer[87]  lookupTimeSig:vector  ETV
vector 1290187  Network.dyn_peer[48]  lookupHopsSig:vector  ETV
vector 1290188  Network.dyn_peer[48]  lookupStabilitySig:vector  ETV
vector 1290189  Network.dyn_peer[48]  lookupTimeSig:vector  ETV
vector 1290247  Network.dyn_peer[68]  lookupHopsSig:vector  ETV
vector 1290248  Network.dyn_peer[68]  lookupStabilitySig:vector  ETV
vector 1290249  Network.dyn_peer[68]  lookupTimeSig:vector  ETV
vector 1290367  Network.dyn_peer[108]  lookupHopsSig:vector  ETV
vector 1290368  Network.dyn_peer[108]  lookupStabilitySig:vector  ETV
vector 1290369  Network.dyn_peer[108]  lookupTimeSig:vector  ETV
vector 1290376  Network.dyn_peer[111]  lookupHopsSig:vector  ETV
vector 1290377  Network.dyn_peer[111]  lookupStabilitySig:vector  ETV
vector 1290378  Network.dyn_peer[111]  lookupTimeSig:vector  ETV
vector 1290235  Network.dyn_peer[64]  lookupHopsSig:vector  ETV
vector 1290236  Network.dyn_peer[64]  lookupStabilitySig:vector  ETV
vector 1290237  Network.dyn_peer[64]  lookupTimeSig:vector  ETV
vector 1290445  Network.dyn_peer[134]  lookupHopsSig:vector  ETV
vector 1290446  Network.dyn_peer[134]  lookupStabilitySig:vector  ETV
vector 1290447  Network.dyn_peer[134]  lookupTimeSig:vector  ETV
vector 1290238  Network.dyn_peer[65]  lookupHopsSig:vector  ETV
vector 1290239  Network.dyn_peer[65]  lookupStabilitySig:vector  ETV
vector 1290240  Network.dyn_peer[65]  lookupTimeSig:vector  ETV
vector 1290334  Network.dyn_peer[97]  lookupHopsSig:vector  ETV
vector 1290335  Network.dyn_peer[97]  lookupStabilitySig:vector  ETV
vector 1290336  Network.dyn_peer[97]  lookupTimeSig:vector  ETV
vector 1290103  Network.dyn_peer[20]  lookupHopsSig:vector  ETV
vector 1290104  Network.dyn_peer[20]  lookupStabilitySig:vector  ETV
vector 1290105  Network.dyn_peer[20]  lookupTimeSig:vector  ETV
vector 1290196  Network.dyn_peer[51]  lookupHopsSig:vector  ETV
vector 1290197  Network.dyn_peer[51]  lookupStabilitySig:vector  ETV
vector 1290198  Network.dyn_peer[51]  lookupTimeSig:vector  ETV
vector 1290226  Network.dyn_peer[61]  lookupHopsSig:vector  ETV
vector 1290227  Network.dyn_peer[61]  lookupStabilitySig:vector  ETV
vector 1290228  Network.dyn_peer[61]  lookupTimeSig:vector  ETV
vector 1290346  Network.dyn_peer[101]  lookupHopsSig:vector  ETV
vector 1290347  Network.dyn_peer[101]  lookupStabilitySig:vector  ETV
vector 1290348  Network.dyn_peer[101]  lookupTimeSig:vector  ETV
vector 1290289  Network.dyn_peer[82]  lookupHopsSig:vector  ETV
vector 1290290  Network.dyn_peer[82]  lookupStabilitySig:vector  ETV
vector 1290291  Network.dyn_peer[82]  lookupTimeSig:vector  ETV
vector 1290322  Network.dyn_peer[93]  lookupHopsSig:vector  ETV
vector 1290323  Network.dyn_peer[93]  lookupStabilitySig:vector  ETV
vector 1290324  Network.dyn_peer[93]  lookupTimeSig:vector  ETV
vector 1290358  Network.dyn_peer[105]  lookupHopsSig:vector  ETV
vector 1290359  Network.dyn_peer[105]  lookupStabilitySig:vector  ETV
vector 1290360  Network.dyn_peer[105]  lookupTimeSig:vector  ETV
vector 1290157  Network.dyn_peer[38]  lookupHopsSig:vector  ETV
vector 1290158  Network.dyn_peer[38]  lookupStabilitySig:vector  ETV
vector 1290159  Network.dyn_peer[38]  lookupTimeSig:vector  ETV
vector 1290223  Network.dyn_peer[60]  lookupHopsSig:vector  ETV
vector 1290224  Network.dyn_peer[60]  lookupStabilitySig:vector  ETV
vector 1290225  Network.dyn_peer[60]  lookupTimeSig:vector  ETV
vector 1290313  Network.dyn_peer[90]  lookupHopsSig:vector  ETV
vector 1290314  Network.dyn_peer[90]  lookupStabilitySig:vector  ETV
vector 1290315  Network.dyn_peer[90]  lookupTimeSig:vector  ETV
vector 1290199  Network.dyn_peer[52]  lookupHopsSig:vector  ETV
vector 1290200  Network.dyn_peer[52]  lookupStabilitySig:vector  ETV
vector 1290201  Network.dyn_peer[52]  lookupTimeSig:vector  ETV
vector 1290328  Network.dyn_peer[95]  lookupHopsSig:vector  ETV
vector 1290329  Network.dyn_peer[95]  lookupStabilitySig:vector  ETV
vector 1290330  Network.dyn_peer[95]  lookupTimeSig:vector  ETV
vector 1290361  Network.dyn_peer[106]  lookupHopsSig:vector  ETV
vector 1290362  Network.dyn_peer[106]  lookupStabilitySig:vector  ETV
vector 1290363  Network.dyn_peer[106]  lookupTimeSig:vector  ETV
vector 1290214  Network.dyn_peer[57]  lookupHopsSig:vector  ETV
vector 1290215  Network.dyn_peer[57]  lookupStabilitySig:vector  ETV
vector 1290216  Network.dyn_peer[57]  lookupTimeSig:vector  ETV
vector 1290244  Network.dyn_peer[67]  lookupHopsSig:vector  ETV
vector 1290245  Network.dyn_peer[67]  lookupStabilitySig:vector  ETV
vector 1290246  Network.dyn_peer[67]  lookupTimeSig:vector  ETV
vector 1290454  Network.dyn_peer[137]  lookupHopsSig:vector  ETV
vector 1290455  Network.dyn_peer[137]  lookupStabilitySig:vector  ETV
vector 1290456  Network.dyn_peer[137]  lookupTimeSig:vector  ETV
vector 1290310  Network.dyn_peer[89]  lookupHopsSig:vector  ETV
vector 1290311  Network.dyn_peer[89]  lookupStabilitySig:vector  ETV
vector 1290312  Network.dyn_peer[89]  lookupTimeSig:vector  ETV
vector 1290343  Network.dyn_peer[100]  lookupHopsSig:vector  ETV
vector 1290344  Network.dyn_peer[100]  lookupStabilitySig:vector  ETV
vector 1290345  Network.dyn_peer[100]  lookupTimeSig:vector  ETV
vector 1290373  Network.dyn_peer[110]  lookupHopsSig:vector  ETV
vector 1290374  Network.dyn_peer[110]  lookupStabilitySig:vector  ETV
vector 1290375  Network.dyn_peer[110]  lookupTimeSig:vector  ETV
vector 1290115  Network.dyn_peer[24]  lookupHopsSig:vector  ETV
vector 1290116  Network.dyn_peer[24]  lookupStabilitySig:vector  ETV
vector 1290117  Network.dyn_peer[24]  lookupTimeSig:vector  ETV
vector 1290301  Network.dyn_peer[86]  lookupHopsSig:vector  ETV
vector 1290302  Network.dyn_peer[86]  lookupStabilitySig:vector  ETV
vector 1290303  Network.dyn_peer[86]  lookupTimeSig:vector  ETV
vector 1290124  Network.dyn_peer[27]  lookupHopsSig:vector  ETV
vector 1290125  Network.dyn_peer[27]  lookupStabilitySig:vector  ETV
vector 1290126  Network.dyn_peer[27]  lookupTimeSig:vector  ETV
vector 1290370  Network.dyn_peer[109]  lookupHopsSig:vector  ETV
vector 1290371  Network.dyn_peer[109]  lookupStabilitySig:vector  ETV
vector 1290372  Network.dyn_peer[109]  lookupTimeSig:vector  ETV
vector 1290292  Network.dyn_peer[83]  lookupHopsSig:vector  ETV
vector 1290293  Network.dyn_peer[83]  lookupStabilitySig:vector  ETV
vector 1290294  Network.dyn_peer[83]  lookupTimeSig:vector  ETV
vector 1290448  Network.dyn_peer[135]  lookupHopsSig:vector  ETV
vector 1290449  Network.dyn_peer[135]  lookupStabilitySig:vector  ETV
vector 1290450  Network.dyn_peer[135]  lookupTimeSig:vector  ETV
vector 1290511  Network.dyn_peer[156]  lookupHopsSig:vector  ETV
vector 1290512  Network.dyn_peer[156]  lookupStabilitySig:vector  ETV
vector 1290513  Network.dyn_peer[156]  lookupTimeSig:vector  ETV
vector 1290274  Network.dyn_peer[77]  lookupHopsSig:vector  ETV
vector 1290275  Network.dyn_peer[77]  lookupStabilitySig:vector  ETV
vector 1290276  Network.dyn_peer[77]  lookupTimeSig:vector  ETV
vector 1290400  Network.dyn_peer[119]  lookupHopsSig:vector  ETV
vector 1290401  Network.dyn_peer[119]  lookupStabilitySig:vector  ETV
vector 1290402  Network.dyn_peer[119]  lookupTimeSig:vector  ETV
vector 1290430  Network.dyn_peer[129]  lookupHopsSig:vector  ETV
vector 1290431  Network.dyn_peer[129]  lookupStabilitySig:vector  ETV
vector 1290432  Network.dyn_peer[129]  lookupTimeSig:vector  ETV
vector 1290490  Network.dyn_peer[149]  lookupHopsSig:vector  ETV
vector 1290491  Network.dyn_peer[149]  lookupStabilitySig:vector  ETV
vector 1290492  Network.dyn_peer[149]  lookupTimeSig:vector  ETV
vector 1290133  Network.dyn_peer[30]  lookupHopsSig:vector  ETV
vector 1290134  Network.dyn_peer[30]  lookupStabilitySig:vector  ETV
vector 1290135  Network.dyn_peer[30]  lookupTimeSig:vector  ETV
vector 1290316  Network.dyn_peer[91]  lookupHopsSig:vector  ETV
vector 1290317  Network.dyn_peer[91]  lookupStabilitySig:vector  ETV
vector 1290318  Network.dyn_peer[91]  lookupTimeSig:vector  ETV
vector 1290352  Network.dyn_peer[103]  lookupHopsSig:vector  ETV
vector 1290353  Network.dyn_peer[103]  lookupStabilitySig:vector  ETV
vector 1290354  Network.dyn_peer[103]  lookupTimeSig:vector  ETV
vector 1290475  Network.dyn_peer[144]  lookupHopsSig:vector  ETV
vector 1290476  Network.dyn_peer[144]  lookupStabilitySig:vector  ETV
vector 1290477  Network.dyn_peer[144]  lookupTimeSig:vector  ETV
vector 1290508  Network.dyn_peer[155]  lookupHopsSig:vector  ETV
vector 1290509  Network.dyn_peer[155]  lookupStabilitySig:vector  ETV
vector 1290510  Network.dyn_peer[155]  lookupTimeSig:vector  ETV
vector 1290154  Network.dyn_peer[37]  lookupHopsSig:vector  ETV
vector 1290155  Network.dyn_peer[37]  lookupStabilitySig:vector  ETV
vector 1290156  Network.dyn_peer[37]  lookupTimeSig:vector  ETV
vector 1290250  Network.dyn_peer[69]  lookupHopsSig:vector  ETV
vector 1290251  Network.dyn_peer[69]  lookupStabilitySig:vector  ETV
vector 1290252  Network.dyn_peer[69]  lookupTimeSig:vector  ETV
vector 1290526  Network.dyn_peer[161]  lookupHopsSig:vector  ETV
vector 1290527  Network.dyn_peer[161]  lookupStabilitySig:vector  ETV
vector 1290528  Network.dyn_peer[161]  lookupTimeSig:vector  ETV
vector 1290505  Network.dyn_peer[154]  lookupHopsSig:vector  ETV
vector 1290506  Network.dyn_peer[154]  lookupStabilitySig:vector  ETV
vector 1290507  Network.dyn_peer[154]  lookupTimeSig:vector  ETV
vector 1290565  Network.dyn_peer[174]  lookupHopsSig:vector  ETV
vector 1290566  Network.dyn_peer[174]  lookupStabilitySig:vector  ETV
vector 1290567  Network.dyn_peer[174]  lookupTimeSig:vector  ETV
vector 1290388  Network.dyn_peer[115]  lookupHopsSig:vector  ETV
vector 1290389  Network.dyn_peer[115]  lookupStabilitySig:vector  ETV
vector 1290390  Network.dyn_peer[115]  lookupTimeSig:vector  ETV
vector 1290541  Network.dyn_peer[166]  lookupHopsSig:vector  ETV
vector 1290542  Network.dyn_peer[166]  lookupStabilitySig:vector  ETV
vector 1290543  Network.dyn_peer[166]  lookupTimeSig:vector  ETV
vector 1290463  Network.dyn_peer[140]  lookupHopsSig:vector  ETV
vector 1290464  Network.dyn_peer[140]  lookupStabilitySig:vector  ETV
vector 1290465  Network.dyn_peer[140]  lookupTimeSig:vector  ETV
vector 1290586  Network.dyn_peer[181]  lookupHopsSig:vector  ETV
vector 1290587  Network.dyn_peer[181]  lookupStabilitySig:vector  ETV
vector 1290588  Network.dyn_peer[181]  lookupTimeSig:vector  ETV
vector 1290142  Network.dyn_peer[33]  lookupHopsSig:vector  ETV
vector 1290143  Network.dyn_peer[33]  lookupStabilitySig:vector  ETV
vector 1290144  Network.dyn_peer[33]  lookupTimeSig:vector  ETV
vector 1290442  Network.dyn_peer[133]  lookupHopsSig:vector  ETV
vector 1290443  Network.dyn_peer[133]  lookupStabilitySig:vector  ETV
vector 1290444  Network.dyn_peer[133]  lookupTimeSig:vector  ETV
vector 1290364  Network.dyn_peer[107]  lookupHopsSig:vector  ETV
vector 1290365  Network.dyn_peer[107]  lookupStabilitySig:vector  ETV
vector 1290366  Network.dyn_peer[107]  lookupTimeSig:vector  ETV
vector 1290589  Network.dyn_peer[182]  lookupHopsSig:vector  ETV
vector 1290590  Network.dyn_peer[182]  lookupStabilitySig:vector  ETV
vector 1290591  Network.dyn_peer[182]  lookupTimeSig:vector  ETV
vector 1290532  Network.dyn_peer[163]  lookupHopsSig:vector  ETV
vector 1290533  Network.dyn_peer[163]  lookupStabilitySig:vector  ETV
vector 1290534  Network.dyn_peer[163]  lookupTimeSig:vector  ETV
vector 1290418  Network.dyn_peer[125]  lookupHopsSig:vector  ETV
vector 1290419  Network.dyn_peer[125]  lookupStabilitySig:vector  ETV
vector 1290420  Network.dyn_peer[125]  lookupTimeSig:vector  ETV
vector 1290598  Network.dyn_peer[185]  lookupHopsSig:vector  ETV
vector 1290599  Network.dyn_peer[185]  lookupStabilitySig:vector  ETV
vector 1290600  Network.dyn_peer[185]  lookupTimeSig:vector  ETV
vector 1290391  Network.dyn_peer[116]  lookupHopsSig:vector  ETV
vector 1290392  Network.dyn_peer[116]  lookupStabilitySig:vector  ETV
vector 1290393  Network.dyn_peer[116]  lookupTimeSig:vector  ETV
vector 1290217  Network.dyn_peer[58]  lookupHopsSig:vector  ETV
vector 1290218  Network.dyn_peer[58]  lookupStabilitySig:vector  ETV
vector 1290219  Network.dyn_peer[58]  lookupTimeSig:vector  ETV
vector 1290577  Network.dyn_peer[178]  lookupHopsSig:vector  ETV
vector 1290578  Network.dyn_peer[178]  lookupStabilitySig:vector  ETV
vector 1290579  Network.dyn_peer[178]  lookupTimeSig:vector  ETV
vector 1290559  Network.dyn_peer[172]  lookupHopsSig:vector  ETV
vector 1290560  Network.dyn_peer[172]  lookupStabilitySig:vector  ETV
vector 1290561  Network.dyn_peer[172]  lookupTimeSig:vector  ETV
vector 1290424  Network.dyn_peer[127]  lookupHopsSig:vector  ETV
vector 1290425  Network.dyn_peer[127]  lookupStabilitySig:vector  ETV
vector 1290426  Network.dyn_peer[127]  lookupTimeSig:vector  ETV
vector 1290457  Network.dyn_peer[138]  lookupHopsSig:vector  ETV
vector 1290458  Network.dyn_peer[138]  lookupStabilitySig:vector  ETV
vector 1290459  Network.dyn_peer[138]  lookupTimeSig:vector  ETV
vector 1290547  Network.dyn_peer[168]  lookupHopsSig:vector  ETV
vector 1290548  Network.dyn_peer[168]  lookupStabilitySig:vector  ETV
vector 1290549  Network.dyn_peer[168]  lookupTimeSig:vector  ETV
vector 1290523  Network.dyn_peer[160]  lookupHopsSig:vector  ETV
vector 1290524  Network.dyn_peer[160]  lookupStabilitySig:vector  ETV
vector 1290525  Network.dyn_peer[160]  lookupTimeSig:vector  ETV
vector 1290583  Network.dyn_peer[180]  lookupHopsSig:vector  ETV
vector 1290584  Network.dyn_peer[180]  lookupStabilitySig:vector  ETV
vector 1290585  Network.dyn_peer[180]  lookupTimeSig:vector  ETV
vector 1290616  Network.dyn_peer[191]  lookupHopsSig:vector  ETV
vector 1290617  Network.dyn_peer[191]  lookupStabilitySig:vector  ETV
vector 1290618  Network.dyn_peer[191]  lookupTimeSig:vector  ETV
vector 1290736  Network.dyn_peer[231]  lookupHopsSig:vector  ETV
vector 1290737  Network.dyn_peer[231]  lookupStabilitySig:vector  ETV
vector 1290738  Network.dyn_peer[231]  lookupTimeSig:vector  ETV
vector 1290379  Network.dyn_peer[112]  lookupHopsSig:vector  ETV
vector 1290380  Network.dyn_peer[112]  lookupStabilitySig:vector  ETV
vector 1290381  Network.dyn_peer[112]  lookupTimeSig:vector  ETV
vector 1290595  Network.dyn_peer[184]  lookupHopsSig:vector  ETV
vector 1290596  Network.dyn_peer[184]  lookupStabilitySig:vector  ETV
vector 1290597  Network.dyn_peer[184]  lookupTimeSig:vector  ETV
vector 1290466  Network.dyn_peer[141]  lookupHopsSig:vector  ETV
vector 1290467  Network.dyn_peer[141]  lookupStabilitySig:vector  ETV
vector 1290468  Network.dyn_peer[141]  lookupTimeSig:vector  ETV
vector 1290625  Network.dyn_peer[194]  lookupHopsSig:vector  ETV
vector 1290626  Network.dyn_peer[194]  lookupStabilitySig:vector  ETV
vector 1290627  Network.dyn_peer[194]  lookupTimeSig:vector  ETV
vector 1290634  Network.dyn_peer[197]  lookupHopsSig:vector  ETV
vector 1290635  Network.dyn_peer[197]  lookupStabilitySig:vector  ETV
vector 1290636  Network.dyn_peer[197]  lookupTimeSig:vector  ETV
vector 1290724  Network.dyn_peer[227]  lookupHopsSig:vector  ETV
vector 1290725  Network.dyn_peer[227]  lookupStabilitySig:vector  ETV
vector 1290726  Network.dyn_peer[227]  lookupTimeSig:vector  ETV
vector 1290550  Network.dyn_peer[169]  lookupHopsSig:vector  ETV
vector 1290551  Network.dyn_peer[169]  lookupStabilitySig:vector  ETV
vector 1290552  Network.dyn_peer[169]  lookupTimeSig:vector  ETV
vector 1290643  Network.dyn_peer[200]  lookupHopsSig:vector  ETV
vector 1290644  Network.dyn_peer[200]  lookupStabilitySig:vector  ETV
vector 1290645  Network.dyn_peer[200]  lookupTimeSig:vector  ETV
vector 1290406  Network.dyn_peer[121]  lookupHopsSig:vector  ETV
vector 1290407  Network.dyn_peer[121]  lookupStabilitySig:vector  ETV
vector 1290408  Network.dyn_peer[121]  lookupTimeSig:vector  ETV
vector 1290469  Network.dyn_peer[142]  lookupHopsSig:vector  ETV
vector 1290470  Network.dyn_peer[142]  lookupStabilitySig:vector  ETV
vector 1290471  Network.dyn_peer[142]  lookupTimeSig:vector  ETV
vector 1290502  Network.dyn_peer[153]  lookupHopsSig:vector  ETV
vector 1290503  Network.dyn_peer[153]  lookupStabilitySig:vector  ETV
vector 1290504  Network.dyn_peer[153]  lookupTimeSig:vector  ETV
vector 1290478  Network.dyn_peer[145]  lookupHopsSig:vector  ETV
vector 1290479  Network.dyn_peer[145]  lookupStabilitySig:vector  ETV
vector 1290480  Network.dyn_peer[145]  lookupTimeSig:vector  ETV
vector 1290691  Network.dyn_peer[216]  lookupHopsSig:vector  ETV
vector 1290692  Network.dyn_peer[216]  lookupStabilitySig:vector  ETV
vector 1290693  Network.dyn_peer[216]  lookupTimeSig:vector  ETV
vector 1290544  Network.dyn_peer[167]  lookupHopsSig:vector  ETV
vector 1290545  Network.dyn_peer[167]  lookupStabilitySig:vector  ETV