version 2
run Stability2-54-20130528-01:27:52-24168
attr configname Stability2
attr datetime 20130528-01:27:52
attr experiment Stability2
attr inifile omnetpp.ini
attr iterationvars $0=100
attr iterationvars2 "$0=100, $repetition=4"
attr measurement $0=100
attr network Network
attr processid 24168
attr repetition 4
attr replication #4
attr resultdir results
attr runnumber 54
attr seedset 54

vector 1650054  Network.churner  inGoingSizeSig:vector  ETV
vector 1620060  Network.dyn_peer[2]  lookupHopsSig:vector  ETV
vector 1620061  Network.dyn_peer[2]  lookupStabilitySig:vector  ETV
vector 1620062  Network.dyn_peer[2]  lookupTimeSig:vector  ETV
vector 1620063  Network.dyn_peer[3]  lookupHopsSig:vector  ETV
vector 1620064  Network.dyn_peer[3]  lookupStabilitySig:vector  ETV
vector 1620065  Network.dyn_peer[3]  lookupTimeSig:vector  ETV
vector 1620066  Network.dyn_peer[4]  lookupHopsSig:vector  ETV
vector 1620067  Network.dyn_peer[4]  lookupStabilitySig:vector  ETV
vector 1620068  Network.dyn_peer[4]  lookupTimeSig:vector  ETV
vector 1620096  Network.dyn_peer[14]  lookupHopsSig:vector  ETV
vector 1620097  Network.dyn_peer[14]  lookupStabilitySig:vector  ETV
vector 1620098  Network.dyn_peer[14]  lookupTimeSig:vector  ETV
vector 1620069  Network.dyn_peer[5]  lookupHopsSig:vector  ETV
vector 1620070  Network.dyn_peer[5]  lookupStabilitySig:vector  ETV
vector 1620071  Network.dyn_peer[5]  lookupTimeSig:vector  ETV
vector 1620099  Network.dyn_peer[15]  lookupHopsSig:vector  ETV
vector 1620100  Network.dyn_peer[15]  lookupStabilitySig:vector  ETV
vector 1620101  Network.dyn_peer[15]  lookupTimeSig:vector  ETV
vector 1620072  Network.dyn_peer[6]  lookupHopsSig:vector  ETV
vector 1620073  Network.dyn_peer[6]  lookupStabilitySig:vector  ETV
vector 1620074  Network.dyn_peer[6]  lookupTimeSig:vector  ETV
vector 1620117  Network.dyn_peer[21]  lookupHopsSig:vector  ETV
vector 1620118  Network.dyn_peer[21]  lookupStabilitySig:vector  ETV
vector 1620119  Network.dyn_peer[21]  lookupTimeSig:vector  ETV
vector 1620090  Network.dyn_peer[12]  lookupHopsSig:vector  ETV
vector 1620091  Network.dyn_peer[12]  lookupStabilitySig:vector  ETV
vector 1620092  Network.dyn_peer[12]  lookupTimeSig:vector  ETV
vector 1620075  Network.dyn_peer[7]  lookupHopsSig:vector  ETV
vector 1620076  Network.dyn_peer[7]  lookupStabilitySig:vector  ETV
vector 1620077  Network.dyn_peer[7]  lookupTimeSig:vector  ETV
vector 1620135  Network.dyn_peer[27]  lookupHopsSig:vector  ETV
vector 1620136  Network.dyn_peer[27]  lookupStabilitySig:vector  ETV
vector 1620137  Network.dyn_peer[27]  lookupTimeSig:vector  ETV
vector 1620078  Network.dyn_peer[8]  lookupHopsSig:vector  ETV
vector 1620079  Network.dyn_peer[8]  lookupStabilitySig:vector  ETV
vector 1620080  Network.dyn_peer[8]  lookupTimeSig:vector  ETV
vector 1620108  Network.dyn_peer[18]  lookupHopsSig:vector  ETV
vector 1620109  Network.dyn_peer[18]  lookupStabilitySig:vector  ETV
vector 1620110  Network.dyn_peer[18]  lookupTimeSig:vector  ETV
vector 1620081  Network.dyn_peer[9]  lookupHopsSig:vector  ETV
vector 1620082  Network.dyn_peer[9]  lookupStabilitySig:vector  ETV
vector 1620083  Network.dyn_peer[9]  lookupTimeSig:vector  ETV
vector 1620114  Network.dyn_peer[20]  lookupHopsSig:vector  ETV
vector 1620115  Network.dyn_peer[20]  lookupStabilitySig:vector  ETV
vector 1620116  Network.dyn_peer[20]  lookupTimeSig:vector  ETV
vector 1620102  Network.dyn_peer[16]  lookupHopsSig:vector  ETV
vector 1620103  Network.dyn_peer[16]  lookupStabilitySig:vector  ETV
vector 1620104  Network.dyn_peer[16]  lookupTimeSig:vector  ETV
vector 1620162  Network.dyn_peer[36]  lookupHopsSig:vector  ETV
vector 1620163  Network.dyn_peer[36]  lookupStabilitySig:vector  ETV
vector 1620164  Network.dyn_peer[36]  lookupTimeSig:vector  ETV
vector 1620105  Network.dyn_peer[17]  lookupHopsSig:vector  ETV
vector 1620106  Network.dyn_peer[17]  lookupStabilitySig:vector  ETV
vector 1620107  Network.dyn_peer[17]  lookupTimeSig:vector  ETV
vector 1620168  Network.dyn_peer[38]  lookupHopsSig:vector  ETV
vector 1620169  Network.dyn_peer[38]  lookupStabilitySig:vector  ETV
vector 1620170  Network.dyn_peer[38]  lookupTimeSig:vector  ETV
vector 1620120  Network.dyn_peer[22]  lookupHopsSig:vector  ETV
vector 1620121  Network.dyn_peer[22]  lookupStabilitySig:vector  ETV
vector 1620122  Network.dyn_peer[22]  lookupTimeSig:vector  ETV
vector 1620111  Network.dyn_peer[19]  lookupHopsSig:vector  ETV
vector 1620112  Network.dyn_peer[19]  lookupStabilitySig:vector  ETV
vector 1620113  Network.dyn_peer[19]  lookupTimeSig:vector  ETV
vector 1620141  Network.dyn_peer[29]  lookupHopsSig:vector  ETV
vector 1620142  Network.dyn_peer[29]  lookupStabilitySig:vector  ETV
vector 1620143  Network.dyn_peer[29]  lookupTimeSig:vector  ETV
vector 1620054  Network.dyn_peer[0]  lookupHopsSig:vector  ETV
vector 1620055  Network.dyn_peer[0]  lookupStabilitySig:vector  ETV
vector 1620056  Network.dyn_peer[0]  lookupTimeSig:vector  ETV
vector 1620084  Network.dyn_peer[10]  lookupHopsSig:vector  ETV
vector 1620085  Network.dyn_peer[10]  lookupStabilitySig:vector  ETV
vector 1620086  Network.dyn_peer[10]  lookupTimeSig:vector  ETV
vector 1620126  Network.dyn_peer[24]  lookupHopsSig:vector  ETV
vector 1620127  Network.dyn_peer[24]  lookupStabilitySig:vector  ETV
vector 1620128  Network.dyn_peer[24]  lookupTimeSig:vector  ETV
vector 1620129  Network.dyn_peer[25]  lookupHopsSig:vector  ETV
vector 1620130  Network.dyn_peer[25]  lookupStabilitySig:vector  ETV
vector 1620131  Network.dyn_peer[25]  lookupTimeSig:vector  ETV
vector 1620057  Network.dyn_peer[1]  lookupHopsSig:vector  ETV
vector 1620058  Network.dyn_peer[1]  lookupStabilitySig:vector  ETV
vector 1620059  Network.dyn_peer[1]  lookupTimeSig:vector  ETV
vector 1620087  Network.dyn_peer[11]  lookupHopsSig:vector  ETV
vector 1620088  Network.dyn_peer[11]  lookupStabilitySig:vector  ETV
vector 1620089  Network.dyn_peer[11]  lookupTimeSig:vector  ETV
vector 1620150  Network.dyn_peer[32]  lookupHopsSig:vector  ETV
vector 1620151  Network.dyn_peer[32]  lookupStabilitySig:vector  ETV
vector 1620152  Network.dyn_peer[32]  lookupTimeSig:vector  ETV
vector 1620093  Network.dyn_peer[13]  lookupHopsSig:vector  ETV
vector 1620094  Network.dyn_peer[13]  lookupStabilitySig:vector  ETV
vector 1620095  Network.dyn_peer[13]  lookupTimeSig:vector  ETV
vector 1620123  Network.dyn_peer[23]  lookupHopsSig:vector  ETV
vector 1620124  Network.dyn_peer[23]  lookupStabilitySig:vector  ETV
vector 1620125  Network.dyn_peer[23]  lookupTimeSig:vector  ETV
vector 1620138  Network.dyn_peer[28]  lookupHopsSig:vector  ETV
vector 1620139  Network.dyn_peer[28]  lookupStabilitySig:vector  ETV
vector 1620140  Network.dyn_peer[28]  lookupTimeSig:vector  ETV
vector 1620210  Network.dyn_peer[52]  lookupHopsSig:vector  ETV
vector 1620211  Network.dyn_peer[52]  lookupStabilitySig:vector  ETV
vector 1620212  Network.dyn_peer[52]  lookupTimeSig:vector  ETV
vector 1620153  Network.dyn_peer[33]  lookupHopsSig:vector  ETV
vector 1620154  Network.dyn_peer[33]  lookupStabilitySig:vector  ETV
vector 1620155  Network.dyn_peer[33]  lookupTimeSig:vector  ETV
vector 1620132  Network.dyn_peer[26]  lookupHopsSig:vector  ETV
vector 1620133  Network.dyn_peer[26]  lookupStabilitySig:vector  ETV
vector 1620134  Network.dyn_peer[26]  lookupTimeSig:vector  ETV
vector 1620201  Network.dyn_peer[49]  lookupHopsSig:vector  ETV
vector 1620202  Network.dyn_peer[49]  lookupStabilitySig:vector  ETV
vector 1620203  Network.dyn_peer[49]  lookupTimeSig:vector  ETV
vector 1620294  Network.dyn_peer[80]  lookupHopsSig:vector  ETV
vector 1620295  Network.dyn_peer[80]  lookupStabilitySig:vector  ETV
vector 1620296  Network.dyn_peer[80]  lookupTimeSig:vector  ETV
vector 1620180  Network.dyn_peer[42]  lookupHopsSig:vector  ETV
vector 1620181  Network.dyn_peer[42]  lookupStabilitySig:vector  ETV
vector 1620182  Network.dyn_peer[42]  lookupTimeSig:vector  ETV
vector 1620186  Network.dyn_peer[44]  lookupHopsSig:vector  ETV
vector 1620187  Network.dyn_peer[44]  lookupStabilitySig:vector  ETV
vector 1620188  Network.dyn_peer[44]  lookupTimeSig:vector  ETV
vector 1620159  Network.dyn_peer[35]  lookupHopsSig:vector  ETV
vector 1620160  Network.dyn_peer[35]  lookupStabilitySig:vector  ETV
vector 1620161  Network.dyn_peer[35]  lookupTimeSig:vector  ETV
vector 1620192  Network.dyn_peer[46]  lookupHopsSig:vector  ETV
vector 1620193  Network.dyn_peer[46]  lookupStabilitySig:vector  ETV
vector 1620194  Network.dyn_peer[46]  lookupTimeSig:vector  ETV
vector 1620165  Network.dyn_peer[37]  lookupHopsSig:vector  ETV
vector 1620166  Network.dyn_peer[37]  lookupStabilitySig:vector  ETV
vector 1620167  Network.dyn_peer[37]  lookupTimeSig:vector  ETV
vector 1620198  Network.dyn_peer[48]  lookupHopsSig:vector  ETV
vector 1620199  Network.dyn_peer[48]  lookupStabilitySig:vector  ETV
vector 1620200  Network.dyn_peer[48]  lookupTimeSig:vector  ETV
vector 1620264  Network.dyn_peer[70]  lookupHopsSig:vector  ETV
vector 1620265  Network.dyn_peer[70]  lookupStabilitySig:vector  ETV
vector 1620266  Network.dyn_peer[70]  lookupTimeSig:vector  ETV
vector 1620327  Network.dyn_peer[91]  lookupHopsSig:vector  ETV
vector 1620328  Network.dyn_peer[91]  lookupStabilitySig:vector  ETV
vector 1620329  Network.dyn_peer[91]  lookupTimeSig:vector  ETV
vector 1620228  Network.dyn_peer[58]  lookupHopsSig:vector  ETV
vector 1620229  Network.dyn_peer[58]  lookupStabilitySig:vector  ETV
vector 1620230  Network.dyn_peer[58]  lookupTimeSig:vector  ETV
vector 1620171  Network.dyn_peer[39]  lookupHopsSig:vector  ETV
vector 1620172  Network.dyn_peer[39]  lookupStabilitySig:vector  ETV
vector 1620173  Network.dyn_peer[39]  lookupTimeSig:vector  ETV
vector 1620321  Network.dyn_peer[89]  lookupHopsSig:vector  ETV
vector 1620322  Network.dyn_peer[89]  lookupStabilitySig:vector  ETV
vector 1620323  Network.dyn_peer[89]  lookupTimeSig:vector  ETV
vector 1620147  Network.dyn_peer[31]  lookupHopsSig:vector  ETV
vector 1620148  Network.dyn_peer[31]  lookupStabilitySig:vector  ETV
vector 1620149  Network.dyn_peer[31]  lookupTimeSig:vector  ETV
vector 1620177  Network.dyn_peer[41]  lookupHopsSig:vector  ETV
vector 1620178  Network.dyn_peer[41]  lookupStabilitySig:vector  ETV
vector 1620179  Network.dyn_peer[41]  lookupTimeSig:vector  ETV
vector 1620207  Network.dyn_peer[51]  lookupHopsSig:vector  ETV
vector 1620208  Network.dyn_peer[51]  lookupStabilitySig:vector  ETV
vector 1620209  Network.dyn_peer[51]  lookupTimeSig:vector  ETV
vector 1620249  Network.dyn_peer[65]  lookupHopsSig:vector  ETV
vector 1620250  Network.dyn_peer[65]  lookupStabilitySig:vector  ETV
vector 1620251  Network.dyn_peer[65]  lookupTimeSig:vector  ETV
vector 1620222  Network.dyn_peer[56]  lookupHopsSig:vector  ETV
vector 1620223  Network.dyn_peer[56]  lookupStabilitySig:vector  ETV
vector 1620224  Network.dyn_peer[56]  lookupTimeSig:vector  ETV
vector 1620225  Network.dyn_peer[57]  lookupHopsSig:vector  ETV
vector 1620226  Network.dyn_peer[57]  lookupStabilitySig:vector  ETV
vector 1620227  Network.dyn_peer[57]  lookupTimeSig:vector  ETV
vector 1620261  Network.dyn_peer[69]  lookupHopsSig:vector  ETV
vector 1620262  Network.dyn_peer[69]  lookupStabilitySig:vector  ETV
vector 1620263  Network.dyn_peer[69]  lookupTimeSig:vector  ETV
vector 1620267  Network.dyn_peer[71]  lookupHopsSig:vector  ETV
vector 1620268  Network.dyn_peer[71]  lookupStabilitySig:vector  ETV
vector 1620269  Network.dyn_peer[71]  lookupTimeSig:vector  ETV
vector 1620297  Network.dyn_peer[81]  lookupHopsSig:vector  ETV
vector 1620298  Network.dyn_peer[81]  lookupStabilitySig:vector  ETV
vector 1620299  Network.dyn_peer[81]  lookupTimeSig:vector  ETV
vector 1620213  Network.dyn_peer[53]  lookupHopsSig:vector  ETV
vector 1620214  Network.dyn_peer[53]  lookupStabilitySig:vector  ETV
vector 1620215  Network.dyn_peer[53]  lookupTimeSig:vector  ETV
vector 1620366  Network.dyn_peer[104]  lookupHopsSig:vector  ETV
vector 1620367  Network.dyn_peer[104]  lookupStabilitySig:vector  ETV
vector 1620368  Network.dyn_peer[104]  lookupTimeSig:vector  ETV
vector 1620285  Network.dyn_peer[77]  lookupHopsSig:vector  ETV
vector 1620286  Network.dyn_peer[77]  lookupStabilitySig:vector  ETV
vector 1620287  Network.dyn_peer[77]  lookupTimeSig:vector  ETV
vector 1620291  Network.dyn_peer[79]  lookupHopsSig:vector  ETV
vector 1620292  Network.dyn_peer[79]  lookupStabilitySig:vector  ETV
vector 1620293  Network.dyn_peer[79]  lookupTimeSig:vector  ETV
vector 1620204  Network.dyn_peer[50]  lookupHopsSig:vector  ETV
vector 1620205  Network.dyn_peer[50]  lookupStabilitySig:vector  ETV
vector 1620206  Network.dyn_peer[50]  lookupTimeSig:vector  ETV
vector 1620234  Network.dyn_peer[60]  lookupHopsSig:vector  ETV
vector 1620235  Network.dyn_peer[60]  lookupStabilitySig:vector  ETV
vector 1620236  Network.dyn_peer[60]  lookupTimeSig:vector  ETV
vector 1620390  Network.dyn_peer[112]  lookupHopsSig:vector  ETV
vector 1620391  Network.dyn_peer[112]  lookupStabilitySig:vector  ETV
vector 1620392  Network.dyn_peer[112]  lookupTimeSig:vector  ETV
vector 1620183  Network.dyn_peer[43]  lookupHopsSig:vector  ETV
vector 1620184  Network.dyn_peer[43]  lookupStabilitySig:vector  ETV
vector 1620185  Network.dyn_peer[43]  lookupTimeSig:vector  ETV
vector 1620189  Network.dyn_peer[45]  lookupHopsSig:vector  ETV
vector 1620190  Network.dyn_peer[45]  lookupStabilitySig:vector  ETV
vector 1620191  Network.dyn_peer[45]  lookupTimeSig:vector  ETV
vector 1620174  Network.dyn_peer[40]  lookupHopsSig:vector  ETV
vector 1620175  Network.dyn_peer[40]  lookupStabilitySig:vector  ETV
vector 1620176  Network.dyn_peer[40]  lookupTimeSig:vector  ETV
vector 1620420  Network.dyn_peer[122]  lookupHopsSig:vector  ETV
vector 1620421  Network.dyn_peer[122]  lookupStabilitySig:vector  ETV
vector 1620422  Network.dyn_peer[122]  lookupTimeSig:vector  ETV
vector 1620363  Network.dyn_peer[103]  lookupHopsSig:vector  ETV
vector 1620364  Network.dyn_peer[103]  lookupStabilitySig:vector  ETV
vector 1620365  Network.dyn_peer[103]  lookupTimeSig:vector  ETV
vector 1620156  Network.dyn_peer[34]  lookupHopsSig:vector  ETV
vector 1620157  Network.dyn_peer[34]  lookupStabilitySig:vector  ETV
vector 1620158  Network.dyn_peer[34]  lookupTimeSig:vector  ETV
vector 1620279  Network.dyn_peer[75]  lookupHopsSig:vector  ETV
vector 1620280  Network.dyn_peer[75]  lookupStabilitySig:vector  ETV
vector 1620281  Network.dyn_peer[75]  lookupTimeSig:vector  ETV
vector 1620258  Network.dyn_peer[68]  lookupHopsSig:vector  ETV
vector 1620259  Network.dyn_peer[68]  lookupStabilitySig:vector  ETV
vector 1620260  Network.dyn_peer[68]  lookupTimeSig:vector  ETV
vector 1620354  Network.dyn_peer[100]  lookupHopsSig:vector  ETV
vector 1620355  Network.dyn_peer[100]  lookupStabilitySig:vector  ETV
vector 1620356  Network.dyn_peer[100]  lookupTimeSig:vector  ETV
vector 1620414  Network.dyn_peer[120]  lookupHopsSig:vector  ETV
vector 1620415  Network.dyn_peer[120]  lookupStabilitySig:vector  ETV
vector 1620416  Network.dyn_peer[120]  lookupTimeSig:vector  ETV
vector 1620447  Network.dyn_peer[131]  lookupHopsSig:vector  ETV
vector 1620448  Network.dyn_peer[131]  lookupStabilitySig:vector  ETV
vector 1620449  Network.dyn_peer[131]  lookupTimeSig:vector  ETV
vector 1620450  Network.dyn_peer[132]  lookupHopsSig:vector  ETV
vector 1620451  Network.dyn_peer[132]  lookupStabilitySig:vector  ETV
vector 1620452  Network.dyn_peer[132]  lookupTimeSig:vector  ETV
vector 1620243  Network.dyn_peer[63]  lookupHopsSig:vector  ETV
vector 1620244  Network.dyn_peer[63]  lookupStabilitySig:vector  ETV
vector 1620245  Network.dyn_peer[63]  lookupTimeSig:vector  ETV
vector 1620303  Network.dyn_peer[83]  lookupHopsSig:vector  ETV
vector 1620304  Network.dyn_peer[83]  lookupStabilitySig:vector  ETV
vector 1620305  Network.dyn_peer[83]  lookupTimeSig:vector  ETV
vector 1620483  Network.dyn_peer[143]  lookupHopsSig:vector  ETV
vector 1620484  Network.dyn_peer[143]  lookupStabilitySig:vector  ETV
vector 1620485  Network.dyn_peer[143]  lookupTimeSig:vector  ETV
vector 1620216  Network.dyn_peer[54]  lookupHopsSig:vector  ETV
vector 1620217  Network.dyn_peer[54]  lookupStabilitySig:vector  ETV
vector 1620218  Network.dyn_peer[54]  lookupTimeSig:vector  ETV
vector 1620306  Network.dyn_peer[84]  lookupHopsSig:vector  ETV
vector 1620307  Network.dyn_peer[84]  lookupStabilitySig:vector  ETV
vector 1620308  Network.dyn_peer[84]  lookupTimeSig:vector  ETV
vector 1620339  Network.dyn_peer[95]  lookupHopsSig:vector  ETV
vector 1620340  Network.dyn_peer[95]  lookupStabilitySig:vector  ETV
vector 1620341  Network.dyn_peer[95]  lookupTimeSig:vector  ETV
vector 1620282  Network.dyn_peer[76]  lookupHopsSig:vector  ETV
vector 1620283  Network.dyn_peer[76]  lookupStabilitySig:vector  ETV
vector 1620284  Network.dyn_peer[76]  lookupTimeSig:vector  ETV
vector 1620351  Network.dyn_peer[99]  lookupHopsSig:vector  ETV
vector 1620352  Network.dyn_peer[99]  lookupStabilitySig:vector  ETV
vector 1620353  Network.dyn_peer[99]  lookupTimeSig:vector  ETV
vector 1620240  Network.dyn_peer[62]  lookupHopsSig:vector  ETV
vector 1620241  Network.dyn_peer[62]  lookupStabilitySig:vector  ETV
vector 1620242  Network.dyn_peer[62]  lookupTimeSig:vector  ETV
vector 1620300  Network.dyn_peer[82]  lookupHopsSig:vector  ETV
vector 1620301  Network.dyn_peer[82]  lookupStabilitySig:vector  ETV
vector 1620302  Network.dyn_peer[82]  lookupTimeSig:vector  ETV
vector 1620360  Network.dyn_peer[102]  lookupHopsSig:vector  ETV
vector 1620361  Network.dyn_peer[102]  lookupStabilitySig:vector  ETV
vector 1620362  Network.dyn_peer[102]  lookupTimeSig:vector  ETV
vector 1620309  Network.dyn_peer[85]  lookupHopsSig:vector  ETV
vector 1620310  Network.dyn_peer[85]  lookupStabilitySig:vector  ETV
vector 1620311  Network.dyn_peer[85]  lookupTimeSig:vector  ETV
vector 1620312  Network.dyn_peer[86]  lookupHopsSig:vector  ETV
vector 1620313  Network.dyn_peer[86]  lookupStabilitySig:vector  ETV
vector 1620314  Network.dyn_peer[86]  lookupTimeSig:vector  ETV
vector 1620387  Network.dyn_peer[111]  lookupHopsSig:vector  ETV
vector 1620388  Network.dyn_peer[111]  lookupStabilitySig:vector  ETV
vector 1620389  Network.dyn_peer[111]  lookupTimeSig:vector  ETV
vector 1620246  Network.dyn_peer[64]  lookupHopsSig:vector  ETV
vector 1620247  Network.dyn_peer[64]  lookupStabilitySig:vector  ETV
vector 1620248  Network.dyn_peer[64]  lookupTimeSig:vector  ETV
vector 1620252  Network.dyn_peer[66]  lookupHopsSig:vector  ETV
vector 1620253  Network.dyn_peer[66]  lookupStabilitySig:vector  ETV
vector 1620254  Network.dyn_peer[66]  lookupTimeSig:vector  ETV
vector 1620465  Network.dyn_peer[137]  lookupHopsSig:vector  ETV
vector 1620466  Network.dyn_peer[137]  lookupStabilitySig:vector  ETV
vector 1620467  Network.dyn_peer[137]  lookupTimeSig:vector  ETV
vector 1620288  Network.dyn_peer[78]  lookupHopsSig:vector  ETV
vector 1620289  Network.dyn_peer[78]  lookupStabilitySig:vector  ETV
vector 1620290  Network.dyn_peer[78]  lookupTimeSig:vector  ETV
vector 1620144  Network.dyn_peer[30]  lookupHopsSig:vector  ETV
vector 1620145  Network.dyn_peer[30]  lookupStabilitySig:vector  ETV
vector 1620146  Network.dyn_peer[30]  lookupTimeSig:vector  ETV
vector 1620444  Network.dyn_peer[130]  lookupHopsSig:vector  ETV
vector 1620445  Network.dyn_peer[130]  lookupStabilitySig:vector  ETV
vector 1620446  Network.dyn_peer[130]  lookupTimeSig:vector  ETV
vector 1620564  Network.dyn_peer[170]  lookupHopsSig:vector  ETV
vector 1620565  Network.dyn_peer[170]  lookupStabilitySig:vector  ETV
vector 1620566  Network.dyn_peer[170]  lookupTimeSig:vector  ETV
vector 1620372  Network.dyn_peer[106]  lookupHopsSig:vector  ETV
vector 1620373  Network.dyn_peer[106]  lookupStabilitySig:vector  ETV
vector 1620374  Network.dyn_peer[106]  lookupTimeSig:vector  ETV
vector 1620462  Network.dyn_peer[136]  lookupHopsSig:vector  ETV
vector 1620463  Network.dyn_peer[136]  lookupStabilitySig:vector  ETV
vector 1620464  Network.dyn_peer[136]  lookupTimeSig:vector  ETV
vector 1620375  Network.dyn_peer[107]  lookupHopsSig:vector  ETV
vector 1620376  Network.dyn_peer[107]  lookupStabilitySig:vector  ETV
vector 1620377  Network.dyn_peer[107]  lookupTimeSig:vector  ETV
vector 1620408  Network.dyn_peer[118]  lookupHopsSig:vector  ETV
vector 1620409  Network.dyn_peer[118]  lookupStabilitySig:vector  ETV
vector 1620410  Network.dyn_peer[118]  lookupTimeSig:vector  ETV
vector 1620594  Network.dyn_peer[180]  lookupHopsSig:vector  ETV
vector 1620595  Network.dyn_peer[180]  lookupStabilitySig:vector  ETV
vector 1620596  Network.dyn_peer[180]  lookupTimeSig:vector  ETV
vector 1620237  Network.dyn_peer[61]  lookupHopsSig:vector  ETV
vector 1620238  Network.dyn_peer[61]  lookupStabilitySig:vector  ETV
vector 1620239  Network.dyn_peer[61]  lookupTimeSig:vector  ETV
vector 1620477  Network.dyn_peer[141]  lookupHopsSig:vector  ETV
vector 1620478  Network.dyn_peer[141]  lookupStabilitySig:vector  ETV
vector 1620479  Network.dyn_peer[141]  lookupTimeSig:vector  ETV
vector 1620540  Network.dyn_peer[162]  lookupHopsSig:vector  ETV
vector 1620541  Network.dyn_peer[162]  lookupStabilitySig:vector  ETV
vector 1620542  Network.dyn_peer[162]  lookupTimeSig:vector  ETV
vector 1620396  Network.dyn_peer[114]  lookupHopsSig:vector  ETV
vector 1620397  Network.dyn_peer[114]  lookupStabilitySig:vector  ETV
vector 1620398  Network.dyn_peer[114]  lookupTimeSig:vector  ETV
vector 1620426  Network.dyn_peer[124]  lookupHopsSig:vector  ETV
vector 1620427  Network.dyn_peer[124]  lookupStabilitySig:vector  ETV
vector 1620428  Network.dyn_peer[124]  lookupTimeSig:vector  ETV
vector 1620486  Network.dyn_peer[144]  lookupHopsSig:vector  ETV
vector 1620487  Network.dyn_peer[144]  lookupStabilitySig:vector  ETV
vector 1620488  Network.dyn_peer[144]  lookupTimeSig:vector  ETV
vector 1620219  Network.dyn_peer[55]  lookupHopsSig:vector  ETV
vector 1620220  Network.dyn_peer[55]  lookupStabilitySig:vector  ETV
vector 1620221  Network.dyn_peer[55]  lookupTimeSig:vector  ETV
vector 1620399  Network.dyn_peer[115]  lookupHopsSig:vector  ETV
vector 1620400  Network.dyn_peer[115]  lookupStabilitySig:vector  ETV
vector 1620401  Network.dyn_peer[115]  lookupTimeSig:vector  ETV
vector 1620315  Network.dyn_peer[87]  lookupHopsSig:vector  ETV
vector 1620316  Network.dyn_peer[87]  lookupStabilitySig:vector  ETV
vector 1620317  Network.dyn_peer[87]  lookupTimeSig:vector  ETV
vector 1620438  Network.dyn_peer[128]  lookupHopsSig:vector  ETV
vector 1620439  Network.dyn_peer[128]  lookupStabilitySig:vector  ETV
vector 1620440  Network.dyn_peer[128]  lookupTimeSig:vector  ETV
vector 1620411  Network.dyn_peer[119]  lookupHopsSig:vector  ETV
vector 1620412  Network.dyn_peer[119]  lookupStabilitySig:vector  ETV
vector 1620413  Network.dyn_peer[119]  lookupTimeSig:vector  ETV
vector 1620504  Network.dyn_peer[150]  lookupHopsSig:vector  ETV
vector 1620505  Network.dyn_peer[150]  lookupStabilitySig:vector  ETV
vector 1620506  Network.dyn_peer[150]  lookupTimeSig:vector  ETV
vector 1620597  Network.dyn_peer[181]  lookupHopsSig:vector  ETV
vector 1620598  Network.dyn_peer[181]  lookupStabilitySig:vector  ETV
vector 1620599  Network.dyn_peer[181]  lookupTimeSig:vector  ETV
vector 1620333  Network.dyn_peer[93]  lookupHopsSig:vector  ETV
vector 1620334  Network.dyn_peer[93]  lookupStabilitySig:vector  ETV
vector 1620335  Network.dyn_peer[93]  lookupTimeSig:vector  ETV
vector 1620489  Network.dyn_peer[145]  lookupHopsSig:vector  ETV
vector 1620490  Network.dyn_peer[145]  lookupStabilitySig:vector  ETV
vector 1620491  Network.dyn_peer[145]  lookupTimeSig:vector  ETV
vector 1620336  Network.dyn_peer[94]  lookupHopsSig:vector  ETV
vector 1620337  Network.dyn_peer[94]  lookupStabilitySig:vector  ETV
vector 1620338  Network.dyn_peer[94]  lookupTimeSig:vector  ETV
vector 1620552  Network.dyn_peer[166]  lookupHopsSig:vector  ETV
vector 1620553  Network.dyn_peer[166]  lookupStabilitySig:vector  ETV
vector 1620554  Network.dyn_peer[166]  lookupTimeSig:vector  ETV
vector 1620255  Network.dyn_peer[67]  lookupHopsSig:vector  ETV
vector 1620256  Network.dyn_peer[67]  lookupStabilitySig:vector  ETV
vector 1620257  Network.dyn_peer[67]  lookupTimeSig:vector  ETV
vector 1620495  Network.dyn_peer[147]  lookupHopsSig:vector  ETV
vector 1620496  Network.dyn_peer[147]  lookupStabilitySig:vector  ETV
vector 1620497  Network.dyn_peer[147]  lookupTimeSig:vector  ETV
vector 1620498  Network.dyn_peer[148]  lookupHopsSig:vector  ETV
vector 1620499  Network.dyn_peer[148]  lookupStabilitySig:vector  ETV
vector 1620500  Network.dyn_peer[148]  lookupTimeSig:vector  ETV
vector 1620618  Network.dyn_peer[188]  lookupHopsSig:vector  ETV
vector 1620619  Network.dyn_peer[188]  lookupStabilitySig:vector  ETV
vector 1620620  Network.dyn_peer[188]  lookupTimeSig:vector  ETV
vector 1620531  Network.dyn_peer[159]  lookupHopsSig:vector  ETV
vector 1620532  Network.dyn_peer[159]  lookupStabilitySig:vector  ETV
vector 1620533  Network.dyn_peer[159]  lookupTimeSig:vector  ETV
vector 1620330  Network.dyn_peer[92]  lookupHopsSig:vector  ETV
vector 1620331  Network.dyn_peer[92]  lookupStabilitySig:vector  ETV
vector 1620332  Network.dyn_peer[92]  lookupTimeSig:vector  ETV
vector 1620453  Network.dyn_peer[133]  lookupHopsSig:vector  ETV
vector 1620454  Network.dyn_peer[133]  lookupStabilitySig:vector  ETV
vector 1620455  Network.dyn_peer[133]  lookupTimeSig:vector  ETV
vector 1620513  Network.dyn_peer[153]  lookupHopsSig:vector  ETV
vector 1620514  Network.dyn_peer[153]  lookupStabilitySig:vector  ETV
vector 1620515  Network.dyn_peer[153]  lookupTimeSig:vector  ETV
vector 1620573  Network.dyn_peer[173]  lookupHopsSig:vector  ETV
vector 1620574  Network.dyn_peer[173]  lookupStabilitySig:vector  ETV
vector 1620575  Network.dyn_peer[173]  lookupTimeSig:vector  ETV
vector 1620546  Network.dyn_peer[164]  lookupHopsSig:vector  ETV
vector 1620547  Network.dyn_peer[164]  lookupStabilitySig:vector  ETV
vector 1620548  Network.dyn_peer[164]  lookupTimeSig:vector  ETV
vector 1620402  Network.dyn_peer[116]  lookupHopsSig:vector  ETV
vector 1620403  Network.dyn_peer[116]  lookupStabilitySig:vector  ETV
vector 1620404  Network.dyn_peer[116]  lookupTimeSig:vector  ETV
vector 1620642  Network.dyn_peer[196]  lookupHopsSig:vector  ETV
vector 1620643  Network.dyn_peer[196]  lookupStabilitySig:vector  ETV
vector 1620644  Network.dyn_peer[196]  lookupTimeSig:vector  ETV
vector 1620195  Network.dyn_peer[47]  lookupHopsSig:vector  ETV
vector 1620196  Network.dyn_peer[47]  lookupStabilitySig:vector  ETV
vector 1620197  Network.dyn_peer[47]  lookupTimeSig:vector  ETV
vector 1620405  Network.dyn_peer[117]  lookupHopsSig:vector  ETV
vector 1620406  Network.dyn_peer[117]  lookupStabilitySig:vector  ETV
vector 1620407  Network.dyn_peer[117]  lookupTimeSig:vector  ETV
vector 1620585  Network.dyn_peer[177]  lookupHopsSig:vector  ETV
vector 1620586  Network.dyn_peer[177]  lookupStabilitySig:vector  ETV
vector 1620587  Network.dyn_peer[177]  lookupTimeSig:vector  ETV
vector 1620441  Network.dyn_peer[129]  lookupHopsSig:vector  ETV
vector 1620442  Network.dyn_peer[129]  lookupStabilitySig:vector  ETV
vector 1620443  Network.dyn_peer[129]  lookupTimeSig:vector  ETV
vector 1620471  Network.dyn_peer[139]  lookupHopsSig:vector  ETV
vector 1620472  Network.dyn_peer[139]  lookupStabilitySig:vector  ETV
vector 1620473  Network.dyn_peer[139]  lookupTimeSig:vector  ETV
vector 1620537  Network.dyn_peer[161]  lookupHopsSig:vector  ETV
vector 1620538  Network.dyn_peer[161]  lookupStabilitySig:vector  ETV
vector 1620539  Network.dyn_peer[161]  lookupTimeSig:vector  ETV
vector 1620510  Network.dyn_peer[152]  lookupHopsSig:vector  ETV
vector 1620511  Network.dyn_peer[152]  lookupStabilitySig:vector  ETV
vector 1620512  Network.dyn_peer[152]  lookupTimeSig:vector  ETV
vector 1620393  Network.dyn_peer[113]  lookupHopsSig:vector  ETV
vector 1620394  Network.dyn_peer[113]  lookupStabilitySig:vector  ETV
vector 1620395  Network.dyn_peer[113]  lookupTimeSig:vector  ETV
vector 1620369  Network.dyn_peer[105]  lookupHopsSig:vector  ETV
vector 1620370  Network.dyn_peer[105]  lookupStabilitySig:vector  ETV
vector 1620371  Network.dyn_peer[105]  lookupTimeSig:vector  ETV
vector 1620639  Network.dyn_peer[195]  lookupHopsSig:vector  ETV
vector 1620640  Network.dyn_peer[195]  lookupStabilitySig:vector  ETV
vector 1620641  Network.dyn_peer[195]  lookupTimeSig:vector  ETV
vector 1620342  Network.dyn_peer[96]  lookupHopsSig:vector  ETV
vector 1620343  Network.dyn_peer[96]  lookupStabilitySig:vector  ETV
vector 1620344  Network.dyn_peer[96]  lookupTimeSig:vector  ETV
vector 1620702  Network.dyn_peer[216]  lookupHopsSig:vector  ETV
vector 1620703  Network.dyn_peer[216]  lookupStabilitySig:vector  ETV
vector 1620704  Network.dyn_peer[216]  lookupTimeSig:vector  ETV
vector 1620468  Network.dyn_peer[138]  lookupHopsSig:vector  ETV
vector 1620469  Network.dyn_peer[138]  lookupStabilitySig:vector  ETV
vector 1620470  Network.dyn_peer[138]  lookupTimeSig:vector  ETV
vector 1620384  Network.dyn_peer[110]  lookupHopsSig:vector  ETV
vector 1620385  Network.dyn_peer[110]  lookupStabilitySig:vector  ETV
vector 1620386  Network.dyn_peer[110]  lookupTimeSig:vector  ETV
vector 1620603  Network.dyn_peer[183]  lookupHopsSig:vector  ETV
vector 1620604  Network.dyn_peer[183]  lookupStabilitySig:vector  ETV
vector 1620605  Network.dyn_peer[183]  lookupTimeSig:vector  ETV
vector 1620519  Network.dyn_peer[155]  lookupHopsSig:vector  ETV
vector 1620520  Network.dyn_peer[155]  lookupStabilitySig:vector  ETV
vector 1620521  Network.dyn_peer[155]  lookupTimeSig:vector  ETV
vector 1620492  Network.dyn_peer[146]  lookupHopsSig:vector  ETV
vector 1620493  Network.dyn_peer[146]  lookupStabilitySig:vector  ETV
vector 1620494  Network.dyn_peer[146]  lookupTimeSig:vector  ETV
vector 1620525  Network.dyn_peer[157]  lookupHopsSig:vector  ETV
vector 1620526  Network.dyn_peer[157]  lookupStabilitySig:vector  ETV
vector 1620527  Network.dyn_peer[157]  lookupTimeSig:vector  ETV