version 2
run Stability2-79-20130528-01:38:08-24168
attr configname Stability2
attr datetime 20130528-01:38:08
attr experiment Stability2
attr inifile omnetpp.ini
attr iterationvars $0=300
attr iterationvars2 "$0=300, $repetition=9"
attr measurement $0=300
attr network Network
attr processid 24168
attr repetition 9
attr replication #9
attr resultdir results
attr runnumber 79
attr seedset 79

vector 2400079  Network.churner  inGoingSizeSig:vector  ETV
vector 2370085  Network.dyn_peer[2]  lookupHopsSig:vector  ETV
vector 2370086  Network.dyn_peer[2]  lookupStabilitySig:vector  ETV
vector 2370087  Network.dyn_peer[2]  lookupTimeSig:vector  ETV
vector 2370079  Network.dyn_peer[0]  lookupHopsSig:vector  ETV
vector 2370080  Network.dyn_peer[0]  lookupStabilitySig:vector  ETV
vector 2370081  Network.dyn_peer[0]  lookupTimeSig:vector  ETV
vector 2370082  Network.dyn_peer[1]  lookupHopsSig:vector  ETV
vector 2370083  Network.dyn_peer[1]  lookupStabilitySig:vector  ETV
vector 2370084  Network.dyn_peer[1]  lookupTimeSig:vector  ETV
vector 2370118  Network.dyn_peer[13]  lookupHopsSig:vector  ETV
vector 2370119  Network.dyn_peer[13]  lookupStabilitySig:vector  ETV
vector 2370120  Network.dyn_peer[13]  lookupTimeSig:vector  ETV
vector 2370091  Network.dyn_peer[4]  lookupHopsSig:vector  ETV
vector 2370092  Network.dyn_peer[4]  lookupStabilitySig:vector  ETV
vector 2370093  Network.dyn_peer[4]  lookupTimeSig:vector  ETV
vector 2370121  Network.dyn_peer[14]  lookupHopsSig:vector  ETV
vector 2370122  Network.dyn_peer[14]  lookupStabilitySig:vector  ETV
vector 2370123  Network.dyn_peer[14]  lookupTimeSig:vector  ETV
vector 2370100  Network.dyn_peer[7]  lookupHopsSig:vector  ETV
vector 2370101  Network.dyn_peer[7]  lookupStabilitySig:vector  ETV
vector 2370102  Network.dyn_peer[7]  lookupTimeSig:vector  ETV
vector 2370103  Network.dyn_peer[8]  lookupHopsSig:vector  ETV
vector 2370104  Network.dyn_peer[8]  lookupStabilitySig:vector  ETV
vector 2370105  Network.dyn_peer[8]  lookupTimeSig:vector  ETV
vector 2370139  Network.dyn_peer[20]  lookupHopsSig:vector  ETV
vector 2370140  Network.dyn_peer[20]  lookupStabilitySig:vector  ETV
vector 2370141  Network.dyn_peer[20]  lookupTimeSig:vector  ETV
vector 2370094  Network.dyn_peer[5]  lookupHopsSig:vector  ETV
vector 2370095  Network.dyn_peer[5]  lookupStabilitySig:vector  ETV
vector 2370096  Network.dyn_peer[5]  lookupTimeSig:vector  ETV
vector 2370154  Network.dyn_peer[25]  lookupHopsSig:vector  ETV
vector 2370155  Network.dyn_peer[25]  lookupStabilitySig:vector  ETV
vector 2370156  Network.dyn_peer[25]  lookupTimeSig:vector  ETV
vector 2370097  Network.dyn_peer[6]  lookupHopsSig:vector  ETV
vector 2370098  Network.dyn_peer[6]  lookupStabilitySig:vector  ETV
vector 2370099  Network.dyn_peer[6]  lookupTimeSig:vector  ETV
vector 2370127  Network.dyn_peer[16]  lookupHopsSig:vector  ETV
vector 2370128  Network.dyn_peer[16]  lookupStabilitySig:vector  ETV
vector 2370129  Network.dyn_peer[16]  lookupTimeSig:vector  ETV
vector 2370133  Network.dyn_peer[18]  lookupHopsSig:vector  ETV
vector 2370134  Network.dyn_peer[18]  lookupStabilitySig:vector  ETV
vector 2370135  Network.dyn_peer[18]  lookupTimeSig:vector  ETV
vector 2370112  Network.dyn_peer[11]  lookupHopsSig:vector  ETV
vector 2370113  Network.dyn_peer[11]  lookupStabilitySig:vector  ETV
vector 2370114  Network.dyn_peer[11]  lookupTimeSig:vector  ETV
vector 2370088  Network.dyn_peer[3]  lookupHopsSig:vector  ETV
vector 2370089  Network.dyn_peer[3]  lookupStabilitySig:vector  ETV
vector 2370090  Network.dyn_peer[3]  lookupTimeSig:vector  ETV
vector 2370136  Network.dyn_peer[19]  lookupHopsSig:vector  ETV
vector 2370137  Network.dyn_peer[19]  lookupStabilitySig:vector  ETV
vector 2370138  Network.dyn_peer[19]  lookupTimeSig:vector  ETV
vector 2370142  Network.dyn_peer[21]  lookupHopsSig:vector  ETV
vector 2370143  Network.dyn_peer[21]  lookupStabilitySig:vector  ETV
vector 2370144  Network.dyn_peer[21]  lookupTimeSig:vector  ETV
vector 2370115  Network.dyn_peer[12]  lookupHopsSig:vector  ETV
vector 2370116  Network.dyn_peer[12]  lookupStabilitySig:vector  ETV
vector 2370117  Network.dyn_peer[12]  lookupTimeSig:vector  ETV
vector 2370148  Network.dyn_peer[23]  lookupHopsSig:vector  ETV
vector 2370149  Network.dyn_peer[23]  lookupStabilitySig:vector  ETV
vector 2370150  Network.dyn_peer[23]  lookupTimeSig:vector  ETV
vector 2370124  Network.dyn_peer[15]  lookupHopsSig:vector  ETV
vector 2370125  Network.dyn_peer[15]  lookupStabilitySig:vector  ETV
vector 2370126  Network.dyn_peer[15]  lookupTimeSig:vector  ETV
vector 2370130  Network.dyn_peer[17]  lookupHopsSig:vector  ETV
vector 2370131  Network.dyn_peer[17]  lookupStabilitySig:vector  ETV
vector 2370132  Network.dyn_peer[17]  lookupTimeSig:vector  ETV
vector 2370163  Network.dyn_peer[28]  lookupHopsSig:vector  ETV
vector 2370164  Network.dyn_peer[28]  lookupStabilitySig:vector  ETV
vector 2370165  Network.dyn_peer[28]  lookupTimeSig:vector  ETV
vector 2370202  Network.dyn_peer[41]  lookupHopsSig:vector  ETV
vector 2370203  Network.dyn_peer[41]  lookupStabilitySig:vector  ETV
vector 2370204  Network.dyn_peer[41]  lookupTimeSig:vector  ETV
vector 2370145  Network.dyn_peer[22]  lookupHopsSig:vector  ETV
vector 2370146  Network.dyn_peer[22]  lookupStabilitySig:vector  ETV
vector 2370147  Network.dyn_peer[22]  lookupTimeSig:vector  ETV
vector 2370151  Network.dyn_peer[24]  lookupHopsSig:vector  ETV
vector 2370152  Network.dyn_peer[24]  lookupStabilitySig:vector  ETV
vector 2370153  Network.dyn_peer[24]  lookupTimeSig:vector  ETV
vector 2370256  Network.dyn_peer[59]  lookupHopsSig:vector  ETV
vector 2370257  Network.dyn_peer[59]  lookupStabilitySig:vector  ETV
vector 2370258  Network.dyn_peer[59]  lookupTimeSig:vector  ETV
vector 2370109  Network.dyn_peer[10]  lookupHopsSig:vector  ETV
vector 2370110  Network.dyn_peer[10]  lookupStabilitySig:vector  ETV
vector 2370111  Network.dyn_peer[10]  lookupTimeSig:vector  ETV
vector 2370199  Network.dyn_peer[40]  lookupHopsSig:vector  ETV
vector 2370200  Network.dyn_peer[40]  lookupStabilitySig:vector  ETV
vector 2370201  Network.dyn_peer[40]  lookupTimeSig:vector  ETV
vector 2370157  Network.dyn_peer[26]  lookupHopsSig:vector  ETV
vector 2370158  Network.dyn_peer[26]  lookupStabilitySig:vector  ETV
vector 2370159  Network.dyn_peer[26]  lookupTimeSig:vector  ETV
vector 2370223  Network.dyn_peer[48]  lookupHopsSig:vector  ETV
vector 2370224  Network.dyn_peer[48]  lookupStabilitySig:vector  ETV
vector 2370225  Network.dyn_peer[48]  lookupTimeSig:vector  ETV
vector 2370106  Network.dyn_peer[9]  lookupHopsSig:vector  ETV
vector 2370107  Network.dyn_peer[9]  lookupStabilitySig:vector  ETV
vector 2370108  Network.dyn_peer[9]  lookupTimeSig:vector  ETV
vector 2370166  Network.dyn_peer[29]  lookupHopsSig:vector  ETV
vector 2370167  Network.dyn_peer[29]  lookupStabilitySig:vector  ETV
vector 2370168  Network.dyn_peer[29]  lookupTimeSig:vector  ETV
vector 2370169  Network.dyn_peer[30]  lookupHopsSig:vector  ETV
vector 2370170  Network.dyn_peer[30]  lookupStabilitySig:vector  ETV
vector 2370171  Network.dyn_peer[30]  lookupTimeSig:vector  ETV
vector 2370172  Network.dyn_peer[31]  lookupHopsSig:vector  ETV
vector 2370173  Network.dyn_peer[31]  lookupStabilitySig:vector  ETV
vector 2370174  Network.dyn_peer[31]  lookupTimeSig:vector  ETV
vector 2370244  Network.dyn_peer[55]  lookupHopsSig:vector  ETV
vector 2370245  Network.dyn_peer[55]  lookupStabilitySig:vector  ETV
vector 2370246  Network.dyn_peer[55]  lookupTimeSig:vector  ETV
vector 2370316  Network.dyn_peer[79]  lookupHopsSig:vector  ETV
vector 2370317  Network.dyn_peer[79]  lookupStabilitySig:vector  ETV
vector 2370318  Network.dyn_peer[79]  lookupTimeSig:vector  ETV
vector 2370289  Network.dyn_peer[70]  lookupHopsSig:vector  ETV
vector 2370290  Network.dyn_peer[70]  lookupStabilitySig:vector  ETV
vector 2370291  Network.dyn_peer[70]  lookupTimeSig:vector  ETV
vector 2370238  Network.dyn_peer[53]  lookupHopsSig:vector  ETV
vector 2370239  Network.dyn_peer[53]  lookupStabilitySig:vector  ETV
vector 2370240  Network.dyn_peer[53]  lookupTimeSig:vector  ETV
vector 2370268  Network.dyn_peer[63]  lookupHopsSig:vector  ETV
vector 2370269  Network.dyn_peer[63]  lookupStabilitySig:vector  ETV
vector 2370270  Network.dyn_peer[63]  lookupTimeSig:vector  ETV
vector 2370286  Network.dyn_peer[69]  lookupHopsSig:vector  ETV
vector 2370287  Network.dyn_peer[69]  lookupStabilitySig:vector  ETV
vector 2370288  Network.dyn_peer[69]  lookupTimeSig:vector  ETV
vector 2370229  Network.dyn_peer[50]  lookupHopsSig:vector  ETV
vector 2370230  Network.dyn_peer[50]  lookupStabilitySig:vector  ETV
vector 2370231  Network.dyn_peer[50]  lookupTimeSig:vector  ETV
vector 2370196  Network.dyn_peer[39]  lookupHopsSig:vector  ETV
vector 2370197  Network.dyn_peer[39]  lookupStabilitySig:vector  ETV
vector 2370198  Network.dyn_peer[39]  lookupTimeSig:vector  ETV
vector 2370175  Network.dyn_peer[32]  lookupHopsSig:vector  ETV
vector 2370176  Network.dyn_peer[32]  lookupStabilitySig:vector  ETV
vector 2370177  Network.dyn_peer[32]  lookupTimeSig:vector  ETV
vector 2370295  Network.dyn_peer[72]  lookupHopsSig:vector  ETV
vector 2370296  Network.dyn_peer[72]  lookupStabilitySig:vector  ETV
vector 2370297  Network.dyn_peer[72]  lookupTimeSig:vector  ETV
vector 2370361  Network.dyn_peer[94]  lookupHopsSig:vector  ETV
vector 2370362  Network.dyn_peer[94]  lookupStabilitySig:vector  ETV
vector 2370363  Network.dyn_peer[94]  lookupTimeSig:vector  ETV
vector 2370187  Network.dyn_peer[36]  lookupHopsSig:vector  ETV
vector 2370188  Network.dyn_peer[36]  lookupStabilitySig:vector  ETV
vector 2370189  Network.dyn_peer[36]  lookupTimeSig:vector  ETV
vector 2370310  Network.dyn_peer[77]  lookupHopsSig:vector  ETV
vector 2370311  Network.dyn_peer[77]  lookupStabilitySig:vector  ETV
vector 2370312  Network.dyn_peer[77]  lookupTimeSig:vector  ETV
vector 2370232  Network.dyn_peer[51]  lookupHopsSig:vector  ETV
vector 2370233  Network.dyn_peer[51]  lookupStabilitySig:vector  ETV
vector 2370234  Network.dyn_peer[51]  lookupTimeSig:vector  ETV
vector 2370235  Network.dyn_peer[52]  lookupHopsSig:vector  ETV
vector 2370236  Network.dyn_peer[52]  lookupStabilitySig:vector  ETV
vector 2370237  Network.dyn_peer[52]  lookupTimeSig:vector  ETV
vector 2370388  Network.dyn_peer[103]  lookupHopsSig:vector  ETV
vector 2370389  Network.dyn_peer[103]  lookupStabilitySig:vector  ETV
vector 2370390  Network.dyn_peer[103]  lookupTimeSig:vector  ETV
vector 2370301  Network.dyn_peer[74]  lookupHopsSig:vector  ETV
vector 2370302  Network.dyn_peer[74]  lookupStabilitySig:vector  ETV
vector 2370303  Network.dyn_peer[74]  lookupTimeSig:vector  ETV
vector 2370391  Network.dyn_peer[104]  lookupHopsSig:vector  ETV
vector 2370392  Network.dyn_peer[104]  lookupStabilitySig:vector  ETV
vector 2370393  Network.dyn_peer[104]  lookupTimeSig:vector  ETV
vector 2370337  Network.dyn_peer[86]  lookupHopsSig:vector  ETV
vector 2370338  Network.dyn_peer[86]  lookupStabilitySig:vector  ETV
vector 2370339  Network.dyn_peer[86]  lookupTimeSig:vector  ETV
vector 2370445  Network.dyn_peer[122]  lookupHopsSig:vector  ETV
vector 2370446  Network.dyn_peer[122]  lookupStabilitySig:vector  ETV
vector 2370447  Network.dyn_peer[122]  lookupTimeSig:vector  ETV
vector 2370214  Network.dyn_peer[45]  lookupHopsSig:vector  ETV
vector 2370215  Network.dyn_peer[45]  lookupStabilitySig:vector  ETV
vector 2370216  Network.dyn_peer[45]  lookupTimeSig:vector  ETV
vector 2370280  Network.dyn_peer[67]  lookupHopsSig:vector  ETV
vector 2370281  Network.dyn_peer[67]  lookupStabilitySig:vector  ETV
vector 2370282  Network.dyn_peer[67]  lookupTimeSig:vector  ETV
vector 2370406  Network.dyn_peer[109]  lookupHopsSig:vector  ETV
vector 2370407  Network.dyn_peer[109]  lookupStabilitySig:vector  ETV
vector 2370408  Network.dyn_peer[109]  lookupTimeSig:vector  ETV
vector 2370409  Network.dyn_peer[110]  lookupHopsSig:vector  ETV
vector 2370410  Network.dyn_peer[110]  lookupStabilitySig:vector  ETV
vector 2370411  Network.dyn_peer[110]  lookupTimeSig:vector  ETV
vector 2370265  Network.dyn_peer[62]  lookupHopsSig:vector  ETV
vector 2370266  Network.dyn_peer[62]  lookupStabilitySig:vector  ETV
vector 2370267  Network.dyn_peer[62]  lookupTimeSig:vector  ETV
vector 2370325  Network.dyn_peer[82]  lookupHopsSig:vector  ETV
vector 2370326  Network.dyn_peer[82]  lookupStabilitySig:vector  ETV
vector 2370327  Network.dyn_peer[82]  lookupTimeSig:vector  ETV
vector 2370178  Network.dyn_peer[33]  lookupHopsSig:vector  ETV
vector 2370179  Network.dyn_peer[33]  lookupStabilitySig:vector  ETV
vector 2370180  Network.dyn_peer[33]  lookupTimeSig:vector  ETV
vector 2370208  Network.dyn_peer[43]  lookupHopsSig:vector  ETV
vector 2370209  Network.dyn_peer[43]  lookupStabilitySig:vector  ETV
vector 2370210  Network.dyn_peer[43]  lookupTimeSig:vector  ETV
vector 2370328  Network.dyn_peer[83]  lookupHopsSig:vector  ETV
vector 2370329  Network.dyn_peer[83]  lookupStabilitySig:vector  ETV
vector 2370330  Network.dyn_peer[83]  lookupTimeSig:vector  ETV
vector 2370211  Network.dyn_peer[44]  lookupHopsSig:vector  ETV
vector 2370212  Network.dyn_peer[44]  lookupStabilitySig:vector  ETV
vector 2370213  Network.dyn_peer[44]  lookupTimeSig:vector  ETV
vector 2370457  Network.dyn_peer[126]  lookupHopsSig:vector  ETV
vector 2370458  Network.dyn_peer[126]  lookupStabilitySig:vector  ETV
vector 2370459  Network.dyn_peer[126]  lookupTimeSig:vector  ETV
vector 2370313  Network.dyn_peer[78]  lookupHopsSig:vector  ETV
vector 2370314  Network.dyn_peer[78]  lookupStabilitySig:vector  ETV
vector 2370315  Network.dyn_peer[78]  lookupTimeSig:vector  ETV
vector 2370376  Network.dyn_peer[99]  lookupHopsSig:vector  ETV
vector 2370377  Network.dyn_peer[99]  lookupStabilitySig:vector  ETV
vector 2370378  Network.dyn_peer[99]  lookupTimeSig:vector  ETV
vector 2370349  Network.dyn_peer[90]  lookupHopsSig:vector  ETV
vector 2370350  Network.dyn_peer[90]  lookupStabilitySig:vector  ETV
vector 2370351  Network.dyn_peer[90]  lookupTimeSig:vector  ETV
vector 2370379  Network.dyn_peer[100]  lookupHopsSig:vector  ETV
vector 2370380  Network.dyn_peer[100]  lookupStabilitySig:vector  ETV
vector 2370381  Network.dyn_peer[100]  lookupTimeSig:vector  ETV
vector 2370262  Network.dyn_peer[61]  lookupHopsSig:vector  ETV
vector 2370263  Network.dyn_peer[61]  lookupStabilitySig:vector  ETV
vector 2370264  Network.dyn_peer[61]  lookupTimeSig:vector  ETV
vector 2370355  Network.dyn_peer[92]  lookupHopsSig:vector  ETV
vector 2370356  Network.dyn_peer[92]  lookupStabilitySig:vector  ETV
vector 2370357  Network.dyn_peer[92]  lookupTimeSig:vector  ETV
vector 2370448  Network.dyn_peer[123]  lookupHopsSig:vector  ETV
vector 2370449  Network.dyn_peer[123]  lookupStabilitySig:vector  ETV
vector 2370450  Network.dyn_peer[123]  lookupTimeSig:vector  ETV
vector 2370331  Network.dyn_peer[84]  lookupHopsSig:vector  ETV
vector 2370332  Network.dyn_peer[84]  lookupStabilitySig:vector  ETV
vector 2370333  Network.dyn_peer[84]  lookupTimeSig:vector  ETV
vector 2370184  Network.dyn_peer[35]  lookupHopsSig:vector  ETV
vector 2370185  Network.dyn_peer[35]  lookupStabilitySig:vector  ETV
vector 2370186  Network.dyn_peer[35]  lookupTimeSig:vector  ETV
vector 2370217  Network.dyn_peer[46]  lookupHopsSig:vector  ETV
vector 2370218  Network.dyn_peer[46]  lookupStabilitySig:vector  ETV
vector 2370219  Network.dyn_peer[46]  lookupTimeSig:vector  ETV
vector 2370277  Network.dyn_peer[66]  lookupHopsSig:vector  ETV
vector 2370278  Network.dyn_peer[66]  lookupStabilitySig:vector  ETV
vector 2370279  Network.dyn_peer[66]  lookupTimeSig:vector  ETV
vector 2370397  Network.dyn_peer[106]  lookupHopsSig:vector  ETV
vector 2370398  Network.dyn_peer[106]  lookupStabilitySig:vector  ETV
vector 2370399  Network.dyn_peer[106]  lookupTimeSig:vector  ETV
vector 2370487  Network.dyn_peer[136]  lookupHopsSig:vector  ETV
vector 2370488  Network.dyn_peer[136]  lookupStabilitySig:vector  ETV
vector 2370489  Network.dyn_peer[136]  lookupTimeSig:vector  ETV
vector 2370352  Network.dyn_peer[91]  lookupHopsSig:vector  ETV
vector 2370353  Network.dyn_peer[91]  lookupStabilitySig:vector  ETV
vector 2370354  Network.dyn_peer[91]  lookupTimeSig:vector  ETV
vector 2370547  Network.dyn_peer[156]  lookupHopsSig:vector  ETV
vector 2370548  Network.dyn_peer[156]  lookupStabilitySig:vector  ETV
vector 2370549  Network.dyn_peer[156]  lookupTimeSig:vector  ETV
vector 2370193  Network.dyn_peer[38]  lookupHopsSig:vector  ETV
vector 2370194  Network.dyn_peer[38]  lookupStabilitySig:vector  ETV
vector 2370195  Network.dyn_peer[38]  lookupTimeSig:vector  ETV
vector 2370523  Network.dyn_peer[148]  lookupHopsSig:vector  ETV
vector 2370524  Network.dyn_peer[148]  lookupStabilitySig:vector  ETV
vector 2370525  Network.dyn_peer[148]  lookupTimeSig:vector  ETV
vector 2370226  Network.dyn_peer[49]  lookupHopsSig:vector  ETV
vector 2370227  Network.dyn_peer[49]  lookupStabilitySig:vector  ETV
vector 2370228  Network.dyn_peer[49]  lookupTimeSig:vector  ETV
vector 2370346  Network.dyn_peer[89]  lookupHopsSig:vector  ETV
vector 2370347  Network.dyn_peer[89]  lookupStabilitySig:vector  ETV
vector 2370348  Network.dyn_peer[89]  lookupTimeSig:vector  ETV
vector 2370496  Network.dyn_peer[139]  lookupHopsSig:vector  ETV
vector 2370497  Network.dyn_peer[139]  lookupStabilitySig:vector  ETV
vector 2370498  Network.dyn_peer[139]  lookupTimeSig:vector  ETV
vector 2370499  Network.dyn_peer[140]  lookupHopsSig:vector  ETV
vector 2370500  Network.dyn_peer[140]  lookupStabilitySig:vector  ETV
vector 2370501  Network.dyn_peer[140]  lookupTimeSig:vector  ETV
vector 2370442  Network.dyn_peer[121]  lookupHopsSig:vector  ETV
vector 2370443  Network.dyn_peer[121]  lookupStabilitySig:vector  ETV
vector 2370444  Network.dyn_peer[121]  lookupTimeSig:vector  ETV
vector 2370421  Network.dyn_peer[114]  lookupHopsSig:vector  ETV
vector 2370422  Network.dyn_peer[114]  lookupStabilitySig:vector  ETV
vector 2370423  Network.dyn_peer[114]  lookupTimeSig:vector  ETV
vector 2370247  Network.dyn_peer[56]  lookupHopsSig:vector  ETV
vector 2370248  Network.dyn_peer[56]  lookupStabilitySig:vector  ETV
vector 2370249  Network.dyn_peer[56]  lookupTimeSig:vector  ETV
vector 2370427  Network.dyn_peer[116]  lookupHopsSig:vector  ETV
vector 2370428  Network.dyn_peer[116]  lookupStabilitySig:vector  ETV
vector 2370429  Network.dyn_peer[116]  lookupTimeSig:vector  ETV
vector 2370190  Network.dyn_peer[37]  lookupHopsSig:vector  ETV
vector 2370191  Network.dyn_peer[37]  lookupStabilitySig:vector  ETV
vector 2370192  Network.dyn_peer[37]  lookupTimeSig:vector  ETV
vector 2370502  Network.dyn_peer[141]  lookupHopsSig:vector  ETV
vector 2370503  Network.dyn_peer[141]  lookupStabilitySig:vector  ETV
vector 2370504  Network.dyn_peer[141]  lookupTimeSig:vector  ETV
vector 2370385  Network.dyn_peer[102]  lookupHopsSig:vector  ETV
vector 2370386  Network.dyn_peer[102]  lookupStabilitySig:vector  ETV
vector 2370387  Network.dyn_peer[102]  lookupTimeSig:vector  ETV
vector 2370574  Network.dyn_peer[165]  lookupHopsSig:vector  ETV
vector 2370575  Network.dyn_peer[165]  lookupStabilitySig:vector  ETV
vector 2370576  Network.dyn_peer[165]  lookupTimeSig:vector  ETV
vector 2370340  Network.dyn_peer[87]  lookupHopsSig:vector  ETV
vector 2370341  Network.dyn_peer[87]  lookupStabilitySig:vector  ETV
vector 2370342  Network.dyn_peer[87]  lookupTimeSig:vector  ETV
vector 2370430  Network.dyn_peer[117]  lookupHopsSig:vector  ETV
vector 2370431  Network.dyn_peer[117]  lookupStabilitySig:vector  ETV
vector 2370432  Network.dyn_peer[117]  lookupTimeSig:vector  ETV
vector 2370583  Network.dyn_peer[168]  lookupHopsSig:vector  ETV
vector 2370584  Network.dyn_peer[168]  lookupStabilitySig:vector  ETV
vector 2370585  Network.dyn_peer[168]  lookupTimeSig:vector  ETV
vector 2370436  Network.dyn_peer[119]  lookupHopsSig:vector  ETV
vector 2370437  Network.dyn_peer[119]  lookupStabilitySig:vector  ETV
vector 2370438  Network.dyn_peer[119]  lookupTimeSig:vector  ETV
vector 2370526  Network.dyn_peer[149]  lookupHopsSig:vector  ETV
vector 2370527  Network.dyn_peer[149]  lookupStabilitySig:vector  ETV
vector 2370528  Network.dyn_peer[149]  lookupTimeSig:vector  ETV
vector 2370469  Network.dyn_peer[130]  lookupHopsSig:vector  ETV
vector 2370470  Network.dyn_peer[130]  lookupStabilitySig:vector  ETV
vector 2370471  Network.dyn_peer[130]  lookupTimeSig:vector  ETV
vector 2370412  Network.dyn_peer[111]  lookupHopsSig:vector  ETV
vector 2370413  Network.dyn_peer[111]  lookupStabilitySig:vector  ETV
vector 2370414  Network.dyn_peer[111]  lookupTimeSig:vector  ETV
vector 2370418  Network.dyn_peer[113]  lookupHopsSig:vector  ETV
vector 2370419  Network.dyn_peer[113]  lookupStabilitySig:vector  ETV
vector 2370420  Network.dyn_peer[113]  lookupTimeSig:vector  ETV
vector 2370478  Network.dyn_peer[133]  lookupHopsSig:vector  ETV
vector 2370479  Network.dyn_peer[133]  lookupStabilitySig:vector  ETV
vector 2370480  Network.dyn_peer[133]  lookupTimeSig:vector  ETV
vector 2370508  Network.dyn_peer[143]  lookupHopsSig:vector  ETV
vector 2370509  Network.dyn_peer[143]  lookupStabilitySig:vector  ETV
vector 2370510  Network.dyn_peer[143]  lookupTimeSig:vector  ETV
vector 2370181  Network.dyn_peer[34]  lookupHopsSig:vector  ETV
vector 2370182  Network.dyn_peer[34]  lookupStabilitySig:vector  ETV
vector 2370183  Network.dyn_peer[34]  lookupTimeSig:vector  ETV
vector 2370334  Network.dyn_peer[85]  lookupHopsSig:vector  ETV
vector 2370335  Network.dyn_peer[85]  lookupStabilitySig:vector  ETV
vector 2370336  Network.dyn_peer[85]  lookupTimeSig:vector  ETV
vector 2370484  Network.dyn_peer[135]  lookupHopsSig:vector  ETV
vector 2370485  Network.dyn_peer[135]  lookupStabilitySig:vector  ETV
vector 2370486  Network.dyn_peer[135]  lookupTimeSig:vector  ETV
vector 2370520  Network.dyn_peer[147]  lookupHopsSig:vector  ETV
vector 2370521  Network.dyn_peer[147]  lookupStabilitySig:vector  ETV
vector 2370522  Network.dyn_peer[147]  lookupTimeSig:vector  ETV
vector 2370433  Network.dyn_peer[118]  lookupHopsSig:vector  ETV
vector 2370434  Network.dyn_peer[118]  lookupStabilitySig:vector  ETV
vector 2370435  Network.dyn_peer[118]  lookupTimeSig:vector  ETV
vector 2370559  Network.dyn_peer[160]  lookupHopsSig:vector  ETV
vector 2370560  Network.dyn_peer[160]  lookupStabilitySig:vector  ETV
vector 2370561  Network.dyn_peer[160]  lookupTimeSig:vector  ETV
vector 2370451  Network.dyn_peer[124]  lookupHopsSig:vector  ETV
vector 2370452  Network.dyn_peer[124]  lookupStabilitySig:vector  ETV
vector 2370453  Network.dyn_peer[124]  lookupTimeSig:vector  ETV
vector 2370250  Network.dyn_peer[57]  lookupHopsSig:vector  ETV
vector 2370251  Network.dyn_peer[57]  lookupStabilitySig:vector  ETV
vector 2370252  Network.dyn_peer[57]  lookupTimeSig:vector  ETV
vector 2370283  Network.dyn_peer[68]  lookupHopsSig:vector  ETV
vector 2370284  Network.dyn_peer[68]  lookupStabilitySig:vector  ETV
vector 2370285  Network.dyn_peer[68]  lookupTimeSig:vector  ETV
vector 2370343  Network.dyn_peer[88]  lookupHopsSig:vector  ETV
vector 2370344  Network.dyn_peer[88]  lookupStabilitySig:vector  ETV
vector 2370345  Network.dyn_peer[88]  lookupTimeSig:vector  ETV
vector 2370439  Network.dyn_peer[120]  lookupHopsSig:vector  ETV
vector 2370440  Network.dyn_peer[120]  lookupStabilitySig:vector  ETV
vector 2370441  Network.dyn_peer[120]  lookupTimeSig:vector  ETV
vector 2370646  Network.dyn_peer[189]  lookupHopsSig:vector  ETV
vector 2370647  Network.dyn_peer[189]  lookupStabilitySig:vector  ETV
vector 2370648  Network.dyn_peer[189]  lookupTimeSig:vector  ETV
vector 2370472  Network.dyn_peer[131]  lookupHopsSig:vector  ETV
vector 2370473  Network.dyn_peer[131]  lookupStabilitySig:vector  ETV
vector 2370474  Network.dyn_peer[131]  lookupTimeSig:vector  ETV
vector 2370682  Network.dyn_peer[201]  lookupHopsSig:vector  ETV
vector 2370683  Network.dyn_peer[201]  lookupStabilitySig:vector  ETV
vector 2370684  Network.dyn_peer[201]  lookupTimeSig:vector  ETV
vector 2370535  Network.dyn_peer[152]  lookupHopsSig:vector  ETV
vector 2370536  Network.dyn_peer[152]  lookupStabilitySig:vector  ETV
vector 2370537  Network.dyn_peer[152]  lookupTimeSig:vector  ETV
vector 2370625  Network.dyn_peer[182]  lookupHopsSig:vector  ETV
vector 2370626  Network.dyn_peer[182]  lookupStabilitySig:vector  ETV
vector 2370627  Network.dyn_peer[182]  lookupTimeSig:vector  ETV
vector 2370658  Network.dyn_peer[193]  lookupHopsSig:vector  ETV
vector 2370659  Network.dyn_peer[193]  lookupStabilitySig:vector  ETV
vector 2370660  Network.dyn_peer[193]  lookupTimeSig:vector  ETV
vector 2370460  Network.dyn_peer[127]  lookupHopsSig:vector  ETV
vector 2370461  Network.dyn_peer[127]  lookupStabilitySig:vector  ETV
vector 2370462  Network.dyn_peer[127]  lookupTimeSig:vector  ETV
vector 2370586  Network.dyn_peer[169]  lookupHopsSig:vector  ETV
vector 2370587  Network.dyn_peer[169]  lookupStabilitySig:vector  ETV
vector 2370588  Network.dyn_peer[169]  lookupTimeSig:vector  ETV
vector 2370259  Network.dyn_peer[60]  lookupHopsSig:vector  ETV
vector 2370260  Network.dyn_peer[60]  lookupStabilitySig:vector  ETV
vector 2370261  Network.dyn_peer[60]  lookupTimeSig:vector  ETV
vector 2370619  Network.dyn_peer[180]  lookupHopsSig:vector  ETV
vector 2370620  Network.dyn_peer[180]  lookupStabilitySig:vector  ETV
vector 2370621  Network.dyn_peer[180]  lookupTimeSig:vector  ETV
vector 2370322  Network.dyn_peer[81]  lookupHopsSig:vector  ETV
vector 2370323  Network.dyn_peer[81]  lookupStabilitySig:vector  ETV
vector 2370324  Network.dyn_peer[81]  lookupTimeSig:vector  ETV
vector 2370382  Network.dyn_peer[101]  lookupHopsSig:vector  ETV
vector 2370383  Network.dyn_peer[101]  lookupStabilitySig:vector  ETV
vector 2370384  Network.dyn_peer[101]  lookupTimeSig:vector  ETV
vector 2370592  Network.dyn_peer[171]  lookupHopsSig:vector  ETV
vector 2370593  Network.dyn_peer[171]  lookupStabilitySig:vector  ETV
vector 2370594  Network.dyn_peer[171]  lookupTimeSig:vector  ETV
vector 2370358  Network.dyn_peer[93]  lookupHopsSig:vector  ETV
vector 2370359  Network.dyn_peer[93]  lookupStabilitySig:vector  ETV
vector 2370360  Network.dyn_peer[93]  lookupTimeSig:vector  ETV
vector 2370271  Network.dyn_peer[64]  lookupHopsSig:vector  ETV
vector 2370272  Network.dyn_peer[64]  lookupStabilitySig:vector  ETV
vector 2370273  Network.dyn_peer[64]  lookupTimeSig:vector  ETV
vector 2370661  Network.dyn_peer[194]  lookupHopsSig:vector  ETV
vector 2370662  Network.dyn_peer[194]  lookupStabilitySig:vector  ETV
vector 2370663  Network.dyn_peer[194]  lookupTimeSig:vector  ETV
vector 2370307  Network.dyn_peer[76]  lookupHopsSig:vector  ETV
vector 2370308  Network.dyn_peer[76]  lookupStabilitySig:vector  ETV
vector 2370309  Network.dyn_peer[76]  lookupTimeSig:vector  ETV
vector 2370367  Network.dyn_peer[96]  lookupHopsSig:vector  ETV
vector 2370368  Network.dyn_peer[96]  lookupStabilitySig:vector  ETV
vector 2370369  Network.dyn_peer[96]  lookupTimeSig:vector  ETV
vector 2370220  Network.dyn_peer[47]  lookupHopsSig:vector  ETV
vector 2370221  Network.dyn_peer[47]  lookupStabilitySig:vector  ETV
vector 2370222  Network.dyn_peer[47]  lookupTimeSig:vector  ETV
vector 2370670  Network.dyn_peer[197]  lookupHopsSig:vector  ETV
vector 2370671  Network.dyn_peer[197]  lookupStabilitySig:vector  ETV
vector 2370672  Network.dyn_peer[197]  lookupTimeSig:vector  ETV
vector 2370733  Network.dyn_peer[218]  lookupHopsSig:vector  ETV
vector 2370734  Network.dyn_peer[218]  lookupStabilitySig:vector  ETV
vector 2370735  Network.dyn_peer[218]  lookupTimeSig:vector  ETV
vector 2370562  Network.dyn_peer[161]  lookupHopsSig:vector  ETV
vector 2370563  Network.dyn_peer[161]  lookupStabilitySig:vector  ETV
vector 2370564  Network.dyn_peer[161]  lookupTimeSig:vector  ETV
vector 2370598  Network.dyn_peer[173]  lookupHopsSig:vector  ETV
vector 2370599  Network.dyn_peer[173]  lookupStabilitySig:vector  ETV
vector 2370600  Network.dyn_peer[173]  lookupTimeSig:vector  ETV
vector 2370514  Network.dyn_peer[145]  lookupHopsSig:vector  ETV
vector 2370515  Network.dyn_peer[145]  lookupStabilitySig:vector  ETV
vector 2370516  Network.dyn_peer[145]  lookupTimeSig:vector  ETV
vector 2370637  Network.dyn_peer[186]  lookupHopsSig:vector  ETV
vector 2370638  Network.dyn_peer[186]  lookupStabilitySig:vector  ETV
vector 2370639  Network.dyn_peer[186]  lookupTimeSig:vector  ETV
vector 2370757  Network.dyn_peer[226]  lookupHopsSig:vector  ETV
vector 2370758  Network.dyn_peer[226]  lookupStabilitySig:vector  ETV
vector 2370759  Network.dyn_peer[226]  lookupTimeSig:vector  ETV
vector 2370370  Network.dyn_peer[97]  lookupHopsSig:vector  ETV
vector 2370371  Network.dyn_peer[97]  lookupStabilitySig:vector  ETV
vector 2370372  Network.dyn_peer[97]  lookupTimeSig:vector  ETV
vector 2370400  Network.dyn_peer[107]  lookupHopsSig:vector  ETV
vector 2370401  Network.dyn_peer[107]  lookupStabilitySig:vector  ETV
vector 2370402  Network.dyn_peer[107]  lookupTimeSig:vector  ETV
vector 2370640  Network.dyn_peer[187]  lookupHopsSig:vector  ETV
vector 2370641  Network.dyn_peer[187]  lookupStabilitySig:vector  ETV
vector 2370642  Network.dyn_peer[187]  lookupTimeSig:vector  ETV
vector 2370700  Network.dyn_peer[207]  lookupHopsSig:vector  ETV
vector 2370701  Network.dyn_peer[207]  lookupStabilitySig:vector  ETV
vector 2370702  Network.dyn_peer[207]  lookupTimeSig:vector  ETV
vector 2370613  Network.dyn_peer[178]  lookupHopsSig:vector  ETV
vector 2370614  Network.dyn_peer[178]  lookupStabilitySig:vector  ETV
vector 2370615  Network.dyn_peer[178]  lookupTimeSig:vector  ETV
vector 2370706  Network.dyn_peer[209]  lookupHopsSig:vector  ETV
vector 2370707  Network.dyn_peer[209]  lookupStabilitySig:vector  ETV
vector 2370708  Network.dyn_peer[209]  lookupTimeSig:vector  ETV
vector 2370571  Network.dyn_peer[164]  lookupHopsSig:vector  ETV
vector 2370572  Network.dyn_peer[164]  lookupStabilitySig:vector  ETV
vector 2370573  Network.dyn_peer[164]  lookupTimeSig:vector  ETV