version 2
run Stability2-61-20130528-01:29:29-24168
attr configname Stability2
attr datetime 20130528-01:29:29
attr experiment Stability2
attr inifile omnetpp.ini
attr iterationvars $0=200
attr iterationvars2 "$0=200, $repetition=1"
attr measurement $0=200
attr network Network
attr processid 24168
attr repetition 1
attr replication #1
attr resultdir results
attr runnumber 61
attr seedset 61

vector 1860061  Network.churner  inGoingSizeSig:vector  ETV
vector 1830061  Network.dyn_peer[0]  lookupHopsSig:vector  ETV
vector 1830062  Network.dyn_peer[0]  lookupStabilitySig:vector  ETV
vector 1830063  Network.dyn_peer[0]  lookupTimeSig:vector  ETV
vector 1830064  Network.dyn_peer[1]  lookupHopsSig:vector  ETV
vector 1830065  Network.dyn_peer[1]  lookupStabilitySig:vector  ETV
vector 1830066  Network.dyn_peer[1]  lookupTimeSig:vector  ETV
vector 1830085  Network.dyn_peer[8]  lookupHopsSig:vector  ETV
vector 1830086  Network.dyn_peer[8]  lookupStabilitySig:vector  ETV
vector 1830087  Network.dyn_peer[8]  lookupTimeSig:vector  ETV
vector 1830070  Network.dyn_peer[3]  lookupHopsSig:vector  ETV
vector 1830071  Network.dyn_peer[3]  lookupStabilitySig:vector  ETV
vector 1830072  Network.dyn_peer[3]  lookupTimeSig:vector  ETV
vector 1830073  Network.dyn_peer[4]  lookupHopsSig:vector  ETV
vector 1830074  Network.dyn_peer[4]  lookupStabilitySig:vector  ETV
vector 1830075  Network.dyn_peer[4]  lookupTimeSig:vector  ETV
vector 1830103  Network.dyn_peer[14]  lookupHopsSig:vector  ETV
vector 1830104  Network.dyn_peer[14]  lookupStabilitySig:vector  ETV
vector 1830105  Network.dyn_peer[14]  lookupTimeSig:vector  ETV
vector 1830076  Network.dyn_peer[5]  lookupHopsSig:vector  ETV
vector 1830077  Network.dyn_peer[5]  lookupStabilitySig:vector  ETV
vector 1830078  Network.dyn_peer[5]  lookupTimeSig:vector  ETV
vector 1830082  Network.dyn_peer[7]  lookupHopsSig:vector  ETV
vector 1830083  Network.dyn_peer[7]  lookupStabilitySig:vector  ETV
vector 1830084  Network.dyn_peer[7]  lookupTimeSig:vector  ETV
vector 1830094  Network.dyn_peer[11]  lookupHopsSig:vector  ETV
vector 1830095  Network.dyn_peer[11]  lookupStabilitySig:vector  ETV
vector 1830096  Network.dyn_peer[11]  lookupTimeSig:vector  ETV
vector 1830067  Network.dyn_peer[2]  lookupHopsSig:vector  ETV
vector 1830068  Network.dyn_peer[2]  lookupStabilitySig:vector  ETV
vector 1830069  Network.dyn_peer[2]  lookupTimeSig:vector  ETV
vector 1830079  Network.dyn_peer[6]  lookupHopsSig:vector  ETV
vector 1830080  Network.dyn_peer[6]  lookupStabilitySig:vector  ETV
vector 1830081  Network.dyn_peer[6]  lookupTimeSig:vector  ETV
vector 1830109  Network.dyn_peer[16]  lookupHopsSig:vector  ETV
vector 1830110  Network.dyn_peer[16]  lookupStabilitySig:vector  ETV
vector 1830111  Network.dyn_peer[16]  lookupTimeSig:vector  ETV
vector 1830112  Network.dyn_peer[17]  lookupHopsSig:vector  ETV
vector 1830113  Network.dyn_peer[17]  lookupStabilitySig:vector  ETV
vector 1830114  Network.dyn_peer[17]  lookupTimeSig:vector  ETV
vector 1830091  Network.dyn_peer[10]  lookupHopsSig:vector  ETV
vector 1830092  Network.dyn_peer[10]  lookupStabilitySig:vector  ETV
vector 1830093  Network.dyn_peer[10]  lookupTimeSig:vector  ETV
vector 1830127  Network.dyn_peer[22]  lookupHopsSig:vector  ETV
vector 1830128  Network.dyn_peer[22]  lookupStabilitySig:vector  ETV
vector 1830129  Network.dyn_peer[22]  lookupTimeSig:vector  ETV
vector 1830100  Network.dyn_peer[13]  lookupHopsSig:vector  ETV
vector 1830101  Network.dyn_peer[13]  lookupStabilitySig:vector  ETV
vector 1830102  Network.dyn_peer[13]  lookupTimeSig:vector  ETV
vector 1830130  Network.dyn_peer[23]  lookupHopsSig:vector  ETV
vector 1830131  Network.dyn_peer[23]  lookupStabilitySig:vector  ETV
vector 1830132  Network.dyn_peer[23]  lookupTimeSig:vector  ETV
vector 1830088  Network.dyn_peer[9]  lookupHopsSig:vector  ETV
vector 1830089  Network.dyn_peer[9]  lookupStabilitySig:vector  ETV
vector 1830090  Network.dyn_peer[9]  lookupTimeSig:vector  ETV
vector 1830118  Network.dyn_peer[19]  lookupHopsSig:vector  ETV
vector 1830119  Network.dyn_peer[19]  lookupStabilitySig:vector  ETV
vector 1830120  Network.dyn_peer[19]  lookupTimeSig:vector  ETV
vector 1830148  Network.dyn_peer[29]  lookupHopsSig:vector  ETV
vector 1830149  Network.dyn_peer[29]  lookupStabilitySig:vector  ETV
vector 1830150  Network.dyn_peer[29]  lookupTimeSig:vector  ETV
vector 1830121  Network.dyn_peer[20]  lookupHopsSig:vector  ETV
vector 1830122  Network.dyn_peer[20]  lookupStabilitySig:vector  ETV
vector 1830123  Network.dyn_peer[20]  lookupTimeSig:vector  ETV
vector 1830157  Network.dyn_peer[32]  lookupHopsSig:vector  ETV
vector 1830158  Network.dyn_peer[32]  lookupStabilitySig:vector  ETV
vector 1830159  Network.dyn_peer[32]  lookupTimeSig:vector  ETV
vector 1830139  Network.dyn_peer[26]  lookupHopsSig:vector  ETV
vector 1830140  Network.dyn_peer[26]  lookupStabilitySig:vector  ETV
vector 1830141  Network.dyn_peer[26]  lookupTimeSig:vector  ETV
vector 1830142  Network.dyn_peer[27]  lookupHopsSig:vector  ETV
vector 1830143  Network.dyn_peer[27]  lookupStabilitySig:vector  ETV
vector 1830144  Network.dyn_peer[27]  lookupTimeSig:vector  ETV
vector 1830172  Network.dyn_peer[37]  lookupHopsSig:vector  ETV
vector 1830173  Network.dyn_peer[37]  lookupStabilitySig:vector  ETV
vector 1830174  Network.dyn_peer[37]  lookupTimeSig:vector  ETV
vector 1830115  Network.dyn_peer[18]  lookupHopsSig:vector  ETV
vector 1830116  Network.dyn_peer[18]  lookupStabilitySig:vector  ETV
vector 1830117  Network.dyn_peer[18]  lookupTimeSig:vector  ETV
vector 1830178  Network.dyn_peer[39]  lookupHopsSig:vector  ETV
vector 1830179  Network.dyn_peer[39]  lookupStabilitySig:vector  ETV
vector 1830180  Network.dyn_peer[39]  lookupTimeSig:vector  ETV
vector 1830097  Network.dyn_peer[12]  lookupHopsSig:vector  ETV
vector 1830098  Network.dyn_peer[12]  lookupStabilitySig:vector  ETV
vector 1830099  Network.dyn_peer[12]  lookupTimeSig:vector  ETV
vector 1830106  Network.dyn_peer[15]  lookupHopsSig:vector  ETV
vector 1830107  Network.dyn_peer[15]  lookupStabilitySig:vector  ETV
vector 1830108  Network.dyn_peer[15]  lookupTimeSig:vector  ETV
vector 1830220  Network.dyn_peer[53]  lookupHopsSig:vector  ETV
vector 1830221  Network.dyn_peer[53]  lookupStabilitySig:vector  ETV
vector 1830222  Network.dyn_peer[53]  lookupTimeSig:vector  ETV
vector 1830136  Network.dyn_peer[25]  lookupHopsSig:vector  ETV
vector 1830137  Network.dyn_peer[25]  lookupStabilitySig:vector  ETV
vector 1830138  Network.dyn_peer[25]  lookupTimeSig:vector  ETV
vector 1830199  Network.dyn_peer[46]  lookupHopsSig:vector  ETV
vector 1830200  Network.dyn_peer[46]  lookupStabilitySig:vector  ETV
vector 1830201  Network.dyn_peer[46]  lookupTimeSig:vector  ETV
vector 1830202  Network.dyn_peer[47]  lookupHopsSig:vector  ETV
vector 1830203  Network.dyn_peer[47]  lookupStabilitySig:vector  ETV
vector 1830204  Network.dyn_peer[47]  lookupTimeSig:vector  ETV
vector 1830151  Network.dyn_peer[30]  lookupHopsSig:vector  ETV
vector 1830152  Network.dyn_peer[30]  lookupStabilitySig:vector  ETV
vector 1830153  Network.dyn_peer[30]  lookupTimeSig:vector  ETV
vector 1830124  Network.dyn_peer[21]  lookupHopsSig:vector  ETV
vector 1830125  Network.dyn_peer[21]  lookupStabilitySig:vector  ETV
vector 1830126  Network.dyn_peer[21]  lookupTimeSig:vector  ETV
vector 1830160  Network.dyn_peer[33]  lookupHopsSig:vector  ETV
vector 1830161  Network.dyn_peer[33]  lookupStabilitySig:vector  ETV
vector 1830162  Network.dyn_peer[33]  lookupTimeSig:vector  ETV
vector 1830133  Network.dyn_peer[24]  lookupHopsSig:vector  ETV
vector 1830134  Network.dyn_peer[24]  lookupStabilitySig:vector  ETV
vector 1830135  Network.dyn_peer[24]  lookupTimeSig:vector  ETV
vector 1830193  Network.dyn_peer[44]  lookupHopsSig:vector  ETV
vector 1830194  Network.dyn_peer[44]  lookupStabilitySig:vector  ETV
vector 1830195  Network.dyn_peer[44]  lookupTimeSig:vector  ETV
vector 1830232  Network.dyn_peer[57]  lookupHopsSig:vector  ETV
vector 1830233  Network.dyn_peer[57]  lookupStabilitySig:vector  ETV
vector 1830234  Network.dyn_peer[57]  lookupTimeSig:vector  ETV
vector 1830145  Network.dyn_peer[28]  lookupHopsSig:vector  ETV
vector 1830146  Network.dyn_peer[28]  lookupStabilitySig:vector  ETV
vector 1830147  Network.dyn_peer[28]  lookupTimeSig:vector  ETV
vector 1830265  Network.dyn_peer[68]  lookupHopsSig:vector  ETV
vector 1830266  Network.dyn_peer[68]  lookupStabilitySig:vector  ETV
vector 1830267  Network.dyn_peer[68]  lookupTimeSig:vector  ETV
vector 1830211  Network.dyn_peer[50]  lookupHopsSig:vector  ETV
vector 1830212  Network.dyn_peer[50]  lookupStabilitySig:vector  ETV
vector 1830213  Network.dyn_peer[50]  lookupTimeSig:vector  ETV
vector 1830154  Network.dyn_peer[31]  lookupHopsSig:vector  ETV
vector 1830155  Network.dyn_peer[31]  lookupStabilitySig:vector  ETV
vector 1830156  Network.dyn_peer[31]  lookupTimeSig:vector  ETV
vector 1830166  Network.dyn_peer[35]  lookupHopsSig:vector  ETV
vector 1830167  Network.dyn_peer[35]  lookupStabilitySig:vector  ETV
vector 1830168  Network.dyn_peer[35]  lookupTimeSig:vector  ETV
vector 1830169  Network.dyn_peer[36]  lookupHopsSig:vector  ETV
vector 1830170  Network.dyn_peer[36]  lookupStabilitySig:vector  ETV
vector 1830171  Network.dyn_peer[36]  lookupTimeSig:vector  ETV
vector 1830274  Network.dyn_peer[71]  lookupHopsSig:vector  ETV
vector 1830275  Network.dyn_peer[71]  lookupStabilitySig:vector  ETV
vector 1830276  Network.dyn_peer[71]  lookupTimeSig:vector  ETV
vector 1830190  Network.dyn_peer[43]  lookupHopsSig:vector  ETV
vector 1830191  Network.dyn_peer[43]  lookupStabilitySig:vector  ETV
vector 1830192  Network.dyn_peer[43]  lookupTimeSig:vector  ETV
vector 1830253  Network.dyn_peer[64]  lookupHopsSig:vector  ETV
vector 1830254  Network.dyn_peer[64]  lookupStabilitySig:vector  ETV
vector 1830255  Network.dyn_peer[64]  lookupTimeSig:vector  ETV
vector 1830292  Network.dyn_peer[77]  lookupHopsSig:vector  ETV
vector 1830293  Network.dyn_peer[77]  lookupStabilitySig:vector  ETV
vector 1830294  Network.dyn_peer[77]  lookupTimeSig:vector  ETV
vector 1830322  Network.dyn_peer[87]  lookupHopsSig:vector  ETV
vector 1830323  Network.dyn_peer[87]  lookupStabilitySig:vector  ETV
vector 1830324  Network.dyn_peer[87]  lookupTimeSig:vector  ETV
vector 1830175  Network.dyn_peer[38]  lookupHopsSig:vector  ETV
vector 1830176  Network.dyn_peer[38]  lookupStabilitySig:vector  ETV
vector 1830177  Network.dyn_peer[38]  lookupTimeSig:vector  ETV
vector 1830205  Network.dyn_peer[48]  lookupHopsSig:vector  ETV
vector 1830206  Network.dyn_peer[48]  lookupStabilitySig:vector  ETV
vector 1830207  Network.dyn_peer[48]  lookupTimeSig:vector  ETV
vector 1830181  Network.dyn_peer[40]  lookupHopsSig:vector  ETV
vector 1830182  Network.dyn_peer[40]  lookupStabilitySig:vector  ETV
vector 1830183  Network.dyn_peer[40]  lookupTimeSig:vector  ETV
vector 1830271  Network.dyn_peer[70]  lookupHopsSig:vector  ETV
vector 1830272  Network.dyn_peer[70]  lookupStabilitySig:vector  ETV
vector 1830273  Network.dyn_peer[70]  lookupTimeSig:vector  ETV
vector 1830217  Network.dyn_peer[52]  lookupHopsSig:vector  ETV
vector 1830218  Network.dyn_peer[52]  lookupStabilitySig:vector  ETV
vector 1830219  Network.dyn_peer[52]  lookupTimeSig:vector  ETV
vector 1830163  Network.dyn_peer[34]  lookupHopsSig:vector  ETV
vector 1830164  Network.dyn_peer[34]  lookupStabilitySig:vector  ETV
vector 1830165  Network.dyn_peer[34]  lookupTimeSig:vector  ETV
vector 1830226  Network.dyn_peer[55]  lookupHopsSig:vector  ETV
vector 1830227  Network.dyn_peer[55]  lookupStabilitySig:vector  ETV
vector 1830228  Network.dyn_peer[55]  lookupTimeSig:vector  ETV
vector 1830268  Network.dyn_peer[69]  lookupHopsSig:vector  ETV
vector 1830269  Network.dyn_peer[69]  lookupStabilitySig:vector  ETV
vector 1830270  Network.dyn_peer[69]  lookupTimeSig:vector  ETV
vector 1830301  Network.dyn_peer[80]  lookupHopsSig:vector  ETV
vector 1830302  Network.dyn_peer[80]  lookupStabilitySig:vector  ETV
vector 1830303  Network.dyn_peer[80]  lookupTimeSig:vector  ETV
vector 1830214  Network.dyn_peer[51]  lookupHopsSig:vector  ETV
vector 1830215  Network.dyn_peer[51]  lookupStabilitySig:vector  ETV
vector 1830216  Network.dyn_peer[51]  lookupTimeSig:vector  ETV
vector 1830196  Network.dyn_peer[45]  lookupHopsSig:vector  ETV
vector 1830197  Network.dyn_peer[45]  lookupStabilitySig:vector  ETV
vector 1830198  Network.dyn_peer[45]  lookupTimeSig:vector  ETV
vector 1830241  Network.dyn_peer[60]  lookupHopsSig:vector  ETV
vector 1830242  Network.dyn_peer[60]  lookupStabilitySig:vector  ETV
vector 1830243  Network.dyn_peer[60]  lookupTimeSig:vector  ETV
vector 1830184  Network.dyn_peer[41]  lookupHopsSig:vector  ETV
vector 1830185  Network.dyn_peer[41]  lookupStabilitySig:vector  ETV
vector 1830186  Network.dyn_peer[41]  lookupTimeSig:vector  ETV
vector 1830307  Network.dyn_peer[82]  lookupHopsSig:vector  ETV
vector 1830308  Network.dyn_peer[82]  lookupStabilitySig:vector  ETV
vector 1830309  Network.dyn_peer[82]  lookupTimeSig:vector  ETV
vector 1830406  Network.dyn_peer[115]  lookupHopsSig:vector  ETV
vector 1830407  Network.dyn_peer[115]  lookupStabilitySig:vector  ETV
vector 1830408  Network.dyn_peer[115]  lookupTimeSig:vector  ETV
vector 1830229  Network.dyn_peer[56]  lookupHopsSig:vector  ETV
vector 1830230  Network.dyn_peer[56]  lookupStabilitySig:vector  ETV
vector 1830231  Network.dyn_peer[56]  lookupTimeSig:vector  ETV
vector 1830238  Network.dyn_peer[59]  lookupHopsSig:vector  ETV
vector 1830239  Network.dyn_peer[59]  lookupStabilitySig:vector  ETV
vector 1830240  Network.dyn_peer[59]  lookupTimeSig:vector  ETV
vector 1830244  Network.dyn_peer[61]  lookupHopsSig:vector  ETV
vector 1830245  Network.dyn_peer[61]  lookupStabilitySig:vector  ETV
vector 1830246  Network.dyn_peer[61]  lookupTimeSig:vector  ETV
vector 1830247  Network.dyn_peer[62]  lookupHopsSig:vector  ETV
vector 1830248  Network.dyn_peer[62]  lookupStabilitySig:vector  ETV
vector 1830249  Network.dyn_peer[62]  lookupTimeSig:vector  ETV
vector 1830223  Network.dyn_peer[54]  lookupHopsSig:vector  ETV
vector 1830224  Network.dyn_peer[54]  lookupStabilitySig:vector  ETV
vector 1830225  Network.dyn_peer[54]  lookupTimeSig:vector  ETV
vector 1830343  Network.dyn_peer[94]  lookupHopsSig:vector  ETV
vector 1830344  Network.dyn_peer[94]  lookupStabilitySig:vector  ETV
vector 1830345  Network.dyn_peer[94]  lookupTimeSig:vector  ETV
vector 1830286  Network.dyn_peer[75]  lookupHopsSig:vector  ETV
vector 1830287  Network.dyn_peer[75]  lookupStabilitySig:vector  ETV
vector 1830288  Network.dyn_peer[75]  lookupTimeSig:vector  ETV
vector 1830472  Network.dyn_peer[137]  lookupHopsSig:vector  ETV
vector 1830473  Network.dyn_peer[137]  lookupStabilitySig:vector  ETV
vector 1830474  Network.dyn_peer[137]  lookupTimeSig:vector  ETV
vector 1830235  Network.dyn_peer[58]  lookupHopsSig:vector  ETV
vector 1830236  Network.dyn_peer[58]  lookupStabilitySig:vector  ETV
vector 1830237  Network.dyn_peer[58]  lookupTimeSig:vector  ETV
vector 1830295  Network.dyn_peer[78]  lookupHopsSig:vector  ETV
vector 1830296  Network.dyn_peer[78]  lookupStabilitySig:vector  ETV
vector 1830297  Network.dyn_peer[78]  lookupTimeSig:vector  ETV
vector 1830475  Network.dyn_peer[138]  lookupHopsSig:vector  ETV
vector 1830476  Network.dyn_peer[138]  lookupStabilitySig:vector  ETV
vector 1830477  Network.dyn_peer[138]  lookupTimeSig:vector  ETV
vector 1830337  Network.dyn_peer[92]  lookupHopsSig:vector  ETV
vector 1830338  Network.dyn_peer[92]  lookupStabilitySig:vector  ETV
vector 1830339  Network.dyn_peer[92]  lookupTimeSig:vector  ETV
vector 1830250  Network.dyn_peer[63]  lookupHopsSig:vector  ETV
vector 1830251  Network.dyn_peer[63]  lookupStabilitySig:vector  ETV
vector 1830252  Network.dyn_peer[63]  lookupTimeSig:vector  ETV
vector 1830283  Network.dyn_peer[74]  lookupHopsSig:vector  ETV
vector 1830284  Network.dyn_peer[74]  lookupStabilitySig:vector  ETV
vector 1830285  Network.dyn_peer[74]  lookupTimeSig:vector  ETV
vector 1830382  Network.dyn_peer[107]  lookupHopsSig:vector  ETV
vector 1830383  Network.dyn_peer[107]  lookupStabilitySig:vector  ETV
vector 1830384  Network.dyn_peer[107]  lookupTimeSig:vector  ETV
vector 1830385  Network.dyn_peer[108]  lookupHopsSig:vector  ETV
vector 1830386  Network.dyn_peer[108]  lookupStabilitySig:vector  ETV
vector 1830387  Network.dyn_peer[108]  lookupTimeSig:vector  ETV
vector 1830208  Network.dyn_peer[49]  lookupHopsSig:vector  ETV
vector 1830209  Network.dyn_peer[49]  lookupStabilitySig:vector  ETV
vector 1830210  Network.dyn_peer[49]  lookupTimeSig:vector  ETV
vector 1830298  Network.dyn_peer[79]  lookupHopsSig:vector  ETV
vector 1830299  Network.dyn_peer[79]  lookupStabilitySig:vector  ETV
vector 1830300  Network.dyn_peer[79]  lookupTimeSig:vector  ETV
vector 1830508  Network.dyn_peer[149]  lookupHopsSig:vector  ETV
vector 1830509  Network.dyn_peer[149]  lookupStabilitySig:vector  ETV
vector 1830510  Network.dyn_peer[149]  lookupTimeSig:vector  ETV
vector 1830394  Network.dyn_peer[111]  lookupHopsSig:vector  ETV
vector 1830395  Network.dyn_peer[111]  lookupStabilitySig:vector  ETV
vector 1830396  Network.dyn_peer[111]  lookupTimeSig:vector  ETV
vector 1830277  Network.dyn_peer[72]  lookupHopsSig:vector  ETV
vector 1830278  Network.dyn_peer[72]  lookupStabilitySig:vector  ETV
vector 1830279  Network.dyn_peer[72]  lookupTimeSig:vector  ETV
vector 1830313  Network.dyn_peer[84]  lookupHopsSig:vector  ETV
vector 1830314  Network.dyn_peer[84]  lookupStabilitySig:vector  ETV
vector 1830315  Network.dyn_peer[84]  lookupTimeSig:vector  ETV
vector 1830256  Network.dyn_peer[65]  lookupHopsSig:vector  ETV
vector 1830257  Network.dyn_peer[65]  lookupStabilitySig:vector  ETV
vector 1830258  Network.dyn_peer[65]  lookupTimeSig:vector  ETV
vector 1830355  Network.dyn_peer[98]  lookupHopsSig:vector  ETV
vector 1830356  Network.dyn_peer[98]  lookupStabilitySig:vector  ETV
vector 1830357  Network.dyn_peer[98]  lookupTimeSig:vector  ETV
vector 1830448  Network.dyn_peer[129]  lookupHopsSig:vector  ETV
vector 1830449  Network.dyn_peer[129]  lookupStabilitySig:vector  ETV
vector 1830450  Network.dyn_peer[129]  lookupTimeSig:vector  ETV
vector 1830340  Network.dyn_peer[93]  lookupHopsSig:vector  ETV
vector 1830341  Network.dyn_peer[93]  lookupStabilitySig:vector  ETV
vector 1830342  Network.dyn_peer[93]  lookupTimeSig:vector  ETV
vector 1830346  Network.dyn_peer[95]  lookupHopsSig:vector  ETV
vector 1830347  Network.dyn_peer[95]  lookupStabilitySig:vector  ETV
vector 1830348  Network.dyn_peer[95]  lookupTimeSig:vector  ETV
vector 1830289  Network.dyn_peer[76]  lookupHopsSig:vector  ETV
vector 1830290  Network.dyn_peer[76]  lookupStabilitySig:vector  ETV
vector 1830291  Network.dyn_peer[76]  lookupTimeSig:vector  ETV
vector 1830328  Network.dyn_peer[89]  lookupHopsSig:vector  ETV
vector 1830329  Network.dyn_peer[89]  lookupStabilitySig:vector  ETV
vector 1830330  Network.dyn_peer[89]  lookupTimeSig:vector  ETV
vector 1830511  Network.dyn_peer[150]  lookupHopsSig:vector  ETV
vector 1830512  Network.dyn_peer[150]  lookupStabilitySig:vector  ETV
vector 1830513  Network.dyn_peer[150]  lookupTimeSig:vector  ETV
vector 1830367  Network.dyn_peer[102]  lookupHopsSig:vector  ETV
vector 1830368  Network.dyn_peer[102]  lookupStabilitySig:vector  ETV
vector 1830369  Network.dyn_peer[102]  lookupTimeSig:vector  ETV
vector 1830370  Network.dyn_peer[103]  lookupHopsSig:vector  ETV
vector 1830371  Network.dyn_peer[103]  lookupStabilitySig:vector  ETV
vector 1830372  Network.dyn_peer[103]  lookupTimeSig:vector  ETV
vector 1830349  Network.dyn_peer[96]  lookupHopsSig:vector  ETV
vector 1830350  Network.dyn_peer[96]  lookupStabilitySig:vector  ETV
vector 1830351  Network.dyn_peer[96]  lookupTimeSig:vector  ETV
vector 1830502  Network.dyn_peer[147]  lookupHopsSig:vector  ETV
vector 1830503  Network.dyn_peer[147]  lookupStabilitySig:vector  ETV
vector 1830504  Network.dyn_peer[147]  lookupTimeSig:vector  ETV
vector 1830595  Network.dyn_peer[178]  lookupHopsSig:vector  ETV
vector 1830596  Network.dyn_peer[178]  lookupStabilitySig:vector  ETV
vector 1830597  Network.dyn_peer[178]  lookupTimeSig:vector  ETV
vector 1830538  Network.dyn_peer[159]  lookupHopsSig:vector  ETV
vector 1830539  Network.dyn_peer[159]  lookupStabilitySig:vector  ETV
vector 1830540  Network.dyn_peer[159]  lookupTimeSig:vector  ETV
vector 1830391  Network.dyn_peer[110]  lookupHopsSig:vector  ETV
vector 1830392  Network.dyn_peer[110]  lookupStabilitySig:vector  ETV
vector 1830393  Network.dyn_peer[110]  lookupTimeSig:vector  ETV
vector 1830304  Network.dyn_peer[81]  lookupHopsSig:vector  ETV
vector 1830305  Network.dyn_peer[81]  lookupStabilitySig:vector  ETV
vector 1830306  Network.dyn_peer[81]  lookupTimeSig:vector  ETV
vector 1830547  Network.dyn_peer[162]  lookupHopsSig:vector  ETV
vector 1830548  Network.dyn_peer[162]  lookupStabilitySig:vector  ETV
vector 1830549  Network.dyn_peer[162]  lookupTimeSig:vector  ETV
vector 1830607  Network.dyn_peer[182]  lookupHopsSig:vector  ETV
vector 1830608  Network.dyn_peer[182]  lookupStabilitySig:vector  ETV
vector 1830609  Network.dyn_peer[182]  lookupTimeSig:vector  ETV
vector 1830430  Network.dyn_peer[123]  lookupHopsSig:vector  ETV
vector 1830431  Network.dyn_peer[123]  lookupStabilitySig:vector  ETV
vector 1830432  Network.dyn_peer[123]  lookupTimeSig:vector  ETV
vector 1830520  Network.dyn_peer[153]  lookupHopsSig:vector  ETV
vector 1830521  Network.dyn_peer[153]  lookupStabilitySig:vector  ETV
vector 1830522  Network.dyn_peer[153]  lookupTimeSig:vector  ETV
vector 1830373  Network.dyn_peer[104]  lookupHopsSig:vector  ETV
vector 1830374  Network.dyn_peer[104]  lookupStabilitySig:vector  ETV
vector 1830375  Network.dyn_peer[104]  lookupTimeSig:vector  ETV
vector 1830433  Network.dyn_peer[124]  lookupHopsSig:vector  ETV
vector 1830434  Network.dyn_peer[124]  lookupStabilitySig:vector  ETV
vector 1830435  Network.dyn_peer[124]  lookupTimeSig:vector  ETV
vector 1830493  Network.dyn_peer[144]  lookupHopsSig:vector  ETV
vector 1830494  Network.dyn_peer[144]  lookupStabilitySig:vector  ETV
vector 1830495  Network.dyn_peer[144]  lookupTimeSig:vector  ETV
vector 1830466  Network.dyn_peer[135]  lookupHopsSig:vector  ETV
vector 1830467  Network.dyn_peer[135]  lookupStabilitySig:vector  ETV
vector 1830468  Network.dyn_peer[135]  lookupTimeSig:vector  ETV
vector 1830259  Network.dyn_peer[66]  lookupHopsSig:vector  ETV
vector 1830260  Network.dyn_peer[66]  lookupStabilitySig:vector  ETV
vector 1830261  Network.dyn_peer[66]  lookupTimeSig:vector  ETV
vector 1830469  Network.dyn_peer[136]  lookupHopsSig:vector  ETV
vector 1830470  Network.dyn_peer[136]  lookupStabilitySig:vector  ETV
vector 1830471  Network.dyn_peer[136]  lookupTimeSig:vector  ETV
vector 1830262  Network.dyn_peer[67]  lookupHopsSig:vector  ETV
vector 1830263  Network.dyn_peer[67]  lookupStabilitySig:vector  ETV
vector 1830264  Network.dyn_peer[67]  lookupTimeSig:vector  ETV
vector 1830352  Network.dyn_peer[97]  lookupHopsSig:vector  ETV
vector 1830353  Network.dyn_peer[97]  lookupStabilitySig:vector  ETV
vector 1830354  Network.dyn_peer[97]  lookupTimeSig:vector  ETV
vector 1830325  Network.dyn_peer[88]  lookupHopsSig:vector  ETV
vector 1830326  Network.dyn_peer[88]  lookupStabilitySig:vector  ETV
vector 1830327  Network.dyn_peer[88]  lookupTimeSig:vector  ETV
vector 1830421  Network.dyn_peer[120]  lookupHopsSig:vector  ETV
vector 1830422  Network.dyn_peer[120]  lookupStabilitySig:vector  ETV
vector 1830423  Network.dyn_peer[120]  lookupTimeSig:vector  ETV
vector 1830481  Network.dyn_peer[140]  lookupHopsSig:vector  ETV
vector 1830482  Network.dyn_peer[140]  lookupStabilitySig:vector  ETV
vector 1830483  Network.dyn_peer[140]  lookupTimeSig:vector  ETV
vector 1830541  Network.dyn_peer[160]  lookupHopsSig:vector  ETV
vector 1830542  Network.dyn_peer[160]  lookupStabilitySig:vector  ETV
vector 1830543  Network.dyn_peer[160]  lookupTimeSig:vector  ETV
vector 1830334  Network.dyn_peer[91]  lookupHopsSig:vector  ETV
vector 1830335  Network.dyn_peer[91]  lookupStabilitySig:vector  ETV
vector 1830336  Network.dyn_peer[91]  lookupTimeSig:vector  ETV
vector 1830424  Network.dyn_peer[121]  lookupHopsSig:vector  ETV
vector 1830425  Network.dyn_peer[121]  lookupStabilitySig:vector  ETV
vector 1830426  Network.dyn_peer[121]  lookupTimeSig:vector  ETV
vector 1830523  Network.dyn_peer[154]  lookupHopsSig:vector  ETV
vector 1830524  Network.dyn_peer[154]  lookupStabilitySig:vector  ETV
vector 1830525  Network.dyn_peer[154]  lookupTimeSig:vector  ETV
vector 1830583  Network.dyn_peer[174]  lookupHopsSig:vector  ETV
vector 1830584  Network.dyn_peer[174]  lookupStabilitySig:vector  ETV
vector 1830585  Network.dyn_peer[174]  lookupTimeSig:vector  ETV
vector 1830316  Network.dyn_peer[85]  lookupHopsSig:vector  ETV
vector 1830317  Network.dyn_peer[85]  lookupStabilitySig:vector  ETV
vector 1830318  Network.dyn_peer[85]  lookupTimeSig:vector  ETV
vector 1830319  Network.dyn_peer[86]  lookupHopsSig:vector  ETV
vector 1830320  Network.dyn_peer[86]  lookupStabilitySig:vector  ETV
vector 1830321  Network.dyn_peer[86]  lookupTimeSig:vector  ETV
vector 1830505  Network.dyn_peer[148]  lookupHopsSig:vector  ETV
vector 1830506  Network.dyn_peer[148]  lookupStabilitySig:vector  ETV
vector 1830507  Network.dyn_peer[148]  lookupTimeSig:vector  ETV
vector 1830403  Network.dyn_peer[114]  lookupHopsSig:vector  ETV
vector 1830404  Network.dyn_peer[114]  lookupStabilitySig:vector  ETV
vector 1830405  Network.dyn_peer[114]  lookupTimeSig:vector  ETV
vector 1830409  Network.dyn_peer[116]  lookupHopsSig:vector  ETV
vector 1830410  Network.dyn_peer[116]  lookupStabilitySig:vector  ETV
vector 1830411  Network.dyn_peer[116]  lookupTimeSig:vector  ETV
vector 1830628  Network.dyn_peer[189]  lookupHopsSig:vector  ETV
vector 1830629  Network.dyn_peer[189]  lookupStabilitySig:vector  ETV
vector 1830630  Network.dyn_peer[189]  lookupTimeSig:vector  ETV
vector 1830601  Network.dyn_peer[180]  lookupHopsSig:vector  ETV
vector 1830602  Network.dyn_peer[180]  lookupStabilitySig:vector  ETV
vector 1830603  Network.dyn_peer[180]  lookupTimeSig:vector  ETV
vector 1830634  Network.dyn_peer[191]  lookupHopsSig:vector  ETV
vector 1830635  Network.dyn_peer[191]  lookupStabilitySig:vector  ETV
vector 1830636  Network.dyn_peer[191]  lookupTimeSig:vector  ETV
vector 1830397  Network.dyn_peer[112]  lookupHopsSig:vector  ETV
vector 1830398  Network.dyn_peer[112]  lookupStabilitySig:vector  ETV
vector 1830399  Network.dyn_peer[112]  lookupTimeSig:vector  ETV
vector 1830457  Network.dyn_peer[132]  lookupHopsSig:vector  ETV
vector 1830458  Network.dyn_peer[132]  lookupStabilitySig:vector  ETV
vector 1830459  Network.dyn_peer[132]  lookupTimeSig:vector  ETV
vector 1830280  Network.dyn_peer[73]  lookupHopsSig:vector  ETV
vector 1830281  Network.dyn_peer[73]  lookupStabilitySig:vector  ETV
vector 1830282  Network.dyn_peer[73]  lookupTimeSig:vector  ETV
vector 1830310  Network.dyn_peer[83]  lookupHopsSig:vector  ETV
vector 1830311  Network.dyn_peer[83]  lookupStabilitySig:vector  ETV
vector 1830312  Network.dyn_peer[83]  lookupTimeSig:vector  ETV
vector 1830550  Network.dyn_peer[163]  lookupHopsSig:vector  ETV
vector 1830551  Network.dyn_peer[163]  lookupStabilitySig:vector  ETV
vector 1830552  Network.dyn_peer[163]  lookupTimeSig:vector  ETV
vector 1830436  Network.dyn_peer[125]  lookupHopsSig:vector  ETV
vector 1830437  Network.dyn_peer[125]  lookupStabilitySig:vector  ETV
vector 1830438  Network.dyn_peer[125]  lookupTimeSig:vector  ETV
vector 1830589  Network.dyn_peer[176]  lookupHopsSig:vector  ETV
vector 1830590  Network.dyn_peer[176]  lookupStabilitySig:vector  ETV
vector 1830591  Network.dyn_peer[176]  lookupTimeSig:vector  ETV
vector 1830691  Network.dyn_peer[210]  lookupHopsSig:vector  ETV
vector 1830692  Network.dyn_peer[210]  lookupStabilitySig:vector  ETV
vector 1830693  Network.dyn_peer[210]  lookupTimeSig:vector  ETV
vector 1830187  Network.dyn_peer[42]  lookupHopsSig:vector  ETV
vector 1830188  Network.dyn_peer[42]  lookupStabilitySig:vector  ETV
vector 1830189  Network.dyn_peer[42]  lookupTimeSig:vector  ETV
vector 1830427  Network.dyn_peer[122]  lookupHopsSig:vector  ETV
vector 1830428  Network.dyn_peer[122]  lookupStabilitySig:vector  ETV
vector 1830429  Network.dyn_peer[122]  lookupTimeSig:vector  ETV
vector 1830487  Network.dyn_peer[142]  lookupHopsSig:vector  ETV
vector 1830488  Network.dyn_peer[142]  lookupStabilitySig:vector  ETV
vector 1830489  Network.dyn_peer[142]  lookupTimeSig:vector  ETV
vector 1830400  Network.dyn_peer[113]  lookupHopsSig:vector  ETV
vector 1830401  Network.dyn_peer[113]  lookupStabilitySig:vector  ETV
vector 1830402  Network.dyn_peer[113]  lookupTimeSig:vector  ETV
vector 1830376  Network.dyn_peer[105]  lookupHopsSig:vector  ETV
vector 1830377  Network.dyn_peer[105]  lookupStabilitySig:vector  ETV
vector 1830378  Network.dyn_peer[105]  lookupTimeSig:vector  ETV
vector 1830358  Network.dyn_peer[99]  lookupHopsSig:vector  ETV
vector 1830359  Network.dyn_peer[99]  lookupStabilitySig:vector  ETV
vector 1830360  Network.dyn_peer[99]  lookupTimeSig:vector  ETV
vector 1830478  Network.dyn_peer[139]  lookupHopsSig:vector  ETV
vector 1830479  Network.dyn_peer[139]  lookupStabilitySig:vector  ETV
vector 1830480  Network.dyn_peer[139]  lookupTimeSig:vector  ETV
vector 1830331  Network.dyn_peer[90]  lookupHopsSig:vector  ETV
vector 1830332  Network.dyn_peer[90]  lookupStabilitySig:vector  ETV
vector 1830333  Network.dyn_peer[90]  lookupTimeSig:vector  ETV
vector 1830571  Network.dyn_peer[170]  lookupHopsSig:vector  ETV
vector 1830572  Network.dyn_peer[170]  lookupStabilitySig:vector  ETV
vector 1830573  Network.dyn_peer[170]  lookupTimeSig:vector  ETV
vector 1830364  Network.dyn_peer[101]  lookupHopsSig:vector  ETV
vector 1830365  Network.dyn_peer[101]  lookupStabilitySig:vector  ETV
vector 1830366  Network.dyn_peer[101]  lookupTimeSig:vector  ETV
vector 1830514  Network.dyn_peer[151]  lookupHopsSig:vector  ETV