file 320317 1369697095                                          
version 2
run Stability2-32-20130528-01:24:48-24168
attr configname Stability2
attr datetime 20130528-01:24:48
attr experiment Stability2
attr inifile omnetpp.ini
attr iterationvars $0=40
attr iterationvars2 "$0=40, $repetition=2"
attr measurement $0=40
attr network Network
attr processid 24168
attr repetition 2
attr replication #2
attr resultdir results
attr runnumber 32
attr seedset 32

vector 990032  Network.churner  inGoingSizeSig:vector  ETV
vector 960035  Network.dyn_peer[1]  lookupHopsSig:vector  ETV
vector 960036  Network.dyn_peer[1]  lookupStabilitySig:vector  ETV
vector 960037  Network.dyn_peer[1]  lookupTimeSig:vector  ETV
vector 960041  Network.dyn_peer[3]  lookupHopsSig:vector  ETV
vector 960042  Network.dyn_peer[3]  lookupStabilitySig:vector  ETV
vector 960043  Network.dyn_peer[3]  lookupTimeSig:vector  ETV
vector 960047  Network.dyn_peer[5]  lookupHopsSig:vector  ETV
vector 960048  Network.dyn_peer[5]  lookupStabilitySig:vector  ETV
vector 960049  Network.dyn_peer[5]  lookupTimeSig:vector  ETV
vector 960080  Network.dyn_peer[16]  lookupHopsSig:vector  ETV
vector 960081  Network.dyn_peer[16]  lookupStabilitySig:vector  ETV
vector 960082  Network.dyn_peer[16]  lookupTimeSig:vector  ETV
vector 960053  Network.dyn_peer[7]  lookupHopsSig:vector  ETV
vector 960054  Network.dyn_peer[7]  lookupStabilitySig:vector  ETV
vector 960055  Network.dyn_peer[7]  lookupTimeSig:vector  ETV
vector 960056  Network.dyn_peer[8]  lookupHopsSig:vector  ETV
vector 960057  Network.dyn_peer[8]  lookupStabilitySig:vector  ETV
vector 960058  Network.dyn_peer[8]  lookupTimeSig:vector  ETV
vector 960032  Network.dyn_peer[0]  lookupHopsSig:vector  ETV
vector 960033  Network.dyn_peer[0]  lookupStabilitySig:vector  ETV
vector 960034  Network.dyn_peer[0]  lookupTimeSig:vector  ETV
vector 960092  Network.dyn_peer[20]  lookupHopsSig:vector  ETV
vector 960093  Network.dyn_peer[20]  lookupStabilitySig:vector  ETV
vector 960094  Network.dyn_peer[20]  lookupTimeSig:vector  ETV
vector 960038  Network.dyn_peer[2]  lookupHopsSig:vector  ETV
vector 960039  Network.dyn_peer[2]  lookupStabilitySig:vector  ETV
vector 960040  Network.dyn_peer[2]  lookupTimeSig:vector  ETV
vector 960101  Network.dyn_peer[23]  lookupHopsSig:vector  ETV
vector 960102  Network.dyn_peer[23]  lookupStabilitySig:vector  ETV
vector 960103  Network.dyn_peer[23]  lookupTimeSig:vector  ETV
vector 960077  Network.dyn_peer[15]  lookupHopsSig:vector  ETV
vector 960078  Network.dyn_peer[15]  lookupStabilitySig:vector  ETV
vector 960079  Network.dyn_peer[15]  lookupTimeSig:vector  ETV
vector 960050  Network.dyn_peer[6]  lookupHopsSig:vector  ETV
vector 960051  Network.dyn_peer[6]  lookupStabilitySig:vector  ETV
vector 960052  Network.dyn_peer[6]  lookupTimeSig:vector  ETV
vector 960110  Network.dyn_peer[26]  lookupHopsSig:vector  ETV
vector 960111  Network.dyn_peer[26]  lookupStabilitySig:vector  ETV
vector 960112  Network.dyn_peer[26]  lookupTimeSig:vector  ETV
vector 960116  Network.dyn_peer[28]  lookupHopsSig:vector  ETV
vector 960117  Network.dyn_peer[28]  lookupStabilitySig:vector  ETV
vector 960118  Network.dyn_peer[28]  lookupTimeSig:vector  ETV
vector 960089  Network.dyn_peer[19]  lookupHopsSig:vector  ETV
vector 960090  Network.dyn_peer[19]  lookupStabilitySig:vector  ETV
vector 960091  Network.dyn_peer[19]  lookupTimeSig:vector  ETV
vector 960062  Network.dyn_peer[10]  lookupHopsSig:vector  ETV
vector 960063  Network.dyn_peer[10]  lookupStabilitySig:vector  ETV
vector 960064  Network.dyn_peer[10]  lookupTimeSig:vector  ETV
vector 960065  Network.dyn_peer[11]  lookupHopsSig:vector  ETV
vector 960066  Network.dyn_peer[11]  lookupStabilitySig:vector  ETV
vector 960067  Network.dyn_peer[11]  lookupTimeSig:vector  ETV
vector 960074  Network.dyn_peer[14]  lookupHopsSig:vector  ETV
vector 960075  Network.dyn_peer[14]  lookupStabilitySig:vector  ETV
vector 960076  Network.dyn_peer[14]  lookupTimeSig:vector  ETV
vector 960083  Network.dyn_peer[17]  lookupHopsSig:vector  ETV
vector 960084  Network.dyn_peer[17]  lookupStabilitySig:vector  ETV
vector 960085  Network.dyn_peer[17]  lookupTimeSig:vector  ETV
vector 960059  Network.dyn_peer[9]  lookupHopsSig:vector  ETV
vector 960060  Network.dyn_peer[9]  lookupStabilitySig:vector  ETV
vector 960061  Network.dyn_peer[9]  lookupTimeSig:vector  ETV
vector 960125  Network.dyn_peer[31]  lookupHopsSig:vector  ETV
vector 960126  Network.dyn_peer[31]  lookupStabilitySig:vector  ETV
vector 960127  Network.dyn_peer[31]  lookupTimeSig:vector  ETV
vector 960098  Network.dyn_peer[22]  lookupHopsSig:vector  ETV
vector 960099  Network.dyn_peer[22]  lookupStabilitySig:vector  ETV
vector 960100  Network.dyn_peer[22]  lookupTimeSig:vector  ETV
vector 960044  Network.dyn_peer[4]  lookupHopsSig:vector  ETV
vector 960045  Network.dyn_peer[4]  lookupStabilitySig:vector  ETV
vector 960046  Network.dyn_peer[4]  lookupTimeSig:vector  ETV
vector 960104  Network.dyn_peer[24]  lookupHopsSig:vector  ETV
vector 960105  Network.dyn_peer[24]  lookupStabilitySig:vector  ETV
vector 960106  Network.dyn_peer[24]  lookupTimeSig:vector  ETV
vector 960107  Network.dyn_peer[25]  lookupHopsSig:vector  ETV
vector 960108  Network.dyn_peer[25]  lookupStabilitySig:vector  ETV
vector 960109  Network.dyn_peer[25]  lookupTimeSig:vector  ETV
vector 960152  Network.dyn_peer[40]  lookupHopsSig:vector  ETV
vector 960153  Network.dyn_peer[40]  lookupStabilitySig:vector  ETV
vector 960154  Network.dyn_peer[40]  lookupTimeSig:vector  ETV
vector 960095  Network.dyn_peer[21]  lookupHopsSig:vector  ETV
vector 960096  Network.dyn_peer[21]  lookupStabilitySig:vector  ETV
vector 960097  Network.dyn_peer[21]  lookupTimeSig:vector  ETV
vector 960068  Network.dyn_peer[12]  lookupHopsSig:vector  ETV
vector 960069  Network.dyn_peer[12]  lookupStabilitySig:vector  ETV
vector 960070  Network.dyn_peer[12]  lookupTimeSig:vector  ETV
vector 960131  Network.dyn_peer[33]  lookupHopsSig:vector  ETV
vector 960132  Network.dyn_peer[33]  lookupStabilitySig:vector  ETV
vector 960133  Network.dyn_peer[33]  lookupTimeSig:vector  ETV
vector 960164  Network.dyn_peer[44]  lookupHopsSig:vector  ETV
vector 960165  Network.dyn_peer[44]  lookupStabilitySig:vector  ETV
vector 960166  Network.dyn_peer[44]  lookupTimeSig:vector  ETV
vector 960113  Network.dyn_peer[27]  lookupHopsSig:vector  ETV
vector 960114  Network.dyn_peer[27]  lookupStabilitySig:vector  ETV
vector 960115  Network.dyn_peer[27]  lookupTimeSig:vector  ETV
vector 960143  Network.dyn_peer[37]  lookupHopsSig:vector  ETV
vector 960144  Network.dyn_peer[37]  lookupStabilitySig:vector  ETV
vector 960145  Network.dyn_peer[37]  lookupTimeSig:vector  ETV
vector 960086  Network.dyn_peer[18]  lookupHopsSig:vector  ETV
vector 960087  Network.dyn_peer[18]  lookupStabilitySig:vector  ETV
vector 960088  Network.dyn_peer[18]  lookupTimeSig:vector  ETV
vector 960197  Network.dyn_peer[55]  lookupHopsSig:vector  ETV
vector 960198  Network.dyn_peer[55]  lookupStabilitySig:vector  ETV
vector 960199  Network.dyn_peer[55]  lookupTimeSig:vector  ETV
vector 960140  Network.dyn_peer[36]  lookupHopsSig:vector  ETV
vector 960141  Network.dyn_peer[36]  lookupStabilitySig:vector  ETV
vector 960142  Network.dyn_peer[36]  lookupTimeSig:vector  ETV
vector 960122  Network.dyn_peer[30]  lookupHopsSig:vector  ETV
vector 960123  Network.dyn_peer[30]  lookupStabilitySig:vector  ETV
vector 960124  Network.dyn_peer[30]  lookupTimeSig:vector  ETV
vector 960134  Network.dyn_peer[34]  lookupHopsSig:vector  ETV
vector 960135  Network.dyn_peer[34]  lookupStabilitySig:vector  ETV
vector 960136  Network.dyn_peer[34]  lookupTimeSig:vector  ETV
vector 960137  Network.dyn_peer[35]  lookupHopsSig:vector  ETV
vector 960138  Network.dyn_peer[35]  lookupStabilitySig:vector  ETV
vector 960139  Network.dyn_peer[35]  lookupTimeSig:vector  ETV
vector 960236  Network.dyn_peer[68]  lookupHopsSig:vector  ETV
vector 960237  Network.dyn_peer[68]  lookupStabilitySig:vector  ETV
vector 960238  Network.dyn_peer[68]  lookupTimeSig:vector  ETV
vector 960119  Network.dyn_peer[29]  lookupHopsSig:vector  ETV
vector 960120  Network.dyn_peer[29]  lookupStabilitySig:vector  ETV
vector 960121  Network.dyn_peer[29]  lookupTimeSig:vector  ETV
vector 960212  Network.dyn_peer[60]  lookupHopsSig:vector  ETV
vector 960213  Network.dyn_peer[60]  lookupStabilitySig:vector  ETV
vector 960214  Network.dyn_peer[60]  lookupTimeSig:vector  ETV
vector 960245  Network.dyn_peer[71]  lookupHopsSig:vector  ETV
vector 960246  Network.dyn_peer[71]  lookupStabilitySig:vector  ETV
vector 960247  Network.dyn_peer[71]  lookupTimeSig:vector  ETV
vector 960071  Network.dyn_peer[13]  lookupHopsSig:vector  ETV
vector 960072  Network.dyn_peer[13]  lookupStabilitySig:vector  ETV
vector 960073  Network.dyn_peer[13]  lookupTimeSig:vector  ETV
vector 960317  Network.dyn_peer[95]  lookupHopsSig:vector  ETV
vector 960318  Network.dyn_peer[95]  lookupStabilitySig:vector  ETV
vector 960319  Network.dyn_peer[95]  lookupTimeSig:vector  ETV
vector 960146  Network.dyn_peer[38]  lookupHopsSig:vector  ETV
vector 960147  Network.dyn_peer[38]  lookupStabilitySig:vector  ETV
vector 960148  Network.dyn_peer[38]  lookupTimeSig:vector  ETV
vector 960206  Network.dyn_peer[58]  lookupHopsSig:vector  ETV
vector 960207  Network.dyn_peer[58]  lookupStabilitySig:vector  ETV
vector 960208  Network.dyn_peer[58]  lookupTimeSig:vector  ETV
vector 960149  Network.dyn_peer[39]  lookupHopsSig:vector  ETV
vector 960150  Network.dyn_peer[39]  lookupStabilitySig:vector  ETV
vector 960151  Network.dyn_peer[39]  lookupTimeSig:vector  ETV
vector 960269  Network.dyn_peer[79]  lookupHopsSig:vector  ETV
vector 960270  Network.dyn_peer[79]  lookupStabilitySig:vector  ETV
vector 960271  Network.dyn_peer[79]  lookupTimeSig:vector  ETV
vector 960215  Network.dyn_peer[61]  lookupHopsSig:vector  ETV
vector 960216  Network.dyn_peer[61]  lookupStabilitySig:vector  ETV
vector 960217  Network.dyn_peer[61]  lookupTimeSig:vector  ETV
vector 960281  Network.dyn_peer[83]  lookupHopsSig:vector  ETV
vector 960282  Network.dyn_peer[83]  lookupStabilitySig:vector  ETV
vector 960283  Network.dyn_peer[83]  lookupTimeSig:vector  ETV
vector 960224  Network.dyn_peer[64]  lookupHopsSig:vector  ETV
vector 960225  Network.dyn_peer[64]  lookupStabilitySig:vector  ETV
vector 960226  Network.dyn_peer[64]  lookupTimeSig:vector  ETV
vector 960293  Network.dyn_peer[87]  lookupHopsSig:vector  ETV
vector 960294  Network.dyn_peer[87]  lookupStabilitySig:vector  ETV
vector 960295  Network.dyn_peer[87]  lookupTimeSig:vector  ETV
vector 960296  Network.dyn_peer[88]  lookupHopsSig:vector  ETV
vector 960297  Network.dyn_peer[88]  lookupStabilitySig:vector  ETV
vector 960298  Network.dyn_peer[88]  lookupTimeSig:vector  ETV
vector 960209  Network.dyn_peer[59]  lookupHopsSig:vector  ETV
vector 960210  Network.dyn_peer[59]  lookupStabilitySig:vector  ETV
vector 960211  Network.dyn_peer[59]  lookupTimeSig:vector  ETV
vector 960329  Network.dyn_peer[99]  lookupHopsSig:vector  ETV
vector 960330  Network.dyn_peer[99]  lookupStabilitySig:vector  ETV
vector 960331  Network.dyn_peer[99]  lookupTimeSig:vector  ETV
vector 960128  Network.dyn_peer[32]  lookupHopsSig:vector  ETV
vector 960129  Network.dyn_peer[32]  lookupStabilitySig:vector  ETV
vector 960130  Network.dyn_peer[32]  lookupTimeSig:vector  ETV
vector 960161  Network.dyn_peer[43]  lookupHopsSig:vector  ETV
vector 960162  Network.dyn_peer[43]  lookupStabilitySig:vector  ETV
vector 960163  Network.dyn_peer[43]  lookupTimeSig:vector  ETV
vector 960167  Network.dyn_peer[45]  lookupHopsSig:vector  ETV
vector 960168  Network.dyn_peer[45]  lookupStabilitySig:vector  ETV
vector 960169  Network.dyn_peer[45]  lookupTimeSig:vector  ETV
vector 960347  Network.dyn_peer[105]  lookupHopsSig:vector  ETV
vector 960348  Network.dyn_peer[105]  lookupStabilitySig:vector  ETV
vector 960349  Network.dyn_peer[105]  lookupTimeSig:vector  ETV
vector 960170  Network.dyn_peer[46]  lookupHopsSig:vector  ETV
vector 960171  Network.dyn_peer[46]  lookupStabilitySig:vector  ETV
vector 960172  Network.dyn_peer[46]  lookupTimeSig:vector  ETV
vector 960302  Network.dyn_peer[90]  lookupHopsSig:vector  ETV
vector 960303  Network.dyn_peer[90]  lookupStabilitySig:vector  ETV
vector 960304  Network.dyn_peer[90]  lookupTimeSig:vector  ETV
vector 960155  Network.dyn_peer[41]  lookupHopsSig:vector  ETV
vector 960156  Network.dyn_peer[41]  lookupStabilitySig:vector  ETV
vector 960157  Network.dyn_peer[41]  lookupTimeSig:vector  ETV
vector 960278  Network.dyn_peer[82]  lookupHopsSig:vector  ETV
vector 960279  Network.dyn_peer[82]  lookupStabilitySig:vector  ETV
vector 960280  Network.dyn_peer[82]  lookupTimeSig:vector  ETV
vector 960284  Network.dyn_peer[84]  lookupHopsSig:vector  ETV
vector 960285  Network.dyn_peer[84]  lookupStabilitySig:vector  ETV
vector 960286  Network.dyn_peer[84]  lookupTimeSig:vector  ETV
vector 960257  Network.dyn_peer[75]  lookupHopsSig:vector  ETV
vector 960258  Network.dyn_peer[75]  lookupStabilitySig:vector  ETV
vector 960259  Network.dyn_peer[75]  lookupTimeSig:vector  ETV
vector 960233  Network.dyn_peer[67]  lookupHopsSig:vector  ETV
vector 960234  Network.dyn_peer[67]  lookupStabilitySig:vector  ETV
vector 960235  Network.dyn_peer[67]  lookupTimeSig:vector  ETV
vector 960179  Network.dyn_peer[49]  lookupHopsSig:vector  ETV
vector 960180  Network.dyn_peer[49]  lookupStabilitySig:vector  ETV
vector 960181  Network.dyn_peer[49]  lookupTimeSig:vector  ETV
vector 960299  Network.dyn_peer[89]  lookupHopsSig:vector  ETV
vector 960300  Network.dyn_peer[89]  lookupStabilitySig:vector  ETV
vector 960301  Network.dyn_peer[89]  lookupTimeSig:vector  ETV
vector 960272  Network.dyn_peer[80]  lookupHopsSig:vector  ETV
vector 960273  Network.dyn_peer[80]  lookupStabilitySig:vector  ETV
vector 960274  Network.dyn_peer[80]  lookupTimeSig:vector  ETV
vector 960437  Network.dyn_peer[135]  lookupHopsSig:vector  ETV
vector 960438  Network.dyn_peer[135]  lookupStabilitySig:vector  ETV
vector 960439  Network.dyn_peer[135]  lookupTimeSig:vector  ETV
vector 960200  Network.dyn_peer[56]  lookupHopsSig:vector  ETV
vector 960201  Network.dyn_peer[56]  lookupStabilitySig:vector  ETV
vector 960202  Network.dyn_peer[56]  lookupTimeSig:vector  ETV
vector 960266  Network.dyn_peer[78]  lookupHopsSig:vector  ETV
vector 960267  Network.dyn_peer[78]  lookupStabilitySig:vector  ETV
vector 960268  Network.dyn_peer[78]  lookupTimeSig:vector  ETV
vector 960386  Network.dyn_peer[118]  lookupHopsSig:vector  ETV
vector 960387  Network.dyn_peer[118]  lookupStabilitySig:vector  ETV
vector 960388  Network.dyn_peer[118]  lookupTimeSig:vector  ETV
vector 960389  Network.dyn_peer[119]  lookupHopsSig:vector  ETV
vector 960390  Network.dyn_peer[119]  lookupStabilitySig:vector  ETV
vector 960391  Network.dyn_peer[119]  lookupTimeSig:vector  ETV
vector 960248  Network.dyn_peer[72]  lookupHopsSig:vector  ETV
vector 960249  Network.dyn_peer[72]  lookupStabilitySig:vector  ETV
vector 960250  Network.dyn_peer[72]  lookupTimeSig:vector  ETV
vector 960251  Network.dyn_peer[73]  lookupHopsSig:vector  ETV
vector 960252  Network.dyn_peer[73]  lookupStabilitySig:vector  ETV
vector 960253  Network.dyn_peer[73]  lookupTimeSig:vector  ETV
vector 960194  Network.dyn_peer[54]  lookupHopsSig:vector  ETV
vector 960195  Network.dyn_peer[54]  lookupStabilitySig:vector  ETV
vector 960196  Network.dyn_peer[54]  lookupTimeSig:vector  ETV
vector 960254  Network.dyn_peer[74]  lookupHopsSig:vector  ETV
vector 960255  Network.dyn_peer[74]  lookupStabilitySig:vector  ETV
vector 960256  Network.dyn_peer[74]  lookupTimeSig:vector  ETV
vector 960407  Network.dyn_peer[125]  lookupHopsSig:vector  ETV
vector 960408  Network.dyn_peer[125]  lookupStabilitySig:vector  ETV
vector 960409  Network.dyn_peer[125]  lookupTimeSig:vector  ETV
vector 960173  Network.dyn_peer[47]  lookupHopsSig:vector  ETV
vector 960174  Network.dyn_peer[47]  lookupStabilitySig:vector  ETV
vector 960175  Network.dyn_peer[47]  lookupTimeSig:vector  ETV
vector 960182  Network.dyn_peer[50]  lookupHopsSig:vector  ETV
vector 960183  Network.dyn_peer[50]  lookupStabilitySig:vector  ETV
vector 960184  Network.dyn_peer[50]  lookupTimeSig:vector  ETV
vector 960404  Network.dyn_peer[124]  lookupHopsSig:vector  ETV
vector 960405  Network.dyn_peer[124]  lookupStabilitySig:vector  ETV
vector 960406  Network.dyn_peer[124]  lookupTimeSig:vector  ETV
vector 960467  Network.dyn_peer[145]  lookupHopsSig:vector  ETV
vector 960468  Network.dyn_peer[145]  lookupStabilitySig:vector  ETV
vector 960469  Network.dyn_peer[145]  lookupTimeSig:vector  ETV
vector 960440  Network.dyn_peer[136]  lookupHopsSig:vector  ETV
vector 960441  Network.dyn_peer[136]  lookupStabilitySig:vector  ETV
vector 960442  Network.dyn_peer[136]  lookupTimeSig:vector  ETV
vector 960263  Network.dyn_peer[77]  lookupHopsSig:vector  ETV
vector 960264  Network.dyn_peer[77]  lookupStabilitySig:vector  ETV
vector 960265  Network.dyn_peer[77]  lookupTimeSig:vector  ETV
vector 960383  Network.dyn_peer[117]  lookupHopsSig:vector  ETV
vector 960384  Network.dyn_peer[117]  lookupStabilitySig:vector  ETV
vector 960385  Network.dyn_peer[117]  lookupTimeSig:vector  ETV
vector 960176  Network.dyn_peer[48]  lookupHopsSig:vector  ETV
vector 960177  Network.dyn_peer[48]  lookupStabilitySig:vector  ETV
vector 960178  Network.dyn_peer[48]  lookupTimeSig:vector  ETV
vector 960326  Network.dyn_peer[98]  lookupHopsSig:vector  ETV
vector 960327  Network.dyn_peer[98]  lookupStabilitySig:vector  ETV
vector 960328  Network.dyn_peer[98]  lookupTimeSig:vector  ETV
vector 960446  Network.dyn_peer[138]  lookupHopsSig:vector  ETV
vector 960447  Network.dyn_peer[138]  lookupStabilitySig:vector  ETV
vector 960448  Network.dyn_peer[138]  lookupTimeSig:vector  ETV
vector 960476  Network.dyn_peer[148]  lookupHopsSig:vector  ETV
vector 960477  Network.dyn_peer[148]  lookupStabilitySig:vector  ETV
vector 960478  Network.dyn_peer[148]  lookupTimeSig:vector  ETV
vector 960239  Network.dyn_peer[69]  lookupHopsSig:vector  ETV
vector 960240  Network.dyn_peer[69]  lookupStabilitySig:vector  ETV
vector 960241  Network.dyn_peer[69]  lookupTimeSig:vector  ETV
vector 960368  Network.dyn_peer[112]  lookupHopsSig:vector  ETV
vector 960369  Network.dyn_peer[112]  lookupStabilitySig:vector  ETV
vector 960370  Network.dyn_peer[112]  lookupTimeSig:vector  ETV
vector 960227  Network.dyn_peer[65]  lookupHopsSig:vector  ETV
vector 960228  Network.dyn_peer[65]  lookupStabilitySig:vector  ETV
vector 960229  Network.dyn_peer[65]  lookupTimeSig:vector  ETV
vector 960410  Network.dyn_peer[126]  lookupHopsSig:vector  ETV
vector 960411  Network.dyn_peer[126]  lookupStabilitySig:vector  ETV
vector 960412  Network.dyn_peer[126]  lookupTimeSig:vector  ETV
vector 960452  Network.dyn_peer[140]  lookupHopsSig:vector  ETV
vector 960453  Network.dyn_peer[140]  lookupStabilitySig:vector  ETV
vector 960454  Network.dyn_peer[140]  lookupTimeSig:vector  ETV
vector 960275  Network.dyn_peer[81]  lookupHopsSig:vector  ETV
vector 960276  Network.dyn_peer[81]  lookupStabilitySig:vector  ETV
vector 960277  Network.dyn_peer[81]  lookupTimeSig:vector  ETV
vector 960335  Network.dyn_peer[101]  lookupHopsSig:vector  ETV
vector 960336  Network.dyn_peer[101]  lookupStabilitySig:vector  ETV
vector 960337  Network.dyn_peer[101]  lookupTimeSig:vector  ETV
vector 960428  Network.dyn_peer[132]  lookupHopsSig:vector  ETV
vector 960429  Network.dyn_peer[132]  lookupStabilitySig:vector  ETV
vector 960430  Network.dyn_peer[132]  lookupTimeSig:vector  ETV
vector 960341  Network.dyn_peer[103]  lookupHopsSig:vector  ETV
vector 960342  Network.dyn_peer[103]  lookupStabilitySig:vector  ETV
vector 960343  Network.dyn_peer[103]  lookupTimeSig:vector  ETV
vector 960434  Network.dyn_peer[134]  lookupHopsSig:vector  ETV
vector 960435  Network.dyn_peer[134]  lookupStabilitySig:vector  ETV
vector 960436  Network.dyn_peer[134]  lookupTimeSig:vector  ETV
vector 960470  Network.dyn_peer[146]  lookupHopsSig:vector  ETV
vector 960471  Network.dyn_peer[146]  lookupStabilitySig:vector  ETV
vector 960472  Network.dyn_peer[146]  lookupTimeSig:vector  ETV
vector 960449  Network.dyn_peer[139]  lookupHopsSig:vector  ETV
vector 960450  Network.dyn_peer[139]  lookupStabilitySig:vector  ETV
vector 960451  Network.dyn_peer[139]  lookupTimeSig:vector  ETV
vector 960395  Network.dyn_peer[121]  lookupHopsSig:vector  ETV
vector 960396  Network.dyn_peer[121]  lookupStabilitySig:vector  ETV
vector 960397  Network.dyn_peer[121]  lookupTimeSig:vector  ETV
vector 960425  Network.dyn_peer[131]  lookupHopsSig:vector  ETV
vector 960426  Network.dyn_peer[131]  lookupStabilitySig:vector  ETV
vector 960427  Network.dyn_peer[131]  lookupTimeSig:vector  ETV
vector 960488  Network.dyn_peer[152]  lookupHopsSig:vector  ETV
vector 960489  Network.dyn_peer[152]  lookupStabilitySig:vector  ETV
vector 960490  Network.dyn_peer[152]  lookupTimeSig:vector  ETV
vector 960554  Network.dyn_peer[174]  lookupHopsSig:vector  ETV
vector 960555  Network.dyn_peer[174]  lookupStabilitySig:vector  ETV
vector 960556  Network.dyn_peer[174]  lookupTimeSig:vector  ETV
vector 960377  Network.dyn_peer[115]  lookupHopsSig:vector  ETV
vector 960378  Network.dyn_peer[115]  lookupStabilitySig:vector  ETV
vector 960379  Network.dyn_peer[115]  lookupTimeSig:vector  ETV
vector 960503  Network.dyn_peer[157]  lookupHopsSig:vector  ETV
vector 960504  Network.dyn_peer[157]  lookupStabilitySig:vector  ETV
vector 960505  Network.dyn_peer[157]  lookupTimeSig:vector  ETV
vector 960356  Network.dyn_peer[108]  lookupHopsSig:vector  ETV
vector 960357  Network.dyn_peer[108]  lookupStabilitySig:vector  ETV
vector 960358  Network.dyn_peer[108]  lookupTimeSig:vector  ETV
vector 960332  Network.dyn_peer[100]  lookupHopsSig:vector  ETV
vector 960333  Network.dyn_peer[100]  lookupStabilitySig:vector  ETV
vector 960334  Network.dyn_peer[100]  lookupTimeSig:vector  ETV
vector 960188  Network.dyn_peer[52]  lookupHopsSig:vector  ETV
vector 960189  Network.dyn_peer[52]  lookupStabilitySig:vector  ETV
vector 960190  Network.dyn_peer[52]  lookupTimeSig:vector  ETV
vector 960338  Network.dyn_peer[102]  lookupHopsSig:vector  ETV
vector 960339  Network.dyn_peer[102]  lookupStabilitySig:vector  ETV
vector 960340  Network.dyn_peer[102]  lookupTimeSig:vector  ETV
vector 960518  Network.dyn_peer[162]  lookupHopsSig:vector  ETV
vector 960519  Network.dyn_peer[162]  lookupStabilitySig:vector  ETV
vector 960520  Network.dyn_peer[162]  lookupTimeSig:vector  ETV
vector 960191  Network.dyn_peer[53]  lookupHopsSig:vector  ETV
vector 960192  Network.dyn_peer[53]  lookupStabilitySig:vector  ETV
vector 960193  Network.dyn_peer[53]  lookupTimeSig:vector  ETV
vector 960371  Network.dyn_peer[113]  lookupHopsSig:vector  ETV
vector 960372  Network.dyn_peer[113]  lookupStabilitySig:vector  ETV
vector 960373  Network.dyn_peer[113]  lookupTimeSig:vector  ETV
vector 960557  Network.dyn_peer[175]  lookupHopsSig:vector  ETV
vector 960558  Network.dyn_peer[175]  lookupStabilitySig:vector  ETV
vector 960559  Network.dyn_peer[175]  lookupTimeSig:vector  ETV
vector 960260  Network.dyn_peer[76]  lookupHopsSig:vector  ETV
vector 960261  Network.dyn_peer[76]  lookupStabilitySig:vector  ETV
vector 960262  Network.dyn_peer[76]  lookupTimeSig:vector  ETV
vector 960290  Network.dyn_peer[86]  lookupHopsSig:vector  ETV
vector 960291  Network.dyn_peer[86]  lookupStabilitySig:vector  ETV
vector 960292  Network.dyn_peer[86]  lookupTimeSig:vector  ETV
vector 960443  Network.dyn_peer[137]  lookupHopsSig:vector  ETV
vector 960444  Network.dyn_peer[137]  lookupStabilitySig:vector  ETV
vector 960445  Network.dyn_peer[137]  lookupTimeSig:vector  ETV
vector 960479  Network.dyn_peer[149]  lookupHopsSig:vector  ETV
vector 960480  Network.dyn_peer[149]  lookupStabilitySig:vector  ETV
vector 960481  Network.dyn_peer[149]  lookupTimeSig:vector  ETV
vector 960305  Network.dyn_peer[91]  lookupHopsSig:vector  ETV
vector 960306  Network.dyn_peer[91]  lookupStabilitySig:vector  ETV
vector 960307  Network.dyn_peer[91]  lookupTimeSig:vector  ETV
vector 960218  Network.dyn_peer[62]  lookupHopsSig:vector  ETV
vector 960219  Network.dyn_peer[62]  lookupStabilitySig:vector  ETV
vector 960220  Network.dyn_peer[62]  lookupTimeSig:vector  ETV
vector 960461  Network.dyn_peer[143]  lookupHopsSig:vector  ETV
vector 960462  Network.dyn_peer[143]  lookupStabilitySig:vector  ETV
vector 960463  Network.dyn_peer[143]  lookupTimeSig:vector  ETV
vector 960287  Network.dyn_peer[85]  lookupHopsSig:vector  ETV
vector 960288  Network.dyn_peer[85]  lookupStabilitySig:vector  ETV
vector 960289  Network.dyn_peer[85]  lookupTimeSig:vector  ETV
vector 960380  Network.dyn_peer[116]  lookupHopsSig:vector  ETV
vector 960381  Network.dyn_peer[116]  lookupStabilitySig:vector  ETV
vector 960382  Network.dyn_peer[116]  lookupTimeSig:vector  ETV
vector 960500  Network.dyn_peer[156]  lookupHopsSig:vector  ETV
vector 960501  Network.dyn_peer[156]  lookupStabilitySig:vector  ETV
vector 960502  Network.dyn_peer[156]  lookupTimeSig:vector  ETV
vector 960530  Network.dyn_peer[166]  lookupHopsSig:vector  ETV
vector 960531  Network.dyn_peer[166]  lookupStabilitySig:vector  ETV
vector 960532  Network.dyn_peer[166]  lookupTimeSig:vector  ETV
vector 960590  Network.dyn_peer[186]  lookupHopsSig:vector  ETV
vector 960591  Network.dyn_peer[186]  lookupStabilitySig:vector  ETV
vector 960592  Network.dyn_peer[186]  lookupTimeSig:vector  ETV
vector 960419  Network.dyn_peer[129]  lookupHopsSig:vector  ETV
vector 960420  Network.dyn_peer[129]  lookupStabilitySig:vector  ETV
vector 960421  Network.dyn_peer[129]  lookupTimeSig:vector  ETV
vector 960569  Network.dyn_peer[179]  lookupHopsSig:vector  ETV
vector 960570  Network.dyn_peer[179]  lookupStabilitySig:vector  ETV
vector 960571  Network.dyn_peer[179]  lookupTimeSig:vector  ETV
vector 960482  Network.dyn_peer[150]  lookupHopsSig:vector  ETV
vector 960483  Network.dyn_peer[150]  lookupStabilitySig:vector  ETV
vector 960484  Network.dyn_peer[150]  lookupTimeSig:vector  ETV
vector 960512  Network.dyn_peer[160]  lookupHopsSig:vector  ETV
vector 960513  Network.dyn_peer[160]  lookupStabilitySig:vector  ETV
vector 960514  Network.dyn_peer[160]  lookupTimeSig:vector  ETV
vector 960365  Network.dyn_peer[111]  lookupHopsSig:vector  ETV
vector 960366  Network.dyn_peer[111]  lookupStabilitySig:vector  ETV
vector 960367  Network.dyn_peer[111]  lookupTimeSig:vector  ETV
vector 960398  Network.dyn_peer[122]  lookupHopsSig:vector  ETV
vector 960399  Network.dyn_peer[122]  lookupStabilitySig:vector  ETV
vector 960400  Network.dyn_peer[122]  lookupTimeSig:vector  ETV
vector 960566  Network.dyn_peer[178]  lookupHopsSig:vector  ETV
vector 960567  Network.dyn_peer[178]  lookupStabilitySig:vector  ETV
vector 960568  Network.dyn_peer[178]  lookupTimeSig:vector  ETV
vector 960596  Network.dyn_peer[188]  lookupHopsSig:vector  ETV
vector 960597  Network.dyn_peer[188]  lookupStabilitySig:vector  ETV
vector 960598  Network.dyn_peer[188]  lookupTimeSig:vector  ETV
vector 960392  Network.dyn_peer[120]  lookupHopsSig:vector  ETV
vector 960393  Network.dyn_peer[120]  lookupStabilitySig:vector  ETV
vector 960394  Network.dyn_peer[120]  lookupTimeSig:vector  ETV
vector 960542  Network.dyn_peer[170]  lookupHopsSig:vector  ETV
vector 960543  Network.dyn_peer[170]  lookupStabilitySig:vector  ETV
vector 960544  Network.dyn_peer[170]  lookupTimeSig:vector  ETV
vector 960605  Network.dyn_peer[191]  lookupHopsSig:vector  ETV
vector 960606  Network.dyn_peer[191]  lookupStabilitySig:vector  ETV
vector 960607  Network.dyn_peer[191]  lookupTimeSig:vector  ETV
vector 960581  Network.dyn_peer[183]  lookupHopsSig:vector  ETV
vector 960582  Network.dyn_peer[183]  lookupStabilitySig:vector  ETV
vector 960583  Network.dyn_peer[183]  lookupTimeSig:vector  ETV
vector 960230  Network.dyn_peer[66]  lookupHopsSig:vector  ETV
vector 960231  Network.dyn_peer[66]  lookupStabilitySig:vector  ETV
vector 960232  Network.dyn_peer[66]  lookupTimeSig:vector  ETV
vector 960203  Network.dyn_peer[57]  lookupHopsSig:vector  ETV
vector 960204  Network.dyn_peer[57]  lookupStabilitySig:vector  ETV
vector 960205  Network.dyn_peer[57]  lookupTimeSig:vector  ETV
vector 960602  Network.dyn_peer[190]  lookupHopsSig:vector  ETV
vector 960603  Network.dyn_peer[190]  lookupStabilitySig:vector  ETV
vector 960604  Network.dyn_peer[190]  lookupTimeSig:vector  ETV
vector 960491  Network.dyn_peer[153]  lookupHopsSig:vector  ETV
vector 960492  Network.dyn_peer[153]  lookupStabilitySig:vector  ETV
vector 960493  Network.dyn_peer[153]  lookupTimeSig:vector  ETV
vector 960320  Network.dyn_peer[96]  lookupHopsSig:vector  ETV
vector 960321  Network.dyn_peer[96]  lookupStabilitySig:vector  ETV
vector 960322  Network.dyn_peer[96]  lookupTimeSig:vector  ETV
vector 960560  Network.dyn_peer[176]  lookupHopsSig:vector  ETV
vector 960561  Network.dyn_peer[176]  lookupStabilitySig:vector  ETV
vector 960562  Network.dyn_peer[176]  lookupTimeSig:vector  ETV
vector 960413  Network.dyn_peer[127]  lookupHopsSig:vector  ETV
vector 960414  Network.dyn_peer[127]  lookupStabilitySig:vector  ETV
vector 960415  Network.dyn_peer[127]  lookupTimeSig:vector  ETV
vector 960416  Network.dyn_peer[128]  lookupHopsSig:vector  ETV
vector 960417  Network.dyn_peer[128]  lookupStabilitySig:vector  ETV
vector 960418  Network.dyn_peer[128]  lookupTimeSig:vector  ETV
vector 960359  Network.dyn_peer[109]  lookupHopsSig:vector  ETV
vector 960360  Network.dyn_peer[109]  lookupStabilitySig:vector  ETV
vector 960361  Network.dyn_peer[109]  lookupTimeSig:vector  ETV
vector 960158  Network.dyn_peer[42]  lookupHopsSig:vector  ETV
vector 960159  Network.dyn_peer[42]  lookupStabilitySig:vector  ETV
vector 960160  Network.dyn_peer[42]  lookupTimeSig:vector  ETV
vector 960548  Network.dyn_peer[172]  lookupHopsSig:vector  ETV
vector 960549  Network.dyn_peer[172]  lookupStabilitySig:vector  ETV
vector 960550  Network.dyn_peer[172]  lookupTimeSig:vector  ETV