file 3326517 1369933129                                         
version 2
run Stability2-79-20130528-01:38:08-24168
attr configname Stability2
attr datetime 20130528-01:38:08
attr experiment Stability2
attr inifile omnetpp.ini
attr iterationvars $0=300
attr iterationvars2 "$0=300, $repetition=9"
attr measurement $0=300
attr network Network
attr processid 24168
attr repetition 9
attr replication #9
attr resultdir results
attr runnumber 79
attr seedset 79
vector 2400079  Network.churner  inGoingSizeSig:vector  ETV
2400079	3252551 73966 9 373858 20 50 3001 0 1528 2646561 2883457967
vector 2370085  Network.dyn_peer[2]  lookupHopsSig:vector  ETV
2370085	608956 329 22 123567 20.03 36.110801013658 11 0 29 147 3131
vector 2370086  Network.dyn_peer[2]  lookupStabilitySig:vector  ETV
2370086	609285 472 22 123567 20.03 36.110801013658 11 0.19999998807907 1 9.0180517993867 8.0140119926947
vector 2370087  Network.dyn_peer[2]  lookupTimeSig:vector  ETV
2370087	609757 339 22 123567 20.03 36.110801013658 11 0 3 15.7 34.35
vector 2370079  Network.dyn_peer[0]  lookupHopsSig:vector  ETV
2370079	606125 431 49 560955 20.11 60.744022816423 14 1 65 267 9763
vector 2370080  Network.dyn_peer[0]  lookupStabilitySig:vector  ETV
2370080	606556 633 49 560955 20.11 60.744022816423 14 -0.20000004768372 0.99089874885976 11.543945197016 10.832481758194
vector 2370081  Network.dyn_peer[0]  lookupTimeSig:vector  ETV
2370081	607189 449 49 560955 20.11 60.744022816423 14 0.1 6.6 28 103.08
vector 2370082  Network.dyn_peer[1]  lookupHopsSig:vector  ETV
2370082	607638 378 57 544432 20.12 59.432875062681 12 1 67 287 11967
vector 2370083  Network.dyn_peer[1]  lookupStabilitySig:vector  ETV
2370083	608016 550 57 544432 20.12 59.432875062681 12 0.35714286565781 0.98191681690514 10.151842646301 8.9190062705022
vector 2370084  Network.dyn_peer[1]  lookupTimeSig:vector  ETV
2370084	608566 390 57 544432 20.12 59.432875062681 12 0.1 6.8 29.8 125.5
vector 2370118  Network.dyn_peer[13]  lookupHopsSig:vector  ETV
2370118	623263 396 72 530363 20.14 58.422378834198 13 0 52 246 9256
vector 2370119  Network.dyn_peer[13]  lookupStabilitySig:vector  ETV
2370119	623659 560 72 530363 20.14 58.422378834198 13 0.19999998807907 1 11.333058219403 10.423194247538
vector 2370120  Network.dyn_peer[13]  lookupTimeSig:vector  ETV
2370120	624219 413 72 530363 20.14 58.422378834198 13 0 5.3 25.8 97.6
vector 2370091  Network.dyn_peer[4]  lookupHopsSig:vector  ETV
2370091	611622 371 78 269905 20.15 44.917980878012 12 1 54 219 6377
vector 2370092  Network.dyn_peer[4]  lookupStabilitySig:vector  ETV
2370092	611993 539 78 269905 20.15 44.917980878012 12 0.29411762952805 0.98108108155429 10.178414441645 9.0554531610427
vector 2370093  Network.dyn_peer[4]  lookupTimeSig:vector  ETV
2370093	612532 384 78 269905 20.15 44.917980878012 12 0.1 5.5 23 68.24
vector 2370121  Network.dyn_peer[14]  lookupHopsSig:vector  ETV
2370121	624632 472 84 543943 20.15 59.395424015911 15 0 59 366 13540
vector 2370122  Network.dyn_peer[14]  lookupStabilitySig:vector  ETV
2370122	625104 655 84 543943 20.15 59.395424015911 15 0 1 12.669071361423 11.624196521528
vector 2370123  Network.dyn_peer[14]  lookupTimeSig:vector  ETV
2370123	625759 486 84 543943 20.15 59.395424015911 15 0 6 38 142.86
vector 2370100  Network.dyn_peer[7]  lookupHopsSig:vector  ETV
2370100	615921 407 98 563877 20.18 60.989884022795 13 1 101 386 23892
vector 2370101  Network.dyn_peer[7]  lookupStabilitySig:vector  ETV
2370101	616328 587 98 563877 20.18 60.989884022795 13 0.30000001192093 0.99560632696375 11.297642951366 10.245556420543
vector 2370102  Network.dyn_peer[7]  lookupTimeSig:vector  ETV
2370102	616915 421 98 563877 20.18 60.989884022795 13 0.1 10.2 39.8 246.74
vector 2370103  Network.dyn_peer[8]  lookupHopsSig:vector  ETV
2370103	617336 336 106 327019 20.19 47.795316609874 11 1 68 245 10789
vector 2370104  Network.dyn_peer[8]  lookupStabilitySig:vector  ETV
2370104	617672 494 106 327019 20.19 47.795316609874 11 0.18181818723679 0.95545656979084 9.0732037387788 7.9929933872877
vector 2370105  Network.dyn_peer[8]  lookupTimeSig:vector  ETV
2370105	618166 344 106 327019 20.19 47.795316609874 11 0.1 6.9 25.5 112.87
vector 2370139  Network.dyn_peer[20]  lookupHopsSig:vector  ETV
2370139	634048 237 121 154209 20.21 38.229026566454 8 0 30 120 2998
vector 2370140  Network.dyn_peer[20]  lookupStabilitySig:vector  ETV
2370140	634285 323 121 154209 20.21 38.229026566454 8 0 1 6.3076764121652 5.7471117458978
vector 2370141  Network.dyn_peer[20]  lookupTimeSig:vector  ETV
2370141	634608 247 121 154209 20.21 38.229026566454 8 0 3.1 12.7 32.45
vector 2370094  Network.dyn_peer[5]  lookupHopsSig:vector  ETV
2370094	612916 395 148 566170 20.26 61.189858419664 13 2 81 227 9903
vector 2370095  Network.dyn_peer[5]  lookupStabilitySig:vector  ETV
2370095	613311 568 148 566170 20.26 61.189858419664 13 0 0.99224806204438 10.698991626501 9.680496504933
vector 2370096  Network.dyn_peer[5]  lookupTimeSig:vector  ETV
2370096	613879 415 148 566170 20.26 61.189858419664 13 0.2 8.2 23.9 103.65
vector 2370154  Network.dyn_peer[25]  lookupHopsSig:vector  ETV
2370154	641041 429 154 447057 20.26 53.552066204877 14 0 50 211 6729
vector 2370155  Network.dyn_peer[25]  lookupStabilitySig:vector  ETV
2370155	641470 591 154 447057 20.26 53.552066204877 14 0.5 1 12.396171494387 11.20489617899
vector 2370156  Network.dyn_peer[25]  lookupTimeSig:vector  ETV
2370156	642061 447 154 447057 20.26 53.552066204877 14 0 5.1 22.4 71.64
vector 2370097  Network.dyn_peer[6]  lookupHopsSig:vector  ETV
2370097	614294 465 161 387625 20.27 50.645139948999 15 1 67 273 9715
vector 2370098  Network.dyn_peer[6]  lookupStabilitySig:vector  ETV
2370098	614759 679 161 387625 20.27 50.645139948999 15 0.5714285671711 0.97844112850726 12.869771914557 11.354239170092
vector 2370099  Network.dyn_peer[6]  lookupTimeSig:vector  ETV
2370099	615438 483 161 387625 20.27 50.645139948999 15 0.2 6.8 28.7 102.71
vector 2370127  Network.dyn_peer[16]  lookupHopsSig:vector  ETV
2370127	628015 475 165 640755 20.27 73.668600521493 15 1 68 377 14039
vector 2370128  Network.dyn_peer[16]  lookupStabilitySig:vector  ETV
2370128	628490 672 165 640755 20.27 73.668600521493 15 0 0.99454616289586 12.896098046098 12.008723136129
vector 2370129  Network.dyn_peer[16]  lookupTimeSig:vector  ETV
2370129	629162 491 165 640755 20.27 73.668600521493 15 0.1 6.9 39.1 148.05
vector 2370133  Network.dyn_peer[18]  lookupHopsSig:vector  ETV
2370133	630629 545 180 626153 20.29 69.068794822624 17 1 67 390 14858
vector 2370134  Network.dyn_peer[18]  lookupStabilitySig:vector  ETV
2370134	631174 779 180 626153 20.29 69.068794822624 17 0.27272725105286 0.99059929512441 15.246042349376 14.179610201713
vector 2370135  Network.dyn_peer[18]  lookupTimeSig:vector  ETV
2370135	631953 567 180 626153 20.29 69.068794822624 17 0.1 6.8 40.6 156.52
vector 2370112  Network.dyn_peer[11]  lookupHopsSig:vector  ETV
2370112	620628 383 201 351781 20.32 48.974675775123 12 1 60 217 7145
vector 2370113  Network.dyn_peer[11]  lookupStabilitySig:vector  ETV
2370113	621011 555 201 351781 20.32 48.974675775123 12 0.45833331346512 0.99107142817229 10.731781526469 9.9297779501606
vector 2370114  Network.dyn_peer[11]  lookupTimeSig:vector  ETV
2370114	621566 399 201 351781 20.32 48.974675775123 12 0.2 6.1 22.8 75.86
vector 2370088  Network.dyn_peer[3]  lookupHopsSig:vector  ETV
2370088	610096 438 222 558536 20.34 60.541724545193 14 3 100 333 17653
vector 2370089  Network.dyn_peer[3]  lookupStabilitySig:vector  ETV
2370089	610534 634 222 558536 20.34 60.541724545193 14 0.36363637447357 0.98740888014436 11.954496418126 10.777715245739
vector 2370090  Network.dyn_peer[3]  lookupTimeSig:vector  ETV
2370090	611168 454 222 558536 20.34 60.541724545193 14 0.3 10.1 34.6 183.26
vector 2370136  Network.dyn_peer[19]  lookupHopsSig:vector  ETV
2370136	632520 437 264 632349 20.4 70.63944792808 14 1 70 377 15543
vector 2370137  Network.dyn_peer[19]  lookupStabilitySig:vector  ETV
2370137	632957 636 264 632349 20.4 70.63944792808 14 0.42857140302658 0.99584278138354 12.327130942605 11.241272569707
vector 2370138  Network.dyn_peer[19]  lookupTimeSig:vector  ETV
2370138	633593 455 264 632349 20.4 70.63944792808 14 0.2 7.1 39 163.06
vector 2370142  Network.dyn_peer[21]  lookupHopsSig:vector  ETV
2370142	634855 434 280 477067 20.42 55.150415109214 14 2 59 278 9506
vector 2370143  Network.dyn_peer[21]  lookupStabilitySig:vector  ETV
2370143	635289 625 280 477067 20.42 55.150415109214 14 0.28571426868439 0.99181222729385 11.824667545035 10.495029501161
vector 2370144  Network.dyn_peer[21]  lookupTimeSig:vector  ETV
2370144	635914 449 280 477067 20.42 55.150415109214 14 0.2 6 29.1 100.71
vector 2370115  Network.dyn_peer[12]  lookupHopsSig:vector  ETV
2370115	621965 372 291 272814 20.43 45.069113386355 12 3 38 201 4507
vector 2370116  Network.dyn_peer[12]  lookupStabilitySig:vector  ETV
2370116	622337 541 291 272814 20.43 45.069113386355 12 0.39999997615814 0.97807017527521 10.087820105255 8.9763455169928
vector 2370117  Network.dyn_peer[12]  lookupTimeSig:vector  ETV
2370117	622878 385 291 272814 20.43 45.069113386355 12 0.3 3.9 21.2 49.14
vector 2370148  Network.dyn_peer[23]  lookupHopsSig:vector  ETV
2370148	637541 500 305 422687 20.44 52.334969134513 16 1 80 277 11527
vector 2370149  Network.dyn_peer[23]  lookupStabilitySig:vector  ETV
2370149	638041 731 305 422687 20.44 52.334969134513 16 0.59999999403954 0.99493243265897 14.201735359617 12.908683806808
vector 2370150  Network.dyn_peer[23]  lookupTimeSig:vector  ETV
2370150	638772 522 305 422687 20.44 52.334969134513 16 0.2 8.1 29.2 120.92
vector 2370124  Network.dyn_peer[15]  lookupHopsSig:vector  ETV
2370124	626245 507 325 570519 20.46 61.576804813636 16 2 89 379 17299
vector 2370125  Network.dyn_peer[15]  lookupStabilitySig:vector  ETV
2370125	626752 736 325 570519 20.46 61.576804813636 16 0.39999997615814 0.99777613044716 14.058211662108 12.851940338425
vector 2370126  Network.dyn_peer[15]  lookupTimeSig:vector  ETV
2370126	627488 527 325 570519 20.46 61.576804813636 16 0.3 9 39.4 180.66
vector 2370130  Network.dyn_peer[17]  lookupHopsSig:vector  ETV
2370130	629653 279 346 292216 20.48 46.071429299767 9 2 55 215 8343
vector 2370131  Network.dyn_peer[17]  lookupStabilitySig:vector  ETV
2370131	629932 408 346 292216 20.48 46.071429299767 9 0.39999997615814 0.95450785756111 7.0813095010817 5.9230579069427
vector 2370132  Network.dyn_peer[17]  lookupTimeSig:vector  ETV
2370132	630340 289 346 292216 20.48 46.071429299767 9 0.3 5.6 22.3 87.75
vector 2370163  Network.dyn_peer[28]  lookupHopsSig:vector  ETV
2370163	645564 370 359 482777 20.49 55.467766642231 12 2 71 294 13636
vector 2370164  Network.dyn_peer[28]  lookupStabilitySig:vector  ETV
2370164	645934 541 359 482777 20.49 55.467766642231 12 0.44999998807907 0.9823343846947 10.281821949407 9.1176387729238
vector 2370165  Network.dyn_peer[28]  lookupTimeSig:vector  ETV
2370165	646475 383 359 482777 20.49 55.467766642231 12 0.2 7.2 30.5 142.31
vector 2370202  Network.dyn_peer[41]  lookupHopsSig:vector  ETV
2370202	663058 410 385 513191 20.52 57.282723267608 13 1 57 343 12467
vector 2370203  Network.dyn_peer[41]  lookupStabilitySig:vector  ETV
2370203	663468 592 385 513191 20.52 57.282723267608 13 0.43999999761581 0.97853107377887 11.490921901539 10.431169598243
vector 2370204  Network.dyn_peer[41]  lookupTimeSig:vector  ETV
2370204	664060 420 385 513191 20.52 57.282723267608 13 0.1 5.8 35.5 131.63
vector 2370145  Network.dyn_peer[22]  lookupHopsSig:vector  ETV
2370145	636363 339 398 425983 20.53 52.498880783001 11 2 52 201 6335
vector 2370146  Network.dyn_peer[22]  lookupStabilitySig:vector  ETV
2370146	636702 484 398 425983 20.53 52.498880783001 11 0.39999997615814 0.99330543912947 9.2566206175834 8.2586906841
vector 2370147  Network.dyn_peer[22]  lookupTimeSig:vector  ETV
2370147	637186 355 398 425983 20.53 52.498880783001 11 0.3 5.3 21.1 67.41
vector 2370151  Network.dyn_peer[24]  lookupHopsSig:vector  ETV
2370151	639294 505 424 560677 20.55 60.719873298201 16 3 44 294 7414
vector 2370152  Network.dyn_peer[24]  lookupStabilitySig:vector  ETV
2370152	639799 720 424 560677 20.55 60.719873298201 16 0.39999997615814 0.99511762103066 14.269071816932 13.220284129915
vector 2370153  Network.dyn_peer[24]  lookupTimeSig:vector  ETV
2370153	640519 522 424 560677 20.55 60.719873298201 16 0.3 4.5 30.9 80.11
vector 2370256  Network.dyn_peer[59]  lookupHopsSig:vector  ETV
2370256	689490 534 476 549506 20.6 59.813077573661 17 0 45 366 11820
vector 2370257  Network.dyn_peer[59]  lookupStabilitySig:vector  ETV
2370257	690024 755 476 549506 20.6 59.813077573661 17 0.55555555224419 1 15.562311625574 14.486075686791
vector 2370258  Network.dyn_peer[59]  lookupTimeSig:vector  ETV
2370258	690779 551 476 549506 20.6 59.813077573661 17 0 4.6 38.2 125.68
vector 2370109  Network.dyn_peer[10]  lookupHopsSig:vector  ETV
2370109	619804 241 487 217732 20.61 42.104863838887 8 3 43 117 2913
vector 2370110  Network.dyn_peer[10]  lookupStabilitySig:vector  ETV
2370110	620045 331 487 217732 20.61 42.104863838887 8 0 0.98708920180798 6.0870311148465 5.5301453636232
vector 2370111  Network.dyn_peer[10]  lookupTimeSig:vector  ETV
2370111	620376 252 487 217732 20.61 42.104863838887 8 0.4 4.4 12.4 31.44
vector 2370199  Network.dyn_peer[40]  lookupHopsSig:vector  ETV
2370199	661533 441 491 514446 20.61 57.361991747581 14 2 72 313 13179
vector 2370200  Network.dyn_peer[40]  lookupStabilitySig:vector  ETV
2370200	661974 626 491 514446 20.61 57.361991747581 14 0.5 0.99602977652103 12.373522080015 11.281543500942
vector 2370201  Network.dyn_peer[40]  lookupTimeSig:vector  ETV
2370201	662600 458 491 514446 20.61 57.361991747581 14 0.2 7.3 32.6 138.14
vector 2370157  Network.dyn_peer[26]  lookupHopsSig:vector  ETV
2370157	642508 566 553 644091 20.67 75.51165817918 18 2 105 522 29602
vector 2370158  Network.dyn_peer[26]  lookupStabilitySig:vector  ETV
2370158	643074 823 553 644091 20.67 75.51165817918 18 0.19999998807907 0.98980309441686 15.75830587931 14.436888409103
vector 2370159  Network.dyn_peer[26]  lookupTimeSig:vector  ETV
2370159	643897 587 553 644091 20.67 75.51165817918 18 0.3 10.6 53.9 306.55
vector 2370223  Network.dyn_peer[48]  lookupHopsSig:vector  ETV
2370223	672996 440 577 505470 20.69 56.801670307849 14 2 85 303 13529
vector 2370224  Network.dyn_peer[48]  lookupStabilitySig:vector  ETV
2370224	673436 640 577 505470 20.69 56.801670307849 14 0.48000001907349 0.99416909599677 12.451656822115 11.393689017512
vector 2370225  Network.dyn_peer[48]  lookupTimeSig:vector  ETV
2370225	674076 458 577 505470 20.69 56.801670307849 14 0.2 8.6 31.6 141.44
vector 2370106  Network.dyn_peer[9]  lookupHopsSig:vector  ETV
2370106	618510 368 591 492046 20.7 56.000363249581 12 3 66 279 12025
vector 2370107  Network.dyn_peer[9]  lookupStabilitySig:vector  ETV
2370107	618878 541 591 492046 20.7 56.000363249581 12 -0.20000004768372 0.98972602747381 9.5547393783927 8.8480941053025
vector 2370108  Network.dyn_peer[9]  lookupTimeSig:vector  ETV
2370108	619419 385 591 492046 20.7 56.000363249581 12 0.4 6.7 29 125.82
vector 2370166  Network.dyn_peer[29]  lookupHopsSig:vector  ETV
2370166	646858 240 595 302360 20.7 46.584898077349 8 4 60 171 6033
vector 2370167  Network.dyn_peer[29]  lookupStabilitySig:vector  ETV
2370167	647098 343 595 302360 20.7 46.584898077349 8 0.19999998807907 0.97802197746933 6.4747362527996 5.7494659509785
vector 2370168  Network.dyn_peer[29]  lookupTimeSig:vector  ETV
2370168	647441 250 595 302360 20.7 46.584898077349 8 0.4 6.1 17.8 63.74
vector 2370169  Network.dyn_peer[30]  lookupHopsSig:vector  ETV
2370169	647691 307 609 399129 20.71 51.19009705101 10 3 26 134 2410
vector 2370170  Network.dyn_peer[30]  lookupStabilitySig:vector  ETV
2370170	647998 449 609 399129 20.71 51.19009705101 10 0.19999998807907 0.99234693869948 8.3052091225982 7.4819193995386
vector 2370171  Network.dyn_peer[30]  lookupTimeSig:vector  ETV
2370171	648447 320 609 399129 20.71 51.19009705101 10 0.4 2.7 14.3 26.79
vector 2370172  Network.dyn_peer[31]  lookupHopsSig:vector  ETV
2370172	648767 502 621 636528 20.72 71.974855645455 16 1 57 361 12931
vector 2370173  Network.dyn_peer[31]  lookupStabilitySig:vector  ETV
2370173	649269 718 621 636528 20.72 71.974855645455 16 0.19999998807907 0.98880895320326 14.016400400549 12.876224583231
vector 2370174  Network.dyn_peer[31]  lookupTimeSig:vector  ETV
2370174	649987 522 621 636528 20.72 71.974855645455 16 0.2 5.8 37.6 136.6
vector 2370244  Network.dyn_peer[55]  lookupHopsSig:vector  ETV
2370244	682418 630 675 537705 20.76 58.94205628229 20 2 67 289 8707
vector 2370245  Network.dyn_peer[55]  lookupStabilitySig:vector  ETV
2370245	683048 915 675 537705 20.76 58.94205628229 20 0.59999999403954 0.99624765478075 18.432575304993 17.259002983101
vector 2370246  Network.dyn_peer[55]  lookupTimeSig:vector  ETV
2370246	683963 659 675 537705 20.76 58.94205628229 20 0.2 6.8 30.8 93
vector 2370316  Network.dyn_peer[79]  lookupHopsSig:vector  ETV
2370316	720018 371 725 419079 20.8 52.156931076876 12 0 51 275 9045
vector 2370317  Network.dyn_peer[79]  lookupStabilitySig:vector  ETV
2370317	720389 524 725 419079 20.8 52.156931076876 12 0.64705881476402 1 10.863814305514 9.9840428037137
vector 2370318  Network.dyn_peer[79]  lookupTimeSig:vector  ETV
2370318	720913 380 725 419079 20.8 52.156931076876 12 0 5.2 28.6 96.06
vector 2370289  Network.dyn_peer[70]  lookupHopsSig:vector  ETV
2370289	705049 538 739 538852 20.81 59.023278230033 17 1 49 268 7728
vector 2370290  Network.dyn_peer[70]  lookupStabilitySig:vector  ETV
2370290	705587 782 739 538852 20.81 59.023278230033 17 0.59090909361839 0.99672437994741 15.792769803433 14.850290398164
vector 2370291  Network.dyn_peer[70]  lookupTimeSig:vector  ETV
2370291	706369 558 739 538852 20.81 59.023278230033 17 0.1 5 28.4 82.78
vector 2370238  Network.dyn_peer[53]  lookupHopsSig:vector  ETV
2370238	678780 538 776 568161 20.84 61.365841318625 17 1 44 338 9752
vector 2370239  Network.dyn_peer[53]  lookupStabilitySig:vector  ETV
2370239	679318 779 776 568161 20.84 61.365841318625 17 0.39999997615814 0.98859857488424 15.261341339909 14.058373841406
vector 2370240  Network.dyn_peer[53]  lookupTimeSig:vector  ETV
2370240	680097 552 776 568161 20.84 61.365841318625 17 0.2 4.5 35.4 104.38
vector 2370268  Network.dyn_peer[63]  lookupHopsSig:vector  ETV
2370268	694080 641 780 646455 20.84 77.324873859728 20 1 112 425 20431
vector 2370269  Network.dyn_peer[63]  lookupStabilitySig:vector  ETV
2370269	694721 924 780 646455 20.84 77.324873859728 20 0.59999999403954 0.99929203541251 18.730907747347 17.747688631141
vector 2370270  Network.dyn_peer[63]  lookupTimeSig:vector  ETV
2370270	695645 668 780 646455 20.84 77.324873859728 20 0.2 11.3 44.4 212.96
vector 2370286  Network.dyn_peer[69]  lookupHopsSig:vector  ETV
2370286	703656 400 863 548288 20.9 59.720055763344 13 2 100 343 19983
vector 2370287  Network.dyn_peer[69]  lookupStabilitySig:vector  ETV
2370287	704056 576 863 548288 20.9 59.720055763344 13 0.58333334326744 0.97649363428354 11.524498432875 10.397054212851
vector 2370288  Network.dyn_peer[69]  lookupTimeSig:vector  ETV
2370288	704632 417 863 548288 20.9 59.720055763344 13 0.2 10.1 35.5 206.77
vector 2370229  Network.dyn_peer[50]  lookupHopsSig:vector  ETV
2370229	675248 363 879 450796 20.91 53.745239946597 12 1 27 119 2059
vector 2370230  Network.dyn_peer[50]  lookupStabilitySig:vector  ETV
2370230	675611 527 879 450796 20.91 53.745239946597 12 0.33333331346512 0.99365628603846 10.600085097365 9.720517806655
vector 2370231  Network.dyn_peer[50]  lookupTimeSig:vector  ETV
2370231	676138 380 879 450796 20.91 53.745239946597 12 0.2 2.8 13 23
vector 2370196  Network.dyn_peer[39]  lookupHopsSig:vector  ETV
2370196	659895 468 1006 474998 21 55.036126032687 15 2 44 269 7375
vector 2370197  Network.dyn_peer[39]  lookupStabilitySig:vector  ETV
2370197	660363 682 1006 474998 21 55.036126032687 15 0.14285713434219 0.98793859686702 13.142176193185 12.155051836408
vector 2370198  Network.dyn_peer[39]  lookupTimeSig:vector  ETV
2370198	661045 488 1006 474998 21 55.036126032687 15 0.3 4.5 28.3 79.15
vector 2370175  Network.dyn_peer[32]  lookupHopsSig:vector  ETV
2370175	650509 506 1048 632920 21.03 70.808907429359 16 3 63 301 10401
vector 2370176  Network.dyn_peer[32]  lookupStabilitySig:vector  ETV
2370176	651015 711 1048 632920 21.03 70.808907429359 16 0 0.99695121962577 14.150131362025 13.423558628957
vector 2370177  Network.dyn_peer[32]  lookupTimeSig:vector  ETV
2370177	651726 529 1048 632920 21.03 70.808907429359 16 0.4 6.4 31.6 110.04
vector 2370295  Network.dyn_peer[72]  lookupHopsSig:vector  ETV
2370295	708476 272 1052 323258 21.03 47.610374427341 9 3 76 216 10090
vector 2370296  Network.dyn_peer[72]  lookupStabilitySig:vector  ETV
2370296	708748 388 1052 323258 21.03 47.610374427341 9 0.5714285671711 0.97658610343933 7.6205189675093 6.5849935569687
vector 2370297  Network.dyn_peer[72]  lookupTimeSig:vector  ETV
2370297	709136 285 1052 323258 21.03 47.610374427341 9 0.3 7.7 22.4 105.24
vector 2370361  Network.dyn_peer[94]  lookupHopsSig:vector  ETV
2370361	741522 433 1085 296801 21.05 46.304552070099 14 1 25 143 2147
vector 2370362  Network.dyn_peer[94]  lookupStabilitySig:vector  ETV
2370362	741955 624 1085 296801 21.05 46.304552070099 14 0.81034483015537 0.99367660330608 12.958340591285 12.043053745487
vector 2370363  Network.dyn_peer[94]  lookupTimeSig:vector  ETV
2370363	742579 452 1085 296801 21.05 46.304552070099 14 0.1 2.6 15.6 24.44
vector 2370187  Network.dyn_peer[36]  lookupHopsSig:vector  ETV
2370187	656512 385 1116 528020 21.07 58.260562492131 12 1 37 198 4808
vector 2370188  Network.dyn_peer[36]  lookupStabilitySig:vector  ETV
2370188	656897 544 1116 528020 21.07 58.260562492131 12 0.125 0.99327731085941 10.516951560508 9.8751653098429
vector 2370189  Network.dyn_peer[36]  lookupTimeSig:vector  ETV
2370189	657441 399 1116 528020 21.07 58.260562492131 12 0.2 3.8 20.9 52.01
vector 2370310  Network.dyn_peer[77]  lookupHopsSig:vector  ETV
2370310	716715 509 1138 583216 21.08 62.796768869137 16 1 60 302 9322
vector 2370311  Network.dyn_peer[77]  lookupStabilitySig:vector  ETV
2370311	717224 734 1138 583216 21.08 62.796768869137 16 0.65079364180565 0.99541475623846 14.763809081167 13.79530659171
vector 2370312  Network.dyn_peer[77]  lookupTimeSig:vector  ETV
2370312	717958 528 1138 583216 21.08 62.796768869137 16 0.2 6.1 31.7 99.35
vector 2370232  Network.dyn_peer[51]  lookupHopsSig:vector  ETV
2370232	676518 278 1201 497388 21.12 56.316794202595 9 6 68 249 10233
vector 2370233  Network.dyn_peer[51]  lookupStabilitySig:vector  ETV
2370233	676796 406 1201 497388 21.12 56.316794202595 9 0.33333331346512 0.98183705285192 7.6610615924001 6.9286816316334
vector 2370234  Network.dyn_peer[51]  lookupTimeSig:vector  ETV
2370234	677202 287 1201 497388 21.12 56.316794202595 9 0.6 6.9 25.7 107.27
vector 2370235  Network.dyn_peer[52]  lookupHopsSig:vector  ETV
2370235	677489 373 1221 437535 21.13 53.07394770076 12 1 60 250 8536
vector 2370236  Network.dyn_peer[52]  lookupStabilitySig:vector  ETV
2370236	677862 532 1221 437535 21.13 53.07394770076 12 0.33333331346512 0.9914122140035 10.606256133877 9.7591808995373
vector 2370237  Network.dyn_peer[52]  lookupTimeSig:vector  ETV
2370237	678394 386 1221 437535 21.13 53.07394770076 12 0.2 6.1 26.1 90.35
vector 2370388  Network.dyn_peer[103]  lookupHopsSig:vector  ETV
2370388	755920 814 1243 651561 21.14 95.895911023576 25 1 55 624 20726
vector 2370389  Network.dyn_peer[103]  lookupStabilitySig:vector  ETV
2370389	756734 1163 1243 651561 21.14 95.895911023576 25 0.85185185074806 0.9936708859168 24.092937476002 23.262142150703
vector 2370390  Network.dyn_peer[103]  lookupTimeSig:vector  ETV
2370390	757897 841 1243 651561 21.14 95.895911023576 25 0.1 5.6 64.8 219.96
vector 2370301  Network.dyn_peer[74]  lookupHopsSig:vector  ETV
2370301	712007 600 1264 419392 21.15 52.171136959749 19 2 43 256 5946
vector 2370302  Network.dyn_peer[74]  lookupStabilitySig:vector  ETV
2370302	712607 874 1264 419392 21.15 52.171136959749 19 0.59999999403954 0.99448191281408 17.526537881233 16.394634975933
vector 2370303  Network.dyn_peer[74]  lookupTimeSig:vector  ETV
2370303	713481 626 1264 419392 21.15 52.171136959749 19 0.3 4.4 27.4 64.68
vector 2370391  Network.dyn_peer[104]  lookupHopsSig:vector  ETV
2370391	758738 432 1268 165790 21.15 38.987169232325 14 1 49 162 3850
vector 2370392  Network.dyn_peer[104]  lookupStabilitySig:vector  ETV
2370392	759170 631 1268 165790 21.15 38.987169232325 14 0.71111109852791 0.9936708859168 12.915418652352 11.994572931552
vector 2370393  Network.dyn_peer[104]  lookupTimeSig:vector  ETV
2370393	759801 451 1268 165790 21.15 38.987169232325 14 0.1 5 17.5 41.85
vector 2370337  Network.dyn_peer[86]  lookupHopsSig:vector  ETV
2370337	730085 501 1296 411094 21.17 51.765734284465 16 3 43 259 7071
vector 2370338  Network.dyn_peer[86]  lookupStabilitySig:vector  ETV
2370338	730586 733 1296 411094 21.17 51.765734284465 16 0.69999998807907 0.99329983256757 14.702901152428 13.634875278611
vector 2370339  Network.dyn_peer[86]  lookupTimeSig:vector  ETV
2370339	731319 524 1296 411094 21.17 51.765734284465 16 0.3 4.4 27.4 75.98
vector 2370445  Network.dyn_peer[122]  lookupHopsSig:vector  ETV
2370445	785760 339 1402 474865 21.23 55.028453663057 11 0 74 205 7687
vector 2370446  Network.dyn_peer[122]  lookupStabilitySig:vector  ETV
2370446	786099 473 1402 474865 21.23 55.028453663057 11 0.64705881476402 1 10.116514023859 9.4097120799001
vector 2370447  Network.dyn_peer[122]  lookupTimeSig:vector  ETV
2370447	786572 349 1402 474865 21.23 55.028453663057 11 0 7.5 21.5 81.07
vector 2370214  Network.dyn_peer[45]  lookupHopsSig:vector  ETV
2370214	669180 340 1455 182641 21.26 40.039784625464 11 2 51 167 4285
vector 2370215  Network.dyn_peer[45]  lookupStabilitySig:vector  ETV
2370215	669520 496 1455 182641 21.26 40.039784625464 11 0.38461536169052 0.98882681597024 9.496246422641 8.5088434512131
vector 2370216  Network.dyn_peer[45]  lookupTimeSig:vector  ETV
2370216	670016 354 1455 182641 21.26 40.039784625464 11 0.3 5.2 17.7 46.13
vector 2370280  Network.dyn_peer[67]  lookupHopsSig:vector  ETV
2370280	700815 373 1491 448900 21.28 53.647838288038 12 4 61 226 7544
vector 2370281  Network.dyn_peer[67]  lookupStabilitySig:vector  ETV
2370281	701188 544 1491 448900 21.28 53.647838288038 12 0.53846153616905 0.98717948701233 10.864658822306 10.032515807613
vector 2370282  Network.dyn_peer[67]  lookupTimeSig:vector  ETV
2370282	701732 388 1491 448900 21.28 53.647838288038 12 0.5 6.2 23.7 79.95
vector 2370406  Network.dyn_peer[109]  lookupHopsSig:vector  ETV
2370406	766402 549 1529 645816 21.3 76.775768962169 17 1 41 293 7603
vector 2370407  Network.dyn_peer[109]  lookupStabilitySig:vector  ETV
2370407	766951 771 1529 645816 21.3 76.775768962169 17 0.75 0.99369527166709 16.317246939056 15.72674413803
vector 2370408  Network.dyn_peer[109]  lookupTimeSig:vector  ETV
2370408	767722 572 1529 645816 21.3 76.775768962169 17 0.2 4.2 30.9 82.01
vector 2370409  Network.dyn_peer[110]  lookupHopsSig:vector  ETV
2370409	768294 539 1552 577711 21.31 62.248975376919 17 2 44 259 5821
vector 2370410  Network.dyn_peer[110]  lookupStabilitySig:vector  ETV
2370410	768833 780 1552 577711 21.31 62.248975376919 17 0.74626865983009 0.99313725484535 15.929863444995 15.016969913882
vector 2370411  Network.dyn_peer[110]  lookupTimeSig:vector  ETV
2370411	769613 556 1552 577711 21.31 62.248975376919 17 0.2 4.5 27.5 63.51
vector 2370265  Network.dyn_peer[62]  lookupHopsSig:vector  ETV
2370265	692783 376 1588 562608 21.33 60.883625417041 12 2 36 238 6056
vector 2370266  Network.dyn_peer[62]  lookupStabilitySig:vector  ETV
2370266	693159 532 1588 562608 21.33 60.883625417041 12 0.5 0.9964679912664 10.844157018233 10.06517610004
vector 2370267  Network.dyn_peer[62]  lookupTimeSig:vector  ETV
2370267	693691 389 1588 562608 21.33 60.883625417041 12 0.3 3.7 24.9 65.29
vector 2370325  Network.dyn_peer[82]  lookupHopsSig:vector  ETV
2370325	724120 442 1592 297029 21.33 46.318410487632 14 2 34 214 4560
vector 2370326  Network.dyn_peer[82]  lookupStabilitySig:vector  ETV
2370326	724562 641 1592 297029 21.33 46.318410487632 14 0.64285713434219 0.9943289225921 12.730714065023 11.741636239438
vector 2370327  Network.dyn_peer[82]  lookupTimeSig:vector  ETV
2370327	725203 461 1592 297029 21.33 46.318410487632 14 0.3 3.5 22.7 49.91
vector 2370178  Network.dyn_peer[33]  lookupHopsSig:vector  ETV
2370178	652255 342 1616 450542 21.34 53.732204423401 11 5 51 248 7896
vector 2370179  Network.dyn_peer[33]  lookupStabilitySig:vector  ETV
2370179	652597 498 1616 450542 21.34 53.732204423401 11 0.28571426868439 0.98672821652144 9.5630708904937 8.7345442195587
vector 2370180  Network.dyn_peer[33]  lookupTimeSig:vector  ETV
2370180	653095 351 1616 450542 21.34 53.732204423401 11 0.6 5.2 25.8 83.82
vector 2370208  Network.dyn_peer[43]  lookupHopsSig:vector  ETV
2370208	666363 472 1620 614448 21.34 66.790598544735 15 2 77 330 13996
vector 2370209  Network.dyn_peer[43]  lookupStabilitySig:vector  ETV
2370209	666835 686 1620 614448 21.34 66.790598544735 15 0.35714286565781 0.99488752568141 13.6252205153 12.737981663358
vector 2370210  Network.dyn_peer[43]  lookupTimeSig:vector  ETV
2370210	667521 488 1620 614448 21.34 66.790598544735 15 0.3 7.8 34.4 146.52
vector 2370328  Network.dyn_peer[83]  lookupHopsSig:vector  ETV
2370328	725664 312 1624 578939 21.34 62.368942248609 10 5 32 194 4392
vector 2370329  Network.dyn_peer[83]  lookupStabilitySig:vector  ETV
2370329	725976 449 1624 578939 21.34 62.368942248609 10 0.64285713434219 0.9915635548532 8.9636558862403 8.2028437099802
vector 2370330  Network.dyn_peer[83]  lookupTimeSig:vector  ETV
2370330	726425 322 1624 578939 21.34 62.368942248609 10 0.5 3.3 20.3 47.79
vector 2370211  Network.dyn_peer[44]  lookupHopsSig:vector  ETV
2370211	668009 332 1649 184057 21.35 40.123860273761 11 2 39 152 3630
vector 2370212  Network.dyn_peer[44]  lookupStabilitySig:vector  ETV