version 2
run Stability2-9-20130528-01:22:26-24168
attr configname Stability2
attr datetime 20130528-01:22:26
attr experiment Stability2
attr inifile omnetpp.ini
attr iterationvars $0=10
attr iterationvars2 "$0=10, $repetition=9"
attr measurement $0=10
attr network Network
attr processid 24168
attr repetition 9
attr replication #9
attr resultdir results
attr runnumber 9
attr seedset 9

vector 300009  Network.churner  inGoingSizeSig:vector  ETV
vector 270036  Network.dyn_peer[9]  lookupHopsSig:vector  ETV
vector 270037  Network.dyn_peer[9]  lookupStabilitySig:vector  ETV
vector 270038  Network.dyn_peer[9]  lookupTimeSig:vector  ETV
vector 270009  Network.dyn_peer[0]  lookupHopsSig:vector  ETV
vector 270010  Network.dyn_peer[0]  lookupStabilitySig:vector  ETV
vector 270011  Network.dyn_peer[0]  lookupTimeSig:vector  ETV
vector 270015  Network.dyn_peer[2]  lookupHopsSig:vector  ETV
vector 270016  Network.dyn_peer[2]  lookupStabilitySig:vector  ETV
vector 270017  Network.dyn_peer[2]  lookupTimeSig:vector  ETV
vector 270018  Network.dyn_peer[3]  lookupHopsSig:vector  ETV
vector 270019  Network.dyn_peer[3]  lookupStabilitySig:vector  ETV
vector 270020  Network.dyn_peer[3]  lookupTimeSig:vector  ETV
vector 270021  Network.dyn_peer[4]  lookupHopsSig:vector  ETV
vector 270022  Network.dyn_peer[4]  lookupStabilitySig:vector  ETV
vector 270023  Network.dyn_peer[4]  lookupTimeSig:vector  ETV
vector 270027  Network.dyn_peer[6]  lookupHopsSig:vector  ETV
vector 270028  Network.dyn_peer[6]  lookupStabilitySig:vector  ETV
vector 270029  Network.dyn_peer[6]  lookupTimeSig:vector  ETV
vector 270039  Network.dyn_peer[10]  lookupHopsSig:vector  ETV
vector 270040  Network.dyn_peer[10]  lookupStabilitySig:vector  ETV
vector 270041  Network.dyn_peer[10]  lookupTimeSig:vector  ETV
vector 270012  Network.dyn_peer[1]  lookupHopsSig:vector  ETV
vector 270013  Network.dyn_peer[1]  lookupStabilitySig:vector  ETV
vector 270014  Network.dyn_peer[1]  lookupTimeSig:vector  ETV
vector 270042  Network.dyn_peer[11]  lookupHopsSig:vector  ETV
vector 270043  Network.dyn_peer[11]  lookupStabilitySig:vector  ETV
vector 270044  Network.dyn_peer[11]  lookupTimeSig:vector  ETV
vector 270024  Network.dyn_peer[5]  lookupHopsSig:vector  ETV
vector 270025  Network.dyn_peer[5]  lookupStabilitySig:vector  ETV
vector 270026  Network.dyn_peer[5]  lookupTimeSig:vector  ETV
vector 270057  Network.dyn_peer[16]  lookupHopsSig:vector  ETV
vector 270058  Network.dyn_peer[16]  lookupStabilitySig:vector  ETV
vector 270059  Network.dyn_peer[16]  lookupTimeSig:vector  ETV
vector 270030  Network.dyn_peer[7]  lookupHopsSig:vector  ETV
vector 270031  Network.dyn_peer[7]  lookupStabilitySig:vector  ETV
vector 270032  Network.dyn_peer[7]  lookupTimeSig:vector  ETV
vector 270072  Network.dyn_peer[21]  lookupHopsSig:vector  ETV
vector 270073  Network.dyn_peer[21]  lookupStabilitySig:vector  ETV
vector 270074  Network.dyn_peer[21]  lookupTimeSig:vector  ETV
vector 270045  Network.dyn_peer[12]  lookupHopsSig:vector  ETV
vector 270046  Network.dyn_peer[12]  lookupStabilitySig:vector  ETV
vector 270047  Network.dyn_peer[12]  lookupTimeSig:vector  ETV
vector 270048  Network.dyn_peer[13]  lookupHopsSig:vector  ETV
vector 270049  Network.dyn_peer[13]  lookupStabilitySig:vector  ETV
vector 270050  Network.dyn_peer[13]  lookupTimeSig:vector  ETV
vector 270078  Network.dyn_peer[23]  lookupHopsSig:vector  ETV
vector 270079  Network.dyn_peer[23]  lookupStabilitySig:vector  ETV
vector 270080  Network.dyn_peer[23]  lookupTimeSig:vector  ETV
vector 270054  Network.dyn_peer[15]  lookupHopsSig:vector  ETV
vector 270055  Network.dyn_peer[15]  lookupStabilitySig:vector  ETV
vector 270056  Network.dyn_peer[15]  lookupTimeSig:vector  ETV
vector 270066  Network.dyn_peer[19]  lookupHopsSig:vector  ETV
vector 270067  Network.dyn_peer[19]  lookupStabilitySig:vector  ETV
vector 270068  Network.dyn_peer[19]  lookupTimeSig:vector  ETV
vector 270096  Network.dyn_peer[29]  lookupHopsSig:vector  ETV
vector 270097  Network.dyn_peer[29]  lookupStabilitySig:vector  ETV
vector 270098  Network.dyn_peer[29]  lookupTimeSig:vector  ETV
vector 270051  Network.dyn_peer[14]  lookupHopsSig:vector  ETV
vector 270052  Network.dyn_peer[14]  lookupStabilitySig:vector  ETV
vector 270053  Network.dyn_peer[14]  lookupTimeSig:vector  ETV
vector 270081  Network.dyn_peer[24]  lookupHopsSig:vector  ETV
vector 270082  Network.dyn_peer[24]  lookupStabilitySig:vector  ETV
vector 270083  Network.dyn_peer[24]  lookupTimeSig:vector  ETV
vector 270084  Network.dyn_peer[25]  lookupHopsSig:vector  ETV
vector 270085  Network.dyn_peer[25]  lookupStabilitySig:vector  ETV
vector 270086  Network.dyn_peer[25]  lookupTimeSig:vector  ETV
vector 270060  Network.dyn_peer[17]  lookupHopsSig:vector  ETV
vector 270061  Network.dyn_peer[17]  lookupStabilitySig:vector  ETV
vector 270062  Network.dyn_peer[17]  lookupTimeSig:vector  ETV
vector 270123  Network.dyn_peer[38]  lookupHopsSig:vector  ETV
vector 270124  Network.dyn_peer[38]  lookupStabilitySig:vector  ETV
vector 270125  Network.dyn_peer[38]  lookupTimeSig:vector  ETV
vector 270069  Network.dyn_peer[20]  lookupHopsSig:vector  ETV
vector 270070  Network.dyn_peer[20]  lookupStabilitySig:vector  ETV
vector 270071  Network.dyn_peer[20]  lookupTimeSig:vector  ETV
vector 270102  Network.dyn_peer[31]  lookupHopsSig:vector  ETV
vector 270103  Network.dyn_peer[31]  lookupStabilitySig:vector  ETV
vector 270104  Network.dyn_peer[31]  lookupTimeSig:vector  ETV
vector 270111  Network.dyn_peer[34]  lookupHopsSig:vector  ETV
vector 270112  Network.dyn_peer[34]  lookupStabilitySig:vector  ETV
vector 270113  Network.dyn_peer[34]  lookupTimeSig:vector  ETV
vector 270144  Network.dyn_peer[45]  lookupHopsSig:vector  ETV
vector 270145  Network.dyn_peer[45]  lookupStabilitySig:vector  ETV
vector 270146  Network.dyn_peer[45]  lookupTimeSig:vector  ETV
vector 270087  Network.dyn_peer[26]  lookupHopsSig:vector  ETV
vector 270088  Network.dyn_peer[26]  lookupStabilitySig:vector  ETV
vector 270089  Network.dyn_peer[26]  lookupTimeSig:vector  ETV
vector 270177  Network.dyn_peer[56]  lookupHopsSig:vector  ETV
vector 270178  Network.dyn_peer[56]  lookupStabilitySig:vector  ETV
vector 270179  Network.dyn_peer[56]  lookupTimeSig:vector  ETV
vector 270063  Network.dyn_peer[18]  lookupHopsSig:vector  ETV
vector 270064  Network.dyn_peer[18]  lookupStabilitySig:vector  ETV
vector 270065  Network.dyn_peer[18]  lookupTimeSig:vector  ETV
vector 270099  Network.dyn_peer[30]  lookupHopsSig:vector  ETV
vector 270100  Network.dyn_peer[30]  lookupStabilitySig:vector  ETV
vector 270101  Network.dyn_peer[30]  lookupTimeSig:vector  ETV
vector 270159  Network.dyn_peer[50]  lookupHopsSig:vector  ETV
vector 270160  Network.dyn_peer[50]  lookupStabilitySig:vector  ETV
vector 270161  Network.dyn_peer[50]  lookupTimeSig:vector  ETV
vector 270138  Network.dyn_peer[43]  lookupHopsSig:vector  ETV
vector 270139  Network.dyn_peer[43]  lookupStabilitySig:vector  ETV
vector 270140  Network.dyn_peer[43]  lookupTimeSig:vector  ETV
vector 270114  Network.dyn_peer[35]  lookupHopsSig:vector  ETV
vector 270115  Network.dyn_peer[35]  lookupStabilitySig:vector  ETV
vector 270116  Network.dyn_peer[35]  lookupTimeSig:vector  ETV
vector 270033  Network.dyn_peer[8]  lookupHopsSig:vector  ETV
vector 270034  Network.dyn_peer[8]  lookupStabilitySig:vector  ETV
vector 270035  Network.dyn_peer[8]  lookupTimeSig:vector  ETV
vector 270093  Network.dyn_peer[28]  lookupHopsSig:vector  ETV
vector 270094  Network.dyn_peer[28]  lookupStabilitySig:vector  ETV
vector 270095  Network.dyn_peer[28]  lookupTimeSig:vector  ETV
vector 270183  Network.dyn_peer[58]  lookupHopsSig:vector  ETV
vector 270184  Network.dyn_peer[58]  lookupStabilitySig:vector  ETV
vector 270185  Network.dyn_peer[58]  lookupTimeSig:vector  ETV
vector 270189  Network.dyn_peer[60]  lookupHopsSig:vector  ETV
vector 270190  Network.dyn_peer[60]  lookupStabilitySig:vector  ETV
vector 270191  Network.dyn_peer[60]  lookupTimeSig:vector  ETV
vector 270075  Network.dyn_peer[22]  lookupHopsSig:vector  ETV
vector 270076  Network.dyn_peer[22]  lookupStabilitySig:vector  ETV
vector 270077  Network.dyn_peer[22]  lookupTimeSig:vector  ETV
vector 270105  Network.dyn_peer[32]  lookupHopsSig:vector  ETV
vector 270106  Network.dyn_peer[32]  lookupStabilitySig:vector  ETV
vector 270107  Network.dyn_peer[32]  lookupTimeSig:vector  ETV
vector 270090  Network.dyn_peer[27]  lookupHopsSig:vector  ETV
vector 270091  Network.dyn_peer[27]  lookupStabilitySig:vector  ETV
vector 270092  Network.dyn_peer[27]  lookupTimeSig:vector  ETV
vector 270150  Network.dyn_peer[47]  lookupHopsSig:vector  ETV
vector 270151  Network.dyn_peer[47]  lookupStabilitySig:vector  ETV
vector 270152  Network.dyn_peer[47]  lookupTimeSig:vector  ETV
vector 270228  Network.dyn_peer[73]  lookupHopsSig:vector  ETV
vector 270229  Network.dyn_peer[73]  lookupStabilitySig:vector  ETV
vector 270230  Network.dyn_peer[73]  lookupTimeSig:vector  ETV
vector 270120  Network.dyn_peer[37]  lookupHopsSig:vector  ETV
vector 270121  Network.dyn_peer[37]  lookupStabilitySig:vector  ETV
vector 270122  Network.dyn_peer[37]  lookupTimeSig:vector  ETV
vector 270135  Network.dyn_peer[42]  lookupHopsSig:vector  ETV
vector 270136  Network.dyn_peer[42]  lookupStabilitySig:vector  ETV
vector 270137  Network.dyn_peer[42]  lookupTimeSig:vector  ETV
vector 270225  Network.dyn_peer[72]  lookupHopsSig:vector  ETV
vector 270226  Network.dyn_peer[72]  lookupStabilitySig:vector  ETV
vector 270227  Network.dyn_peer[72]  lookupTimeSig:vector  ETV
vector 270285  Network.dyn_peer[92]  lookupHopsSig:vector  ETV
vector 270286  Network.dyn_peer[92]  lookupStabilitySig:vector  ETV
vector 270287  Network.dyn_peer[92]  lookupTimeSig:vector  ETV
vector 270108  Network.dyn_peer[33]  lookupHopsSig:vector  ETV
vector 270109  Network.dyn_peer[33]  lookupStabilitySig:vector  ETV
vector 270110  Network.dyn_peer[33]  lookupTimeSig:vector  ETV
vector 270117  Network.dyn_peer[36]  lookupHopsSig:vector  ETV
vector 270118  Network.dyn_peer[36]  lookupStabilitySig:vector  ETV
vector 270119  Network.dyn_peer[36]  lookupTimeSig:vector  ETV
vector 270210  Network.dyn_peer[67]  lookupHopsSig:vector  ETV
vector 270211  Network.dyn_peer[67]  lookupStabilitySig:vector  ETV
vector 270212  Network.dyn_peer[67]  lookupTimeSig:vector  ETV
vector 270162  Network.dyn_peer[51]  lookupHopsSig:vector  ETV
vector 270163  Network.dyn_peer[51]  lookupStabilitySig:vector  ETV
vector 270164  Network.dyn_peer[51]  lookupTimeSig:vector  ETV
vector 270234  Network.dyn_peer[75]  lookupHopsSig:vector  ETV
vector 270235  Network.dyn_peer[75]  lookupStabilitySig:vector  ETV
vector 270236  Network.dyn_peer[75]  lookupTimeSig:vector  ETV
vector 270153  Network.dyn_peer[48]  lookupHopsSig:vector  ETV
vector 270154  Network.dyn_peer[48]  lookupStabilitySig:vector  ETV
vector 270155  Network.dyn_peer[48]  lookupTimeSig:vector  ETV
vector 270156  Network.dyn_peer[49]  lookupHopsSig:vector  ETV
vector 270157  Network.dyn_peer[49]  lookupStabilitySig:vector  ETV
vector 270158  Network.dyn_peer[49]  lookupTimeSig:vector  ETV
vector 270132  Network.dyn_peer[41]  lookupHopsSig:vector  ETV
vector 270133  Network.dyn_peer[41]  lookupStabilitySig:vector  ETV
vector 270134  Network.dyn_peer[41]  lookupTimeSig:vector  ETV
vector 270198  Network.dyn_peer[63]  lookupHopsSig:vector  ETV
vector 270199  Network.dyn_peer[63]  lookupStabilitySig:vector  ETV
vector 270200  Network.dyn_peer[63]  lookupTimeSig:vector  ETV
vector 270267  Network.dyn_peer[86]  lookupHopsSig:vector  ETV
vector 270268  Network.dyn_peer[86]  lookupStabilitySig:vector  ETV
vector 270269  Network.dyn_peer[86]  lookupTimeSig:vector  ETV
vector 270297  Network.dyn_peer[96]  lookupHopsSig:vector  ETV
vector 270298  Network.dyn_peer[96]  lookupStabilitySig:vector  ETV
vector 270299  Network.dyn_peer[96]  lookupTimeSig:vector  ETV
vector 270240  Network.dyn_peer[77]  lookupHopsSig:vector  ETV
vector 270241  Network.dyn_peer[77]  lookupStabilitySig:vector  ETV
vector 270242  Network.dyn_peer[77]  lookupTimeSig:vector  ETV
vector 270186  Network.dyn_peer[59]  lookupHopsSig:vector  ETV
vector 270187  Network.dyn_peer[59]  lookupStabilitySig:vector  ETV
vector 270188  Network.dyn_peer[59]  lookupTimeSig:vector  ETV
vector 270291  Network.dyn_peer[94]  lookupHopsSig:vector  ETV
vector 270292  Network.dyn_peer[94]  lookupStabilitySig:vector  ETV
vector 270293  Network.dyn_peer[94]  lookupTimeSig:vector  ETV
vector 270264  Network.dyn_peer[85]  lookupHopsSig:vector  ETV
vector 270265  Network.dyn_peer[85]  lookupStabilitySig:vector  ETV
vector 270266  Network.dyn_peer[85]  lookupTimeSig:vector  ETV
vector 270273  Network.dyn_peer[88]  lookupHopsSig:vector  ETV
vector 270274  Network.dyn_peer[88]  lookupStabilitySig:vector  ETV
vector 270275  Network.dyn_peer[88]  lookupTimeSig:vector  ETV
vector 270126  Network.dyn_peer[39]  lookupHopsSig:vector  ETV
vector 270127  Network.dyn_peer[39]  lookupStabilitySig:vector  ETV
vector 270128  Network.dyn_peer[39]  lookupTimeSig:vector  ETV
vector 270129  Network.dyn_peer[40]  lookupHopsSig:vector  ETV
vector 270130  Network.dyn_peer[40]  lookupStabilitySig:vector  ETV
vector 270131  Network.dyn_peer[40]  lookupTimeSig:vector  ETV
vector 270165  Network.dyn_peer[52]  lookupHopsSig:vector  ETV
vector 270166  Network.dyn_peer[52]  lookupStabilitySig:vector  ETV
vector 270167  Network.dyn_peer[52]  lookupTimeSig:vector  ETV
vector 270141  Network.dyn_peer[44]  lookupHopsSig:vector  ETV
vector 270142  Network.dyn_peer[44]  lookupStabilitySig:vector  ETV
vector 270143  Network.dyn_peer[44]  lookupTimeSig:vector  ETV
vector 270201  Network.dyn_peer[64]  lookupHopsSig:vector  ETV
vector 270202  Network.dyn_peer[64]  lookupStabilitySig:vector  ETV
vector 270203  Network.dyn_peer[64]  lookupTimeSig:vector  ETV
vector 270237  Network.dyn_peer[76]  lookupHopsSig:vector  ETV
vector 270238  Network.dyn_peer[76]  lookupStabilitySig:vector  ETV
vector 270239  Network.dyn_peer[76]  lookupTimeSig:vector  ETV
vector 270243  Network.dyn_peer[78]  lookupHopsSig:vector  ETV
vector 270244  Network.dyn_peer[78]  lookupStabilitySig:vector  ETV
vector 270245  Network.dyn_peer[78]  lookupTimeSig:vector  ETV
vector 270171  Network.dyn_peer[54]  lookupHopsSig:vector  ETV
vector 270172  Network.dyn_peer[54]  lookupStabilitySig:vector  ETV
vector 270173  Network.dyn_peer[54]  lookupTimeSig:vector  ETV
vector 270147  Network.dyn_peer[46]  lookupHopsSig:vector  ETV
vector 270148  Network.dyn_peer[46]  lookupStabilitySig:vector  ETV
vector 270149  Network.dyn_peer[46]  lookupTimeSig:vector  ETV
vector 270180  Network.dyn_peer[57]  lookupHopsSig:vector  ETV
vector 270181  Network.dyn_peer[57]  lookupStabilitySig:vector  ETV
vector 270182  Network.dyn_peer[57]  lookupTimeSig:vector  ETV
vector 270213  Network.dyn_peer[68]  lookupHopsSig:vector  ETV
vector 270214  Network.dyn_peer[68]  lookupStabilitySig:vector  ETV
vector 270215  Network.dyn_peer[68]  lookupTimeSig:vector  ETV
vector 270219  Network.dyn_peer[70]  lookupHopsSig:vector  ETV
vector 270220  Network.dyn_peer[70]  lookupStabilitySig:vector  ETV
vector 270221  Network.dyn_peer[70]  lookupTimeSig:vector  ETV
vector 270192  Network.dyn_peer[61]  lookupHopsSig:vector  ETV
vector 270193  Network.dyn_peer[61]  lookupStabilitySig:vector  ETV
vector 270194  Network.dyn_peer[61]  lookupTimeSig:vector  ETV
vector 270252  Network.dyn_peer[81]  lookupHopsSig:vector  ETV
vector 270253  Network.dyn_peer[81]  lookupStabilitySig:vector  ETV
vector 270254  Network.dyn_peer[81]  lookupTimeSig:vector  ETV
vector 270270  Network.dyn_peer[87]  lookupHopsSig:vector  ETV
vector 270271  Network.dyn_peer[87]  lookupStabilitySig:vector  ETV
vector 270272  Network.dyn_peer[87]  lookupTimeSig:vector  ETV
vector 270195  Network.dyn_peer[62]  lookupHopsSig:vector  ETV
vector 270196  Network.dyn_peer[62]  lookupStabilitySig:vector  ETV
vector 270197  Network.dyn_peer[62]  lookupTimeSig:vector  ETV
vector 270204  Network.dyn_peer[65]  lookupHopsSig:vector  ETV
vector 270205  Network.dyn_peer[65]  lookupStabilitySig:vector  ETV
vector 270206  Network.dyn_peer[65]  lookupTimeSig:vector  ETV
vector 270306  Network.dyn_peer[99]  lookupHopsSig:vector  ETV
vector 270307  Network.dyn_peer[99]  lookupStabilitySig:vector  ETV
vector 270308  Network.dyn_peer[99]  lookupTimeSig:vector  ETV
vector 270168  Network.dyn_peer[53]  lookupHopsSig:vector  ETV
vector 270169  Network.dyn_peer[53]  lookupStabilitySig:vector  ETV
vector 270170  Network.dyn_peer[53]  lookupTimeSig:vector  ETV
vector 270276  Network.dyn_peer[89]  lookupHopsSig:vector  ETV
vector 270277  Network.dyn_peer[89]  lookupStabilitySig:vector  ETV
vector 270278  Network.dyn_peer[89]  lookupTimeSig:vector  ETV
vector 270258  Network.dyn_peer[83]  lookupHopsSig:vector  ETV
vector 270259  Network.dyn_peer[83]  lookupStabilitySig:vector  ETV
vector 270260  Network.dyn_peer[83]  lookupTimeSig:vector  ETV
vector 270261  Network.dyn_peer[84]  lookupHopsSig:vector  ETV
vector 270262  Network.dyn_peer[84]  lookupStabilitySig:vector  ETV
vector 270263  Network.dyn_peer[84]  lookupTimeSig:vector  ETV
vector 270300  Network.dyn_peer[97]  lookupHopsSig:vector  ETV
vector 270301  Network.dyn_peer[97]  lookupStabilitySig:vector  ETV
vector 270302  Network.dyn_peer[97]  lookupTimeSig:vector  ETV
vector 270249  Network.dyn_peer[80]  lookupHopsSig:vector  ETV
vector 270250  Network.dyn_peer[80]  lookupStabilitySig:vector  ETV
vector 270251  Network.dyn_peer[80]  lookupTimeSig:vector  ETV
vector 270222  Network.dyn_peer[71]  lookupHopsSig:vector  ETV
vector 270223  Network.dyn_peer[71]  lookupStabilitySig:vector  ETV
vector 270224  Network.dyn_peer[71]  lookupTimeSig:vector  ETV
vector 270255  Network.dyn_peer[82]  lookupHopsSig:vector  ETV
vector 270256  Network.dyn_peer[82]  lookupStabilitySig:vector  ETV
vector 270257  Network.dyn_peer[82]  lookupTimeSig:vector  ETV
vector 270174  Network.dyn_peer[55]  lookupHopsSig:vector  ETV
vector 270175  Network.dyn_peer[55]  lookupStabilitySig:vector  ETV
vector 270176  Network.dyn_peer[55]  lookupTimeSig:vector  ETV
vector 270294  Network.dyn_peer[95]  lookupHopsSig:vector  ETV
vector 270295  Network.dyn_peer[95]  lookupStabilitySig:vector  ETV
vector 270296  Network.dyn_peer[95]  lookupTimeSig:vector  ETV
vector 270207  Network.dyn_peer[66]  lookupHopsSig:vector  ETV
vector 270208  Network.dyn_peer[66]  lookupStabilitySig:vector  ETV
vector 270209  Network.dyn_peer[66]  lookupTimeSig:vector  ETV
vector 270246  Network.dyn_peer[79]  lookupHopsSig:vector  ETV
vector 270247  Network.dyn_peer[79]  lookupStabilitySig:vector  ETV
vector 270248  Network.dyn_peer[79]  lookupTimeSig:vector  ETV
vector 270288  Network.dyn_peer[93]  lookupHopsSig:vector  ETV
vector 270289  Network.dyn_peer[93]  lookupStabilitySig:vector  ETV
vector 270290  Network.dyn_peer[93]  lookupTimeSig:vector  ETV
vector 270303  Network.dyn_peer[98]  lookupHopsSig:vector  ETV
vector 270304  Network.dyn_peer[98]  lookupStabilitySig:vector  ETV
vector 270305  Network.dyn_peer[98]  lookupTimeSig:vector  ETV
vector 270282  Network.dyn_peer[91]  lookupHopsSig:vector  ETV
vector 270283  Network.dyn_peer[91]  lookupStabilitySig:vector  ETV
vector 270284  Network.dyn_peer[91]  lookupTimeSig:vector  ETV
vector 270231  Network.dyn_peer[74]  lookupHopsSig:vector  ETV
vector 270232  Network.dyn_peer[74]  lookupStabilitySig:vector  ETV
vector 270233  Network.dyn_peer[74]  lookupTimeSig:vector  ETV
vector 270216  Network.dyn_peer[69]  lookupHopsSig:vector  ETV
vector 270217  Network.dyn_peer[69]  lookupStabilitySig:vector  ETV
vector 270218  Network.dyn_peer[69]  lookupTimeSig:vector  ETV
vector 270279  Network.dyn_peer[90]  lookupHopsSig:vector  ETV
vector 270280  Network.dyn_peer[90]  lookupStabilitySig:vector  ETV
vector 270281  Network.dyn_peer[90]  lookupTimeSig:vector  ETV
270009	51	20.11	1
270009	189	20.31	1
270009	1197	21.113223043624	7
270009	1907	21.621833030201	4
270010	51	20.11	0.79999999701977
270010	189	20.31	0.79999999701977
270010	1197	21.113223043624	-0.16666662693024
270010	1907	21.621833030201	0.69230768084526
270011	51	20.11	0.1
270011	189	20.31	0.2
270011	1197	21.113223043624	0.8
270011	1907	21.621833030201	0.5
270012	123	20.22	2
270012	917	20.92	6
270012	1785	21.524560869645	5
270012	2538	22.12906510122	5
270013	123	20.22	0.59999999403954
270013	917	20.92	-0.20000004768372
270013	1785	21.524560869645	0.58333334326744
270013	2538	22.12906510122	0.84848484396935
270014	123	20.22	0.2
270014	917	20.92	0.7
270014	1785	21.524560869645	0.6
270014	2538	22.12906510122	0.6
270015	63	20.13	1
270015	1498	21.33	11
270015	3148	22.738387186641	13
270016	63	20.13	0.79999999701977
270016	1498	21.33	-0.375
270016	3148	22.738387186641	0.75
270017	63	20.13	0.1
270017	1498	21.33	1.2
270017	3148	22.738387186641	1.4
270018	71	20.14	1
270018	306	20.44	2
270018	2211	21.85014610981	13
270018	3334	22.955419335425	6
270019	71	20.14	0.79999999701977
270019	306	20.44	0.59999999403954
270019	2211	21.85014610981	0.40909093618393
270019	3334	22.955419335425	0.89999999850988
270020	71	20.14	0.1
270020	306	20.44	0.3
270020	2211	21.85014610981	1.4
270020	3334	22.955419335425	0.7
270021	79	20.15	1
270021	554	20.659524538179	4
270021	1684	21.466391106715	7
270021	1961	21.668298354255	1
270022	79	20.15	0.79999999701977
270022	554	20.659524538179	0.19999998807907
270022	1684	21.466391106715	0.30000001192093
270022	1961	21.668298354255	0.92857142537832
270023	79	20.15	0.1
270023	554	20.659524538179	0.5
270023	1684	21.466391106715	0.8
270023	1961	21.668298354255	0.2
270024	154	20.26	2
270024	570	20.662765759478	3
270024	1705	21.472172908162	7
270024	2306	21.927726359565	3
270024	3307	22.928363881944	9
270024	3737	23.633329739236	6
270024	4081	24.540133671088	8
270025	154	20.26	0.59999999403954
270025	570	20.662765759478	0.39999997615814
270025	1705	21.472172908162	0.36363637447357
270025	2306	21.927726359565	0.89655172079802
270025	3307	22.928363881944	0.84745763242245
270025	3737	23.633329739236	0.92105263471603
270025	4081	24.540133671088	0.90804597735405
270026	154	20.26	0.2
270026	570	20.662765759478	0.4
270026	1705	21.472172908162	0.8
270026	2306	21.927726359565	0.4
270026	3307	22.928363881944	1
270026	3737	23.633329739236	0.7
270026	4081	24.540133671088	0.9
270027	92	20.17	1
270027	1140	21.07	8
270027	2907	22.475239490736	13
270028	92	20.17	0.79999999701977
270028	1140	21.07	-0.33333337306976
270028	2907	22.475239490736	0.69047617912292
270029	92	20.17	0.1
270029	1140	21.07	0.9
270029	2907	22.475239490736	1.4
270030	173	20.28	2
270030	719	20.78	4
270030	1024	20.986818899463	1
270030	2008	21.695760744454	6
270030	2409	22.004496146238	2
270031	173	20.28	0.59999999403954
270031	719	20.78	0.19999998807907
270031	1024	20.986818899463	0.83333332836628
270031	2008	21.695760744454	0.59999999403954
270031	2409	22.004496146238	0.9375
270032	173	20.28	0.2
270032	719	20.78	0.5
270032	1024	20.986818899463	0.2
270032	2008	21.695760744454	0.7
270032	2409	22.004496146238	0.3
270033	601	20.69	6
270033	2000	21.69	9
270033	2921	22.492602882245	7
270034	601	20.69	-0.20000004768372
270034	2000	21.69	0.39999997615814
270034	2921	22.492602882245	0.83720929920673
270035	601	20.69	0.6
270035	2000	21.69	1
270035	2921	22.492602882245	0.8
270036	44	20.1	0
270036	278	20.405253834996	2
270036	2032	21.707873311644	12
270036	3122	22.712953604424	6
270036	3483	23.219596978832	4
270036	3729	23.627167731994	3
270036	4111	24.630675860077	9
270037	44	20.1	1
270037	278	20.405253834996	0.59999999403954
270037	2032	21.707873311644	0.25
270037	3122	22.712953604424	0.88461538404226
270037	3483	23.219596978832	0.9375
270037	3729	23.627167731994	0.96000000089407
270037	4111	24.630675860077	0.89655172079802
270038	44	20.1	0
270038	278	20.405253834996	0.3
270038	2032	21.707873311644	1.3
270038	3122	22.712953604424	0.7
270038	3483	23.219596978832	0.5
270038	3729	23.627167731994	0.4
270038	4111	24.630675860077	1
270039	113	20.21	1
270039	649	20.728953996511	4
270039	3227	22.833197018621	20
270039	3739	23.639577326216	7
270040	113	20.21	0.79999999701977
270040	649	20.728953996511	0.19999998807907
270040	3227	22.833197018621	0.64912280440331
270040	3739	23.639577326216	0.90789473801851
270041	113	20.21	0.1
270041	649	20.728953996511	0.5
270041	3227	22.833197018621	2.1
270041	3739	23.639577326216	0.8
270042	127	20.22	1
270042	518	20.62	3
270042	921	20.923077012079	2
270042	2319	21.931110188781	9
270042	2762	22.338269831565	3
270042	3058	22.639722751319	2
270042	3448	23.142451768459	4
270043	127	20.22	0.79999999701977
270043	518	20.62	0.39999997615814
270043	921	20.923077012079	0.59999999403954
270043	2319	21.931110188781	0.68965518474579
270043	2762	22.338269831565	0.92105263471603
270043	3058	22.639722751319	0.95918367430568
270043	3448	23.142451768459	0.9375
270044	127	20.22	0.1
270044	518	20.62	0.4
270044	921	20.923077012079	0.3
270044	2319	21.931110188781	1
270044	2762	22.338269831565	0.4
270044	3058	22.639722751319	0.3
270044	3448	23.142451768459	0.5
270045	211	20.33	2
270045	1223	21.13	7
270045	1656	21.441688865653	2
270045	2340	21.945934920862	4
270046	211	20.33	0.59999999403954
270046	1223	21.13	-0.16666662693024
270046	1656	21.441688865653	0.79999999701977
270046	2340	21.945934920862	0.86206896603107
270047	211	20.33	0.2
270047	1223	21.13	0.8
270047	1656	21.441688865653	0.3
270047	2340	21.945934920862	0.5
270048	221	20.34	2
270048	798	20.84	4
270048	1382	21.251410638039	3
270048	2916	22.486496349924	5
270048	3649	23.488435778274	9
270048	3888	23.998294055157	4
270049	221	20.34	0.59999999403954
270049	798	20.84	0.19999998807907
270049	1382	21.251410638039	0.5
270049	2916	22.486496349924	0.88372092694044
270049	3649	23.488435778274	0.87323944270611
270049	3888	23.998294055157	0.94936708733439
270050	221	20.34	0.2
270050	798	20.84	0.5
270050	1382	21.251410638039	0.4
270050	2916	22.486496349924	0.6
270050	3649	23.488435778274	1
270050	3888	23.998294055157	0.5
270051	318	20.45	3
270051	1114	21.056952624304	5
270051	1547	21.366668725511	2
270051	2231	21.871927426197	4
270052	318	20.45	0.39999997615814
270052	1114	21.056952624304	0.16666668653488
270052	1547	21.366668725511	0.75
270052	2231	21.871927426197	0.84000000357628
270053	318	20.45	0.3
270053	1114	21.056952624304	0.6
270053	1547	21.366668725511	0.3
270053	2231	21.871927426197	0.5
270054	241	20.36	2
270054	1541	21.36	9
270054	2791	22.363937997401	9
270054	3000	22.57248039202	1
270055	241	20.36	0.59999999403954
270055	1541	21.36	-0.125
270055	2791	22.363937997401	0.76315788924694
270055	3000	22.57248039202	0.97826086916029
270056	241	20.36	0.2
270056	1541	21.36	1
270056	2791	22.363937997401	1
270056	3000	22.57248039202	0.2
270057	164	20.27	1
270057	345	20.47	1
270057	1567	21.376833060154	8
270058	164	20.27	0.79999999701977
270058	345	20.47	0.79999999701977
270058	1567	21.376833060154	0
270059	164	20.27	0.1
270059	345	20.47	0.2
270059	1567	21.376833060154	0.9
270060	358	20.48	3
270060	724	20.78	2
270060	1855	21.582578826949	7
270060	3182	22.782836937331	11
270060	3410	23.086305391268	2
270061	358	20.48	0.39999997615814
270061	724	20.78	0.59999999403954
270061	1855	21.582578826949	0.46153843402863
270061	3182	22.782836937331	0.79999999701977
270061	3410	23.086305391268	0.96721311658621
270062	358	20.48	0.3
270062	724	20.78	0.3
270062	1855	21.582578826949	0.8
270062	3182	22.782836937331	1.2
270062	3410	23.086305391268	0.3
270063	481	20.59	4
270063	1035	20.99	3
270063	1867	21.590466494588	5
270063	2710	22.29476560662	6
270064	481	20.59	0.19999998807907
270064	1035	20.99	0.5
270064	1867	21.590466494588	0.61538460850716
270064	2710	22.29476560662	0.83783784508705
270065	481	20.59	0.4
270065	1035	20.99	0.4
270065	1867	21.590466494588	0.6
270065	2710	22.29476560662	0.7
270066	270	20.4	2
270066	1456	21.3	8
270066	2728	22.307798893344	9
270066	3204	22.810521924739	4
270067	270	20.4	0.59999999403954
270067	1456	21.3	0
270067	2728	22.307798893344	0.76315788924694
270067	3204	22.810521924739	0.92857142537832
270068	270	20.4	0.2
270068	1456	21.3	0.9
270068	2728	22.307798893344	1
270068	3204	22.810521924739	0.5
270069	387	20.51	3
270069	1476	21.31	7
270069	2290	21.911200954662	5
270070	387	20.51	0.39999997615814
270070	1476	21.31	0.125
270070	2290	21.911200954662	0.8214285671711
270071	387	20.51	0.3
270071	1476	21.31	0.8
270071	2290	21.911200954662	0.6
270072	200	20.32	1
270072	774	20.82	4
270072	2174	21.827725362617	9
270072	3563	23.33036355253	14
270073	200	20.32	0.79999999701977
270073	774	20.82	0.19999998807907
270073	2174	21.827725362617	0.5714285671711
270073	3563	23.33036355253	0.78125
270074	200	20.32	0.1
270074	774	20.82	0.5
270074	2174	21.827725362617	1
270074	3563	23.33036355253	1.5
270075	661	20.73	5
270075	1921	21.63	8
270075	2325	21.936200633242	2
270075	2969	22.538886899554	5
270076	661	20.73	0
270076	1921	21.63	0.38461536169052
270076	2325	21.936200633242	0.93103448301554
270076	2969	22.538886899554	0.88636363297701
270077	661	20.73	0.5
270077	1921	21.63	0.9
270077	2325	21.936200633242	0.3
270077	2969	22.538886899554	0.6
270078	225	20.34	1
270078	419	20.543399766704	1
270078	1810	21.545633061471	9
270078	2214	21.85479534399	2
270078	2619	22.210155904283	2
270078	2946	22.511470407048	2
270078	3373	23.020296910282	4
270079	225	20.34	0.79999999701977
270079	419	20.543399766704	0.79999999701977
270079	1810	21.545633061471	0.30769228935242
270079	2214	21.85479534399	0.91304347664118
270079	2619	22.210155904283	0.94285714253783
270079	2946	22.511470407048	0.9545454531908
270079	3373	23.020296910282	0.93442623317242
270080	225	20.34	0.1
270080	419	20.543399766704	0.2
270080	1810	21.545633061471	1
270080	2214	21.85479534399	0.3
270080	2619	22.210155904283	0.3
270080	2946	22.511470407048	0.3
270080	3373	23.020296910282	0.5
270081	322	20.45	2
270081	814	20.85	3
270081	1251	21.154665352797	2
270081	1690	21.469367367831	2
270081	3120	22.71074338142	11
270081	3610	23.416138295321	6
270081	3974	24.223946821381	7
270081	4166	24.824175595411	5
270082	322	20.45	0.59999999403954
270082	814	20.85	0.39999997615814
270082	1251	21.154665352797	0.66666665673256