file 943057 1369697308                                          
version 2
run Stability2-56-20130528-01:28:17-24168
attr configname Stability2
attr datetime 20130528-01:28:17
attr experiment Stability2
attr inifile omnetpp.ini
attr iterationvars $0=100
attr iterationvars2 "$0=100, $repetition=6"
attr measurement $0=100
attr network Network
attr processid 24168
attr repetition 6
attr replication #6
attr resultdir results
attr runnumber 56
attr seedset 56

vector 1710056  Network.churner  inGoingSizeSig:vector  ETV
vector 1680056  Network.dyn_peer[0]  lookupHopsSig:vector  ETV
vector 1680057  Network.dyn_peer[0]  lookupStabilitySig:vector  ETV
vector 1680058  Network.dyn_peer[0]  lookupTimeSig:vector  ETV
vector 1680059  Network.dyn_peer[1]  lookupHopsSig:vector  ETV
vector 1680060  Network.dyn_peer[1]  lookupStabilitySig:vector  ETV
vector 1680061  Network.dyn_peer[1]  lookupTimeSig:vector  ETV
vector 1680068  Network.dyn_peer[4]  lookupHopsSig:vector  ETV
vector 1680069  Network.dyn_peer[4]  lookupStabilitySig:vector  ETV
vector 1680070  Network.dyn_peer[4]  lookupTimeSig:vector  ETV
vector 1680071  Network.dyn_peer[5]  lookupHopsSig:vector  ETV
vector 1680072  Network.dyn_peer[5]  lookupStabilitySig:vector  ETV
vector 1680073  Network.dyn_peer[5]  lookupTimeSig:vector  ETV
vector 1680074  Network.dyn_peer[6]  lookupHopsSig:vector  ETV
vector 1680075  Network.dyn_peer[6]  lookupStabilitySig:vector  ETV
vector 1680076  Network.dyn_peer[6]  lookupTimeSig:vector  ETV
vector 1680077  Network.dyn_peer[7]  lookupHopsSig:vector  ETV
vector 1680078  Network.dyn_peer[7]  lookupStabilitySig:vector  ETV
vector 1680079  Network.dyn_peer[7]  lookupTimeSig:vector  ETV
vector 1680083  Network.dyn_peer[9]  lookupHopsSig:vector  ETV
vector 1680084  Network.dyn_peer[9]  lookupStabilitySig:vector  ETV
vector 1680085  Network.dyn_peer[9]  lookupTimeSig:vector  ETV
vector 1680062  Network.dyn_peer[2]  lookupHopsSig:vector  ETV
vector 1680063  Network.dyn_peer[2]  lookupStabilitySig:vector  ETV
vector 1680064  Network.dyn_peer[2]  lookupTimeSig:vector  ETV
vector 1680092  Network.dyn_peer[12]  lookupHopsSig:vector  ETV
vector 1680093  Network.dyn_peer[12]  lookupStabilitySig:vector  ETV
vector 1680094  Network.dyn_peer[12]  lookupTimeSig:vector  ETV
vector 1680065  Network.dyn_peer[3]  lookupHopsSig:vector  ETV
vector 1680066  Network.dyn_peer[3]  lookupStabilitySig:vector  ETV
vector 1680067  Network.dyn_peer[3]  lookupTimeSig:vector  ETV
vector 1680101  Network.dyn_peer[15]  lookupHopsSig:vector  ETV
vector 1680102  Network.dyn_peer[15]  lookupStabilitySig:vector  ETV
vector 1680103  Network.dyn_peer[15]  lookupTimeSig:vector  ETV
vector 1680107  Network.dyn_peer[17]  lookupHopsSig:vector  ETV
vector 1680108  Network.dyn_peer[17]  lookupStabilitySig:vector  ETV
vector 1680109  Network.dyn_peer[17]  lookupTimeSig:vector  ETV
vector 1680080  Network.dyn_peer[8]  lookupHopsSig:vector  ETV
vector 1680081  Network.dyn_peer[8]  lookupStabilitySig:vector  ETV
vector 1680082  Network.dyn_peer[8]  lookupTimeSig:vector  ETV
vector 1680095  Network.dyn_peer[13]  lookupHopsSig:vector  ETV
vector 1680096  Network.dyn_peer[13]  lookupStabilitySig:vector  ETV
vector 1680097  Network.dyn_peer[13]  lookupTimeSig:vector  ETV
vector 1680110  Network.dyn_peer[18]  lookupHopsSig:vector  ETV
vector 1680111  Network.dyn_peer[18]  lookupStabilitySig:vector  ETV
vector 1680112  Network.dyn_peer[18]  lookupTimeSig:vector  ETV
vector 1680173  Network.dyn_peer[39]  lookupHopsSig:vector  ETV
vector 1680174  Network.dyn_peer[39]  lookupStabilitySig:vector  ETV
vector 1680175  Network.dyn_peer[39]  lookupTimeSig:vector  ETV
vector 1680086  Network.dyn_peer[10]  lookupHopsSig:vector  ETV
vector 1680087  Network.dyn_peer[10]  lookupStabilitySig:vector  ETV
vector 1680088  Network.dyn_peer[10]  lookupTimeSig:vector  ETV
vector 1680116  Network.dyn_peer[20]  lookupHopsSig:vector  ETV
vector 1680117  Network.dyn_peer[20]  lookupStabilitySig:vector  ETV
vector 1680118  Network.dyn_peer[20]  lookupTimeSig:vector  ETV
vector 1680122  Network.dyn_peer[22]  lookupHopsSig:vector  ETV
vector 1680123  Network.dyn_peer[22]  lookupStabilitySig:vector  ETV
vector 1680124  Network.dyn_peer[22]  lookupTimeSig:vector  ETV
vector 1680104  Network.dyn_peer[16]  lookupHopsSig:vector  ETV
vector 1680105  Network.dyn_peer[16]  lookupStabilitySig:vector  ETV
vector 1680106  Network.dyn_peer[16]  lookupTimeSig:vector  ETV
vector 1680134  Network.dyn_peer[26]  lookupHopsSig:vector  ETV
vector 1680135  Network.dyn_peer[26]  lookupStabilitySig:vector  ETV
vector 1680136  Network.dyn_peer[26]  lookupTimeSig:vector  ETV
vector 1680167  Network.dyn_peer[37]  lookupHopsSig:vector  ETV
vector 1680168  Network.dyn_peer[37]  lookupStabilitySig:vector  ETV
vector 1680169  Network.dyn_peer[37]  lookupTimeSig:vector  ETV
vector 1680170  Network.dyn_peer[38]  lookupHopsSig:vector  ETV
vector 1680171  Network.dyn_peer[38]  lookupStabilitySig:vector  ETV
vector 1680172  Network.dyn_peer[38]  lookupTimeSig:vector  ETV
vector 1680143  Network.dyn_peer[29]  lookupHopsSig:vector  ETV
vector 1680144  Network.dyn_peer[29]  lookupStabilitySig:vector  ETV
vector 1680145  Network.dyn_peer[29]  lookupTimeSig:vector  ETV
vector 1680146  Network.dyn_peer[30]  lookupHopsSig:vector  ETV
vector 1680147  Network.dyn_peer[30]  lookupStabilitySig:vector  ETV
vector 1680148  Network.dyn_peer[30]  lookupTimeSig:vector  ETV
vector 1680152  Network.dyn_peer[32]  lookupHopsSig:vector  ETV
vector 1680153  Network.dyn_peer[32]  lookupStabilitySig:vector  ETV
vector 1680154  Network.dyn_peer[32]  lookupTimeSig:vector  ETV
vector 1680125  Network.dyn_peer[23]  lookupHopsSig:vector  ETV
vector 1680126  Network.dyn_peer[23]  lookupStabilitySig:vector  ETV
vector 1680127  Network.dyn_peer[23]  lookupTimeSig:vector  ETV
vector 1680155  Network.dyn_peer[33]  lookupHopsSig:vector  ETV
vector 1680156  Network.dyn_peer[33]  lookupStabilitySig:vector  ETV
vector 1680157  Network.dyn_peer[33]  lookupTimeSig:vector  ETV
vector 1680098  Network.dyn_peer[14]  lookupHopsSig:vector  ETV
vector 1680099  Network.dyn_peer[14]  lookupStabilitySig:vector  ETV
vector 1680100  Network.dyn_peer[14]  lookupTimeSig:vector  ETV
vector 1680131  Network.dyn_peer[25]  lookupHopsSig:vector  ETV
vector 1680132  Network.dyn_peer[25]  lookupStabilitySig:vector  ETV
vector 1680133  Network.dyn_peer[25]  lookupTimeSig:vector  ETV
vector 1680089  Network.dyn_peer[11]  lookupHopsSig:vector  ETV
vector 1680090  Network.dyn_peer[11]  lookupStabilitySig:vector  ETV
vector 1680091  Network.dyn_peer[11]  lookupTimeSig:vector  ETV
vector 1680176  Network.dyn_peer[40]  lookupHopsSig:vector  ETV
vector 1680177  Network.dyn_peer[40]  lookupStabilitySig:vector  ETV
vector 1680178  Network.dyn_peer[40]  lookupTimeSig:vector  ETV
vector 1680206  Network.dyn_peer[50]  lookupHopsSig:vector  ETV
vector 1680207  Network.dyn_peer[50]  lookupStabilitySig:vector  ETV
vector 1680208  Network.dyn_peer[50]  lookupTimeSig:vector  ETV
vector 1680179  Network.dyn_peer[41]  lookupHopsSig:vector  ETV
vector 1680180  Network.dyn_peer[41]  lookupStabilitySig:vector  ETV
vector 1680181  Network.dyn_peer[41]  lookupTimeSig:vector  ETV
vector 1680158  Network.dyn_peer[34]  lookupHopsSig:vector  ETV
vector 1680159  Network.dyn_peer[34]  lookupStabilitySig:vector  ETV
vector 1680160  Network.dyn_peer[34]  lookupTimeSig:vector  ETV
vector 1680113  Network.dyn_peer[19]  lookupHopsSig:vector  ETV
vector 1680114  Network.dyn_peer[19]  lookupStabilitySig:vector  ETV
vector 1680115  Network.dyn_peer[19]  lookupTimeSig:vector  ETV
vector 1680119  Network.dyn_peer[21]  lookupHopsSig:vector  ETV
vector 1680120  Network.dyn_peer[21]  lookupStabilitySig:vector  ETV
vector 1680121  Network.dyn_peer[21]  lookupTimeSig:vector  ETV
vector 1680185  Network.dyn_peer[43]  lookupHopsSig:vector  ETV
vector 1680186  Network.dyn_peer[43]  lookupStabilitySig:vector  ETV
vector 1680187  Network.dyn_peer[43]  lookupTimeSig:vector  ETV
vector 1680161  Network.dyn_peer[35]  lookupHopsSig:vector  ETV
vector 1680162  Network.dyn_peer[35]  lookupStabilitySig:vector  ETV
vector 1680163  Network.dyn_peer[35]  lookupTimeSig:vector  ETV
vector 1680251  Network.dyn_peer[65]  lookupHopsSig:vector  ETV
vector 1680252  Network.dyn_peer[65]  lookupStabilitySig:vector  ETV
vector 1680253  Network.dyn_peer[65]  lookupTimeSig:vector  ETV
vector 1680164  Network.dyn_peer[36]  lookupHopsSig:vector  ETV
vector 1680165  Network.dyn_peer[36]  lookupStabilitySig:vector  ETV
vector 1680166  Network.dyn_peer[36]  lookupTimeSig:vector  ETV
vector 1680233  Network.dyn_peer[59]  lookupHopsSig:vector  ETV
vector 1680234  Network.dyn_peer[59]  lookupStabilitySig:vector  ETV
vector 1680235  Network.dyn_peer[59]  lookupTimeSig:vector  ETV
vector 1680266  Network.dyn_peer[70]  lookupHopsSig:vector  ETV
vector 1680267  Network.dyn_peer[70]  lookupStabilitySig:vector  ETV
vector 1680268  Network.dyn_peer[70]  lookupTimeSig:vector  ETV
vector 1680209  Network.dyn_peer[51]  lookupHopsSig:vector  ETV
vector 1680210  Network.dyn_peer[51]  lookupStabilitySig:vector  ETV
vector 1680211  Network.dyn_peer[51]  lookupTimeSig:vector  ETV
vector 1680182  Network.dyn_peer[42]  lookupHopsSig:vector  ETV
vector 1680183  Network.dyn_peer[42]  lookupStabilitySig:vector  ETV
vector 1680184  Network.dyn_peer[42]  lookupTimeSig:vector  ETV
vector 1680224  Network.dyn_peer[56]  lookupHopsSig:vector  ETV
vector 1680225  Network.dyn_peer[56]  lookupStabilitySig:vector  ETV
vector 1680226  Network.dyn_peer[56]  lookupTimeSig:vector  ETV
vector 1680254  Network.dyn_peer[66]  lookupHopsSig:vector  ETV
vector 1680255  Network.dyn_peer[66]  lookupStabilitySig:vector  ETV
vector 1680256  Network.dyn_peer[66]  lookupTimeSig:vector  ETV
vector 1680284  Network.dyn_peer[76]  lookupHopsSig:vector  ETV
vector 1680285  Network.dyn_peer[76]  lookupStabilitySig:vector  ETV
vector 1680286  Network.dyn_peer[76]  lookupTimeSig:vector  ETV
vector 1680137  Network.dyn_peer[27]  lookupHopsSig:vector  ETV
vector 1680138  Network.dyn_peer[27]  lookupStabilitySig:vector  ETV
vector 1680139  Network.dyn_peer[27]  lookupTimeSig:vector  ETV
vector 1680140  Network.dyn_peer[28]  lookupHopsSig:vector  ETV
vector 1680141  Network.dyn_peer[28]  lookupStabilitySig:vector  ETV
vector 1680142  Network.dyn_peer[28]  lookupTimeSig:vector  ETV
vector 1680149  Network.dyn_peer[31]  lookupHopsSig:vector  ETV
vector 1680150  Network.dyn_peer[31]  lookupStabilitySig:vector  ETV
vector 1680151  Network.dyn_peer[31]  lookupTimeSig:vector  ETV
vector 1680338  Network.dyn_peer[94]  lookupHopsSig:vector  ETV
vector 1680339  Network.dyn_peer[94]  lookupStabilitySig:vector  ETV
vector 1680340  Network.dyn_peer[94]  lookupTimeSig:vector  ETV
vector 1680221  Network.dyn_peer[55]  lookupHopsSig:vector  ETV
vector 1680222  Network.dyn_peer[55]  lookupStabilitySig:vector  ETV
vector 1680223  Network.dyn_peer[55]  lookupTimeSig:vector  ETV
vector 1680197  Network.dyn_peer[47]  lookupHopsSig:vector  ETV
vector 1680198  Network.dyn_peer[47]  lookupStabilitySig:vector  ETV
vector 1680199  Network.dyn_peer[47]  lookupTimeSig:vector  ETV
vector 1680380  Network.dyn_peer[108]  lookupHopsSig:vector  ETV
vector 1680381  Network.dyn_peer[108]  lookupStabilitySig:vector  ETV
vector 1680382  Network.dyn_peer[108]  lookupTimeSig:vector  ETV
vector 1680329  Network.dyn_peer[91]  lookupHopsSig:vector  ETV
vector 1680330  Network.dyn_peer[91]  lookupStabilitySig:vector  ETV
vector 1680331  Network.dyn_peer[91]  lookupTimeSig:vector  ETV
vector 1680362  Network.dyn_peer[102]  lookupHopsSig:vector  ETV
vector 1680363  Network.dyn_peer[102]  lookupStabilitySig:vector  ETV
vector 1680364  Network.dyn_peer[102]  lookupTimeSig:vector  ETV
vector 1680305  Network.dyn_peer[83]  lookupHopsSig:vector  ETV
vector 1680306  Network.dyn_peer[83]  lookupStabilitySig:vector  ETV
vector 1680307  Network.dyn_peer[83]  lookupTimeSig:vector  ETV
vector 1680314  Network.dyn_peer[86]  lookupHopsSig:vector  ETV
vector 1680315  Network.dyn_peer[86]  lookupStabilitySig:vector  ETV
vector 1680316  Network.dyn_peer[86]  lookupTimeSig:vector  ETV
vector 1680383  Network.dyn_peer[109]  lookupHopsSig:vector  ETV
vector 1680384  Network.dyn_peer[109]  lookupStabilitySig:vector  ETV
vector 1680385  Network.dyn_peer[109]  lookupTimeSig:vector  ETV
vector 1680356  Network.dyn_peer[100]  lookupHopsSig:vector  ETV
vector 1680357  Network.dyn_peer[100]  lookupStabilitySig:vector  ETV
vector 1680358  Network.dyn_peer[100]  lookupTimeSig:vector  ETV
vector 1680272  Network.dyn_peer[72]  lookupHopsSig:vector  ETV
vector 1680273  Network.dyn_peer[72]  lookupStabilitySig:vector  ETV
vector 1680274  Network.dyn_peer[72]  lookupTimeSig:vector  ETV
vector 1680128  Network.dyn_peer[24]  lookupHopsSig:vector  ETV
vector 1680129  Network.dyn_peer[24]  lookupStabilitySig:vector  ETV
vector 1680130  Network.dyn_peer[24]  lookupTimeSig:vector  ETV
vector 1680398  Network.dyn_peer[114]  lookupHopsSig:vector  ETV
vector 1680399  Network.dyn_peer[114]  lookupStabilitySig:vector  ETV
vector 1680400  Network.dyn_peer[114]  lookupTimeSig:vector  ETV
vector 1680194  Network.dyn_peer[46]  lookupHopsSig:vector  ETV
vector 1680195  Network.dyn_peer[46]  lookupStabilitySig:vector  ETV
vector 1680196  Network.dyn_peer[46]  lookupTimeSig:vector  ETV
vector 1680410  Network.dyn_peer[118]  lookupHopsSig:vector  ETV
vector 1680411  Network.dyn_peer[118]  lookupStabilitySig:vector  ETV
vector 1680412  Network.dyn_peer[118]  lookupTimeSig:vector  ETV
vector 1680440  Network.dyn_peer[128]  lookupHopsSig:vector  ETV
vector 1680441  Network.dyn_peer[128]  lookupStabilitySig:vector  ETV
vector 1680442  Network.dyn_peer[128]  lookupTimeSig:vector  ETV
vector 1680263  Network.dyn_peer[69]  lookupHopsSig:vector  ETV
vector 1680264  Network.dyn_peer[69]  lookupStabilitySig:vector  ETV
vector 1680265  Network.dyn_peer[69]  lookupTimeSig:vector  ETV
vector 1680236  Network.dyn_peer[60]  lookupHopsSig:vector  ETV
vector 1680237  Network.dyn_peer[60]  lookupStabilitySig:vector  ETV
vector 1680238  Network.dyn_peer[60]  lookupTimeSig:vector  ETV
vector 1680335  Network.dyn_peer[93]  lookupHopsSig:vector  ETV
vector 1680336  Network.dyn_peer[93]  lookupStabilitySig:vector  ETV
vector 1680337  Network.dyn_peer[93]  lookupTimeSig:vector  ETV
vector 1680287  Network.dyn_peer[77]  lookupHopsSig:vector  ETV
vector 1680288  Network.dyn_peer[77]  lookupStabilitySig:vector  ETV
vector 1680289  Network.dyn_peer[77]  lookupTimeSig:vector  ETV
vector 1680389  Network.dyn_peer[111]  lookupHopsSig:vector  ETV
vector 1680390  Network.dyn_peer[111]  lookupStabilitySig:vector  ETV
vector 1680391  Network.dyn_peer[111]  lookupTimeSig:vector  ETV
vector 1680419  Network.dyn_peer[121]  lookupHopsSig:vector  ETV
vector 1680420  Network.dyn_peer[121]  lookupStabilitySig:vector  ETV
vector 1680421  Network.dyn_peer[121]  lookupTimeSig:vector  ETV
vector 1680227  Network.dyn_peer[57]  lookupHopsSig:vector  ETV
vector 1680228  Network.dyn_peer[57]  lookupStabilitySig:vector  ETV
vector 1680229  Network.dyn_peer[57]  lookupTimeSig:vector  ETV
vector 1680317  Network.dyn_peer[87]  lookupHopsSig:vector  ETV
vector 1680318  Network.dyn_peer[87]  lookupStabilitySig:vector  ETV
vector 1680319  Network.dyn_peer[87]  lookupTimeSig:vector  ETV
vector 1680422  Network.dyn_peer[122]  lookupHopsSig:vector  ETV
vector 1680423  Network.dyn_peer[122]  lookupStabilitySig:vector  ETV
vector 1680424  Network.dyn_peer[122]  lookupTimeSig:vector  ETV
vector 1680395  Network.dyn_peer[113]  lookupHopsSig:vector  ETV
vector 1680396  Network.dyn_peer[113]  lookupStabilitySig:vector  ETV
vector 1680397  Network.dyn_peer[113]  lookupTimeSig:vector  ETV
vector 1680278  Network.dyn_peer[74]  lookupHopsSig:vector  ETV
vector 1680279  Network.dyn_peer[74]  lookupStabilitySig:vector  ETV
vector 1680280  Network.dyn_peer[74]  lookupTimeSig:vector  ETV
vector 1680371  Network.dyn_peer[105]  lookupHopsSig:vector  ETV
vector 1680372  Network.dyn_peer[105]  lookupStabilitySig:vector  ETV
vector 1680373  Network.dyn_peer[105]  lookupTimeSig:vector  ETV
vector 1680374  Network.dyn_peer[106]  lookupHopsSig:vector  ETV
vector 1680375  Network.dyn_peer[106]  lookupStabilitySig:vector  ETV
vector 1680376  Network.dyn_peer[106]  lookupTimeSig:vector  ETV
vector 1680269  Network.dyn_peer[71]  lookupHopsSig:vector  ETV
vector 1680270  Network.dyn_peer[71]  lookupStabilitySig:vector  ETV
vector 1680271  Network.dyn_peer[71]  lookupTimeSig:vector  ETV
vector 1680401  Network.dyn_peer[115]  lookupHopsSig:vector  ETV
vector 1680402  Network.dyn_peer[115]  lookupStabilitySig:vector  ETV
vector 1680403  Network.dyn_peer[115]  lookupTimeSig:vector  ETV
vector 1680230  Network.dyn_peer[58]  lookupHopsSig:vector  ETV
vector 1680231  Network.dyn_peer[58]  lookupStabilitySig:vector  ETV
vector 1680232  Network.dyn_peer[58]  lookupTimeSig:vector  ETV
vector 1680470  Network.dyn_peer[138]  lookupHopsSig:vector  ETV
vector 1680471  Network.dyn_peer[138]  lookupStabilitySig:vector  ETV
vector 1680472  Network.dyn_peer[138]  lookupTimeSig:vector  ETV
vector 1680500  Network.dyn_peer[148]  lookupHopsSig:vector  ETV
vector 1680501  Network.dyn_peer[148]  lookupStabilitySig:vector  ETV
vector 1680502  Network.dyn_peer[148]  lookupTimeSig:vector  ETV
vector 1680296  Network.dyn_peer[80]  lookupHopsSig:vector  ETV
vector 1680297  Network.dyn_peer[80]  lookupStabilitySig:vector  ETV
vector 1680298  Network.dyn_peer[80]  lookupTimeSig:vector  ETV
vector 1680326  Network.dyn_peer[90]  lookupHopsSig:vector  ETV
vector 1680327  Network.dyn_peer[90]  lookupStabilitySig:vector  ETV
vector 1680328  Network.dyn_peer[90]  lookupTimeSig:vector  ETV
vector 1680446  Network.dyn_peer[130]  lookupHopsSig:vector  ETV
vector 1680447  Network.dyn_peer[130]  lookupStabilitySig:vector  ETV
vector 1680448  Network.dyn_peer[130]  lookupTimeSig:vector  ETV
vector 1680515  Network.dyn_peer[153]  lookupHopsSig:vector  ETV
vector 1680516  Network.dyn_peer[153]  lookupStabilitySig:vector  ETV
vector 1680517  Network.dyn_peer[153]  lookupTimeSig:vector  ETV
vector 1680308  Network.dyn_peer[84]  lookupHopsSig:vector  ETV
vector 1680309  Network.dyn_peer[84]  lookupStabilitySig:vector  ETV
vector 1680310  Network.dyn_peer[84]  lookupTimeSig:vector  ETV
vector 1680191  Network.dyn_peer[45]  lookupHopsSig:vector  ETV
vector 1680192  Network.dyn_peer[45]  lookupStabilitySig:vector  ETV
vector 1680193  Network.dyn_peer[45]  lookupTimeSig:vector  ETV
vector 1680491  Network.dyn_peer[145]  lookupHopsSig:vector  ETV
vector 1680492  Network.dyn_peer[145]  lookupStabilitySig:vector  ETV
vector 1680493  Network.dyn_peer[145]  lookupTimeSig:vector  ETV
vector 1680464  Network.dyn_peer[136]  lookupHopsSig:vector  ETV
vector 1680465  Network.dyn_peer[136]  lookupStabilitySig:vector  ETV
vector 1680466  Network.dyn_peer[136]  lookupTimeSig:vector  ETV
vector 1680320  Network.dyn_peer[88]  lookupHopsSig:vector  ETV
vector 1680321  Network.dyn_peer[88]  lookupStabilitySig:vector  ETV
vector 1680322  Network.dyn_peer[88]  lookupTimeSig:vector  ETV
vector 1680293  Network.dyn_peer[79]  lookupHopsSig:vector  ETV
vector 1680294  Network.dyn_peer[79]  lookupStabilitySig:vector  ETV
vector 1680295  Network.dyn_peer[79]  lookupTimeSig:vector  ETV
vector 1680473  Network.dyn_peer[139]  lookupHopsSig:vector  ETV
vector 1680474  Network.dyn_peer[139]  lookupStabilitySig:vector  ETV
vector 1680475  Network.dyn_peer[139]  lookupTimeSig:vector  ETV
vector 1680503  Network.dyn_peer[149]  lookupHopsSig:vector  ETV
vector 1680504  Network.dyn_peer[149]  lookupStabilitySig:vector  ETV
vector 1680505  Network.dyn_peer[149]  lookupTimeSig:vector  ETV
vector 1680416  Network.dyn_peer[120]  lookupHopsSig:vector  ETV
vector 1680417  Network.dyn_peer[120]  lookupStabilitySig:vector  ETV
vector 1680418  Network.dyn_peer[120]  lookupTimeSig:vector  ETV
vector 1680302  Network.dyn_peer[82]  lookupHopsSig:vector  ETV
vector 1680303  Network.dyn_peer[82]  lookupStabilitySig:vector  ETV
vector 1680304  Network.dyn_peer[82]  lookupTimeSig:vector  ETV
vector 1680482  Network.dyn_peer[142]  lookupHopsSig:vector  ETV
vector 1680483  Network.dyn_peer[142]  lookupStabilitySig:vector  ETV
vector 1680484  Network.dyn_peer[142]  lookupTimeSig:vector  ETV
vector 1680542  Network.dyn_peer[162]  lookupHopsSig:vector  ETV
vector 1680543  Network.dyn_peer[162]  lookupStabilitySig:vector  ETV
vector 1680544  Network.dyn_peer[162]  lookupTimeSig:vector  ETV
vector 1680365  Network.dyn_peer[103]  lookupHopsSig:vector  ETV
vector 1680366  Network.dyn_peer[103]  lookupStabilitySig:vector  ETV
vector 1680367  Network.dyn_peer[103]  lookupTimeSig:vector  ETV
vector 1680425  Network.dyn_peer[123]  lookupHopsSig:vector  ETV
vector 1680426  Network.dyn_peer[123]  lookupStabilitySig:vector  ETV
vector 1680427  Network.dyn_peer[123]  lookupTimeSig:vector  ETV
vector 1680575  Network.dyn_peer[173]  lookupHopsSig:vector  ETV
vector 1680576  Network.dyn_peer[173]  lookupStabilitySig:vector  ETV
vector 1680577  Network.dyn_peer[173]  lookupTimeSig:vector  ETV
vector 1680428  Network.dyn_peer[124]  lookupHopsSig:vector  ETV
vector 1680429  Network.dyn_peer[124]  lookupStabilitySig:vector  ETV
vector 1680430  Network.dyn_peer[124]  lookupTimeSig:vector  ETV
vector 1680281  Network.dyn_peer[75]  lookupHopsSig:vector  ETV
vector 1680282  Network.dyn_peer[75]  lookupStabilitySig:vector  ETV
vector 1680283  Network.dyn_peer[75]  lookupTimeSig:vector  ETV
vector 1680341  Network.dyn_peer[95]  lookupHopsSig:vector  ETV
vector 1680342  Network.dyn_peer[95]  lookupStabilitySig:vector  ETV
vector 1680343  Network.dyn_peer[95]  lookupTimeSig:vector  ETV
vector 1680404  Network.dyn_peer[116]  lookupHopsSig:vector  ETV
vector 1680405  Network.dyn_peer[116]  lookupStabilitySig:vector  ETV
vector 1680406  Network.dyn_peer[116]  lookupTimeSig:vector  ETV
vector 1680200  Network.dyn_peer[48]  lookupHopsSig:vector  ETV
vector 1680201  Network.dyn_peer[48]  lookupStabilitySig:vector  ETV
vector 1680202  Network.dyn_peer[48]  lookupTimeSig:vector  ETV
vector 1680260  Network.dyn_peer[68]  lookupHopsSig:vector  ETV
vector 1680261  Network.dyn_peer[68]  lookupStabilitySig:vector  ETV
vector 1680262  Network.dyn_peer[68]  lookupTimeSig:vector  ETV
vector 1680593  Network.dyn_peer[179]  lookupHopsSig:vector  ETV
vector 1680594  Network.dyn_peer[179]  lookupStabilitySig:vector  ETV
vector 1680595  Network.dyn_peer[179]  lookupTimeSig:vector  ETV
vector 1680359  Network.dyn_peer[101]  lookupHopsSig:vector  ETV
vector 1680360  Network.dyn_peer[101]  lookupStabilitySig:vector  ETV
vector 1680361  Network.dyn_peer[101]  lookupTimeSig:vector  ETV
vector 1680569  Network.dyn_peer[171]  lookupHopsSig:vector  ETV
vector 1680570  Network.dyn_peer[171]  lookupStabilitySig:vector  ETV
vector 1680571  Network.dyn_peer[171]  lookupTimeSig:vector  ETV
vector 1680275  Network.dyn_peer[73]  lookupHopsSig:vector  ETV
vector 1680276  Network.dyn_peer[73]  lookupStabilitySig:vector  ETV
vector 1680277  Network.dyn_peer[73]  lookupTimeSig:vector  ETV
vector 1680188  Network.dyn_peer[44]  lookupHopsSig:vector  ETV
vector 1680189  Network.dyn_peer[44]  lookupStabilitySig:vector  ETV
vector 1680190  Network.dyn_peer[44]  lookupTimeSig:vector  ETV
vector 1680431  Network.dyn_peer[125]  lookupHopsSig:vector  ETV
vector 1680432  Network.dyn_peer[125]  lookupStabilitySig:vector  ETV
vector 1680433  Network.dyn_peer[125]  lookupTimeSig:vector  ETV
vector 1680344  Network.dyn_peer[96]  lookupHopsSig:vector  ETV
vector 1680345  Network.dyn_peer[96]  lookupStabilitySig:vector  ETV
vector 1680346  Network.dyn_peer[96]  lookupTimeSig:vector  ETV
vector 1680347  Network.dyn_peer[97]  lookupHopsSig:vector  ETV
vector 1680348  Network.dyn_peer[97]  lookupStabilitySig:vector  ETV
vector 1680349  Network.dyn_peer[97]  lookupTimeSig:vector  ETV
vector 1680527  Network.dyn_peer[157]  lookupHopsSig:vector  ETV
vector 1680528  Network.dyn_peer[157]  lookupStabilitySig:vector  ETV
vector 1680529  Network.dyn_peer[157]  lookupTimeSig:vector  ETV
vector 1680323  Network.dyn_peer[89]  lookupHopsSig:vector  ETV
vector 1680324  Network.dyn_peer[89]  lookupStabilitySig:vector  ETV
vector 1680325  Network.dyn_peer[89]  lookupTimeSig:vector  ETV
vector 1680353  Network.dyn_peer[99]  lookupHopsSig:vector  ETV
vector 1680354  Network.dyn_peer[99]  lookupStabilitySig:vector  ETV
vector 1680355  Network.dyn_peer[99]  lookupTimeSig:vector  ETV
vector 1680596  Network.dyn_peer[180]  lookupHopsSig:vector  ETV
vector 1680597  Network.dyn_peer[180]  lookupStabilitySig:vector  ETV
vector 1680598  Network.dyn_peer[180]  lookupTimeSig:vector  ETV
vector 1680479  Network.dyn_peer[141]  lookupHopsSig:vector  ETV
vector 1680480  Network.dyn_peer[141]  lookupStabilitySig:vector  ETV
vector 1680481  Network.dyn_peer[141]  lookupTimeSig:vector  ETV
vector 1680512  Network.dyn_peer[152]  lookupHopsSig:vector  ETV
vector 1680513  Network.dyn_peer[152]  lookupStabilitySig:vector  ETV
vector 1680514  Network.dyn_peer[152]  lookupTimeSig:vector  ETV
vector 1680662  Network.dyn_peer[202]  lookupHopsSig:vector  ETV
vector 1680663  Network.dyn_peer[202]  lookupStabilitySig:vector  ETV
vector 1680664  Network.dyn_peer[202]  lookupTimeSig:vector  ETV
vector 1680584  Network.dyn_peer[176]  lookupHopsSig:vector  ETV
vector 1680585  Network.dyn_peer[176]  lookupStabilitySig:vector  ETV
vector 1680586  Network.dyn_peer[176]  lookupTimeSig:vector  ETV
vector 1680614  Network.dyn_peer[186]  lookupHopsSig:vector  ETV
vector 1680615  Network.dyn_peer[186]  lookupStabilitySig:vector  ETV
vector 1680616  Network.dyn_peer[186]  lookupTimeSig:vector  ETV
vector 1680644  Network.dyn_peer[196]  lookupHopsSig:vector  ETV
vector 1680645  Network.dyn_peer[196]  lookupStabilitySig:vector  ETV
vector 1680646  Network.dyn_peer[196]  lookupTimeSig:vector  ETV
vector 1680467  Network.dyn_peer[137]  lookupHopsSig:vector  ETV
vector 1680468  Network.dyn_peer[137]  lookupStabilitySig:vector  ETV
vector 1680469  Network.dyn_peer[137]  lookupTimeSig:vector  ETV
vector 1680413  Network.dyn_peer[119]  lookupHopsSig:vector  ETV
vector 1680414  Network.dyn_peer[119]  lookupStabilitySig:vector  ETV
vector 1680415  Network.dyn_peer[119]  lookupTimeSig:vector  ETV
vector 1680623  Network.dyn_peer[189]  lookupHopsSig:vector  ETV
vector 1680624  Network.dyn_peer[189]  lookupStabilitySig:vector  ETV
vector 1680625  Network.dyn_peer[189]  lookupTimeSig:vector  ETV
vector 1680239  Network.dyn_peer[61]  lookupHopsSig:vector  ETV
vector 1680240  Network.dyn_peer[61]  lookupStabilitySig:vector  ETV
vector 1680241  Network.dyn_peer[61]  lookupTimeSig:vector  ETV
vector 1680509  Network.dyn_peer[151]  lookupHopsSig:vector  ETV
vector 1680510  Network.dyn_peer[151]  lookupStabilitySig:vector  ETV
vector 1680511  Network.dyn_peer[151]  lookupTimeSig:vector  ETV
vector 1680332  Network.dyn_peer[92]  lookupHopsSig:vector  ETV
vector 1680333  Network.dyn_peer[92]  lookupStabilitySig:vector  ETV
vector 1680334  Network.dyn_peer[92]  lookupTimeSig:vector  ETV
vector 1680455  Network.dyn_peer[133]  lookupHopsSig:vector  ETV
vector 1680456  Network.dyn_peer[133]  lookupStabilitySig:vector  ETV
vector 1680457  Network.dyn_peer[133]  lookupTimeSig:vector  ETV
vector 1680248  Network.dyn_peer[64]  lookupHopsSig:vector  ETV
vector 1680249  Network.dyn_peer[64]  lookupStabilitySig:vector  ETV
vector 1680250  Network.dyn_peer[64]  lookupTimeSig:vector  ETV
vector 1680551  Network.dyn_peer[165]  lookupHopsSig:vector  ETV
vector 1680552  Network.dyn_peer[165]  lookupStabilitySig:vector  ETV
vector 1680553  Network.dyn_peer[165]  lookupTimeSig:vector  ETV
vector 1680530  Network.dyn_peer[158]  lookupHopsSig:vector  ETV
vector 1680531  Network.dyn_peer[158]  lookupStabilitySig:vector  ETV
vector 1680532  Network.dyn_peer[158]  lookupTimeSig:vector  ETV
vector 1680443  Network.dyn_peer[129]  lookupHopsSig:vector  ETV
vector 1680444  Network.dyn_peer[129]  lookupStabilitySig:vector  ETV
vector 1680445  Network.dyn_peer[129]  lookupTimeSig:vector  ETV
vector 1680533  Network.dyn_peer[159]  lookupHopsSig:vector  ETV
vector 1680534  Network.dyn_peer[159]  lookupStabilitySig:vector  ETV
vector 1680535  Network.dyn_peer[159]  lookupTimeSig:vector  ETV
vector 1680563  Network.dyn_peer[169]  lookupHopsSig:vector  ETV
vector 1680564  Network.dyn_peer[169]  lookupStabilitySig:vector  ETV
vector 1680565  Network.dyn_peer[169]  lookupTimeSig:vector  ETV
vector 1680386  Network.dyn_peer[110]  lookupHopsSig:vector  ETV
vector 1680387  Network.dyn_peer[110]  lookupStabilitySig:vector  ETV
vector 1680388  Network.dyn_peer[110]  lookupTimeSig:vector  ETV
vector 1680536  Network.dyn_peer[160]  lookupHopsSig:vector  ETV
vector 1680537  Network.dyn_peer[160]  lookupStabilitySig:vector  ETV
vector 1680538  Network.dyn_peer[160]  lookupTimeSig:vector  ETV
vector 1680566  Network.dyn_peer[170]  lookupHopsSig:vector  ETV
vector 1680567  Network.dyn_peer[170]  lookupStabilitySig:vector  ETV
vector 1680568  Network.dyn_peer[170]  lookupTimeSig:vector  ETV
vector 1680656  Network.dyn_peer[200]  lookupHopsSig:vector  ETV
vector 1680657  Network.dyn_peer[200]  lookupStabilitySig:vector  ETV
vector 1680658  Network.dyn_peer[200]  lookupTimeSig:vector  ETV
vector 1680545  Network.dyn_peer[163]  lookupHopsSig:vector  ETV
vector 1680546  Network.dyn_peer[163]  lookupStabilitySig:vector  ETV
vector 1680547  Network.dyn_peer[163]  lookupTimeSig:vector  ETV
vector 1680521  Network.dyn_peer[155]  lookupHopsSig:vector  ETV
vector 1680522  Network.dyn_peer[155]  lookupStabilitySig:vector  ETV
vector 1680523  Network.dyn_peer[155]  lookupTimeSig:vector  ETV
vector 1680434  Network.dyn_peer[126]  lookupHopsSig:vector  ETV
vector 1680435  Network.dyn_peer[126]  lookupStabilitySig:vector  ETV
vector 1680436  Network.dyn_peer[126]  lookupTimeSig:vector  ETV
vector 1680257  Network.dyn_peer[67]  lookupHopsSig:vector  ETV
vector 1680258  Network.dyn_peer[67]  lookupStabilitySig:vector  ETV