file 228425 1369933126                                          
version 2
run Stability2-27-20130528-01:24:13-24168
attr configname Stability2
attr datetime 20130528-01:24:13
attr experiment Stability2
attr inifile omnetpp.ini
attr iterationvars $0=30
attr iterationvars2 "$0=30, $repetition=7"
attr measurement $0=30
attr network Network
attr processid 24168
attr repetition 7
attr replication #7
attr resultdir results
attr runnumber 27
attr seedset 27
vector 840027  Network.churner  inGoingSizeSig:vector  ETV
840027	222076 6349 10 6467 20 23 301 0 254 40722 7137870
vector 810027  Network.dyn_peer[0]  lookupHopsSig:vector  ETV
810027	59221 157 46 9149 20.11 23.811497220216 6 1 14 28 252
vector 810028  Network.dyn_peer[0]  lookupStabilitySig:vector  ETV
810028	59378 245 46 9149 20.11 23.811497220216 6 0.16666668653488 0.9333333298564 4.3031215295196 3.4646065428786
vector 810029  Network.dyn_peer[0]  lookupTimeSig:vector  ETV
810029	59623 168 46 9149 20.11 23.811497220216 6 0.1 1.5 3.3 3.11
vector 810060  Network.dyn_peer[11]  lookupHopsSig:vector  ETV
810060	66476 293 56 19112 20.12 29.268567221714 10 0 26 72 1092
vector 810061  Network.dyn_peer[11]  lookupStabilitySig:vector  ETV
810061	66769 424 56 19112 20.12 29.268567221714 10 0.30000001192093 1 8.3450851868838 7.4406553329733
vector 810062  Network.dyn_peer[11]  lookupTimeSig:vector  ETV
810062	67193 309 56 19112 20.12 29.268567221714 10 0 2.7 8.1 12.45
vector 810033  Network.dyn_peer[2]  lookupHopsSig:vector  ETV
810033	60479 222 63 18065 20.13 28.083132293795 8 1 25 73 1141
vector 810034  Network.dyn_peer[2]  lookupStabilitySig:vector  ETV
810034	60701 338 63 18065 20.13 28.083132293795 8 0.30769228935242 0.95854922384024 6.1853603497148 5.1431799353877
vector 810035  Network.dyn_peer[2]  lookupTimeSig:vector  ETV
810035	61039 233 63 18065 20.13 28.083132293795 8 0.1 2.6 8 12.92
vector 810036  Network.dyn_peer[3]  lookupHopsSig:vector  ETV
810036	61272 160 71 15662 20.14 26.362657177751 6 1 34 58 1314
vector 810037  Network.dyn_peer[3]  lookupStabilitySig:vector  ETV
810037	61432 248 71 15662 20.14 26.362657177751 6 0.27272725105286 0.9637681171298 4.2803698591888 3.3902298733652
vector 810038  Network.dyn_peer[3]  lookupTimeSig:vector  ETV
810038	61680 171 71 15662 20.14 26.362657177751 6 0.1 3.5 6.3 14.33
vector 810051  Network.dyn_peer[8]  lookupHopsSig:vector  ETV
810051	64404 225 95 19285 20.19 29.509629041196 8 1 12 59 549
vector 810052  Network.dyn_peer[8]  lookupStabilitySig:vector  ETV
810052	64629 343 95 19285 20.19 29.509629041196 8 0.090909063816071 0.97233201563358 6.3745835497975 5.7059448582451
vector 810053  Network.dyn_peer[8]  lookupTimeSig:vector  ETV
810053	64972 236 95 19285 20.19 29.509629041196 8 0.1 1.3 6.6 6.72
vector 810084  Network.dyn_peer[19]  lookupHopsSig:vector  ETV
810084	70861 157 105 8922 20.2 23.740048944197 6 0 16 29 319
vector 810085  Network.dyn_peer[19]  lookupStabilitySig:vector  ETV
810085	71018 219 105 8922 20.2 23.740048944197 6 0.22222220897675 1 4.5690488293767 3.8568231130078
vector 810086  Network.dyn_peer[19]  lookupTimeSig:vector  ETV
810086	71237 166 105 8922 20.2 23.740048944197 6 0 1.7 3.4 3.82
vector 810066  Network.dyn_peer[13]  lookupHopsSig:vector  ETV
810066	67980 109 127 4568 20.24 22.444683757982 4 1 8 19 117
vector 810067  Network.dyn_peer[13]  lookupStabilitySig:vector  ETV
810067	68089 154 127 4568 20.24 22.444683757982 4 0 0.82352940738201 2.4130030870438 1.9414693756389
vector 810068  Network.dyn_peer[13]  lookupTimeSig:vector  ETV
810068	68243 117 127 4568 20.24 22.444683757982 4 0.1 0.9 2.2 1.56
vector 810039  Network.dyn_peer[4]  lookupHopsSig:vector  ETV
810039	61851 255 137 18367 20.25 28.383160676036 9 1 16 68 708
vector 810040  Network.dyn_peer[4]  lookupStabilitySig:vector  ETV
810040	62106 388 137 18367 20.25 28.383160676036 9 0.11111110448837 0.97233201563358 7.0292856078595 6.1092700396752
vector 810041  Network.dyn_peer[4]  lookupTimeSig:vector  ETV
810041	62494 271 137 18367 20.25 28.383160676036 9 0.2 1.7 7.6 8.48
vector 810099  Network.dyn_peer[24]  lookupHopsSig:vector  ETV
810099	74163 193 143 19605 20.25 30.022863990428 7 0 20 59 875
vector 810100  Network.dyn_peer[24]  lookupStabilitySig:vector  ETV
810100	74356 280 143 19605 20.25 30.022863990428 7 0.52631577849388 1 5.7313600890339 4.9013960781868
vector 810101  Network.dyn_peer[24]  lookupTimeSig:vector  ETV
810101	74636 200 143 19605 20.25 30.022863990428 7 0 2.1 6.5 9.99
vector 810045  Network.dyn_peer[6]  lookupHopsSig:vector  ETV
810045	63136 99 155 9034 20.27 23.774629661776 4 1 19 27 391
vector 810046  Network.dyn_peer[6]  lookupStabilitySig:vector  ETV
810046	63235 158 155 9034 20.27 23.774629661776 4 0.16666668653488 0.85714285075665 2.3770562857389 1.6898523168772
vector 810047  Network.dyn_peer[6]  lookupTimeSig:vector  ETV
810047	63393 104 155 9034 20.27 23.774629661776 4 0.2 2 3 4.44
vector 810078  Network.dyn_peer[17]  lookupHopsSig:vector  ETV
810078	69911 161 165 10682 20.28 24.321681485192 6 1 12 36 322
vector 810079  Network.dyn_peer[17]  lookupStabilitySig:vector  ETV
810079	70072 248 165 10682 20.28 24.321681485192 6 0.19999998807907 0.93548387289047 4.2169576883316 3.3769303097632
vector 810080  Network.dyn_peer[17]  lookupTimeSig:vector  ETV
810080	70320 171 165 10682 20.28 24.321681485192 6 0.1 1.3 4.1 3.97
vector 810108  Network.dyn_peer[27]  lookupHopsSig:vector  ETV
810108	76196 131 171 14523 20.28 25.79534495765 5 0 25 51 1079
vector 810109  Network.dyn_peer[27]  lookupStabilitySig:vector  ETV
810109	76327 180 171 14523 20.28 25.79534495765 5 0.47916668653488 1 4.2575921230018 3.8085426028235
vector 810110  Network.dyn_peer[27]  lookupTimeSig:vector  ETV
810110	76507 137 171 14523 20.28 25.79534495765 5 0 2.6 5.5 11.85
vector 810054  Network.dyn_peer[9]  lookupHopsSig:vector  ETV
810054	65208 159 183 14731 20.3 25.892878618925 6 2 28 50 902
vector 810055  Network.dyn_peer[9]  lookupStabilitySig:vector  ETV
810055	65367 248 183 14731 20.3 25.892878618925 6 0.16666668653488 0.98159509152174 3.9684091731906 3.0105823715877
vector 810056  Network.dyn_peer[9]  lookupTimeSig:vector  ETV
810056	65615 170 183 14731 20.3 25.892878618925 6 0.2 2.9 5.5 10.03
vector 810030  Network.dyn_peer[1]  lookupHopsSig:vector  ETV
810030	59791 191 204 16429 20.32 26.801961487798 7 1 16 52 626
vector 810031  Network.dyn_peer[1]  lookupStabilitySig:vector  ETV
810031	59982 294 204 16429 20.32 26.801961487798 7 0.39999997615814 0.95199999958277 5.1547282859683 4.0723703585736
vector 810032  Network.dyn_peer[1]  lookupTimeSig:vector  ETV
810032	60276 203 204 16429 20.32 26.801961487798 7 0.2 1.7 5.8 7.3
vector 810042  Network.dyn_peer[5]  lookupHopsSig:vector  ETV
810042	62765 103 233 14481 20.36 25.774020507556 4 3 23 54 938
vector 810043  Network.dyn_peer[5]  lookupStabilitySig:vector  ETV
810043	62868 160 233 14481 20.36 25.774020507556 4 0.36000001430511 0.84967319667339 2.3874509632587 1.6164828014008
vector 810044  Network.dyn_peer[5]  lookupTimeSig:vector  ETV
810044	63028 108 233 14481 20.36 25.774020507556 4 0.3 2.4 5.7 10.43
vector 810075  Network.dyn_peer[16]  lookupHopsSig:vector  ETV
810075	69336 159 243 13968 20.37 25.554136116 6 2 14 46 454
vector 810076  Network.dyn_peer[16]  lookupStabilitySig:vector  ETV
810076	69495 247 243 13968 20.37 25.554136116 6 0.28571426868439 0.95205479487777 4.2001664116979 3.2751035059294
vector 810077  Network.dyn_peer[16]  lookupTimeSig:vector  ETV
810077	69742 169 243 13968 20.37 25.554136116 6 0.2 1.5 5.1 5.47
vector 810057  Network.dyn_peer[10]  lookupHopsSig:vector  ETV
810057	65785 193 275 16213 20.41 26.667474088399 7 1 18 58 732
vector 810058  Network.dyn_peer[10]  lookupStabilitySig:vector  ETV
810058	65978 294 275 16213 20.41 26.667474088399 7 0.35294115543365 0.94999999925494 5.225818593055 4.292738599408
vector 810059  Network.dyn_peer[10]  lookupTimeSig:vector  ETV
810059	66272 204 275 16213 20.41 26.667474088399 7 0.2 1.9 6.4 8.48
vector 810087  Network.dyn_peer[20]  lookupHopsSig:vector  ETV
810087	71403 98 279 5512 20.41 22.722539679891 4 2 9 22 150
vector 810088  Network.dyn_peer[20]  lookupStabilitySig:vector  ETV
810088	71501 158 279 5512 20.41 22.722539679891 4 0.33333331346512 0.83720929920673 2.3614517003298 1.5212040583122
vector 810089  Network.dyn_peer[20]  lookupTimeSig:vector  ETV
810089	71659 104 279 5512 20.41 22.722539679891 4 0.2 1 2.5 1.93
vector 810147  Network.dyn_peer[40]  lookupHopsSig:vector  ETV
810147	84358 160 285 11292 20.41 24.538893887161 6 0 16 36 390
vector 810148  Network.dyn_peer[40]  lookupStabilitySig:vector  ETV
810148	84518 234 285 11292 20.41 24.538893887161 6 0.33333331346512 1 4.5594328893349 3.7743217863632
vector 810149  Network.dyn_peer[40]  lookupTimeSig:vector  ETV
810149	84752 167 285 11292 20.41 24.538893887161 6 0 1.7 4.1 4.67
vector 810093  Network.dyn_peer[22]  lookupHopsSig:vector  ETV
810093	72659 193 305 14476 20.43 25.772845615653 7 2 16 45 441
vector 810094  Network.dyn_peer[22]  lookupStabilitySig:vector  ETV
810094	72852 285 305 14476 20.43 25.772845615653 7 0.25 0.97385620884597 5.3402843866497 4.469273503623
vector 810095  Network.dyn_peer[22]  lookupTimeSig:vector  ETV
810095	73137 204 305 14476 20.43 25.772845615653 7 0.2 1.7 5.1 5.33
vector 810096  Network.dyn_peer[23]  lookupHopsSig:vector  ETV
810096	73341 230 317 12868 20.44 25.108556061754 8 1 10 37 267
vector 810097  Network.dyn_peer[23]  lookupStabilitySig:vector  ETV
810097	73571 349 317 12868 20.44 25.108556061754 8 0.59999999403954 0.92000000178814 6.2976255193353 5.080369067818
vector 810098  Network.dyn_peer[23]  lookupTimeSig:vector  ETV
810098	73920 243 317 12868 20.44 25.108556061754 8 0.2 1.1 4.4 3.44
vector 810072  Network.dyn_peer[15]  lookupHopsSig:vector  ETV
810072	68836 144 338 15648 20.46 26.358572043161 5 3 18 52 738
vector 810073  Network.dyn_peer[15]  lookupStabilitySig:vector  ETV
810073	68980 205 338 15648 20.46 26.358572043161 5 0.375 0.90055248886347 3.3984691351652 2.5988116118952
vector 810074  Network.dyn_peer[15]  lookupTimeSig:vector  ETV
810074	69185 151 338 15648 20.46 26.358572043161 5 0.3 1.9 5.6 8.4
vector 810102  Network.dyn_peer[25]  lookupHopsSig:vector  ETV
810102	74836 222 342 16569 20.46 26.897607072847 8 1 18 59 747
vector 810103  Network.dyn_peer[25]  lookupStabilitySig:vector  ETV
810103	75058 329 342 16569 20.46 26.897607072847 8 0.59999999403954 0.97087378613651 6.2247584294528 5.0070359502818
vector 810104  Network.dyn_peer[25]  lookupTimeSig:vector  ETV
810104	75387 236 342 16569 20.46 26.897607072847 8 0.2 1.9 6.6 8.68
vector 810132  Network.dyn_peer[35]  lookupHopsSig:vector  ETV
810132	79793 561 346 20643 20.46 33.873170261771 19 1 15 115 961
vector 810133  Network.dyn_peer[35]  lookupStabilitySig:vector  ETV
810133	80354 832 346 20643 20.46 33.873170261771 19 0.59999999403954 0.98201438784599 17.089615017176 15.589461385642
vector 810134  Network.dyn_peer[35]  lookupTimeSig:vector  ETV
810134	81186 594 346 20643 20.46 33.873170261771 19 0.1 1.6 13.3 12.07
vector 810048  Network.dyn_peer[7]  lookupHopsSig:vector  ETV
810048	63497 257 367 19785 20.48 30.348413065516 9 4 26 88 1280
vector 810049  Network.dyn_peer[7]  lookupStabilitySig:vector  ETV
810049	63754 378 367 19785 20.48 30.348413065516 9 0.19999998807907 0.96995708160102 6.7323225755245 5.6632863169685
vector 810050  Network.dyn_peer[7]  lookupTimeSig:vector  ETV
810050	64132 272 367 19785 20.48 30.348413065516 9 0.4 2.7 9.6 14.56
vector 810081  Network.dyn_peer[18]  lookupHopsSig:vector  ETV
810081	70491 102 378 10350 20.49 24.204876862142 4 3 14 37 413
vector 810082  Network.dyn_peer[18]  lookupStabilitySig:vector  ETV
810082	70593 160 378 10350 20.49 24.204876862142 4 0.39999997615814 0.90909090638161 2.4345810413361 1.6727822430231
vector 810083  Network.dyn_peer[18]  lookupTimeSig:vector  ETV
810083	70753 108 378 10350 20.49 24.204876862142 4 0.3 1.5 4 4.84
vector 810111  Network.dyn_peer[28]  lookupHopsSig:vector  ETV
810111	76644 99 382 8249 20.49 23.538602865675 4 2 10 20 138
vector 810112  Network.dyn_peer[28]  lookupStabilitySig:vector  ETV
810112	76743 145 382 8249 20.49 23.538602865675 4 0.5 0.83606557548046 2.6027322262526 1.7534500705499
vector 810113  Network.dyn_peer[28]  lookupTimeSig:vector  ETV
810113	76888 106 382 8249 20.49 23.538602865675 4 0.2 1.1 2.3 1.77
vector 810114  Network.dyn_peer[29]  lookupHopsSig:vector  ETV
810114	76994 192 392 16835 20.5 27.072729949053 7 2 22 60 856
vector 810115  Network.dyn_peer[29]  lookupStabilitySig:vector  ETV
810115	77186 285 392 16835 20.5 27.072729949053 7 0.36363637447357 0.98095238022506 5.3172405865043 4.3163905351835
vector 810116  Network.dyn_peer[29]  lookupTimeSig:vector  ETV
810116	77471 202 392 16835 20.5 27.072729949053 7 0.2 2.3 6.6 9.78
vector 810069  Network.dyn_peer[14]  lookupHopsSig:vector  ETV
810069	68360 132 438 12749 20.55 25.063065194952 5 4 23 45 667
vector 810070  Network.dyn_peer[14]  lookupStabilitySig:vector  ETV
810070	68492 205 438 12749 20.55 25.063065194952 5 0.19999998807907 0.9666666649282 3.5363924689591 2.9400593554527
vector 810071  Network.dyn_peer[14]  lookupTimeSig:vector  ETV
810071	68697 139 438 12749 20.55 25.063065194952 5 0.4 2.4 4.9 7.53
vector 810105  Network.dyn_peer[26]  lookupHopsSig:vector  ETV
810105	75623 157 461 8473 20.57 23.596967456849 6 1 7 28 160
vector 810106  Network.dyn_peer[26]  lookupStabilitySig:vector  ETV
810106	75780 247 461 8473 20.57 23.596967456849 6 0.39999997615814 0.98484848439693 4.3216561600566 3.4079538004739
vector 810107  Network.dyn_peer[26]  lookupTimeSig:vector  ETV
810107	76027 169 461 8473 20.57 23.596967456849 6 0.2 0.8 3.3 2.15
vector 810141  Network.dyn_peer[38]  lookupHopsSig:vector  ETV
810141	83599 110 482 8175 20.59 23.511466594389 4 2 10 28 234
vector 810142  Network.dyn_peer[38]  lookupStabilitySig:vector  ETV
810142	83709 169 482 8175 20.59 23.511466594389 4 0.47058820724487 0.87931034713984 2.7059961035848 1.9263234531523
vector 810143  Network.dyn_peer[38]  lookupTimeSig:vector  ETV
810143	83878 115 482 8175 20.59 23.511466594389 4 0.2 1.1 3.1 2.89
vector 810090  Network.dyn_peer[21]  lookupHopsSig:vector  ETV
810090	71763 254 514 16809 20.62 27.048545085429 9 1 14 60 536
vector 810091  Network.dyn_peer[21]  lookupStabilitySig:vector  ETV
810091	72017 372 514 16809 20.62 27.048545085429 9 0.19999998807907 0.9666666649282 6.8976001143455 5.822782058967
vector 810092  Network.dyn_peer[21]  lookupTimeSig:vector  ETV
810092	72389 270 514 16809 20.62 27.048545085429 9 0.2 1.5 6.8 6.56
vector 810123  Network.dyn_peer[32]  lookupHopsSig:vector  ETV
810123	78506 161 529 11017 20.63 24.445114748344 6 1 9 36 272
vector 810124  Network.dyn_peer[32]  lookupStabilitySig:vector  ETV
810124	78667 238 529 11017 20.63 24.445114748344 6 0.39999997615814 0.98947368375957 4.3975937571376 3.4925845657498
vector 810125  Network.dyn_peer[32]  lookupTimeSig:vector  ETV
810125	78905 169 529 11017 20.63 24.445114748344 6 0.2 1 4.1 3.43
vector 810135  Network.dyn_peer[36]  lookupHopsSig:vector  ETV
810135	81780 317 571 20168 20.67 31.229193274118 11 3 20 93 1057
vector 810136  Network.dyn_peer[36]  lookupStabilitySig:vector  ETV
810136	82097 478 571 20168 20.67 31.229193274118 11 0.39999997615814 0.97328244335949 9.0405533891171 7.8464334507556
vector 810137  Network.dyn_peer[36]  lookupTimeSig:vector  ETV
810137	82575 336 571 20168 20.67 31.229193274118 11 0.3 2.1 10.3 12.47
vector 810138  Network.dyn_peer[37]  lookupHopsSig:vector  ETV
810138	82911 191 586 17441 20.68 27.529978879863 7 1 34 65 1447
vector 810139  Network.dyn_peer[37]  lookupStabilitySig:vector  ETV
810139	83102 294 586 17441 20.68 27.529978879863 7 0.39999997615814 0.93478260934353 5.3278561607003 4.2388455398226
vector 810140  Network.dyn_peer[37]  lookupTimeSig:vector  ETV
810140	83396 203 586 17441 20.68 27.529978879863 7 0.2 3.5 7.1 15.77
vector 810168  Network.dyn_peer[47]  lookupHopsSig:vector  ETV
810168	89428 100 590 9711 20.68 23.993183205541 4 2 16 32 360
vector 810169  Network.dyn_peer[47]  lookupStabilitySig:vector  ETV
810169	89528 157 590 9711 20.68 23.993183205541 4 0.5294117629528 0.92499999701977 2.7406862527132 1.9668744896543
vector 810170  Network.dyn_peer[47]  lookupTimeSig:vector  ETV
810170	89685 107 590 9711 20.68 23.993183205541 4 0.2 1.7 3.5 4.23
vector 810156  Network.dyn_peer[43]  lookupHopsSig:vector  ETV
810156	86210 191 651 12213 20.74 24.864964906385 7 1 14 38 332
vector 810157  Network.dyn_peer[43]  lookupStabilitySig:vector  ETV
810157	86401 282 651 12213 20.74 24.864964906385 7 0.39999997615814 0.97777777723968 5.6008838135749 4.834389087915
vector 810158  Network.dyn_peer[43]  lookupTimeSig:vector  ETV
810158	86683 204 651 12213 20.74 24.864964906385 7 0.2 1.5 4.4 4.08
vector 810186  Network.dyn_peer[53]  lookupHopsSig:vector  ETV
810186	92604 134 655 16199 20.74 26.659502174508 5 2 18 57 809
vector 810187  Network.dyn_peer[53]  lookupStabilitySig:vector  ETV
810187	92738 206 655 16199 20.74 26.659502174508 5 0.52631577849388 0.93877550959587 3.6809824034572 2.8344162753697
vector 810188  Network.dyn_peer[53]  lookupTimeSig:vector  ETV
810188	92944 139 655 16199 20.74 26.659502174508 5 0.2 1.9 6.1 9.23
vector 810165  Network.dyn_peer[46]  lookupHopsSig:vector  ETV
810165	87861 440 701 20371 20.77 31.99061664823 15 1 13 92 770
vector 810166  Network.dyn_peer[46]  lookupStabilitySig:vector  ETV
810166	88301 660 701 20371 20.77 31.99061664823 15 0.39999997615814 0.98936170246452 13.376473273151 12.299651551444
vector 810167  Network.dyn_peer[46]  lookupTimeSig:vector  ETV
810167	88961 467 701 20371 20.77 31.99061664823 15 0.2 1.4 10.6 9.62
vector 810144  Network.dyn_peer[39]  lookupHopsSig:vector  ETV
810144	83993 101 741 12592 20.8 25.007550041861 4 4 16 43 541
vector 810145  Network.dyn_peer[39]  lookupStabilitySig:vector  ETV
810145	84094 158 741 12592 20.8 25.007550041861 4 0.19999998807907 0.91304347664118 2.5060990229249 1.8836966170818
vector 810146  Network.dyn_peer[39]  lookupTimeSig:vector  ETV
810146	84252 106 741 12592 20.8 25.007550041861 4 0.4 1.7 4.6 6.22
vector 810117  Network.dyn_peer[30]  lookupHopsSig:vector  ETV
810117	77673 81 757 8568 20.81 23.623106564399 3 5 14 31 365
vector 810118  Network.dyn_peer[30]  lookupStabilitySig:vector  ETV
810118	77754 108 757 8568 20.81 23.623106564399 3 0 0.7910447716713 1.3295063078403 0.91569265672203
vector 810119  Network.dyn_peer[30]  lookupTimeSig:vector  ETV
810119	77862 85 757 8568 20.81 23.623106564399 3 0.5 1.5 3.3 4.19
vector 810063  Network.dyn_peer[12]  lookupHopsSig:vector  ETV
810063	67502 132 786 11610 20.83 24.649866986311 5 4 16 41 437
vector 810064  Network.dyn_peer[12]  lookupStabilitySig:vector  ETV
810064	67634 206 786 11610 20.83 24.649866986311 5 -0.16666662693024 0.93442623317242 3.1448837816715 2.8688608487061
vector 810065  Network.dyn_peer[12]  lookupTimeSig:vector  ETV
810065	67840 140 786 11610 20.83 24.649866986311 5 0.5 1.7 4.5 5.09
vector 810201  Network.dyn_peer[58]  lookupHopsSig:vector  ETV
810201	94339 70 861 8119 20.89 23.496095522162 3 3 18 27 369
vector 810202  Network.dyn_peer[58]  lookupStabilitySig:vector  ETV
810202	94409 101 861 8119 20.89 23.496095522162 3 0.5 0.89473684132099 2.0034324973822 1.4210644169248
vector 810203  Network.dyn_peer[58]  lookupTimeSig:vector  ETV
810203	94510 75 861 8119 20.89 23.496095522162 3 0.3 1.9 2.9 4.19
vector 810174  Network.dyn_peer[49]  lookupHopsSig:vector  ETV
810174	90053 100 881 13860 20.9 25.505742805587 4 3 34 47 1217
vector 810175  Network.dyn_peer[49]  lookupStabilitySig:vector  ETV
810175	90153 159 881 13860 20.9 25.505742805587 4 0.33333331346512 0.95714285597205 2.6969941817224 2.0175333208697
vector 810176  Network.dyn_peer[49]  lookupTimeSig:vector  ETV
810176	90312 107 881 13860 20.9 25.505742805587 4 0.4 3.5 5 13.06
vector 810177  Network.dyn_peer[50]  lookupHopsSig:vector  ETV
810177	90419 164 900 16139 20.91 26.624056096754 6 4 19 53 631
vector 810178  Network.dyn_peer[50]  lookupStabilitySig:vector  ETV
810178	90583 252 900 16139 20.91 26.624056096754 6 0.33333331346512 0.97058823518455 4.5078258682042 3.686099794099
vector 810179  Network.dyn_peer[50]  lookupTimeSig:vector  ETV
810179	90835 170 900 16139 20.91 26.624056096754 6 0.4 2 5.8 7.34
vector 810231  Network.dyn_peer[68]  lookupHopsSig:vector  ETV
810231	99650 313 1014 16816 20.99 27.057328177839 11 1 11 53 341
vector 810232  Network.dyn_peer[68]  lookupStabilitySig:vector  ETV
810232	99963 463 1014 16816 20.99 27.057328177839 11 0.5714285671711 0.97237569093704 9.6846626158804 8.6707433234288
vector 810233  Network.dyn_peer[68]  lookupTimeSig:vector  ETV
810233	100426 332 1014 16816 20.99 27.057328177839 11 0.2 1.2 6.3 4.51
vector 810210  Network.dyn_peer[61]  lookupHopsSig:vector  ETV
810210	95196 385 1060 20637 21.02 33.832419286361 13 3 24 111 1299
vector 810211  Network.dyn_peer[61]  lookupStabilitySig:vector  ETV
810211	95581 575 1060 20637 21.02 33.832419286361 13 0.42857140302658 0.97979797981679 11.591197861359 10.676208384512
vector 810212  Network.dyn_peer[61]  lookupTimeSig:vector  ETV
810212	96156 405 1060 20637 21.02 33.832419286361 13 0.4 2.5 12.3 15.25
vector 810183  Network.dyn_peer[52]  lookupHopsSig:vector  ETV
810183	91582 288 1077 20120 21.03 31.122673538236 10 2 21 87 1071
vector 810184  Network.dyn_peer[52]  lookupStabilitySig:vector  ETV
810184	91870 433 1077 20120 21.03 31.122673538236 10 0.28571426868439 0.9898989899084 8.3779205894098 7.406724698295
vector 810185  Network.dyn_peer[52]  lookupTimeSig:vector  ETV
810185	92303 301 1077 20120 21.03 31.122673538236 10 0.3 2.2 9.6 12.44
vector 810129  Network.dyn_peer[34]  lookupHopsSig:vector  ETV
810129	79546 71 1106 8655 21.05 23.655683131234 3 3 21 31 499
vector 810130  Network.dyn_peer[34]  lookupStabilitySig:vector  ETV
810130	79617 100 1106 8655 21.05 23.655683131234 3 0 0.76923076808453 1.4604072421789 1.0694408929095
vector 810131  Network.dyn_peer[34]  lookupTimeSig:vector  ETV
810131	79717 76 1106 8655 21.05 23.655683131234 3 0.4 2.2 3.3 5.49
vector 810189  Network.dyn_peer[54]  lookupHopsSig:vector  ETV
810189	93083 103 1110 15968 21.05 26.525905897686 4 5 11 29 231
vector 810190  Network.dyn_peer[54]  lookupStabilitySig:vector  ETV
810190	93186 162 1110 15968 21.05 26.525905897686 4 0.28571426868439 0.96842105314136 2.8516195900738 2.3303378366037
vector 810191  Network.dyn_peer[54]  lookupTimeSig:vector  ETV
810191	93348 110 1110 15968 21.05 26.525905897686 4 0.5 1.2 3.2 2.82
vector 810162  Network.dyn_peer[45]  lookupHopsSig:vector  ETV
810162	87468 109 1126 7436 21.06 23.290224670072 4 5 9 25 167
vector 810163  Network.dyn_peer[45]  lookupStabilitySig:vector  ETV
810163	87577 169 1126 7436 21.06 23.290224670072 4 0.14285713434219 0.90196078270674 2.5475279316306 1.9647075482107
vector 810164  Network.dyn_peer[45]  lookupTimeSig:vector  ETV
810164	87746 115 1126 7436 21.06 23.290224670072 4 0.6 1 2.8 2.08
vector 810195  Network.dyn_peer[56]  lookupHopsSig:vector  ETV
810195	93706 70 1147 5335 21.07 22.679160475928 3 5 9 19 131
vector 810196  Network.dyn_peer[56]  lookupStabilitySig:vector  ETV
810196	93776 115 1147 5335 21.07 22.679160475928 3 0.28571426868439 0.77500000596046 1.7829364836216 1.2038625717078
vector 810197  Network.dyn_peer[56]  lookupTimeSig:vector  ETV
810197	93891 74 1147 5335 21.07 22.679160475928 3 0.5 1 2.1 1.61
vector 810258  Network.dyn_peer[77]  lookupHopsSig:vector  ETV
810258	105395 131 1173 10579 21.08 24.289116906992 5 3 9 31 229
vector 810259  Network.dyn_peer[77]  lookupStabilitySig:vector  ETV
810259	105526 194 1173 10579 21.08 24.289116906992 5 0.625 0.9666666649282 3.973333325237 3.2519263809926
vector 810260  Network.dyn_peer[77]  lookupTimeSig:vector  ETV
810260	105720 137 1173 10579 21.08 24.289116906992 5 0.3 1 3.5 2.89
vector 810321  Network.dyn_peer[98]  lookupHopsSig:vector  ETV
810321	115369 73 1192 14290 21.09 25.692506875812 3 1 24 45 977
vector 810322  Network.dyn_peer[98]  lookupStabilitySig:vector  ETV
810322	115442 105 1192 14290 21.09 25.692506875812 3 0.60784313082695 0.875 2.3239027261734 1.8424795146178
vector 810323  Network.dyn_peer[98]  lookupTimeSig:vector  ETV
810323	115547 77 1192 14290 21.09 25.692506875812 3 0.1 2.5 4.7 10.67
vector 810204  Network.dyn_peer[59]  lookupHopsSig:vector  ETV
810204	94585 68 1213 4432 21.1 22.404187125049 3 2 9 16 110
vector 810205  Network.dyn_peer[59]  lookupStabilitySig:vector  ETV
810205	94653 102 1213 4432 21.1 22.404187125049 3 0.375 0.93548387289047 1.9504838585854 1.4253550581276
vector 810206  Network.dyn_peer[59]  lookupTimeSig:vector  ETV
810206	94755 72 1213 4432 21.1 22.404187125049 3 0.3 1 1.8 1.34
vector 810237  Network.dyn_peer[70]  lookupHopsSig:vector  ETV
810237	101221 103 1230 12911 21.11 25.121621525393 4 4 21 41 617
vector 810238  Network.dyn_peer[70]  lookupStabilitySig:vector  ETV
810238	101324 147 1230 12911 21.11 25.121621525393 4 0.5 0.90399999916553 2.8994750976562 2.1860147321916
vector 810239  Network.dyn_peer[70]  lookupTimeSig:vector  ETV
810239	101471 109 1230 12911 21.11 25.121621525393 4 0.4 2.2 4.4 6.94
vector 810120  Network.dyn_peer[31]  lookupHopsSig:vector  ETV
810120	77947 162 1249 13725 21.12 25.449132469814 6 1 18 46 528
vector 810121  Network.dyn_peer[31]  lookupStabilitySig:vector  ETV
810121	78109 226 1249 13725 21.12 25.449132469814 6 0 0.97222222201526 4.2790218424052 3.6842457359139
vector 810122  Network.dyn_peer[31]  lookupTimeSig:vector  ETV
810122	78335 171 1249 13725 21.12 25.449132469814 6 0.2 1.9 5.1 6.09
vector 810246  Network.dyn_peer[73]  lookupHopsSig:vector  ETV
810246	102535 70 1281 9593 21.14 23.957693241471 3 4 8 17 105
vector 810247  Network.dyn_peer[73]  lookupStabilitySig:vector  ETV
810247	102605 92 1281 9593 21.14 23.957693241471 3 0.5 0.9375 2.1041666567326 1.573350681199
vector 810248  Network.dyn_peer[73]  lookupTimeSig:vector  ETV
810248	102697 76 1281 9593 21.14 23.957693241471 3 0.4 0.9 1.9 1.33
vector 810306  Network.dyn_peer[93]  lookupHopsSig:vector  ETV
810306	112795 191 1285 12755 21.14 25.065726541778 7 2 13 35 275
vector 810307  Network.dyn_peer[93]  lookupStabilitySig:vector  ETV
810307	112986 273 1285 12755 21.14 25.065726541778 7 0.75 0.97142857126892 6.0276258382946 5.2311044137783
vector 810308  Network.dyn_peer[93]  lookupTimeSig:vector  ETV
810308	113259 204 1285 12755 21.14 25.065726541778 7 0.2 1.4 4.1 3.47
vector 810252  Network.dyn_peer[75]  lookupHopsSig:vector  ETV
810252	103679 134 1317 13035 21.16 25.175669116206 5 4 14 40 422
vector 810253  Network.dyn_peer[75]  lookupStabilitySig:vector  ETV
810253	103813 205 1317 13035 21.16 25.175669116206 5 0.55555555224419 0.96062992140651 3.897647138685 3.1287308392183
vector 810254  Network.dyn_peer[75]  lookupTimeSig:vector  ETV
810254	104018 142 1317 13035 21.16 25.175669116206 5 0.4 1.5 4.4 4.98
vector 810228  Network.dyn_peer[67]  lookupHopsSig:vector  ETV
810228	98623 292 1352 20405 21.18 32.135776937445 10 3 27 96 1350
vector 810229  Network.dyn_peer[67]  lookupStabilitySig:vector  ETV
810229	98915 428 1352 20405 21.18 32.135776937445 10 0.44444441795349 0.98909090925008 8.7280098414048 7.8917300498223
vector 810230  Network.dyn_peer[67]  lookupTimeSig:vector  ETV
810230	99343 307 1352 20405 21.18 32.135776937445 10 0.4 2.8 10.5 15.41
vector 810171  Network.dyn_peer[48]  lookupHopsSig:vector  ETV
810171	89792 70 1371 3824 21.19 22.193582945687 3 3 7 15 83
vector 810172  Network.dyn_peer[48]  lookupStabilitySig:vector  ETV
810172	89862 115 1371 3824 21.19 22.193582945687 3 0.22222220897675 0.82352940738201 1.8605664372444 1.3915065873204
vector 810173  Network.dyn_peer[48]  lookupTimeSig:vector  ETV
810173	89977 76 1371 3824 21.19 22.193582945687 3 0.4 0.7 1.7 1.01
vector 810291  Network.dyn_peer[88]  lookupHopsSig:vector  ETV
810291	109852 134 1375 13373 21.19 25.306599259172 5 3 12 40 378
vector 810292  Network.dyn_peer[88]  lookupStabilitySig:vector  ETV
810292	109986 206 1375 13373 21.19 25.306599259172 5 0.66666665673256 0.92424242198467 4.0170454308391 3.2914980441303
vector 810293  Network.dyn_peer[88]  lookupTimeSig:vector  ETV
810293	110192 141 1375 13373 21.19 25.306599259172 5 0.3 1.3 4.4 4.56
vector 810243  Network.dyn_peer[72]  lookupHopsSig:vector  ETV
810243	102286 71 1450 7575 21.23 23.336364841233 3 5 13 24 230
vector 810244  Network.dyn_peer[72]  lookupStabilitySig:vector  ETV
810244	102357 102 1450 7575 21.23 23.336364841233 3 0.5 0.88679245114326 2.0534591078758 1.4808452826036
vector 810245  Network.dyn_peer[72]  lookupTimeSig:vector  ETV
810245	102459 76 1450 7575 21.23 23.336364841233 3 0.5 1.4 2.6 2.7
vector 810276  Network.dyn_peer[83]  lookupHopsSig:vector  ETV
810276	107355 134 1468 14993 21.24 26.013929372082 5 4 13 40 374
vector 810277  Network.dyn_peer[83]  lookupStabilitySig:vector  ETV
810277	107489 207 1468 14993 21.24 26.013929372082 5 0.59999999403954 0.94999999925494 4.0434333719313 3.3648305728262
vector 810278  Network.dyn_peer[83]  lookupTimeSig:vector  ETV
810278	107696 142 1468 14993 21.24 26.013929372082 5 0.4 1.4 4.4 4.5
vector 810159  Network.dyn_peer[44]  lookupHopsSig:vector  ETV
810159	86887 160 1487 8391 21.25 23.570268434761 6 3 8 26 132
vector 810160  Network.dyn_peer[44]  lookupStabilitySig:vector  ETV
810160	87047 249 1487 8391 21.25 23.570268434761 6 0.19999998807907 0.92063491791487 4.6682539507747 4.0387314545578
vector 810161  Network.dyn_peer[44]  lookupTimeSig:vector  ETV
810161	87296 172 1487 8391 21.25 23.570268434761 6 0.4 0.8 3.1 1.73
vector 810279  Network.dyn_peer[84]  lookupHopsSig:vector  ETV
810279	107838 70 1491 8305 21.25 23.55144882993 3 4 16 25 297
vector 810280  Network.dyn_peer[84]  lookupStabilitySig:vector  ETV
810280	107908 114 1491 8305 21.25 23.55144882993 3 0.59999999403954 0.91935484111309 2.1993548423052 1.667613326453
vector 810281  Network.dyn_peer[84]  lookupTimeSig:vector  ETV
810281	108022 75 1491 8305 21.25 23.55144882993 3 0.4 1.7 2.7 3.41
vector 810294  Network.dyn_peer[89]  lookupHopsSig:vector  ETV
810294	110333 318 1584 20273 21.3 31.545877847848 11 3 15 93 925