file 4565356 1369933130                                         
version 2
run Stability2-82-20130528-01:40:22-24168
attr configname Stability2
attr datetime 20130528-01:40:22
attr experiment Stability2
attr inifile omnetpp.ini
attr iterationvars $0=400
attr iterationvars2 "$0=400, $repetition=2"
attr measurement $0=400
attr network Network
attr processid 24168
attr repetition 2
attr replication #2
attr resultdir results
attr runnumber 82
attr seedset 82
vector 2490082  Network.churner  inGoingSizeSig:vector  ETV
2490082	4465416 99940 11 634995 20 60 4001 0 2021 4531467 6317245737
vector 2460082  Network.dyn_peer[0]  lookupHopsSig:vector  ETV
2460082	809125 397 18 399297 20.01 50.943824193006 13 0 67 265 10119
vector 2460083  Network.dyn_peer[0]  lookupStabilitySig:vector  ETV
2460083	809522 559 18 399297 20.01 50.943824193006 13 0.30000001192093 1 10.928160464391 9.5976063332281
vector 2460084  Network.dyn_peer[0]  lookupTimeSig:vector  ETV
2460084	810081 413 18 399297 20.01 50.943824193006 13 0 6.8 27.7 106.61
vector 2460091  Network.dyn_peer[3]  lookupHopsSig:vector  ETV
2460091	813526 498 31 614918 20.04 59.300782241333 16 0 60 261 7869
vector 2460092  Network.dyn_peer[3]  lookupStabilitySig:vector  ETV
2460092	814024 700 31 614918 20.04 59.300782241333 16 0.59999999403954 1 14.067193189636 12.701828982454
vector 2460093  Network.dyn_peer[3]  lookupTimeSig:vector  ETV
2460093	814724 516 31 614918 20.04 59.300782241333 16 0 6.1 27.6 84.06
vector 2460100  Network.dyn_peer[6]  lookupHopsSig:vector  ETV
2460100	818158 334 44 291570 20.07 45.933191612643 11 0 51 234 8432
vector 2460101  Network.dyn_peer[6]  lookupStabilitySig:vector  ETV
2460101	818492 468 44 291570 20.07 45.933191612643 11 0.59999999403954 1 9.6745275519788 8.6627001116506
vector 2460102  Network.dyn_peer[6]  lookupTimeSig:vector  ETV
2460102	818960 345 44 291570 20.07 45.933191612643 11 0 5.2 24.4 89.1
vector 2460106  Network.dyn_peer[8]  lookupHopsSig:vector  ETV
2460106	821651 615 54 1001274 20.09 77.379168173068 19 0 68 453 16935
vector 2460107  Network.dyn_peer[8]  lookupStabilitySig:vector  ETV
2460107	822266 859 54 1001274 20.09 77.379168173068 19 0.39999997615814 1 17.130842286162 15.978199773519
vector 2460108  Network.dyn_peer[8]  lookupTimeSig:vector  ETV
2460108	823125 636 54 1001274 20.09 77.379168173068 19 0 6.9 47.1 178.59
vector 2460115  Network.dyn_peer[11]  lookupHopsSig:vector  ETV
2460115	827444 401 70 229328 20.12 42.60600515558 13 0 56 162 4910
vector 2460116  Network.dyn_peer[11]  lookupStabilitySig:vector  ETV
2460116	827845 554 70 229328 20.12 42.60600515558 13 0.39999997615814 1 10.998975884169 9.6413882444883
vector 2460117  Network.dyn_peer[11]  lookupTimeSig:vector  ETV
2460117	828399 416 70 229328 20.12 42.60600515558 13 0 5.7 17.4 52.46
vector 2460094  Network.dyn_peer[4]  lookupHopsSig:vector  ETV
2460094	815240 439 85 600855 20.15 58.803076546257 14 1 131 293 20351
vector 2460095  Network.dyn_peer[4]  lookupStabilitySig:vector  ETV
2460095	815679 620 85 600855 20.15 58.803076546257 14 0.375 0.98458904121071 11.9600997651 10.535031545072
vector 2460096  Network.dyn_peer[4]  lookupTimeSig:vector  ETV
2460096	816299 460 85 600855 20.15 58.803076546257 14 0.1 13.2 30.6 209.48
vector 2460097  Network.dyn_peer[5]  lookupHopsSig:vector  ETV
2460097	816759 400 94 942513 20.16 73.240798997326 13 1 99 321 16363
vector 2460098  Network.dyn_peer[5]  lookupStabilitySig:vector  ETV
2460098	817159 586 94 942513 20.16 73.240798997326 13 0.33333331346512 0.98716216254979 11.06343233306 9.8570011430729
vector 2460099  Network.dyn_peer[5]  lookupTimeSig:vector  ETV
2460099	817745 413 94 942513 20.16 73.240798997326 13 0.1 10 33.3 170.15
vector 2460112  Network.dyn_peer[10]  lookupHopsSig:vector  ETV
2460112	825951 434 120 832906 20.21 67.608382273759 14 1 84 393 21035
vector 2460113  Network.dyn_peer[10]  lookupStabilitySig:vector  ETV
2460113	826385 607 120 832906 20.21 67.608382273759 14 0.5 0.98464163858443 12.029604476877 10.684648524041
vector 2460114  Network.dyn_peer[10]  lookupTimeSig:vector  ETV
2460114	826992 452 120 832906 20.21 67.608382273759 14 0.1 8.5 40.6 218.32
vector 2460145  Network.dyn_peer[21]  lookupHopsSig:vector  ETV
2460145	844075 400 132 945579 20.22 73.43060520508 13 0 56 326 13624
vector 2460146  Network.dyn_peer[21]  lookupStabilitySig:vector  ETV
2460146	844475 556 132 945579 20.22 73.43060520508 13 0.30000001192093 1 11.162112559192 10.034972965067
vector 2460147  Network.dyn_peer[21]  lookupTimeSig:vector  ETV
2460147	845031 414 132 945579 20.22 73.43060520508 13 0 5.7 33.8 142.88
vector 2460088  Network.dyn_peer[2]  lookupHopsSig:vector  ETV
2460088	811909 467 140 798685 20.23 66.139890517559 15 2 68 302 11042
vector 2460089  Network.dyn_peer[2]  lookupStabilitySig:vector  ETV
2460089	812376 665 140 798685 20.23 66.139890517559 15 0.42857140302658 0.98666666634381 12.824027110823 11.458692206817
vector 2460090  Network.dyn_peer[2]  lookupTimeSig:vector  ETV
2460090	813041 485 140 798685 20.23 66.139890517559 15 0.2 6.9 31.6 116.56
vector 2460103  Network.dyn_peer[7]  lookupHopsSig:vector  ETV
2460103	819305 674 171 1091967 20.28 90.218700027468 21 2 82 465 18891
vector 2460104  Network.dyn_peer[7]  lookupStabilitySig:vector  ETV
2460104	819979 976 171 1091967 20.28 90.218700027468 21 0.39999997615814 0.99882387532853 18.975515951053 17.697845915473
vector 2460105  Network.dyn_peer[7]  lookupTimeSig:vector  ETV
2460105	820955 696 171 1091967 20.28 90.218700027468 21 0.2 8.3 48.5 198.37
vector 2460085  Network.dyn_peer[1]  lookupHopsSig:vector  ETV
2460085	810494 404 197 584364 20.32 58.21498006014 13 3 82 293 11783
vector 2460086  Network.dyn_peer[1]  lookupStabilitySig:vector  ETV
2460086	810898 590 197 584364 20.32 58.21498006014 13 0.39999997615814 0.98670212738216 10.845473818481 9.5930954222413
vector 2460087  Network.dyn_peer[1]  lookupTimeSig:vector  ETV
2460087	811488 421 197 584364 20.32 58.21498006014 13 0.3 8.3 30.5 123.75
vector 2460148  Network.dyn_peer[22]  lookupHopsSig:vector  ETV
2460148	845445 302 208 413491 20.33 51.550266550322 10 1 79 176 7858
vector 2460149  Network.dyn_peer[22]  lookupStabilitySig:vector  ETV
2460149	845747 445 208 413491 20.33 51.550266550322 10 0.39999997615814 0.9772727265954 8.3142636604607 7.2190932871108
vector 2460150  Network.dyn_peer[22]  lookupTimeSig:vector  ETV
2460150	846192 312 208 413491 20.33 51.550266550322 10 0.1 8 18.5 82.17
vector 2460121  Network.dyn_peer[13]  lookupHopsSig:vector  ETV
2460121	830104 539 219 934361 20.34 72.751629187992 17 2 76 440 18926
vector 2460122  Network.dyn_peer[13]  lookupStabilitySig:vector  ETV
2460122	830643 780 219 934361 20.34 72.751629187992 17 0.5714285671711 0.98298596404493 14.791593605652 13.208249466898
vector 2460123  Network.dyn_peer[13]  lookupTimeSig:vector  ETV
2460123	831423 558 219 934361 20.34 72.751629187992 17 0.2 7.7 45.6 198.18
vector 2460157  Network.dyn_peer[25]  lookupHopsSig:vector  ETV
2460157	849787 370 240 699999 20.36 62.313969313592 12 1 57 242 7824
vector 2460158  Network.dyn_peer[25]  lookupStabilitySig:vector  ETV
2460158	850157 540 240 699999 20.36 62.313969313592 12 0.5714285671711 0.99671669793315 10.497321240837 9.428079470701
vector 2460159  Network.dyn_peer[25]  lookupTimeSig:vector  ETV
2460159	850697 384 240 699999 20.36 62.313969313592 12 0.1 5.8 25.3 83.17
vector 2460130  Network.dyn_peer[16]  lookupHopsSig:vector  ETV
2460130	835723 337 250 251038 20.37 43.803112940804 11 2 90 185 9465
vector 2460131  Network.dyn_peer[16]  lookupStabilitySig:vector  ETV
2460131	836060 495 250 251038 20.37 43.803112940804 11 0.44444441795349 0.99719363893382 9.6041783632245 8.7102537271658
vector 2460132  Network.dyn_peer[16]  lookupTimeSig:vector  ETV
2460132	836555 353 250 251038 20.37 43.803112940804 11 0.2 9.1 19.5 98.41
vector 2460133  Network.dyn_peer[17]  lookupHopsSig:vector  ETV
2460133	836908 457 261 1005493 20.38 77.729876600218 14 2 79 446 19298
vector 2460134  Network.dyn_peer[17]  lookupStabilitySig:vector  ETV
2460134	837365 652 261 1005493 20.38 77.729876600218 14 0.36666667461395 0.99225526629016 12.312006978784 11.277806368982
vector 2460135  Network.dyn_peer[17]  lookupTimeSig:vector  ETV
2460135	838017 464 261 1005493 20.38 77.729876600218 14 0.2 8 45.9 201.99
vector 2460139  Network.dyn_peer[19]  lookupHopsSig:vector  ETV
2460139	840583 428 279 513770 20.4 55.58912799039 14 1 84 258 11102
vector 2460140  Network.dyn_peer[19]  lookupStabilitySig:vector  ETV
2460140	841011 629 279 513770 20.4 55.58912799039 14 0.59999999403954 0.98861047811806 12.366572391242 11.089855353151
vector 2460141  Network.dyn_peer[19]  lookupTimeSig:vector  ETV
2460141	841640 448 279 513770 20.4 55.58912799039 14 0.2 8.5 27.1 116.27
vector 2460118  Network.dyn_peer[12]  lookupHopsSig:vector  ETV
2460118	828815 368 305 552099 20.43 57.035294278329 12 1 118 240 16150
vector 2460119  Network.dyn_peer[12]  lookupStabilitySig:vector  ETV
2460119	829183 541 305 552099 20.43 57.035294278329 12 0.29411762952805 0.99503037007526 10.075744169299 9.0634482658857
vector 2460120  Network.dyn_peer[12]  lookupTimeSig:vector  ETV
2460120	829724 380 305 552099 20.43 57.035294278329 12 0.2 11.9 25.1 166.35
vector 2460181  Network.dyn_peer[33]  lookupHopsSig:vector  ETV
2460181	863273 435 315 353482 20.44 48.909233673882 14 1 55 221 6597
vector 2460182  Network.dyn_peer[33]  lookupStabilitySig:vector  ETV
2460182	863708 635 315 353482 20.44 48.909233673882 14 0.33333331346512 0.99265785608441 12.443286194466 11.43139179971
vector 2460183  Network.dyn_peer[33]  lookupTimeSig:vector  ETV
2460183	864343 452 315 353482 20.44 48.909233673882 14 0.1 5.6 23.4 70.5
vector 2460127  Network.dyn_peer[15]  lookupHopsSig:vector  ETV
2460127	833510 637 335 915958 20.46 71.701230764782 20 3 38 410 11042
vector 2460128  Network.dyn_peer[15]  lookupStabilitySig:vector  ETV
2460128	834147 920 335 915958 20.46 71.701230764782 20 0.39999997615814 0.99788881069981 17.739152500173 16.291007620635
vector 2460129  Network.dyn_peer[15]  lookupTimeSig:vector  ETV
2460129	835067 656 335 915958 20.46 71.701230764782 20 0.3 3.9 42.9 118.75
vector 2460187  Network.dyn_peer[35]  lookupHopsSig:vector  ETV
2460187	866889 542 339 922469 20.46 72.062707521654 17 1 104 452 22298
vector 2460188  Network.dyn_peer[35]  lookupStabilitySig:vector  ETV
2460188	867431 780 339 922469 20.46 72.062707521654 17 0.35294115543365 0.99365197913721 15.25474390341 14.097952606908
vector 2460189  Network.dyn_peer[35]  lookupTimeSig:vector  ETV
2460189	868211 556 339 922469 20.46 72.062707521654 17 0.1 10.5 46.8 232.16
vector 2460136  Network.dyn_peer[18]  lookupHopsSig:vector  ETV
2460136	838481 601 365 875146 20.49 69.58566463396 19 1 64 349 11815
vector 2460137  Network.dyn_peer[18]  lookupStabilitySig:vector  ETV
2460137	839082 874 365 875146 20.49 69.58566463396 19 0.39999997615814 0.99441340798512 17.253992792685 16.04570621494
vector 2460138  Network.dyn_peer[18]  lookupTimeSig:vector  ETV
2460138	839956 627 365 875146 20.49 69.58566463396 19 0.2 6.5 36.7 125.25
vector 2460166  Network.dyn_peer[28]  lookupHopsSig:vector  ETV
2460166	854258 570 369 1016875 20.49 78.735616977945 18 1 84 375 15381
vector 2460167  Network.dyn_peer[28]  lookupStabilitySig:vector  ETV
2460167	854828 817 369 1016875 20.49 78.735616977945 18 0.59999999403954 0.99385665543377 15.987917829305 14.507625942121
vector 2460168  Network.dyn_peer[28]  lookupTimeSig:vector  ETV
2460168	855645 594 369 1016875 20.49 78.735616977945 18 0.2 8.5 39.2 161.44
vector 2460109  Network.dyn_peer[9]  lookupHopsSig:vector  ETV
2460109	823761 631 382 1062204 20.5 83.960592010444 20 3 87 553 25997
vector 2460110  Network.dyn_peer[9]  lookupStabilitySig:vector  ETV
2460110	824392 902 382 1062204 20.5 83.960592010444 20 0.19999998807907 0.99017109535635 17.516660134308 16.040273350514
vector 2460111  Network.dyn_peer[9]  lookupTimeSig:vector  ETV
2460111	825294 657 382 1062204 20.5 83.960592010444 20 0.4 8.8 57.2 271.14
vector 2460169  Network.dyn_peer[29]  lookupHopsSig:vector  ETV
2460169	856239 405 386 612092 20.5 59.20154952757 13 1 35 151 3595
vector 2460170  Network.dyn_peer[29]  lookupStabilitySig:vector  ETV
2460170	856644 596 386 612092 20.5 59.20154952757 13 0.59999999403954 0.99387755105272 11.651649654377 10.638276755952
vector 2460171  Network.dyn_peer[29]  lookupTimeSig:vector  ETV
2460171	857240 425 386 612092 20.5 59.20154952757 13 0.2 3.6 16.3 39.05
vector 2460142  Network.dyn_peer[20]  lookupHopsSig:vector  ETV
2460142	842088 568 400 710767 20.51 62.709494982036 18 3 89 338 13744
vector 2460143  Network.dyn_peer[20]  lookupStabilitySig:vector  ETV
2460143	842656 827 400 710767 20.51 62.709494982036 18 0.39999997615814 0.99711815570481 15.879428017186 14.523625717206
vector 2460144  Network.dyn_peer[20]  lookupTimeSig:vector  ETV
2460144	843483 592 400 710767 20.51 62.709494982036 18 0.3 9 35.5 144.31
vector 2460172  Network.dyn_peer[30]  lookupHopsSig:vector  ETV
2460172	857665 641 404 1055965 20.51 83.079738908887 20 2 97 419 18973
vector 2460173  Network.dyn_peer[30]  lookupStabilitySig:vector  ETV
2460173	858306 912 404 1055965 20.51 83.079738908887 20 0.5 0.99686073069461 17.93947835383 16.459829919907
vector 2460174  Network.dyn_peer[30]  lookupTimeSig:vector  ETV
2460174	859218 664 404 1055965 20.51 83.079738908887 20 0.2 9.8 43.8 198.26
vector 2460178  Network.dyn_peer[32]  lookupHopsSig:vector  ETV
2460178	861872 405 429 492791 20.53 54.778815662853 13 2 122 318 20064
vector 2460179  Network.dyn_peer[32]  lookupStabilitySig:vector  ETV
2460179	862277 578 429 492791 20.53 54.778815662853 13 0.59999999403954 0.97017268463969 11.254491694272 9.9393419418723
vector 2460180  Network.dyn_peer[32]  lookupTimeSig:vector  ETV
2460180	862855 418 429 492791 20.53 54.778815662853 13 0.2 12.3 33 207.08
vector 2460223  Network.dyn_peer[47]  lookupHopsSig:vector  ETV
2460223	886651 537 476 954723 20.58 74.010372172576 17 1 75 411 16445
vector 2460224  Network.dyn_peer[47]  lookupStabilitySig:vector  ETV
2460224	887188 779 476 954723 20.58 74.010372172576 17 0.52380952239037 0.99466310860589 15.238142440561 13.906446095949
vector 2460225  Network.dyn_peer[47]  lookupTimeSig:vector  ETV
2460225	887967 556 476 954723 20.58 74.010372172576 17 0.1 7.6 42.7 172.81
vector 2460154  Network.dyn_peer[24]  lookupHopsSig:vector  ETV
2460154	847819 567 547 818150 20.65 66.96267667007 18 1 51 328 9532
vector 2460155  Network.dyn_peer[24]  lookupStabilitySig:vector  ETV
2460155	848386 811 547 818150 20.65 66.96267667007 18 0.33333331346512 0.99360730592161 15.984139648266 14.758652098155
vector 2460156  Network.dyn_peer[24]  lookupTimeSig:vector  ETV
2460156	849197 590 547 818150 20.65 66.96267667007 18 0.2 5.2 34.5 101.97
vector 2460163  Network.dyn_peer[27]  lookupHopsSig:vector  ETV
2460163	852493 509 583 1109164 20.68 98.532717955568 16 3 80 400 16892
vector 2460164  Network.dyn_peer[27]  lookupStabilitySig:vector  ETV
2460164	853002 726 583 1109164 20.68 98.532717955568 16 0.42857140302658 0.992824873887 14.050696303137 12.742173046378
vector 2460165  Network.dyn_peer[27]  lookupTimeSig:vector  ETV
2460165	853728 530 583 1109164 20.68 98.532717955568 16 0.4 8.1 41.5 176.99
vector 2460226  Network.dyn_peer[48]  lookupHopsSig:vector  ETV
2460226	888523 443 597 901788 20.69 70.933705732478 14 2 80 408 20434
vector 2460227  Network.dyn_peer[48]  lookupStabilitySig:vector  ETV
2460227	888966 619 597 901788 20.69 70.933705732478 14 0.5 0.99112050700933 12.521223425865 11.454493541222
vector 2460228  Network.dyn_peer[48]  lookupTimeSig:vector  ETV
2460228	889585 458 597 901788 20.69 70.933705732478 14 0.2 8.1 42.1 212.59
vector 2460199  Network.dyn_peer[39]  lookupHopsSig:vector  ETV
2460199	874566 267 610 956555 20.7 74.129757736555 9 2 94 258 16814
vector 2460200  Network.dyn_peer[39]  lookupStabilitySig:vector  ETV
2460200	874833 374 610 956555 20.7 74.129757736555 9 0.5 0.97752808965743 7.5023395475 6.5153005985474
vector 2460201  Network.dyn_peer[39]  lookupTimeSig:vector  ETV
2460201	875207 281 610 956555 20.7 74.129757736555 9 0.3 9.5 26.6 173.32
vector 2460175  Network.dyn_peer[31]  lookupHopsSig:vector  ETV
2460175	859882 575 639 1084778 20.72 88.271162883254 18 2 110 476 26178
vector 2460176  Network.dyn_peer[31]  lookupStabilitySig:vector  ETV
2460176	860457 819 639 1084778 20.72 88.271162883254 18 0.42857140302658 0.99453738471493 16.131612718571 14.849124316809
vector 2460177  Network.dyn_peer[31]  lookupTimeSig:vector  ETV
2460177	861276 596 639 1084778 20.72 88.271162883254 18 0.3 11.1 49.3 271.39
vector 2460124  Network.dyn_peer[14]  lookupHopsSig:vector  ETV
2460124	831981 438 678 612993 20.75 59.232756078917 14 4 84 352 16474
vector 2460125  Network.dyn_peer[14]  lookupStabilitySig:vector  ETV
2460125	832419 638 678 612993 20.75 59.232756078917 14 0.14285713434219 0.99207746516913 11.865000043996 10.738777542822
vector 2460126  Network.dyn_peer[14]  lookupTimeSig:vector  ETV
2460126	833057 453 678 612993 20.75 59.232756078917 14 0.5 8.5 36.5 171.79
vector 2460304  Network.dyn_peer[74]  lookupHopsSig:vector  ETV
2460304	930318 473 684 771744 20.75 65.03959336439 15 0 92 363 15905
vector 2460305  Network.dyn_peer[74]  lookupStabilitySig:vector  ETV
2460305	930791 671 684 771744 20.75 65.03959336439 15 0.47619044780731 1 13.753836221294 12.867123007079
vector 2460306  Network.dyn_peer[74]  lookupTimeSig:vector  ETV
2460306	931462 489 684 771744 20.75 65.03959336439 15 0 9.3 37.7 166.45
vector 2460256  Network.dyn_peer[58]  lookupHopsSig:vector  ETV
2460256	904935 574 731 1040216 20.79 81.122548653017 18 2 113 544 29812
vector 2460257  Network.dyn_peer[58]  lookupStabilitySig:vector  ETV
2460257	905509 828 731 1040216 20.79 81.122548653017 18 0.69230768084526 0.99256505584344 16.253069873434 14.85498387937
vector 2460258  Network.dyn_peer[58]  lookupTimeSig:vector  ETV
2460258	906337 594 731 1040216 20.79 81.122548653017 18 0.2 11.4 56.1 309.13
vector 2460202  Network.dyn_peer[40]  lookupHopsSig:vector  ETV
2460202	875488 377 756 674615 20.81 61.404323329116 12 1 53 209 6525
vector 2460203  Network.dyn_peer[40]  lookupStabilitySig:vector  ETV
2460203	875865 518 756 674615 20.81 61.404323329116 12 0.42857140302658 0.99227799242362 10.650728795212 9.7416853331114
vector 2460204  Network.dyn_peer[40]  lookupTimeSig:vector  ETV
2460204	876383 390 756 674615 20.81 61.404323329116 12 0.2 5.4 22 69.46
vector 2460151  Network.dyn_peer[23]  lookupHopsSig:vector  ETV
2460151	846504 378 796 595907 20.84 58.627768676963 12 2 62 224 7098
vector 2460152  Network.dyn_peer[23]  lookupStabilitySig:vector  ETV
2460152	846882 549 796 595907 20.84 58.627768676963 12 0.14285713434219 0.98372703418136 9.9640271309763 8.9588858121925
vector 2460153  Network.dyn_peer[23]  lookupTimeSig:vector  ETV
2460153	847431 388 796 595907 20.84 58.627768676963 12 0.3 6.3 23.5 75.45
vector 2460244  Network.dyn_peer[54]  lookupHopsSig:vector  ETV
2460244	899388 270 813 444620 20.85 52.849378093859 9 3 71 167 7181
vector 2460245  Network.dyn_peer[54]  lookupStabilitySig:vector  ETV
2460245	899658 400 813 444620 20.85 52.849378093859 9 0.5714285671711 0.98831263650209 7.7739872792736 6.8626161073725
vector 2460246  Network.dyn_peer[54]  lookupTimeSig:vector  ETV
2460246	900058 284 813 444620 20.85 52.849378093859 9 0.3 7.2 17.5 75.17
vector 2460190  Network.dyn_peer[36]  lookupHopsSig:vector  ETV
2460190	868767 541 843 712359 20.87 62.766739399438 17 5 67 346 10830
vector 2460191  Network.dyn_peer[36]  lookupStabilitySig:vector  ETV
2460191	869308 782 843 712359 20.87 62.766739399438 17 0.28571426868439 0.98670919705182 15.001810087822 13.798453950354
vector 2460192  Network.dyn_peer[36]  lookupTimeSig:vector  ETV
2460192	870090 558 843 712359 20.87 62.766739399438 17 0.5 6.8 36.2 115.28
vector 2460250  Network.dyn_peer[56]  lookupHopsSig:vector  ETV
2460250	902344 309 847 747489 20.87 64.090065439925 10 3 83 331 17073
vector 2460251  Network.dyn_peer[56]  lookupStabilitySig:vector  ETV
2460251	902653 437 847 747489 20.87 64.090065439925 10 0.5714285671711 0.98698994703591 8.4960111342371 7.4590464806726
vector 2460252  Network.dyn_peer[56]  lookupTimeSig:vector  ETV
2460252	903090 319 847 747489 20.87 64.090065439925 10 0.3 8.4 34 177.38
vector 2460196  Network.dyn_peer[38]  lookupHopsSig:vector  ETV
2460196	872993 454 876 993314 20.89 76.741454103707 14 5 57 382 13434
vector 2460197  Network.dyn_peer[38]  lookupStabilitySig:vector  ETV
2460197	873447 651 876 993314 20.89 76.741454103707 14 0.28571426868439 0.99274905445054 12.218304167967 11.206710683508
vector 2460198  Network.dyn_peer[38]  lookupTimeSig:vector  ETV
2460198	874098 468 876 993314 20.89 76.741454103707 14 0.5 5.8 39.5 142.01
vector 2460184  Network.dyn_peer[34]  lookupHopsSig:vector  ETV
2460184	864795 606 962 809144 20.95 66.575248661387 19 6 43 393 10329
vector 2460185  Network.dyn_peer[34]  lookupStabilitySig:vector  ETV
2460185	865401 862 962 809144 20.95 66.575248661387 19 0.25 0.99007092230022 17.018847432919 15.852765672554
vector 2460186  Network.dyn_peer[34]  lookupTimeSig:vector  ETV
2460186	866263 626 962 809144 20.95 66.575248661387 19 0.6 4.4 41.1 111.21
vector 2460220  Network.dyn_peer[46]  lookupHopsSig:vector  ETV
2460220	884908 503 998 730860 20.97 63.455355594619 16 2 92 289 12589
vector 2460221  Network.dyn_peer[46]  lookupStabilitySig:vector  ETV
2460221	885411 718 998 730860 20.97 63.455355594619 16 0.5 0.99328214954585 14.668501641601 13.774596461172
vector 2460222  Network.dyn_peer[46]  lookupTimeSig:vector  ETV
2460222	886129 522 998 730860 20.97 63.455355594619 16 0.3 9.3 30.4 131.72
vector 2460280  Network.dyn_peer[66]  lookupHopsSig:vector  ETV
2460280	918795 405 1002 823546 20.97 67.198177465364 13 3 84 373 18421
vector 2460281  Network.dyn_peer[66]  lookupStabilitySig:vector  ETV
2460281	919200 589 1002 823546 20.97 67.198177465364 13 0.64705881476402 0.98008385673165 11.447969984263 10.231368170562
vector 2460282  Network.dyn_peer[66]  lookupTimeSig:vector  ETV
2460282	919789 421 1002 823546 20.97 67.198177465364 13 0.3 8.5 38.5 191.73
vector 2460355  Network.dyn_peer[91]  lookupHopsSig:vector  ETV
2460355	956837 501 1074 989307 21.02 76.431049017731 16 1 123 377 24575
vector 2460356  Network.dyn_peer[91]  lookupStabilitySig:vector  ETV
2460356	957338 723 1074 989307 21.02 76.431049017731 16 0.64705881476402 0.99281723843887 14.862610933837 13.913473629481
vector 2460357  Network.dyn_peer[91]  lookupTimeSig:vector  ETV
2460357	958061 518 1074 989307 21.02 76.431049017731 16 0.1 12.4 39.2 253.42
vector 2460331  Network.dyn_peer[83]  lookupHopsSig:vector  ETV
2460331	944230 643 1111 1072235 21.04 85.622414050227 20 1 141 539 32707
vector 2460332  Network.dyn_peer[83]  lookupStabilitySig:vector  ETV
2460332	944873 928 1111 1072235 21.04 85.622414050227 20 0.64705881476402 0.99584199581295 18.706135558896 17.666743285568
vector 2460333  Network.dyn_peer[83]  lookupTimeSig:vector  ETV
2460333	945801 664 1111 1072235 21.04 85.622414050227 20 0.2 14.2 55.8 338
vector 2460247  Network.dyn_peer[55]  lookupHopsSig:vector  ETV
2460247	900342 578 1144 800965 21.06 66.232358672138 18 2 34 326 7198
vector 2460248  Network.dyn_peer[55]  lookupStabilitySig:vector  ETV
2460248	900920 830 1144 800965 21.06 66.232358672138 18 0.54545453190804 0.99804305285215 16.573979839683 15.573540442583
vector 2460249  Network.dyn_peer[55]  lookupTimeSig:vector  ETV
2460249	901750 594 1144 800965 21.06 66.232358672138 18 0.3 3.5 34.3 78.57
vector 2460283  Network.dyn_peer[67]  lookupHopsSig:vector  ETV
2460283	920210 480 1172 382813 21.08 50.223629472494 15 4 29 253 4839
vector 2460284  Network.dyn_peer[67]  lookupStabilitySig:vector  ETV
2460284	920690 690 1172 382813 21.08 50.223629472494 15 0.63333332538605 0.98742665536702 13.568556479178 12.483480120003
vector 2460285  Network.dyn_peer[67]  lookupTimeSig:vector  ETV
2460285	921380 490 1172 382813 21.08 50.223629472494 15 0.4 3 26.7 53.51
vector 2460403  Network.dyn_peer[107]  lookupHopsSig:vector  ETV
2460403	980642 407 1178 679188 21.08 61.566376459716 13 0 82 322 12978
vector 2460404  Network.dyn_peer[107]  lookupStabilitySig:vector  ETV
2460404	981049 576 1178 679188 21.08 61.566376459716 13 0.61764705181122 1 11.92819446791 11.078296847527
vector 2460405  Network.dyn_peer[107]  lookupTimeSig:vector  ETV
2460405	981625 416 1178 679188 21.08 61.566376459716 13 0 8.3 33.4 136.34
vector 2460289  Network.dyn_peer[69]  lookupHopsSig:vector  ETV
2460289	923664 446 1208 1068790 21.1 85.009897376024 14 4 66 371 13629
vector 2460290  Network.dyn_peer[69]  lookupStabilitySig:vector  ETV
2460290	924110 644 1208 1068790 21.1 85.009897376024 14 0.60975611209869 0.99190283380449 12.801323758438 11.903487296604
vector 2460291  Network.dyn_peer[69]  lookupTimeSig:vector  ETV
2460291	924754 462 1208 1068790 21.1 85.009897376024 14 0.4 6.7 38.4 143.76
vector 2460232  Network.dyn_peer[50]  lookupHopsSig:vector  ETV
2460232	892183 565 1226 893696 21.11 70.514976831164 18 2 73 400 15522
vector 2460233  Network.dyn_peer[50]  lookupStabilitySig:vector  ETV
2460233	892748 799 1226 893696 21.11 70.514976831164 18 0.5 0.98362147435546 16.305463120341 15.023289832197
vector 2460234  Network.dyn_peer[50]  lookupTimeSig:vector  ETV
2460234	893547 587 1226 893696 21.11 70.514976831164 18 0.3 7.4 41.7 163.27
vector 2460352  Network.dyn_peer[90]  lookupHopsSig:vector  ETV
2460352	954869 572 1230 681357 21.11 61.644453336704 18 2 51 389 12097
vector 2460353  Network.dyn_peer[90]  lookupStabilitySig:vector  ETV
2460353	955441 805 1230 681357 21.11 61.644453336704 18 0.625 0.99506781762466 16.757994291838 15.753857541417
vector 2460354  Network.dyn_peer[90]  lookupTimeSig:vector  ETV
2460354	956246 591 1230 681357 21.11 61.644453336704 18 0.2 5.2 40.6 128.88
vector 2460241  Network.dyn_peer[53]  lookupHopsSig:vector  ETV
2460241	898234 334 1280 198511 21.14 40.822204893587 11 1 39 140 3252
vector 2460242  Network.dyn_peer[53]  lookupStabilitySig:vector  ETV
2460242	898568 471 1280 198511 21.14 40.822204893587 11 0.5 0.99647887330502 9.6360945673659 8.6984439765348
vector 2460243  Network.dyn_peer[53]  lookupTimeSig:vector  ETV
2460243	899039 349 1280 198511 21.14 40.822204893587 11 0.2 4 15 35.3
vector 2460361  Network.dyn_peer[93]  lookupHopsSig:vector  ETV
2460361	960273 307 1284 846699 21.14 68.231981752098 10 2 94 239 12931
vector 2460362  Network.dyn_peer[93]  lookupStabilitySig:vector  ETV
2460362	960580 450 1284 846699 21.14 68.231981752098 10 0.70588234066963 0.98473967704922 9.0619802428409 8.3142068955125
vector 2460363  Network.dyn_peer[93]  lookupTimeSig:vector  ETV
2460363	961030 319 1284 846699 21.14 68.231981752098 10 0.2 9.5 24.8 134.14
vector 2460217  Network.dyn_peer[45]  lookupHopsSig:vector  ETV
2460217	884181 209 1316 723076 21.16 63.164677057219 7 3 52 180 7060
vector 2460218  Network.dyn_peer[45]  lookupStabilitySig:vector  ETV
2460218	884390 299 1316 723076 21.16 63.164677057219 7 0.41666668653488 0.98095238022506 5.8593194652349 5.1575668976844
vector 2460219  Network.dyn_peer[45]  lookupTimeSig:vector  ETV
2460219	884689 219 1316 723076 21.16 63.164677057219 7 0.4 5.3 18.6 74.12
vector 2460160  Network.dyn_peer[26]  lookupHopsSig:vector  ETV
2460160	851081 409 1334 709362 21.17 62.656514839107 13 3 56 305 10729
vector 2460161  Network.dyn_peer[26]  lookupStabilitySig:vector  ETV
2460161	851490 580 1334 709362 21.17 62.656514839107 13 0.25 0.99569892464206 11.286282609683 10.316148882099
vector 2460162  Network.dyn_peer[26]  lookupTimeSig:vector  ETV
2460162	852070 423 1334 709362 21.17 62.656514839107 13 0.4 5.7 31.7 113.33
vector 2460253  Network.dyn_peer[57]  lookupHopsSig:vector  ETV
2460253	903409 440 1350 420052 21.18 51.828329072775 14 1 50 248 7676
vector 2460254  Network.dyn_peer[57]  lookupStabilitySig:vector  ETV
2460254	903849 627 1350 420052 21.18 51.828329072775 14 0.5 0.99925317399902 12.56155361858 11.517761103117
vector 2460255  Network.dyn_peer[57]  lookupTimeSig:vector  ETV
2460255	904476 459 1350 420052 21.18 51.828329072775 14 0.2 5.1 26.1 81.73
vector 2460313  Network.dyn_peer[77]  lookupHopsSig:vector  ETV
2460313	935245 413 1354 923906 21.18 72.143765977382 13 4 108 427 27461
vector 2460314  Network.dyn_peer[77]  lookupStabilitySig:vector  ETV
2460314	935658 594 1354 923906 21.18 72.143765977382 13 0.65217390656471 0.99333826778457 11.688403750304 10.688618830007
vector 2460315  Network.dyn_peer[77]  lookupTimeSig:vector  ETV
2460315	936252 426 1354 923906 21.18 72.143765977382 13 0.4 10.9 43.9 283.19
vector 2460439  Network.dyn_peer[119]  lookupHopsSig:vector  ETV
2460439	996988 268 1390 776306 21.2 65.221582102044 9 0 127 241 19261
vector 2460440  Network.dyn_peer[119]  lookupStabilitySig:vector  ETV
2460440	997256 383 1390 776306 21.2 65.221582102044 9 0.68181818723679 1 8.0407610582188 7.2814716644157
vector 2460441  Network.dyn_peer[119]  lookupTimeSig:vector  ETV
2460441	997639 280 1390 776306 21.2 65.221582102044 9 0 12.8 24.9 197.51
vector 2460262  Network.dyn_peer[60]  lookupHopsSig:vector  ETV
2460262	908804 640 1406 1064136 21.21 84.255675665457 20 2 74 556 27714
vector 2460263  Network.dyn_peer[60]  lookupStabilitySig:vector  ETV
2460263	909444 915 1406 1064136 21.21 84.255675665457 20 0.5 0.99870256241411 18.483981438098 17.39762967868
vector 2460264  Network.dyn_peer[60]  lookupTimeSig:vector  ETV
2460264	910359 665 1406 1064136 21.21 84.255675665457 20 0.3 7.5 57.5 288.33
vector 2460292  Network.dyn_peer[70]  lookupHopsSig:vector  ETV
2460292	925216 308 1410 674075 21.21 61.385413229926 10 1 54 189 6037
vector 2460293  Network.dyn_peer[70]  lookupStabilitySig:vector  ETV
2460293	925524 451 1410 674075 21.21 61.385413229926 10 0.58333334326744 0.99636363633908 8.9811698598787 8.2719922850178
vector 2460294  Network.dyn_peer[70]  lookupTimeSig:vector  ETV
2460294	925975 316 1410 674075 21.21 61.385413229926 10 0.2 5.5 19.8 64.14
vector 2460385  Network.dyn_peer[101]  lookupHopsSig:vector  ETV
2460385	972435 404 1431 985373 21.22 76.130819197696 13 2 56 281 10035