file 316734 1369933126                                          
version 2
run Stability2-33-20130528-01:24:55-24168
attr configname Stability2
attr datetime 20130528-01:24:55
attr experiment Stability2
attr inifile omnetpp.ini
attr iterationvars $0=40
attr iterationvars2 "$0=40, $repetition=3"
attr measurement $0=40
attr network Network
attr processid 24168
attr repetition 3
attr replication #3
attr resultdir results
attr runnumber 33
attr seedset 33
vector 1020033  Network.churner  inGoingSizeSig:vector  ETV
1020033	307784 8950 9 10441 20 24 401 0 315 68510 14993862
vector 990036  Network.dyn_peer[1]  lookupHopsSig:vector  ETV
990036	79819 168 19 15504 20.02 25.248303071532 6 0 24 47 733
vector 990037  Network.dyn_peer[1]  lookupStabilitySig:vector  ETV
990037	79987 230 19 15504 20.02 25.248303071532 6 0.14285713434219 1 4.1195495724678 3.2660190733785
vector 990038  Network.dyn_peer[1]  lookupTimeSig:vector  ETV
990038	80217 175 19 15504 20.02 25.248303071532 6 0 2.5 5.2 8.32
vector 990042  Network.dyn_peer[3]  lookupHopsSig:vector  ETV
990042	81188 171 30 22860 20.04 27.463341571922 6 0 27 69 1539
vector 990043  Network.dyn_peer[3]  lookupStabilitySig:vector  ETV
990043	81359 222 30 22860 20.04 27.463341571922 6 0.5 1 4.7921461910009 3.968179783087
vector 990044  Network.dyn_peer[3]  lookupTimeSig:vector  ETV
990044	81581 178 30 22860 20.04 27.463341571922 6 0 2.8 7.4 16.82
vector 990045  Network.dyn_peer[4]  lookupHopsSig:vector  ETV
990045	81759 171 39 22213 20.05 27.225501720876 6 0 30 55 1119
vector 990046  Network.dyn_peer[4]  lookupStabilitySig:vector  ETV
990046	81930 227 39 22213 20.05 27.225501720876 6 0 1 4.2054829522967 3.6413193769207
vector 990047  Network.dyn_peer[4]  lookupTimeSig:vector  ETV
990047	82157 179 39 22213 20.05 27.225501720876 6 0 3.1 6 12.34
vector 990054  Network.dyn_peer[7]  lookupHopsSig:vector  ETV
990054	83646 170 53 23258 20.08 27.620798758645 6 0 39 61 1671
vector 990055  Network.dyn_peer[7]  lookupStabilitySig:vector  ETV
990055	83816 216 53 23258 20.08 27.620798758645 6 0 1 4.0240543633699 3.3109276735603
vector 990056  Network.dyn_peer[7]  lookupTimeSig:vector  ETV
990056	84032 176 53 23258 20.08 27.620798758645 6 0 4 6.6 17.98
vector 990060  Network.dyn_peer[9]  lookupHopsSig:vector  ETV
990060	84883 219 64 21880 20.1 27.098869576461 8 0 13 52 480
vector 990061  Network.dyn_peer[9]  lookupStabilitySig:vector  ETV
990061	85102 313 64 21880 20.1 27.098869576461 8 -0.20000004768372 1 5.8548388965428 5.3853646556543
vector 990062  Network.dyn_peer[9]  lookupTimeSig:vector  ETV
990062	85415 229 64 21880 20.1 27.098869576461 8 0 1.4 5.9 5.91
vector 990039  Network.dyn_peer[2]  lookupHopsSig:vector  ETV
990039	80392 222 78 23606 20.13 27.765824337167 8 1 20 62 868
vector 990040  Network.dyn_peer[2]  lookupStabilitySig:vector  ETV
990040	80614 339 78 23606 20.13 27.765824337167 8 0.19999998807907 0.97478991560638 6.1981399636716 5.2178666520577
vector 990041  Network.dyn_peer[2]  lookupTimeSig:vector  ETV
990041	80953 235 78 23606 20.13 27.765824337167 8 0.1 2.1 6.9 9.97
vector 990033  Network.dyn_peer[0]  lookupHopsSig:vector  ETV
990033	78922 255 115 26330 20.21 29.038415294484 9 2 23 80 1116
vector 990034  Network.dyn_peer[0]  lookupStabilitySig:vector  ETV
990034	79177 373 115 26330 20.21 29.038415294484 9 0.19999998807907 0.96028880774975 6.7253537923098 5.5033825610011
vector 990035  Network.dyn_peer[0]  lookupTimeSig:vector  ETV
990035	79550 269 115 26330 20.21 29.038415294484 9 0.2 2.4 8.8 12.8
vector 990066  Network.dyn_peer[11]  lookupHopsSig:vector  ETV
990066	86466 162 123 25230 20.22 28.477464682615 6 1 30 72 1654
vector 990067  Network.dyn_peer[11]  lookupStabilitySig:vector  ETV
990067	86628 249 123 25230 20.22 28.477464682615 6 0.59999999403954 0.88461538404226 4.4507023319602 3.3725640271085
vector 990068  Network.dyn_peer[11]  lookupTimeSig:vector  ETV
990068	86877 171 123 25230 20.22 28.477464682615 6 0.1 3.1 7.7 18.01
vector 990051  Network.dyn_peer[6]  lookupHopsSig:vector  ETV
990051	83060 171 155 20067 20.27 26.502021624412 6 2 31 58 1134
vector 990052  Network.dyn_peer[6]  lookupStabilitySig:vector  ETV
990052	83231 235 155 20067 20.27 26.502021624412 6 0 0.94972066953778 3.8121041096747 2.9799985633366
vector 990053  Network.dyn_peer[6]  lookupTimeSig:vector  ETV
990053	83466 180 155 20067 20.27 26.502021624412 6 0.2 3.2 6.3 12.51
vector 990081  Network.dyn_peer[16]  lookupHopsSig:vector  ETV
990081	89950 192 159 22570 20.27 27.354134221617 7 1 17 56 740
vector 990082  Network.dyn_peer[16]  lookupStabilitySig:vector  ETV
990082	90142 294 159 22570 20.27 27.354134221617 7 0.39999997615814 0.98214285634458 5.4451847504824 4.4631251510674
vector 990083  Network.dyn_peer[16]  lookupTimeSig:vector  ETV
990083	90436 203 159 22570 20.27 27.354134221617 7 0.1 1.8 6.2 8.56
vector 990063  Network.dyn_peer[10]  lookupHopsSig:vector  ETV
990063	85644 232 185 17525 20.31 25.769082810441 8 2 11 49 355
vector 990064  Network.dyn_peer[10]  lookupStabilitySig:vector  ETV
990064	85876 343 185 17525 20.31 25.769082810441 8 0.15384614467621 0.96621621772647 6.2353477999568 5.4146711321248
vector 990065  Network.dyn_peer[10]  lookupTimeSig:vector  ETV
990065	86219 247 185 17525 20.31 25.769082810441 8 0.2 1.2 5.6 4.56
vector 990069  Network.dyn_peer[12]  lookupHopsSig:vector  ETV
990069	87048 164 205 20966 20.33 26.785005675237 6 2 11 47 435
vector 990070  Network.dyn_peer[12]  lookupStabilitySig:vector  ETV
990070	87212 251 205 20966 20.33 26.785005675237 6 0.19999998807907 0.96551724150777 4.280932046473 3.4660693582998
vector 990071  Network.dyn_peer[12]  lookupTimeSig:vector  ETV
990071	87463 173 205 20966 20.33 26.785005675237 6 0.2 1.2 5.2 5.3
vector 990072  Network.dyn_peer[13]  lookupHopsSig:vector  ETV
990072	87636 265 215 26207 20.34 28.96982828337 9 2 17 78 902
vector 990073  Network.dyn_peer[13]  lookupStabilitySig:vector  ETV
990073	87901 396 215 26207 20.34 28.96982828337 9 0.33333331346512 0.97818181850016 6.9746556486935 5.7695855049468
vector 990074  Network.dyn_peer[13]  lookupTimeSig:vector  ETV
990074	88297 279 215 26207 20.34 28.96982828337 9 0.2 1.8 8.6 10.62
vector 990075  Network.dyn_peer[14]  lookupHopsSig:vector  ETV
990075	88576 261 226 28453 20.35 30.497584868856 9 2 17 95 1165
vector 990076  Network.dyn_peer[14]  lookupStabilitySig:vector  ETV
990076	88837 390 226 28453 20.35 30.497584868856 9 0.45833331346512 0.97388059645891 7.4594153426588 6.4483883589647
vector 990077  Network.dyn_peer[14]  lookupTimeSig:vector  ETV
990077	89227 273 226 28453 20.35 30.497584868856 9 0.2 1.8 10.3 13.59
vector 990093  Network.dyn_peer[20]  lookupHopsSig:vector  ETV
990093	92131 100 268 13000 20.41 24.618947393111 4 2 32 41 1057
vector 990094  Network.dyn_peer[20]  lookupStabilitySig:vector  ETV
990094	92231 159 268 13000 20.41 24.618947393111 4 0.54545453190804 0.70370370149612 2.4491582214832 1.5127195315733
vector 990095  Network.dyn_peer[20]  lookupTimeSig:vector  ETV
990095	92390 107 268 13000 20.41 24.618947393111 4 0.2 3.3 4.4 11.38
vector 990048  Network.dyn_peer[5]  lookupHopsSig:vector  ETV
990048	82336 204 313 24912 20.46 28.331759618385 7 4 16 66 798
vector 990049  Network.dyn_peer[5]  lookupStabilitySig:vector  ETV
990049	82540 305 313 24912 20.46 28.331759618385 7 0.19999998807907 0.94509803876281 4.9845599792898 4.1228964718348
vector 990050  Network.dyn_peer[5]  lookupTimeSig:vector  ETV
990050	82845 215 313 24912 20.46 28.331759618385 7 0.4 1.7 7.2 9.28
vector 990078  Network.dyn_peer[15]  lookupHopsSig:vector  ETV
990078	89500 131 317 15401 20.46 25.217097757162 5 3 18 45 603
vector 990079  Network.dyn_peer[15]  lookupStabilitySig:vector  ETV
990079	89631 180 317 15401 20.46 25.217097757162 5 0.39999997615814 0.88549618422985 3.1767299324274 2.1718426666259
vector 990080  Network.dyn_peer[15]  lookupTimeSig:vector  ETV
990080	89811 139 317 15401 20.46 25.217097757162 5 0.3 1.9 4.9 6.91
vector 990108  Network.dyn_peer[25]  lookupHopsSig:vector  ETV
990108	95709 195 321 21295 20.46 26.887949040148 7 2 22 57 765
vector 990109  Network.dyn_peer[25]  lookupStabilitySig:vector  ETV
990109	95904 298 321 21295 20.46 26.887949040148 7 0.30000001192093 0.98620689660311 5.3532417863608 4.4526483202349
vector 990110  Network.dyn_peer[25]  lookupTimeSig:vector  ETV
990110	96202 207 321 21295 20.46 26.887949040148 7 0.2 2.3 6.3 8.81
vector 990084  Network.dyn_peer[17]  lookupHopsSig:vector  ETV
990084	90639 164 341 24335 20.48 28.072643417259 6 1 31 62 1238
vector 990085  Network.dyn_peer[17]  lookupStabilitySig:vector  ETV
990085	90803 238 341 24335 20.48 28.072643417259 6 0.39999997615814 0.99152542371303 4.5326893748716 3.7186342935786
vector 990086  Network.dyn_peer[17]  lookupTimeSig:vector  ETV
990086	91041 173 341 24335 20.48 28.072643417259 6 0.2 3.2 6.7 13.61
vector 990087  Network.dyn_peer[18]  lookupHopsSig:vector  ETV
990087	91214 129 353 6481 20.49 23.037262044917 5 1 9 21 125
vector 990088  Network.dyn_peer[18]  lookupStabilitySig:vector  ETV
990088	91343 191 353 6481 20.49 23.037262044917 5 0.25 0.97368421033025 3.4418160505593 2.8234171521525
vector 990089  Network.dyn_peer[18]  lookupTimeSig:vector  ETV
990089	91534 137 353 6481 20.49 23.037262044917 5 0.2 1 2.5 1.65
vector 990150  Network.dyn_peer[39]  lookupHopsSig:vector  ETV
990150	103744 222 364 19677 20.5 26.385434487309 8 1 14 51 451
vector 990151  Network.dyn_peer[39]  lookupStabilitySig:vector  ETV
990151	103966 340 364 19677 20.5 26.385434487309 8 0.39999997615814 0.95977011322975 6.5669302344322 5.6115730274689
vector 990152  Network.dyn_peer[39]  lookupTimeSig:vector  ETV
990152	104306 236 364 19677 20.5 26.385434487309 8 0.1 1.5 5.8 5.58
vector 990099  Network.dyn_peer[22]  lookupHopsSig:vector  ETV
990099	93187 226 395 25536 20.53 28.621106870284 8 3 16 73 873
vector 990100  Network.dyn_peer[22]  lookupStabilitySig:vector  ETV
990100	93413 342 395 25536 20.53 28.621106870284 8 0.39999997615814 0.98106060549617 6.1170656643808 5.0212945720723
vector 990101  Network.dyn_peer[22]  lookupTimeSig:vector  ETV
990101	93755 238 395 25536 20.53 28.621106870284 8 0.3 1.7 8 10.2
vector 990129  Network.dyn_peer[32]  lookupHopsSig:vector  ETV
990129	99870 134 399 20071 20.53 26.502926277277 5 2 14 38 436
vector 990130  Network.dyn_peer[32]  lookupStabilitySig:vector  ETV
990130	100004 194 399 20071 20.53 26.502926277277 5 0.5 0.98882681597024 3.9540906818584 3.3293329329356
vector 990131  Network.dyn_peer[32]  lookupTimeSig:vector  ETV
990131	100198 142 399 20071 20.53 26.502926277277 5 0.2 1.5 4.2 5.12
vector 990102  Network.dyn_peer[23]  lookupHopsSig:vector  ETV
990102	93993 291 411 28831 20.54 30.818279021507 10 1 15 84 972
vector 990103  Network.dyn_peer[23]  lookupStabilitySig:vector  ETV
990103	94284 435 411 28831 20.54 30.818279021507 10 0.39999997615814 0.98620689660311 8.5368533097208 7.6714733724424
vector 990104  Network.dyn_peer[23]  lookupTimeSig:vector  ETV
990104	94719 304 411 28831 20.54 30.818279021507 10 0.2 1.6 9.3 11.43
vector 990105  Network.dyn_peer[24]  lookupHopsSig:vector  ETV
990105	95023 196 424 29983 20.55 32.268818634465 7 3 17 65 793
vector 990106  Network.dyn_peer[24]  lookupStabilitySig:vector  ETV
990106	95219 284 424 29983 20.55 32.268818634465 7 0.39999997615814 0.96330275386572 5.5059560611844 4.6727318242124
vector 990107  Network.dyn_peer[24]  lookupTimeSig:vector  ETV
990107	95503 206 424 29983 20.55 32.268818634465 7 0.3 1.8 7.1 9.23
vector 990165  Network.dyn_peer[44]  lookupHopsSig:vector  ETV
990165	106542 165 428 27237 20.55 29.584727781025 6 1 24 84 1696
vector 990166  Network.dyn_peer[44]  lookupStabilitySig:vector  ETV
990166	106707 251 428 27237 20.55 29.584727781025 6 0.55102041363716 0.9833333324641 5.0333986524492 4.3454390965133
vector 990167  Network.dyn_peer[44]  lookupTimeSig:vector  ETV
990167	106958 172 428 27237 20.55 29.584727781025 6 0.1 2.5 8.9 18.67
vector 990114  Network.dyn_peer[27]  lookupHopsSig:vector  ETV
990114	97103 99 459 6281 20.58 22.984226517302 4 3 9 24 180
vector 990115  Network.dyn_peer[27]  lookupStabilitySig:vector  ETV
990115	97202 145 459 6281 20.58 22.984226517302 4 0.39999997615814 0.9411764703691 2.6318741254508 1.9210159487581
vector 990116  Network.dyn_peer[27]  lookupTimeSig:vector  ETV
990116	97347 103 459 6281 20.58 22.984226517302 4 0.3 1 2.7 2.25
vector 990057  Network.dyn_peer[8]  lookupHopsSig:vector  ETV
990057	84208 193 472 21940 20.59 27.123812912058 7 1 29 61 1087
vector 990058  Network.dyn_peer[8]  lookupStabilitySig:vector  ETV
990058	84401 280 472 21940 20.59 27.123812912058 7 0 0.94444444403052 4.8399819619954 3.9727817478175
vector 990059  Network.dyn_peer[8]  lookupTimeSig:vector  ETV
990059	84681 202 472 21940 20.59 27.123812912058 7 0.2 3 6.7 12.05
vector 990096  Network.dyn_peer[21]  lookupHopsSig:vector  ETV
990096	92497 193 500 23057 20.62 27.545618644666 7 3 22 67 959
vector 990097  Network.dyn_peer[21]  lookupStabilitySig:vector  ETV
990097	92690 294 500 23057 20.62 27.545618644666 7 0.19999998807907 0.94202898442745 5.008413515985 3.9983560730307
vector 990098  Network.dyn_peer[21]  lookupTimeSig:vector  ETV
990098	92984 203 500 23057 20.62 27.545618644666 7 0.4 2.3 7.3 10.91
vector 990138  Network.dyn_peer[35]  lookupHopsSig:vector  ETV
990138	101719 103 555 17510 20.66 25.765771396532 4 3 19 51 815
vector 990139  Network.dyn_peer[35]  lookupStabilitySig:vector  ETV
990139	101822 160 555 17510 20.66 25.765771396532 4 0.39999997615814 0.87755101919174 2.6412279307842 1.8758328152061
vector 990140  Network.dyn_peer[35]  lookupTimeSig:vector  ETV
990140	101982 106 555 17510 20.66 25.765771396532 4 0.3 2 5.4 9.14
vector 990198  Network.dyn_peer[55]  lookupHopsSig:vector  ETV
990198	113450 227 559 28778 20.66 30.775771867659 8 1 22 89 1381
vector 990199  Network.dyn_peer[55]  lookupStabilitySig:vector  ETV
990199	113677 342 559 28778 20.66 30.775771867659 8 0.5714285671711 0.96335078403354 6.8630482628942 6.0003065662148
vector 990200  Network.dyn_peer[55]  lookupTimeSig:vector  ETV
990200	114019 237 559 28778 20.66 30.775771867659 8 0.1 2.3 9.6 15.64
vector 990111  Network.dyn_peer[26]  lookupHopsSig:vector  ETV
990111	96409 194 572 21899 20.67 27.10700320773 7 4 17 62 670
vector 990112  Network.dyn_peer[26]  lookupStabilitySig:vector  ETV
990112	96603 295 572 21899 20.67 27.10700320773 7 0.19999998807907 0.97080291993916 5.3486924115568 4.5747924434898
vector 990113  Network.dyn_peer[26]  lookupTimeSig:vector  ETV
990113	96898 205 572 21899 20.67 27.10700320773 7 0.4 1.8 6.8 7.92
vector 990204  Network.dyn_peer[57]  lookupHopsSig:vector  ETV
990204	114509 163 587 15363 20.68 25.206692025896 6 1 13 41 383
vector 990205  Network.dyn_peer[57]  lookupStabilitySig:vector  ETV
990205	114672 250 587 15363 20.68 25.206692025896 6 0.58333334326744 0.9587628878653 4.995087672025 4.2504033059902
vector 990206  Network.dyn_peer[57]  lookupTimeSig:vector  ETV
990206	114922 171 587 15363 20.68 25.206692025896 6 0.1 1.4 4.6 4.68
vector 990174  Network.dyn_peer[47]  lookupHopsSig:vector  ETV
990174	107991 131 700 19124 20.78 26.22020339497 5 3 23 48 768
vector 990175  Network.dyn_peer[47]  lookupStabilitySig:vector  ETV
990175	108122 204 700 19124 20.78 26.22020339497 5 0.39999997615814 0.91566265374422 3.6055748984218 2.7523702306538
vector 990176  Network.dyn_peer[47]  lookupTimeSig:vector  ETV
990176	108326 139 700 19124 20.78 26.22020339497 5 0.3 2.4 5.2 8.62
vector 990207  Network.dyn_peer[58]  lookupHopsSig:vector  ETV
990207	115093 197 714 26926 20.79 29.393799760841 7 2 20 66 822
vector 990208  Network.dyn_peer[58]  lookupStabilitySig:vector  ETV
990208	115290 286 714 26926 20.79 29.393799760841 7 0.59999999403954 0.9842519685626 5.8347257785499 5.0346204456955
vector 990209  Network.dyn_peer[58]  lookupTimeSig:vector  ETV
990209	115576 205 714 26926 20.79 29.393799760841 7 0.2 2.1 7.2 9.56
vector 990090  Network.dyn_peer[19]  lookupHopsSig:vector  ETV
990090	91671 130 730 16990 20.8 25.625407296658 5 2 26 48 832
vector 990091  Network.dyn_peer[19]  lookupStabilitySig:vector  ETV
990091	91801 192 730 16990 20.8 25.625407296658 5 -0.20000004768372 0.82191780209541 2.9719177484512 2.5580488829381
vector 990092  Network.dyn_peer[19]  lookupTimeSig:vector  ETV
990092	91993 138 730 16990 20.8 25.625407296658 5 0.3 2.7 5.2 9.2
vector 990153  Network.dyn_peer[40]  lookupHopsSig:vector  ETV
990153	104542 70 743 4730 20.81 22.514517009872 3 4 10 19 141
vector 990154  Network.dyn_peer[40]  lookupStabilitySig:vector  ETV
990154	104612 102 743 4730 20.81 22.514517009872 3 0.19999998807907 0.75 1.5333333313465 0.9427777845992
vector 990155  Network.dyn_peer[40]  lookupTimeSig:vector  ETV
990155	104714 75 743 4730 20.81 22.514517009872 3 0.4 1.1 2.1 1.73
vector 990276  Network.dyn_peer[81]  lookupHopsSig:vector  ETV
990276	127410 70 761 6840 20.82 23.123622381626 3 0 12 21 225
vector 990277  Network.dyn_peer[81]  lookupStabilitySig:vector  ETV
990277	127480 99 761 6840 20.82 23.123622381626 3 0.63999998569489 1 2.4218181669712 2.0208396502637
vector 990278  Network.dyn_peer[81]  lookupTimeSig:vector  ETV
990278	127579 71 761 6840 20.82 23.123622381626 3 0 1.3 2.3 2.69
vector 990192  Network.dyn_peer[53]  lookupHopsSig:vector  ETV
990192	111523 165 789 27983 20.84 30.142124426365 6 3 27 79 1625
vector 990193  Network.dyn_peer[53]  lookupStabilitySig:vector  ETV
990193	111688 238 789 27983 20.84 30.142124426365 6 0.5 0.9131832793355 4.6637027934194 3.7469962165024
vector 990194  Network.dyn_peer[53]  lookupTimeSig:vector  ETV
990194	111926 174 789 27983 20.84 30.142124426365 6 0.3 2.8 8.4 17.82
vector 990225  Network.dyn_peer[64]  lookupHopsSig:vector  ETV
990225	118371 162 808 13877 20.85 24.834363439161 6 2 14 33 283
vector 990226  Network.dyn_peer[64]  lookupStabilitySig:vector  ETV
990226	118533 249 808 13877 20.85 24.834363439161 6 0.66666665673256 0.97391304373741 4.9074132293463 4.1145002130541
vector 990227  Network.dyn_peer[64]  lookupTimeSig:vector  ETV
990227	118782 173 808 13877 20.85 24.834363439161 6 0.2 1.5 3.8 3.5
vector 990228  Network.dyn_peer[65]  lookupHopsSig:vector  ETV
990228	118955 39 827 2133 20.86 21.56 2 2 6 8 40
vector 990229  Network.dyn_peer[65]  lookupStabilitySig:vector  ETV
990229	118994 58 827 2133 20.86 21.56 2 0.625 0.66666665673256 1.2916666567326 0.83506943119897
vector 990230  Network.dyn_peer[65]  lookupTimeSig:vector  ETV
990230	119052 43 827 2133 20.86 21.56 2 0.2 0.7 0.9 0.53
vector 990144  Network.dyn_peer[37]  lookupHopsSig:vector  ETV
990144	102775 162 854 19722 20.88 26.39930775507 6 1 28 55 983
vector 990145  Network.dyn_peer[37]  lookupStabilitySig:vector  ETV
990145	102937 250 854 19722 20.88 26.39930775507 6 0.16666668653488 0.99425287358463 4.2885302882642 3.474773259793
vector 990146  Network.dyn_peer[37]  lookupTimeSig:vector  ETV
990146	103187 172 854 19722 20.88 26.39930775507 6 0.2 2.9 6 10.88
vector 990147  Network.dyn_peer[38]  lookupHopsSig:vector  ETV
990147	103359 110 869 8678 20.89 23.582713741957 4 1 12 21 179
vector 990148  Network.dyn_peer[38]  lookupStabilitySig:vector  ETV
990148	103469 158 869 8678 20.89 23.582713741957 4 0.16666668653488 0.91666666418314 2.8024891987443 2.3462796533821
vector 990149  Network.dyn_peer[38]  lookupTimeSig:vector  ETV
990149	103627 117 869 8678 20.89 23.582713741957 4 0.2 1.3 2.4 2.14
vector 990120  Network.dyn_peer[29]  lookupHopsSig:vector  ETV
990120	97702 160 887 15329 20.9 25.198031909097 6 4 11 42 322
vector 990121  Network.dyn_peer[29]  lookupStabilitySig:vector  ETV
990121	97862 234 887 15329 20.9 25.198031909097 6 0 0.93798449635506 4.2492331042886 3.6593455283896
vector 990122  Network.dyn_peer[29]  lookupTimeSig:vector  ETV
990122	98096 171 887 15329 20.9 25.198031909097 6 0.5 1.2 4.7 3.99
vector 990186  Network.dyn_peer[51]  lookupHopsSig:vector  ETV
990186	110132 227 914 24969 20.92 28.358961059881 8 1 25 71 1043
vector 990187  Network.dyn_peer[51]  lookupStabilitySig:vector  ETV
990187	110359 344 914 24969 20.92 28.358961059881 8 0.33333331346512 0.99319727905095 6.5176426377147 5.6546345777111
vector 990188  Network.dyn_peer[51]  lookupTimeSig:vector  ETV
990188	110703 240 914 24969 20.92 28.358961059881 8 0.2 2.6 7.8 11.84
vector 990246  Network.dyn_peer[71]  lookupHopsSig:vector  ETV
990246	121041 162 918 17424 20.92 25.747324060918 6 2 12 40 346
vector 990247  Network.dyn_peer[71]  lookupStabilitySig:vector  ETV
990247	121203 251 918 17424 20.92 25.747324060918 6 0.66666665673256 0.98039215616882 4.9933273848146 4.2452799732993
vector 990248  Network.dyn_peer[71]  lookupTimeSig:vector  ETV
990248	121454 171 918 17424 20.92 25.747324060918 6 0.2 1.3 4.5 4.27
vector 990219  Network.dyn_peer[62]  lookupHopsSig:vector  ETV
990219	117542 131 935 11090 20.93 24.153230384137 5 2 14 31 299
vector 990220  Network.dyn_peer[62]  lookupStabilitySig:vector  ETV
990220	117673 191 935 11090 20.93 24.153230384137 5 0.5 0.94642857089639 3.8517820425332 3.0945271560441
vector 990221  Network.dyn_peer[62]  lookupTimeSig:vector  ETV
990221	117864 138 935 11090 20.93 24.153230384137 5 0.3 1.5 3.5 3.59
vector 990132  Network.dyn_peer[33]  lookupHopsSig:vector  ETV
990132	100340 101 950 19502 20.94 26.334244877498 4 2 11 26 210
vector 990133  Network.dyn_peer[33]  lookupStabilitySig:vector  ETV
990133	100441 145 950 19502 20.94 26.334244877498 4 0 0.93529411405325 2.4939148053527 2.0902804328037
vector 990134  Network.dyn_peer[33]  lookupTimeSig:vector  ETV
990134	100586 108 950 19502 20.94 26.334244877498 4 0.3 1.2 2.9 2.53
vector 990255  Network.dyn_peer[74]  lookupHopsSig:vector  ETV
990255	122465 102 968 19281 20.95 26.267975003271 4 2 26 52 1130
vector 990256  Network.dyn_peer[74]  lookupStabilitySig:vector  ETV
990256	122567 147 968 19281 20.95 26.267975003271 4 0.66666665673256 0.84337349236012 2.9762563556433 2.2311889333404
vector 990257  Network.dyn_peer[74]  lookupTimeSig:vector  ETV
990257	122714 108 968 19281 20.95 26.267975003271 4 0.2 2.7 5.5 12.33
vector 990177  Network.dyn_peer[48]  lookupHopsSig:vector  ETV
990177	108465 258 1025 26205 20.99 28.969072420757 9 4 12 63 493
vector 990178  Network.dyn_peer[48]  lookupStabilitySig:vector  ETV
990178	108723 391 1025 26205 20.99 28.969072420757 9 0.28571426868439 0.97818181850016 7.4925969932228 6.6563642872016
vector 990179  Network.dyn_peer[48]  lookupTimeSig:vector  ETV
990179	109114 274 1025 26205 20.99 28.969072420757 9 0.5 1.3 7.1 6.17
vector 990123  Network.dyn_peer[30]  lookupHopsSig:vector  ETV
990123	98267 227 1054 23776 21.01 27.832325220835 8 2 14 68 708
vector 990124  Network.dyn_peer[30]  lookupStabilitySig:vector  ETV
990124	98494 328 1054 23776 21.01 27.832325220835 8 0 0.99069767445326 6.2772170808166 5.7163141088715
vector 990125  Network.dyn_peer[30]  lookupTimeSig:vector  ETV
990125	98822 238 1054 23776 21.01 27.832325220835 8 0.3 1.5 7.5 8.37
vector 990159  Network.dyn_peer[42]  lookupHopsSig:vector  ETV
990159	105707 100 1091 3586 21.03 22.137171837889 4 1 6 14 62
vector 990160  Network.dyn_peer[42]  lookupStabilitySig:vector  ETV
990160	105807 160 1091 3586 21.03 22.137171837889 4 0.14285713434219 0.96774193644524 2.7177419140935 2.2643305554239
vector 990161  Network.dyn_peer[42]  lookupTimeSig:vector  ETV
990161	105967 108 1091 3586 21.03 22.137171837889 4 0.2 0.6 1.7 0.81
vector 990258  Network.dyn_peer[75]  lookupHopsSig:vector  ETV
990258	122822 290 1140 29737 21.06 31.887252454719 10 2 33 101 1813
vector 990259  Network.dyn_peer[75]  lookupStabilitySig:vector  ETV
990259	123112 420 1140 29737 21.06 31.887252454719 10 0.5714285671711 0.99365079356357 8.6361829224042 7.5993317008312
vector 990260  Network.dyn_peer[75]  lookupTimeSig:vector  ETV
990260	123532 306 1140 29737 21.06 31.887252454719 10 0.3 3.4 11 20.18
vector 990240  Network.dyn_peer[69]  lookupHopsSig:vector  ETV
990240	120207 68 1201 7156 21.1 23.20464894786 3 4 14 23 237
vector 990241  Network.dyn_peer[69]  lookupStabilitySig:vector  ETV
990241	120275 99 1201 7156 21.1 23.20464894786 3 0.5 0.91379310190678 2.102681979537 1.5595857188151
vector 990242  Network.dyn_peer[69]  lookupTimeSig:vector  ETV
990242	120374 73 1201 7156 21.1 23.20464894786 3 0.4 1.5 2.5 2.77
vector 990213  Network.dyn_peer[60]  lookupHopsSig:vector  ETV
990213	115928 165 1220 20212 21.11 26.543999615668 6 4 15 50 510
vector 990214  Network.dyn_peer[60]  lookupStabilitySig:vector  ETV
990214	116093 251 1220 20212 21.11 26.543999615668 6 0.44444441795349 0.97837837785482 4.8491782471537 4.1365483351405
vector 990215  Network.dyn_peer[60]  lookupTimeSig:vector  ETV
990215	116344 175 1220 20212 21.11 26.543999615668 6 0.5 1.6 5.5 6.05
vector 990162  Network.dyn_peer[43]  lookupHopsSig:vector  ETV
990162	106075 132 1270 15794 21.14 25.316566125819 5 2 11 30 232
vector 990163  Network.dyn_peer[43]  lookupStabilitySig:vector  ETV
990163	106207 194 1270 15794 21.14 25.316566125819 5 0.22222220897675 0.96739130467176 3.8021786846221 3.2825710953207
vector 990164  Network.dyn_peer[43]  lookupTimeSig:vector  ETV
990164	106401 141 1270 15794 21.14 25.316566125819 5 0.3 1.2 3.4 2.82
vector 990222  Network.dyn_peer[63]  lookupHopsSig:vector  ETV
990222	118002 101 1274 9761 21.14 23.850657486717 4 5 11 29 235
vector 990223  Network.dyn_peer[63]  lookupStabilitySig:vector  ETV
990223	118103 160 1274 9761 21.14 23.850657486717 4 0.44444441795349 0.86585365235806 2.9241869598627 2.2500188825645
vector 990224  Network.dyn_peer[63]  lookupTimeSig:vector  ETV
990224	118263 108 1274 9761 21.14 23.850657486717 4 0.5 1.2 3.2 2.86
vector 990312  Network.dyn_peer[93]  lookupHopsSig:vector  ETV
990312	133931 291 1278 28888 21.14 30.870125363938 10 2 17 90 1040
vector 990313  Network.dyn_peer[93]  lookupStabilitySig:vector  ETV
990313	134222 427 1278 28888 21.14 30.870125363938 10 0.68292683362961 0.98805970139802 9.0025194045156 8.1887843489293
vector 990314  Network.dyn_peer[93]  lookupTimeSig:vector  ETV
990314	134649 306 1278 28888 21.14 30.870125363938 10 0.2 1.8 9.9 12.25
vector 990294  Network.dyn_peer[87]  lookupHopsSig:vector  ETV
990294	130154 196 1346 25551 21.18 28.629284848648 7 1 22 65 1075
vector 990295  Network.dyn_peer[87]  lookupStabilitySig:vector  ETV
990295	130350 298 1346 25551 21.18 28.629284848648 7 0.69999998807907 0.96428571268916 6.1197680570185 5.3945769428812
vector 990296  Network.dyn_peer[87]  lookupTimeSig:vector  ETV
990296	130648 207 1346 25551 21.18 28.629284848648 7 0.2 2.3 7.1 12.05
vector 990156  Network.dyn_peer[41]  lookupHopsSig:vector  ETV
990156	104789 258 1407 27021 21.22 29.454703875647 9 2 22 82 1028
vector 990157  Network.dyn_peer[41]  lookupStabilitySig:vector  ETV
990157	105047 389 1407 27021 21.22 29.454703875647 9 0.19999998807907 0.99215686228126 7.60641392041 6.961979958582
vector 990158  Network.dyn_peer[41]  lookupTimeSig:vector  ETV
990158	105436 271 1407 27021 21.22 29.454703875647 9 0.3 2.3 9 11.84
vector 990216  Network.dyn_peer[61]  lookupHopsSig:vector  ETV
990216	116519 289 1411 26034 21.22 28.872883160977 10 2 15 73 651
vector 990217  Network.dyn_peer[61]  lookupStabilitySig:vector  ETV
990217	116808 429 1411 26034 21.22 28.872883160977 10 0.39999997615814 0.97489539720118 8.6516929287463 7.7787993695431
vector 990218  Network.dyn_peer[61]  lookupTimeSig:vector  ETV
990218	117237 305 1411 26034 21.22 28.872883160977 10 0.3 1.6 8.2 7.94
vector 990249  Network.dyn_peer[72]  lookupHopsSig:vector  ETV
990249	121625 165 1432 22659 21.23 27.381754115236 6 5 14 55 575
vector 990250  Network.dyn_peer[72]  lookupStabilitySig:vector  ETV
990250	121790 239 1432 22659 21.23 27.381754115236 6 0.5 0.96894409880042 4.897713880986 4.1549780327325
vector 990251  Network.dyn_peer[72]  lookupTimeSig:vector  ETV
990251	122029 174 1432 22659 21.23 27.381754115236 6 0.5 1.5 6 6.8
vector 990309  Network.dyn_peer[92]  lookupHopsSig:vector  ETV
990309	133118 229 1437 27201 21.23 29.565486268068 8 3 16 79 897
vector 990310  Network.dyn_peer[92]  lookupStabilitySig:vector  ETV
990310	133347 345 1437 27201 21.23 29.565486268068 8 0.69999998807907 0.95811518281698 6.9776116572321 6.1679555308151
vector 990311  Network.dyn_peer[92]  lookupTimeSig:vector  ETV
990311	133692 239 1437 27201 21.23 29.565486268068 8 0.3 1.7 8.6 10.56
vector 990282  Network.dyn_peer[83]  lookupHopsSig:vector  ETV
990282	128244 165 1459 23127 21.24 27.570546775712 6 2 24 57 895
vector 990283  Network.dyn_peer[83]  lookupStabilitySig:vector  ETV
990283	128409 253 1459 23127 21.24 27.570546775712 6 0.59999999403954 0.99145299103111 5.010225716047 4.2856534377947
vector 990284  Network.dyn_peer[83]  lookupTimeSig:vector  ETV
990284	128662 175 1459 23127 21.24 27.570546775712 6 0.3 2.5 6.2 10.06
vector 990327  Network.dyn_peer[98]  lookupHopsSig:vector  ETV
990327	136949 42 1552 11654 21.29 24.29 2 3 29 32 850
vector 990328  Network.dyn_peer[98]  lookupStabilitySig:vector  ETV
990328	136991 71 1552 11654 21.29 24.29 2 0.69999998807907 0.71000000834465 1.4099999964237 0.9940999951601
vector 990329  Network.dyn_peer[98]  lookupTimeSig:vector  ETV
990329	137062 43 1552 11654 21.29 24.29 2 0.3 3 3.3 9.09
vector 990210  Network.dyn_peer[59]  lookupHopsSig:vector  ETV
990210	115781 38 1570 3781 21.3 22.2 2 7 8 15 113
vector 990211  Network.dyn_peer[59]  lookupStabilitySig:vector  ETV
990211	115819 67 1570 3781 21.3 22.2 2 0.30000001192093 0.7647058814764 1.0647058933973 0.67477509231716
vector 990212  Network.dyn_peer[59]  lookupTimeSig:vector  ETV
990212	115886 42 1570 3781 21.3 22.2 2 0.7 0.9 1.6 1.3
vector 990126  Network.dyn_peer[31]  lookupHopsSig:vector  ETV
990126	99060 229 1609 30198 21.32 32.592206701258 8 5 22 96 1422
vector 990127  Network.dyn_peer[31]  lookupStabilitySig:vector  ETV
990127	99289 345 1609 30198 21.32 32.592206701258 8 0.090909063816071 0.95287958160043 6.4035202376545 5.7297215820527
vector 990128  Network.dyn_peer[31]  lookupTimeSig:vector  ETV
990128	99634 236 1609 30198 21.32 32.592206701258 8 0.6 2.3 10.3 16.01
vector 990279  Network.dyn_peer[82]  lookupHopsSig:vector  ETV
990279	127650 166 1628 21455 21.33 26.952325164194 6 5 15 56 592