file 2082724 1369933127                                         
version 2
run Stability2-64-20130528-01:30:37-24168
attr configname Stability2
attr datetime 20130528-01:30:37
attr experiment Stability2
attr inifile omnetpp.ini
attr iterationvars $0=200
attr iterationvars2 "$0=200, $repetition=4"
attr measurement $0=200
attr network Network
attr processid 24168
attr repetition 4
attr replication #4
attr resultdir results
attr runnumber 64
attr seedset 64
vector 1950064  Network.churner  inGoingSizeSig:vector  ETV
1950064	2034659 48065 11 182746 20 40 2001 0 1167 1307958 1065469922
vector 1920082  Network.dyn_peer[6]  lookupHopsSig:vector  ETV
1920082	410593 403 36 249401 20.07 44.46739587182 13 0 69 218 10036
vector 1920083  Network.dyn_peer[6]  lookupStabilitySig:vector  ETV
1920083	410996 578 36 249401 20.07 44.46739587182 13 0.41176468133926 1 10.881938075647 9.6448463477611
vector 1920084  Network.dyn_peer[6]  lookupTimeSig:vector  ETV
1920084	411574 418 36 249401 20.07 44.46739587182 13 0 7 23 104.84
vector 1920085  Network.dyn_peer[7]  lookupHopsSig:vector  ETV
1920085	411992 272 44 142208 20.08 37.35071692919 9 0 55 125 4537
vector 1920086  Network.dyn_peer[7]  lookupStabilitySig:vector  ETV
1920086	412264 374 44 142208 20.08 37.35071692919 9 0.47058820724487 1 7.1760131493211 6.0405519601309
vector 1920087  Network.dyn_peer[7]  lookupTimeSig:vector  ETV
1920087	412638 283 44 142208 20.08 37.35071692919 9 0 5.6 13.3 47.95
vector 1920064  Network.dyn_peer[0]  lookupHopsSig:vector  ETV
1920064	403125 364 57 226539 20.11 42.848938595505 12 1 37 176 4578
vector 1920065  Network.dyn_peer[0]  lookupStabilitySig:vector  ETV
1920065	403489 515 57 226539 20.11 42.848938595505 12 0.59375 0.9875156050548 10.068178343587 8.6524941080998
vector 1920066  Network.dyn_peer[0]  lookupTimeSig:vector  ETV
1920066	404004 381 57 226539 20.11 42.848938595505 12 0.1 3.8 18.7 49.39
vector 1920094  Network.dyn_peer[10]  lookupHopsSig:vector  ETV
1920094	415368 269 63 142126 20.11 37.34777237201 9 0 56 164 5080
vector 1920095  Network.dyn_peer[10]  lookupStabilitySig:vector  ETV
1920095	415637 382 63 142126 20.11 37.34777237201 9 -0.57142853736877 1 6.4915230814368 6.6457660749496
vector 1920096  Network.dyn_peer[10]  lookupTimeSig:vector  ETV
1920096	416019 276 63 142126 20.11 37.34777237201 9 0 5.7 17.2 54.16
vector 1920073  Network.dyn_peer[3]  lookupHopsSig:vector  ETV
1920073	407089 303 77 215007 20.14 42.070722010595 10 1 40 202 5854
vector 1920074  Network.dyn_peer[3]  lookupStabilitySig:vector  ETV
1920074	407392 447 77 215007 20.14 42.070722010595 10 0.14285713434219 0.97581493109465 7.8522356115282 6.8666212861552
vector 1920075  Network.dyn_peer[3]  lookupTimeSig:vector  ETV
1920075	407839 315 77 215007 20.14 42.070722010595 10 0.1 4.1 21.1 62.65
vector 1920103  Network.dyn_peer[13]  lookupHopsSig:vector  ETV
1920103	419079 401 83 310943 20.14 50.028746533585 13 0 65 254 9158
vector 1920104  Network.dyn_peer[13]  lookupStabilitySig:vector  ETV
1920104	419480 556 83 310943 20.14 50.028746533585 13 0 1 10.924749852158 10.045318408127
vector 1920105  Network.dyn_peer[13]  lookupTimeSig:vector  ETV
1920105	420036 416 83 310943 20.14 50.028746533585 13 0 6.6 26.6 96.78
vector 1920079  Network.dyn_peer[5]  lookupHopsSig:vector  ETV
1920079	409202 399 95 309041 20.16 49.808100972996 13 1 71 252 10206
vector 1920080  Network.dyn_peer[5]  lookupStabilitySig:vector  ETV
1920080	409601 576 95 309041 20.16 49.808100972996 13 -0.14285719394684 0.97040816396475 10.532053947449 9.6230073321234
vector 1920081  Network.dyn_peer[5]  lookupTimeSig:vector  ETV
1920081	410177 416 95 309041 20.16 49.808100972996 13 0.1 7.2 26.4 107.2
vector 1920112  Network.dyn_peer[16]  lookupHopsSig:vector  ETV
1920112	422879 236 104 158439 20.17 38.453326134687 8 0 57 136 4646
vector 1920113  Network.dyn_peer[16]  lookupStabilitySig:vector  ETV
1920113	423115 337 104 158439 20.17 38.453326134687 8 0.16666668653488 1 6.0823778230697 5.3205075327941
vector 1920114  Network.dyn_peer[16]  lookupTimeSig:vector  ETV
1920114	423452 240 104 158439 20.17 38.453326134687 8 0 5.8 14.3 49.25
vector 1920088  Network.dyn_peer[8]  lookupHopsSig:vector  ETV
1920088	412921 301 115 225137 20.19 42.755355857911 10 1 28 131 2573
vector 1920089  Network.dyn_peer[8]  lookupStabilitySig:vector  ETV
1920089	413222 431 115 225137 20.19 42.755355857911 10 0.5 0.98807947058231 8.1899646325037 6.9974852651077
vector 1920090  Network.dyn_peer[8]  lookupTimeSig:vector  ETV
1920090	413653 313 115 225137 20.19 42.755355857911 10 0.1 2.9 14 28.42
vector 1920097  Network.dyn_peer[11]  lookupHopsSig:vector  ETV
1920097	416295 435 133 358717 20.22 59.394432470031 14 1 90 322 14826
vector 1920098  Network.dyn_peer[11]  lookupStabilitySig:vector  ETV
1920098	416730 621 133 358717 20.22 59.394432470031 14 0 0.99523809505627 11.862611776683 10.967424836005
vector 1920099  Network.dyn_peer[11]  lookupTimeSig:vector  ETV
1920099	417351 454 133 358717 20.22 59.394432470031 14 0.1 9.1 33.5 154.81
vector 1920070  Network.dyn_peer[2]  lookupHopsSig:vector  ETV
1920070	406241 247 142 94730 20.23 33.742672918577 8 2 26 101 1619
vector 1920071  Network.dyn_peer[2]  lookupStabilitySig:vector  ETV
1920071	406488 344 142 94730 20.23 33.742672918577 8 0 0.98399999924004 6.1006895508617 5.4225049980672
vector 1920072  Network.dyn_peer[2]  lookupTimeSig:vector  ETV
1920072	406832 257 142 94730 20.23 33.742672918577 8 0.2 2.7 10.8 18.24
vector 1920121  Network.dyn_peer[19]  lookupHopsSig:vector  ETV
1920121	425934 298 185 276325 20.3 46.625672912242 10 1 45 152 4430
vector 1920122  Network.dyn_peer[19]  lookupStabilitySig:vector  ETV
1920122	426232 432 185 276325 20.3 46.625672912242 10 0.28571426868439 0.97169025801122 8.1035752017051 7.0028141760676
vector 1920123  Network.dyn_peer[19]  lookupTimeSig:vector  ETV
1920123	426664 313 185 276325 20.3 46.625672912242 10 0.1 4.6 16.1 47.41
vector 1920067  Network.dyn_peer[1]  lookupHopsSig:vector  ETV
1920067	404385 532 201 341218 20.32 54.568501273366 17 3 31 245 4565
vector 1920068  Network.dyn_peer[1]  lookupStabilitySig:vector  ETV
1920068	404917 776 201 341218 20.32 54.568501273366 17 -0.28571426868439 0.99103407096118 14.131140630692 13.426807257774
vector 1920069  Network.dyn_peer[1]  lookupTimeSig:vector  ETV
1920069	405693 548 201 341218 20.32 54.568501273366 17 0.3 3.2 26.1 50.65
vector 1920127  Network.dyn_peer[21]  lookupHopsSig:vector  ETV
1920127	427930 365 205 168902 20.32 39.136431271029 12 1 42 160 3722
vector 1920128  Network.dyn_peer[21]  lookupStabilitySig:vector  ETV
1920128	428295 524 205 168902 20.32 39.136431271029 12 0.5 0.97338403016329 9.988861342892 8.5961136155791
vector 1920129  Network.dyn_peer[21]  lookupTimeSig:vector  ETV
1920129	428819 383 205 168902 20.32 39.136431271029 12 0.1 4.3 17.1 40.51
vector 1920130  Network.dyn_peer[22]  lookupHopsSig:vector  ETV
1920130	429202 236 215 100505 20.33 34.215262612291 8 1 26 102 1884
vector 1920131  Network.dyn_peer[22]  lookupStabilitySig:vector  ETV
1920131	429438 352 215 100505 20.33 34.215262612291 8 0.22727274894714 0.98513800464571 6.5778895709664 5.8415197010947
vector 1920132  Network.dyn_peer[22]  lookupTimeSig:vector  ETV
1920132	429790 246 215 100505 20.33 34.215262612291 8 0.1 2.7 10.9 20.93
vector 1920076  Network.dyn_peer[4]  lookupHopsSig:vector  ETV
1920076	408154 301 235 233937 20.35 43.356275011029 10 3 55 206 7906
vector 1920077  Network.dyn_peer[4]  lookupStabilitySig:vector  ETV
1920077	408455 432 235 233937 20.35 43.356275011029 10 0.33333331346512 0.94602551683784 7.5017767138779 6.1556175563666
vector 1920078  Network.dyn_peer[4]  lookupTimeSig:vector  ETV
1920078	408887 315 235 233937 20.35 43.356275011029 10 0.3 5.6 21.5 83.21
vector 1920166  Network.dyn_peer[34]  lookupHopsSig:vector  ETV
1920166	443654 305 241 148859 20.35 37.813045826387 10 0 27 127 2031
vector 1920167  Network.dyn_peer[34]  lookupStabilitySig:vector  ETV
1920167	443959 417 241 148859 20.35 37.813045826387 10 0 1 8.3128378540278 7.7287890018017
vector 1920168  Network.dyn_peer[34]  lookupTimeSig:vector  ETV
1920168	444376 313 241 148859 20.35 37.813045826387 10 0 2.8 13.6 22.94
vector 1920091  Network.dyn_peer[9]  lookupHopsSig:vector  ETV
1920091	413966 402 276 343907 20.4 55.141026569654 13 2 44 254 7108
vector 1920092  Network.dyn_peer[9]  lookupStabilitySig:vector  ETV
1920092	414368 585 276 343907 20.4 55.141026569654 13 0.34615385532379 0.98609823919833 11.184486141428 10.19729655427
vector 1920093  Network.dyn_peer[9]  lookupTimeSig:vector  ETV
1920093	414953 415 276 343907 20.4 55.141026569654 13 0.3 4.5 26.6 76.22
vector 1920154  Network.dyn_peer[30]  lookupHopsSig:vector  ETV
1920154	439307 366 288 293758 20.41 48.210443706838 12 1 57 205 6785
vector 1920155  Network.dyn_peer[30]  lookupStabilitySig:vector  ETV
1920155	439673 524 288 293758 20.41 48.210443706838 12 0.5 0.99197860993445 10.440088539384 9.3442883952525
vector 1920156  Network.dyn_peer[30]  lookupTimeSig:vector  ETV
1920156	440197 383 288 293758 20.41 48.210443706838 12 0.1 5.8 21.6 72.04
vector 1920157  Network.dyn_peer[31]  lookupHopsSig:vector  ETV
1920157	440580 281 300 146293 20.42 37.638325306533 9 1 61 147 5119
vector 1920158  Network.dyn_peer[31]  lookupStabilitySig:vector  ETV
1920158	440861 408 300 146293 20.42 37.638325306533 9 0.5714285671711 0.9936305731535 7.6299210079014 6.6803302250487
vector 1920159  Network.dyn_peer[31]  lookupTimeSig:vector  ETV
1920159	441269 293 300 146293 20.42 37.638325306533 9 0.1 6.2 15.5 54.19
vector 1920100  Network.dyn_peer[12]  lookupHopsSig:vector  ETV
1920100	417805 367 314 209819 20.43 41.729940666447 12 3 45 172 4766
vector 1920101  Network.dyn_peer[12]  lookupStabilitySig:vector  ETV
1920101	418172 521 314 209819 20.43 41.729940666447 12 0.14285713434219 0.99355531670153 9.8051838241518 8.7756282515106
vector 1920102  Network.dyn_peer[12]  lookupTimeSig:vector  ETV
1920102	418693 386 314 209819 20.43 41.729940666447 12 0.3 4.6 18.3 51.15
vector 1920106  Network.dyn_peer[14]  lookupHopsSig:vector  ETV
1920106	420452 370 334 336131 20.45 53.603095318138 12 1 48 222 6658
vector 1920107  Network.dyn_peer[14]  lookupStabilitySig:vector  ETV
1920107	420822 513 334 336131 20.45 53.603095318138 12 0 0.99732620315626 9.9824617099948 9.28290907672
vector 1920108  Network.dyn_peer[14]  lookupTimeSig:vector  ETV
1920108	421335 385 334 336131 20.45 53.603095318138 12 0.2 4.9 23.3 71.07
vector 1920139  Network.dyn_peer[25]  lookupHopsSig:vector  ETV
1920139	432257 471 347 346394 20.46 55.702724514774 15 1 32 216 4386
vector 1920140  Network.dyn_peer[25]  lookupStabilitySig:vector  ETV
1920140	432728 687 347 346394 20.46 55.702724514774 15 0.10000002384186 0.99933110369602 13.084082514571 12.184354450408
vector 1920141  Network.dyn_peer[25]  lookupTimeSig:vector  ETV
1920141	433415 490 347 346394 20.46 55.702724514774 15 0.2 3.3 23 48.28
vector 1920142  Network.dyn_peer[26]  lookupHopsSig:vector  ETV
1920142	433905 333 357 254170 20.47 44.827085799381 11 2 69 192 7316
vector 1920143  Network.dyn_peer[26]  lookupStabilitySig:vector  ETV
1920143	434238 492 357 254170 20.47 44.827085799381 11 0.51612904667854 0.99168975092471 9.2885582726449 8.0856029032599
vector 1920144  Network.dyn_peer[26]  lookupTimeSig:vector  ETV
1920144	434730 347 357 254170 20.47 44.827085799381 11 0.2 7 20.2 77.06
vector 1920214  Network.dyn_peer[50]  lookupHopsSig:vector  ETV
1920214	466121 176 393 28794 20.51 27.084116138491 6 0 40 58 1700
vector 1920215  Network.dyn_peer[50]  lookupStabilitySig:vector  ETV
1920215	466297 248 393 28794 20.51 27.084116138491 6 0.28571426868439 1 4.6407136656344 3.918831628933
vector 1920216  Network.dyn_peer[50]  lookupTimeSig:vector  ETV
1920216	466545 185 393 28794 20.51 27.084116138491 6 0 4.1 6.3 18.21
vector 1920133  Network.dyn_peer[23]  lookupHopsSig:vector  ETV
1920133	430036 370 422 341526 20.54 54.632249556064 12 3 41 196 5064
vector 1920134  Network.dyn_peer[23]  lookupStabilitySig:vector  ETV
1920134	430406 519 422 341526 20.54 54.632249556064 12 0.125 0.99343675421551 9.9018521397375 8.9325061830016
vector 1920135  Network.dyn_peer[23]  lookupTimeSig:vector  ETV
1920135	430925 385 422 341526 20.54 54.632249556064 12 0.3 4.2 20.7 54.61
vector 1920115  Network.dyn_peer[17]  lookupHopsSig:vector  ETV
1920115	423692 373 461 261643 20.58 45.415842834175 12 4 56 231 6299
vector 1920116  Network.dyn_peer[17]  lookupStabilitySig:vector  ETV
1920116	424065 530 461 261643 20.58 45.415842834175 12 0.33333331346512 0.98720682319254 10.066309696995 9.0333925833215
vector 1920117  Network.dyn_peer[17]  lookupTimeSig:vector  ETV
1920117	424595 387 461 261643 20.58 45.415842834175 12 0.4 5.7 24.2 67.64
vector 1920145  Network.dyn_peer[27]  lookupHopsSig:vector  ETV
1920145	435077 369 465 335291 20.58 53.459959744181 12 3 65 236 9774
vector 1920146  Network.dyn_peer[27]  lookupStabilitySig:vector  ETV
1920146	435446 528 465 335291 20.58 53.459959744181 12 0.19999998807907 0.98745724093169 9.9996439022943 8.9600770987083
vector 1920147  Network.dyn_peer[27]  lookupTimeSig:vector  ETV
1920147	435974 386 465 335291 20.58 53.459959744181 12 0.3 6.6 24.7 102.51
vector 1920118  Network.dyn_peer[18]  lookupHopsSig:vector  ETV
1920118	424982 271 480 247580 20.59 44.330742746376 9 4 38 167 4303
vector 1920119  Network.dyn_peer[18]  lookupStabilitySig:vector  ETV
1920119	425253 399 480 247580 20.59 44.330742746376 9 0.33333331346512 0.97405004687607 6.8705231565982 5.7159623495131
vector 1920120  Network.dyn_peer[18]  lookupTimeSig:vector  ETV
1920120	425652 282 480 247580 20.59 44.330742746376 9 0.4 3.9 17.5 46.37
vector 1920160  Network.dyn_peer[32]  lookupHopsSig:vector  ETV
1920160	441562 271 520 198362 20.63 40.988845628318 9 3 49 155 4523
vector 1920161  Network.dyn_peer[32]  lookupStabilitySig:vector  ETV
1920161	441833 376 520 198362 20.63 40.988845628318 9 0.39130437374115 0.98636363632977 7.3779539465904 6.4470774399373
vector 1920162  Network.dyn_peer[32]  lookupTimeSig:vector  ETV
1920162	442209 279 520 198362 20.63 40.988845628318 9 0.3 5 16.3 48.35
vector 1920190  Network.dyn_peer[42]  lookupHopsSig:vector  ETV
1920190	453668 367 524 186526 20.63 40.23698948403 12 2 41 143 2959
vector 1920191  Network.dyn_peer[42]  lookupStabilitySig:vector  ETV
1920191	454035 540 524 186526 20.63 40.23698948403 12 0.14285713434219 0.99647473567165 10.1629209409 9.3040083544264
vector 1920192  Network.dyn_peer[42]  lookupTimeSig:vector  ETV
1920192	454575 382 524 186526 20.63 40.23698948403 12 0.2 4.2 15.4 32.52
vector 1920193  Network.dyn_peer[43]  lookupHopsSig:vector  ETV
1920193	454957 466 537 312718 20.64 50.234633711704 15 2 28 186 3714
vector 1920194  Network.dyn_peer[43]  lookupStabilitySig:vector  ETV
1920194	455423 671 537 312718 20.64 50.234633711704 15 0.42857140302658 0.99747262010351 13.097288312856 11.810248663361
vector 1920195  Network.dyn_peer[43]  lookupTimeSig:vector  ETV
1920195	456094 488 537 312718 20.64 50.234633711704 15 0.2 2.9 20 40.96
vector 1920175  Network.dyn_peer[37]  lookupHopsSig:vector  ETV
1920175	448094 438 584 304208 20.68 49.277201297371 14 3 53 236 6544
vector 1920176  Network.dyn_peer[37]  lookupStabilitySig:vector  ETV
1920176	448532 626 584 304208 20.68 49.277201297371 14 0.35000002384186 0.99520383682102 12.201455180533 11.125700545991
vector 1920177  Network.dyn_peer[37]  lookupTimeSig:vector  ETV
1920177	449158 455 584 304208 20.68 49.277201297371 14 0.3 5.4 24.9 70.23
vector 1920151  Network.dyn_peer[29]  lookupHopsSig:vector  ETV
1920151	437776 440 611 352646 20.7 57.34395556194 14 4 76 333 13009
vector 1920152  Network.dyn_peer[29]  lookupStabilitySig:vector  ETV
1920152	438216 637 611 352646 20.7 57.34395556194 14 0.26666665077209 0.99280575523153 11.967358797323 10.96631894158
vector 1920153  Network.dyn_peer[29]  lookupTimeSig:vector  ETV
1920153	438853 454 611 352646 20.7 57.34395556194 14 0.4 7.7 34.6 136.8
vector 1920250  Network.dyn_peer[62]  lookupHopsSig:vector  ETV
1920250	481222 270 648 245351 20.73 44.167562159099 9 1 43 182 5778
vector 1920251  Network.dyn_peer[62]  lookupStabilitySig:vector  ETV
1920251	481492 399 648 245351 20.73 44.167562159099 9 0.5714285671711 0.98279158771038 7.5335678122938 6.4664469935256
vector 1920252  Network.dyn_peer[62]  lookupTimeSig:vector  ETV
1920252	481891 279 648 245351 20.73 44.167562159099 9 0.1 4.4 19 61.48
vector 1920136  Network.dyn_peer[24]  lookupHopsSig:vector  ETV
1920136	431310 269 674 113799 20.75 35.268010744283 9 5 40 127 2691
vector 1920137  Network.dyn_peer[24]  lookupStabilitySig:vector  ETV
1920137	431579 398 674 113799 20.75 35.268010744283 9 0.16666668653488 0.97948717884719 6.98508592695 6.1189057405782
vector 1920138  Network.dyn_peer[24]  lookupTimeSig:vector  ETV
1920138	431977 280 674 113799 20.75 35.268010744283 9 0.5 4.1 13.5 29.43
vector 1920109  Network.dyn_peer[15]  lookupHopsSig:vector  ETV
1920109	421720 332 693 165944 20.76 38.945094791815 11 1 46 139 3625
vector 1920110  Network.dyn_peer[15]  lookupStabilitySig:vector  ETV
1920110	422052 477 693 165944 20.76 38.945094791815 11 0 0.99615877075121 8.8321424829774 8.0622914636555
vector 1920111  Network.dyn_peer[15]  lookupTimeSig:vector  ETV
1920111	422529 350 693 165944 20.76 38.945094791815 11 0.2 4.7 14.9 39.01
vector 1920169  Network.dyn_peer[35]  lookupHopsSig:vector  ETV
1920169	444689 571 697 365708 20.76 62.954979187127 18 2 57 354 10464
vector 1920170  Network.dyn_peer[35]  lookupStabilitySig:vector  ETV
1920170	445260 827 697 365708 20.76 62.954979187127 18 0.33333331346512 0.99318955745548 16.106676179916 14.909208623019
vector 1920171  Network.dyn_peer[35]  lookupTimeSig:vector  ETV
1920171	446087 591 697 365708 20.76 62.954979187127 18 0.3 5.8 37.1 111.81
vector 1920199  Network.dyn_peer[45]  lookupHopsSig:vector  ETV
1920199	459068 405 701 295797 20.76 48.415458271068 13 3 39 209 4735
vector 1920200  Network.dyn_peer[45]  lookupStabilitySig:vector  ETV
1920200	459473 567 701 295797 20.76 48.415458271068 13 0.5 0.98941798973829 11.50103737507 10.538980591622
vector 1920201  Network.dyn_peer[45]  lookupTimeSig:vector  ETV
1920201	460040 417 701 295797 20.76 48.415458271068 13 0.3 4 22.1 51.59
vector 1920304  Network.dyn_peer[80]  lookupHopsSig:vector  ETV
1920304	501346 437 762 359447 20.81 59.681361703293 14 0 47 278 8406
vector 1920305  Network.dyn_peer[80]  lookupStabilitySig:vector  ETV
1920305	501783 621 762 359447 20.81 59.681361703293 14 0.39999997615814 1 12.655599117279 11.7446711917
vector 1920306  Network.dyn_peer[80]  lookupTimeSig:vector  ETV
1920306	502404 451 762 359447 20.81 59.681361703293 14 0 4.8 29.1 89.75
vector 1920202  Network.dyn_peer[46]  lookupHopsSig:vector  ETV
1920202	460457 339 838 181874 20.87 39.946467068457 11 4 24 174 3234
vector 1920203  Network.dyn_peer[46]  lookupStabilitySig:vector  ETV
1920203	460796 496 838 181874 20.87 39.946467068457 11 0.39999997615814 0.98201438784599 9.1803967989981 8.1299244683748
vector 1920204  Network.dyn_peer[46]  lookupTimeSig:vector  ETV
1920204	461292 349 838 181874 20.87 39.946467068457 11 0.4 2.5 18.4 35.84
vector 1920232  Network.dyn_peer[56]  lookupHopsSig:vector  ETV
1920232	473652 475 842 350766 20.87 56.807682967602 15 2 42 276 7124
vector 1920233  Network.dyn_peer[56]  lookupStabilitySig:vector  ETV
1920233	474127 686 842 350766 20.87 56.807682967602 15 0.42105263471603 0.99886104778852 13.363679158851 12.308139304485
vector 1920234  Network.dyn_peer[56]  lookupTimeSig:vector  ETV
1920234	474813 489 842 350766 20.87 56.807682967602 15 0.3 4.3 29 76.84
vector 1920148  Network.dyn_peer[28]  lookupHopsSig:vector  ETV
1920148	436360 403 872 344919 20.89 55.361938132305 13 3 104 276 15626
vector 1920149  Network.dyn_peer[28]  lookupStabilitySig:vector  ETV
1920149	436763 590 872 344919 20.89 55.361938132305 13 0.14285713434219 0.99481327785179 10.968585833441 9.9742254015952
vector 1920150  Network.dyn_peer[28]  lookupTimeSig:vector  ETV
1920150	437353 423 872 344919 20.89 55.361938132305 13 0.4 10.5 28.8 161.78
vector 1920211  Network.dyn_peer[49]  lookupHopsSig:vector  ETV
1920211	464133 568 892 351130 20.9 56.909279959933 18 2 80 307 11441
vector 1920212  Network.dyn_peer[49]  lookupStabilitySig:vector  ETV
1920212	464701 827 892 351130 20.9 56.909279959933 18 0.39999997615814 0.99601593613625 16.252407104708 15.225073879766
vector 1920213  Network.dyn_peer[49]  lookupTimeSig:vector  ETV
1920213	465528 593 892 351130 20.9 56.909279959933 18 0.3 8.1 32.4 120.64
vector 1920271  Network.dyn_peer[69]  lookupHopsSig:vector  ETV
1920271	489429 438 896 348591 20.9 56.233775694827 14 2 106 325 17473
vector 1920272  Network.dyn_peer[69]  lookupStabilitySig:vector  ETV
1920272	489867 627 896 348591 20.9 56.233775694827 14 0.5714285671711 0.99219687888399 12.378492950927 11.154497526947
vector 1920273  Network.dyn_peer[69]  lookupTimeSig:vector  ETV
1920273	490494 456 896 348591 20.9 56.233775694827 14 0.2 10.7 33.8 181.32
vector 1920316  Network.dyn_peer[84]  lookupHopsSig:vector  ETV
1920316	506497 302 960 277579 20.95 46.734483431768 10 1 51 172 5098
vector 1920317  Network.dyn_peer[84]  lookupStabilitySig:vector  ETV
1920317	506799 446 960 277579 20.95 46.734483431768 10 0.54545453190804 0.98175787739456 8.7442888375372 7.8046324678891
vector 1920318  Network.dyn_peer[84]  lookupTimeSig:vector  ETV
1920318	507245 314 960 277579 20.95 46.734483431768 10 0.1 5.2 18.1 54.49
vector 1920235  Network.dyn_peer[57]  lookupHopsSig:vector  ETV
1920235	475302 303 1002 217430 20.98 42.232942060343 10 3 51 165 5097
vector 1920236  Network.dyn_peer[57]  lookupStabilitySig:vector  ETV
1920236	475605 446 1002 217430 20.98 42.232942060343 10 0.42857140302658 0.97894736751914 8.6079543754458 7.7230312211004
vector 1920237  Network.dyn_peer[57]  lookupTimeSig:vector  ETV
1920237	476051 316 1002 217430 20.98 42.232942060343 10 0.4 5.2 17.4 54.28
vector 1920187  Network.dyn_peer[41]  lookupHopsSig:vector  ETV
1920187	452822 242 1060 214150 21.02 42.014371631927 8 6 37 137 3155
vector 1920188  Network.dyn_peer[41]  lookupStabilitySig:vector  ETV
1920188	453064 356 1060 214150 21.02 42.014371631927 8 0.14285713434219 0.98930481262505 6.2948119286448 5.5408480074003
vector 1920189  Network.dyn_peer[41]  lookupTimeSig:vector  ETV
1920189	453420 248 1060 214150 21.02 42.014371631927 8 0.6 3.8 14.4 34.24
vector 1920307  Network.dyn_peer[81]  lookupHopsSig:vector  ETV
1920307	502855 332 1064 115193 21.02 35.374097448935 11 1 41 120 2492
vector 1920308  Network.dyn_peer[81]  lookupStabilitySig:vector  ETV
1920308	503187 490 1064 115193 21.02 35.374097448935 11 0.66666665673256 0.96742670983076 9.6259343400598 8.5257017756581
vector 1920309  Network.dyn_peer[81]  lookupTimeSig:vector  ETV
1920309	503677 348 1064 115193 21.02 35.374097448935 11 0.2 4.2 13 27.38
vector 1920352  Network.dyn_peer[96]  lookupHopsSig:vector  ETV
1920352	520295 272 1143 210982 21.07 41.807815651001 9 1 30 126 2672
vector 1920353  Network.dyn_peer[96]  lookupStabilitySig:vector  ETV
1920353	520567 401 1143 210982 21.07 41.807815651001 9 0.73333331942558 0.98501070681959 7.9437799202278 7.0738752493109
vector 1920354  Network.dyn_peer[96]  lookupTimeSig:vector  ETV
1920354	520968 284 1143 210982 21.07 41.807815651001 9 0.1 3.1 13.4 29.3
vector 1920268  Network.dyn_peer[68]  lookupHopsSig:vector  ETV
1920268	488236 343 1175 326992 21.09 52.122567858284 11 4 53 238 7218
vector 1920269  Network.dyn_peer[68]  lookupStabilitySig:vector  ETV
1920269	488579 498 1175 326992 21.09 52.122567858284 11 0.42857140302658 0.99086378701031 9.5649085883051 8.6150145973072
vector 1920270  Network.dyn_peer[68]  lookupTimeSig:vector  ETV
1920270	489077 352 1175 326992 21.09 52.122567858284 11 0.4 5.4 24.8 76.96
vector 1920244  Network.dyn_peer[60]  lookupHopsSig:vector  ETV
1920244	479305 337 1210 321378 21.11 51.32849516333 11 3 84 256 12292
vector 1920245  Network.dyn_peer[60]  lookupStabilitySig:vector  ETV
1920245	479642 494 1210 321378 21.11 51.32849516333 11 0.28571426868439 0.99041533563286 9.2151761902496 8.1440224558623
vector 1920246  Network.dyn_peer[60]  lookupTimeSig:vector  ETV
1920246	480136 350 1210 321378 21.11 51.32849516333 11 0.4 8.5 26.6 128.04
vector 1920343  Network.dyn_peer[93]  lookupHopsSig:vector  ETV
1920343	516633 273 1266 243207 21.14 44.012925199636 9 2 29 106 1954
vector 1920344  Network.dyn_peer[93]  lookupStabilitySig:vector  ETV
1920344	516906 402 1266 243207 21.14 44.012925199636 9 0.67924529314041 0.98881431762129 8.1392896762118 7.4758012163485
vector 1920345  Network.dyn_peer[93]  lookupTimeSig:vector  ETV
1920345	517308 284 1266 243207 21.14 44.012925199636 9 0.2 3 11.4 21.7
vector 1920373  Network.dyn_peer[103]  lookupHopsSig:vector  ETV
1920373	526772 369 1270 203820 21.14 41.338047547247 12 1 20 147 2275
vector 1920374  Network.dyn_peer[103]  lookupStabilitySig:vector  ETV
1920374	527141 540 1270 203820 21.14 41.338047547247 12 0.64285713434219 0.98684210516512 10.842477295548 9.9144771065483
vector 1920375  Network.dyn_peer[103]  lookupTimeSig:vector  ETV
1920375	527681 382 1270 203820 21.14 41.338047547247 12 0.1 2.1 15.8 25.78
vector 1920262  Network.dyn_peer[66]  lookupHopsSig:vector  ETV
1920262	486083 175 1321 58825 21.17 30.538502747951 6 5 25 88 1544
vector 1920263  Network.dyn_peer[66]  lookupStabilitySig:vector  ETV
1920263	486258 259 1321 58825 21.17 30.538502747951 6 0.28571426868439 0.93392070382833 4.5852821469307 3.8274452174002
vector 1920264  Network.dyn_peer[66]  lookupTimeSig:vector  ETV
1920264	486517 182 1321 58825 21.17 30.538502747951 6 0.5 2.6 9.3 17.15
vector 1920292  Network.dyn_peer[76]  lookupHopsSig:vector  ETV
1920292	497419 269 1325 71840 21.17 31.776665565027 9 2 22 90 1408
vector 1920293  Network.dyn_peer[76]  lookupStabilitySig:vector  ETV
1920293	497688 393 1325 71840 21.17 31.776665565027 9 0.42857140302658 0.98823529388756 7.5645396141335 6.6342791001307
vector 1920294  Network.dyn_peer[76]  lookupTimeSig:vector  ETV
1920294	498081 279 1325 71840 21.17 31.776665565027 9 0.3 2.3 9.8 15.88
vector 1920265  Network.dyn_peer[67]  lookupHopsSig:vector  ETV
1920265	486699 444 1345 360319 21.18 60.049318689718 14 3 70 326 11606
vector 1920266  Network.dyn_peer[67]  lookupStabilitySig:vector  ETV
1920266	487143 633 1345 360319 21.18 60.049318689718 14 0.28571426868439 0.99668141594157 12.395226537716 11.483500072718
vector 1920267  Network.dyn_peer[67]  lookupTimeSig:vector  ETV
1920267	487776 460 1345 360319 21.18 60.049318689718 14 0.4 7.1 33.9 122.61
vector 1920238  Network.dyn_peer[58]  lookupHopsSig:vector  ETV
1920238	476367 403 1362 304897 21.19 49.349560212091 13 3 81 275 11709
vector 1920239  Network.dyn_peer[58]  lookupStabilitySig:vector  ETV
1920239	476770 588 1362 304897 21.19 49.349560212091 13 0.14285713434219 0.99055918678641 11.020643855445 9.9727995539854
vector 1920240  Network.dyn_peer[58]  lookupTimeSig:vector  ETV
1920240	477358 419 1362 304897 21.19 49.349560212091 13 0.4 8.2 28.7 122.59
vector 1920274  Network.dyn_peer[70]  lookupHopsSig:vector  ETV
1920274	490950 369 1395 285456 21.21 47.426595057389 12 5 41 220 6118
vector 1920275  Network.dyn_peer[70]  lookupStabilitySig:vector  ETV
1920275	491319 542 1395 285456 21.21 47.426595057389 12 0.28571426868439 0.97734138928354 10.281021201983 9.2606738332152
vector 1920276  Network.dyn_peer[70]  lookupTimeSig:vector  ETV
1920276	491861 382 1395 285456 21.21 47.426595057389 12 0.5 4.2 23.1 65.59
vector 1920217  Network.dyn_peer[51]  lookupHopsSig:vector  ETV
1920217	466730 503 1413 341649 21.22 54.653970188622 16 1 48 270 7562
vector 1920218  Network.dyn_peer[51]  lookupStabilitySig:vector  ETV
1920218	467233 705 1413 341649 21.22 54.653970188622 16 0 0.9928986444138 14.02296881238 13.221950580775
vector 1920219  Network.dyn_peer[51]  lookupTimeSig:vector  ETV
1920219	467938 524 1413 341649 21.22 54.653970188622 16 0.2 4.9 28.5 81.03
vector 1920310  Network.dyn_peer[82]  lookupHopsSig:vector  ETV
1920310	504025 306 1435 230629 21.23 43.123987045669 10 3 45 168 4320
vector 1920311  Network.dyn_peer[82]  lookupStabilitySig:vector  ETV
1920311	504331 425 1435 230629 21.23 43.123987045669 10 0.42857140302658 0.97916666604578 8.554978441447 7.5913038583398
vector 1920312  Network.dyn_peer[82]  lookupTimeSig:vector  ETV
1920312	504756 319 1435 230629 21.23 43.123987045669 10 0.4 4.6 17.7 46.57
vector 1920340  Network.dyn_peer[92]  lookupHopsSig:vector  ETV
1920340	515871 219 1439 150986 21.23 37.956529103104 7 3 52 142 4316
vector 1920341  Network.dyn_peer[92]  lookupStabilitySig:vector  ETV
1920341	516090 316 1439 150986 21.23 37.956529103104 7 0.5714285671711 0.95150115340948 5.9173594303429 5.141678582557
vector 1920342  Network.dyn_peer[92]  lookupTimeSig:vector  ETV
1920342	516406 227 1439 150986 21.23 37.956529103104 7 0.3 5.3 14.8 46
vector 1920370  Network.dyn_peer[102]  lookupHopsSig:vector  ETV
1920370	525701 305 1443 215489 21.23 42.10471630833 10 2 22 124 1872
vector 1920371  Network.dyn_peer[102]  lookupStabilitySig:vector  ETV
1920371	526006 448 1443 215489 21.23 42.10471630833 10 0.67441859841347 0.98529411759228 9.0516685983166 8.3108163457497
vector 1920372  Network.dyn_peer[102]  lookupTimeSig:vector  ETV
1920372	526454 318 1443 215489 21.23 42.10471630833 10 0.2 2.3 13.3 21.25
vector 1920319  Network.dyn_peer[85]  lookupHopsSig:vector  ETV
1920319	507559 374 1501 292707 21.26 48.110070118206 12 3 42 235 7299
vector 1920320  Network.dyn_peer[85]  lookupStabilitySig:vector  ETV
1920320	507933 544 1501 292707 21.26 48.110070118206 12 0.42857140302658 0.98957346007228 10.610282521695 9.6729585633458
vector 1920321  Network.dyn_peer[85]  lookupTimeSig:vector  ETV
1920321	508477 388 1501 292707 21.26 48.110070118206 12 0.4 4.3 24.6 77.72
vector 1920172  Network.dyn_peer[36]  lookupHopsSig:vector  ETV
1920172	446678 402 1519 216673 21.27 42.184916948713 13 1 42 174 4074
vector 1920173  Network.dyn_peer[36]  lookupStabilitySig:vector  ETV
1920173	447080 592 1519 216673 21.27 42.184916948713 13 -0.28571426868439 0.99097938183695 10.896496825852 10.568738365383