file 410159 1369933126                                          
version 2
run Stability2-47-20130528-01:26:39-24168
attr configname Stability2
attr datetime 20130528-01:26:39
attr experiment Stability2
attr inifile omnetpp.ini
attr iterationvars $0=50
attr iterationvars2 "$0=50, $repetition=7"
attr measurement $0=50
attr network Network
attr processid 24168
attr repetition 7
attr replication #7
attr resultdir results
attr runnumber 47
attr seedset 47
vector 1440047  Network.churner  inGoingSizeSig:vector  ETV
1440047	398816 11343 10 15593 20 25 501 0 388 107085 29085573
vector 1410053  Network.dyn_peer[2]  lookupHopsSig:vector  ETV
1410053	101965 177 23 24684 20.03 26.863448353492 6 0 25 63 1189
vector 1410054  Network.dyn_peer[2]  lookupStabilitySig:vector  ETV
1410054	102142 248 23 24684 20.03 26.863448353492 6 0.42857140302658 1 4.4115865752101 3.4914288486937
vector 1410055  Network.dyn_peer[2]  lookupTimeSig:vector  ETV
1410055	102390 184 23 24684 20.03 26.863448353492 6 0 2.6 6.8 13.2
vector 1410059  Network.dyn_peer[4]  lookupHopsSig:vector  ETV
1410059	103396 165 34 22144 20.05 26.305271010161 6 0 33 57 1267
vector 1410060  Network.dyn_peer[4]  lookupStabilitySig:vector  ETV
1410060	103561 225 34 22144 20.05 26.305271010161 6 0.19999998807907 1 3.8375411108136 2.9249311344261
vector 1410061  Network.dyn_peer[4]  lookupTimeSig:vector  ETV
1410061	103786 173 34 22144 20.05 26.305271010161 6 0 3.4 6.2 13.86
vector 1410068  Network.dyn_peer[7]  lookupHopsSig:vector  ETV
1410068	105046 230 47 37766 20.08 31.115217024564 8 0 32 93 1983
vector 1410069  Network.dyn_peer[7]  lookupStabilitySig:vector  ETV
1410069	105276 306 47 37766 20.08 31.115217024564 8 0.19999998807907 1 6.1054982319474 5.2008893694098
vector 1410070  Network.dyn_peer[7]  lookupTimeSig:vector  ETV
1410070	105582 240 47 37766 20.08 31.115217024564 8 0 3.3 10 21.76
vector 1410074  Network.dyn_peer[9]  lookupHopsSig:vector  ETV
1410074	106734 83 57 15342 20.1 24.959080081367 3 0 21 39 765
vector 1410075  Network.dyn_peer[9]  lookupStabilitySig:vector  ETV
1410075	106817 95 57 15342 20.1 24.959080081367 3 0 1 1.8407079577446 1.7067898702151
vector 1410076  Network.dyn_peer[9]  lookupTimeSig:vector  ETV
1410076	106912 85 57 15342 20.1 24.959080081367 3 0 2.2 4.1 8.45
vector 1410047  Network.dyn_peer[0]  lookupHopsSig:vector  ETV
1410047	100122 297 64 38601 20.11 31.622190109872 10 1 23 101 1503
vector 1410048  Network.dyn_peer[0]  lookupStabilitySig:vector  ETV
1410048	100419 433 64 38601 20.11 31.622190109872 10 -0.10000002384186 0.95238095149398 7.5105745270848 6.5823745360214
vector 1410049  Network.dyn_peer[0]  lookupTimeSig:vector  ETV
1410049	100852 308 64 38601 20.11 31.622190109872 10 0.1 2.4 11 17.12
vector 1410050  Network.dyn_peer[1]  lookupHopsSig:vector  ETV
1410050	101160 229 72 30062 20.12 28.177239186768 8 1 18 58 654
vector 1410051  Network.dyn_peer[1]  lookupStabilitySig:vector  ETV
1410051	101389 334 72 30062 20.12 28.177239186768 8 0.15384614467621 0.93292682617903 5.7774851545692 4.7760171738791
vector 1410052  Network.dyn_peer[1]  lookupTimeSig:vector  ETV
1410052	101723 242 72 30062 20.12 28.177239186768 8 0.1 1.9 6.5 7.75
vector 1410086  Network.dyn_peer[13]  lookupHopsSig:vector  ETV
1410086	109835 136 86 21453 20.14 26.160994550036 5 0 19 48 774
vector 1410087  Network.dyn_peer[13]  lookupStabilitySig:vector  ETV
1410087	109971 194 86 21453 20.14 26.160994550036 5 -0.35714280605316 1 3.3050595670939 3.4911820111647
vector 1410088  Network.dyn_peer[13]  lookupTimeSig:vector  ETV
1410088	110165 138 86 21453 20.14 26.160994550036 5 0 2 5.2 8.74
vector 1410104  Network.dyn_peer[19]  lookupHopsSig:vector  ETV
1410104	113963 200 113 34586 20.2 29.618694787323 7 0 32 88 2010
vector 1410105  Network.dyn_peer[19]  lookupStabilitySig:vector  ETV
1410105	114163 287 113 34586 20.2 29.618694787323 7 -0.18181812763214 1 4.8960393359885 4.4476831801454
vector 1410106  Network.dyn_peer[19]  lookupTimeSig:vector  ETV
1410106	114450 208 113 34586 20.2 29.618694787323 7 0 3.3 9.4 21.92
vector 1410077  Network.dyn_peer[10]  lookupHopsSig:vector  ETV
1410077	106997 262 121 32200 20.21 28.793429798477 9 1 20 65 841
vector 1410078  Network.dyn_peer[10]  lookupStabilitySig:vector  ETV
1410078	107259 394 121 32200 20.21 28.793429798477 9 0.44444441795349 0.96000000089407 7.0594470016658 5.8177290394823
vector 1410079  Network.dyn_peer[10]  lookupTimeSig:vector  ETV
1410079	107653 275 121 32200 20.21 28.793429798477 9 0.1 2.1 7.3 9.77
vector 1410080  Network.dyn_peer[11]  lookupHopsSig:vector  ETV
1410080	107928 301 130 41150 20.22 33.740331142441 10 1 18 112 1504
vector 1410081  Network.dyn_peer[11]  lookupStabilitySig:vector  ETV
1410081	108229 445 130 41150 20.22 33.740331142441 10 -0.33333337306976 0.97989949770272 7.9180572386831 7.7276147167182
vector 1410082  Network.dyn_peer[11]  lookupTimeSig:vector  ETV
1410082	108674 313 130 41150 20.22 33.740331142441 10 0.1 1.9 12.1 17.35
vector 1410083  Network.dyn_peer[12]  lookupHopsSig:vector  ETV
1410083	108987 245 138 36034 20.23 30.225340817043 8 1 25 92 1550
vector 1410084  Network.dyn_peer[12]  lookupStabilitySig:vector  ETV
1410084	109232 350 138 36034 20.23 30.225340817043 8 0.125 0.92997198551893 5.8203801065683 4.738724898511
vector 1410085  Network.dyn_peer[12]  lookupTimeSig:vector  ETV
1410085	109582 253 138 36034 20.23 30.225340817043 8 0.1 2.6 9.9 17.39
vector 1410089  Network.dyn_peer[14]  lookupHopsSig:vector  ETV
1410089	110303 228 155 29829 20.25 28.110787743994 8 1 21 69 1033
vector 1410090  Network.dyn_peer[14]  lookupStabilitySig:vector  ETV
1410090	110531 334 155 29829 20.25 28.110787743994 8 0.39999997615814 0.94331983849406 5.9344278015196 4.6139164379549
vector 1410091  Network.dyn_peer[14]  lookupTimeSig:vector  ETV
1410091	110865 241 155 29829 20.25 28.110787743994 8 0.1 2.2 7.6 11.76
vector 1410092  Network.dyn_peer[15]  lookupHopsSig:vector  ETV
1410092	111106 267 165 33613 20.26 29.243501391365 9 1 23 80 1266
vector 1410093  Network.dyn_peer[15]  lookupStabilitySig:vector  ETV
1410093	111373 397 165 33613 20.26 29.243501391365 9 -0.11111116409302 0.9967845659703 6.7580303945579 6.0130441586522
vector 1410094  Network.dyn_peer[15]  lookupTimeSig:vector  ETV
1410094	111770 281 165 33613 20.26 29.243501391365 9 0.1 2.4 8.8 14.32
vector 1410062  Network.dyn_peer[5]  lookupHopsSig:vector  ETV
1410062	103959 170 231 33625 20.36 29.249577182227 6 3 36 84 1876
vector 1410063  Network.dyn_peer[5]  lookupStabilitySig:vector  ETV
1410063	104129 257 231 33625 20.36 29.249577182227 6 -0.10000002384186 0.94871794804931 3.5538581423461 2.8649636399955
vector 1410064  Network.dyn_peer[5]  lookupTimeSig:vector  ETV
1410064	104386 178 231 33625 20.36 29.249577182227 6 0.3 3.7 8.9 20.43
vector 1410065  Network.dyn_peer[6]  lookupHopsSig:vector  ETV
1410065	104564 138 241 29374 20.37 27.985877296497 5 3 25 75 1511
vector 1410066  Network.dyn_peer[6]  lookupStabilitySig:vector  ETV
1410066	104702 199 241 29374 20.37 27.985877296497 5 0.25925928354263 0.89626555889845 3.2638581469655 2.4905767452631
vector 1410067  Network.dyn_peer[6]  lookupTimeSig:vector  ETV
1410067	104901 145 241 29374 20.37 27.985877296497 5 0.3 2.6 7.9 16.59
vector 1410095  Network.dyn_peer[16]  lookupHopsSig:vector  ETV
1410095	112051 171 245 29378 20.37 27.987352006792 6 2 13 47 497
vector 1410096  Network.dyn_peer[16]  lookupStabilitySig:vector  ETV
1410096	112222 259 245 29378 20.37 27.987352006792 6 -0.10000002384186 0.97959183715284 4.0804868433625 3.635624401289
vector 1410097  Network.dyn_peer[16]  lookupTimeSig:vector  ETV
1410097	112481 180 245 29378 20.37 27.987352006792 6 0.2 1.4 5.2 5.92
vector 1410071  Network.dyn_peer[8]  lookupHopsSig:vector  ETV
1410071	105822 262 262 28192 20.39 27.67717266033 9 1 18 63 695
vector 1410072  Network.dyn_peer[8]  lookupStabilitySig:vector  ETV
1410072	106084 374 262 28192 20.39 27.67717266033 9 -0.29999995231628 0.9921259842813 6.490185815841 6.1162478383286
vector 1410073  Network.dyn_peer[8]  lookupTimeSig:vector  ETV
1410073	106458 276 262 28192 20.39 27.67717266033 9 0.2 1.9 7.1 8.23
vector 1410101  Network.dyn_peer[18]  lookupHopsSig:vector  ETV
1410101	113362 168 266 20367 20.39 25.941475843451 6 1 31 50 1092
vector 1410102  Network.dyn_peer[18]  lookupStabilitySig:vector  ETV
1410102	113530 255 266 20367 20.39 25.941475843451 6 0.59999999403954 0.9545454531908 4.8029674217105 3.9497698071547
vector 1410103  Network.dyn_peer[18]  lookupTimeSig:vector  ETV
1410103	113785 178 266 20367 20.39 25.941475843451 6 0.2 3.2 5.5 11.93
vector 1410110  Network.dyn_peer[21]  lookupHopsSig:vector  ETV
1410110	115138 233 291 32868 20.42 28.999251900295 8 1 12 49 413
vector 1410111  Network.dyn_peer[21]  lookupStabilitySig:vector  ETV
1410111	115371 336 291 32868 20.42 28.999251900295 8 0 0.99659863952547 6.0719870189205 5.4331744149296
vector 1410112  Network.dyn_peer[21]  lookupTimeSig:vector  ETV
1410112	115707 245 291 32868 20.42 28.999251900295 8 0.2 1.3 5.6 5.14
vector 1410056  Network.dyn_peer[3]  lookupHopsSig:vector  ETV
1410056	102574 231 311 30222 20.44 28.21557513361 8 2 16 66 702
vector 1410057  Network.dyn_peer[3]  lookupStabilitySig:vector  ETV
1410057	102805 348 311 30222 20.44 28.21557513361 8 0.19999998807907 0.9545454531908 5.7192934639752 4.8274594877558
vector 1410058  Network.dyn_peer[3]  lookupTimeSig:vector  ETV
1410058	103153 243 311 30222 20.44 28.21557513361 8 0.3 1.7 7.3 8.33
vector 1410098  Network.dyn_peer[17]  lookupHopsSig:vector  ETV
1410098	112661 201 347 32897 20.48 29.008833598488 7 2 29 82 1768
vector 1410099  Network.dyn_peer[17]  lookupStabilitySig:vector  ETV
1410099	112862 290 347 32897 20.48 29.008833598488 7 0.39999997615814 0.98310810886323 4.9354890268296 3.7489101872648
vector 1410100  Network.dyn_peer[17]  lookupTimeSig:vector  ETV
1410100	113152 210 347 32897 20.48 29.008833598488 7 0.3 3 8.8 19.32
vector 1410137  Network.dyn_peer[30]  lookupHopsSig:vector  ETV
1410137	121544 264 375 35728 20.51 30.080749963648 9 1 23 67 949
vector 1410138  Network.dyn_peer[30]  lookupStabilitySig:vector  ETV
1410138	121808 384 375 35728 20.51 30.080749963648 9 0.45454543828964 0.93859649077058 7.2684142552316 6.1136740780681
vector 1410139  Network.dyn_peer[30]  lookupTimeSig:vector  ETV
1410139	122192 279 375 35728 20.51 30.080749963648 9 0.2 2.4 7.5 10.87
vector 1410140  Network.dyn_peer[31]  lookupHopsSig:vector  ETV
1410140	122471 357 389 37666 20.52 31.058199832649 12 1 36 88 1630
vector 1410141  Network.dyn_peer[31]  lookupStabilitySig:vector  ETV
1410141	122828 490 389 37666 20.52 31.058199832649 12 0.5 0.98287671245635 10.055469136685 8.7397732742469
vector 1410142  Network.dyn_peer[31]  lookupTimeSig:vector  ETV
1410142	123318 379 389 37666 20.52 31.058199832649 12 0.2 3.7 9.9 18.13
vector 1410122  Network.dyn_peer[25]  lookupHopsSig:vector  ETV
1410122	117647 170 430 30462 20.56 28.2807556234 6 3 22 75 1193
vector 1410123  Network.dyn_peer[25]  lookupStabilitySig:vector  ETV
1410123	117817 258 430 30462 20.56 28.2807556234 6 -0.071428537368774 0.98039215616882 3.88613900356 3.3467194964873
vector 1410124  Network.dyn_peer[25]  lookupTimeSig:vector  ETV
1410124	118075 178 430 30462 20.56 28.2807556234 6 0.3 2.3 8 13.42
vector 1410170  Network.dyn_peer[41]  lookupHopsSig:vector  ETV
1410170	129747 232 490 28535 20.62 27.760488969603 8 2 17 62 638
vector 1410171  Network.dyn_peer[41]  lookupStabilitySig:vector  ETV
1410171	129979 339 490 28535 20.62 27.760488969603 8 0.4375 0.96943231485784 6.1303652692586 5.0479252741992
vector 1410172  Network.dyn_peer[41]  lookupTimeSig:vector  ETV
1410172	130318 242 490 28535 20.62 27.760488969603 8 0.2 1.8 6.9 7.65
vector 1410116  Network.dyn_peer[23]  lookupHopsSig:vector  ETV
1410116	116335 263 514 28480 20.64 27.749713124423 9 3 17 51 443
vector 1410117  Network.dyn_peer[23]  lookupStabilitySig:vector  ETV
1410117	116598 386 514 28480 20.64 27.749713124423 9 0.33333331346512 0.98245614022017 6.7909701224417 5.5281918212006
vector 1410118  Network.dyn_peer[23]  lookupTimeSig:vector  ETV
1410118	116984 280 514 28480 20.64 27.749713124423 9 0.4 1.8 5.9 5.45
vector 1410152  Network.dyn_peer[35]  lookupHopsSig:vector  ETV
1410152	125701 235 538 32859 20.66 28.997521329187 8 3 22 79 1089
vector 1410153  Network.dyn_peer[35]  lookupStabilitySig:vector  ETV
1410153	125936 322 538 32859 20.66 28.997521329187 8 0 0.97619047574699 5.9220336880535 5.170077574886
vector 1410154  Network.dyn_peer[35]  lookupTimeSig:vector  ETV
1410154	126258 247 538 32859 20.66 28.997521329187 8 0.3 2.3 8.6 12.48
vector 1410185  Network.dyn_peer[46]  lookupHopsSig:vector  ETV
1410185	132707 237 553 33770 20.67 29.298998584645 8 2 24 81 1159
vector 1410186  Network.dyn_peer[46]  lookupStabilitySig:vector  ETV
1410186	132944 336 553 33770 20.67 29.298998584645 8 0 0.99050632957369 6.1169562088326 5.4351895323901
vector 1410187  Network.dyn_peer[46]  lookupTimeSig:vector  ETV
1410187	133280 248 553 33770 20.67 29.298998584645 8 0.2 2.5 8.8 13.24
vector 1410128  Network.dyn_peer[27]  lookupHopsSig:vector  ETV
1410128	118740 396 566 43481 20.68 37.662608620574 13 4 20 159 2397
vector 1410129  Network.dyn_peer[27]  lookupStabilitySig:vector  ETV
1410129	119136 583 566 43481 20.68 37.662608620574 13 0.10000002384186 0.98893805313855 10.72972600814 9.8115369520068
vector 1410130  Network.dyn_peer[27]  lookupTimeSig:vector  ETV
1410130	119719 408 566 43481 20.68 37.662608620574 13 0.4 2.1 17.1 27.19
vector 1410251  Network.dyn_peer[68]  lookupHopsSig:vector  ETV
1410251	150031 172 580 33958 20.69 29.369007760697 6 0 29 69 1355
vector 1410252  Network.dyn_peer[68]  lookupStabilitySig:vector  ETV
1410252	150203 228 580 33958 20.69 29.369007760697 6 0 1 4.58919942379 4.2439204948291
vector 1410253  Network.dyn_peer[68]  lookupTimeSig:vector  ETV
1410253	150431 176 580 33958 20.69 29.369007760697 6 0 3 7.4 14.98
vector 1410164  Network.dyn_peer[39]  lookupHopsSig:vector  ETV
1410164	128770 74 591 27975 20.7 27.621303467806 3 3 35 67 2075
vector 1410165  Network.dyn_peer[39]  lookupStabilitySig:vector  ETV
1410165	128844 104 591 27975 20.7 27.621303467806 3 0.5 0.87053571641445 1.9816468209028 1.3812892155822
vector 1410166  Network.dyn_peer[39]  lookupTimeSig:vector  ETV
1410166	128948 76 591 27975 20.7 27.621303467806 3 0.3 3.6 6.9 22.05
vector 1410173  Network.dyn_peer[42]  lookupHopsSig:vector  ETV
1410173	130560 169 632 23135 20.73 26.511524639848 6 3 13 43 383
vector 1410174  Network.dyn_peer[42]  lookupStabilitySig:vector  ETV
1410174	130729 242 632 23135 20.73 26.511524639848 6 0.19999998807907 0.9431818164885 4.1410172842443 3.2777607729385
vector 1410175  Network.dyn_peer[42]  lookupTimeSig:vector  ETV
1410175	130971 179 632 23135 20.73 26.511524639848 6 0.3 1.4 4.8 4.68
vector 1410146  Network.dyn_peer[33]  lookupHopsSig:vector  ETV
1410146	124182 139 649 17483 20.74 25.374945481323 5 4 16 46 518
vector 1410147  Network.dyn_peer[33]  lookupStabilitySig:vector  ETV
1410147	124321 196 649 17483 20.74 25.374945481323 5 0 0.96000000089407 2.8993561640382 2.3268699155496
vector 1410148  Network.dyn_peer[33]  lookupTimeSig:vector  ETV
1410148	124517 146 649 17483 20.74 25.374945481323 5 0.4 1.7 5 6.06
vector 1410119  Network.dyn_peer[24]  lookupHopsSig:vector  ETV
1410119	117264 107 663 20441 20.75 25.958412108427 4 5 24 54 938
vector 1410120  Network.dyn_peer[24]  lookupStabilitySig:vector  ETV
1410120	117371 165 663 20441 20.75 25.958412108427 4 0.16666668653488 0.93793103471398 2.2522083558142 1.6574229097266
vector 1410121  Network.dyn_peer[24]  lookupTimeSig:vector  ETV
1410121	117536 111 663 20441 20.75 25.958412108427 4 0.5 2.5 5.7 10.39
vector 1410149  Network.dyn_peer[34]  lookupHopsSig:vector  ETV
1410149	124663 298 667 37163 20.75 30.778262856243 10 1 19 94 1226
vector 1410150  Network.dyn_peer[34]  lookupStabilitySig:vector  ETV
1410150	124961 429 667 37163 20.75 30.778262856243 10 0.19999998807907 0.97142857126892 7.7270808387548 6.662651004966
vector 1410151  Network.dyn_peer[34]  lookupTimeSig:vector  ETV
1410151	125390 311 667 37163 20.75 30.778262856243 10 0.2 2 10.3 14.15
vector 1410125  Network.dyn_peer[26]  lookupHopsSig:vector  ETV
1410125	118253 139 695 30518 20.77 28.296850681844 5 5 31 76 1634
vector 1410126  Network.dyn_peer[26]  lookupStabilitySig:vector  ETV
1410126	118392 202 695 30518 20.77 28.296850681844 5 0.090909063816071 0.96875 2.8566065654159 2.3162578515339
vector 1410127  Network.dyn_peer[26]  lookupTimeSig:vector  ETV
1410127	118594 146 695 30518 20.77 28.296850681844 5 0.5 3.2 8 17.8
vector 1410248  Network.dyn_peer[67]  lookupHopsSig:vector  ETV
1410248	149225 232 709 25136 20.78 26.964933523762 8 1 17 52 516
vector 1410249  Network.dyn_peer[67]  lookupStabilitySig:vector  ETV
1410249	149457 329 709 25136 20.78 26.964933523762 8 0.10000002384186 0.98823529388756 6.4027543468401 5.7277433722803
vector 1410250  Network.dyn_peer[67]  lookupTimeSig:vector  ETV
1410250	149786 245 709 25136 20.78 26.964933523762 8 0.1 1.8 5.9 6.25
vector 1410191  Network.dyn_peer[48]  lookupHopsSig:vector  ETV
1410191	134465 202 722 33142 20.79 29.085210329793 7 1 15 56 622
vector 1410192  Network.dyn_peer[48]  lookupStabilitySig:vector  ETV
1410192	134667 278 722 33142 20.79 29.085210329793 7 0.5 0.9635761603713 5.4146711118519 4.4321146105481
vector 1410193  Network.dyn_peer[48]  lookupTimeSig:vector  ETV
1410193	134945 211 722 33142 20.79 29.085210329793 7 0.2 1.6 6.2 7.34
vector 1410233  Network.dyn_peer[62]  lookupHopsSig:vector  ETV
1410233	145016 361 771 32180 20.83 28.789049914916 12 1 18 68 630
vector 1410234  Network.dyn_peer[62]  lookupStabilitySig:vector  ETV
1410234	145377 529 771 32180 20.83 28.789049914916 12 0.45454543828964 0.99137931037694 10.798909049481 9.9959346541984
vector 1410235  Network.dyn_peer[62]  lookupTimeSig:vector  ETV
1410235	145906 383 771 32180 20.83 28.789049914916 12 0.2 1.9 7.9 7.73
vector 1410179  Network.dyn_peer[44]  lookupHopsSig:vector  ETV
1410179	131518 171 800 32625 20.85 28.92310941774 6 2 26 68 1160
vector 1410180  Network.dyn_peer[44]  lookupStabilitySig:vector  ETV
1410180	131689 236 800 32625 20.85 28.92310941774 6 0.5 0.98913043458015 4.9122195849195 4.251338968098
vector 1410181  Network.dyn_peer[44]  lookupTimeSig:vector  ETV
1410181	131925 180 800 32625 20.85 28.92310941774 6 0.3 2.7 7.3 12.93
vector 1410272  Network.dyn_peer[75]  lookupHopsSig:vector  ETV
1410272	153952 332 820 39939 20.86 32.585775486888 11 1 22 104 1466
vector 1410273  Network.dyn_peer[75]  lookupStabilitySig:vector  ETV
1410273	154284 480 820 39939 20.86 32.585775486888 11 0.44444441795349 0.99220779212192 9.4093561437912 8.2878154157903
vector 1410274  Network.dyn_peer[75]  lookupTimeSig:vector  ETV
1410274	154764 348 820 39939 20.86 32.585775486888 11 0.1 2.3 11.4 16.82
vector 1410134  Network.dyn_peer[29]  lookupHopsSig:vector  ETV
1410134	120743 233 868 38248 20.9 31.401312880879 8 6 21 93 1261
vector 1410135  Network.dyn_peer[29]  lookupStabilitySig:vector  ETV
1410135	120976 324 868 38248 20.9 31.401312880879 8 0.25 0.96675191819668 6.0233453437686 5.0924557406537
vector 1410136  Network.dyn_peer[29]  lookupTimeSig:vector  ETV
1410136	121300 244 868 38248 20.9 31.401312880879 8 0.6 2.2 10 14.42
vector 1410176  Network.dyn_peer[43]  lookupHopsSig:vector  ETV
1410176	131150 105 929 11258 20.94 24.144471613228 4 5 13 34 324
vector 1410177  Network.dyn_peer[43]  lookupStabilitySig:vector  ETV
1410177	131255 153 929 11258 20.94 24.144471613228 4 0.375 0.89411764591932 2.532375253737 1.837027461742
vector 1410178  Network.dyn_peer[43]  lookupTimeSig:vector  ETV
1410178	131408 110 929 11258 20.94 24.144471613228 4 0.5 1.4 3.7 3.85
vector 1410209  Network.dyn_peer[54]  lookupHopsSig:vector  ETV
1410209	137925 424 944 41183 20.95 33.782072265362 14 2 17 111 1289
vector 1410210  Network.dyn_peer[54]  lookupStabilitySig:vector  ETV
1410210	138349 614 944 41183 20.95 33.782072265362 14 0.39999997615814 0.9836065582931 12.036389755085 10.808384825558
vector 1410211  Network.dyn_peer[54]  lookupTimeSig:vector  ETV
1410211	138963 446 944 41183 20.95 33.782072265362 14 0.3 1.8 12.4 15.16
vector 1410269  Network.dyn_peer[74]  lookupHopsSig:vector  ETV
1410269	153579 108 948 19865 20.95 25.842399796941 4 2 16 44 600
vector 1410270  Network.dyn_peer[74]  lookupStabilitySig:vector  ETV
1410270	153687 152 948 19865 20.95 25.842399796941 4 0.43999999761581 0.9142857119441 2.9340729489922 2.2805652236918
vector 1410271  Network.dyn_peer[74]  lookupTimeSig:vector  ETV
1410271	153839 113 948 19865 20.95 25.842399796941 4 0.2 1.7 4.7 6.87
vector 1410242  Network.dyn_peer[65]  lookupHopsSig:vector  ETV
1410242	148054 167 967 21245 20.96 26.118757230271 6 2 11 31 215
vector 1410243  Network.dyn_peer[65]  lookupStabilitySig:vector  ETV
1410243	148221 233 967 21245 20.96 26.118757230271 6 0.39999997615814 0.96129032224417 4.5620321854949 3.7038708432444
vector 1410244  Network.dyn_peer[65]  lookupTimeSig:vector  ETV
1410244	148454 178 967 21245 20.96 26.118757230271 6 0.3 1.2 3.6 2.76
vector 1410188  Network.dyn_peer[47]  lookupHopsSig:vector  ETV
1410188	133528 268 1000 35344 20.98 29.919427931155 9 1 35 86 1670
vector 1410189  Network.dyn_peer[47]  lookupStabilitySig:vector  ETV
1410189	133796 387 1000 35344 20.98 29.919427931155 9 0.23076921701431 0.98936170246452 7.1306166648865 6.3115058059291
vector 1410190  Network.dyn_peer[47]  lookupTimeSig:vector  ETV
1410190	134183 282 1000 35344 20.98 29.919427931155 9 0.2 3.6 9.4 18.4
vector 1410278  Network.dyn_peer[77]  lookupHopsSig:vector  ETV
1410278	155486 173 1004 34697 20.98 29.659818229142 6 1 26 63 1085
vector 1410279  Network.dyn_peer[77]  lookupStabilitySig:vector  ETV
1410279	155659 248 1004 34697 20.98 29.659818229142 6 0.48148149251938 0.99056603759527 5.0203780010343 4.3867108142221
vector 1410280  Network.dyn_peer[77]  lookupTimeSig:vector  ETV
1410280	155907 182 1004 34697 20.98 29.659818229142 6 0.2 2.7 6.8 12.12
vector 1410314  Network.dyn_peer[89]  lookupHopsSig:vector  ETV
1410314	161970 229 1034 37443 21 30.928239624399 8 1 14 57 529
vector 1410315  Network.dyn_peer[89]  lookupStabilitySig:vector  ETV
1410315	162199 324 1034 37443 21 30.928239624399 8 0.25 0.98891966789961 6.7037559533492 6.047766783759
vector 1410316  Network.dyn_peer[89]  lookupTimeSig:vector  ETV
1410316	162523 241 1034 37443 21 30.928239624399 8 0.1 1.5 6.4 6.48
vector 1410107  Network.dyn_peer[20]  lookupHopsSig:vector  ETV
1410107	114658 138 1051 25333 21.01 27.006806925593 5 2 14 40 464
vector 1410108  Network.dyn_peer[20]  lookupStabilitySig:vector  ETV
1410108	114796 196 1051 25333 21.01 27.006806925593 5 0 0.95652173832059 3.3456687107682 2.934631963725
vector 1410109  Network.dyn_peer[20]  lookupTimeSig:vector  ETV
1410109	114992 146 1051 25333 21.01 27.006806925593 5 0.3 1.5 4.4 5.32
vector 1410200  Network.dyn_peer[51]  lookupHopsSig:vector  ETV
1410200	136127 170 1070 34907 21.02 29.741114002158 6 4 61 87 3861
vector 1410201  Network.dyn_peer[51]  lookupStabilitySig:vector  ETV
1410201	136297 247 1070 34907 21.02 29.741114002158 6 0.375 0.98507462721318 4.2982574114576 3.3693047479199
vector 1410202  Network.dyn_peer[51]  lookupTimeSig:vector  ETV
1410202	136544 181 1070 34907 21.02 29.741114002158 6 0.5 6.2 9.2 40.3
vector 1410260  Network.dyn_peer[71]  lookupHopsSig:vector  ETV
1410260	151694 168 1074 18710 21.02 25.61092360835 6 3 7 32 190
vector 1410261  Network.dyn_peer[71]  lookupStabilitySig:vector  ETV
1410261	151862 236 1074 18710 21.02 25.61092360835 6 0.30000001192093 0.95327102765441 4.5564651116729 3.7902682370107
vector 1410262  Network.dyn_peer[71]  lookupTimeSig:vector  ETV
1410262	152098 180 1074 18710 21.02 25.61092360835 6 0.3 0.8 3.7 2.53
vector 1410239  Network.dyn_peer[64]  lookupHopsSig:vector  ETV
1410239	146894 333 1124 39038 21.05 31.921348502586 11 1 17 100 1192
vector 1410240  Network.dyn_peer[64]  lookupStabilitySig:vector  ETV
1410240	147227 478 1124 39038 21.05 31.921348502586 11 0.45454543828964 0.99750623432919 9.4274180433713 8.4445793195255
vector 1410241  Network.dyn_peer[64]  lookupTimeSig:vector  ETV
1410241	147705 349 1124 39038 21.05 31.921348502586 11 0.2 1.8 11 13.94
vector 1410335  Network.dyn_peer[96]  lookupHopsSig:vector  ETV
1410335	165512 204 1159 35710 21.07 30.074146477605 7 1 21 82 1406
vector 1410336  Network.dyn_peer[96]  lookupStabilitySig:vector  ETV
1410336	165716 294 1159 35710 21.07 30.074146477605 7 0.46153843402863 0.94084507226944 5.7336835190654 4.8616781596709
vector 1410337  Network.dyn_peer[96]  lookupTimeSig:vector  ETV
1410337	166010 214 1159 35710 21.07 30.074146477605 7 0.1 2.2 8.8 15.74
vector 1410365  Network.dyn_peer[106]  lookupHopsSig:vector  ETV
1410365	172558 203 1165 24846 21.07 26.898310488889 7 0 13 42 374
vector 1410366  Network.dyn_peer[106]  lookupStabilitySig:vector  ETV
1410366	172761 265 1165 24846 21.07 26.898310488889 7 0.5 1 5.9728404358029 5.2818173550635
vector 1410367  Network.dyn_peer[106]  lookupTimeSig:vector  ETV
1410367	173026 213 1165 24846 21.07 26.898310488889 7 0 1.4 4.8 4.64
vector 1410194  Network.dyn_peer[49]  lookupHopsSig:vector  ETV
1410194	135156 201 1205 38291 21.1 31.423407178624 7 3 62 103 4211
vector 1410195  Network.dyn_peer[49]  lookupStabilitySig:vector  ETV
1410195	135357 279 1205 38291 21.1 31.423407178624 7 0.25 0.98469387739897 5.2077980469912 4.3400782102981
vector 1410196  Network.dyn_peer[49]  lookupTimeSig:vector  ETV
1410196	135636 213 1205 38291 21.1 31.423407178624 7 0.4 6.3 10.9 44.11
vector 1410143  Network.dyn_peer[32]  lookupHopsSig:vector  ETV
1410143	123697 140 1252 21231 21.13 26.115356038561 5 3 13 44 450
vector 1410144  Network.dyn_peer[32]  lookupStabilitySig:vector  ETV
1410144	123837 197 1252 21231 21.13 26.115356038561 5 0 0.96000000089407 3.3592708967626 2.9339257091897
vector 1410145  Network.dyn_peer[32]  lookupTimeSig:vector  ETV
1410145	124034 148 1252 21231 21.13 26.115356038561 5 0.4 1.4 4.8 5.26
vector 1410203  Network.dyn_peer[52]  lookupHopsSig:vector  ETV
1410203	136725 110 1256 28460 21.13 27.743737692091 4 6 29 69 1463
vector 1410204  Network.dyn_peer[52]  lookupStabilitySig:vector  ETV
1410204	136835 155 1256 28460 21.13 27.743737692091 4 0.25 0.91629955917597 2.7099503576756 2.1209414968256
vector 1410205  Network.dyn_peer[52]  lookupTimeSig:vector  ETV
1410205	136990 111 1256 28460 21.13 27.743737692091 4 0.6 3 7.2 15.92
vector 1410206  Network.dyn_peer[53]  lookupHopsSig:vector  ETV
1410206	137101 232 1275 22592 21.14 26.398881102899 8 1 9 51 385
vector 1410207  Network.dyn_peer[53]  lookupStabilitySig:vector  ETV
1410207	137333 350 1275 22592 21.14 26.398881102899 8 0.33333331346512 0.96825396642089 6.4023775346577 5.4814047999033
vector 1410208  Network.dyn_peer[53]  lookupTimeSig:vector  ETV
1410208	137683 242 1275 22592 21.14 26.398881102899 8 0.2 1 5.8 4.82
vector 1410275  Network.dyn_peer[76]  lookupHopsSig:vector  ETV
1410275	155112 107 1329 19357 21.17 25.741174722719 4 4 15 35 387
vector 1410276  Network.dyn_peer[76]  lookupStabilitySig:vector  ETV
1410276	155219 154 1329 19357 21.17 25.741174722719 4 0.52173912525177 0.89051094651222 2.8428056240082 2.1394884323059
vector 1410277  Network.dyn_peer[76]  lookupTimeSig:vector  ETV
1410277	155373 113 1329 19357 21.17 25.741174722719 4 0.4 1.6 3.8 4.52
vector 1410161  Network.dyn_peer[38]  lookupHopsSig:vector  ETV
1410161	127383 397 1362 43023 21.19 36.433474163016 13 2 21 121 1389
vector 1410162  Network.dyn_peer[38]  lookupStabilitySig:vector  ETV
1410162	127780 576 1362 43023 21.19 36.433474163016 13 0.11111110448837 0.9893842888996 11.080555108376 10.311461754172
vector 1410163  Network.dyn_peer[38]  lookupTimeSig:vector  ETV
1410163	128356 414 1362 43023 21.19 36.433474163016 13 0.3 2.2 13.3 16.27
vector 1410221  Network.dyn_peer[58]  lookupHopsSig:vector  ETV
1410221	142651 74 1366 6848 21.19 23.096574130977 3 6 11 23 193
vector 1410222  Network.dyn_peer[58]  lookupStabilitySig:vector  ETV
1410222	142725 118 1366 6848 21.19 23.096574130977 3 0.33333331346512 0.86666665971279 1.7416666299105 1.1556249639392
vector 1410223  Network.dyn_peer[58]  lookupTimeSig:vector  ETV
1410223	142843 79 1366 6848 21.19 23.096574130977 3 0.6 1.2 2.5 2.29
vector 1410323  Network.dyn_peer[92]  lookupHopsSig:vector  ETV
1410323	163879 105 1433 27619 21.23 27.539721003491 4 3 39 63 1791
vector 1410324  Network.dyn_peer[92]  lookupStabilitySig:vector  ETV
1410324	163984 154 1433 27619 21.23 27.539721003491 4 0.58333334326744 0.90625 2.9781678020954 2.2815601564679
vector 1410325  Network.dyn_peer[92]  lookupTimeSig:vector  ETV
1410325	164138 109 1433 27619 21.23 27.539721003491 4 0.3 4 6.6 19.14
vector 1410182  Network.dyn_peer[45]  lookupHopsSig:vector  ETV
1410182	132105 171 1484 27792 21.26 27.582348853071 6 3 29 66 1142
vector 1410183  Network.dyn_peer[45]  lookupStabilitySig:vector  ETV
1410183	132276 252 1484 27792 21.26 27.582348853071 6 0.11111110448837 0.96396396309137 4.122439160943 3.4271476496096
vector 1410184  Network.dyn_peer[45]  lookupTimeSig:vector  ETV
1410184	132528 179 1484 27792 21.26 27.582348853071 6 0.4 3 7.1 12.63
vector 1410308  Network.dyn_peer[87]  lookupHopsSig:vector  ETV
1410308	160948 139 1522 16543 21.28 25.192809228576 5 4 12 39 361
vector 1410309  Network.dyn_peer[87]  lookupStabilitySig:vector  ETV
1410309	161087 212 1522 16543 21.28 25.192809228576 5 0.55555555224419 0.96581196412444 3.8808913268149 3.1456580748392
vector 1410310  Network.dyn_peer[87]  lookupTimeSig:vector  ETV
1410310	161299 147 1522 16543 21.28 25.192809228576 5 0.4 1.3 4.3 4.35
vector 1410398  Network.dyn_peer[117]  lookupHopsSig:vector  ETV
1410398	179088 172 1526 30407 21.28 28.268265088868 6 1 22 58 852
vector 1410399  Network.dyn_peer[117]  lookupStabilitySig:vector  ETV
1410399	179260 258 1526 30407 21.28 28.268265088868 6 0.60714286565781 0.97590361535549 5.1429695859551 4.4918129590889
vector 1410400  Network.dyn_peer[117]  lookupTimeSig:vector  ETV
1410400	179518 180 1526 30407 21.28 28.268265088868 6 0.1 2.3 6.3 9.71