version 2
run Stability2-47-20130528-01:26:39-24168
attr configname Stability2
attr datetime 20130528-01:26:39
attr experiment Stability2
attr inifile omnetpp.ini
attr iterationvars $0=50
attr iterationvars2 "$0=50, $repetition=7"
attr measurement $0=50
attr network Network
attr processid 24168
attr repetition 7
attr replication #7
attr resultdir results
attr runnumber 47
attr seedset 47

vector 1440047  Network.churner  inGoingSizeSig:vector  ETV
vector 1410053  Network.dyn_peer[2]  lookupHopsSig:vector  ETV
vector 1410054  Network.dyn_peer[2]  lookupStabilitySig:vector  ETV
vector 1410055  Network.dyn_peer[2]  lookupTimeSig:vector  ETV
vector 1410059  Network.dyn_peer[4]  lookupHopsSig:vector  ETV
vector 1410060  Network.dyn_peer[4]  lookupStabilitySig:vector  ETV
vector 1410061  Network.dyn_peer[4]  lookupTimeSig:vector  ETV
vector 1410068  Network.dyn_peer[7]  lookupHopsSig:vector  ETV
vector 1410069  Network.dyn_peer[7]  lookupStabilitySig:vector  ETV
vector 1410070  Network.dyn_peer[7]  lookupTimeSig:vector  ETV
vector 1410074  Network.dyn_peer[9]  lookupHopsSig:vector  ETV
vector 1410075  Network.dyn_peer[9]  lookupStabilitySig:vector  ETV
vector 1410076  Network.dyn_peer[9]  lookupTimeSig:vector  ETV
vector 1410047  Network.dyn_peer[0]  lookupHopsSig:vector  ETV
vector 1410048  Network.dyn_peer[0]  lookupStabilitySig:vector  ETV
vector 1410049  Network.dyn_peer[0]  lookupTimeSig:vector  ETV
vector 1410050  Network.dyn_peer[1]  lookupHopsSig:vector  ETV
vector 1410051  Network.dyn_peer[1]  lookupStabilitySig:vector  ETV
vector 1410052  Network.dyn_peer[1]  lookupTimeSig:vector  ETV
vector 1410086  Network.dyn_peer[13]  lookupHopsSig:vector  ETV
vector 1410087  Network.dyn_peer[13]  lookupStabilitySig:vector  ETV
vector 1410088  Network.dyn_peer[13]  lookupTimeSig:vector  ETV
vector 1410104  Network.dyn_peer[19]  lookupHopsSig:vector  ETV
vector 1410105  Network.dyn_peer[19]  lookupStabilitySig:vector  ETV
vector 1410106  Network.dyn_peer[19]  lookupTimeSig:vector  ETV
vector 1410077  Network.dyn_peer[10]  lookupHopsSig:vector  ETV
vector 1410078  Network.dyn_peer[10]  lookupStabilitySig:vector  ETV
vector 1410079  Network.dyn_peer[10]  lookupTimeSig:vector  ETV
vector 1410080  Network.dyn_peer[11]  lookupHopsSig:vector  ETV
vector 1410081  Network.dyn_peer[11]  lookupStabilitySig:vector  ETV
vector 1410082  Network.dyn_peer[11]  lookupTimeSig:vector  ETV
vector 1410083  Network.dyn_peer[12]  lookupHopsSig:vector  ETV
vector 1410084  Network.dyn_peer[12]  lookupStabilitySig:vector  ETV
vector 1410085  Network.dyn_peer[12]  lookupTimeSig:vector  ETV
vector 1410089  Network.dyn_peer[14]  lookupHopsSig:vector  ETV
vector 1410090  Network.dyn_peer[14]  lookupStabilitySig:vector  ETV
vector 1410091  Network.dyn_peer[14]  lookupTimeSig:vector  ETV
vector 1410092  Network.dyn_peer[15]  lookupHopsSig:vector  ETV
vector 1410093  Network.dyn_peer[15]  lookupStabilitySig:vector  ETV
vector 1410094  Network.dyn_peer[15]  lookupTimeSig:vector  ETV
vector 1410062  Network.dyn_peer[5]  lookupHopsSig:vector  ETV
vector 1410063  Network.dyn_peer[5]  lookupStabilitySig:vector  ETV
vector 1410064  Network.dyn_peer[5]  lookupTimeSig:vector  ETV
vector 1410065  Network.dyn_peer[6]  lookupHopsSig:vector  ETV
vector 1410066  Network.dyn_peer[6]  lookupStabilitySig:vector  ETV
vector 1410067  Network.dyn_peer[6]  lookupTimeSig:vector  ETV
vector 1410095  Network.dyn_peer[16]  lookupHopsSig:vector  ETV
vector 1410096  Network.dyn_peer[16]  lookupStabilitySig:vector  ETV
vector 1410097  Network.dyn_peer[16]  lookupTimeSig:vector  ETV
vector 1410071  Network.dyn_peer[8]  lookupHopsSig:vector  ETV
vector 1410072  Network.dyn_peer[8]  lookupStabilitySig:vector  ETV
vector 1410073  Network.dyn_peer[8]  lookupTimeSig:vector  ETV
vector 1410101  Network.dyn_peer[18]  lookupHopsSig:vector  ETV
vector 1410102  Network.dyn_peer[18]  lookupStabilitySig:vector  ETV
vector 1410103  Network.dyn_peer[18]  lookupTimeSig:vector  ETV
vector 1410110  Network.dyn_peer[21]  lookupHopsSig:vector  ETV
vector 1410111  Network.dyn_peer[21]  lookupStabilitySig:vector  ETV
vector 1410112  Network.dyn_peer[21]  lookupTimeSig:vector  ETV
vector 1410056  Network.dyn_peer[3]  lookupHopsSig:vector  ETV
vector 1410057  Network.dyn_peer[3]  lookupStabilitySig:vector  ETV
vector 1410058  Network.dyn_peer[3]  lookupTimeSig:vector  ETV
vector 1410098  Network.dyn_peer[17]  lookupHopsSig:vector  ETV
vector 1410099  Network.dyn_peer[17]  lookupStabilitySig:vector  ETV
vector 1410100  Network.dyn_peer[17]  lookupTimeSig:vector  ETV
vector 1410137  Network.dyn_peer[30]  lookupHopsSig:vector  ETV
vector 1410138  Network.dyn_peer[30]  lookupStabilitySig:vector  ETV
vector 1410139  Network.dyn_peer[30]  lookupTimeSig:vector  ETV
vector 1410140  Network.dyn_peer[31]  lookupHopsSig:vector  ETV
vector 1410141  Network.dyn_peer[31]  lookupStabilitySig:vector  ETV
vector 1410142  Network.dyn_peer[31]  lookupTimeSig:vector  ETV
vector 1410122  Network.dyn_peer[25]  lookupHopsSig:vector  ETV
vector 1410123  Network.dyn_peer[25]  lookupStabilitySig:vector  ETV
vector 1410124  Network.dyn_peer[25]  lookupTimeSig:vector  ETV
vector 1410170  Network.dyn_peer[41]  lookupHopsSig:vector  ETV
vector 1410171  Network.dyn_peer[41]  lookupStabilitySig:vector  ETV
vector 1410172  Network.dyn_peer[41]  lookupTimeSig:vector  ETV
vector 1410116  Network.dyn_peer[23]  lookupHopsSig:vector  ETV
vector 1410117  Network.dyn_peer[23]  lookupStabilitySig:vector  ETV
vector 1410118  Network.dyn_peer[23]  lookupTimeSig:vector  ETV
vector 1410152  Network.dyn_peer[35]  lookupHopsSig:vector  ETV
vector 1410153  Network.dyn_peer[35]  lookupStabilitySig:vector  ETV
vector 1410154  Network.dyn_peer[35]  lookupTimeSig:vector  ETV
vector 1410185  Network.dyn_peer[46]  lookupHopsSig:vector  ETV
vector 1410186  Network.dyn_peer[46]  lookupStabilitySig:vector  ETV
vector 1410187  Network.dyn_peer[46]  lookupTimeSig:vector  ETV
vector 1410128  Network.dyn_peer[27]  lookupHopsSig:vector  ETV
vector 1410129  Network.dyn_peer[27]  lookupStabilitySig:vector  ETV
vector 1410130  Network.dyn_peer[27]  lookupTimeSig:vector  ETV
vector 1410251  Network.dyn_peer[68]  lookupHopsSig:vector  ETV
vector 1410252  Network.dyn_peer[68]  lookupStabilitySig:vector  ETV
vector 1410253  Network.dyn_peer[68]  lookupTimeSig:vector  ETV
vector 1410164  Network.dyn_peer[39]  lookupHopsSig:vector  ETV
vector 1410165  Network.dyn_peer[39]  lookupStabilitySig:vector  ETV
vector 1410166  Network.dyn_peer[39]  lookupTimeSig:vector  ETV
vector 1410173  Network.dyn_peer[42]  lookupHopsSig:vector  ETV
vector 1410174  Network.dyn_peer[42]  lookupStabilitySig:vector  ETV
vector 1410175  Network.dyn_peer[42]  lookupTimeSig:vector  ETV
vector 1410146  Network.dyn_peer[33]  lookupHopsSig:vector  ETV
vector 1410147  Network.dyn_peer[33]  lookupStabilitySig:vector  ETV
vector 1410148  Network.dyn_peer[33]  lookupTimeSig:vector  ETV
vector 1410119  Network.dyn_peer[24]  lookupHopsSig:vector  ETV
vector 1410120  Network.dyn_peer[24]  lookupStabilitySig:vector  ETV
vector 1410121  Network.dyn_peer[24]  lookupTimeSig:vector  ETV
vector 1410149  Network.dyn_peer[34]  lookupHopsSig:vector  ETV
vector 1410150  Network.dyn_peer[34]  lookupStabilitySig:vector  ETV
vector 1410151  Network.dyn_peer[34]  lookupTimeSig:vector  ETV
vector 1410125  Network.dyn_peer[26]  lookupHopsSig:vector  ETV
vector 1410126  Network.dyn_peer[26]  lookupStabilitySig:vector  ETV
vector 1410127  Network.dyn_peer[26]  lookupTimeSig:vector  ETV
vector 1410248  Network.dyn_peer[67]  lookupHopsSig:vector  ETV
vector 1410249  Network.dyn_peer[67]  lookupStabilitySig:vector  ETV
vector 1410250  Network.dyn_peer[67]  lookupTimeSig:vector  ETV
vector 1410191  Network.dyn_peer[48]  lookupHopsSig:vector  ETV
vector 1410192  Network.dyn_peer[48]  lookupStabilitySig:vector  ETV
vector 1410193  Network.dyn_peer[48]  lookupTimeSig:vector  ETV
vector 1410233  Network.dyn_peer[62]  lookupHopsSig:vector  ETV
vector 1410234  Network.dyn_peer[62]  lookupStabilitySig:vector  ETV
vector 1410235  Network.dyn_peer[62]  lookupTimeSig:vector  ETV
vector 1410179  Network.dyn_peer[44]  lookupHopsSig:vector  ETV
vector 1410180  Network.dyn_peer[44]  lookupStabilitySig:vector  ETV
vector 1410181  Network.dyn_peer[44]  lookupTimeSig:vector  ETV
vector 1410272  Network.dyn_peer[75]  lookupHopsSig:vector  ETV
vector 1410273  Network.dyn_peer[75]  lookupStabilitySig:vector  ETV
vector 1410274  Network.dyn_peer[75]  lookupTimeSig:vector  ETV
vector 1410134  Network.dyn_peer[29]  lookupHopsSig:vector  ETV
vector 1410135  Network.dyn_peer[29]  lookupStabilitySig:vector  ETV
vector 1410136  Network.dyn_peer[29]  lookupTimeSig:vector  ETV
vector 1410176  Network.dyn_peer[43]  lookupHopsSig:vector  ETV
vector 1410177  Network.dyn_peer[43]  lookupStabilitySig:vector  ETV
vector 1410178  Network.dyn_peer[43]  lookupTimeSig:vector  ETV
vector 1410209  Network.dyn_peer[54]  lookupHopsSig:vector  ETV
vector 1410210  Network.dyn_peer[54]  lookupStabilitySig:vector  ETV
vector 1410211  Network.dyn_peer[54]  lookupTimeSig:vector  ETV
vector 1410269  Network.dyn_peer[74]  lookupHopsSig:vector  ETV
vector 1410270  Network.dyn_peer[74]  lookupStabilitySig:vector  ETV
vector 1410271  Network.dyn_peer[74]  lookupTimeSig:vector  ETV
vector 1410242  Network.dyn_peer[65]  lookupHopsSig:vector  ETV
vector 1410243  Network.dyn_peer[65]  lookupStabilitySig:vector  ETV
vector 1410244  Network.dyn_peer[65]  lookupTimeSig:vector  ETV
vector 1410188  Network.dyn_peer[47]  lookupHopsSig:vector  ETV
vector 1410189  Network.dyn_peer[47]  lookupStabilitySig:vector  ETV
vector 1410190  Network.dyn_peer[47]  lookupTimeSig:vector  ETV
vector 1410278  Network.dyn_peer[77]  lookupHopsSig:vector  ETV
vector 1410279  Network.dyn_peer[77]  lookupStabilitySig:vector  ETV
vector 1410280  Network.dyn_peer[77]  lookupTimeSig:vector  ETV
vector 1410314  Network.dyn_peer[89]  lookupHopsSig:vector  ETV
vector 1410315  Network.dyn_peer[89]  lookupStabilitySig:vector  ETV
vector 1410316  Network.dyn_peer[89]  lookupTimeSig:vector  ETV
vector 1410107  Network.dyn_peer[20]  lookupHopsSig:vector  ETV
vector 1410108  Network.dyn_peer[20]  lookupStabilitySig:vector  ETV
vector 1410109  Network.dyn_peer[20]  lookupTimeSig:vector  ETV
vector 1410200  Network.dyn_peer[51]  lookupHopsSig:vector  ETV
vector 1410201  Network.dyn_peer[51]  lookupStabilitySig:vector  ETV
vector 1410202  Network.dyn_peer[51]  lookupTimeSig:vector  ETV
vector 1410260  Network.dyn_peer[71]  lookupHopsSig:vector  ETV
vector 1410261  Network.dyn_peer[71]  lookupStabilitySig:vector  ETV
vector 1410262  Network.dyn_peer[71]  lookupTimeSig:vector  ETV
vector 1410239  Network.dyn_peer[64]  lookupHopsSig:vector  ETV
vector 1410240  Network.dyn_peer[64]  lookupStabilitySig:vector  ETV
vector 1410241  Network.dyn_peer[64]  lookupTimeSig:vector  ETV
vector 1410335  Network.dyn_peer[96]  lookupHopsSig:vector  ETV
vector 1410336  Network.dyn_peer[96]  lookupStabilitySig:vector  ETV
vector 1410337  Network.dyn_peer[96]  lookupTimeSig:vector  ETV
vector 1410365  Network.dyn_peer[106]  lookupHopsSig:vector  ETV
vector 1410366  Network.dyn_peer[106]  lookupStabilitySig:vector  ETV
vector 1410367  Network.dyn_peer[106]  lookupTimeSig:vector  ETV
vector 1410194  Network.dyn_peer[49]  lookupHopsSig:vector  ETV
vector 1410195  Network.dyn_peer[49]  lookupStabilitySig:vector  ETV
vector 1410196  Network.dyn_peer[49]  lookupTimeSig:vector  ETV
vector 1410143  Network.dyn_peer[32]  lookupHopsSig:vector  ETV
vector 1410144  Network.dyn_peer[32]  lookupStabilitySig:vector  ETV
vector 1410145  Network.dyn_peer[32]  lookupTimeSig:vector  ETV
vector 1410203  Network.dyn_peer[52]  lookupHopsSig:vector  ETV
vector 1410204  Network.dyn_peer[52]  lookupStabilitySig:vector  ETV
vector 1410205  Network.dyn_peer[52]  lookupTimeSig:vector  ETV
vector 1410206  Network.dyn_peer[53]  lookupHopsSig:vector  ETV
vector 1410207  Network.dyn_peer[53]  lookupStabilitySig:vector  ETV
vector 1410208  Network.dyn_peer[53]  lookupTimeSig:vector  ETV
vector 1410275  Network.dyn_peer[76]  lookupHopsSig:vector  ETV
vector 1410276  Network.dyn_peer[76]  lookupStabilitySig:vector  ETV
vector 1410277  Network.dyn_peer[76]  lookupTimeSig:vector  ETV
vector 1410161  Network.dyn_peer[38]  lookupHopsSig:vector  ETV
vector 1410162  Network.dyn_peer[38]  lookupStabilitySig:vector  ETV
vector 1410163  Network.dyn_peer[38]  lookupTimeSig:vector  ETV
vector 1410221  Network.dyn_peer[58]  lookupHopsSig:vector  ETV
vector 1410222  Network.dyn_peer[58]  lookupStabilitySig:vector  ETV
vector 1410223  Network.dyn_peer[58]  lookupTimeSig:vector  ETV
vector 1410323  Network.dyn_peer[92]  lookupHopsSig:vector  ETV
vector 1410324  Network.dyn_peer[92]  lookupStabilitySig:vector  ETV
vector 1410325  Network.dyn_peer[92]  lookupTimeSig:vector  ETV
vector 1410182  Network.dyn_peer[45]  lookupHopsSig:vector  ETV
vector 1410183  Network.dyn_peer[45]  lookupStabilitySig:vector  ETV
vector 1410184  Network.dyn_peer[45]  lookupTimeSig:vector  ETV
vector 1410308  Network.dyn_peer[87]  lookupHopsSig:vector  ETV
vector 1410309  Network.dyn_peer[87]  lookupStabilitySig:vector  ETV
vector 1410310  Network.dyn_peer[87]  lookupTimeSig:vector  ETV
vector 1410398  Network.dyn_peer[117]  lookupHopsSig:vector  ETV
vector 1410399  Network.dyn_peer[117]  lookupStabilitySig:vector  ETV
vector 1410400  Network.dyn_peer[117]  lookupTimeSig:vector  ETV
vector 1410131  Network.dyn_peer[28]  lookupHopsSig:vector  ETV
vector 1410132  Network.dyn_peer[28]  lookupStabilitySig:vector  ETV
vector 1410133  Network.dyn_peer[28]  lookupTimeSig:vector  ETV
vector 1410311  Network.dyn_peer[88]  lookupHopsSig:vector  ETV
vector 1410312  Network.dyn_peer[88]  lookupStabilitySig:vector  ETV
vector 1410313  Network.dyn_peer[88]  lookupTimeSig:vector  ETV
vector 1410413  Network.dyn_peer[122]  lookupHopsSig:vector  ETV
vector 1410414  Network.dyn_peer[122]  lookupStabilitySig:vector  ETV
vector 1410415  Network.dyn_peer[122]  lookupTimeSig:vector  ETV
vector 1410284  Network.dyn_peer[79]  lookupHopsSig:vector  ETV
vector 1410285  Network.dyn_peer[79]  lookupStabilitySig:vector  ETV
vector 1410286  Network.dyn_peer[79]  lookupTimeSig:vector  ETV
vector 1410230  Network.dyn_peer[61]  lookupHopsSig:vector  ETV
vector 1410231  Network.dyn_peer[61]  lookupStabilitySig:vector  ETV
vector 1410232  Network.dyn_peer[61]  lookupTimeSig:vector  ETV
vector 1410350  Network.dyn_peer[101]  lookupHopsSig:vector  ETV
vector 1410351  Network.dyn_peer[101]  lookupStabilitySig:vector  ETV
vector 1410352  Network.dyn_peer[101]  lookupTimeSig:vector  ETV
vector 1410380  Network.dyn_peer[111]  lookupHopsSig:vector  ETV
vector 1410381  Network.dyn_peer[111]  lookupStabilitySig:vector  ETV
vector 1410382  Network.dyn_peer[111]  lookupTimeSig:vector  ETV
vector 1410353  Network.dyn_peer[102]  lookupHopsSig:vector  ETV
vector 1410354  Network.dyn_peer[102]  lookupStabilitySig:vector  ETV
vector 1410355  Network.dyn_peer[102]  lookupTimeSig:vector  ETV
vector 1410296  Network.dyn_peer[83]  lookupHopsSig:vector  ETV
vector 1410297  Network.dyn_peer[83]  lookupStabilitySig:vector  ETV
vector 1410298  Network.dyn_peer[83]  lookupTimeSig:vector  ETV
vector 1410419  Network.dyn_peer[124]  lookupHopsSig:vector  ETV
vector 1410420  Network.dyn_peer[124]  lookupStabilitySig:vector  ETV
vector 1410421  Network.dyn_peer[124]  lookupTimeSig:vector  ETV
vector 1410215  Network.dyn_peer[56]  lookupHopsSig:vector  ETV
vector 1410216  Network.dyn_peer[56]  lookupStabilitySig:vector  ETV
vector 1410217  Network.dyn_peer[56]  lookupTimeSig:vector  ETV
vector 1410344  Network.dyn_peer[99]  lookupHopsSig:vector  ETV
vector 1410345  Network.dyn_peer[99]  lookupStabilitySig:vector  ETV
vector 1410346  Network.dyn_peer[99]  lookupTimeSig:vector  ETV
vector 1410167  Network.dyn_peer[40]  lookupHopsSig:vector  ETV
vector 1410168  Network.dyn_peer[40]  lookupStabilitySig:vector  ETV
vector 1410169  Network.dyn_peer[40]  lookupTimeSig:vector  ETV
vector 1410197  Network.dyn_peer[50]  lookupHopsSig:vector  ETV
vector 1410198  Network.dyn_peer[50]  lookupStabilitySig:vector  ETV
vector 1410199  Network.dyn_peer[50]  lookupTimeSig:vector  ETV
vector 1410257  Network.dyn_peer[70]  lookupHopsSig:vector  ETV
vector 1410258  Network.dyn_peer[70]  lookupStabilitySig:vector  ETV
vector 1410259  Network.dyn_peer[70]  lookupTimeSig:vector  ETV
vector 1410320  Network.dyn_peer[91]  lookupHopsSig:vector  ETV
vector 1410321  Network.dyn_peer[91]  lookupStabilitySig:vector  ETV
vector 1410322  Network.dyn_peer[91]  lookupTimeSig:vector  ETV
vector 1410383  Network.dyn_peer[112]  lookupHopsSig:vector  ETV
vector 1410384  Network.dyn_peer[112]  lookupStabilitySig:vector  ETV
vector 1410385  Network.dyn_peer[112]  lookupTimeSig:vector  ETV
vector 1410356  Network.dyn_peer[103]  lookupHopsSig:vector  ETV
vector 1410357  Network.dyn_peer[103]  lookupStabilitySig:vector  ETV
vector 1410358  Network.dyn_peer[103]  lookupTimeSig:vector  ETV
vector 1410359  Network.dyn_peer[104]  lookupHopsSig:vector  ETV
vector 1410360  Network.dyn_peer[104]  lookupStabilitySig:vector  ETV
vector 1410361  Network.dyn_peer[104]  lookupTimeSig:vector  ETV
vector 1410212  Network.dyn_peer[55]  lookupHopsSig:vector  ETV
vector 1410213  Network.dyn_peer[55]  lookupStabilitySig:vector  ETV
vector 1410214  Network.dyn_peer[55]  lookupTimeSig:vector  ETV
vector 1410302  Network.dyn_peer[85]  lookupHopsSig:vector  ETV
vector 1410303  Network.dyn_peer[85]  lookupStabilitySig:vector  ETV
vector 1410304  Network.dyn_peer[85]  lookupTimeSig:vector  ETV
vector 1410227  Network.dyn_peer[60]  lookupHopsSig:vector  ETV
vector 1410228  Network.dyn_peer[60]  lookupStabilitySig:vector  ETV
vector 1410229  Network.dyn_peer[60]  lookupTimeSig:vector  ETV
vector 1410317  Network.dyn_peer[90]  lookupHopsSig:vector  ETV
vector 1410318  Network.dyn_peer[90]  lookupStabilitySig:vector  ETV
vector 1410319  Network.dyn_peer[90]  lookupTimeSig:vector  ETV
vector 1410503  Network.dyn_peer[152]  lookupHopsSig:vector  ETV
vector 1410504  Network.dyn_peer[152]  lookupStabilitySig:vector  ETV
vector 1410505  Network.dyn_peer[152]  lookupTimeSig:vector  ETV
vector 1410332  Network.dyn_peer[95]  lookupHopsSig:vector  ETV
vector 1410333  Network.dyn_peer[95]  lookupStabilitySig:vector  ETV
vector 1410334  Network.dyn_peer[95]  lookupTimeSig:vector  ETV
vector 1410224  Network.dyn_peer[59]  lookupHopsSig:vector  ETV
vector 1410225  Network.dyn_peer[59]  lookupStabilitySig:vector  ETV
vector 1410226  Network.dyn_peer[59]  lookupTimeSig:vector  ETV
vector 1410467  Network.dyn_peer[140]  lookupHopsSig:vector  ETV
vector 1410468  Network.dyn_peer[140]  lookupStabilitySig:vector  ETV
vector 1410469  Network.dyn_peer[140]  lookupTimeSig:vector  ETV
vector 1410290  Network.dyn_peer[81]  lookupHopsSig:vector  ETV
vector 1410291  Network.dyn_peer[81]  lookupStabilitySig:vector  ETV
vector 1410292  Network.dyn_peer[81]  lookupTimeSig:vector  ETV
vector 1410158  Network.dyn_peer[37]  lookupHopsSig:vector  ETV
vector 1410159  Network.dyn_peer[37]  lookupStabilitySig:vector  ETV
vector 1410160  Network.dyn_peer[37]  lookupTimeSig:vector  ETV
vector 1410254  Network.dyn_peer[69]  lookupHopsSig:vector  ETV
vector 1410255  Network.dyn_peer[69]  lookupStabilitySig:vector  ETV
vector 1410256  Network.dyn_peer[69]  lookupTimeSig:vector  ETV
vector 1410287  Network.dyn_peer[80]  lookupHopsSig:vector  ETV
vector 1410288  Network.dyn_peer[80]  lookupStabilitySig:vector  ETV
vector 1410289  Network.dyn_peer[80]  lookupTimeSig:vector  ETV
vector 1410410  Network.dyn_peer[121]  lookupHopsSig:vector  ETV
vector 1410411  Network.dyn_peer[121]  lookupStabilitySig:vector  ETV
vector 1410412  Network.dyn_peer[121]  lookupTimeSig:vector  ETV
vector 1410470  Network.dyn_peer[141]  lookupHopsSig:vector  ETV
vector 1410471  Network.dyn_peer[141]  lookupStabilitySig:vector  ETV
vector 1410472  Network.dyn_peer[141]  lookupTimeSig:vector  ETV
vector 1410263  Network.dyn_peer[72]  lookupHopsSig:vector  ETV
vector 1410264  Network.dyn_peer[72]  lookupStabilitySig:vector  ETV
vector 1410265  Network.dyn_peer[72]  lookupTimeSig:vector  ETV
vector 1410416  Network.dyn_peer[123]  lookupHopsSig:vector  ETV
vector 1410417  Network.dyn_peer[123]  lookupStabilitySig:vector  ETV
vector 1410418  Network.dyn_peer[123]  lookupTimeSig:vector  ETV
vector 1410392  Network.dyn_peer[115]  lookupHopsSig:vector  ETV
vector 1410393  Network.dyn_peer[115]  lookupStabilitySig:vector  ETV
vector 1410394  Network.dyn_peer[115]  lookupTimeSig:vector  ETV
vector 1410155  Network.dyn_peer[36]  lookupHopsSig:vector  ETV
vector 1410156  Network.dyn_peer[36]  lookupStabilitySig:vector  ETV
vector 1410157  Network.dyn_peer[36]  lookupTimeSig:vector  ETV
vector 1410281  Network.dyn_peer[78]  lookupHopsSig:vector  ETV
vector 1410282  Network.dyn_peer[78]  lookupStabilitySig:vector  ETV
vector 1410283  Network.dyn_peer[78]  lookupTimeSig:vector  ETV
vector 1410371  Network.dyn_peer[108]  lookupHopsSig:vector  ETV
vector 1410372  Network.dyn_peer[108]  lookupStabilitySig:vector  ETV
vector 1410373  Network.dyn_peer[108]  lookupTimeSig:vector  ETV
vector 1410266  Network.dyn_peer[73]  lookupHopsSig:vector  ETV
vector 1410267  Network.dyn_peer[73]  lookupStabilitySig:vector  ETV
vector 1410268  Network.dyn_peer[73]  lookupTimeSig:vector  ETV
vector 1410305  Network.dyn_peer[86]  lookupHopsSig:vector  ETV
vector 1410306  Network.dyn_peer[86]  lookupStabilitySig:vector  ETV
vector 1410307  Network.dyn_peer[86]  lookupTimeSig:vector  ETV
vector 1410218  Network.dyn_peer[57]  lookupHopsSig:vector  ETV
vector 1410219  Network.dyn_peer[57]  lookupStabilitySig:vector  ETV
vector 1410220  Network.dyn_peer[57]  lookupTimeSig:vector  ETV
vector 1410491  Network.dyn_peer[148]  lookupHopsSig:vector  ETV
vector 1410492  Network.dyn_peer[148]  lookupStabilitySig:vector  ETV
vector 1410493  Network.dyn_peer[148]  lookupTimeSig:vector  ETV
vector 1410521  Network.dyn_peer[158]  lookupHopsSig:vector  ETV
vector 1410522  Network.dyn_peer[158]  lookupStabilitySig:vector  ETV
vector 1410523  Network.dyn_peer[158]  lookupTimeSig:vector  ETV
vector 1410584  Network.dyn_peer[179]  lookupHopsSig:vector  ETV
vector 1410585  Network.dyn_peer[179]  lookupStabilitySig:vector  ETV
vector 1410586  Network.dyn_peer[179]  lookupTimeSig:vector  ETV
vector 1410500  Network.dyn_peer[151]  lookupHopsSig:vector  ETV
vector 1410501  Network.dyn_peer[151]  lookupStabilitySig:vector  ETV
vector 1410502  Network.dyn_peer[151]  lookupTimeSig:vector  ETV
vector 1410443  Network.dyn_peer[132]  lookupHopsSig:vector  ETV
vector 1410444  Network.dyn_peer[132]  lookupStabilitySig:vector  ETV
vector 1410445  Network.dyn_peer[132]  lookupTimeSig:vector  ETV
vector 1410578  Network.dyn_peer[177]  lookupHopsSig:vector  ETV
vector 1410579  Network.dyn_peer[177]  lookupStabilitySig:vector  ETV
vector 1410580  Network.dyn_peer[177]  lookupTimeSig:vector  ETV
vector 1410434  Network.dyn_peer[129]  lookupHopsSig:vector  ETV
vector 1410435  Network.dyn_peer[129]  lookupStabilitySig:vector  ETV
vector 1410436  Network.dyn_peer[129]  lookupTimeSig:vector  ETV
vector 1410347  Network.dyn_peer[100]  lookupHopsSig:vector  ETV
vector 1410348  Network.dyn_peer[100]  lookupStabilitySig:vector  ETV
vector 1410349  Network.dyn_peer[100]  lookupTimeSig:vector  ETV
vector 1410530  Network.dyn_peer[161]  lookupHopsSig:vector  ETV
vector 1410531  Network.dyn_peer[161]  lookupStabilitySig:vector  ETV
vector 1410532  Network.dyn_peer[161]  lookupTimeSig:vector  ETV
vector 1410560  Network.dyn_peer[171]  lookupHopsSig:vector  ETV
vector 1410561  Network.dyn_peer[171]  lookupStabilitySig:vector  ETV
vector 1410562  Network.dyn_peer[171]  lookupTimeSig:vector  ETV
vector 1410236  Network.dyn_peer[63]  lookupHopsSig:vector  ETV
vector 1410237  Network.dyn_peer[63]  lookupStabilitySig:vector  ETV
vector 1410238  Network.dyn_peer[63]  lookupTimeSig:vector  ETV
vector 1410362  Network.dyn_peer[105]  lookupHopsSig:vector  ETV
vector 1410363  Network.dyn_peer[105]  lookupStabilitySig:vector  ETV
vector 1410364  Network.dyn_peer[105]  lookupTimeSig:vector  ETV
vector 1410662  Network.dyn_peer[205]  lookupHopsSig:vector  ETV
vector 1410663  Network.dyn_peer[205]  lookupStabilitySig:vector  ETV
vector 1410664  Network.dyn_peer[205]  lookupTimeSig:vector  ETV
vector 1410458  Network.dyn_peer[137]  lookupHopsSig:vector  ETV
vector 1410459  Network.dyn_peer[137]  lookupStabilitySig:vector  ETV
vector 1410460  Network.dyn_peer[137]  lookupTimeSig:vector  ETV
vector 1410341  Network.dyn_peer[98]  lookupHopsSig:vector  ETV
vector 1410342  Network.dyn_peer[98]  lookupStabilitySig:vector  ETV
vector 1410343  Network.dyn_peer[98]  lookupTimeSig:vector  ETV
vector 1410527  Network.dyn_peer[160]  lookupHopsSig:vector  ETV
vector 1410528  Network.dyn_peer[160]  lookupStabilitySig:vector  ETV
vector 1410529  Network.dyn_peer[160]  lookupTimeSig:vector  ETV
vector 1410572  Network.dyn_peer[175]  lookupHopsSig:vector  ETV
vector 1410573  Network.dyn_peer[175]  lookupStabilitySig:vector  ETV
vector 1410574  Network.dyn_peer[175]  lookupTimeSig:vector  ETV
vector 1410635  Network.dyn_peer[196]  lookupHopsSig:vector  ETV
vector 1410636  Network.dyn_peer[196]  lookupStabilitySig:vector  ETV
vector 1410637  Network.dyn_peer[196]  lookupTimeSig:vector  ETV
vector 1410488  Network.dyn_peer[147]  lookupHopsSig:vector  ETV
vector 1410489  Network.dyn_peer[147]  lookupStabilitySig:vector  ETV
vector 1410490  Network.dyn_peer[147]  lookupTimeSig:vector  ETV
vector 1410494  Network.dyn_peer[149]  lookupHopsSig:vector  ETV
vector 1410495  Network.dyn_peer[149]  lookupStabilitySig:vector  ETV
vector 1410496  Network.dyn_peer[149]  lookupTimeSig:vector  ETV
vector 1410674  Network.dyn_peer[209]  lookupHopsSig:vector  ETV
vector 1410675  Network.dyn_peer[209]  lookupStabilitySig:vector  ETV
vector 1410676  Network.dyn_peer[209]  lookupTimeSig:vector  ETV
vector 1410680  Network.dyn_peer[211]  lookupHopsSig:vector  ETV
vector 1410681  Network.dyn_peer[211]  lookupStabilitySig:vector  ETV
vector 1410682  Network.dyn_peer[211]  lookupTimeSig:vector  ETV
vector 1410563  Network.dyn_peer[172]  lookupHopsSig:vector  ETV
vector 1410564  Network.dyn_peer[172]  lookupStabilitySig:vector  ETV
vector 1410565  Network.dyn_peer[172]  lookupTimeSig:vector  ETV
vector 1410482  Network.dyn_peer[145]  lookupHopsSig:vector  ETV
vector 1410483  Network.dyn_peer[145]  lookupStabilitySig:vector  ETV
vector 1410484  Network.dyn_peer[145]  lookupTimeSig:vector  ETV
vector 1410632  Network.dyn_peer[195]  lookupHopsSig:vector  ETV
vector 1410633  Network.dyn_peer[195]  lookupStabilitySig:vector  ETV
vector 1410634  Network.dyn_peer[195]  lookupTimeSig:vector  ETV
vector 1410245  Network.dyn_peer[66]  lookupHopsSig:vector  ETV
vector 1410246  Network.dyn_peer[66]  lookupStabilitySig:vector  ETV
vector 1410247  Network.dyn_peer[66]  lookupTimeSig:vector  ETV
vector 1410485  Network.dyn_peer[146]  lookupHopsSig:vector  ETV
vector 1410486  Network.dyn_peer[146]  lookupStabilitySig:vector  ETV
vector 1410487  Network.dyn_peer[146]  lookupTimeSig:vector  ETV
vector 1410515  Network.dyn_peer[156]  lookupHopsSig:vector  ETV
vector 1410516  Network.dyn_peer[156]  lookupStabilitySig:vector  ETV
vector 1410517  Network.dyn_peer[156]  lookupTimeSig:vector  ETV
vector 1410368  Network.dyn_peer[107]  lookupHopsSig:vector  ETV
vector 1410369  Network.dyn_peer[107]  lookupStabilitySig:vector  ETV
vector 1410370  Network.dyn_peer[107]  lookupTimeSig:vector  ETV
vector 1410644  Network.dyn_peer[199]  lookupHopsSig:vector  ETV
vector 1410645  Network.dyn_peer[199]  lookupStabilitySig:vector  ETV
vector 1410646  Network.dyn_peer[199]  lookupTimeSig:vector  ETV
vector 1410704  Network.dyn_peer[219]  lookupHopsSig:vector  ETV
vector 1410705  Network.dyn_peer[219]  lookupStabilitySig:vector  ETV
vector 1410706  Network.dyn_peer[219]  lookupTimeSig:vector  ETV
vector 1410377  Network.dyn_peer[110]  lookupHopsSig:vector  ETV
vector 1410378  Network.dyn_peer[110]  lookupStabilitySig:vector  ETV
vector 1410379  Network.dyn_peer[110]  lookupTimeSig:vector  ETV
vector 1410407  Network.dyn_peer[120]  lookupHopsSig:vector  ETV
vector 1410408  Network.dyn_peer[120]  lookupStabilitySig:vector  ETV
vector 1410409  Network.dyn_peer[120]  lookupTimeSig:vector  ETV
vector 1410710  Network.dyn_peer[221]  lookupHopsSig:vector  ETV
vector 1410711  Network.dyn_peer[221]  lookupStabilitySig:vector  ETV
vector 1410712  Network.dyn_peer[221]  lookupTimeSig:vector  ETV
vector 1410113  Network.dyn_peer[22]  lookupHopsSig:vector  ETV
vector 1410114  Network.dyn_peer[22]  lookupStabilitySig:vector  ETV
vector 1410115  Network.dyn_peer[22]  lookupTimeSig:vector  ETV
vector 1410653  Network.dyn_peer[202]  lookupHopsSig:vector  ETV
vector 1410654  Network.dyn_peer[202]  lookupStabilitySig:vector  ETV
vector 1410655  Network.dyn_peer[202]  lookupTimeSig:vector  ETV
vector 1410506  Network.dyn_peer[153]  lookupHopsSig:vector  ETV
vector 1410507  Network.dyn_peer[153]  lookupStabilitySig:vector  ETV
vector 1410508  Network.dyn_peer[153]  lookupTimeSig:vector  ETV
vector 1410716  Network.dyn_peer[223]  lookupHopsSig:vector  ETV
vector 1410717  Network.dyn_peer[223]  lookupStabilitySig:vector  ETV
vector 1410718  Network.dyn_peer[223]  lookupTimeSig:vector  ETV
vector 1410548  Network.dyn_peer[167]  lookupHopsSig:vector  ETV
vector 1410549  Network.dyn_peer[167]  lookupStabilitySig:vector  ETV
vector 1410550  Network.dyn_peer[167]  lookupTimeSig:vector  ETV
vector 1410461  Network.dyn_peer[138]  lookupHopsSig:vector  ETV
vector 1410462  Network.dyn_peer[138]  lookupStabilitySig:vector  ETV
vector 1410463  Network.dyn_peer[138]  lookupTimeSig:vector  ETV
vector 1410701  Network.dyn_peer[218]  lookupHopsSig:vector  ETV
vector 1410702  Network.dyn_peer[218]  lookupStabilitySig:vector  ETV
vector 1410703  Network.dyn_peer[218]  lookupTimeSig:vector  ETV