version 2
run Stability2-42-20130528-01:26:00-24168
attr configname Stability2
attr datetime 20130528-01:26:00
attr experiment Stability2
attr inifile omnetpp.ini
attr iterationvars $0=50
attr iterationvars2 "$0=50, $repetition=2"
attr measurement $0=50
attr network Network
attr processid 24168
attr repetition 2
attr replication #2
attr resultdir results
attr runnumber 42
attr seedset 42

vector 1290042  Network.churner  inGoingSizeSig:vector  ETV
vector 1260048  Network.dyn_peer[2]  lookupHopsSig:vector  ETV
vector 1260049  Network.dyn_peer[2]  lookupStabilitySig:vector  ETV
vector 1260050  Network.dyn_peer[2]  lookupTimeSig:vector  ETV
vector 1260054  Network.dyn_peer[4]  lookupHopsSig:vector  ETV
vector 1260055  Network.dyn_peer[4]  lookupStabilitySig:vector  ETV
vector 1260056  Network.dyn_peer[4]  lookupTimeSig:vector  ETV
vector 1260042  Network.dyn_peer[0]  lookupHopsSig:vector  ETV
vector 1260043  Network.dyn_peer[0]  lookupStabilitySig:vector  ETV
vector 1260044  Network.dyn_peer[0]  lookupTimeSig:vector  ETV
vector 1260045  Network.dyn_peer[1]  lookupHopsSig:vector  ETV
vector 1260046  Network.dyn_peer[1]  lookupStabilitySig:vector  ETV
vector 1260047  Network.dyn_peer[1]  lookupTimeSig:vector  ETV
vector 1260063  Network.dyn_peer[7]  lookupHopsSig:vector  ETV
vector 1260064  Network.dyn_peer[7]  lookupStabilitySig:vector  ETV
vector 1260065  Network.dyn_peer[7]  lookupTimeSig:vector  ETV
vector 1260069  Network.dyn_peer[9]  lookupHopsSig:vector  ETV
vector 1260070  Network.dyn_peer[9]  lookupStabilitySig:vector  ETV
vector 1260071  Network.dyn_peer[9]  lookupTimeSig:vector  ETV
vector 1260075  Network.dyn_peer[11]  lookupHopsSig:vector  ETV
vector 1260076  Network.dyn_peer[11]  lookupStabilitySig:vector  ETV
vector 1260077  Network.dyn_peer[11]  lookupTimeSig:vector  ETV
vector 1260078  Network.dyn_peer[12]  lookupHopsSig:vector  ETV
vector 1260079  Network.dyn_peer[12]  lookupStabilitySig:vector  ETV
vector 1260080  Network.dyn_peer[12]  lookupTimeSig:vector  ETV
vector 1260051  Network.dyn_peer[3]  lookupHopsSig:vector  ETV
vector 1260052  Network.dyn_peer[3]  lookupStabilitySig:vector  ETV
vector 1260053  Network.dyn_peer[3]  lookupTimeSig:vector  ETV
vector 1260081  Network.dyn_peer[13]  lookupHopsSig:vector  ETV
vector 1260082  Network.dyn_peer[13]  lookupStabilitySig:vector  ETV
vector 1260083  Network.dyn_peer[13]  lookupTimeSig:vector  ETV
vector 1260057  Network.dyn_peer[5]  lookupHopsSig:vector  ETV
vector 1260058  Network.dyn_peer[5]  lookupStabilitySig:vector  ETV
vector 1260059  Network.dyn_peer[5]  lookupTimeSig:vector  ETV
vector 1260066  Network.dyn_peer[8]  lookupHopsSig:vector  ETV
vector 1260067  Network.dyn_peer[8]  lookupStabilitySig:vector  ETV
vector 1260068  Network.dyn_peer[8]  lookupTimeSig:vector  ETV
vector 1260099  Network.dyn_peer[19]  lookupHopsSig:vector  ETV
vector 1260100  Network.dyn_peer[19]  lookupStabilitySig:vector  ETV
vector 1260101  Network.dyn_peer[19]  lookupTimeSig:vector  ETV
vector 1260072  Network.dyn_peer[10]  lookupHopsSig:vector  ETV
vector 1260073  Network.dyn_peer[10]  lookupStabilitySig:vector  ETV
vector 1260074  Network.dyn_peer[10]  lookupTimeSig:vector  ETV
vector 1260102  Network.dyn_peer[20]  lookupHopsSig:vector  ETV
vector 1260103  Network.dyn_peer[20]  lookupStabilitySig:vector  ETV
vector 1260104  Network.dyn_peer[20]  lookupTimeSig:vector  ETV
vector 1260105  Network.dyn_peer[21]  lookupHopsSig:vector  ETV
vector 1260106  Network.dyn_peer[21]  lookupStabilitySig:vector  ETV
vector 1260107  Network.dyn_peer[21]  lookupTimeSig:vector  ETV
vector 1260084  Network.dyn_peer[14]  lookupHopsSig:vector  ETV
vector 1260085  Network.dyn_peer[14]  lookupStabilitySig:vector  ETV
vector 1260086  Network.dyn_peer[14]  lookupTimeSig:vector  ETV
vector 1260144  Network.dyn_peer[34]  lookupHopsSig:vector  ETV
vector 1260145  Network.dyn_peer[34]  lookupStabilitySig:vector  ETV
vector 1260146  Network.dyn_peer[34]  lookupTimeSig:vector  ETV
vector 1260060  Network.dyn_peer[6]  lookupHopsSig:vector  ETV
vector 1260061  Network.dyn_peer[6]  lookupStabilitySig:vector  ETV
vector 1260062  Network.dyn_peer[6]  lookupTimeSig:vector  ETV
vector 1260090  Network.dyn_peer[16]  lookupHopsSig:vector  ETV
vector 1260091  Network.dyn_peer[16]  lookupStabilitySig:vector  ETV
vector 1260092  Network.dyn_peer[16]  lookupTimeSig:vector  ETV
vector 1260135  Network.dyn_peer[31]  lookupHopsSig:vector  ETV
vector 1260136  Network.dyn_peer[31]  lookupStabilitySig:vector  ETV
vector 1260137  Network.dyn_peer[31]  lookupTimeSig:vector  ETV
vector 1260165  Network.dyn_peer[41]  lookupHopsSig:vector  ETV
vector 1260166  Network.dyn_peer[41]  lookupStabilitySig:vector  ETV
vector 1260167  Network.dyn_peer[41]  lookupTimeSig:vector  ETV
vector 1260117  Network.dyn_peer[25]  lookupHopsSig:vector  ETV
vector 1260118  Network.dyn_peer[25]  lookupStabilitySig:vector  ETV
vector 1260119  Network.dyn_peer[25]  lookupTimeSig:vector  ETV
vector 1260093  Network.dyn_peer[17]  lookupHopsSig:vector  ETV
vector 1260094  Network.dyn_peer[17]  lookupStabilitySig:vector  ETV
vector 1260095  Network.dyn_peer[17]  lookupTimeSig:vector  ETV
vector 1260123  Network.dyn_peer[27]  lookupHopsSig:vector  ETV
vector 1260124  Network.dyn_peer[27]  lookupStabilitySig:vector  ETV
vector 1260125  Network.dyn_peer[27]  lookupTimeSig:vector  ETV
vector 1260108  Network.dyn_peer[22]  lookupHopsSig:vector  ETV
vector 1260109  Network.dyn_peer[22]  lookupStabilitySig:vector  ETV
vector 1260110  Network.dyn_peer[22]  lookupTimeSig:vector  ETV
vector 1260141  Network.dyn_peer[33]  lookupHopsSig:vector  ETV
vector 1260142  Network.dyn_peer[33]  lookupStabilitySig:vector  ETV
vector 1260143  Network.dyn_peer[33]  lookupTimeSig:vector  ETV
vector 1260087  Network.dyn_peer[15]  lookupHopsSig:vector  ETV
vector 1260088  Network.dyn_peer[15]  lookupStabilitySig:vector  ETV
vector 1260089  Network.dyn_peer[15]  lookupTimeSig:vector  ETV
vector 1260177  Network.dyn_peer[45]  lookupHopsSig:vector  ETV
vector 1260178  Network.dyn_peer[45]  lookupStabilitySig:vector  ETV
vector 1260179  Network.dyn_peer[45]  lookupTimeSig:vector  ETV
vector 1260120  Network.dyn_peer[26]  lookupHopsSig:vector  ETV
vector 1260121  Network.dyn_peer[26]  lookupStabilitySig:vector  ETV
vector 1260122  Network.dyn_peer[26]  lookupTimeSig:vector  ETV
vector 1260153  Network.dyn_peer[37]  lookupHopsSig:vector  ETV
vector 1260154  Network.dyn_peer[37]  lookupStabilitySig:vector  ETV
vector 1260155  Network.dyn_peer[37]  lookupTimeSig:vector  ETV
vector 1260183  Network.dyn_peer[47]  lookupHopsSig:vector  ETV
vector 1260184  Network.dyn_peer[47]  lookupStabilitySig:vector  ETV
vector 1260185  Network.dyn_peer[47]  lookupTimeSig:vector  ETV
vector 1260096  Network.dyn_peer[18]  lookupHopsSig:vector  ETV
vector 1260097  Network.dyn_peer[18]  lookupStabilitySig:vector  ETV
vector 1260098  Network.dyn_peer[18]  lookupTimeSig:vector  ETV
vector 1260126  Network.dyn_peer[28]  lookupHopsSig:vector  ETV
vector 1260127  Network.dyn_peer[28]  lookupStabilitySig:vector  ETV
vector 1260128  Network.dyn_peer[28]  lookupTimeSig:vector  ETV
vector 1260129  Network.dyn_peer[29]  lookupHopsSig:vector  ETV
vector 1260130  Network.dyn_peer[29]  lookupStabilitySig:vector  ETV
vector 1260131  Network.dyn_peer[29]  lookupTimeSig:vector  ETV
vector 1260195  Network.dyn_peer[51]  lookupHopsSig:vector  ETV
vector 1260196  Network.dyn_peer[51]  lookupStabilitySig:vector  ETV
vector 1260197  Network.dyn_peer[51]  lookupTimeSig:vector  ETV
vector 1260168  Network.dyn_peer[42]  lookupHopsSig:vector  ETV
vector 1260169  Network.dyn_peer[42]  lookupStabilitySig:vector  ETV
vector 1260170  Network.dyn_peer[42]  lookupTimeSig:vector  ETV
vector 1260234  Network.dyn_peer[64]  lookupHopsSig:vector  ETV
vector 1260235  Network.dyn_peer[64]  lookupStabilitySig:vector  ETV
vector 1260236  Network.dyn_peer[64]  lookupTimeSig:vector  ETV
vector 1260189  Network.dyn_peer[49]  lookupHopsSig:vector  ETV
vector 1260190  Network.dyn_peer[49]  lookupStabilitySig:vector  ETV
vector 1260191  Network.dyn_peer[49]  lookupTimeSig:vector  ETV
vector 1260132  Network.dyn_peer[30]  lookupHopsSig:vector  ETV
vector 1260133  Network.dyn_peer[30]  lookupStabilitySig:vector  ETV
vector 1260134  Network.dyn_peer[30]  lookupTimeSig:vector  ETV
vector 1260225  Network.dyn_peer[61]  lookupHopsSig:vector  ETV
vector 1260226  Network.dyn_peer[61]  lookupStabilitySig:vector  ETV
vector 1260227  Network.dyn_peer[61]  lookupTimeSig:vector  ETV
vector 1260231  Network.dyn_peer[63]  lookupHopsSig:vector  ETV
vector 1260232  Network.dyn_peer[63]  lookupStabilitySig:vector  ETV
vector 1260233  Network.dyn_peer[63]  lookupTimeSig:vector  ETV
vector 1260267  Network.dyn_peer[75]  lookupHopsSig:vector  ETV
vector 1260268  Network.dyn_peer[75]  lookupStabilitySig:vector  ETV
vector 1260269  Network.dyn_peer[75]  lookupTimeSig:vector  ETV
vector 1260270  Network.dyn_peer[76]  lookupHopsSig:vector  ETV
vector 1260271  Network.dyn_peer[76]  lookupStabilitySig:vector  ETV
vector 1260272  Network.dyn_peer[76]  lookupTimeSig:vector  ETV
vector 1260273  Network.dyn_peer[77]  lookupHopsSig:vector  ETV
vector 1260274  Network.dyn_peer[77]  lookupStabilitySig:vector  ETV
vector 1260275  Network.dyn_peer[77]  lookupTimeSig:vector  ETV
vector 1260279  Network.dyn_peer[79]  lookupHopsSig:vector  ETV
vector 1260280  Network.dyn_peer[79]  lookupStabilitySig:vector  ETV
vector 1260281  Network.dyn_peer[79]  lookupTimeSig:vector  ETV
vector 1260138  Network.dyn_peer[32]  lookupHopsSig:vector  ETV
vector 1260139  Network.dyn_peer[32]  lookupStabilitySig:vector  ETV
vector 1260140  Network.dyn_peer[32]  lookupTimeSig:vector  ETV
vector 1260198  Network.dyn_peer[52]  lookupHopsSig:vector  ETV
vector 1260199  Network.dyn_peer[52]  lookupStabilitySig:vector  ETV
vector 1260200  Network.dyn_peer[52]  lookupTimeSig:vector  ETV
vector 1260111  Network.dyn_peer[23]  lookupHopsSig:vector  ETV
vector 1260112  Network.dyn_peer[23]  lookupStabilitySig:vector  ETV
vector 1260113  Network.dyn_peer[23]  lookupTimeSig:vector  ETV
vector 1260264  Network.dyn_peer[74]  lookupHopsSig:vector  ETV
vector 1260265  Network.dyn_peer[74]  lookupStabilitySig:vector  ETV
vector 1260266  Network.dyn_peer[74]  lookupTimeSig:vector  ETV
vector 1260207  Network.dyn_peer[55]  lookupHopsSig:vector  ETV
vector 1260208  Network.dyn_peer[55]  lookupStabilitySig:vector  ETV
vector 1260209  Network.dyn_peer[55]  lookupTimeSig:vector  ETV
vector 1260159  Network.dyn_peer[39]  lookupHopsSig:vector  ETV
vector 1260160  Network.dyn_peer[39]  lookupStabilitySig:vector  ETV
vector 1260161  Network.dyn_peer[39]  lookupTimeSig:vector  ETV
vector 1260171  Network.dyn_peer[43]  lookupHopsSig:vector  ETV
vector 1260172  Network.dyn_peer[43]  lookupStabilitySig:vector  ETV
vector 1260173  Network.dyn_peer[43]  lookupTimeSig:vector  ETV
vector 1260174  Network.dyn_peer[44]  lookupHopsSig:vector  ETV
vector 1260175  Network.dyn_peer[44]  lookupStabilitySig:vector  ETV
vector 1260176  Network.dyn_peer[44]  lookupTimeSig:vector  ETV
vector 1260147  Network.dyn_peer[35]  lookupHopsSig:vector  ETV
vector 1260148  Network.dyn_peer[35]  lookupStabilitySig:vector  ETV
vector 1260149  Network.dyn_peer[35]  lookupTimeSig:vector  ETV
vector 1260213  Network.dyn_peer[57]  lookupHopsSig:vector  ETV
vector 1260214  Network.dyn_peer[57]  lookupStabilitySig:vector  ETV
vector 1260215  Network.dyn_peer[57]  lookupTimeSig:vector  ETV
vector 1260186  Network.dyn_peer[48]  lookupHopsSig:vector  ETV
vector 1260187  Network.dyn_peer[48]  lookupStabilitySig:vector  ETV
vector 1260188  Network.dyn_peer[48]  lookupTimeSig:vector  ETV
vector 1260201  Network.dyn_peer[53]  lookupHopsSig:vector  ETV
vector 1260202  Network.dyn_peer[53]  lookupStabilitySig:vector  ETV
vector 1260203  Network.dyn_peer[53]  lookupTimeSig:vector  ETV
vector 1260240  Network.dyn_peer[66]  lookupHopsSig:vector  ETV
vector 1260241  Network.dyn_peer[66]  lookupStabilitySig:vector  ETV
vector 1260242  Network.dyn_peer[66]  lookupTimeSig:vector  ETV
vector 1260360  Network.dyn_peer[106]  lookupHopsSig:vector  ETV
vector 1260361  Network.dyn_peer[106]  lookupStabilitySig:vector  ETV
vector 1260362  Network.dyn_peer[106]  lookupTimeSig:vector  ETV
vector 1260390  Network.dyn_peer[116]  lookupHopsSig:vector  ETV
vector 1260391  Network.dyn_peer[116]  lookupStabilitySig:vector  ETV
vector 1260392  Network.dyn_peer[116]  lookupTimeSig:vector  ETV
vector 1260363  Network.dyn_peer[107]  lookupHopsSig:vector  ETV
vector 1260364  Network.dyn_peer[107]  lookupStabilitySig:vector  ETV
vector 1260365  Network.dyn_peer[107]  lookupTimeSig:vector  ETV
vector 1260162  Network.dyn_peer[40]  lookupHopsSig:vector  ETV
vector 1260163  Network.dyn_peer[40]  lookupStabilitySig:vector  ETV
vector 1260164  Network.dyn_peer[40]  lookupTimeSig:vector  ETV
vector 1260192  Network.dyn_peer[50]  lookupHopsSig:vector  ETV
vector 1260193  Network.dyn_peer[50]  lookupStabilitySig:vector  ETV
vector 1260194  Network.dyn_peer[50]  lookupTimeSig:vector  ETV
vector 1260327  Network.dyn_peer[95]  lookupHopsSig:vector  ETV
vector 1260328  Network.dyn_peer[95]  lookupStabilitySig:vector  ETV
vector 1260329  Network.dyn_peer[95]  lookupTimeSig:vector  ETV
vector 1260300  Network.dyn_peer[86]  lookupHopsSig:vector  ETV
vector 1260301  Network.dyn_peer[86]  lookupStabilitySig:vector  ETV
vector 1260302  Network.dyn_peer[86]  lookupTimeSig:vector  ETV
vector 1260366  Network.dyn_peer[108]  lookupHopsSig:vector  ETV
vector 1260367  Network.dyn_peer[108]  lookupStabilitySig:vector  ETV
vector 1260368  Network.dyn_peer[108]  lookupTimeSig:vector  ETV
vector 1260252  Network.dyn_peer[70]  lookupHopsSig:vector  ETV
vector 1260253  Network.dyn_peer[70]  lookupStabilitySig:vector  ETV
vector 1260254  Network.dyn_peer[70]  lookupTimeSig:vector  ETV
vector 1260228  Network.dyn_peer[62]  lookupHopsSig:vector  ETV
vector 1260229  Network.dyn_peer[62]  lookupStabilitySig:vector  ETV
vector 1260230  Network.dyn_peer[62]  lookupTimeSig:vector  ETV
vector 1260321  Network.dyn_peer[93]  lookupHopsSig:vector  ETV
vector 1260322  Network.dyn_peer[93]  lookupStabilitySig:vector  ETV
vector 1260323  Network.dyn_peer[93]  lookupTimeSig:vector  ETV
vector 1260381  Network.dyn_peer[113]  lookupHopsSig:vector  ETV
vector 1260382  Network.dyn_peer[113]  lookupStabilitySig:vector  ETV
vector 1260383  Network.dyn_peer[113]  lookupTimeSig:vector  ETV
vector 1260294  Network.dyn_peer[84]  lookupHopsSig:vector  ETV
vector 1260295  Network.dyn_peer[84]  lookupStabilitySig:vector  ETV
vector 1260296  Network.dyn_peer[84]  lookupTimeSig:vector  ETV
vector 1260396  Network.dyn_peer[118]  lookupHopsSig:vector  ETV
vector 1260397  Network.dyn_peer[118]  lookupStabilitySig:vector  ETV
vector 1260398  Network.dyn_peer[118]  lookupTimeSig:vector  ETV
vector 1260255  Network.dyn_peer[71]  lookupHopsSig:vector  ETV
vector 1260256  Network.dyn_peer[71]  lookupStabilitySig:vector  ETV
vector 1260257  Network.dyn_peer[71]  lookupTimeSig:vector  ETV
vector 1260435  Network.dyn_peer[131]  lookupHopsSig:vector  ETV
vector 1260436  Network.dyn_peer[131]  lookupStabilitySig:vector  ETV
vector 1260437  Network.dyn_peer[131]  lookupTimeSig:vector  ETV
vector 1260378  Network.dyn_peer[112]  lookupHopsSig:vector  ETV
vector 1260379  Network.dyn_peer[112]  lookupStabilitySig:vector  ETV
vector 1260380  Network.dyn_peer[112]  lookupTimeSig:vector  ETV
vector 1260297  Network.dyn_peer[85]  lookupHopsSig:vector  ETV
vector 1260298  Network.dyn_peer[85]  lookupStabilitySig:vector  ETV
vector 1260299  Network.dyn_peer[85]  lookupTimeSig:vector  ETV
vector 1260156  Network.dyn_peer[38]  lookupHopsSig:vector  ETV
vector 1260157  Network.dyn_peer[38]  lookupStabilitySig:vector  ETV
vector 1260158  Network.dyn_peer[38]  lookupTimeSig:vector  ETV
vector 1260306  Network.dyn_peer[88]  lookupHopsSig:vector  ETV
vector 1260307  Network.dyn_peer[88]  lookupStabilitySig:vector  ETV
vector 1260308  Network.dyn_peer[88]  lookupTimeSig:vector  ETV
vector 1260219  Network.dyn_peer[59]  lookupHopsSig:vector  ETV
vector 1260220  Network.dyn_peer[59]  lookupStabilitySig:vector  ETV
vector 1260221  Network.dyn_peer[59]  lookupTimeSig:vector  ETV
vector 1260369  Network.dyn_peer[109]  lookupHopsSig:vector  ETV
vector 1260370  Network.dyn_peer[109]  lookupStabilitySig:vector  ETV
vector 1260371  Network.dyn_peer[109]  lookupTimeSig:vector  ETV
vector 1260429  Network.dyn_peer[129]  lookupHopsSig:vector  ETV
vector 1260430  Network.dyn_peer[129]  lookupStabilitySig:vector  ETV
vector 1260431  Network.dyn_peer[129]  lookupTimeSig:vector  ETV
vector 1260282  Network.dyn_peer[80]  lookupHopsSig:vector  ETV
vector 1260283  Network.dyn_peer[80]  lookupStabilitySig:vector  ETV
vector 1260284  Network.dyn_peer[80]  lookupTimeSig:vector  ETV
vector 1260312  Network.dyn_peer[90]  lookupHopsSig:vector  ETV
vector 1260313  Network.dyn_peer[90]  lookupStabilitySig:vector  ETV
vector 1260314  Network.dyn_peer[90]  lookupTimeSig:vector  ETV
vector 1260402  Network.dyn_peer[120]  lookupHopsSig:vector  ETV
vector 1260403  Network.dyn_peer[120]  lookupStabilitySig:vector  ETV
vector 1260404  Network.dyn_peer[120]  lookupTimeSig:vector  ETV
vector 1260462  Network.dyn_peer[140]  lookupHopsSig:vector  ETV
vector 1260463  Network.dyn_peer[140]  lookupStabilitySig:vector  ETV
vector 1260464  Network.dyn_peer[140]  lookupTimeSig:vector  ETV
vector 1260288  Network.dyn_peer[82]  lookupHopsSig:vector  ETV
vector 1260289  Network.dyn_peer[82]  lookupStabilitySig:vector  ETV
vector 1260290  Network.dyn_peer[82]  lookupTimeSig:vector  ETV
vector 1260420  Network.dyn_peer[126]  lookupHopsSig:vector  ETV
vector 1260421  Network.dyn_peer[126]  lookupStabilitySig:vector  ETV
vector 1260422  Network.dyn_peer[126]  lookupTimeSig:vector  ETV
vector 1260303  Network.dyn_peer[87]  lookupHopsSig:vector  ETV
vector 1260304  Network.dyn_peer[87]  lookupStabilitySig:vector  ETV
vector 1260305  Network.dyn_peer[87]  lookupTimeSig:vector  ETV
vector 1260471  Network.dyn_peer[143]  lookupHopsSig:vector  ETV
vector 1260472  Network.dyn_peer[143]  lookupStabilitySig:vector  ETV
vector 1260473  Network.dyn_peer[143]  lookupTimeSig:vector  ETV
vector 1260447  Network.dyn_peer[135]  lookupHopsSig:vector  ETV
vector 1260448  Network.dyn_peer[135]  lookupStabilitySig:vector  ETV
vector 1260449  Network.dyn_peer[135]  lookupTimeSig:vector  ETV
vector 1260222  Network.dyn_peer[60]  lookupHopsSig:vector  ETV
vector 1260223  Network.dyn_peer[60]  lookupStabilitySig:vector  ETV
vector 1260224  Network.dyn_peer[60]  lookupTimeSig:vector  ETV
vector 1260372  Network.dyn_peer[110]  lookupHopsSig:vector  ETV
vector 1260373  Network.dyn_peer[110]  lookupStabilitySig:vector  ETV
vector 1260374  Network.dyn_peer[110]  lookupTimeSig:vector  ETV
vector 1260474  Network.dyn_peer[144]  lookupHopsSig:vector  ETV
vector 1260475  Network.dyn_peer[144]  lookupStabilitySig:vector  ETV
vector 1260476  Network.dyn_peer[144]  lookupTimeSig:vector  ETV
vector 1260276  Network.dyn_peer[78]  lookupHopsSig:vector  ETV
vector 1260277  Network.dyn_peer[78]  lookupStabilitySig:vector  ETV
vector 1260278  Network.dyn_peer[78]  lookupTimeSig:vector  ETV
vector 1260522  Network.dyn_peer[160]  lookupHopsSig:vector  ETV
vector 1260523  Network.dyn_peer[160]  lookupStabilitySig:vector  ETV
vector 1260524  Network.dyn_peer[160]  lookupTimeSig:vector  ETV
vector 1260345  Network.dyn_peer[101]  lookupHopsSig:vector  ETV
vector 1260346  Network.dyn_peer[101]  lookupStabilitySig:vector  ETV
vector 1260347  Network.dyn_peer[101]  lookupTimeSig:vector  ETV
vector 1260531  Network.dyn_peer[163]  lookupHopsSig:vector  ETV
vector 1260532  Network.dyn_peer[163]  lookupStabilitySig:vector  ETV
vector 1260533  Network.dyn_peer[163]  lookupTimeSig:vector  ETV
vector 1260423  Network.dyn_peer[127]  lookupHopsSig:vector  ETV
vector 1260424  Network.dyn_peer[127]  lookupStabilitySig:vector  ETV
vector 1260425  Network.dyn_peer[127]  lookupTimeSig:vector  ETV
vector 1260453  Network.dyn_peer[137]  lookupHopsSig:vector  ETV
vector 1260454  Network.dyn_peer[137]  lookupStabilitySig:vector  ETV
vector 1260455  Network.dyn_peer[137]  lookupTimeSig:vector  ETV
vector 1260459  Network.dyn_peer[139]  lookupHopsSig:vector  ETV
vector 1260460  Network.dyn_peer[139]  lookupStabilitySig:vector  ETV
vector 1260461  Network.dyn_peer[139]  lookupTimeSig:vector  ETV
vector 1260342  Network.dyn_peer[100]  lookupHopsSig:vector  ETV
vector 1260343  Network.dyn_peer[100]  lookupStabilitySig:vector  ETV
vector 1260344  Network.dyn_peer[100]  lookupTimeSig:vector  ETV
vector 1260495  Network.dyn_peer[151]  lookupHopsSig:vector  ETV
vector 1260496  Network.dyn_peer[151]  lookupStabilitySig:vector  ETV
vector 1260497  Network.dyn_peer[151]  lookupTimeSig:vector  ETV
vector 1260348  Network.dyn_peer[102]  lookupHopsSig:vector  ETV
vector 1260349  Network.dyn_peer[102]  lookupStabilitySig:vector  ETV
vector 1260350  Network.dyn_peer[102]  lookupTimeSig:vector  ETV
vector 1260291  Network.dyn_peer[83]  lookupHopsSig:vector  ETV
vector 1260292  Network.dyn_peer[83]  lookupStabilitySig:vector  ETV
vector 1260293  Network.dyn_peer[83]  lookupTimeSig:vector  ETV
vector 1260444  Network.dyn_peer[134]  lookupHopsSig:vector  ETV
vector 1260445  Network.dyn_peer[134]  lookupStabilitySig:vector  ETV
vector 1260446  Network.dyn_peer[134]  lookupTimeSig:vector  ETV
vector 1260534  Network.dyn_peer[164]  lookupHopsSig:vector  ETV
vector 1260535  Network.dyn_peer[164]  lookupStabilitySig:vector  ETV
vector 1260536  Network.dyn_peer[164]  lookupTimeSig:vector  ETV
vector 1260357  Network.dyn_peer[105]  lookupHopsSig:vector  ETV
vector 1260358  Network.dyn_peer[105]  lookupStabilitySig:vector  ETV
vector 1260359  Network.dyn_peer[105]  lookupTimeSig:vector  ETV
vector 1260567  Network.dyn_peer[175]  lookupHopsSig:vector  ETV
vector 1260568  Network.dyn_peer[175]  lookupStabilitySig:vector  ETV
vector 1260569  Network.dyn_peer[175]  lookupTimeSig:vector  ETV
vector 1260549  Network.dyn_peer[169]  lookupHopsSig:vector  ETV
vector 1260550  Network.dyn_peer[169]  lookupStabilitySig:vector  ETV
vector 1260551  Network.dyn_peer[169]  lookupTimeSig:vector  ETV
vector 1260579  Network.dyn_peer[179]  lookupHopsSig:vector  ETV
vector 1260580  Network.dyn_peer[179]  lookupStabilitySig:vector  ETV
vector 1260581  Network.dyn_peer[179]  lookupTimeSig:vector  ETV
vector 1260468  Network.dyn_peer[142]  lookupHopsSig:vector  ETV
vector 1260469  Network.dyn_peer[142]  lookupStabilitySig:vector  ETV
vector 1260470  Network.dyn_peer[142]  lookupTimeSig:vector  ETV
vector 1260324  Network.dyn_peer[94]  lookupHopsSig:vector  ETV
vector 1260325  Network.dyn_peer[94]  lookupStabilitySig:vector  ETV
vector 1260326  Network.dyn_peer[94]  lookupTimeSig:vector  ETV
vector 1260384  Network.dyn_peer[114]  lookupHopsSig:vector  ETV
vector 1260385  Network.dyn_peer[114]  lookupStabilitySig:vector  ETV
vector 1260386  Network.dyn_peer[114]  lookupTimeSig:vector  ETV
vector 1260594  Network.dyn_peer[184]  lookupHopsSig:vector  ETV
vector 1260595  Network.dyn_peer[184]  lookupStabilitySig:vector  ETV
vector 1260596  Network.dyn_peer[184]  lookupTimeSig:vector  ETV
vector 1260387  Network.dyn_peer[115]  lookupHopsSig:vector  ETV
vector 1260388  Network.dyn_peer[115]  lookupStabilitySig:vector  ETV
vector 1260389  Network.dyn_peer[115]  lookupTimeSig:vector  ETV
vector 1260210  Network.dyn_peer[56]  lookupHopsSig:vector  ETV
vector 1260211  Network.dyn_peer[56]  lookupStabilitySig:vector  ETV
vector 1260212  Network.dyn_peer[56]  lookupTimeSig:vector  ETV
vector 1260336  Network.dyn_peer[98]  lookupHopsSig:vector  ETV
vector 1260337  Network.dyn_peer[98]  lookupStabilitySig:vector  ETV
vector 1260338  Network.dyn_peer[98]  lookupTimeSig:vector  ETV
vector 1260606  Network.dyn_peer[188]  lookupHopsSig:vector  ETV
vector 1260607  Network.dyn_peer[188]  lookupStabilitySig:vector  ETV
vector 1260608  Network.dyn_peer[188]  lookupTimeSig:vector  ETV
vector 1260318  Network.dyn_peer[92]  lookupHopsSig:vector  ETV
vector 1260319  Network.dyn_peer[92]  lookupStabilitySig:vector  ETV
vector 1260320  Network.dyn_peer[92]  lookupTimeSig:vector  ETV
vector 1260528  Network.dyn_peer[162]  lookupHopsSig:vector  ETV
vector 1260529  Network.dyn_peer[162]  lookupStabilitySig:vector  ETV
vector 1260530  Network.dyn_peer[162]  lookupTimeSig:vector  ETV
vector 1260618  Network.dyn_peer[192]  lookupHopsSig:vector  ETV
vector 1260619  Network.dyn_peer[192]  lookupStabilitySig:vector  ETV
vector 1260620  Network.dyn_peer[192]  lookupTimeSig:vector  ETV
vector 1260114  Network.dyn_peer[24]  lookupHopsSig:vector  ETV
vector 1260115  Network.dyn_peer[24]  lookupStabilitySig:vector  ETV
vector 1260116  Network.dyn_peer[24]  lookupTimeSig:vector  ETV
vector 1260537  Network.dyn_peer[165]  lookupHopsSig:vector  ETV
vector 1260538  Network.dyn_peer[165]  lookupStabilitySig:vector  ETV
vector 1260539  Network.dyn_peer[165]  lookupTimeSig:vector  ETV
vector 1260180  Network.dyn_peer[46]  lookupHopsSig:vector  ETV
vector 1260181  Network.dyn_peer[46]  lookupStabilitySig:vector  ETV
vector 1260182  Network.dyn_peer[46]  lookupTimeSig:vector  ETV
vector 1260600  Network.dyn_peer[186]  lookupHopsSig:vector  ETV
vector 1260601  Network.dyn_peer[186]  lookupStabilitySig:vector  ETV
vector 1260602  Network.dyn_peer[186]  lookupTimeSig:vector  ETV
vector 1260513  Network.dyn_peer[157]  lookupHopsSig:vector  ETV
vector 1260514  Network.dyn_peer[157]  lookupStabilitySig:vector  ETV
vector 1260515  Network.dyn_peer[157]  lookupTimeSig:vector  ETV
vector 1260546  Network.dyn_peer[168]  lookupHopsSig:vector  ETV
vector 1260547  Network.dyn_peer[168]  lookupStabilitySig:vector  ETV
vector 1260548  Network.dyn_peer[168]  lookupTimeSig:vector  ETV
vector 1260309  Network.dyn_peer[89]  lookupHopsSig:vector  ETV
vector 1260310  Network.dyn_peer[89]  lookupStabilitySig:vector  ETV
vector 1260311  Network.dyn_peer[89]  lookupTimeSig:vector  ETV
vector 1260438  Network.dyn_peer[132]  lookupHopsSig:vector  ETV
vector 1260439  Network.dyn_peer[132]  lookupStabilitySig:vector  ETV
vector 1260440  Network.dyn_peer[132]  lookupTimeSig:vector  ETV
vector 1260351  Network.dyn_peer[103]  lookupHopsSig:vector  ETV
vector 1260352  Network.dyn_peer[103]  lookupStabilitySig:vector  ETV
vector 1260353  Network.dyn_peer[103]  lookupTimeSig:vector  ETV
vector 1260237  Network.dyn_peer[65]  lookupHopsSig:vector  ETV
vector 1260238  Network.dyn_peer[65]  lookupStabilitySig:vector  ETV
vector 1260239  Network.dyn_peer[65]  lookupTimeSig:vector  ETV
vector 1260570  Network.dyn_peer[176]  lookupHopsSig:vector  ETV
vector 1260571  Network.dyn_peer[176]  lookupStabilitySig:vector  ETV
vector 1260572  Network.dyn_peer[176]  lookupTimeSig:vector  ETV
vector 1260456  Network.dyn_peer[138]  lookupHopsSig:vector  ETV
vector 1260457  Network.dyn_peer[138]  lookupStabilitySig:vector  ETV
vector 1260458  Network.dyn_peer[138]  lookupTimeSig:vector  ETV
vector 1260486  Network.dyn_peer[148]  lookupHopsSig:vector  ETV
vector 1260487  Network.dyn_peer[148]  lookupStabilitySig:vector  ETV
vector 1260488  Network.dyn_peer[148]  lookupTimeSig:vector  ETV
vector 1260375  Network.dyn_peer[111]  lookupHopsSig:vector  ETV
vector 1260376  Network.dyn_peer[111]  lookupStabilitySig:vector  ETV
vector 1260377  Network.dyn_peer[111]  lookupTimeSig:vector  ETV
vector 1260585  Network.dyn_peer[181]  lookupHopsSig:vector  ETV
vector 1260586  Network.dyn_peer[181]  lookupStabilitySig:vector  ETV
vector 1260587  Network.dyn_peer[181]  lookupTimeSig:vector  ETV
vector 1260408  Network.dyn_peer[122]  lookupHopsSig:vector  ETV
vector 1260409  Network.dyn_peer[122]  lookupStabilitySig:vector  ETV
vector 1260410  Network.dyn_peer[122]  lookupTimeSig:vector  ETV
vector 1260261  Network.dyn_peer[73]  lookupHopsSig:vector  ETV
vector 1260262  Network.dyn_peer[73]  lookupStabilitySig:vector  ETV
vector 1260263  Network.dyn_peer[73]  lookupTimeSig:vector  ETV
vector 1260354  Network.dyn_peer[104]  lookupHopsSig:vector  ETV
vector 1260355  Network.dyn_peer[104]  lookupStabilitySig:vector  ETV
vector 1260356  Network.dyn_peer[104]  lookupTimeSig:vector  ETV
vector 1260504  Network.dyn_peer[154]  lookupHopsSig:vector  ETV
vector 1260505  Network.dyn_peer[154]  lookupStabilitySig:vector  ETV
vector 1260506  Network.dyn_peer[154]  lookupTimeSig:vector  ETV
vector 1260330  Network.dyn_peer[96]  lookupHopsSig:vector  ETV
vector 1260331  Network.dyn_peer[96]  lookupStabilitySig:vector  ETV
vector 1260332  Network.dyn_peer[96]  lookupTimeSig:vector  ETV
vector 1260630  Network.dyn_peer[196]  lookupHopsSig:vector  ETV
vector 1260631  Network.dyn_peer[196]  lookupStabilitySig:vector  ETV
vector 1260632  Network.dyn_peer[196]  lookupTimeSig:vector  ETV
vector 1260603  Network.dyn_peer[187]  lookupHopsSig:vector  ETV
vector 1260604  Network.dyn_peer[187]  lookupStabilitySig:vector  ETV
vector 1260605  Network.dyn_peer[187]  lookupTimeSig:vector  ETV
vector 1260576  Network.dyn_peer[178]  lookupHopsSig:vector  ETV
vector 1260577  Network.dyn_peer[178]  lookupStabilitySig:vector  ETV
vector 1260578  Network.dyn_peer[178]  lookupTimeSig:vector  ETV
vector 1260339  Network.dyn_peer[99]  lookupHopsSig:vector  ETV
vector 1260340  Network.dyn_peer[99]  lookupStabilitySig:vector  ETV
vector 1260341  Network.dyn_peer[99]  lookupTimeSig:vector  ETV
vector 1260519  Network.dyn_peer[159]  lookupHopsSig:vector  ETV
vector 1260520  Network.dyn_peer[159]  lookupStabilitySig:vector  ETV
vector 1260521  Network.dyn_peer[159]  lookupTimeSig:vector  ETV
vector 1260699  Network.dyn_peer[219]  lookupHopsSig:vector  ETV
vector 1260700  Network.dyn_peer[219]  lookupStabilitySig:vector  ETV
vector 1260701  Network.dyn_peer[219]  lookupTimeSig:vector  ETV
vector 1260432  Network.dyn_peer[130]  lookupHopsSig:vector  ETV
vector 1260433  Network.dyn_peer[130]  lookupStabilitySig:vector  ETV
vector 1260434  Network.dyn_peer[130]  lookupTimeSig:vector  ETV