version 2
run Stability2-68-20130528-01:32:08-24168
attr configname Stability2
attr datetime 20130528-01:32:08
attr experiment Stability2
attr inifile omnetpp.ini
attr iterationvars $0=200
attr iterationvars2 "$0=200, $repetition=8"
attr measurement $0=200
attr network Network
attr processid 24168
attr repetition 8
attr replication #8
attr resultdir results
attr runnumber 68
attr seedset 68

vector 2070068  Network.churner  inGoingSizeSig:vector  ETV
vector 2040077  Network.dyn_peer[3]  lookupHopsSig:vector  ETV
vector 2040078  Network.dyn_peer[3]  lookupStabilitySig:vector  ETV
vector 2040079  Network.dyn_peer[3]  lookupTimeSig:vector  ETV
vector 2040080  Network.dyn_peer[4]  lookupHopsSig:vector  ETV
vector 2040081  Network.dyn_peer[4]  lookupStabilitySig:vector  ETV
vector 2040082  Network.dyn_peer[4]  lookupTimeSig:vector  ETV
vector 2040083  Network.dyn_peer[5]  lookupHopsSig:vector  ETV
vector 2040084  Network.dyn_peer[5]  lookupStabilitySig:vector  ETV
vector 2040085  Network.dyn_peer[5]  lookupTimeSig:vector  ETV
vector 2040095  Network.dyn_peer[9]  lookupHopsSig:vector  ETV
vector 2040096  Network.dyn_peer[9]  lookupStabilitySig:vector  ETV
vector 2040097  Network.dyn_peer[9]  lookupTimeSig:vector  ETV
vector 2040071  Network.dyn_peer[1]  lookupHopsSig:vector  ETV
vector 2040072  Network.dyn_peer[1]  lookupStabilitySig:vector  ETV
vector 2040073  Network.dyn_peer[1]  lookupTimeSig:vector  ETV
vector 2040074  Network.dyn_peer[2]  lookupHopsSig:vector  ETV
vector 2040075  Network.dyn_peer[2]  lookupStabilitySig:vector  ETV
vector 2040076  Network.dyn_peer[2]  lookupTimeSig:vector  ETV
vector 2040086  Network.dyn_peer[6]  lookupHopsSig:vector  ETV
vector 2040087  Network.dyn_peer[6]  lookupStabilitySig:vector  ETV
vector 2040088  Network.dyn_peer[6]  lookupTimeSig:vector  ETV
vector 2040089  Network.dyn_peer[7]  lookupHopsSig:vector  ETV
vector 2040090  Network.dyn_peer[7]  lookupStabilitySig:vector  ETV
vector 2040091  Network.dyn_peer[7]  lookupTimeSig:vector  ETV
vector 2040107  Network.dyn_peer[13]  lookupHopsSig:vector  ETV
vector 2040108  Network.dyn_peer[13]  lookupStabilitySig:vector  ETV
vector 2040109  Network.dyn_peer[13]  lookupTimeSig:vector  ETV
vector 2040110  Network.dyn_peer[14]  lookupHopsSig:vector  ETV
vector 2040111  Network.dyn_peer[14]  lookupStabilitySig:vector  ETV
vector 2040112  Network.dyn_peer[14]  lookupTimeSig:vector  ETV
vector 2040068  Network.dyn_peer[0]  lookupHopsSig:vector  ETV
vector 2040069  Network.dyn_peer[0]  lookupStabilitySig:vector  ETV
vector 2040070  Network.dyn_peer[0]  lookupTimeSig:vector  ETV
vector 2040104  Network.dyn_peer[12]  lookupHopsSig:vector  ETV
vector 2040105  Network.dyn_peer[12]  lookupStabilitySig:vector  ETV
vector 2040106  Network.dyn_peer[12]  lookupTimeSig:vector  ETV
vector 2040134  Network.dyn_peer[22]  lookupHopsSig:vector  ETV
vector 2040135  Network.dyn_peer[22]  lookupStabilitySig:vector  ETV
vector 2040136  Network.dyn_peer[22]  lookupTimeSig:vector  ETV
vector 2040119  Network.dyn_peer[17]  lookupHopsSig:vector  ETV
vector 2040120  Network.dyn_peer[17]  lookupStabilitySig:vector  ETV
vector 2040121  Network.dyn_peer[17]  lookupTimeSig:vector  ETV
vector 2040149  Network.dyn_peer[27]  lookupHopsSig:vector  ETV
vector 2040150  Network.dyn_peer[27]  lookupStabilitySig:vector  ETV
vector 2040151  Network.dyn_peer[27]  lookupTimeSig:vector  ETV
vector 2040179  Network.dyn_peer[37]  lookupHopsSig:vector  ETV
vector 2040180  Network.dyn_peer[37]  lookupStabilitySig:vector  ETV
vector 2040181  Network.dyn_peer[37]  lookupTimeSig:vector  ETV
vector 2040092  Network.dyn_peer[8]  lookupHopsSig:vector  ETV
vector 2040093  Network.dyn_peer[8]  lookupStabilitySig:vector  ETV
vector 2040094  Network.dyn_peer[8]  lookupTimeSig:vector  ETV
vector 2040122  Network.dyn_peer[18]  lookupHopsSig:vector  ETV
vector 2040123  Network.dyn_peer[18]  lookupStabilitySig:vector  ETV
vector 2040124  Network.dyn_peer[18]  lookupTimeSig:vector  ETV
vector 2040125  Network.dyn_peer[19]  lookupHopsSig:vector  ETV
vector 2040126  Network.dyn_peer[19]  lookupStabilitySig:vector  ETV
vector 2040127  Network.dyn_peer[19]  lookupTimeSig:vector  ETV
vector 2040098  Network.dyn_peer[10]  lookupHopsSig:vector  ETV
vector 2040099  Network.dyn_peer[10]  lookupStabilitySig:vector  ETV
vector 2040100  Network.dyn_peer[10]  lookupTimeSig:vector  ETV
vector 2040137  Network.dyn_peer[23]  lookupHopsSig:vector  ETV
vector 2040138  Network.dyn_peer[23]  lookupStabilitySig:vector  ETV
vector 2040139  Network.dyn_peer[23]  lookupTimeSig:vector  ETV
vector 2040143  Network.dyn_peer[25]  lookupHopsSig:vector  ETV
vector 2040144  Network.dyn_peer[25]  lookupStabilitySig:vector  ETV
vector 2040145  Network.dyn_peer[25]  lookupTimeSig:vector  ETV
vector 2040152  Network.dyn_peer[28]  lookupHopsSig:vector  ETV
vector 2040153  Network.dyn_peer[28]  lookupStabilitySig:vector  ETV
vector 2040154  Network.dyn_peer[28]  lookupTimeSig:vector  ETV
vector 2040182  Network.dyn_peer[38]  lookupHopsSig:vector  ETV
vector 2040183  Network.dyn_peer[38]  lookupStabilitySig:vector  ETV
vector 2040184  Network.dyn_peer[38]  lookupTimeSig:vector  ETV
vector 2040101  Network.dyn_peer[11]  lookupHopsSig:vector  ETV
vector 2040102  Network.dyn_peer[11]  lookupStabilitySig:vector  ETV
vector 2040103  Network.dyn_peer[11]  lookupTimeSig:vector  ETV
vector 2040131  Network.dyn_peer[21]  lookupHopsSig:vector  ETV
vector 2040132  Network.dyn_peer[21]  lookupStabilitySig:vector  ETV
vector 2040133  Network.dyn_peer[21]  lookupTimeSig:vector  ETV
vector 2040161  Network.dyn_peer[31]  lookupHopsSig:vector  ETV
vector 2040162  Network.dyn_peer[31]  lookupStabilitySig:vector  ETV
vector 2040163  Network.dyn_peer[31]  lookupTimeSig:vector  ETV
vector 2040173  Network.dyn_peer[35]  lookupHopsSig:vector  ETV
vector 2040174  Network.dyn_peer[35]  lookupStabilitySig:vector  ETV
vector 2040175  Network.dyn_peer[35]  lookupTimeSig:vector  ETV
vector 2040146  Network.dyn_peer[26]  lookupHopsSig:vector  ETV
vector 2040147  Network.dyn_peer[26]  lookupStabilitySig:vector  ETV
vector 2040148  Network.dyn_peer[26]  lookupTimeSig:vector  ETV
vector 2040128  Network.dyn_peer[20]  lookupHopsSig:vector  ETV
vector 2040129  Network.dyn_peer[20]  lookupStabilitySig:vector  ETV
vector 2040130  Network.dyn_peer[20]  lookupTimeSig:vector  ETV
vector 2040113  Network.dyn_peer[15]  lookupHopsSig:vector  ETV
vector 2040114  Network.dyn_peer[15]  lookupStabilitySig:vector  ETV
vector 2040115  Network.dyn_peer[15]  lookupTimeSig:vector  ETV
vector 2040236  Network.dyn_peer[56]  lookupHopsSig:vector  ETV
vector 2040237  Network.dyn_peer[56]  lookupStabilitySig:vector  ETV
vector 2040238  Network.dyn_peer[56]  lookupTimeSig:vector  ETV
vector 2040212  Network.dyn_peer[48]  lookupHopsSig:vector  ETV
vector 2040213  Network.dyn_peer[48]  lookupStabilitySig:vector  ETV
vector 2040214  Network.dyn_peer[48]  lookupTimeSig:vector  ETV
vector 2040221  Network.dyn_peer[51]  lookupHopsSig:vector  ETV
vector 2040222  Network.dyn_peer[51]  lookupStabilitySig:vector  ETV
vector 2040223  Network.dyn_peer[51]  lookupTimeSig:vector  ETV
vector 2040164  Network.dyn_peer[32]  lookupHopsSig:vector  ETV
vector 2040165  Network.dyn_peer[32]  lookupStabilitySig:vector  ETV
vector 2040166  Network.dyn_peer[32]  lookupTimeSig:vector  ETV
vector 2040233  Network.dyn_peer[55]  lookupHopsSig:vector  ETV
vector 2040234  Network.dyn_peer[55]  lookupStabilitySig:vector  ETV
vector 2040235  Network.dyn_peer[55]  lookupTimeSig:vector  ETV
vector 2040176  Network.dyn_peer[36]  lookupHopsSig:vector  ETV
vector 2040177  Network.dyn_peer[36]  lookupStabilitySig:vector  ETV
vector 2040178  Network.dyn_peer[36]  lookupTimeSig:vector  ETV
vector 2040158  Network.dyn_peer[30]  lookupHopsSig:vector  ETV
vector 2040159  Network.dyn_peer[30]  lookupStabilitySig:vector  ETV
vector 2040160  Network.dyn_peer[30]  lookupTimeSig:vector  ETV
vector 2040167  Network.dyn_peer[33]  lookupHopsSig:vector  ETV
vector 2040168  Network.dyn_peer[33]  lookupStabilitySig:vector  ETV
vector 2040169  Network.dyn_peer[33]  lookupTimeSig:vector  ETV
vector 2040263  Network.dyn_peer[65]  lookupHopsSig:vector  ETV
vector 2040264  Network.dyn_peer[65]  lookupStabilitySig:vector  ETV
vector 2040265  Network.dyn_peer[65]  lookupTimeSig:vector  ETV
vector 2040116  Network.dyn_peer[16]  lookupHopsSig:vector  ETV
vector 2040117  Network.dyn_peer[16]  lookupStabilitySig:vector  ETV
vector 2040118  Network.dyn_peer[16]  lookupTimeSig:vector  ETV
vector 2040269  Network.dyn_peer[67]  lookupHopsSig:vector  ETV
vector 2040270  Network.dyn_peer[67]  lookupStabilitySig:vector  ETV
vector 2040271  Network.dyn_peer[67]  lookupTimeSig:vector  ETV
vector 2040188  Network.dyn_peer[40]  lookupHopsSig:vector  ETV
vector 2040189  Network.dyn_peer[40]  lookupStabilitySig:vector  ETV
vector 2040190  Network.dyn_peer[40]  lookupTimeSig:vector  ETV
vector 2040251  Network.dyn_peer[61]  lookupHopsSig:vector  ETV
vector 2040252  Network.dyn_peer[61]  lookupStabilitySig:vector  ETV
vector 2040253  Network.dyn_peer[61]  lookupTimeSig:vector  ETV
vector 2040194  Network.dyn_peer[42]  lookupHopsSig:vector  ETV
vector 2040195  Network.dyn_peer[42]  lookupStabilitySig:vector  ETV
vector 2040196  Network.dyn_peer[42]  lookupTimeSig:vector  ETV
vector 2040314  Network.dyn_peer[82]  lookupHopsSig:vector  ETV
vector 2040315  Network.dyn_peer[82]  lookupStabilitySig:vector  ETV
vector 2040316  Network.dyn_peer[82]  lookupTimeSig:vector  ETV
vector 2040260  Network.dyn_peer[64]  lookupHopsSig:vector  ETV
vector 2040261  Network.dyn_peer[64]  lookupStabilitySig:vector  ETV
vector 2040262  Network.dyn_peer[64]  lookupTimeSig:vector  ETV
vector 2040320  Network.dyn_peer[84]  lookupHopsSig:vector  ETV
vector 2040321  Network.dyn_peer[84]  lookupStabilitySig:vector  ETV
vector 2040322  Network.dyn_peer[84]  lookupTimeSig:vector  ETV
vector 2040362  Network.dyn_peer[98]  lookupHopsSig:vector  ETV
vector 2040363  Network.dyn_peer[98]  lookupStabilitySig:vector  ETV
vector 2040364  Network.dyn_peer[98]  lookupTimeSig:vector  ETV
vector 2040308  Network.dyn_peer[80]  lookupHopsSig:vector  ETV
vector 2040309  Network.dyn_peer[80]  lookupStabilitySig:vector  ETV
vector 2040310  Network.dyn_peer[80]  lookupTimeSig:vector  ETV
vector 2040224  Network.dyn_peer[52]  lookupHopsSig:vector  ETV
vector 2040225  Network.dyn_peer[52]  lookupStabilitySig:vector  ETV
vector 2040226  Network.dyn_peer[52]  lookupTimeSig:vector  ETV
vector 2040254  Network.dyn_peer[62]  lookupHopsSig:vector  ETV
vector 2040255  Network.dyn_peer[62]  lookupStabilitySig:vector  ETV
vector 2040256  Network.dyn_peer[62]  lookupTimeSig:vector  ETV
vector 2040170  Network.dyn_peer[34]  lookupHopsSig:vector  ETV
vector 2040171  Network.dyn_peer[34]  lookupStabilitySig:vector  ETV
vector 2040172  Network.dyn_peer[34]  lookupTimeSig:vector  ETV
vector 2040200  Network.dyn_peer[44]  lookupHopsSig:vector  ETV
vector 2040201  Network.dyn_peer[44]  lookupStabilitySig:vector  ETV
vector 2040202  Network.dyn_peer[44]  lookupTimeSig:vector  ETV
vector 2040293  Network.dyn_peer[75]  lookupHopsSig:vector  ETV
vector 2040294  Network.dyn_peer[75]  lookupStabilitySig:vector  ETV
vector 2040295  Network.dyn_peer[75]  lookupTimeSig:vector  ETV
vector 2040206  Network.dyn_peer[46]  lookupHopsSig:vector  ETV
vector 2040207  Network.dyn_peer[46]  lookupStabilitySig:vector  ETV
vector 2040208  Network.dyn_peer[46]  lookupTimeSig:vector  ETV
vector 2040389  Network.dyn_peer[107]  lookupHopsSig:vector  ETV
vector 2040390  Network.dyn_peer[107]  lookupStabilitySig:vector  ETV
vector 2040391  Network.dyn_peer[107]  lookupTimeSig:vector  ETV
vector 2040155  Network.dyn_peer[29]  lookupHopsSig:vector  ETV
vector 2040156  Network.dyn_peer[29]  lookupStabilitySig:vector  ETV
vector 2040157  Network.dyn_peer[29]  lookupTimeSig:vector  ETV
vector 2040245  Network.dyn_peer[59]  lookupHopsSig:vector  ETV
vector 2040246  Network.dyn_peer[59]  lookupStabilitySig:vector  ETV
vector 2040247  Network.dyn_peer[59]  lookupTimeSig:vector  ETV
vector 2040401  Network.dyn_peer[111]  lookupHopsSig:vector  ETV
vector 2040402  Network.dyn_peer[111]  lookupStabilitySig:vector  ETV
vector 2040403  Network.dyn_peer[111]  lookupTimeSig:vector  ETV
vector 2040404  Network.dyn_peer[112]  lookupHopsSig:vector  ETV
vector 2040405  Network.dyn_peer[112]  lookupStabilitySig:vector  ETV
vector 2040406  Network.dyn_peer[112]  lookupTimeSig:vector  ETV
vector 2040287  Network.dyn_peer[73]  lookupHopsSig:vector  ETV
vector 2040288  Network.dyn_peer[73]  lookupStabilitySig:vector  ETV
vector 2040289  Network.dyn_peer[73]  lookupTimeSig:vector  ETV
vector 2040347  Network.dyn_peer[93]  lookupHopsSig:vector  ETV
vector 2040348  Network.dyn_peer[93]  lookupStabilitySig:vector  ETV
vector 2040349  Network.dyn_peer[93]  lookupTimeSig:vector  ETV
vector 2040230  Network.dyn_peer[54]  lookupHopsSig:vector  ETV
vector 2040231  Network.dyn_peer[54]  lookupStabilitySig:vector  ETV
vector 2040232  Network.dyn_peer[54]  lookupTimeSig:vector  ETV
vector 2040353  Network.dyn_peer[95]  lookupHopsSig:vector  ETV
vector 2040354  Network.dyn_peer[95]  lookupStabilitySig:vector  ETV
vector 2040355  Network.dyn_peer[95]  lookupTimeSig:vector  ETV
vector 2040296  Network.dyn_peer[76]  lookupHopsSig:vector  ETV
vector 2040297  Network.dyn_peer[76]  lookupStabilitySig:vector  ETV
vector 2040298  Network.dyn_peer[76]  lookupTimeSig:vector  ETV
vector 2040326  Network.dyn_peer[86]  lookupHopsSig:vector  ETV
vector 2040327  Network.dyn_peer[86]  lookupStabilitySig:vector  ETV
vector 2040328  Network.dyn_peer[86]  lookupTimeSig:vector  ETV
vector 2040209  Network.dyn_peer[47]  lookupHopsSig:vector  ETV
vector 2040210  Network.dyn_peer[47]  lookupStabilitySig:vector  ETV
vector 2040211  Network.dyn_peer[47]  lookupTimeSig:vector  ETV
vector 2040329  Network.dyn_peer[87]  lookupHopsSig:vector  ETV
vector 2040330  Network.dyn_peer[87]  lookupStabilitySig:vector  ETV
vector 2040331  Network.dyn_peer[87]  lookupTimeSig:vector  ETV
vector 2040359  Network.dyn_peer[97]  lookupHopsSig:vector  ETV
vector 2040360  Network.dyn_peer[97]  lookupStabilitySig:vector  ETV
vector 2040361  Network.dyn_peer[97]  lookupTimeSig:vector  ETV
vector 2040371  Network.dyn_peer[101]  lookupHopsSig:vector  ETV
vector 2040372  Network.dyn_peer[101]  lookupStabilitySig:vector  ETV
vector 2040373  Network.dyn_peer[101]  lookupTimeSig:vector  ETV
vector 2040257  Network.dyn_peer[63]  lookupHopsSig:vector  ETV
vector 2040258  Network.dyn_peer[63]  lookupStabilitySig:vector  ETV
vector 2040259  Network.dyn_peer[63]  lookupTimeSig:vector  ETV
vector 2040410  Network.dyn_peer[114]  lookupHopsSig:vector  ETV
vector 2040411  Network.dyn_peer[114]  lookupStabilitySig:vector  ETV
vector 2040412  Network.dyn_peer[114]  lookupTimeSig:vector  ETV
vector 2040305  Network.dyn_peer[79]  lookupHopsSig:vector  ETV
vector 2040306  Network.dyn_peer[79]  lookupStabilitySig:vector  ETV
vector 2040307  Network.dyn_peer[79]  lookupTimeSig:vector  ETV
vector 2040218  Network.dyn_peer[50]  lookupHopsSig:vector  ETV
vector 2040219  Network.dyn_peer[50]  lookupStabilitySig:vector  ETV
vector 2040220  Network.dyn_peer[50]  lookupTimeSig:vector  ETV
vector 2040338  Network.dyn_peer[90]  lookupHopsSig:vector  ETV
vector 2040339  Network.dyn_peer[90]  lookupStabilitySig:vector  ETV
vector 2040340  Network.dyn_peer[90]  lookupTimeSig:vector  ETV
vector 2040311  Network.dyn_peer[81]  lookupHopsSig:vector  ETV
vector 2040312  Network.dyn_peer[81]  lookupStabilitySig:vector  ETV
vector 2040313  Network.dyn_peer[81]  lookupTimeSig:vector  ETV
vector 2040344  Network.dyn_peer[92]  lookupHopsSig:vector  ETV
vector 2040345  Network.dyn_peer[92]  lookupStabilitySig:vector  ETV
vector 2040346  Network.dyn_peer[92]  lookupTimeSig:vector  ETV
vector 2040197  Network.dyn_peer[43]  lookupHopsSig:vector  ETV
vector 2040198  Network.dyn_peer[43]  lookupStabilitySig:vector  ETV
vector 2040199  Network.dyn_peer[43]  lookupTimeSig:vector  ETV
vector 2040203  Network.dyn_peer[45]  lookupHopsSig:vector  ETV
vector 2040204  Network.dyn_peer[45]  lookupStabilitySig:vector  ETV
vector 2040205  Network.dyn_peer[45]  lookupTimeSig:vector  ETV
vector 2040323  Network.dyn_peer[85]  lookupHopsSig:vector  ETV
vector 2040324  Network.dyn_peer[85]  lookupStabilitySig:vector  ETV
vector 2040325  Network.dyn_peer[85]  lookupTimeSig:vector  ETV
vector 2040215  Network.dyn_peer[49]  lookupHopsSig:vector  ETV
vector 2040216  Network.dyn_peer[49]  lookupStabilitySig:vector  ETV
vector 2040217  Network.dyn_peer[49]  lookupTimeSig:vector  ETV
vector 2040335  Network.dyn_peer[89]  lookupHopsSig:vector  ETV
vector 2040336  Network.dyn_peer[89]  lookupStabilitySig:vector  ETV
vector 2040337  Network.dyn_peer[89]  lookupTimeSig:vector  ETV
vector 2040428  Network.dyn_peer[120]  lookupHopsSig:vector  ETV
vector 2040429  Network.dyn_peer[120]  lookupStabilitySig:vector  ETV
vector 2040430  Network.dyn_peer[120]  lookupTimeSig:vector  ETV
vector 2040140  Network.dyn_peer[24]  lookupHopsSig:vector  ETV
vector 2040141  Network.dyn_peer[24]  lookupStabilitySig:vector  ETV
vector 2040142  Network.dyn_peer[24]  lookupTimeSig:vector  ETV
vector 2040350  Network.dyn_peer[94]  lookupHopsSig:vector  ETV
vector 2040351  Network.dyn_peer[94]  lookupStabilitySig:vector  ETV
vector 2040352  Network.dyn_peer[94]  lookupTimeSig:vector  ETV
vector 2040386  Network.dyn_peer[106]  lookupHopsSig:vector  ETV
vector 2040387  Network.dyn_peer[106]  lookupStabilitySig:vector  ETV
vector 2040388  Network.dyn_peer[106]  lookupTimeSig:vector  ETV
vector 2040425  Network.dyn_peer[119]  lookupHopsSig:vector  ETV
vector 2040426  Network.dyn_peer[119]  lookupStabilitySig:vector  ETV
vector 2040427  Network.dyn_peer[119]  lookupTimeSig:vector  ETV
vector 2040278  Network.dyn_peer[70]  lookupHopsSig:vector  ETV
vector 2040279  Network.dyn_peer[70]  lookupStabilitySig:vector  ETV
vector 2040280  Network.dyn_peer[70]  lookupTimeSig:vector  ETV
vector 2040281  Network.dyn_peer[71]  lookupHopsSig:vector  ETV
vector 2040282  Network.dyn_peer[71]  lookupStabilitySig:vector  ETV
vector 2040283  Network.dyn_peer[71]  lookupTimeSig:vector  ETV
vector 2040374  Network.dyn_peer[102]  lookupHopsSig:vector  ETV
vector 2040375  Network.dyn_peer[102]  lookupStabilitySig:vector  ETV
vector 2040376  Network.dyn_peer[102]  lookupTimeSig:vector  ETV
vector 2040407  Network.dyn_peer[113]  lookupHopsSig:vector  ETV
vector 2040408  Network.dyn_peer[113]  lookupStabilitySig:vector  ETV
vector 2040409  Network.dyn_peer[113]  lookupTimeSig:vector  ETV
vector 2040437  Network.dyn_peer[123]  lookupHopsSig:vector  ETV
vector 2040438  Network.dyn_peer[123]  lookupStabilitySig:vector  ETV
vector 2040439  Network.dyn_peer[123]  lookupTimeSig:vector  ETV
vector 2040290  Network.dyn_peer[74]  lookupHopsSig:vector  ETV
vector 2040291  Network.dyn_peer[74]  lookupStabilitySig:vector  ETV
vector 2040292  Network.dyn_peer[74]  lookupTimeSig:vector  ETV
vector 2040383  Network.dyn_peer[105]  lookupHopsSig:vector  ETV
vector 2040384  Network.dyn_peer[105]  lookupStabilitySig:vector  ETV
vector 2040385  Network.dyn_peer[105]  lookupTimeSig:vector  ETV
vector 2040413  Network.dyn_peer[115]  lookupHopsSig:vector  ETV
vector 2040414  Network.dyn_peer[115]  lookupStabilitySig:vector  ETV
vector 2040415  Network.dyn_peer[115]  lookupTimeSig:vector  ETV
vector 2040443  Network.dyn_peer[125]  lookupHopsSig:vector  ETV
vector 2040444  Network.dyn_peer[125]  lookupStabilitySig:vector  ETV
vector 2040445  Network.dyn_peer[125]  lookupTimeSig:vector  ETV
vector 2040266  Network.dyn_peer[66]  lookupHopsSig:vector  ETV
vector 2040267  Network.dyn_peer[66]  lookupStabilitySig:vector  ETV
vector 2040268  Network.dyn_peer[66]  lookupTimeSig:vector  ETV
vector 2040419  Network.dyn_peer[117]  lookupHopsSig:vector  ETV
vector 2040420  Network.dyn_peer[117]  lookupStabilitySig:vector  ETV
vector 2040421  Network.dyn_peer[117]  lookupTimeSig:vector  ETV
vector 2040272  Network.dyn_peer[68]  lookupHopsSig:vector  ETV
vector 2040273  Network.dyn_peer[68]  lookupStabilitySig:vector  ETV
vector 2040274  Network.dyn_peer[68]  lookupTimeSig:vector  ETV
vector 2040392  Network.dyn_peer[108]  lookupHopsSig:vector  ETV
vector 2040393  Network.dyn_peer[108]  lookupStabilitySig:vector  ETV
vector 2040394  Network.dyn_peer[108]  lookupTimeSig:vector  ETV
vector 2040275  Network.dyn_peer[69]  lookupHopsSig:vector  ETV
vector 2040276  Network.dyn_peer[69]  lookupStabilitySig:vector  ETV
vector 2040277  Network.dyn_peer[69]  lookupTimeSig:vector  ETV
vector 2040485  Network.dyn_peer[139]  lookupHopsSig:vector  ETV
vector 2040486  Network.dyn_peer[139]  lookupStabilitySig:vector  ETV
vector 2040487  Network.dyn_peer[139]  lookupTimeSig:vector  ETV
vector 2040431  Network.dyn_peer[121]  lookupHopsSig:vector  ETV
vector 2040432  Network.dyn_peer[121]  lookupStabilitySig:vector  ETV
vector 2040433  Network.dyn_peer[121]  lookupTimeSig:vector  ETV
vector 2040497  Network.dyn_peer[143]  lookupHopsSig:vector  ETV
vector 2040498  Network.dyn_peer[143]  lookupStabilitySig:vector  ETV
vector 2040499  Network.dyn_peer[143]  lookupTimeSig:vector  ETV
vector 2040380  Network.dyn_peer[104]  lookupHopsSig:vector  ETV
vector 2040381  Network.dyn_peer[104]  lookupStabilitySig:vector  ETV
vector 2040382  Network.dyn_peer[104]  lookupTimeSig:vector  ETV
vector 2040536  Network.dyn_peer[156]  lookupHopsSig:vector  ETV
vector 2040537  Network.dyn_peer[156]  lookupStabilitySig:vector  ETV
vector 2040538  Network.dyn_peer[156]  lookupTimeSig:vector  ETV
vector 2040185  Network.dyn_peer[39]  lookupHopsSig:vector  ETV
vector 2040186  Network.dyn_peer[39]  lookupStabilitySig:vector  ETV
vector 2040187  Network.dyn_peer[39]  lookupTimeSig:vector  ETV
vector 2040494  Network.dyn_peer[142]  lookupHopsSig:vector  ETV
vector 2040495  Network.dyn_peer[142]  lookupStabilitySig:vector  ETV
vector 2040496  Network.dyn_peer[142]  lookupTimeSig:vector  ETV
vector 2040524  Network.dyn_peer[152]  lookupHopsSig:vector  ETV
vector 2040525  Network.dyn_peer[152]  lookupStabilitySig:vector  ETV
vector 2040526  Network.dyn_peer[152]  lookupTimeSig:vector  ETV
vector 2040377  Network.dyn_peer[103]  lookupHopsSig:vector  ETV
vector 2040378  Network.dyn_peer[103]  lookupStabilitySig:vector  ETV
vector 2040379  Network.dyn_peer[103]  lookupTimeSig:vector  ETV
vector 2040302  Network.dyn_peer[78]  lookupHopsSig:vector  ETV
vector 2040303  Network.dyn_peer[78]  lookupStabilitySig:vector  ETV
vector 2040304  Network.dyn_peer[78]  lookupTimeSig:vector  ETV
vector 2040545  Network.dyn_peer[159]  lookupHopsSig:vector  ETV
vector 2040546  Network.dyn_peer[159]  lookupStabilitySig:vector  ETV
vector 2040547  Network.dyn_peer[159]  lookupTimeSig:vector  ETV
vector 2040191  Network.dyn_peer[41]  lookupHopsSig:vector  ETV
vector 2040192  Network.dyn_peer[41]  lookupStabilitySig:vector  ETV
vector 2040193  Network.dyn_peer[41]  lookupTimeSig:vector  ETV
vector 2040491  Network.dyn_peer[141]  lookupHopsSig:vector  ETV
vector 2040492  Network.dyn_peer[141]  lookupStabilitySig:vector  ETV
vector 2040493  Network.dyn_peer[141]  lookupTimeSig:vector  ETV
vector 2040551  Network.dyn_peer[161]  lookupHopsSig:vector  ETV
vector 2040552  Network.dyn_peer[161]  lookupStabilitySig:vector  ETV
vector 2040553  Network.dyn_peer[161]  lookupTimeSig:vector  ETV
vector 2040317  Network.dyn_peer[83]  lookupHopsSig:vector  ETV
vector 2040318  Network.dyn_peer[83]  lookupStabilitySig:vector  ETV
vector 2040319  Network.dyn_peer[83]  lookupTimeSig:vector  ETV
vector 2040503  Network.dyn_peer[145]  lookupHopsSig:vector  ETV
vector 2040504  Network.dyn_peer[145]  lookupStabilitySig:vector  ETV
vector 2040505  Network.dyn_peer[145]  lookupTimeSig:vector  ETV
vector 2040506  Network.dyn_peer[146]  lookupHopsSig:vector  ETV
vector 2040507  Network.dyn_peer[146]  lookupStabilitySig:vector  ETV
vector 2040508  Network.dyn_peer[146]  lookupTimeSig:vector  ETV
vector 2040539  Network.dyn_peer[157]  lookupHopsSig:vector  ETV
vector 2040540  Network.dyn_peer[157]  lookupStabilitySig:vector  ETV
vector 2040541  Network.dyn_peer[157]  lookupTimeSig:vector  ETV
vector 2040365  Network.dyn_peer[99]  lookupHopsSig:vector  ETV
vector 2040366  Network.dyn_peer[99]  lookupStabilitySig:vector  ETV
vector 2040367  Network.dyn_peer[99]  lookupTimeSig:vector  ETV
vector 2040368  Network.dyn_peer[100]  lookupHopsSig:vector  ETV
vector 2040369  Network.dyn_peer[100]  lookupStabilitySig:vector  ETV
vector 2040370  Network.dyn_peer[100]  lookupTimeSig:vector  ETV
vector 2040650  Network.dyn_peer[194]  lookupHopsSig:vector  ETV
vector 2040651  Network.dyn_peer[194]  lookupStabilitySig:vector  ETV
vector 2040652  Network.dyn_peer[194]  lookupTimeSig:vector  ETV
vector 2040563  Network.dyn_peer[165]  lookupHopsSig:vector  ETV
vector 2040564  Network.dyn_peer[165]  lookupStabilitySig:vector  ETV
vector 2040565  Network.dyn_peer[165]  lookupTimeSig:vector  ETV
vector 2040446  Network.dyn_peer[126]  lookupHopsSig:vector  ETV
vector 2040447  Network.dyn_peer[126]  lookupStabilitySig:vector  ETV
vector 2040448  Network.dyn_peer[126]  lookupTimeSig:vector  ETV
vector 2040299  Network.dyn_peer[77]  lookupHopsSig:vector  ETV
vector 2040300  Network.dyn_peer[77]  lookupStabilitySig:vector  ETV
vector 2040301  Network.dyn_peer[77]  lookupTimeSig:vector  ETV
vector 2040248  Network.dyn_peer[60]  lookupHopsSig:vector  ETV
vector 2040249  Network.dyn_peer[60]  lookupStabilitySig:vector  ETV
vector 2040250  Network.dyn_peer[60]  lookupTimeSig:vector  ETV
vector 2040398  Network.dyn_peer[110]  lookupHopsSig:vector  ETV
vector 2040399  Network.dyn_peer[110]  lookupStabilitySig:vector  ETV
vector 2040400  Network.dyn_peer[110]  lookupTimeSig:vector  ETV
vector 2040488  Network.dyn_peer[140]  lookupHopsSig:vector  ETV
vector 2040489  Network.dyn_peer[140]  lookupStabilitySig:vector  ETV
vector 2040490  Network.dyn_peer[140]  lookupTimeSig:vector  ETV
vector 2040461  Network.dyn_peer[131]  lookupHopsSig:vector  ETV
vector 2040462  Network.dyn_peer[131]  lookupStabilitySig:vector  ETV
vector 2040463  Network.dyn_peer[131]  lookupTimeSig:vector  ETV
vector 2040521  Network.dyn_peer[151]  lookupHopsSig:vector  ETV
vector 2040522  Network.dyn_peer[151]  lookupStabilitySig:vector  ETV
vector 2040523  Network.dyn_peer[151]  lookupTimeSig:vector  ETV
vector 2040500  Network.dyn_peer[144]  lookupHopsSig:vector  ETV
vector 2040501  Network.dyn_peer[144]  lookupStabilitySig:vector  ETV
vector 2040502  Network.dyn_peer[144]  lookupTimeSig:vector  ETV
vector 2040626  Network.dyn_peer[186]  lookupHopsSig:vector  ETV
vector 2040627  Network.dyn_peer[186]  lookupStabilitySig:vector  ETV
vector 2040628  Network.dyn_peer[186]  lookupTimeSig:vector  ETV
vector 2040464  Network.dyn_peer[132]  lookupHopsSig:vector  ETV
vector 2040465  Network.dyn_peer[132]  lookupStabilitySig:vector  ETV
vector 2040466  Network.dyn_peer[132]  lookupTimeSig:vector  ETV
vector 2040554  Network.dyn_peer[162]  lookupHopsSig:vector  ETV
vector 2040555  Network.dyn_peer[162]  lookupStabilitySig:vector  ETV
vector 2040556  Network.dyn_peer[162]  lookupTimeSig:vector  ETV
vector 2040227  Network.dyn_peer[53]  lookupHopsSig:vector  ETV
vector 2040228  Network.dyn_peer[53]  lookupStabilitySig:vector  ETV
vector 2040229  Network.dyn_peer[53]  lookupTimeSig:vector  ETV
vector 2040473  Network.dyn_peer[135]  lookupHopsSig:vector  ETV
vector 2040474  Network.dyn_peer[135]  lookupStabilitySig:vector  ETV
vector 2040475  Network.dyn_peer[135]  lookupTimeSig:vector  ETV
vector 2040356  Network.dyn_peer[96]  lookupHopsSig:vector  ETV
vector 2040357  Network.dyn_peer[96]  lookupStabilitySig:vector  ETV
vector 2040358  Network.dyn_peer[96]  lookupTimeSig:vector  ETV
vector 2040449  Network.dyn_peer[127]  lookupHopsSig:vector  ETV
vector 2040450  Network.dyn_peer[127]  lookupStabilitySig:vector  ETV
vector 2040451  Network.dyn_peer[127]  lookupTimeSig:vector  ETV
vector 2040332  Network.dyn_peer[88]  lookupHopsSig:vector  ETV
vector 2040333  Network.dyn_peer[88]  lookupStabilitySig:vector  ETV
vector 2040334  Network.dyn_peer[88]  lookupTimeSig:vector  ETV
vector 2040581  Network.dyn_peer[171]  lookupHopsSig:vector  ETV
vector 2040582  Network.dyn_peer[171]  lookupStabilitySig:vector  ETV
vector 2040583  Network.dyn_peer[171]  lookupTimeSig:vector  ETV
vector 2040713  Network.dyn_peer[215]  lookupHopsSig:vector  ETV
vector 2040714  Network.dyn_peer[215]  lookupStabilitySig:vector  ETV
vector 2040715  Network.dyn_peer[215]  lookupTimeSig:vector  ETV
vector 2040662  Network.dyn_peer[198]  lookupHopsSig:vector  ETV
vector 2040663  Network.dyn_peer[198]  lookupStabilitySig:vector  ETV
vector 2040664  Network.dyn_peer[198]  lookupTimeSig:vector  ETV
vector 2040575  Network.dyn_peer[169]  lookupHopsSig:vector  ETV
vector 2040576  Network.dyn_peer[169]  lookupStabilitySig:vector  ETV
vector 2040577  Network.dyn_peer[169]  lookupTimeSig:vector  ETV
vector 2040695  Network.dyn_peer[209]  lookupHopsSig:vector  ETV
vector 2040696  Network.dyn_peer[209]  lookupStabilitySig:vector  ETV
vector 2040697  Network.dyn_peer[209]  lookupTimeSig:vector  ETV
vector 2040458  Network.dyn_peer[130]  lookupHopsSig:vector  ETV
vector 2040459  Network.dyn_peer[130]  lookupStabilitySig:vector  ETV
vector 2040460  Network.dyn_peer[130]  lookupTimeSig:vector  ETV
vector 2040668  Network.dyn_peer[200]  lookupHopsSig:vector  ETV
vector 2040669  Network.dyn_peer[200]  lookupStabilitySig:vector  ETV
vector 2040670  Network.dyn_peer[200]  lookupTimeSig:vector  ETV
vector 2040284  Network.dyn_peer[72]  lookupHopsSig:vector  ETV
vector 2040285  Network.dyn_peer[72]  lookupStabilitySig:vector  ETV
vector 2040286  Network.dyn_peer[72]  lookupTimeSig:vector  ETV
vector 2040734  Network.dyn_peer[222]  lookupHopsSig:vector  ETV
vector 2040735  Network.dyn_peer[222]  lookupStabilitySig:vector  ETV
vector 2040736  Network.dyn_peer[222]  lookupTimeSig:vector  ETV
vector 2040533  Network.dyn_peer[155]  lookupHopsSig:vector  ETV