version 2
run Stability2-31-20130528-01:24:40-24168
attr configname Stability2
attr datetime 20130528-01:24:40
attr experiment Stability2
attr inifile omnetpp.ini
attr iterationvars $0=40
attr iterationvars2 "$0=40, $repetition=1"
attr measurement $0=40
attr network Network
attr processid 24168
attr repetition 1
attr replication #1
attr resultdir results
attr runnumber 31
attr seedset 31

vector 960031  Network.churner  inGoingSizeSig:vector  ETV
vector 930031  Network.dyn_peer[0]  lookupHopsSig:vector  ETV
vector 930032  Network.dyn_peer[0]  lookupStabilitySig:vector  ETV
vector 930033  Network.dyn_peer[0]  lookupTimeSig:vector  ETV
vector 930040  Network.dyn_peer[3]  lookupHopsSig:vector  ETV
vector 930041  Network.dyn_peer[3]  lookupStabilitySig:vector  ETV
vector 930042  Network.dyn_peer[3]  lookupTimeSig:vector  ETV
vector 930043  Network.dyn_peer[4]  lookupHopsSig:vector  ETV
vector 930044  Network.dyn_peer[4]  lookupStabilitySig:vector  ETV
vector 930045  Network.dyn_peer[4]  lookupTimeSig:vector  ETV
vector 930046  Network.dyn_peer[5]  lookupHopsSig:vector  ETV
vector 930047  Network.dyn_peer[5]  lookupStabilitySig:vector  ETV
vector 930048  Network.dyn_peer[5]  lookupTimeSig:vector  ETV
vector 930049  Network.dyn_peer[6]  lookupHopsSig:vector  ETV
vector 930050  Network.dyn_peer[6]  lookupStabilitySig:vector  ETV
vector 930051  Network.dyn_peer[6]  lookupTimeSig:vector  ETV
vector 930061  Network.dyn_peer[10]  lookupHopsSig:vector  ETV
vector 930062  Network.dyn_peer[10]  lookupStabilitySig:vector  ETV
vector 930063  Network.dyn_peer[10]  lookupTimeSig:vector  ETV
vector 930070  Network.dyn_peer[13]  lookupHopsSig:vector  ETV
vector 930071  Network.dyn_peer[13]  lookupStabilitySig:vector  ETV
vector 930072  Network.dyn_peer[13]  lookupTimeSig:vector  ETV
vector 930055  Network.dyn_peer[8]  lookupHopsSig:vector  ETV
vector 930056  Network.dyn_peer[8]  lookupStabilitySig:vector  ETV
vector 930057  Network.dyn_peer[8]  lookupTimeSig:vector  ETV
vector 930088  Network.dyn_peer[19]  lookupHopsSig:vector  ETV
vector 930089  Network.dyn_peer[19]  lookupStabilitySig:vector  ETV
vector 930090  Network.dyn_peer[19]  lookupTimeSig:vector  ETV
vector 930091  Network.dyn_peer[20]  lookupHopsSig:vector  ETV
vector 930092  Network.dyn_peer[20]  lookupStabilitySig:vector  ETV
vector 930093  Network.dyn_peer[20]  lookupTimeSig:vector  ETV
vector 930034  Network.dyn_peer[1]  lookupHopsSig:vector  ETV
vector 930035  Network.dyn_peer[1]  lookupStabilitySig:vector  ETV
vector 930036  Network.dyn_peer[1]  lookupTimeSig:vector  ETV
vector 930064  Network.dyn_peer[11]  lookupHopsSig:vector  ETV
vector 930065  Network.dyn_peer[11]  lookupStabilitySig:vector  ETV
vector 930066  Network.dyn_peer[11]  lookupTimeSig:vector  ETV
vector 930079  Network.dyn_peer[16]  lookupHopsSig:vector  ETV
vector 930080  Network.dyn_peer[16]  lookupStabilitySig:vector  ETV
vector 930081  Network.dyn_peer[16]  lookupTimeSig:vector  ETV
vector 930052  Network.dyn_peer[7]  lookupHopsSig:vector  ETV
vector 930053  Network.dyn_peer[7]  lookupStabilitySig:vector  ETV
vector 930054  Network.dyn_peer[7]  lookupTimeSig:vector  ETV
vector 930112  Network.dyn_peer[27]  lookupHopsSig:vector  ETV
vector 930113  Network.dyn_peer[27]  lookupStabilitySig:vector  ETV
vector 930114  Network.dyn_peer[27]  lookupTimeSig:vector  ETV
vector 930085  Network.dyn_peer[18]  lookupHopsSig:vector  ETV
vector 930086  Network.dyn_peer[18]  lookupStabilitySig:vector  ETV
vector 930087  Network.dyn_peer[18]  lookupTimeSig:vector  ETV
vector 930058  Network.dyn_peer[9]  lookupHopsSig:vector  ETV
vector 930059  Network.dyn_peer[9]  lookupStabilitySig:vector  ETV
vector 930060  Network.dyn_peer[9]  lookupTimeSig:vector  ETV
vector 930148  Network.dyn_peer[39]  lookupHopsSig:vector  ETV
vector 930149  Network.dyn_peer[39]  lookupStabilitySig:vector  ETV
vector 930150  Network.dyn_peer[39]  lookupTimeSig:vector  ETV
vector 930121  Network.dyn_peer[30]  lookupHopsSig:vector  ETV
vector 930122  Network.dyn_peer[30]  lookupStabilitySig:vector  ETV
vector 930123  Network.dyn_peer[30]  lookupTimeSig:vector  ETV
vector 930094  Network.dyn_peer[21]  lookupHopsSig:vector  ETV
vector 930095  Network.dyn_peer[21]  lookupStabilitySig:vector  ETV
vector 930096  Network.dyn_peer[21]  lookupTimeSig:vector  ETV
vector 930037  Network.dyn_peer[2]  lookupHopsSig:vector  ETV
vector 930038  Network.dyn_peer[2]  lookupStabilitySig:vector  ETV
vector 930039  Network.dyn_peer[2]  lookupTimeSig:vector  ETV
vector 930097  Network.dyn_peer[22]  lookupHopsSig:vector  ETV
vector 930098  Network.dyn_peer[22]  lookupStabilitySig:vector  ETV
vector 930099  Network.dyn_peer[22]  lookupTimeSig:vector  ETV
vector 930100  Network.dyn_peer[23]  lookupHopsSig:vector  ETV
vector 930101  Network.dyn_peer[23]  lookupStabilitySig:vector  ETV
vector 930102  Network.dyn_peer[23]  lookupTimeSig:vector  ETV
vector 930073  Network.dyn_peer[14]  lookupHopsSig:vector  ETV
vector 930074  Network.dyn_peer[14]  lookupStabilitySig:vector  ETV
vector 930075  Network.dyn_peer[14]  lookupTimeSig:vector  ETV
vector 930067  Network.dyn_peer[12]  lookupHopsSig:vector  ETV
vector 930068  Network.dyn_peer[12]  lookupStabilitySig:vector  ETV
vector 930069  Network.dyn_peer[12]  lookupTimeSig:vector  ETV
vector 930103  Network.dyn_peer[24]  lookupHopsSig:vector  ETV
vector 930104  Network.dyn_peer[24]  lookupStabilitySig:vector  ETV
vector 930105  Network.dyn_peer[24]  lookupTimeSig:vector  ETV
vector 930136  Network.dyn_peer[35]  lookupHopsSig:vector  ETV
vector 930137  Network.dyn_peer[35]  lookupStabilitySig:vector  ETV
vector 930138  Network.dyn_peer[35]  lookupTimeSig:vector  ETV
vector 930118  Network.dyn_peer[29]  lookupHopsSig:vector  ETV
vector 930119  Network.dyn_peer[29]  lookupStabilitySig:vector  ETV
vector 930120  Network.dyn_peer[29]  lookupTimeSig:vector  ETV
vector 930184  Network.dyn_peer[51]  lookupHopsSig:vector  ETV
vector 930185  Network.dyn_peer[51]  lookupStabilitySig:vector  ETV
vector 930186  Network.dyn_peer[51]  lookupTimeSig:vector  ETV
vector 930190  Network.dyn_peer[53]  lookupHopsSig:vector  ETV
vector 930191  Network.dyn_peer[53]  lookupStabilitySig:vector  ETV
vector 930192  Network.dyn_peer[53]  lookupTimeSig:vector  ETV
vector 930076  Network.dyn_peer[15]  lookupHopsSig:vector  ETV
vector 930077  Network.dyn_peer[15]  lookupStabilitySig:vector  ETV
vector 930078  Network.dyn_peer[15]  lookupTimeSig:vector  ETV
vector 930106  Network.dyn_peer[25]  lookupHopsSig:vector  ETV
vector 930107  Network.dyn_peer[25]  lookupStabilitySig:vector  ETV
vector 930108  Network.dyn_peer[25]  lookupTimeSig:vector  ETV
vector 930115  Network.dyn_peer[28]  lookupHopsSig:vector  ETV
vector 930116  Network.dyn_peer[28]  lookupStabilitySig:vector  ETV
vector 930117  Network.dyn_peer[28]  lookupTimeSig:vector  ETV
vector 930145  Network.dyn_peer[38]  lookupHopsSig:vector  ETV
vector 930146  Network.dyn_peer[38]  lookupStabilitySig:vector  ETV
vector 930147  Network.dyn_peer[38]  lookupTimeSig:vector  ETV
vector 930238  Network.dyn_peer[69]  lookupHopsSig:vector  ETV
vector 930239  Network.dyn_peer[69]  lookupStabilitySig:vector  ETV
vector 930240  Network.dyn_peer[69]  lookupTimeSig:vector  ETV
vector 930127  Network.dyn_peer[32]  lookupHopsSig:vector  ETV
vector 930128  Network.dyn_peer[32]  lookupStabilitySig:vector  ETV
vector 930129  Network.dyn_peer[32]  lookupTimeSig:vector  ETV
vector 930157  Network.dyn_peer[42]  lookupHopsSig:vector  ETV
vector 930158  Network.dyn_peer[42]  lookupStabilitySig:vector  ETV
vector 930159  Network.dyn_peer[42]  lookupTimeSig:vector  ETV
vector 930109  Network.dyn_peer[26]  lookupHopsSig:vector  ETV
vector 930110  Network.dyn_peer[26]  lookupStabilitySig:vector  ETV
vector 930111  Network.dyn_peer[26]  lookupTimeSig:vector  ETV
vector 930082  Network.dyn_peer[17]  lookupHopsSig:vector  ETV
vector 930083  Network.dyn_peer[17]  lookupStabilitySig:vector  ETV
vector 930084  Network.dyn_peer[17]  lookupTimeSig:vector  ETV
vector 930172  Network.dyn_peer[47]  lookupHopsSig:vector  ETV
vector 930173  Network.dyn_peer[47]  lookupStabilitySig:vector  ETV
vector 930174  Network.dyn_peer[47]  lookupTimeSig:vector  ETV
vector 930262  Network.dyn_peer[77]  lookupHopsSig:vector  ETV
vector 930263  Network.dyn_peer[77]  lookupStabilitySig:vector  ETV
vector 930264  Network.dyn_peer[77]  lookupTimeSig:vector  ETV
vector 930187  Network.dyn_peer[52]  lookupHopsSig:vector  ETV
vector 930188  Network.dyn_peer[52]  lookupStabilitySig:vector  ETV
vector 930189  Network.dyn_peer[52]  lookupTimeSig:vector  ETV
vector 930226  Network.dyn_peer[65]  lookupHopsSig:vector  ETV
vector 930227  Network.dyn_peer[65]  lookupStabilitySig:vector  ETV
vector 930228  Network.dyn_peer[65]  lookupTimeSig:vector  ETV
vector 930199  Network.dyn_peer[56]  lookupHopsSig:vector  ETV
vector 930200  Network.dyn_peer[56]  lookupStabilitySig:vector  ETV
vector 930201  Network.dyn_peer[56]  lookupTimeSig:vector  ETV
vector 930151  Network.dyn_peer[40]  lookupHopsSig:vector  ETV
vector 930152  Network.dyn_peer[40]  lookupStabilitySig:vector  ETV
vector 930153  Network.dyn_peer[40]  lookupTimeSig:vector  ETV
vector 930214  Network.dyn_peer[61]  lookupHopsSig:vector  ETV
vector 930215  Network.dyn_peer[61]  lookupStabilitySig:vector  ETV
vector 930216  Network.dyn_peer[61]  lookupTimeSig:vector  ETV
vector 930244  Network.dyn_peer[71]  lookupHopsSig:vector  ETV
vector 930245  Network.dyn_peer[71]  lookupStabilitySig:vector  ETV
vector 930246  Network.dyn_peer[71]  lookupTimeSig:vector  ETV
vector 930166  Network.dyn_peer[45]  lookupHopsSig:vector  ETV
vector 930167  Network.dyn_peer[45]  lookupStabilitySig:vector  ETV
vector 930168  Network.dyn_peer[45]  lookupTimeSig:vector  ETV
vector 930139  Network.dyn_peer[36]  lookupHopsSig:vector  ETV
vector 930140  Network.dyn_peer[36]  lookupStabilitySig:vector  ETV
vector 930141  Network.dyn_peer[36]  lookupTimeSig:vector  ETV
vector 930232  Network.dyn_peer[67]  lookupHopsSig:vector  ETV
vector 930233  Network.dyn_peer[67]  lookupStabilitySig:vector  ETV
vector 930234  Network.dyn_peer[67]  lookupTimeSig:vector  ETV
vector 930265  Network.dyn_peer[78]  lookupHopsSig:vector  ETV
vector 930266  Network.dyn_peer[78]  lookupStabilitySig:vector  ETV
vector 930267  Network.dyn_peer[78]  lookupTimeSig:vector  ETV
vector 930325  Network.dyn_peer[98]  lookupHopsSig:vector  ETV
vector 930326  Network.dyn_peer[98]  lookupStabilitySig:vector  ETV
vector 930327  Network.dyn_peer[98]  lookupTimeSig:vector  ETV
vector 930178  Network.dyn_peer[49]  lookupHopsSig:vector  ETV
vector 930179  Network.dyn_peer[49]  lookupStabilitySig:vector  ETV
vector 930180  Network.dyn_peer[49]  lookupTimeSig:vector  ETV
vector 930160  Network.dyn_peer[43]  lookupHopsSig:vector  ETV
vector 930161  Network.dyn_peer[43]  lookupStabilitySig:vector  ETV
vector 930162  Network.dyn_peer[43]  lookupTimeSig:vector  ETV
vector 930220  Network.dyn_peer[63]  lookupHopsSig:vector  ETV
vector 930221  Network.dyn_peer[63]  lookupStabilitySig:vector  ETV
vector 930222  Network.dyn_peer[63]  lookupTimeSig:vector  ETV
vector 930175  Network.dyn_peer[48]  lookupHopsSig:vector  ETV
vector 930176  Network.dyn_peer[48]  lookupStabilitySig:vector  ETV
vector 930177  Network.dyn_peer[48]  lookupTimeSig:vector  ETV
vector 930241  Network.dyn_peer[70]  lookupHopsSig:vector  ETV
vector 930242  Network.dyn_peer[70]  lookupStabilitySig:vector  ETV
vector 930243  Network.dyn_peer[70]  lookupTimeSig:vector  ETV
vector 930124  Network.dyn_peer[31]  lookupHopsSig:vector  ETV
vector 930125  Network.dyn_peer[31]  lookupStabilitySig:vector  ETV
vector 930126  Network.dyn_peer[31]  lookupTimeSig:vector  ETV
vector 930217  Network.dyn_peer[62]  lookupHopsSig:vector  ETV
vector 930218  Network.dyn_peer[62]  lookupStabilitySig:vector  ETV
vector 930219  Network.dyn_peer[62]  lookupTimeSig:vector  ETV
vector 930307  Network.dyn_peer[92]  lookupHopsSig:vector  ETV
vector 930308  Network.dyn_peer[92]  lookupStabilitySig:vector  ETV
vector 930309  Network.dyn_peer[92]  lookupTimeSig:vector  ETV
vector 930130  Network.dyn_peer[33]  lookupHopsSig:vector  ETV
vector 930131  Network.dyn_peer[33]  lookupStabilitySig:vector  ETV
vector 930132  Network.dyn_peer[33]  lookupTimeSig:vector  ETV
vector 930133  Network.dyn_peer[34]  lookupHopsSig:vector  ETV
vector 930134  Network.dyn_peer[34]  lookupStabilitySig:vector  ETV
vector 930135  Network.dyn_peer[34]  lookupTimeSig:vector  ETV
vector 930223  Network.dyn_peer[64]  lookupHopsSig:vector  ETV
vector 930224  Network.dyn_peer[64]  lookupStabilitySig:vector  ETV
vector 930225  Network.dyn_peer[64]  lookupTimeSig:vector  ETV
vector 930256  Network.dyn_peer[75]  lookupHopsSig:vector  ETV
vector 930257  Network.dyn_peer[75]  lookupStabilitySig:vector  ETV
vector 930258  Network.dyn_peer[75]  lookupTimeSig:vector  ETV
vector 930346  Network.dyn_peer[105]  lookupHopsSig:vector  ETV
vector 930347  Network.dyn_peer[105]  lookupStabilitySig:vector  ETV
vector 930348  Network.dyn_peer[105]  lookupTimeSig:vector  ETV
vector 930295  Network.dyn_peer[88]  lookupHopsSig:vector  ETV
vector 930296  Network.dyn_peer[88]  lookupStabilitySig:vector  ETV
vector 930297  Network.dyn_peer[88]  lookupTimeSig:vector  ETV
vector 930298  Network.dyn_peer[89]  lookupHopsSig:vector  ETV
vector 930299  Network.dyn_peer[89]  lookupStabilitySig:vector  ETV
vector 930300  Network.dyn_peer[89]  lookupTimeSig:vector  ETV
vector 930331  Network.dyn_peer[100]  lookupHopsSig:vector  ETV
vector 930332  Network.dyn_peer[100]  lookupStabilitySig:vector  ETV
vector 930333  Network.dyn_peer[100]  lookupTimeSig:vector  ETV
vector 930154  Network.dyn_peer[41]  lookupHopsSig:vector  ETV
vector 930155  Network.dyn_peer[41]  lookupStabilitySig:vector  ETV
vector 930156  Network.dyn_peer[41]  lookupTimeSig:vector  ETV
vector 930169  Network.dyn_peer[46]  lookupHopsSig:vector  ETV
vector 930170  Network.dyn_peer[46]  lookupStabilitySig:vector  ETV
vector 930171  Network.dyn_peer[46]  lookupTimeSig:vector  ETV
vector 930229  Network.dyn_peer[66]  lookupHopsSig:vector  ETV
vector 930230  Network.dyn_peer[66]  lookupStabilitySig:vector  ETV
vector 930231  Network.dyn_peer[66]  lookupTimeSig:vector  ETV
vector 930289  Network.dyn_peer[86]  lookupHopsSig:vector  ETV
vector 930290  Network.dyn_peer[86]  lookupStabilitySig:vector  ETV
vector 930291  Network.dyn_peer[86]  lookupTimeSig:vector  ETV
vector 930304  Network.dyn_peer[91]  lookupHopsSig:vector  ETV
vector 930305  Network.dyn_peer[91]  lookupStabilitySig:vector  ETV
vector 930306  Network.dyn_peer[91]  lookupTimeSig:vector  ETV
vector 930343  Network.dyn_peer[104]  lookupHopsSig:vector  ETV
vector 930344  Network.dyn_peer[104]  lookupStabilitySig:vector  ETV
vector 930345  Network.dyn_peer[104]  lookupTimeSig:vector  ETV
vector 930349  Network.dyn_peer[106]  lookupHopsSig:vector  ETV
vector 930350  Network.dyn_peer[106]  lookupStabilitySig:vector  ETV
vector 930351  Network.dyn_peer[106]  lookupTimeSig:vector  ETV
vector 930235  Network.dyn_peer[68]  lookupHopsSig:vector  ETV
vector 930236  Network.dyn_peer[68]  lookupStabilitySig:vector  ETV
vector 930237  Network.dyn_peer[68]  lookupTimeSig:vector  ETV
vector 930334  Network.dyn_peer[101]  lookupHopsSig:vector  ETV
vector 930335  Network.dyn_peer[101]  lookupStabilitySig:vector  ETV
vector 930336  Network.dyn_peer[101]  lookupTimeSig:vector  ETV
vector 930367  Network.dyn_peer[112]  lookupHopsSig:vector  ETV
vector 930368  Network.dyn_peer[112]  lookupStabilitySig:vector  ETV
vector 930369  Network.dyn_peer[112]  lookupTimeSig:vector  ETV
vector 930202  Network.dyn_peer[57]  lookupHopsSig:vector  ETV
vector 930203  Network.dyn_peer[57]  lookupStabilitySig:vector  ETV
vector 930204  Network.dyn_peer[57]  lookupTimeSig:vector  ETV
vector 930355  Network.dyn_peer[108]  lookupHopsSig:vector  ETV
vector 930356  Network.dyn_peer[108]  lookupStabilitySig:vector  ETV
vector 930357  Network.dyn_peer[108]  lookupTimeSig:vector  ETV
vector 930394  Network.dyn_peer[121]  lookupHopsSig:vector  ETV
vector 930395  Network.dyn_peer[121]  lookupStabilitySig:vector  ETV
vector 930396  Network.dyn_peer[121]  lookupTimeSig:vector  ETV
vector 930313  Network.dyn_peer[94]  lookupHopsSig:vector  ETV
vector 930314  Network.dyn_peer[94]  lookupStabilitySig:vector  ETV
vector 930315  Network.dyn_peer[94]  lookupTimeSig:vector  ETV
vector 930382  Network.dyn_peer[117]  lookupHopsSig:vector  ETV
vector 930383  Network.dyn_peer[117]  lookupStabilitySig:vector  ETV
vector 930384  Network.dyn_peer[117]  lookupTimeSig:vector  ETV
vector 930412  Network.dyn_peer[127]  lookupHopsSig:vector  ETV
vector 930413  Network.dyn_peer[127]  lookupStabilitySig:vector  ETV
vector 930414  Network.dyn_peer[127]  lookupTimeSig:vector  ETV
vector 930415  Network.dyn_peer[128]  lookupHopsSig:vector  ETV
vector 930416  Network.dyn_peer[128]  lookupStabilitySig:vector  ETV
vector 930417  Network.dyn_peer[128]  lookupTimeSig:vector  ETV
vector 930208  Network.dyn_peer[59]  lookupHopsSig:vector  ETV
vector 930209  Network.dyn_peer[59]  lookupStabilitySig:vector  ETV
vector 930210  Network.dyn_peer[59]  lookupTimeSig:vector  ETV
vector 930478  Network.dyn_peer[149]  lookupHopsSig:vector  ETV
vector 930479  Network.dyn_peer[149]  lookupStabilitySig:vector  ETV
vector 930480  Network.dyn_peer[149]  lookupTimeSig:vector  ETV
vector 930181  Network.dyn_peer[50]  lookupHopsSig:vector  ETV
vector 930182  Network.dyn_peer[50]  lookupStabilitySig:vector  ETV
vector 930183  Network.dyn_peer[50]  lookupTimeSig:vector  ETV
vector 930211  Network.dyn_peer[60]  lookupHopsSig:vector  ETV
vector 930212  Network.dyn_peer[60]  lookupStabilitySig:vector  ETV
vector 930213  Network.dyn_peer[60]  lookupTimeSig:vector  ETV
vector 930391  Network.dyn_peer[120]  lookupHopsSig:vector  ETV
vector 930392  Network.dyn_peer[120]  lookupStabilitySig:vector  ETV
vector 930393  Network.dyn_peer[120]  lookupTimeSig:vector  ETV
vector 930274  Network.dyn_peer[81]  lookupHopsSig:vector  ETV
vector 930275  Network.dyn_peer[81]  lookupStabilitySig:vector  ETV
vector 930276  Network.dyn_peer[81]  lookupTimeSig:vector  ETV
vector 930277  Network.dyn_peer[82]  lookupHopsSig:vector  ETV
vector 930278  Network.dyn_peer[82]  lookupStabilitySig:vector  ETV
vector 930279  Network.dyn_peer[82]  lookupTimeSig:vector  ETV
vector 930373  Network.dyn_peer[114]  lookupHopsSig:vector  ETV
vector 930374  Network.dyn_peer[114]  lookupStabilitySig:vector  ETV
vector 930375  Network.dyn_peer[114]  lookupTimeSig:vector  ETV
vector 930406  Network.dyn_peer[125]  lookupHopsSig:vector  ETV
vector 930407  Network.dyn_peer[125]  lookupStabilitySig:vector  ETV
vector 930408  Network.dyn_peer[125]  lookupTimeSig:vector  ETV
vector 930379  Network.dyn_peer[116]  lookupHopsSig:vector  ETV
vector 930380  Network.dyn_peer[116]  lookupStabilitySig:vector  ETV
vector 930381  Network.dyn_peer[116]  lookupTimeSig:vector  ETV
vector 930439  Network.dyn_peer[136]  lookupHopsSig:vector  ETV
vector 930440  Network.dyn_peer[136]  lookupStabilitySig:vector  ETV
vector 930441  Network.dyn_peer[136]  lookupTimeSig:vector  ETV
vector 930142  Network.dyn_peer[37]  lookupHopsSig:vector  ETV
vector 930143  Network.dyn_peer[37]  lookupStabilitySig:vector  ETV
vector 930144  Network.dyn_peer[37]  lookupTimeSig:vector  ETV
vector 930247  Network.dyn_peer[72]  lookupHopsSig:vector  ETV
vector 930248  Network.dyn_peer[72]  lookupStabilitySig:vector  ETV
vector 930249  Network.dyn_peer[72]  lookupTimeSig:vector  ETV
vector 930259  Network.dyn_peer[76]  lookupHopsSig:vector  ETV
vector 930260  Network.dyn_peer[76]  lookupStabilitySig:vector  ETV
vector 930261  Network.dyn_peer[76]  lookupTimeSig:vector  ETV
vector 930469  Network.dyn_peer[146]  lookupHopsSig:vector  ETV
vector 930470  Network.dyn_peer[146]  lookupStabilitySig:vector  ETV
vector 930471  Network.dyn_peer[146]  lookupTimeSig:vector  ETV
vector 930529  Network.dyn_peer[166]  lookupHopsSig:vector  ETV
vector 930530  Network.dyn_peer[166]  lookupStabilitySig:vector  ETV
vector 930531  Network.dyn_peer[166]  lookupTimeSig:vector  ETV
vector 930322  Network.dyn_peer[97]  lookupHopsSig:vector  ETV
vector 930323  Network.dyn_peer[97]  lookupStabilitySig:vector  ETV
vector 930324  Network.dyn_peer[97]  lookupTimeSig:vector  ETV
vector 930268  Network.dyn_peer[79]  lookupHopsSig:vector  ETV
vector 930269  Network.dyn_peer[79]  lookupStabilitySig:vector  ETV
vector 930270  Network.dyn_peer[79]  lookupTimeSig:vector  ETV
vector 930301  Network.dyn_peer[90]  lookupHopsSig:vector  ETV
vector 930302  Network.dyn_peer[90]  lookupStabilitySig:vector  ETV
vector 930303  Network.dyn_peer[90]  lookupTimeSig:vector  ETV
vector 930451  Network.dyn_peer[140]  lookupHopsSig:vector  ETV
vector 930452  Network.dyn_peer[140]  lookupStabilitySig:vector  ETV
vector 930453  Network.dyn_peer[140]  lookupTimeSig:vector  ETV
vector 930280  Network.dyn_peer[83]  lookupHopsSig:vector  ETV
vector 930281  Network.dyn_peer[83]  lookupStabilitySig:vector  ETV
vector 930282  Network.dyn_peer[83]  lookupTimeSig:vector  ETV
vector 930496  Network.dyn_peer[155]  lookupHopsSig:vector  ETV
vector 930497  Network.dyn_peer[155]  lookupStabilitySig:vector  ETV
vector 930498  Network.dyn_peer[155]  lookupTimeSig:vector  ETV
vector 930319  Network.dyn_peer[96]  lookupHopsSig:vector  ETV
vector 930320  Network.dyn_peer[96]  lookupStabilitySig:vector  ETV
vector 930321  Network.dyn_peer[96]  lookupTimeSig:vector  ETV
vector 930352  Network.dyn_peer[107]  lookupHopsSig:vector  ETV
vector 930353  Network.dyn_peer[107]  lookupStabilitySig:vector  ETV
vector 930354  Network.dyn_peer[107]  lookupTimeSig:vector  ETV
vector 930535  Network.dyn_peer[168]  lookupHopsSig:vector  ETV
vector 930536  Network.dyn_peer[168]  lookupStabilitySig:vector  ETV
vector 930537  Network.dyn_peer[168]  lookupTimeSig:vector  ETV
vector 930340  Network.dyn_peer[103]  lookupHopsSig:vector  ETV
vector 930341  Network.dyn_peer[103]  lookupStabilitySig:vector  ETV
vector 930342  Network.dyn_peer[103]  lookupTimeSig:vector  ETV
vector 930283  Network.dyn_peer[84]  lookupHopsSig:vector  ETV
vector 930284  Network.dyn_peer[84]  lookupStabilitySig:vector  ETV
vector 930285  Network.dyn_peer[84]  lookupTimeSig:vector  ETV
vector 930553  Network.dyn_peer[174]  lookupHopsSig:vector  ETV
vector 930554  Network.dyn_peer[174]  lookupStabilitySig:vector  ETV
vector 930555  Network.dyn_peer[174]  lookupTimeSig:vector  ETV
vector 930376  Network.dyn_peer[115]  lookupHopsSig:vector  ETV
vector 930377  Network.dyn_peer[115]  lookupStabilitySig:vector  ETV
vector 930378  Network.dyn_peer[115]  lookupTimeSig:vector  ETV
vector 930556  Network.dyn_peer[175]  lookupHopsSig:vector  ETV
vector 930557  Network.dyn_peer[175]  lookupStabilitySig:vector  ETV
vector 930558  Network.dyn_peer[175]  lookupTimeSig:vector  ETV
vector 930292  Network.dyn_peer[87]  lookupHopsSig:vector  ETV
vector 930293  Network.dyn_peer[87]  lookupStabilitySig:vector  ETV
vector 930294  Network.dyn_peer[87]  lookupTimeSig:vector  ETV
vector 930472  Network.dyn_peer[147]  lookupHopsSig:vector  ETV
vector 930473  Network.dyn_peer[147]  lookupStabilitySig:vector  ETV
vector 930474  Network.dyn_peer[147]  lookupTimeSig:vector  ETV
vector 930361  Network.dyn_peer[110]  lookupHopsSig:vector  ETV
vector 930362  Network.dyn_peer[110]  lookupStabilitySig:vector  ETV
vector 930363  Network.dyn_peer[110]  lookupTimeSig:vector  ETV
vector 930460  Network.dyn_peer[143]  lookupHopsSig:vector  ETV
vector 930461  Network.dyn_peer[143]  lookupStabilitySig:vector  ETV
vector 930462  Network.dyn_peer[143]  lookupTimeSig:vector  ETV
vector 930253  Network.dyn_peer[74]  lookupHopsSig:vector  ETV
vector 930254  Network.dyn_peer[74]  lookupStabilitySig:vector  ETV
vector 930255  Network.dyn_peer[74]  lookupTimeSig:vector  ETV
vector 930436  Network.dyn_peer[135]  lookupHopsSig:vector  ETV
vector 930437  Network.dyn_peer[135]  lookupStabilitySig:vector  ETV
vector 930438  Network.dyn_peer[135]  lookupTimeSig:vector  ETV
vector 930559  Network.dyn_peer[176]  lookupHopsSig:vector  ETV
vector 930560  Network.dyn_peer[176]  lookupStabilitySig:vector  ETV
vector 930561  Network.dyn_peer[176]  lookupTimeSig:vector  ETV
vector 930442  Network.dyn_peer[137]  lookupHopsSig:vector  ETV
vector 930443  Network.dyn_peer[137]  lookupStabilitySig:vector  ETV
vector 930444  Network.dyn_peer[137]  lookupTimeSig:vector  ETV
vector 930562  Network.dyn_peer[177]  lookupHopsSig:vector  ETV
vector 930563  Network.dyn_peer[177]  lookupStabilitySig:vector  ETV
vector 930564  Network.dyn_peer[177]  lookupTimeSig:vector  ETV
vector 930481  Network.dyn_peer[150]  lookupHopsSig:vector  ETV
vector 930482  Network.dyn_peer[150]  lookupStabilitySig:vector  ETV
vector 930483  Network.dyn_peer[150]  lookupTimeSig:vector  ETV
vector 930571  Network.dyn_peer[180]  lookupHopsSig:vector  ETV
vector 930572  Network.dyn_peer[180]  lookupStabilitySig:vector  ETV
vector 930573  Network.dyn_peer[180]  lookupTimeSig:vector  ETV
vector 930514  Network.dyn_peer[161]  lookupHopsSig:vector  ETV
vector 930515  Network.dyn_peer[161]  lookupStabilitySig:vector  ETV
vector 930516  Network.dyn_peer[161]  lookupTimeSig:vector  ETV
vector 930397  Network.dyn_peer[122]  lookupHopsSig:vector  ETV
vector 930398  Network.dyn_peer[122]  lookupStabilitySig:vector  ETV
vector 930399  Network.dyn_peer[122]  lookupTimeSig:vector  ETV
vector 930370  Network.dyn_peer[113]  lookupHopsSig:vector  ETV
vector 930371  Network.dyn_peer[113]  lookupStabilitySig:vector  ETV
vector 930372  Network.dyn_peer[113]  lookupTimeSig:vector  ETV
vector 930433  Network.dyn_peer[134]  lookupHopsSig:vector  ETV
vector 930434  Network.dyn_peer[134]  lookupStabilitySig:vector  ETV
vector 930435  Network.dyn_peer[134]  lookupTimeSig:vector  ETV
vector 930205  Network.dyn_peer[58]  lookupHopsSig:vector  ETV
vector 930206  Network.dyn_peer[58]  lookupStabilitySig:vector  ETV
vector 930207  Network.dyn_peer[58]  lookupTimeSig:vector  ETV
vector 930448  Network.dyn_peer[139]  lookupHopsSig:vector  ETV
vector 930449  Network.dyn_peer[139]  lookupStabilitySig:vector  ETV
vector 930450  Network.dyn_peer[139]  lookupTimeSig:vector  ETV
vector 930568  Network.dyn_peer[179]  lookupHopsSig:vector  ETV
vector 930569  Network.dyn_peer[179]  lookupStabilitySig:vector  ETV
vector 930570  Network.dyn_peer[179]  lookupTimeSig:vector  ETV
vector 930421  Network.dyn_peer[130]  lookupHopsSig:vector  ETV
vector 930422  Network.dyn_peer[130]  lookupStabilitySig:vector  ETV
vector 930423  Network.dyn_peer[130]  lookupTimeSig:vector  ETV
vector 930541  Network.dyn_peer[170]  lookupHopsSig:vector  ETV
vector 930542  Network.dyn_peer[170]  lookupStabilitySig:vector  ETV
vector 930543  Network.dyn_peer[170]  lookupTimeSig:vector  ETV
vector 930691  Network.dyn_peer[220]  lookupHopsSig:vector  ETV
vector 930692  Network.dyn_peer[220]  lookupStabilitySig:vector  ETV
vector 930693  Network.dyn_peer[220]  lookupTimeSig:vector  ETV
vector 930454  Network.dyn_peer[141]  lookupHopsSig:vector  ETV
vector 930455  Network.dyn_peer[141]  lookupStabilitySig:vector  ETV
vector 930456  Network.dyn_peer[141]  lookupTimeSig:vector  ETV
vector 930517  Network.dyn_peer[162]  lookupHopsSig:vector  ETV
vector 930518  Network.dyn_peer[162]  lookupStabilitySig:vector  ETV
vector 930519  Network.dyn_peer[162]  lookupTimeSig:vector  ETV
vector 930610  Network.dyn_peer[193]  lookupHopsSig:vector  ETV
vector 930611  Network.dyn_peer[193]  lookupStabilitySig:vector  ETV
vector 930612  Network.dyn_peer[193]  lookupTimeSig:vector  ETV
vector 930316  Network.dyn_peer[95]  lookupHopsSig:vector  ETV
vector 930317  Network.dyn_peer[95]  lookupStabilitySig:vector  ETV
vector 930318  Network.dyn_peer[95]  lookupTimeSig:vector  ETV
vector 930619  Network.dyn_peer[196]  lookupHopsSig:vector  ETV
vector 930620  Network.dyn_peer[196]  lookupStabilitySig:vector  ETV
vector 930621  Network.dyn_peer[196]  lookupTimeSig:vector  ETV
vector 930508  Network.dyn_peer[159]  lookupHopsSig:vector  ETV
vector 930509  Network.dyn_peer[159]  lookupStabilitySig:vector  ETV
vector 930510  Network.dyn_peer[159]  lookupTimeSig:vector  ETV
vector 930631  Network.dyn_peer[200]  lookupHopsSig:vector  ETV
vector 930632  Network.dyn_peer[200]  lookupStabilitySig:vector  ETV
vector 930633  Network.dyn_peer[200]  lookupTimeSig:vector  ETV
vector 930484  Network.dyn_peer[151]  lookupHopsSig:vector  ETV
vector 930485  Network.dyn_peer[151]  lookupStabilitySig:vector  ETV
vector 930486  Network.dyn_peer[151]  lookupTimeSig:vector  ETV
vector 930547  Network.dyn_peer[172]  lookupHopsSig:vector  ETV
vector 930548  Network.dyn_peer[172]  lookupStabilitySig:vector  ETV
vector 930549  Network.dyn_peer[172]  lookupTimeSig:vector  ETV
vector 930637  Network.dyn_peer[202]  lookupHopsSig:vector  ETV
vector 930638  Network.dyn_peer[202]  lookupStabilitySig:vector  ETV
vector 930639  Network.dyn_peer[202]  lookupTimeSig:vector  ETV
vector 930550  Network.dyn_peer[173]  lookupHopsSig:vector  ETV
vector 930551  Network.dyn_peer[173]  lookupStabilitySig:vector  ETV
vector 930552  Network.dyn_peer[173]  lookupTimeSig:vector  ETV
vector 930493  Network.dyn_peer[154]  lookupHopsSig:vector  ETV
vector 930494  Network.dyn_peer[154]  lookupStabilitySig:vector  ETV
vector 930495  Network.dyn_peer[154]  lookupTimeSig:vector  ETV
vector 930409  Network.dyn_peer[126]  lookupHopsSig:vector  ETV
vector 930410  Network.dyn_peer[126]  lookupStabilitySig:vector  ETV
vector 930411  Network.dyn_peer[126]  lookupTimeSig:vector  ETV
vector 930499  Network.dyn_peer[156]  lookupHopsSig:vector  ETV
vector 930500  Network.dyn_peer[156]  lookupStabilitySig:vector  ETV
vector 930501  Network.dyn_peer[156]  lookupTimeSig:vector  ETV
vector 930652  Network.dyn_peer[207]  lookupHopsSig:vector  ETV
vector 930653  Network.dyn_peer[207]  lookupStabilitySig:vector  ETV
vector 930654  Network.dyn_peer[207]  lookupTimeSig:vector  ETV
vector 930604  Network.dyn_peer[191]  lookupHopsSig:vector  ETV