file 3279435 1369933129                                         
version 2
run Stability2-73-20130528-01:34:38-24168
attr configname Stability2
attr datetime 20130528-01:34:38
attr experiment Stability2
attr inifile omnetpp.ini
attr iterationvars $0=300
attr iterationvars2 "$0=300, $repetition=3"
attr measurement $0=300
attr network Network
attr processid 24168
attr repetition 3
attr replication #3
attr resultdir results
attr runnumber 73
attr seedset 73
vector 2220073  Network.churner  inGoingSizeSig:vector  ETV
2220073	3205353 74082 11 381536 20 50 3001 0 1577 2749548 3114373016
vector 2190085  Network.dyn_peer[4]  lookupHopsSig:vector  ETV
2190085	611625 239 30 428718 20.05 52.183631898953 8 0 92 224 12164
vector 2190086  Network.dyn_peer[4]  lookupStabilitySig:vector  ETV
2190086	611864 327 30 428718 20.05 52.183631898953 8 0.16666668653488 1 6.1062808148563 5.350557589979
vector 2190087  Network.dyn_peer[4]  lookupTimeSig:vector  ETV
2190087	612191 247 30 428718 20.05 52.183631898953 8 0 9.3 23.1 126.19
vector 2190088  Network.dyn_peer[5]  lookupHopsSig:vector  ETV
2190088	612438 311 71 361735 20.16 49.103038911469 10 1 77 227 10473
vector 2190089  Network.dyn_peer[5]  lookupStabilitySig:vector  ETV
2190089	612749 454 71 361735 20.16 49.103038911469 10 0.39999997615814 0.97806004621089 8.213092641905 7.0213560824512
vector 2190090  Network.dyn_peer[5]  lookupTimeSig:vector  ETV
2190090	613203 323 71 361735 20.16 49.103038911469 10 0.1 7.8 23.6 109.34
vector 2190091  Network.dyn_peer[6]  lookupHopsSig:vector  ETV
2190091	613526 462 81 488264 20.17 55.180788989387 15 1 67 269 9665
vector 2190092  Network.dyn_peer[6]  lookupStabilitySig:vector  ETV
2190092	613988 643 81 488264 20.17 55.180788989387 15 0 0.98761408124119 12.321869143285 10.999399378889
vector 2190093  Network.dyn_peer[6]  lookupTimeSig:vector  ETV
2190093	614631 478 81 488264 20.17 55.180788989387 15 0.1 6.8 28.3 102.15
vector 2190094  Network.dyn_peer[7]  lookupHopsSig:vector  ETV
2190094	615109 595 89 634937 20.18 66.045810164678 19 1 103 382 19898
vector 2190095  Network.dyn_peer[7]  lookupStabilitySig:vector  ETV
2190095	615704 867 89 634937 20.18 66.045810164678 19 0.33333331346512 0.99743040674366 16.466034963494 14.94395880433
vector 2190096  Network.dyn_peer[7]  lookupTimeSig:vector  ETV
2190096	616571 624 89 634937 20.18 66.045810164678 19 0.1 10.4 40 206.78
vector 2190097  Network.dyn_peer[8]  lookupHopsSig:vector  ETV
2190097	617195 362 97 168262 20.19 38.8961307917 12 1 39 151 3817
vector 2190098  Network.dyn_peer[8]  lookupStabilitySig:vector  ETV
2190098	617557 536 97 168262 20.19 38.8961307917 12 0.16666668653488 0.99783080257475 9.5143161881715 8.1573190109642
vector 2190099  Network.dyn_peer[8]  lookupTimeSig:vector  ETV
2190099	618093 378 97 168262 20.19 38.8961307917 12 0.1 4 16.2 41.28
vector 2190073  Network.dyn_peer[0]  lookupHopsSig:vector  ETV
2190073	606125 471 110 561574 20.21 59.600199301171 15 2 51 308 9350
vector 2190074  Network.dyn_peer[0]  lookupStabilitySig:vector  ETV
2190074	606596 683 110 561574 20.21 59.600199301171 15 0.39999997615814 0.99244625214487 12.685545152053 11.292682533303
vector 2190075  Network.dyn_peer[0]  lookupTimeSig:vector  ETV
2190075	607279 487 110 561574 20.21 59.600199301171 15 0.2 5.2 32.2 99.76
vector 2190076  Network.dyn_peer[1]  lookupHopsSig:vector  ETV
2190076	607766 265 119 507390 20.22 56.236751475653 9 2 67 162 7280
vector 2190077  Network.dyn_peer[1]  lookupStabilitySig:vector  ETV
2190077	608031 381 119 507390 20.22 56.236751475653 9 0 0.97366977483034 6.4646138548851 5.364759636304
vector 2190078  Network.dyn_peer[1]  lookupTimeSig:vector  ETV
2190078	608412 280 119 507390 20.22 56.236751475653 9 0.2 6.8 17 76.08
vector 2190106  Network.dyn_peer[11]  lookupHopsSig:vector  ETV
2190106	621358 404 123 503858 20.22 56.039481036084 13 1 54 267 9583
vector 2190107  Network.dyn_peer[11]  lookupStabilitySig:vector  ETV
2190107	621762 580 123 503858 20.22 56.039481036084 13 -0.33333337306976 0.98340708017349 10.587952008471 10.124610618084
vector 2190108  Network.dyn_peer[11]  lookupTimeSig:vector  ETV
2190108	622342 420 123 503858 20.22 56.039481036084 13 0.1 5.5 27.9 101.27
vector 2190112  Network.dyn_peer[13]  lookupHopsSig:vector  ETV
2190112	623827 335 137 247161 20.24 43.453465626603 11 1 57 144 4364
vector 2190113  Network.dyn_peer[13]  lookupStabilitySig:vector  ETV
2190113	624162 482 137 247161 20.24 43.453465626603 11 0.41666668653488 0.99308983236551 9.0851934030652 7.8920057684938
vector 2190114  Network.dyn_peer[13]  lookupTimeSig:vector  ETV
2190114	624644 350 137 247161 20.24 43.453465626603 11 0.1 5.8 15.4 46.6
vector 2190142  Network.dyn_peer[23]  lookupHopsSig:vector  ETV
2190142	637441 465 143 609276 20.24 63.337476355719 15 0 45 224 5900
vector 2190143  Network.dyn_peer[23]  lookupStabilitySig:vector  ETV
2190143	637906 656 143 609276 20.24 63.337476355719 15 0.33333331346512 1 12.838275799062 11.570077178161
vector 2190144  Network.dyn_peer[23]  lookupTimeSig:vector  ETV
2190144	638562 484 143 609276 20.24 63.337476355719 15 0 4.6 23.8 63.62
vector 2190118  Network.dyn_peer[15]  lookupHopsSig:vector  ETV
2190118	626984 332 154 347488 20.26 48.445243945003 11 1 35 125 2529
vector 2190119  Network.dyn_peer[15]  lookupStabilitySig:vector  ETV
2190119	627316 491 154 347488 20.26 48.445243945003 11 -0.28571426868439 0.99624060140923 8.7204718836583 8.3180318384115
vector 2190120  Network.dyn_peer[15]  lookupTimeSig:vector  ETV
2190120	627807 348 154 347488 20.26 48.445243945003 11 0.1 3.6 13.5 27.87
vector 2190100  Network.dyn_peer[9]  lookupHopsSig:vector  ETV
2190100	618471 470 179 654050 20.3 68.7550625736 15 2 81 465 22119
vector 2190101  Network.dyn_peer[9]  lookupStabilitySig:vector  ETV
2190101	618941 663 179 654050 20.3 68.7550625736 15 0 0.99335180036724 12.505083121359 11.42892524443
vector 2190102  Network.dyn_peer[9]  lookupTimeSig:vector  ETV
2190102	619604 481 179 654050 20.3 68.7550625736 15 0.2 8.2 47.9 230.59
vector 2190103  Network.dyn_peer[10]  lookupHopsSig:vector  ETV
2190103	620085 365 189 139414 20.31 37.041484411917 12 2 30 156 3106
vector 2190104  Network.dyn_peer[10]  lookupStabilitySig:vector  ETV
2190104	620450 527 189 139414 20.31 37.041484411917 12 -0.33333337306976 0.99576271185651 9.1569607895799 8.492285806135
vector 2190105  Network.dyn_peer[10]  lookupTimeSig:vector  ETV
2190105	620977 381 189 139414 20.31 37.041484411917 12 0.2 3.1 16.7 34.25
vector 2190139  Network.dyn_peer[22]  lookupHopsSig:vector  ETV
2190139	635892 449 206 581281 20.33 61.016089465284 14 1 63 389 16039
vector 2190140  Network.dyn_peer[22]  lookupStabilitySig:vector  ETV
2190140	636341 634 206 581281 20.33 61.016089465284 14 0.41666668653488 0.98215124383569 11.900152899325 10.513323779905
vector 2190141  Network.dyn_peer[22]  lookupTimeSig:vector  ETV
2190141	636975 466 206 581281 20.33 61.016089465284 14 0.1 6.4 40.2 168.28
vector 2190082  Network.dyn_peer[3]  lookupHopsSig:vector  ETV
2190082	610090 440 218 493113 20.34 55.443926649914 14 3 101 319 15209
vector 2190083  Network.dyn_peer[3]  lookupStabilitySig:vector  ETV
2190083	610530 640 218 493113 20.34 55.443926649914 14 0.24000000953674 0.99490373721346 11.967590211891 10.95880428173
vector 2190084  Network.dyn_peer[3]  lookupTimeSig:vector  ETV
2190084	611170 455 218 493113 20.34 55.443926649914 14 0.3 10.2 33.2 158.54
vector 2190172  Network.dyn_peer[33]  lookupHopsSig:vector  ETV
2190172	651626 400 224 393774 20.34 50.558496537355 13 0 67 232 8328
vector 2190173  Network.dyn_peer[33]  lookupStabilitySig:vector  ETV
2190173	652026 572 224 393774 20.34 50.558496537355 13 0.16666668653488 1 11.091817685403 10.091586735865
vector 2190174  Network.dyn_peer[33]  lookupTimeSig:vector  ETV
2190174	652598 417 224 393774 20.34 50.558496537355 13 0 6.8 24.4 88.04
vector 2190145  Network.dyn_peer[24]  lookupHopsSig:vector  ETV
2190145	639046 708 232 674625 20.35 73.180000010248 22 1 73 492 16426
vector 2190146  Network.dyn_peer[24]  lookupStabilitySig:vector  ETV
2190146	639754 1017 232 674625 20.35 73.180000010248 22 0.21052628755569 0.99816715542693 20.139836491202 19.032906504321
vector 2190147  Network.dyn_peer[24]  lookupTimeSig:vector  ETV
2190147	640771 730 232 674625 20.35 73.180000010248 22 0.1 7.4 51.3 174.29
vector 2190178  Network.dyn_peer[35]  lookupHopsSig:vector  ETV
2190178	655483 406 243 492387 20.36 55.403722158732 13 0 60 319 11525
vector 2190179  Network.dyn_peer[35]  lookupStabilitySig:vector  ETV
2190179	655889 574 243 492387 20.36 55.403722158732 13 0.41666668653488 1 11.5546287857 10.555002316249
vector 2190180  Network.dyn_peer[35]  lookupTimeSig:vector  ETV
2190180	656463 414 243 492387 20.36 55.403722158732 13 0 6.1 33.1 121.75
vector 2190154  Network.dyn_peer[27]  lookupHopsSig:vector  ETV
2190154	644274 474 264 675073 20.38 73.311555385204 15 1 70 427 18083
vector 2190155  Network.dyn_peer[27]  lookupStabilitySig:vector  ETV
2190155	644748 678 264 675073 20.38 73.311555385204 15 0.21052628755569 0.99923224566737 13.240804243891 12.240119016028
vector 2190156  Network.dyn_peer[27]  lookupTimeSig:vector  ETV
2190156	645426 493 264 675073 20.38 73.311555385204 15 0.1 7.1 44.1 189.49
vector 2190133  Network.dyn_peer[20]  lookupHopsSig:vector  ETV
2190133	633172 439 288 611602 20.41 63.556155488102 14 2 78 329 13179
vector 2190134  Network.dyn_peer[20]  lookupStabilitySig:vector  ETV
2190134	633611 640 288 611602 20.41 63.556155488102 14 -0.16666662693024 0.99275945313275 11.430078647099 10.588374791614
vector 2190135  Network.dyn_peer[20]  lookupTimeSig:vector  ETV
2190135	634251 452 288 611602 20.41 63.556155488102 14 0.2 7.9 34.2 138.46
vector 2190109  Network.dyn_peer[12]  lookupHopsSig:vector  ETV
2190109	622762 303 306 227893 20.43 42.400006599076 10 2 54 193 6699
vector 2190110  Network.dyn_peer[12]  lookupStabilitySig:vector  ETV
2190110	623065 447 306 227893 20.43 42.400006599076 10 0.11111110448837 0.97690531238914 7.6135456226766 6.5271754868183
vector 2190111  Network.dyn_peer[12]  lookupTimeSig:vector  ETV
2190111	623512 315 306 227893 20.43 42.400006599076 10 0.3 5.5 20.2 70.88
vector 2190199  Network.dyn_peer[42]  lookupHopsSig:vector  ETV
2190199	665138 516 312 654743 20.43 68.870798488863 16 0 86 403 17107
vector 2190200  Network.dyn_peer[42]  lookupStabilitySig:vector  ETV
2190200	665654 727 312 654743 20.43 68.870798488863 16 0.39285713434219 1 14.394156455877 13.336858894356
vector 2190201  Network.dyn_peer[42]  lookupTimeSig:vector  ETV
2190201	666381 529 312 654743 20.43 68.870798488863 16 0 8.7 41.8 179.28
vector 2190208  Network.dyn_peer[45]  lookupHopsSig:vector  ETV
2190208	669275 305 341 303954 20.46 46.357390109859 10 0 61 219 7815
vector 2190209  Network.dyn_peer[45]  lookupStabilitySig:vector  ETV
2190209	669580 419 341 303954 20.46 46.357390109859 10 0 1 8.0409141071141 7.2893805484899
vector 2190210  Network.dyn_peer[45]  lookupTimeSig:vector  ETV
2190210	669999 313 341 303954 20.46 46.357390109859 10 0 6.2 22.8 82.62
vector 2190121  Network.dyn_peer[16]  lookupHopsSig:vector  ETV
2190121	628155 404 350 418542 20.47 51.703276530085 13 3 45 255 7429
vector 2190122  Network.dyn_peer[16]  lookupStabilitySig:vector  ETV
2190122	628559 564 350 418542 20.47 51.703276530085 13 0 0.98665620107204 10.384681287222 9.3083939824635
vector 2190123  Network.dyn_peer[16]  lookupTimeSig:vector  ETV
2190123	629123 414 350 418542 20.47 51.703276530085 13 0.3 4.6 26.7 79.45
vector 2190151  Network.dyn_peer[26]  lookupHopsSig:vector  ETV
2190151	642767 436 354 310055 20.47 46.659525360239 14 2 41 229 5315
vector 2190152  Network.dyn_peer[26]  lookupStabilitySig:vector  ETV
2190152	643203 618 354 310055 20.47 46.659525360239 14 0 0.984862819314 11.58545926027 10.530726164399
vector 2190153  Network.dyn_peer[26]  lookupTimeSig:vector  ETV
2190153	643821 453 354 310055 20.47 46.659525360239 14 0.2 4.2 24.2 57.82
vector 2190157  Network.dyn_peer[28]  lookupHopsSig:vector  ETV
2190157	645919 346 375 145226 20.49 37.426071397565 11 2 38 159 3999
vector 2190158  Network.dyn_peer[28]  lookupStabilitySig:vector  ETV
2190158	646265 506 375 145226 20.49 37.426071397565 11 0.27777779102325 0.99047619011253 9.1987202744931 8.1842130816336
vector 2190159  Network.dyn_peer[28]  lookupTimeSig:vector  ETV
2190159	646771 363 375 145226 20.49 37.426071397565 11 0.2 3.9 16.9 43.23
vector 2190187  Network.dyn_peer[38]  lookupHopsSig:vector  ETV
2190187	659229 475 379 663782 20.49 70.530882114677 15 1 88 377 16463
vector 2190188  Network.dyn_peer[38]  lookupStabilitySig:vector  ETV
2190188	659704 676 379 663782 20.49 70.530882114677 15 0.5 0.99854014604352 13.397495783633 12.323909907788
vector 2190189  Network.dyn_peer[38]  lookupTimeSig:vector  ETV
2190189	660380 494 379 663782 20.49 70.530882114677 15 0.1 8.9 39.1 172.29
vector 2190160  Network.dyn_peer[29]  lookupHopsSig:vector  ETV
2190160	647134 238 392 176521 20.5 39.40329086157 8 2 44 162 5128
vector 2190161  Network.dyn_peer[29]  lookupStabilitySig:vector  ETV
2190161	647372 350 392 176521 20.5 39.40329086157 8 0.23076921701431 0.96764705702662 6.1661864370108 5.2053181920597
vector 2190162  Network.dyn_peer[29]  lookupTimeSig:vector  ETV
2190162	647722 245 392 176521 20.5 39.40329086157 8 0.2 4.5 16.9 54.55
vector 2190163  Network.dyn_peer[30]  lookupHopsSig:vector  ETV
2190163	647967 375 404 192234 20.51 40.352490265603 12 2 30 135 2615
vector 2190164  Network.dyn_peer[30]  lookupStabilitySig:vector  ETV
2190164	648342 536 404 192234 20.51 40.352490265603 12 0.5 0.97647058777511 10.103264212608 8.8346286022844
vector 2190165  Network.dyn_peer[30]  lookupTimeSig:vector  ETV
2190165	648878 393 404 192234 20.51 40.352490265603 12 0.2 3.1 14.6 28.92
vector 2190115  Network.dyn_peer[14]  lookupHopsSig:vector  ETV
2190115	624994 570 444 592254 20.55 61.878403238831 18 2 57 345 10177
vector 2190116  Network.dyn_peer[14]  lookupStabilitySig:vector  ETV
2190116	625564 828 444 592254 20.55 61.878403238831 18 0.19999998807907 0.99847715732176 15.948477315833 14.929858601806
vector 2190117  Network.dyn_peer[14]  lookupTimeSig:vector  ETV
2190117	626392 592 444 592254 20.55 61.878403238831 18 0.3 5.8 36.2 108.76
vector 2190181  Network.dyn_peer[36]  lookupHopsSig:vector  ETV
2190181	656877 438 465 626270 20.57 65.037601424181 14 1 89 339 15747
vector 2190182  Network.dyn_peer[36]  lookupStabilitySig:vector  ETV
2190182	657315 627 465 626270 20.57 65.037601424181 14 0.33333331346512 0.99382716044784 12.035419039428 10.838286441519
vector 2190183  Network.dyn_peer[36]  lookupTimeSig:vector  ETV
2190183	657942 454 465 626270 20.57 65.037601424181 14 0.2 9 35.2 164.34
vector 2190124  Network.dyn_peer[17]  lookupHopsSig:vector  ETV
2190124	629537 272 478 391958 20.58 50.475961719227 9 2 60 205 7775
vector 2190125  Network.dyn_peer[17]  lookupStabilitySig:vector  ETV
2190125	629809 389 478 391958 20.58 50.475961719227 9 0.19999998807907 0.9914285717532 7.2413466321304 6.5503841266542
vector 2190126  Network.dyn_peer[17]  lookupTimeSig:vector  ETV
2190126	630198 284 478 391958 20.58 50.475961719227 9 0.3 6.1 21.3 81.85
vector 2190127  Network.dyn_peer[18]  lookupHopsSig:vector  ETV
2190127	630482 473 489 629093 20.59 65.351444228015 15 3 43 310 8656
vector 2190128  Network.dyn_peer[18]  lookupStabilitySig:vector  ETV
2190128	630955 674 489 629093 20.59 65.351444228015 15 0.19999998807907 0.98967368900776 12.818619018421 11.663670471974
vector 2190129  Network.dyn_peer[18]  lookupTimeSig:vector  ETV
2190129	631629 492 489 629093 20.59 65.351444228015 15 0.4 4.4 32.4 92.82
vector 2190079  Network.dyn_peer[2]  lookupHopsSig:vector  ETV
2190079	608692 404 530 644523 20.63 67.309379995324 13 4 100 328 16674
vector 2190080  Network.dyn_peer[2]  lookupStabilitySig:vector  ETV
2190080	609096 575 530 644523 20.63 67.309379995324 13 0 0.98978170007467 10.380707089789 9.3644115045384
vector 2190081  Network.dyn_peer[2]  lookupTimeSig:vector  ETV
2190081	609671 419 530 644523 20.63 67.309379995324 13 0.5 10.1 34 173.3
vector 2190136  Network.dyn_peer[21]  lookupHopsSig:vector  ETV
2190136	634703 342 628 420026 20.72 51.773667447455 11 3 38 211 5211
vector 2190137  Network.dyn_peer[21]  lookupStabilitySig:vector  ETV
2190137	635045 496 628 420026 20.72 51.773667447455 11 0.16666668653488 0.98292843066156 9.4348348379135 8.7460426183836
vector 2190138  Network.dyn_peer[21]  lookupTimeSig:vector  ETV
2190138	635541 351 628 420026 20.72 51.773667447455 11 0.4 3.9 22.1 56.33
vector 2190166  Network.dyn_peer[31]  lookupHopsSig:vector  ETV
2190166	649271 405 632 475981 20.72 54.528282094242 13 1 48 235 7069
vector 2190167  Network.dyn_peer[31]  lookupStabilitySig:vector  ETV
2190167	649676 579 632 475981 20.72 54.528282094242 13 0.33333331346512 0.99429386574775 10.932460700162 9.7266523139203
vector 2190168  Network.dyn_peer[31]  lookupTimeSig:vector  ETV
2190168	650255 423 632 475981 20.72 54.528282094242 13 0.2 4.9 24.7 75.43
vector 2190241  Network.dyn_peer[56]  lookupHopsSig:vector  ETV
2190241	685659 376 695 479138 20.77 54.693617174557 12 2 48 216 5526
vector 2190242  Network.dyn_peer[56]  lookupStabilitySig:vector  ETV
2190242	686035 544 695 479138 20.77 54.693617174557 12 0.4230769276619 0.9947704821825 10.556413510814 9.6211403954434
vector 2190243  Network.dyn_peer[56]  lookupTimeSig:vector  ETV
2190243	686579 389 695 479138 20.77 54.693617174557 12 0.2 4.9 22.7 59.65
vector 2190130  Network.dyn_peer[19]  lookupHopsSig:vector  ETV
2190130	632121 304 731 544077 20.8 58.44812597824 10 5 55 213 6965
vector 2190131  Network.dyn_peer[19]  lookupStabilitySig:vector  ETV
2190131	632425 432 731 544077 20.8 58.44812597824 10 0 0.98929471056908 7.6853325637057 6.9404863047439
vector 2190132  Network.dyn_peer[19]  lookupTimeSig:vector  ETV
2190132	632857 315 731 544077 20.8 58.44812597824 10 0.6 5.6 22.2 73.88
vector 2190229  Network.dyn_peer[52]  lookupHopsSig:vector  ETV
2190229	679741 468 769 603869 20.83 62.853849674745 15 3 36 256 5934
vector 2190230  Network.dyn_peer[52]  lookupStabilitySig:vector  ETV
2190230	680209 669 769 603869 20.83 62.853849674745 15 0.38461536169052 0.99125364422798 13.174264514819 12.067539805406
vector 2190231  Network.dyn_peer[52]  lookupTimeSig:vector  ETV
2190231	680878 486 769 603869 20.83 62.853849674745 15 0.3 3.7 27 64.54
vector 2190148  Network.dyn_peer[25]  lookupHopsSig:vector  ETV
2190148	641501 368 809 279720 20.86 45.146576872577 12 2 35 158 3272
vector 2190149  Network.dyn_peer[25]  lookupStabilitySig:vector  ETV
2190149	641869 513 809 279720 20.86 45.146576872577 12 0 0.99435028247535 9.7527286466211 8.8592783887589
vector 2190150  Network.dyn_peer[25]  lookupTimeSig:vector  ETV
2190150	642382 385 809 279720 20.86 45.146576872577 12 0.3 3.6 16.9 35.87
vector 2190286  Network.dyn_peer[71]  lookupHopsSig:vector  ETV
2190286	706403 603 889 642487 20.92 67.028224248723 19 2 57 398 12780
vector 2190287  Network.dyn_peer[71]  lookupStabilitySig:vector  ETV
2190287	707006 870 889 642487 20.92 67.028224248723 19 0.59999999403954 0.98993808031082 17.173988553695 15.806828498432
vector 2190288  Network.dyn_peer[71]  lookupTimeSig:vector  ETV
2190288	707876 625 889 642487 20.92 67.028224248723 19 0.2 5.8 41.6 135.9
vector 2190169  Network.dyn_peer[32]  lookupHopsSig:vector  ETV
2190169	650678 276 906 300493 20.93 46.187401677955 9 4 39 188 5460
vector 2190170  Network.dyn_peer[32]  lookupStabilitySig:vector  ETV
2190170	650954 388 906 300493 20.93 46.187401677955 9 0 0.9858223060146 7.2734281681478 6.723398428135
vector 2190171  Network.dyn_peer[32]  lookupTimeSig:vector  ETV
2190171	651342 284 906 300493 20.93 46.187401677955 9 0.5 4 19.6 58.32
vector 2190202  Network.dyn_peer[43]  lookupHopsSig:vector  ETV
2190202	666910 269 926 141554 20.94 37.181550638175 9 3 45 146 4026
vector 2190203  Network.dyn_peer[43]  lookupStabilitySig:vector  ETV
2190203	667179 398 926 141554 20.94 37.181550638175 9 0.16666668653488 0.98005698062479 7.0585448499769 6.0864063646676
vector 2190204  Network.dyn_peer[43]  lookupTimeSig:vector  ETV
2190204	667577 280 926 141554 20.94 37.181550638175 9 0.4 4.6 15.4 43.16
vector 2190322  Network.dyn_peer[83]  lookupHopsSig:vector  ETV
2190322	723197 369 930 437547 20.94 52.605694537074 12 1 55 235 8667
vector 2190323  Network.dyn_peer[83]  lookupStabilitySig:vector  ETV
2190323	723566 542 930 437547 20.94 52.605694537074 12 0.66666665673256 0.99398395745084 10.732611168642 9.7198715084356
vector 2190324  Network.dyn_peer[83]  lookupTimeSig:vector  ETV
2190324	724108 384 930 437547 20.94 52.605694537074 12 0.1 5.6 24.6 91.46
vector 2190205  Network.dyn_peer[44]  lookupHopsSig:vector  ETV
2190205	667857 407 949 629011 20.95 65.34280289331 13 3 40 273 7779
vector 2190206  Network.dyn_peer[44]  lookupStabilitySig:vector  ETV
2190206	668264 590 949 629011 20.95 65.34280289331 13 0.16666668653488 0.99813084106427 11.035826395149 10.013065737842
vector 2190207  Network.dyn_peer[44]  lookupTimeSig:vector  ETV
2190207	668854 421 949 629011 20.95 65.34280289331 13 0.4 4.1 28.5 83.27
vector 2190268  Network.dyn_peer[65]  lookupHopsSig:vector  ETV
2190268	698535 363 964 184783 20.96 39.90917418703 12 3 32 147 3019
vector 2190269  Network.dyn_peer[65]  lookupStabilitySig:vector  ETV
2190269	698898 525 964 184783 20.96 39.90917418703 12 0.5 0.98966942168772 10.294566167519 9.1225858875648
vector 2190270  Network.dyn_peer[65]  lookupTimeSig:vector  ETV
2190270	699423 378 964 184783 20.96 39.90917418703 12 0.3 3.3 15.8 33.18
vector 2190298  Network.dyn_peer[75]  lookupHopsSig:vector  ETV
2190298	712293 302 968 253988 20.96 43.817746818884 10 2 62 169 5755
vector 2190299  Network.dyn_peer[75]  lookupStabilitySig:vector  ETV
2190299	712595 445 968 253988 20.96 43.817746818884 10 0.5294117629528 0.98780487850308 8.5059090126306 7.4502784802571
vector 2190300  Network.dyn_peer[75]  lookupTimeSig:vector  ETV
2190300	713040 312 968 253988 20.96 43.817746818884 10 0.2 6.3 17.8 60.98
vector 2190334  Network.dyn_peer[87]  lookupHopsSig:vector  ETV
2190334	728842 537 998 604904 20.98 62.946143204252 17 1 37 320 8262
vector 2190335  Network.dyn_peer[87]  lookupStabilitySig:vector  ETV
2190335	729379 777 998 604904 20.98 62.946143204252 17 0.5294117629528 0.99491955991834 15.488767151255 14.320028074458
vector 2190336  Network.dyn_peer[87]  lookupTimeSig:vector  ETV
2190336	730156 559 998 604904 20.98 62.946143204252 17 0.1 3.8 33.6 89.16
vector 2190343  Network.dyn_peer[90]  lookupHopsSig:vector  ETV
2190343	734342 337 1042 479144 21.01 54.693899092804 11 1 85 199 9281
vector 2190344  Network.dyn_peer[90]  lookupStabilitySig:vector  ETV
2190344	734679 483 1042 479144 21.01 54.693899092804 11 0.5 0.99481865298003 9.5622962741181 8.5198485516958
vector 2190345  Network.dyn_peer[90]  lookupTimeSig:vector  ETV
2190345	735162 353 1042 479144 21.01 54.693899092804 11 0.1 8.6 20.9 96.87
vector 2190259  Network.dyn_peer[62]  lookupHopsSig:vector  ETV
2190259	694175 572 1073 610764 21.03 63.477024029659 18 1 55 374 12248
vector 2190260  Network.dyn_peer[62]  lookupStabilitySig:vector  ETV
2190260	694747 814 1073 610764 21.03 63.477024029659 18 0.33333331346512 0.99426784785464 16.090632274747 14.946799106681
vector 2190261  Network.dyn_peer[62]  lookupTimeSig:vector  ETV
2190261	695561 592 1073 610764 21.03 63.477024029659 18 0.2 5.6 39.1 130.05
vector 2190175  Network.dyn_peer[34]  lookupHopsSig:vector  ETV
2190175	653015 711 1110 680123 21.05 74.988765230914 22 4 37 430 10978
vector 2190176  Network.dyn_peer[34]  lookupStabilitySig:vector  ETV
2190176	653726 1022 1110 680123 21.05 74.988765230914 22 -0.16666662693024 0.99274124670774 19.554144781083 18.742343186281
vector 2190177  Network.dyn_peer[34]  lookupTimeSig:vector  ETV
2190177	654748 735 1110 680123 21.05 74.988765230914 22 0.5 3.8 45.1 118.45
vector 2190211  Network.dyn_peer[46]  lookupHopsSig:vector  ETV
2190211	670312 480 1140 415585 21.07 51.56944486143 15 2 44 256 7808
vector 2190212  Network.dyn_peer[46]  lookupStabilitySig:vector  ETV
2190212	670792 681 1140 415585 21.07 51.56944486143 15 0 0.99641577061266 12.731828056276 11.729982363281
vector 2190213  Network.dyn_peer[46]  lookupTimeSig:vector  ETV
2190213	671473 500 1140 415585 21.07 51.56944486143 15 0.3 4.5 27 83.22
vector 2190331  Network.dyn_peer[86]  lookupHopsSig:vector  ETV
2190331	726850 573 1144 644170 21.07 67.261734536656 18 2 82 405 15863
vector 2190332  Network.dyn_peer[86]  lookupStabilitySig:vector  ETV
2190332	727423 830 1144 644170 21.07 67.261734536656 18 0.66666665673256 0.98963133618236 16.572860863991 15.471690705001
vector 2190333  Network.dyn_peer[86]  lookupTimeSig:vector  ETV
2190333	728253 589 1144 644170 21.07 67.261734536656 18 0.2 8.3 42.2 166.86
vector 2190184  Network.dyn_peer[37]  lookupHopsSig:vector  ETV
2190184	658396 237 1165 102124 21.08 34.390225441013 8 7 22 103 1573
vector 2190185  Network.dyn_peer[37]  lookupStabilitySig:vector  ETV
2190185	658633 353 1165 102124 21.08 34.390225441013 8 -0.16666662693024 0.98192771151662 5.9701209943742 5.528542952092
vector 2190186  Network.dyn_peer[37]  lookupTimeSig:vector  ETV
2190186	658986 243 1165 102124 21.08 34.390225441013 8 0.7 2.3 11 17.72
vector 2190247  Network.dyn_peer[58]  lookupHopsSig:vector  ETV
2190247	688714 641 1179 621729 21.09 64.552731014627 20 4 42 363 9037
vector 2190248  Network.dyn_peer[58]  lookupStabilitySig:vector  ETV
2190248	689355 927 1179 621729 21.09 64.552731014627 20 0.16666668653488 0.99770536948927 17.888885789784 16.709937318225
vector 2190249  Network.dyn_peer[58]  lookupTimeSig:vector  ETV
2190249	690282 665 1179 621729 21.09 64.552731014627 20 0.5 4.3 38.2 97.72
vector 2190250  Network.dyn_peer[59]  lookupHopsSig:vector  ETV
2190250	690947 303 1200 299276 21.1 46.128135490413 10 3 59 206 7566
vector 2190251  Network.dyn_peer[59]  lookupStabilitySig:vector  ETV
2190251	691250 445 1200 299276 21.1 46.128135490413 10 0.16666668653488 0.97888513468206 8.1129302252084 7.1273888190666
vector 2190252  Network.dyn_peer[59]  lookupTimeSig:vector  ETV
2190252	691695 315 1200 299276 21.1 46.128135490413 10 0.4 6 21.5 79.77
vector 2190196  Network.dyn_peer[41]  lookupHopsSig:vector  ETV
2190196	664075 304 1232 458908 21.12 53.654153115839 10 1 55 188 6768
vector 2190197  Network.dyn_peer[41]  lookupStabilitySig:vector  ETV
2190197	664379 440 1232 458908 21.12 53.654153115839 10 -0.16666662693024 0.98908429313451 7.9684276664629 7.4906612869878
vector 2190198  Network.dyn_peer[41]  lookupTimeSig:vector  ETV
2190198	664819 319 1232 458908 21.12 53.654153115839 10 0.2 5.6 19.7 71.39
vector 2190214  Network.dyn_peer[47]  lookupHopsSig:vector  ETV
2190214	671973 542 1338 566450 21.18 59.94049801084 17 5 35 283 6463
vector 2190215  Network.dyn_peer[47]  lookupStabilitySig:vector  ETV
2190215	672515 773 1338 566450 21.18 59.94049801084 17 -0.16666662693024 0.99230313813314 14.865403579082 14.300316519328
vector 2190216  Network.dyn_peer[47]  lookupTimeSig:vector  ETV
2190216	673288 562 1338 566450 21.18 59.94049801084 17 0.6 3.6 29.9 70.31
vector 2190394  Network.dyn_peer[107]  lookupHopsSig:vector  ETV
2190394	757288 602 1342 677748 21.18 74.156789784898 19 1 173 475 38417
vector 2190395  Network.dyn_peer[107]  lookupStabilitySig:vector  ETV
2190395	757890 872 1342 677748 21.18 74.156789784898 19 0.61538460850716 0.99266055040061 17.531354011968 16.335406449193
vector 2190396  Network.dyn_peer[107]  lookupTimeSig:vector  ETV
2190396	758762 627 1342 677748 21.18 74.156789784898 19 0.1 17.4 49.3 393.83
vector 2190337  Network.dyn_peer[88]  lookupHopsSig:vector  ETV
2190337	730715 533 1360 669296 21.19 71.761915105799 17 1 96 306 15890
vector 2190338  Network.dyn_peer[88]  lookupStabilitySig:vector  ETV
2190338	731248 765 1360 669296 21.19 71.761915105799 17 0.5 0.99742836155929 15.574057729216 14.557175382132
vector 2190339  Network.dyn_peer[88]  lookupTimeSig:vector  ETV
2190339	732013 560 1360 669296 21.19 71.761915105799 17 0.2 9.7 32.2 165.12
vector 2190313  Network.dyn_peer[80]  lookupHopsSig:vector  ETV
2190313	718336 404 1396 349338 21.21 48.53141353715 13 4 59 253 7627
vector 2190314  Network.dyn_peer[80]  lookupStabilitySig:vector  ETV
2190314	718740 590 1396 349338 21.21 48.53141353715 13 0.33333331346512 0.98537005204707 11.096646306105 9.874242589751
vector 2190315  Network.dyn_peer[80]  lookupTimeSig:vector  ETV
2190315	719330 417 1396 349338 21.21 48.53141353715 13 0.4 6 26.5 81.37
vector 2190265  Network.dyn_peer[64]  lookupHopsSig:vector  ETV
2190265	697803 207 1470 249639 21.25 43.587363997055 7 6 50 119 3491
vector 2190266  Network.dyn_peer[64]  lookupStabilitySig:vector  ETV
2190266	698010 308 1470 249639 21.25 43.587363997055 7 0.14285713434219 0.97936507873237 5.3485471475869 4.6171466510456
vector 2190267  Network.dyn_peer[64]  lookupTimeSig:vector  ETV
2190267	698318 217 1470 249639 21.25 43.587363997055 7 0.6 5.1 12.5 37.23
vector 2190244  Network.dyn_peer[57]  lookupHopsSig:vector  ETV
2190244	686968 506 1523 613188 21.28 63.705580280385 16 6 58 366 11410
vector 2190245  Network.dyn_peer[57]  lookupStabilitySig:vector  ETV
2190245	687474 717 1523 613188 21.28 63.705580280385 16 0 0.99018232803792 14.063803663477 13.296507266526
vector 2190246  Network.dyn_peer[57]  lookupTimeSig:vector  ETV
2190246	688191 523 1523 613188 21.28 63.705580280385 16 0.7 5.9 38.1 121.43
vector 2190217  Network.dyn_peer[48]  lookupHopsSig:vector  ETV
2190217	673850 272 1541 399907 21.29 50.837409127586 9 3 76 221 10259
vector 2190218  Network.dyn_peer[48]  lookupStabilitySig:vector  ETV
2190218	674122 401 1541 399907 21.29 50.837409127586 9 -0.14285719394684 0.97829716280103 7.0060155540705 6.4655256891357
vector 2190219  Network.dyn_peer[48]  lookupTimeSig:vector  ETV
2190219	674523 283 1541 399907 21.29 50.837409127586 9 0.4 7.7 22.9 106.93
vector 2190283  Network.dyn_peer[70]  lookupHopsSig:vector  ETV
2190283	705210 342 1575 296445 21.31 45.98735102323 11 5 49 210 6326
vector 2190284  Network.dyn_peer[70]  lookupStabilitySig:vector  ETV