file 4631206 1369933130                                         
version 2
run Stability2-83-20130528-01:41:13-24168
attr configname Stability2
attr datetime 20130528-01:41:13
attr experiment Stability2
attr inifile omnetpp.ini
attr iterationvars $0=400
attr iterationvars2 "$0=400, $repetition=3"
attr measurement $0=400
attr network Network
attr processid 24168
attr repetition 3
attr replication #3
attr resultdir results
attr runnumber 83
attr seedset 83
vector 2520083  Network.churner  inGoingSizeSig:vector  ETV
2520083	4531412 99794 9 621152 20 60 4001 0 1906 4372160 5884010470
vector 2490092  Network.dyn_peer[3]  lookupHopsSig:vector  ETV
2490092	813635 331 25 567111 20.04 57.997052660465 11 0 87 250 12822
vector 2490093  Network.dyn_peer[3]  lookupStabilitySig:vector  ETV
2490093	813966 462 25 567111 20.04 57.997052660465 11 0.59999999403954 1 9.2924708742648 8.054008331602
vector 2490094  Network.dyn_peer[3]  lookupTimeSig:vector  ETV
2490094	814428 343 25 567111 20.04 57.997052660465 11 0 8.8 26 133.32
vector 2490101  Network.dyn_peer[6]  lookupHopsSig:vector  ETV
2490101	818212 368 38 527743 20.07 56.490739842452 12 0 40 213 5839
vector 2490102  Network.dyn_peer[6]  lookupStabilitySig:vector  ETV
2490102	818580 514 38 527743 20.07 56.490739842452 12 0.16666668653488 1 10.017613698728 8.9680605213803
vector 2490103  Network.dyn_peer[6]  lookupTimeSig:vector  ETV
2490103	819094 376 38 527743 20.07 56.490739842452 12 0 4.1 22.4 62.76
vector 2490110  Network.dyn_peer[9]  lookupHopsSig:vector  ETV
2490110	822489 570 51 952185 20.1 75.624790091062 18 0 98 473 22945
vector 2490111  Network.dyn_peer[9]  lookupStabilitySig:vector  ETV
2490111	823059 810 51 952185 20.1 75.624790091062 18 0.36842107772827 1 16.248472296167 15.146394675428
vector 2490112  Network.dyn_peer[9]  lookupTimeSig:vector  ETV
2490112	823869 589 51 952185 20.1 75.624790091062 18 0 9.9 49 239.08
vector 2490086  Network.dyn_peer[1]  lookupHopsSig:vector  ETV
2490086	810871 440 61 768524 20.12 65.768057139716 14 1 85 390 23788
vector 2490087  Network.dyn_peer[1]  lookupStabilitySig:vector  ETV
2490087	811311 641 61 768524 20.12 65.768057139716 14 0.74647888541222 0.99201703071594 12.117207583971 10.581321751376
vector 2490088  Network.dyn_peer[1]  lookupTimeSig:vector  ETV
2490088	811952 460 61 768524 20.12 65.768057139716 14 0.1 8.6 40.3 245.79
vector 2490095  Network.dyn_peer[4]  lookupHopsSig:vector  ETV
2490095	814771 444 80 711485 20.15 63.421013324149 14 1 81 331 15901
vector 2490096  Network.dyn_peer[4]  lookupStabilitySig:vector  ETV
2490096	815215 646 80 711485 20.15 63.421013324149 14 0.16666668653488 0.98934380244464 11.863265689462 10.683997665543
vector 2490097  Network.dyn_peer[4]  lookupTimeSig:vector  ETV
2490097	815861 458 80 711485 20.15 63.421013324149 14 0.1 8.2 34.4 165.74
vector 2490104  Network.dyn_peer[7]  lookupHopsSig:vector  ETV
2490104	819470 532 97 965707 20.18 76.647557480962 17 1 95 430 25156
vector 2490105  Network.dyn_peer[7]  lookupStabilitySig:vector  ETV
2490105	820002 775 97 965707 20.18 76.647557480962 17 0.66666665673256 0.99167966749519 15.599635452963 14.445256125434
vector 2490106  Network.dyn_peer[7]  lookupTimeSig:vector  ETV
2490106	820777 554 97 965707 20.18 76.647557480962 17 0.1 9.6 44.6 260.3
vector 2490083  Network.dyn_peer[0]  lookupHopsSig:vector  ETV
2490083	809125 504 114 814605 20.21 67.820347910909 16 2 60 376 14278
vector 2490084  Network.dyn_peer[0]  lookupStabilitySig:vector  ETV
2490084	809629 721 114 814605 20.21 67.820347910909 16 0.25 0.99395770393312 13.797932226211 12.518066831972
vector 2490085  Network.dyn_peer[0]  lookupTimeSig:vector  ETV
2490085	810350 521 114 814605 20.21 67.820347910909 16 0.2 6.1 39.1 150.41
vector 2490113  Network.dyn_peer[10]  lookupHopsSig:vector  ETV
2490113	824458 364 118 759143 20.21 65.370615197578 12 1 92 277 14411
vector 2490114  Network.dyn_peer[10]  lookupStabilitySig:vector  ETV
2490114	824822 525 118 759143 20.21 65.370615197578 12 0.5 0.99038021080196 10.064269683324 8.7256240005158
vector 2490115  Network.dyn_peer[10]  lookupTimeSig:vector  ETV
2490115	825347 377 118 759143 20.21 65.370615197578 12 0.1 9.3 28.8 149.74
vector 2490089  Network.dyn_peer[2]  lookupHopsSig:vector  ETV
2490089	812412 354 131 829904 20.23 68.544714482208 11 2 73 306 12284
vector 2490090  Network.dyn_peer[2]  lookupStabilitySig:vector  ETV
2490090	812766 507 131 829904 20.23 68.544714482208 11 0.45238095521927 0.99285982735455 9.5695168515667 8.6422671821669
vector 2490091  Network.dyn_peer[2]  lookupTimeSig:vector  ETV
2490091	813273 362 131 829904 20.23 68.544714482208 11 0.2 7.4 31.6 129.02
vector 2490098  Network.dyn_peer[5]  lookupHopsSig:vector  ETV
2490098	816319 544 152 1052359 20.26 87.08888019108 17 2 114 537 36525
vector 2490099  Network.dyn_peer[5]  lookupStabilitySig:vector  ETV
2490099	816863 786 152 1052359 20.26 87.08888019108 17 0.33333331346512 0.99374999990687 14.799080329482 13.403773496233
vector 2490100  Network.dyn_peer[5]  lookupTimeSig:vector  ETV
2490100	817649 563 152 1052359 20.26 87.08888019108 17 0.2 11.5 55.3 376.11
vector 2490128  Network.dyn_peer[15]  lookupHopsSig:vector  ETV
2490128	831236 369 156 508433 20.26 55.734485347464 12 1 69 222 9794
vector 2490129  Network.dyn_peer[15]  lookupStabilitySig:vector  ETV
2490129	831605 543 156 508433 20.26 55.734485347464 12 0.33333331346512 0.99712849967182 10.486645055003 9.5670147717026
vector 2490130  Network.dyn_peer[15]  lookupTimeSig:vector  ETV
2490130	832148 382 156 508433 20.26 55.734485347464 12 0.1 7 23.3 102.47
vector 2490134  Network.dyn_peer[17]  lookupHopsSig:vector  ETV
2490134	833467 465 172 289318 20.28 45.984920416075 15 1 28 175 3507
vector 2490135  Network.dyn_peer[17]  lookupStabilitySig:vector  ETV
2490135	833932 682 172 289318 20.28 45.984920416075 15 0.58333334326744 0.99676724127494 13.558306154562 12.469169142219
vector 2490136  Network.dyn_peer[17]  lookupTimeSig:vector  ETV
2490136	834614 488 172 289318 20.28 45.984920416075 15 0.1 2.9 18.9 38.69
vector 2490140  Network.dyn_peer[19]  lookupHopsSig:vector  ETV
2490140	836639 558 187 517644 20.3 56.097718194666 18 1 63 326 12384
vector 2490141  Network.dyn_peer[19]  lookupStabilitySig:vector  ETV
2490141	837197 805 187 517644 20.3 56.097718194666 18 0.5 0.99781659385189 16.016078216024 14.616017460879
vector 2490142  Network.dyn_peer[19]  lookupTimeSig:vector  ETV
2490142	838002 584 187 517644 20.3 56.097718194666 18 0.1 6.4 34.3 130.51
vector 2490122  Network.dyn_peer[13]  lookupHopsSig:vector  ETV
2490122	828221 426 217 839124 20.34 68.992853218302 14 1 87 277 13635
vector 2490123  Network.dyn_peer[13]  lookupStabilitySig:vector  ETV
2490123	828647 628 217 839124 20.34 68.992853218302 14 0.59999999403954 0.98545861337334 12.26373085659 10.920810206737
vector 2490124  Network.dyn_peer[13]  lookupTimeSig:vector  ETV
2490124	829275 447 217 839124 20.34 68.992853218302 14 0.2 8.8 29 141.98
vector 2490158  Network.dyn_peer[25]  lookupHopsSig:vector  ETV
2490158	845948 428 235 651728 20.36 61.131590693797 14 1 51 221 7009
vector 2490159  Network.dyn_peer[25]  lookupStabilitySig:vector  ETV
2490159	846376 608 235 651728 20.36 61.131590693797 14 0.5 0.99141630902886 12.360584393144 11.168020574046
vector 2490160  Network.dyn_peer[25]  lookupTimeSig:vector  ETV
2490160	846984 448 235 651728 20.36 61.131590693797 14 0.1 5.2 23.4 74.62
vector 2490131  Network.dyn_peer[16]  lookupHopsSig:vector  ETV
2490131	832530 264 246 102951 20.37 34.621859927341 9 2 21 77 1025
vector 2490132  Network.dyn_peer[16]  lookupStabilitySig:vector  ETV
2490132	832794 396 246 102951 20.37 34.621859927341 9 0.42857140302658 0.97027971968055 7.1991599611938 6.0366372895954
vector 2490133  Network.dyn_peer[16]  lookupTimeSig:vector  ETV
2490133	833190 277 246 102951 20.37 34.621859927341 9 0.2 2.2 8.5 11.83
vector 2490164  Network.dyn_peer[27]  lookupHopsSig:vector  ETV
2490164	849626 270 258 189910 20.38 40.566194977026 9 1 57 175 6067
vector 2490165  Network.dyn_peer[27]  lookupStabilitySig:vector  ETV
2490165	849896 397 258 189910 20.38 40.566194977026 9 0.34782606363297 0.99227799242362 7.7194055332802 6.9382169835985
vector 2490166  Network.dyn_peer[27]  lookupTimeSig:vector  ETV
2490166	850293 279 258 189910 20.38 40.566194977026 9 0.1 5.8 18.3 64.23
vector 2490167  Network.dyn_peer[28]  lookupHopsSig:vector  ETV
2490167	850572 470 271 637466 20.39 60.601481339143 15 1 72 348 15522
vector 2490168  Network.dyn_peer[28]  lookupStabilitySig:vector  ETV
2490168	851042 683 271 637466 20.39 60.601481339143 15 0.38461536169052 0.99519230751321 13.229240929242 11.985390041476
vector 2490169  Network.dyn_peer[28]  lookupTimeSig:vector  ETV
2490169	851725 490 271 637466 20.39 60.601481339143 15 0.1 7.3 36.2 162.3
vector 2490170  Network.dyn_peer[29]  lookupHopsSig:vector  ETV
2490170	852215 371 282 793645 20.4 66.863603022048 12 1 58 337 14727
vector 2490171  Network.dyn_peer[29]  lookupStabilitySig:vector  ETV
2490171	852586 543 282 793645 20.4 66.863603022048 12 0.46153843402863 0.98214285634458 10.475307799876 9.4351444478892
vector 2490172  Network.dyn_peer[29]  lookupTimeSig:vector  ETV
2490172	853129 381 282 793645 20.4 66.863603022048 12 0.1 5.9 34.8 154.1
vector 2490143  Network.dyn_peer[20]  lookupHopsSig:vector  ETV
2490143	838586 340 295 650966 20.41 61.105459253608 11 2 60 245 8435
vector 2490144  Network.dyn_peer[20]  lookupStabilitySig:vector  ETV
2490144	838926 474 295 650966 20.41 61.105459253608 11 0.5 0.98725140281022 9.198841216974 8.0171233126803
vector 2490145  Network.dyn_peer[20]  lookupTimeSig:vector  ETV
2490145	839400 352 295 650966 20.41 61.105459253608 11 0.2 6.1 25.5 89.31
vector 2490119  Network.dyn_peer[12]  lookupHopsSig:vector  ETV
2490119	826694 437 311 553929 20.43 57.49610715297 14 2 84 289 11419
vector 2490120  Network.dyn_peer[12]  lookupStabilitySig:vector  ETV
2490120	827131 637 311 553929 20.43 57.49610715297 14 0.39999997615814 0.99381124274805 12.009652033914 10.80417300773
vector 2490121  Network.dyn_peer[12]  lookupTimeSig:vector  ETV
2490121	827768 453 311 553929 20.43 57.49610715297 14 0.3 8.5 30.2 120.04
vector 2490155  Network.dyn_peer[24]  lookupHopsSig:vector  ETV
2490155	843762 632 330 952211 20.45 75.626393407949 20 1 90 470 22026
vector 2490156  Network.dyn_peer[24]  lookupStabilitySig:vector  ETV
2490156	844394 905 330 952211 20.45 75.626393407949 20 0.59999999403954 0.98876404482871 18.146128840745 16.749813633647
vector 2490157  Network.dyn_peer[24]  lookupTimeSig:vector  ETV
2490157	845299 649 330 952211 20.45 75.626393407949 20 0.2 9.1 48.9 229.81
vector 2490161  Network.dyn_peer[26]  lookupHopsSig:vector  ETV
2490161	847432 633 349 817138 20.47 67.938519941916 20 1 58 382 11610
vector 2490162  Network.dyn_peer[26]  lookupStabilitySig:vector  ETV
2490162	848065 902 349 817138 20.47 67.938519941916 20 0.55555555224419 0.99012123979628 18.165592061356 16.808915887129
vector 2490163  Network.dyn_peer[26]  lookupTimeSig:vector  ETV
2490163	848967 659 349 817138 20.47 67.938519941916 20 0.2 5.9 40.1 123.89
vector 2490107  Network.dyn_peer[8]  lookupHopsSig:vector  ETV
2490107	821331 337 371 457832 20.49 53.692401683753 11 1 79 322 17040
vector 2490108  Network.dyn_peer[8]  lookupStabilitySig:vector  ETV
2490108	821668 475 371 457832 20.49 53.692401683753 11 0.19999998807907 0.98516320437193 8.8468013443053 7.752367751519
vector 2490109  Network.dyn_peer[8]  lookupTimeSig:vector  ETV
2490109	822143 346 371 457832 20.49 53.692401683753 11 0.2 8 33.2 176.86
vector 2490149  Network.dyn_peer[22]  lookupHopsSig:vector  ETV
2490149	840715 439 405 640846 20.53 60.729978825265 14 3 65 301 10111
vector 2490150  Network.dyn_peer[22]  lookupStabilitySig:vector  ETV
2490150	841154 636 405 640846 20.53 60.729978825265 14 0.39999997615814 0.99112271517515 12.108334179036 10.922589693088
vector 2490151  Network.dyn_peer[22]  lookupTimeSig:vector  ETV
2490151	841790 457 405 640846 20.53 60.729978825265 14 0.3 6.6 31.4 107.2
vector 2490152  Network.dyn_peer[23]  lookupHopsSig:vector  ETV
2490152	842247 436 417 658667 20.54 61.394903178368 14 1 38 192 4216
vector 2490153  Network.dyn_peer[23]  lookupStabilitySig:vector  ETV
2490153	842683 624 417 658667 20.54 61.394903178368 14 0.39999997615814 0.99449685541913 12.455578287132 11.560223213388
vector 2490154  Network.dyn_peer[23]  lookupTimeSig:vector  ETV
2490154	843307 455 417 658667 20.54 61.394903178368 14 0.2 3.9 20.5 46.07
vector 2490137  Network.dyn_peer[18]  lookupHopsSig:vector  ETV
2490137	835102 442 474 872769 20.59 70.711021095445 14 1 51 330 10516
vector 2490138  Network.dyn_peer[18]  lookupStabilitySig:vector  ETV
2490138	835544 640 474 872769 20.59 70.711021095445 14 0.33333331346512 0.99914965988137 12.358360541286 11.411066776982
vector 2490139  Network.dyn_peer[18]  lookupTimeSig:vector  ETV
2490139	836184 455 474 872769 20.59 70.711021095445 14 0.2 5.2 34.3 111.81
vector 2490116  Network.dyn_peer[11]  lookupHopsSig:vector  ETV
2490116	825724 276 506 184299 20.62 40.227821397284 9 4 63 143 5183
vector 2490117  Network.dyn_peer[11]  lookupStabilitySig:vector  ETV
2490117	826000 406 506 184299 20.62 40.227821397284 9 0.16666668653488 0.98288973420858 7.0507155582309 6.0417889823366
vector 2490118  Network.dyn_peer[11]  lookupTimeSig:vector  ETV
2490118	826406 288 506 184299 20.62 40.227821397284 9 0.5 6.4 15.1 54.67
vector 2490179  Network.dyn_peer[32]  lookupHopsSig:vector  ETV
2490179	857272 491 519 260694 20.63 44.506280065167 16 1 57 221 7229
vector 2490180  Network.dyn_peer[32]  lookupStabilitySig:vector  ETV
2490180	857763 708 519 260694 20.63 44.506280065167 16 0.5 0.98759048618376 14.159718096256 12.745460023599
vector 2490181  Network.dyn_peer[32]  lookupTimeSig:vector  ETV
2490181	858471 514 519 260694 20.63 44.506280065167 16 0.2 5.8 23.6 76.8
vector 2490182  Network.dyn_peer[33]  lookupHopsSig:vector  ETV
2490182	858985 430 533 782301 20.64 66.364168257684 14 1 55 266 9506
vector 2490183  Network.dyn_peer[33]  lookupStabilitySig:vector  ETV
2490183	859415 606 533 782301 20.64 66.364168257684 14 0.5 0.99364322610199 12.311747197062 11.090354639255
vector 2490184  Network.dyn_peer[33]  lookupTimeSig:vector  ETV
2490184	860021 448 533 782301 20.64 66.364168257684 14 0.2 5.6 27.9 100.45
vector 2490185  Network.dyn_peer[34]  lookupHopsSig:vector  ETV
2490185	860469 677 547 1035895 20.65 84.136065203988 21 2 76 531 23073
vector 2490186  Network.dyn_peer[34]  lookupStabilitySig:vector  ETV
2490186	861146 964 547 1035895 20.65 84.136065203988 21 0.48000001907349 0.99882491189055 19.239164831117 18.061233743508
vector 2490187  Network.dyn_peer[34]  lookupTimeSig:vector  ETV
2490187	862110 705 547 1035895 20.65 84.136065203988 21 0.3 7.7 55.1 241.49
vector 2490248  Network.dyn_peer[55]  lookupHopsSig:vector  ETV
2490248	894178 844 561 1077020 20.66 94.891224446367 26 1 112 528 27428
vector 2490249  Network.dyn_peer[55]  lookupStabilitySig:vector  ETV
2490249	895022 1207 561 1077020 20.66 94.891224446367 26 0.5714285671711 0.99734395742416 24.434306463459 23.178619318522
vector 2490250  Network.dyn_peer[55]  lookupTimeSig:vector  ETV
2490250	896229 877 561 1077020 20.66 94.891224446367 26 0.1 11.3 55.3 285.07
vector 2490176  Network.dyn_peer[31]  lookupHopsSig:vector  ETV
2490176	854926 675 631 989775 20.72 78.707034121658 21 2 55 472 16314
vector 2490177  Network.dyn_peer[31]  lookupStabilitySig:vector  ETV
2490177	855601 973 631 989775 20.72 78.707034121658 21 0.33333331346512 0.99556868523359 19.362053981051 18.289815767348
vector 2490178  Network.dyn_peer[31]  lookupTimeSig:vector  ETV
2490178	856574 698 631 989775 20.72 78.707034121658 21 0.3 5.6 49.2 172.7
vector 2490188  Network.dyn_peer[35]  lookupHopsSig:vector  ETV
2490188	862815 600 684 766791 20.76 65.692925163017 19 4 58 400 13476
vector 2490189  Network.dyn_peer[35]  lookupStabilitySig:vector  ETV
2490189	863415 873 684 766791 20.76 65.692925163017 19 0.33333331346512 0.98786898516119 17.061585516669 15.76594480925
vector 2490190  Network.dyn_peer[35]  lookupTimeSig:vector  ETV
2490190	864288 623 684 766791 20.76 65.692925163017 19 0.4 5.9 41.8 142.86
vector 2490191  Network.dyn_peer[36]  lookupHopsSig:vector  ETV
2490191	864911 206 701 139772 20.77 37.369963026255 7 4 65 154 6044
vector 2490192  Network.dyn_peer[36]  lookupStabilitySig:vector  ETV
2490192	865117 296 701 139772 20.77 37.369963026255 7 0.33333331346512 0.93362832069397 5.3746886327863 4.4442145302509
vector 2490193  Network.dyn_peer[36]  lookupTimeSig:vector  ETV
2490193	865413 215 701 139772 20.77 37.369963026255 7 0.4 6.6 16 63.5
vector 2490194  Network.dyn_peer[37]  lookupHopsSig:vector  ETV
2490194	865628 370 718 639936 20.78 60.695911105171 12 4 69 274 10438
vector 2490195  Network.dyn_peer[37]  lookupStabilitySig:vector  ETV
2490195	865998 540 718 639936 20.78 60.695911105171 12 0.33333331346512 0.99528054520488 10.374583359808 9.4229782216242
vector 2490196  Network.dyn_peer[37]  lookupTimeSig:vector  ETV
2490196	866538 382 718 639936 20.78 60.695911105171 12 0.4 7 28.5 109.89
vector 2490197  Network.dyn_peer[38]  lookupHopsSig:vector  ETV
2490197	866920 567 737 633934 20.79 60.470653469846 18 1 81 359 14277
vector 2490198  Network.dyn_peer[38]  lookupStabilitySig:vector  ETV
2490198	867487 816 737 633934 20.79 60.470653469846 18 0.33333331346512 0.99341176450253 16.207402249798 14.99285252856
vector 2490199  Network.dyn_peer[38]  lookupTimeSig:vector  ETV
2490199	868303 586 737 633934 20.79 60.470653469846 18 0.2 8.2 37.6 150.04
vector 2490287  Network.dyn_peer[68]  lookupHopsSig:vector  ETV
2490287	915348 468 741 652105 20.79 61.14781171365 15 1 63 303 11213
vector 2490288  Network.dyn_peer[68]  lookupStabilitySig:vector  ETV
2490288	915816 683 741 652105 20.79 61.14781171365 15 0.64285713434219 0.99314397666603 13.759766641073 12.737269595626
vector 2490289  Network.dyn_peer[68]  lookupTimeSig:vector  ETV
2490289	916499 483 741 652105 20.79 61.14781171365 15 0.1 6.4 31.7 118.31
vector 2490236  Network.dyn_peer[51]  lookupHopsSig:vector  ETV
2490236	887762 532 776 773345 20.82 65.975156355374 17 2 83 419 20281
vector 2490237  Network.dyn_peer[51]  lookupStabilitySig:vector  ETV
2490237	888294 764 776 773345 20.82 65.975156355374 17 0.5 0.98533333372325 15.250957966782 13.91165231471
vector 2490238  Network.dyn_peer[51]  lookupTimeSig:vector  ETV
2490238	889058 557 776 773345 20.82 65.975156355374 17 0.3 8.4 43.5 211.29
vector 2490125  Network.dyn_peer[14]  lookupHopsSig:vector  ETV
2490125	829722 437 818 897061 20.85 72.07274591142 14 1 53 281 9059
vector 2490126  Network.dyn_peer[14]  lookupStabilitySig:vector  ETV
2490126	830159 621 818 897061 20.85 72.07274591142 14 0 0.99410029500723 12.095332139172 11.397793389333
vector 2490127  Network.dyn_peer[14]  lookupTimeSig:vector  ETV
2490127	830780 456 818 897061 20.85 72.07274591142 14 0.2 5.4 29.4 96.2
vector 2490308  Network.dyn_peer[75]  lookupHopsSig:vector  ETV
2490308	926283 474 833 617208 20.86 59.859032623121 15 1 58 306 9536
vector 2490309  Network.dyn_peer[75]  lookupStabilitySig:vector  ETV
2490309	926757 679 833 617208 20.86 59.859032623121 15 0.6875 0.99233716493472 13.739376766142 12.73034107799
vector 2490310  Network.dyn_peer[75]  lookupTimeSig:vector  ETV
2490310	927436 488 833 617208 20.86 59.859032623121 15 0.1 5.9 32 101.6
vector 2490266  Network.dyn_peer[61]  lookupHopsSig:vector  ETV
2490266	904526 371 920 917881 20.92 73.326213273554 12 2 100 367 21957
vector 2490267  Network.dyn_peer[61]  lookupStabilitySig:vector  ETV
2490267	904897 531 920 917881 20.92 73.326213273554 12 0.625 0.98156182281673 10.735465301201 9.7859559475739
vector 2490268  Network.dyn_peer[61]  lookupTimeSig:vector  ETV
2490268	905428 385 920 917881 20.92 73.326213273554 12 0.3 10.1 37.8 226.96
vector 2490209  Network.dyn_peer[42]  lookupHopsSig:vector  ETV
2490209	874059 475 935 660877 20.93 61.478429565228 15 4 73 347 12595
vector 2490210  Network.dyn_peer[42]  lookupStabilitySig:vector  ETV
2490210	874534 673 935 660877 20.93 61.478429565228 15 0.375 0.99413833534345 13.282126160804 12.149222429877
vector 2490211  Network.dyn_peer[42]  lookupTimeSig:vector  ETV
2490211	875207 492 935 660877 20.93 61.478429565228 15 0.5 7.4 36.1 132.93
vector 2490212  Network.dyn_peer[43]  lookupHopsSig:vector  ETV
2490212	875699 372 950 782524 20.94 66.375103837942 12 5 82 293 12313
vector 2490213  Network.dyn_peer[43]  lookupStabilitySig:vector  ETV
2490213	876071 532 950 782524 20.94 66.375103837942 12 0.375 0.98888006340712 10.337774702348 9.2793158301044
vector 2490214  Network.dyn_peer[43]  lookupTimeSig:vector  ETV
2490214	876603 388 950 782524 20.94 66.375103837942 12 0.5 8.3 30.4 129
vector 2490272  Network.dyn_peer[63]  lookupHopsSig:vector  ETV
2490272	907662 307 955 472716 20.94 54.301975486992 10 1 34 131 2853
vector 2490273  Network.dyn_peer[63]  lookupStabilitySig:vector  ETV
2490273	907969 438 955 472716 20.94 54.301975486992 10 0.625 0.99737015110441 9.0695458326955 8.3867084107336
vector 2490274  Network.dyn_peer[63]  lookupTimeSig:vector  ETV
2490274	908407 321 955 472716 20.94 54.301975486992 10 0.2 3.5 14 31.18
vector 2490281  Network.dyn_peer[66]  lookupHopsSig:vector  ETV
2490281	911920 541 1001 898854 20.97 72.178621251874 17 3 57 480 18254
vector 2490282  Network.dyn_peer[66]  lookupStabilitySig:vector  ETV
2490282	912461 781 1001 898854 20.97 72.178621251874 17 0.66666665673256 0.9848013818264 15.442123983055 14.184928606107
vector 2490283  Network.dyn_peer[66]  lookupTimeSig:vector  ETV
2490283	913242 560 1001 898854 20.97 72.178621251874 17 0.3 5.8 49.6 192.24
vector 2490344  Network.dyn_peer[87]  lookupHopsSig:vector  ETV
2490344	945591 514 1020 975855 20.98 77.473477168933 16 1 78 364 15768
vector 2490345  Network.dyn_peer[87]  lookupStabilitySig:vector  ETV
2490345	946105 731 1020 975855 20.98 77.473477168933 16 0.78571428358555 0.99533001240343 14.891303685494 13.924400176561
vector 2490346  Network.dyn_peer[87]  lookupTimeSig:vector  ETV
2490346	946836 531 1020 975855 20.98 77.473477168933 16 0.1 7.9 37.9 165.09
vector 2490317  Network.dyn_peer[78]  lookupHopsSig:vector  ETV
2490317	930429 579 1043 952193 20.99 75.625658458947 18 2 80 479 19533
vector 2490318  Network.dyn_peer[78]  lookupStabilitySig:vector  ETV
2490318	931008 834 1043 952193 20.99 75.625658458947 18 0.66666665673256 0.99566026031971 16.95336362673 16.094446759092
vector 2490319  Network.dyn_peer[78]  lookupTimeSig:vector  ETV
2490319	931842 597 1043 952193 20.99 75.625658458947 18 0.2 8.1 49.6 205.04
vector 2490320  Network.dyn_peer[79]  lookupHopsSig:vector  ETV
2490320	932439 301 1059 498836 21 55.354320084188 10 2 40 159 4001
vector 2490321  Network.dyn_peer[79]  lookupStabilitySig:vector  ETV
2490321	932740 431 1059 498836 21 55.354320084188 10 0.75 0.98828778602183 9.0529637075961 8.2625271877405
vector 2490322  Network.dyn_peer[79]  lookupTimeSig:vector  ETV
2490322	933171 313 1059 498836 21 55.354320084188 10 0.2 4.1 16.8 43.24
vector 2490350  Network.dyn_peer[89]  lookupHopsSig:vector  ETV
2490350	948560 436 1063 764230 21 65.583978508745 14 1 74 329 13309
vector 2490351  Network.dyn_peer[89]  lookupStabilitySig:vector  ETV
2490351	948996 634 1063 764230 21 65.583978508745 14 0.68421053886414 0.98378597572446 12.98001880385 12.109731054685
vector 2490352  Network.dyn_peer[89]  lookupTimeSig:vector  ETV
2490352	949630 450 1063 764230 21 65.583978508745 14 0.1 7.5 34.2 139.78
vector 2490173  Network.dyn_peer[30]  lookupHopsSig:vector  ETV
2490173	853510 407 1082 830615 21.01 68.579629541648 13 6 46 315 10209
vector 2490174  Network.dyn_peer[30]  lookupStabilitySig:vector  ETV
2490174	853917 589 1082 830615 21.01 68.579629541648 13 0.22222220897675 0.98835462052375 11.262168147601 10.317838954082
vector 2490175  Network.dyn_peer[30]  lookupTimeSig:vector  ETV
2490175	854506 420 1082 830615 21.01 68.579629541648 13 0.7 4.7 32.7 108.37
vector 2490233  Network.dyn_peer[50]  lookupHopsSig:vector  ETV
2490233	886326 412 1086 881620 21.01 71.196899308168 13 3 75 328 13126
vector 2490234  Network.dyn_peer[50]  lookupStabilitySig:vector  ETV
2490234	886738 596 1086 881620 21.01 71.196899308168 13 0.44444441795349 0.9948006933555 11.721078697592 10.903555789272
vector 2490235  Network.dyn_peer[50]  lookupTimeSig:vector  ETV
2490235	887334 428 1086 881620 21.01 71.196899308168 13 0.4 7.6 34 137.84
vector 2490296  Network.dyn_peer[71]  lookupHopsSig:vector  ETV
2490296	920267 269 1245 588544 21.12 58.799656247533 9 1 121 202 16180
vector 2490297  Network.dyn_peer[71]  lookupStabilitySig:vector  ETV
2490297	920536 389 1245 588544 21.12 58.799656247533 9 0.63636362552643 0.97542533092201 7.9047985319048 7.0352944590799
vector 2490298  Network.dyn_peer[71]  lookupTimeSig:vector  ETV
2490298	920925 283 1245 588544 21.12 58.799656247533 9 0.2 12.2 21 165.84
vector 2490326  Network.dyn_peer[81]  lookupHopsSig:vector  ETV
2490326	935715 713 1250 1026686 21.12 82.816900847778 22 3 99 534 23466
vector 2490327  Network.dyn_peer[81]  lookupStabilitySig:vector  ETV
2490327	936428 1024 1250 1026686 21.12 82.816900847778 22 0.68000000715256 0.99825072882231 20.657658888609 19.560420256081
vector 2490328  Network.dyn_peer[81]  lookupTimeSig:vector  ETV
2490328	937452 734 1250 1026686 21.12 82.816900847778 22 0.3 10 55.5 245.49
vector 2490386  Network.dyn_peer[101]  lookupHopsSig:vector  ETV
2490386	967373 603 1254 950053 21.12 75.473756045432 19 1 80 434 20160
vector 2490387  Network.dyn_peer[101]  lookupStabilitySig:vector  ETV
2490387	967976 865 1254 950053 21.12 75.473756045432 19 0.76250000298023 0.99242424219847 17.987616072409 17.105138809631
vector 2490388  Network.dyn_peer[101]  lookupTimeSig:vector  ETV
2490388	968841 624 1254 950053 21.12 75.473756045432 19 0.1 8.1 45.2 210.44
vector 2490239  Network.dyn_peer[52]  lookupHopsSig:vector  ETV
2490239	889615 369 1273 632690 21.13 60.425390938409 12 1 70 267 12447
vector 2490240  Network.dyn_peer[52]  lookupStabilitySig:vector  ETV
2490240	889984 531 1273 632690 21.13 60.425390938409 12 0.45454543828964 0.99784946232103 10.551018691389 9.5408966650049
vector 2490241  Network.dyn_peer[52]  lookupTimeSig:vector  ETV
2490241	890515 383 1273 632690 21.13 60.425390938409 12 0.2 7.1 27.8 129.8
vector 2490329  Network.dyn_peer[82]  lookupHopsSig:vector  ETV
2490329	938186 337 1277 325503 21.13 47.761167177272 11 2 49 150 4164
vector 2490330  Network.dyn_peer[82]  lookupStabilitySig:vector  ETV
2490330	938523 496 1277 325503 21.13 47.761167177272 11 0.72727271914482 0.99092970509082 10.014384211041 9.1940360227172
vector 2490331  Network.dyn_peer[82]  lookupTimeSig:vector  ETV
2490331	939019 349 1277 325503 21.13 47.761167177272 11 0.3 5 16 44.68
vector 2490242  Network.dyn_peer[53]  lookupHopsSig:vector  ETV
2490242	890898 507 1296 1020705 21.14 82.030699683366 16 6 84 356 13936
vector 2490243  Network.dyn_peer[53]  lookupStabilitySig:vector  ETV
2490243	891405 724 1296 1020705 21.14 82.030699683366 16 0.45454543828964 0.99764468381181 14.573502111249 13.582848701435
vector 2490244  Network.dyn_peer[53]  lookupTimeSig:vector  ETV
2490244	892129 524 1296 1020705 21.14 82.030699683366 16 0.6 8.5 37.1 146.51
vector 2490302  Network.dyn_peer[73]  lookupHopsSig:vector  ETV
2490302	922407 340 1300 498169 21.14 55.328260377012 11 4 51 232 7660
vector 2490303  Network.dyn_peer[73]  lookupStabilitySig:vector  ETV
2490303	922747 490 1300 498169 21.14 55.328260377012 11 0.62790697813034 0.98214285634458 9.8129202257842 8.9288561519691
vector 2490304  Network.dyn_peer[73]  lookupTimeSig:vector  ETV
2490304	923237 351 1300 498169 21.14 55.328260377012 11 0.4 5.2 24.2 81.26
vector 2490332  Network.dyn_peer[83]  lookupHopsSig:vector  ETV
2490332	939368 508 1304 896755 21.14 72.055406355172 16 2 106 475 26377
vector 2490333  Network.dyn_peer[83]  lookupStabilitySig:vector  ETV
2490333	939876 724 1304 896755 21.14 72.055406355172 16 0.72727271914482 0.9948320412077 14.745612317231 13.683903433629
vector 2490334  Network.dyn_peer[83]  lookupTimeSig:vector  ETV
2490334	940600 525 1304 896755 21.14 72.055406355172 16 0.3 10.7 49 273.36
vector 2490230  Network.dyn_peer[49]  lookupHopsSig:vector  ETV
2490230	884445 540 1405 907841 21.2 72.712378606667 17 2 30 275 5699
vector 2490231  Network.dyn_peer[49]  lookupStabilitySig:vector  ETV
2490231	884985 781 1405 907841 21.2 72.712378606667 17 0.46153843402863 0.9992877492914 15.621658364194 14.68398642594
vector 2490232  Network.dyn_peer[49]  lookupTimeSig:vector  ETV
2490232	885766 560 1405 907841 21.2 72.712378606667 17 0.3 3.1 29.1 62.51
vector 2490323  Network.dyn_peer[80]  lookupHopsSig:vector  ETV
2490323	933484 643 1426 956219 21.21 75.92146078165 20 2 59 393 12091
vector 2490324  Network.dyn_peer[80]  lookupStabilitySig:vector  ETV
2490324	934127 928 1426 956219 21.21 75.92146078165 20 0.69230768084526 0.9967845659703 18.91321043158 18.003349643406
vector 2490325  Network.dyn_peer[80]  lookupTimeSig:vector  ETV
2490325	935055 660 1426 956219 21.21 75.92146078165 20 0.3 6 41.2 128.88
vector 2490245  Network.dyn_peer[54]  lookupHopsSig:vector  ETV
2490245	892653 436 1498 560060 21.25 57.729672513236 14 2 73 299 12083
vector 2490246  Network.dyn_peer[54]  lookupStabilitySig:vector  ETV
2490246	893089 636 1498 560060 21.25 57.729672513236 14 0.46153843402863 0.98627167660743 12.685526591726 11.80219001191
vector 2490247  Network.dyn_peer[54]  lookupTimeSig:vector  ETV
2490247	893725 453 1498 560060 21.25 57.729672513236 14 0.3 7.4 31.2 126.8
vector 2490395  Network.dyn_peer[104]  lookupHopsSig:vector  ETV
2490395	971763 605 1502 887809 21.25 71.541284752786 19 2 60 453 16847
vector 2490396  Network.dyn_peer[104]  lookupStabilitySig:vector  ETV
2490396	972368 876 1502 887809 21.25 71.541284752786 19 0.77272726595402 0.99298469396308 17.894549075048 16.930612816918
vector 2490397  Network.dyn_peer[104]  lookupTimeSig:vector  ETV
2490397	973244 629 1502 887809 21.25 71.541284752786 19 0.2 6.1 47.1 177.67
vector 2490218  Network.dyn_peer[45]  lookupHopsSig:vector  ETV
2490218	878760 440 1520 951384 21.26 75.570177066276 14 2 88 344 15830