version 2
run Stability2-26-20130528-01:24:07-24168
attr configname Stability2
attr datetime 20130528-01:24:07
attr experiment Stability2
attr inifile omnetpp.ini
attr iterationvars $0=30
attr iterationvars2 "$0=30, $repetition=6"
attr measurement $0=30
attr network Network
attr processid 24168
attr repetition 6
attr replication #6
attr resultdir results
attr runnumber 26
attr seedset 26

vector 810026  Network.churner  inGoingSizeSig:vector  ETV
vector 780026  Network.dyn_peer[0]  lookupHopsSig:vector  ETV
vector 780027  Network.dyn_peer[0]  lookupStabilitySig:vector  ETV
vector 780028  Network.dyn_peer[0]  lookupTimeSig:vector  ETV
vector 780035  Network.dyn_peer[3]  lookupHopsSig:vector  ETV
vector 780036  Network.dyn_peer[3]  lookupStabilitySig:vector  ETV
vector 780037  Network.dyn_peer[3]  lookupTimeSig:vector  ETV
vector 780029  Network.dyn_peer[1]  lookupHopsSig:vector  ETV
vector 780030  Network.dyn_peer[1]  lookupStabilitySig:vector  ETV
vector 780031  Network.dyn_peer[1]  lookupTimeSig:vector  ETV
vector 780062  Network.dyn_peer[12]  lookupHopsSig:vector  ETV
vector 780063  Network.dyn_peer[12]  lookupStabilitySig:vector  ETV
vector 780064  Network.dyn_peer[12]  lookupTimeSig:vector  ETV
vector 780065  Network.dyn_peer[13]  lookupHopsSig:vector  ETV
vector 780066  Network.dyn_peer[13]  lookupStabilitySig:vector  ETV
vector 780067  Network.dyn_peer[13]  lookupTimeSig:vector  ETV
vector 780056  Network.dyn_peer[10]  lookupHopsSig:vector  ETV
vector 780057  Network.dyn_peer[10]  lookupStabilitySig:vector  ETV
vector 780058  Network.dyn_peer[10]  lookupTimeSig:vector  ETV
vector 780086  Network.dyn_peer[20]  lookupHopsSig:vector  ETV
vector 780087  Network.dyn_peer[20]  lookupStabilitySig:vector  ETV
vector 780088  Network.dyn_peer[20]  lookupTimeSig:vector  ETV
vector 780038  Network.dyn_peer[4]  lookupHopsSig:vector  ETV
vector 780039  Network.dyn_peer[4]  lookupStabilitySig:vector  ETV
vector 780040  Network.dyn_peer[4]  lookupTimeSig:vector  ETV
vector 780071  Network.dyn_peer[15]  lookupHopsSig:vector  ETV
vector 780072  Network.dyn_peer[15]  lookupStabilitySig:vector  ETV
vector 780073  Network.dyn_peer[15]  lookupTimeSig:vector  ETV
vector 780044  Network.dyn_peer[6]  lookupHopsSig:vector  ETV
vector 780045  Network.dyn_peer[6]  lookupStabilitySig:vector  ETV
vector 780046  Network.dyn_peer[6]  lookupTimeSig:vector  ETV
vector 780047  Network.dyn_peer[7]  lookupHopsSig:vector  ETV
vector 780048  Network.dyn_peer[7]  lookupStabilitySig:vector  ETV
vector 780049  Network.dyn_peer[7]  lookupTimeSig:vector  ETV
vector 780050  Network.dyn_peer[8]  lookupHopsSig:vector  ETV
vector 780051  Network.dyn_peer[8]  lookupStabilitySig:vector  ETV
vector 780052  Network.dyn_peer[8]  lookupTimeSig:vector  ETV
vector 780059  Network.dyn_peer[11]  lookupHopsSig:vector  ETV
vector 780060  Network.dyn_peer[11]  lookupStabilitySig:vector  ETV
vector 780061  Network.dyn_peer[11]  lookupTimeSig:vector  ETV
vector 780032  Network.dyn_peer[2]  lookupHopsSig:vector  ETV
vector 780033  Network.dyn_peer[2]  lookupStabilitySig:vector  ETV
vector 780034  Network.dyn_peer[2]  lookupTimeSig:vector  ETV
vector 780041  Network.dyn_peer[5]  lookupHopsSig:vector  ETV
vector 780042  Network.dyn_peer[5]  lookupStabilitySig:vector  ETV
vector 780043  Network.dyn_peer[5]  lookupTimeSig:vector  ETV
vector 780104  Network.dyn_peer[26]  lookupHopsSig:vector  ETV
vector 780105  Network.dyn_peer[26]  lookupStabilitySig:vector  ETV
vector 780106  Network.dyn_peer[26]  lookupTimeSig:vector  ETV
vector 780134  Network.dyn_peer[36]  lookupHopsSig:vector  ETV
vector 780135  Network.dyn_peer[36]  lookupStabilitySig:vector  ETV
vector 780136  Network.dyn_peer[36]  lookupTimeSig:vector  ETV
vector 780077  Network.dyn_peer[17]  lookupHopsSig:vector  ETV
vector 780078  Network.dyn_peer[17]  lookupStabilitySig:vector  ETV
vector 780079  Network.dyn_peer[17]  lookupTimeSig:vector  ETV
vector 780080  Network.dyn_peer[18]  lookupHopsSig:vector  ETV
vector 780081  Network.dyn_peer[18]  lookupStabilitySig:vector  ETV
vector 780082  Network.dyn_peer[18]  lookupTimeSig:vector  ETV
vector 780110  Network.dyn_peer[28]  lookupHopsSig:vector  ETV
vector 780111  Network.dyn_peer[28]  lookupStabilitySig:vector  ETV
vector 780112  Network.dyn_peer[28]  lookupTimeSig:vector  ETV
vector 780053  Network.dyn_peer[9]  lookupHopsSig:vector  ETV
vector 780054  Network.dyn_peer[9]  lookupStabilitySig:vector  ETV
vector 780055  Network.dyn_peer[9]  lookupTimeSig:vector  ETV
vector 780098  Network.dyn_peer[24]  lookupHopsSig:vector  ETV
vector 780099  Network.dyn_peer[24]  lookupStabilitySig:vector  ETV
vector 780100  Network.dyn_peer[24]  lookupTimeSig:vector  ETV
vector 780128  Network.dyn_peer[34]  lookupHopsSig:vector  ETV
vector 780129  Network.dyn_peer[34]  lookupStabilitySig:vector  ETV
vector 780130  Network.dyn_peer[34]  lookupTimeSig:vector  ETV
vector 780074  Network.dyn_peer[16]  lookupHopsSig:vector  ETV
vector 780075  Network.dyn_peer[16]  lookupStabilitySig:vector  ETV
vector 780076  Network.dyn_peer[16]  lookupTimeSig:vector  ETV
vector 780116  Network.dyn_peer[30]  lookupHopsSig:vector  ETV
vector 780117  Network.dyn_peer[30]  lookupStabilitySig:vector  ETV
vector 780118  Network.dyn_peer[30]  lookupTimeSig:vector  ETV
vector 780092  Network.dyn_peer[22]  lookupHopsSig:vector  ETV
vector 780093  Network.dyn_peer[22]  lookupStabilitySig:vector  ETV
vector 780094  Network.dyn_peer[22]  lookupTimeSig:vector  ETV
vector 780095  Network.dyn_peer[23]  lookupHopsSig:vector  ETV
vector 780096  Network.dyn_peer[23]  lookupStabilitySig:vector  ETV
vector 780097  Network.dyn_peer[23]  lookupTimeSig:vector  ETV
vector 780068  Network.dyn_peer[14]  lookupHopsSig:vector  ETV
vector 780069  Network.dyn_peer[14]  lookupStabilitySig:vector  ETV
vector 780070  Network.dyn_peer[14]  lookupTimeSig:vector  ETV
vector 780158  Network.dyn_peer[44]  lookupHopsSig:vector  ETV
vector 780159  Network.dyn_peer[44]  lookupStabilitySig:vector  ETV
vector 780160  Network.dyn_peer[44]  lookupTimeSig:vector  ETV
vector 780101  Network.dyn_peer[25]  lookupHopsSig:vector  ETV
vector 780102  Network.dyn_peer[25]  lookupStabilitySig:vector  ETV
vector 780103  Network.dyn_peer[25]  lookupTimeSig:vector  ETV
vector 780137  Network.dyn_peer[37]  lookupHopsSig:vector  ETV
vector 780138  Network.dyn_peer[37]  lookupStabilitySig:vector  ETV
vector 780139  Network.dyn_peer[37]  lookupTimeSig:vector  ETV
vector 780083  Network.dyn_peer[19]  lookupHopsSig:vector  ETV
vector 780084  Network.dyn_peer[19]  lookupStabilitySig:vector  ETV
vector 780085  Network.dyn_peer[19]  lookupTimeSig:vector  ETV
vector 780227  Network.dyn_peer[67]  lookupHopsSig:vector  ETV
vector 780228  Network.dyn_peer[67]  lookupStabilitySig:vector  ETV
vector 780229  Network.dyn_peer[67]  lookupTimeSig:vector  ETV
vector 780209  Network.dyn_peer[61]  lookupHopsSig:vector  ETV
vector 780210  Network.dyn_peer[61]  lookupStabilitySig:vector  ETV
vector 780211  Network.dyn_peer[61]  lookupTimeSig:vector  ETV
vector 780122  Network.dyn_peer[32]  lookupHopsSig:vector  ETV
vector 780123  Network.dyn_peer[32]  lookupStabilitySig:vector  ETV
vector 780124  Network.dyn_peer[32]  lookupTimeSig:vector  ETV
vector 780182  Network.dyn_peer[52]  lookupHopsSig:vector  ETV
vector 780183  Network.dyn_peer[52]  lookupStabilitySig:vector  ETV
vector 780184  Network.dyn_peer[52]  lookupTimeSig:vector  ETV
vector 780161  Network.dyn_peer[45]  lookupHopsSig:vector  ETV
vector 780162  Network.dyn_peer[45]  lookupStabilitySig:vector  ETV
vector 780163  Network.dyn_peer[45]  lookupTimeSig:vector  ETV
vector 780164  Network.dyn_peer[46]  lookupHopsSig:vector  ETV
vector 780165  Network.dyn_peer[46]  lookupStabilitySig:vector  ETV
vector 780166  Network.dyn_peer[46]  lookupTimeSig:vector  ETV
vector 780107  Network.dyn_peer[27]  lookupHopsSig:vector  ETV
vector 780108  Network.dyn_peer[27]  lookupStabilitySig:vector  ETV
vector 780109  Network.dyn_peer[27]  lookupTimeSig:vector  ETV
vector 780143  Network.dyn_peer[39]  lookupHopsSig:vector  ETV
vector 780144  Network.dyn_peer[39]  lookupStabilitySig:vector  ETV
vector 780145  Network.dyn_peer[39]  lookupTimeSig:vector  ETV
vector 780206  Network.dyn_peer[60]  lookupHopsSig:vector  ETV
vector 780207  Network.dyn_peer[60]  lookupStabilitySig:vector  ETV
vector 780208  Network.dyn_peer[60]  lookupTimeSig:vector  ETV
vector 780125  Network.dyn_peer[33]  lookupHopsSig:vector  ETV
vector 780126  Network.dyn_peer[33]  lookupStabilitySig:vector  ETV
vector 780127  Network.dyn_peer[33]  lookupTimeSig:vector  ETV
vector 780245  Network.dyn_peer[73]  lookupHopsSig:vector  ETV
vector 780246  Network.dyn_peer[73]  lookupStabilitySig:vector  ETV
vector 780247  Network.dyn_peer[73]  lookupTimeSig:vector  ETV
vector 780218  Network.dyn_peer[64]  lookupHopsSig:vector  ETV
vector 780219  Network.dyn_peer[64]  lookupStabilitySig:vector  ETV
vector 780220  Network.dyn_peer[64]  lookupTimeSig:vector  ETV
vector 780221  Network.dyn_peer[65]  lookupHopsSig:vector  ETV
vector 780222  Network.dyn_peer[65]  lookupStabilitySig:vector  ETV
vector 780223  Network.dyn_peer[65]  lookupTimeSig:vector  ETV
vector 780089  Network.dyn_peer[21]  lookupHopsSig:vector  ETV
vector 780090  Network.dyn_peer[21]  lookupStabilitySig:vector  ETV
vector 780091  Network.dyn_peer[21]  lookupTimeSig:vector  ETV
vector 780257  Network.dyn_peer[77]  lookupHopsSig:vector  ETV
vector 780258  Network.dyn_peer[77]  lookupStabilitySig:vector  ETV
vector 780259  Network.dyn_peer[77]  lookupTimeSig:vector  ETV
vector 780140  Network.dyn_peer[38]  lookupHopsSig:vector  ETV
vector 780141  Network.dyn_peer[38]  lookupStabilitySig:vector  ETV
vector 780142  Network.dyn_peer[38]  lookupTimeSig:vector  ETV
vector 780290  Network.dyn_peer[88]  lookupHopsSig:vector  ETV
vector 780291  Network.dyn_peer[88]  lookupStabilitySig:vector  ETV
vector 780292  Network.dyn_peer[88]  lookupTimeSig:vector  ETV
vector 780203  Network.dyn_peer[59]  lookupHopsSig:vector  ETV
vector 780204  Network.dyn_peer[59]  lookupStabilitySig:vector  ETV
vector 780205  Network.dyn_peer[59]  lookupTimeSig:vector  ETV
vector 780119  Network.dyn_peer[31]  lookupHopsSig:vector  ETV
vector 780120  Network.dyn_peer[31]  lookupStabilitySig:vector  ETV
vector 780121  Network.dyn_peer[31]  lookupTimeSig:vector  ETV
vector 780155  Network.dyn_peer[43]  lookupHopsSig:vector  ETV
vector 780156  Network.dyn_peer[43]  lookupStabilitySig:vector  ETV
vector 780157  Network.dyn_peer[43]  lookupTimeSig:vector  ETV
vector 780305  Network.dyn_peer[93]  lookupHopsSig:vector  ETV
vector 780306  Network.dyn_peer[93]  lookupStabilitySig:vector  ETV
vector 780307  Network.dyn_peer[93]  lookupTimeSig:vector  ETV
vector 780191  Network.dyn_peer[55]  lookupHopsSig:vector  ETV
vector 780192  Network.dyn_peer[55]  lookupStabilitySig:vector  ETV
vector 780193  Network.dyn_peer[55]  lookupTimeSig:vector  ETV
vector 780281  Network.dyn_peer[85]  lookupHopsSig:vector  ETV
vector 780282  Network.dyn_peer[85]  lookupStabilitySig:vector  ETV
vector 780283  Network.dyn_peer[85]  lookupTimeSig:vector  ETV
vector 780323  Network.dyn_peer[99]  lookupHopsSig:vector  ETV
vector 780324  Network.dyn_peer[99]  lookupStabilitySig:vector  ETV
vector 780325  Network.dyn_peer[99]  lookupTimeSig:vector  ETV
vector 780176  Network.dyn_peer[50]  lookupHopsSig:vector  ETV
vector 780177  Network.dyn_peer[50]  lookupStabilitySig:vector  ETV
vector 780178  Network.dyn_peer[50]  lookupTimeSig:vector  ETV
vector 780299  Network.dyn_peer[91]  lookupHopsSig:vector  ETV
vector 780300  Network.dyn_peer[91]  lookupStabilitySig:vector  ETV
vector 780301  Network.dyn_peer[91]  lookupTimeSig:vector  ETV
vector 780212  Network.dyn_peer[62]  lookupHopsSig:vector  ETV
vector 780213  Network.dyn_peer[62]  lookupStabilitySig:vector  ETV
vector 780214  Network.dyn_peer[62]  lookupTimeSig:vector  ETV
vector 780302  Network.dyn_peer[92]  lookupHopsSig:vector  ETV
vector 780303  Network.dyn_peer[92]  lookupStabilitySig:vector  ETV
vector 780304  Network.dyn_peer[92]  lookupTimeSig:vector  ETV
vector 780224  Network.dyn_peer[66]  lookupHopsSig:vector  ETV
vector 780225  Network.dyn_peer[66]  lookupStabilitySig:vector  ETV
vector 780226  Network.dyn_peer[66]  lookupTimeSig:vector  ETV
vector 780239  Network.dyn_peer[71]  lookupHopsSig:vector  ETV
vector 780240  Network.dyn_peer[71]  lookupStabilitySig:vector  ETV
vector 780241  Network.dyn_peer[71]  lookupTimeSig:vector  ETV
vector 780242  Network.dyn_peer[72]  lookupHopsSig:vector  ETV
vector 780243  Network.dyn_peer[72]  lookupStabilitySig:vector  ETV
vector 780244  Network.dyn_peer[72]  lookupTimeSig:vector  ETV
vector 780188  Network.dyn_peer[54]  lookupHopsSig:vector  ETV
vector 780189  Network.dyn_peer[54]  lookupStabilitySig:vector  ETV
vector 780190  Network.dyn_peer[54]  lookupTimeSig:vector  ETV
vector 780284  Network.dyn_peer[86]  lookupHopsSig:vector  ETV
vector 780285  Network.dyn_peer[86]  lookupStabilitySig:vector  ETV
vector 780286  Network.dyn_peer[86]  lookupTimeSig:vector  ETV
vector 780197  Network.dyn_peer[57]  lookupHopsSig:vector  ETV
vector 780198  Network.dyn_peer[57]  lookupStabilitySig:vector  ETV
vector 780199  Network.dyn_peer[57]  lookupTimeSig:vector  ETV
vector 780233  Network.dyn_peer[69]  lookupHopsSig:vector  ETV
vector 780234  Network.dyn_peer[69]  lookupStabilitySig:vector  ETV
vector 780235  Network.dyn_peer[69]  lookupTimeSig:vector  ETV
vector 780326  Network.dyn_peer[100]  lookupHopsSig:vector  ETV
vector 780327  Network.dyn_peer[100]  lookupStabilitySig:vector  ETV
vector 780328  Network.dyn_peer[100]  lookupTimeSig:vector  ETV
vector 780371  Network.dyn_peer[115]  lookupHopsSig:vector  ETV
vector 780372  Network.dyn_peer[115]  lookupStabilitySig:vector  ETV
vector 780373  Network.dyn_peer[115]  lookupTimeSig:vector  ETV
vector 780314  Network.dyn_peer[96]  lookupHopsSig:vector  ETV
vector 780315  Network.dyn_peer[96]  lookupStabilitySig:vector  ETV
vector 780316  Network.dyn_peer[96]  lookupTimeSig:vector  ETV
vector 780200  Network.dyn_peer[58]  lookupHopsSig:vector  ETV
vector 780201  Network.dyn_peer[58]  lookupStabilitySig:vector  ETV
vector 780202  Network.dyn_peer[58]  lookupTimeSig:vector  ETV
vector 780260  Network.dyn_peer[78]  lookupHopsSig:vector  ETV
vector 780261  Network.dyn_peer[78]  lookupStabilitySig:vector  ETV
vector 780262  Network.dyn_peer[78]  lookupTimeSig:vector  ETV
vector 780146  Network.dyn_peer[40]  lookupHopsSig:vector  ETV
vector 780147  Network.dyn_peer[40]  lookupStabilitySig:vector  ETV
vector 780148  Network.dyn_peer[40]  lookupTimeSig:vector  ETV
vector 780236  Network.dyn_peer[70]  lookupHopsSig:vector  ETV
vector 780237  Network.dyn_peer[70]  lookupStabilitySig:vector  ETV
vector 780238  Network.dyn_peer[70]  lookupTimeSig:vector  ETV
vector 780296  Network.dyn_peer[90]  lookupHopsSig:vector  ETV
vector 780297  Network.dyn_peer[90]  lookupStabilitySig:vector  ETV
vector 780298  Network.dyn_peer[90]  lookupTimeSig:vector  ETV
vector 780386  Network.dyn_peer[120]  lookupHopsSig:vector  ETV
vector 780387  Network.dyn_peer[120]  lookupStabilitySig:vector  ETV
vector 780388  Network.dyn_peer[120]  lookupTimeSig:vector  ETV
vector 780329  Network.dyn_peer[101]  lookupHopsSig:vector  ETV
vector 780330  Network.dyn_peer[101]  lookupStabilitySig:vector  ETV
vector 780331  Network.dyn_peer[101]  lookupTimeSig:vector  ETV
vector 780332  Network.dyn_peer[102]  lookupHopsSig:vector  ETV
vector 780333  Network.dyn_peer[102]  lookupStabilitySig:vector  ETV
vector 780334  Network.dyn_peer[102]  lookupTimeSig:vector  ETV
vector 780308  Network.dyn_peer[94]  lookupHopsSig:vector  ETV
vector 780309  Network.dyn_peer[94]  lookupStabilitySig:vector  ETV
vector 780310  Network.dyn_peer[94]  lookupTimeSig:vector  ETV
vector 780194  Network.dyn_peer[56]  lookupHopsSig:vector  ETV
vector 780195  Network.dyn_peer[56]  lookupStabilitySig:vector  ETV
vector 780196  Network.dyn_peer[56]  lookupTimeSig:vector  ETV
vector 780170  Network.dyn_peer[48]  lookupHopsSig:vector  ETV
vector 780171  Network.dyn_peer[48]  lookupStabilitySig:vector  ETV
vector 780172  Network.dyn_peer[48]  lookupTimeSig:vector  ETV
vector 780230  Network.dyn_peer[68]  lookupHopsSig:vector  ETV
vector 780231  Network.dyn_peer[68]  lookupStabilitySig:vector  ETV
vector 780232  Network.dyn_peer[68]  lookupTimeSig:vector  ETV
vector 780149  Network.dyn_peer[41]  lookupHopsSig:vector  ETV
vector 780150  Network.dyn_peer[41]  lookupStabilitySig:vector  ETV
vector 780151  Network.dyn_peer[41]  lookupTimeSig:vector  ETV
vector 780215  Network.dyn_peer[63]  lookupHopsSig:vector  ETV
vector 780216  Network.dyn_peer[63]  lookupStabilitySig:vector  ETV
vector 780217  Network.dyn_peer[63]  lookupTimeSig:vector  ETV
vector 780275  Network.dyn_peer[83]  lookupHopsSig:vector  ETV
vector 780276  Network.dyn_peer[83]  lookupStabilitySig:vector  ETV
vector 780277  Network.dyn_peer[83]  lookupTimeSig:vector  ETV
vector 780395  Network.dyn_peer[123]  lookupHopsSig:vector  ETV
vector 780396  Network.dyn_peer[123]  lookupStabilitySig:vector  ETV
vector 780397  Network.dyn_peer[123]  lookupTimeSig:vector  ETV
vector 780248  Network.dyn_peer[74]  lookupHopsSig:vector  ETV
vector 780249  Network.dyn_peer[74]  lookupStabilitySig:vector  ETV
vector 780250  Network.dyn_peer[74]  lookupTimeSig:vector  ETV
vector 780344  Network.dyn_peer[106]  lookupHopsSig:vector  ETV
vector 780345  Network.dyn_peer[106]  lookupStabilitySig:vector  ETV
vector 780346  Network.dyn_peer[106]  lookupTimeSig:vector  ETV
vector 780404  Network.dyn_peer[126]  lookupHopsSig:vector  ETV
vector 780405  Network.dyn_peer[126]  lookupStabilitySig:vector  ETV
vector 780406  Network.dyn_peer[126]  lookupTimeSig:vector  ETV
vector 780347  Network.dyn_peer[107]  lookupHopsSig:vector  ETV
vector 780348  Network.dyn_peer[107]  lookupStabilitySig:vector  ETV
vector 780349  Network.dyn_peer[107]  lookupTimeSig:vector  ETV
vector 780365  Network.dyn_peer[113]  lookupHopsSig:vector  ETV
vector 780366  Network.dyn_peer[113]  lookupStabilitySig:vector  ETV
vector 780367  Network.dyn_peer[113]  lookupTimeSig:vector  ETV
vector 780461  Network.dyn_peer[145]  lookupHopsSig:vector  ETV
vector 780462  Network.dyn_peer[145]  lookupStabilitySig:vector  ETV
vector 780463  Network.dyn_peer[145]  lookupTimeSig:vector  ETV
vector 780467  Network.dyn_peer[147]  lookupHopsSig:vector  ETV
vector 780468  Network.dyn_peer[147]  lookupStabilitySig:vector  ETV
vector 780469  Network.dyn_peer[147]  lookupTimeSig:vector  ETV
vector 780320  Network.dyn_peer[98]  lookupHopsSig:vector  ETV
vector 780321  Network.dyn_peer[98]  lookupStabilitySig:vector  ETV
vector 780322  Network.dyn_peer[98]  lookupTimeSig:vector  ETV
vector 780440  Network.dyn_peer[138]  lookupHopsSig:vector  ETV
vector 780441  Network.dyn_peer[138]  lookupStabilitySig:vector  ETV
vector 780442  Network.dyn_peer[138]  lookupTimeSig:vector  ETV
vector 780173  Network.dyn_peer[49]  lookupHopsSig:vector  ETV
vector 780174  Network.dyn_peer[49]  lookupStabilitySig:vector  ETV
vector 780175  Network.dyn_peer[49]  lookupTimeSig:vector  ETV
vector 780449  Network.dyn_peer[141]  lookupHopsSig:vector  ETV
vector 780450  Network.dyn_peer[141]  lookupStabilitySig:vector  ETV
vector 780451  Network.dyn_peer[141]  lookupTimeSig:vector  ETV
vector 780152  Network.dyn_peer[42]  lookupHopsSig:vector  ETV
vector 780153  Network.dyn_peer[42]  lookupStabilitySig:vector  ETV
vector 780154  Network.dyn_peer[42]  lookupTimeSig:vector  ETV
vector 780362  Network.dyn_peer[112]  lookupHopsSig:vector  ETV
vector 780363  Network.dyn_peer[112]  lookupStabilitySig:vector  ETV
vector 780364  Network.dyn_peer[112]  lookupTimeSig:vector  ETV
vector 780278  Network.dyn_peer[84]  lookupHopsSig:vector  ETV
vector 780279  Network.dyn_peer[84]  lookupStabilitySig:vector  ETV
vector 780280  Network.dyn_peer[84]  lookupTimeSig:vector  ETV
vector 780338  Network.dyn_peer[104]  lookupHopsSig:vector  ETV
vector 780339  Network.dyn_peer[104]  lookupStabilitySig:vector  ETV
vector 780340  Network.dyn_peer[104]  lookupTimeSig:vector  ETV
vector 780530  Network.dyn_peer[168]  lookupHopsSig:vector  ETV
vector 780531  Network.dyn_peer[168]  lookupStabilitySig:vector  ETV
vector 780532  Network.dyn_peer[168]  lookupTimeSig:vector  ETV
vector 780356  Network.dyn_peer[110]  lookupHopsSig:vector  ETV
vector 780357  Network.dyn_peer[110]  lookupStabilitySig:vector  ETV
vector 780358  Network.dyn_peer[110]  lookupTimeSig:vector  ETV
vector 780455  Network.dyn_peer[143]  lookupHopsSig:vector  ETV
vector 780456  Network.dyn_peer[143]  lookupStabilitySig:vector  ETV
vector 780457  Network.dyn_peer[143]  lookupTimeSig:vector  ETV
vector 780587  Network.dyn_peer[187]  lookupHopsSig:vector  ETV
vector 780588  Network.dyn_peer[187]  lookupStabilitySig:vector  ETV
vector 780589  Network.dyn_peer[187]  lookupTimeSig:vector  ETV
vector 780113  Network.dyn_peer[29]  lookupHopsSig:vector  ETV
vector 780114  Network.dyn_peer[29]  lookupStabilitySig:vector  ETV
vector 780115  Network.dyn_peer[29]  lookupTimeSig:vector  ETV
vector 780272  Network.dyn_peer[82]  lookupHopsSig:vector  ETV
vector 780273  Network.dyn_peer[82]  lookupStabilitySig:vector  ETV
vector 780274  Network.dyn_peer[82]  lookupTimeSig:vector  ETV
vector 780335  Network.dyn_peer[103]  lookupHopsSig:vector  ETV
vector 780336  Network.dyn_peer[103]  lookupStabilitySig:vector  ETV
vector 780337  Network.dyn_peer[103]  lookupTimeSig:vector  ETV
vector 780251  Network.dyn_peer[75]  lookupHopsSig:vector  ETV
vector 780252  Network.dyn_peer[75]  lookupStabilitySig:vector  ETV
vector 780253  Network.dyn_peer[75]  lookupTimeSig:vector  ETV
vector 780341  Network.dyn_peer[105]  lookupHopsSig:vector  ETV
vector 780342  Network.dyn_peer[105]  lookupStabilitySig:vector  ETV
vector 780343  Network.dyn_peer[105]  lookupTimeSig:vector  ETV
vector 780437  Network.dyn_peer[137]  lookupHopsSig:vector  ETV
vector 780438  Network.dyn_peer[137]  lookupStabilitySig:vector  ETV
vector 780439  Network.dyn_peer[137]  lookupTimeSig:vector  ETV
vector 780353  Network.dyn_peer[109]  lookupHopsSig:vector  ETV
vector 780354  Network.dyn_peer[109]  lookupStabilitySig:vector  ETV
vector 780355  Network.dyn_peer[109]  lookupTimeSig:vector  ETV
vector 780266  Network.dyn_peer[80]  lookupHopsSig:vector  ETV
vector 780267  Network.dyn_peer[80]  lookupStabilitySig:vector  ETV
vector 780268  Network.dyn_peer[80]  lookupTimeSig:vector  ETV
vector 780389  Network.dyn_peer[121]  lookupHopsSig:vector  ETV
vector 780390  Network.dyn_peer[121]  lookupStabilitySig:vector  ETV
vector 780391  Network.dyn_peer[121]  lookupTimeSig:vector  ETV
vector 780539  Network.dyn_peer[171]  lookupHopsSig:vector  ETV
vector 780540  Network.dyn_peer[171]  lookupStabilitySig:vector  ETV
vector 780541  Network.dyn_peer[171]  lookupTimeSig:vector  ETV
vector 780254  Network.dyn_peer[76]  lookupHopsSig:vector  ETV
vector 780255  Network.dyn_peer[76]  lookupStabilitySig:vector  ETV
vector 780256  Network.dyn_peer[76]  lookupTimeSig:vector  ETV
vector 780410  Network.dyn_peer[128]  lookupHopsSig:vector  ETV
vector 780411  Network.dyn_peer[128]  lookupStabilitySig:vector  ETV
vector 780412  Network.dyn_peer[128]  lookupTimeSig:vector  ETV
vector 780428  Network.dyn_peer[134]  lookupHopsSig:vector  ETV
vector 780429  Network.dyn_peer[134]  lookupStabilitySig:vector  ETV
vector 780430  Network.dyn_peer[134]  lookupTimeSig:vector  ETV
vector 780611  Network.dyn_peer[195]  lookupHopsSig:vector  ETV
vector 780612  Network.dyn_peer[195]  lookupStabilitySig:vector  ETV
vector 780613  Network.dyn_peer[195]  lookupTimeSig:vector  ETV
vector 780464  Network.dyn_peer[146]  lookupHopsSig:vector  ETV
vector 780465  Network.dyn_peer[146]  lookupStabilitySig:vector  ETV
vector 780466  Network.dyn_peer[146]  lookupTimeSig:vector  ETV
vector 780644  Network.dyn_peer[206]  lookupHopsSig:vector  ETV
vector 780645  Network.dyn_peer[206]  lookupStabilitySig:vector  ETV
vector 780646  Network.dyn_peer[206]  lookupTimeSig:vector  ETV
vector 780167  Network.dyn_peer[47]  lookupHopsSig:vector  ETV
vector 780168  Network.dyn_peer[47]  lookupStabilitySig:vector  ETV
vector 780169  Network.dyn_peer[47]  lookupTimeSig:vector  ETV
vector 780620  Network.dyn_peer[198]  lookupHopsSig:vector  ETV
vector 780621  Network.dyn_peer[198]  lookupStabilitySig:vector  ETV
vector 780622  Network.dyn_peer[198]  lookupTimeSig:vector  ETV
vector 780476  Network.dyn_peer[150]  lookupHopsSig:vector  ETV
vector 780477  Network.dyn_peer[150]  lookupStabilitySig:vector  ETV
vector 780478  Network.dyn_peer[150]  lookupTimeSig:vector  ETV
vector 780392  Network.dyn_peer[122]  lookupHopsSig:vector  ETV
vector 780393  Network.dyn_peer[122]  lookupStabilitySig:vector  ETV
vector 780394  Network.dyn_peer[122]  lookupTimeSig:vector  ETV
vector 780515  Network.dyn_peer[163]  lookupHopsSig:vector  ETV
vector 780516  Network.dyn_peer[163]  lookupStabilitySig:vector  ETV
vector 780517  Network.dyn_peer[163]  lookupTimeSig:vector  ETV
vector 780368  Network.dyn_peer[114]  lookupHopsSig:vector  ETV
vector 780369  Network.dyn_peer[114]  lookupStabilitySig:vector  ETV
vector 780370  Network.dyn_peer[114]  lookupTimeSig:vector  ETV
vector 780533  Network.dyn_peer[169]  lookupHopsSig:vector  ETV
vector 780534  Network.dyn_peer[169]  lookupStabilitySig:vector  ETV
vector 780535  Network.dyn_peer[169]  lookupTimeSig:vector  ETV
vector 780416  Network.dyn_peer[130]  lookupHopsSig:vector  ETV
vector 780417  Network.dyn_peer[130]  lookupStabilitySig:vector  ETV
vector 780418  Network.dyn_peer[130]  lookupTimeSig:vector  ETV
vector 780359  Network.dyn_peer[111]  lookupHopsSig:vector  ETV
vector 780360  Network.dyn_peer[111]  lookupStabilitySig:vector  ETV
vector 780361  Network.dyn_peer[111]  lookupTimeSig:vector  ETV
vector 780452  Network.dyn_peer[142]  lookupHopsSig:vector  ETV
vector 780453  Network.dyn_peer[142]  lookupStabilitySig:vector  ETV
vector 780454  Network.dyn_peer[142]  lookupTimeSig:vector  ETV
vector 780548  Network.dyn_peer[174]  lookupHopsSig:vector  ETV
vector 780549  Network.dyn_peer[174]  lookupStabilitySig:vector  ETV
vector 780550  Network.dyn_peer[174]  lookupTimeSig:vector  ETV
vector 780131  Network.dyn_peer[35]  lookupHopsSig:vector  ETV
vector 780132  Network.dyn_peer[35]  lookupStabilitySig:vector  ETV
vector 780133  Network.dyn_peer[35]  lookupTimeSig:vector  ETV
vector 780374  Network.dyn_peer[116]  lookupHopsSig:vector  ETV
vector 780375  Network.dyn_peer[116]  lookupStabilitySig:vector  ETV
vector 780376  Network.dyn_peer[116]  lookupTimeSig:vector  ETV
vector 780350  Network.dyn_peer[108]  lookupHopsSig:vector  ETV
vector 780351  Network.dyn_peer[108]  lookupStabilitySig:vector  ETV
vector 780352  Network.dyn_peer[108]  lookupTimeSig:vector  ETV
vector 780263  Network.dyn_peer[79]  lookupHopsSig:vector  ETV
vector 780264  Network.dyn_peer[79]  lookupStabilitySig:vector  ETV
vector 780265  Network.dyn_peer[79]  lookupTimeSig:vector  ETV
vector 780683  Network.dyn_peer[219]  lookupHopsSig:vector  ETV
vector 780684  Network.dyn_peer[219]  lookupStabilitySig:vector  ETV
vector 780685  Network.dyn_peer[219]  lookupTimeSig:vector  ETV
vector 780269  Network.dyn_peer[81]  lookupHopsSig:vector  ETV
vector 780270  Network.dyn_peer[81]  lookupStabilitySig:vector  ETV
vector 780271  Network.dyn_peer[81]  lookupTimeSig:vector  ETV
vector 780569  Network.dyn_peer[181]  lookupHopsSig:vector  ETV
vector 780570  Network.dyn_peer[181]  lookupStabilitySig:vector  ETV
vector 780571  Network.dyn_peer[181]  lookupTimeSig:vector  ETV
vector 780512  Network.dyn_peer[162]  lookupHopsSig:vector  ETV
vector 780513  Network.dyn_peer[162]  lookupStabilitySig:vector  ETV
vector 780514  Network.dyn_peer[162]  lookupTimeSig:vector  ETV
vector 780572  Network.dyn_peer[182]  lookupHopsSig:vector  ETV
vector 780573  Network.dyn_peer[182]  lookupStabilitySig:vector  ETV
vector 780574  Network.dyn_peer[182]  lookupTimeSig:vector  ETV
vector 780398  Network.dyn_peer[124]  lookupHopsSig:vector  ETV
vector 780399  Network.dyn_peer[124]  lookupStabilitySig:vector  ETV
vector 780400  Network.dyn_peer[124]  lookupTimeSig:vector  ETV
vector 780458  Network.dyn_peer[144]  lookupHopsSig:vector  ETV
vector 780459  Network.dyn_peer[144]  lookupStabilitySig:vector  ETV
vector 780460  Network.dyn_peer[144]  lookupTimeSig:vector  ETV
vector 780521  Network.dyn_peer[165]  lookupHopsSig:vector  ETV
vector 780522  Network.dyn_peer[165]  lookupStabilitySig:vector  ETV
vector 780523  Network.dyn_peer[165]  lookupTimeSig:vector  ETV
vector 780287  Network.dyn_peer[87]  lookupHopsSig:vector  ETV
vector 780288  Network.dyn_peer[87]  lookupStabilitySig:vector  ETV
vector 780289  Network.dyn_peer[87]  lookupTimeSig:vector  ETV
vector 780377  Network.dyn_peer[117]  lookupHopsSig:vector  ETV
vector 780378  Network.dyn_peer[117]  lookupStabilitySig:vector  ETV
vector 780379  Network.dyn_peer[117]  lookupTimeSig:vector  ETV
vector 780380  Network.dyn_peer[118]  lookupHopsSig:vector  ETV
vector 780381  Network.dyn_peer[118]  lookupStabilitySig:vector  ETV
vector 780382  Network.dyn_peer[118]  lookupTimeSig:vector  ETV
vector 780692  Network.dyn_peer[222]  lookupHopsSig:vector  ETV
vector 780693  Network.dyn_peer[222]  lookupStabilitySig:vector  ETV
vector 780694  Network.dyn_peer[222]  lookupTimeSig:vector  ETV
vector 780485  Network.dyn_peer[153]  lookupHopsSig:vector  ETV
vector 780486  Network.dyn_peer[153]  lookupStabilitySig:vector  ETV
vector 780487  Network.dyn_peer[153]  lookupTimeSig:vector  ETV
vector 780725  Network.dyn_peer[233]  lookupHopsSig:vector  ETV
vector 780726  Network.dyn_peer[233]  lookupStabilitySig:vector  ETV
vector 780727  Network.dyn_peer[233]  lookupTimeSig:vector  ETV
vector 780311  Network.dyn_peer[95]  lookupHopsSig:vector  ETV
vector 780312  Network.dyn_peer[95]  lookupStabilitySig:vector  ETV
vector 780313  Network.dyn_peer[95]  lookupTimeSig:vector  ETV
vector 780401  Network.dyn_peer[125]  lookupHopsSig:vector  ETV