version 2
run Stability2-72-20130528-01:34:02-24168
attr configname Stability2
attr datetime 20130528-01:34:02
attr experiment Stability2
attr inifile omnetpp.ini
attr iterationvars $0=300
attr iterationvars2 "$0=300, $repetition=2"
attr measurement $0=300
attr network Network
attr processid 24168
attr repetition 2
attr replication #2
attr resultdir results
attr runnumber 72
attr seedset 72

vector 2190072  Network.churner  inGoingSizeSig:vector  ETV
vector 2160072  Network.dyn_peer[0]  lookupHopsSig:vector  ETV
vector 2160073  Network.dyn_peer[0]  lookupStabilitySig:vector  ETV
vector 2160074  Network.dyn_peer[0]  lookupTimeSig:vector  ETV
vector 2160093  Network.dyn_peer[7]  lookupHopsSig:vector  ETV
vector 2160094  Network.dyn_peer[7]  lookupStabilitySig:vector  ETV
vector 2160095  Network.dyn_peer[7]  lookupTimeSig:vector  ETV
vector 2160078  Network.dyn_peer[2]  lookupHopsSig:vector  ETV
vector 2160079  Network.dyn_peer[2]  lookupStabilitySig:vector  ETV
vector 2160080  Network.dyn_peer[2]  lookupTimeSig:vector  ETV
vector 2160084  Network.dyn_peer[4]  lookupHopsSig:vector  ETV
vector 2160085  Network.dyn_peer[4]  lookupStabilitySig:vector  ETV
vector 2160086  Network.dyn_peer[4]  lookupTimeSig:vector  ETV
vector 2160090  Network.dyn_peer[6]  lookupHopsSig:vector  ETV
vector 2160091  Network.dyn_peer[6]  lookupStabilitySig:vector  ETV
vector 2160092  Network.dyn_peer[6]  lookupTimeSig:vector  ETV
vector 2160126  Network.dyn_peer[18]  lookupHopsSig:vector  ETV
vector 2160127  Network.dyn_peer[18]  lookupStabilitySig:vector  ETV
vector 2160128  Network.dyn_peer[18]  lookupTimeSig:vector  ETV
vector 2160132  Network.dyn_peer[20]  lookupHopsSig:vector  ETV
vector 2160133  Network.dyn_peer[20]  lookupStabilitySig:vector  ETV
vector 2160134  Network.dyn_peer[20]  lookupTimeSig:vector  ETV
vector 2160075  Network.dyn_peer[1]  lookupHopsSig:vector  ETV
vector 2160076  Network.dyn_peer[1]  lookupStabilitySig:vector  ETV
vector 2160077  Network.dyn_peer[1]  lookupTimeSig:vector  ETV
vector 2160081  Network.dyn_peer[3]  lookupHopsSig:vector  ETV
vector 2160082  Network.dyn_peer[3]  lookupStabilitySig:vector  ETV
vector 2160083  Network.dyn_peer[3]  lookupTimeSig:vector  ETV
vector 2160111  Network.dyn_peer[13]  lookupHopsSig:vector  ETV
vector 2160112  Network.dyn_peer[13]  lookupStabilitySig:vector  ETV
vector 2160113  Network.dyn_peer[13]  lookupTimeSig:vector  ETV
vector 2160120  Network.dyn_peer[16]  lookupHopsSig:vector  ETV
vector 2160121  Network.dyn_peer[16]  lookupStabilitySig:vector  ETV
vector 2160122  Network.dyn_peer[16]  lookupTimeSig:vector  ETV
vector 2160096  Network.dyn_peer[8]  lookupHopsSig:vector  ETV
vector 2160097  Network.dyn_peer[8]  lookupStabilitySig:vector  ETV
vector 2160098  Network.dyn_peer[8]  lookupTimeSig:vector  ETV
vector 2160099  Network.dyn_peer[9]  lookupHopsSig:vector  ETV
vector 2160100  Network.dyn_peer[9]  lookupStabilitySig:vector  ETV
vector 2160101  Network.dyn_peer[9]  lookupTimeSig:vector  ETV
vector 2160105  Network.dyn_peer[11]  lookupHopsSig:vector  ETV
vector 2160106  Network.dyn_peer[11]  lookupStabilitySig:vector  ETV
vector 2160107  Network.dyn_peer[11]  lookupTimeSig:vector  ETV
vector 2160108  Network.dyn_peer[12]  lookupHopsSig:vector  ETV
vector 2160109  Network.dyn_peer[12]  lookupStabilitySig:vector  ETV
vector 2160110  Network.dyn_peer[12]  lookupTimeSig:vector  ETV
vector 2160138  Network.dyn_peer[22]  lookupHopsSig:vector  ETV
vector 2160139  Network.dyn_peer[22]  lookupStabilitySig:vector  ETV
vector 2160140  Network.dyn_peer[22]  lookupTimeSig:vector  ETV
vector 2160087  Network.dyn_peer[5]  lookupHopsSig:vector  ETV
vector 2160088  Network.dyn_peer[5]  lookupStabilitySig:vector  ETV
vector 2160089  Network.dyn_peer[5]  lookupTimeSig:vector  ETV
vector 2160147  Network.dyn_peer[25]  lookupHopsSig:vector  ETV
vector 2160148  Network.dyn_peer[25]  lookupStabilitySig:vector  ETV
vector 2160149  Network.dyn_peer[25]  lookupTimeSig:vector  ETV
vector 2160177  Network.dyn_peer[35]  lookupHopsSig:vector  ETV
vector 2160178  Network.dyn_peer[35]  lookupStabilitySig:vector  ETV
vector 2160179  Network.dyn_peer[35]  lookupTimeSig:vector  ETV
vector 2160150  Network.dyn_peer[26]  lookupHopsSig:vector  ETV
vector 2160151  Network.dyn_peer[26]  lookupStabilitySig:vector  ETV
vector 2160152  Network.dyn_peer[26]  lookupTimeSig:vector  ETV
vector 2160123  Network.dyn_peer[17]  lookupHopsSig:vector  ETV
vector 2160124  Network.dyn_peer[17]  lookupStabilitySig:vector  ETV
vector 2160125  Network.dyn_peer[17]  lookupTimeSig:vector  ETV
vector 2160144  Network.dyn_peer[24]  lookupHopsSig:vector  ETV
vector 2160145  Network.dyn_peer[24]  lookupStabilitySig:vector  ETV
vector 2160146  Network.dyn_peer[24]  lookupTimeSig:vector  ETV
vector 2160174  Network.dyn_peer[34]  lookupHopsSig:vector  ETV
vector 2160175  Network.dyn_peer[34]  lookupStabilitySig:vector  ETV
vector 2160176  Network.dyn_peer[34]  lookupTimeSig:vector  ETV
vector 2160210  Network.dyn_peer[46]  lookupHopsSig:vector  ETV
vector 2160211  Network.dyn_peer[46]  lookupStabilitySig:vector  ETV
vector 2160212  Network.dyn_peer[46]  lookupTimeSig:vector  ETV
vector 2160102  Network.dyn_peer[10]  lookupHopsSig:vector  ETV
vector 2160103  Network.dyn_peer[10]  lookupStabilitySig:vector  ETV
vector 2160104  Network.dyn_peer[10]  lookupTimeSig:vector  ETV
vector 2160135  Network.dyn_peer[21]  lookupHopsSig:vector  ETV
vector 2160136  Network.dyn_peer[21]  lookupStabilitySig:vector  ETV
vector 2160137  Network.dyn_peer[21]  lookupTimeSig:vector  ETV
vector 2160141  Network.dyn_peer[23]  lookupHopsSig:vector  ETV
vector 2160142  Network.dyn_peer[23]  lookupStabilitySig:vector  ETV
vector 2160143  Network.dyn_peer[23]  lookupTimeSig:vector  ETV
vector 2160114  Network.dyn_peer[14]  lookupHopsSig:vector  ETV
vector 2160115  Network.dyn_peer[14]  lookupStabilitySig:vector  ETV
vector 2160116  Network.dyn_peer[14]  lookupTimeSig:vector  ETV
vector 2160117  Network.dyn_peer[15]  lookupHopsSig:vector  ETV
vector 2160118  Network.dyn_peer[15]  lookupStabilitySig:vector  ETV
vector 2160119  Network.dyn_peer[15]  lookupTimeSig:vector  ETV
vector 2160129  Network.dyn_peer[19]  lookupHopsSig:vector  ETV
vector 2160130  Network.dyn_peer[19]  lookupStabilitySig:vector  ETV
vector 2160131  Network.dyn_peer[19]  lookupTimeSig:vector  ETV
vector 2160165  Network.dyn_peer[31]  lookupHopsSig:vector  ETV
vector 2160166  Network.dyn_peer[31]  lookupStabilitySig:vector  ETV
vector 2160167  Network.dyn_peer[31]  lookupTimeSig:vector  ETV
vector 2160159  Network.dyn_peer[29]  lookupHopsSig:vector  ETV
vector 2160160  Network.dyn_peer[29]  lookupStabilitySig:vector  ETV
vector 2160161  Network.dyn_peer[29]  lookupTimeSig:vector  ETV
vector 2160189  Network.dyn_peer[39]  lookupHopsSig:vector  ETV
vector 2160190  Network.dyn_peer[39]  lookupStabilitySig:vector  ETV
vector 2160191  Network.dyn_peer[39]  lookupTimeSig:vector  ETV
vector 2160291  Network.dyn_peer[73]  lookupHopsSig:vector  ETV
vector 2160292  Network.dyn_peer[73]  lookupStabilitySig:vector  ETV
vector 2160293  Network.dyn_peer[73]  lookupTimeSig:vector  ETV
vector 2160204  Network.dyn_peer[44]  lookupHopsSig:vector  ETV
vector 2160205  Network.dyn_peer[44]  lookupStabilitySig:vector  ETV
vector 2160206  Network.dyn_peer[44]  lookupTimeSig:vector  ETV
vector 2160240  Network.dyn_peer[56]  lookupHopsSig:vector  ETV
vector 2160241  Network.dyn_peer[56]  lookupStabilitySig:vector  ETV
vector 2160242  Network.dyn_peer[56]  lookupTimeSig:vector  ETV
vector 2160153  Network.dyn_peer[27]  lookupHopsSig:vector  ETV
vector 2160154  Network.dyn_peer[27]  lookupStabilitySig:vector  ETV
vector 2160155  Network.dyn_peer[27]  lookupTimeSig:vector  ETV
vector 2160249  Network.dyn_peer[59]  lookupHopsSig:vector  ETV
vector 2160250  Network.dyn_peer[59]  lookupStabilitySig:vector  ETV
vector 2160251  Network.dyn_peer[59]  lookupTimeSig:vector  ETV
vector 2160225  Network.dyn_peer[51]  lookupHopsSig:vector  ETV
vector 2160226  Network.dyn_peer[51]  lookupStabilitySig:vector  ETV
vector 2160227  Network.dyn_peer[51]  lookupTimeSig:vector  ETV
vector 2160255  Network.dyn_peer[61]  lookupHopsSig:vector  ETV
vector 2160256  Network.dyn_peer[61]  lookupStabilitySig:vector  ETV
vector 2160257  Network.dyn_peer[61]  lookupTimeSig:vector  ETV
vector 2160198  Network.dyn_peer[42]  lookupHopsSig:vector  ETV
vector 2160199  Network.dyn_peer[42]  lookupStabilitySig:vector  ETV
vector 2160200  Network.dyn_peer[42]  lookupTimeSig:vector  ETV
vector 2160180  Network.dyn_peer[36]  lookupHopsSig:vector  ETV
vector 2160181  Network.dyn_peer[36]  lookupStabilitySig:vector  ETV
vector 2160182  Network.dyn_peer[36]  lookupTimeSig:vector  ETV
vector 2160270  Network.dyn_peer[66]  lookupHopsSig:vector  ETV
vector 2160271  Network.dyn_peer[66]  lookupStabilitySig:vector  ETV
vector 2160272  Network.dyn_peer[66]  lookupTimeSig:vector  ETV
vector 2160201  Network.dyn_peer[43]  lookupHopsSig:vector  ETV
vector 2160202  Network.dyn_peer[43]  lookupStabilitySig:vector  ETV
vector 2160203  Network.dyn_peer[43]  lookupTimeSig:vector  ETV
vector 2160264  Network.dyn_peer[64]  lookupHopsSig:vector  ETV
vector 2160265  Network.dyn_peer[64]  lookupStabilitySig:vector  ETV
vector 2160266  Network.dyn_peer[64]  lookupTimeSig:vector  ETV
vector 2160354  Network.dyn_peer[94]  lookupHopsSig:vector  ETV
vector 2160355  Network.dyn_peer[94]  lookupStabilitySig:vector  ETV
vector 2160356  Network.dyn_peer[94]  lookupTimeSig:vector  ETV
vector 2160237  Network.dyn_peer[55]  lookupHopsSig:vector  ETV
vector 2160238  Network.dyn_peer[55]  lookupStabilitySig:vector  ETV
vector 2160239  Network.dyn_peer[55]  lookupTimeSig:vector  ETV
vector 2160213  Network.dyn_peer[47]  lookupHopsSig:vector  ETV
vector 2160214  Network.dyn_peer[47]  lookupStabilitySig:vector  ETV
vector 2160215  Network.dyn_peer[47]  lookupTimeSig:vector  ETV
vector 2160216  Network.dyn_peer[48]  lookupHopsSig:vector  ETV
vector 2160217  Network.dyn_peer[48]  lookupStabilitySig:vector  ETV
vector 2160218  Network.dyn_peer[48]  lookupTimeSig:vector  ETV
vector 2160162  Network.dyn_peer[30]  lookupHopsSig:vector  ETV
vector 2160163  Network.dyn_peer[30]  lookupStabilitySig:vector  ETV
vector 2160164  Network.dyn_peer[30]  lookupTimeSig:vector  ETV
vector 2160273  Network.dyn_peer[67]  lookupHopsSig:vector  ETV
vector 2160274  Network.dyn_peer[67]  lookupStabilitySig:vector  ETV
vector 2160275  Network.dyn_peer[67]  lookupTimeSig:vector  ETV
vector 2160156  Network.dyn_peer[28]  lookupHopsSig:vector  ETV
vector 2160157  Network.dyn_peer[28]  lookupStabilitySig:vector  ETV
vector 2160158  Network.dyn_peer[28]  lookupTimeSig:vector  ETV
vector 2160219  Network.dyn_peer[49]  lookupHopsSig:vector  ETV
vector 2160220  Network.dyn_peer[49]  lookupStabilitySig:vector  ETV
vector 2160221  Network.dyn_peer[49]  lookupTimeSig:vector  ETV
vector 2160192  Network.dyn_peer[40]  lookupHopsSig:vector  ETV
vector 2160193  Network.dyn_peer[40]  lookupStabilitySig:vector  ETV
vector 2160194  Network.dyn_peer[40]  lookupTimeSig:vector  ETV
vector 2160387  Network.dyn_peer[105]  lookupHopsSig:vector  ETV
vector 2160388  Network.dyn_peer[105]  lookupStabilitySig:vector  ETV
vector 2160389  Network.dyn_peer[105]  lookupTimeSig:vector  ETV
vector 2160378  Network.dyn_peer[102]  lookupHopsSig:vector  ETV
vector 2160379  Network.dyn_peer[102]  lookupStabilitySig:vector  ETV
vector 2160380  Network.dyn_peer[102]  lookupTimeSig:vector  ETV
vector 2160171  Network.dyn_peer[33]  lookupHopsSig:vector  ETV
vector 2160172  Network.dyn_peer[33]  lookupStabilitySig:vector  ETV
vector 2160173  Network.dyn_peer[33]  lookupTimeSig:vector  ETV
vector 2160231  Network.dyn_peer[53]  lookupHopsSig:vector  ETV
vector 2160232  Network.dyn_peer[53]  lookupStabilitySig:vector  ETV
vector 2160233  Network.dyn_peer[53]  lookupTimeSig:vector  ETV
vector 2160294  Network.dyn_peer[74]  lookupHopsSig:vector  ETV
vector 2160295  Network.dyn_peer[74]  lookupStabilitySig:vector  ETV
vector 2160296  Network.dyn_peer[74]  lookupTimeSig:vector  ETV
vector 2160267  Network.dyn_peer[65]  lookupHopsSig:vector  ETV
vector 2160268  Network.dyn_peer[65]  lookupStabilitySig:vector  ETV
vector 2160269  Network.dyn_peer[65]  lookupTimeSig:vector  ETV
vector 2160330  Network.dyn_peer[86]  lookupHopsSig:vector  ETV
vector 2160331  Network.dyn_peer[86]  lookupStabilitySig:vector  ETV
vector 2160332  Network.dyn_peer[86]  lookupTimeSig:vector  ETV
vector 2160423  Network.dyn_peer[117]  lookupHopsSig:vector  ETV
vector 2160424  Network.dyn_peer[117]  lookupStabilitySig:vector  ETV
vector 2160425  Network.dyn_peer[117]  lookupTimeSig:vector  ETV
vector 2160186  Network.dyn_peer[38]  lookupHopsSig:vector  ETV
vector 2160187  Network.dyn_peer[38]  lookupStabilitySig:vector  ETV
vector 2160188  Network.dyn_peer[38]  lookupTimeSig:vector  ETV
vector 2160306  Network.dyn_peer[78]  lookupHopsSig:vector  ETV
vector 2160307  Network.dyn_peer[78]  lookupStabilitySig:vector  ETV
vector 2160308  Network.dyn_peer[78]  lookupTimeSig:vector  ETV
vector 2160279  Network.dyn_peer[69]  lookupHopsSig:vector  ETV
vector 2160280  Network.dyn_peer[69]  lookupStabilitySig:vector  ETV
vector 2160281  Network.dyn_peer[69]  lookupTimeSig:vector  ETV
vector 2160222  Network.dyn_peer[50]  lookupHopsSig:vector  ETV
vector 2160223  Network.dyn_peer[50]  lookupStabilitySig:vector  ETV
vector 2160224  Network.dyn_peer[50]  lookupTimeSig:vector  ETV
vector 2160252  Network.dyn_peer[60]  lookupHopsSig:vector  ETV
vector 2160253  Network.dyn_peer[60]  lookupStabilitySig:vector  ETV
vector 2160254  Network.dyn_peer[60]  lookupTimeSig:vector  ETV
vector 2160315  Network.dyn_peer[81]  lookupHopsSig:vector  ETV
vector 2160316  Network.dyn_peer[81]  lookupStabilitySig:vector  ETV
vector 2160317  Network.dyn_peer[81]  lookupTimeSig:vector  ETV
vector 2160468  Network.dyn_peer[132]  lookupHopsSig:vector  ETV
vector 2160469  Network.dyn_peer[132]  lookupStabilitySig:vector  ETV
vector 2160470  Network.dyn_peer[132]  lookupTimeSig:vector  ETV
vector 2160351  Network.dyn_peer[93]  lookupHopsSig:vector  ETV
vector 2160352  Network.dyn_peer[93]  lookupStabilitySig:vector  ETV
vector 2160353  Network.dyn_peer[93]  lookupTimeSig:vector  ETV
vector 2160297  Network.dyn_peer[75]  lookupHopsSig:vector  ETV
vector 2160298  Network.dyn_peer[75]  lookupStabilitySig:vector  ETV
vector 2160299  Network.dyn_peer[75]  lookupTimeSig:vector  ETV
vector 2160417  Network.dyn_peer[115]  lookupHopsSig:vector  ETV
vector 2160418  Network.dyn_peer[115]  lookupStabilitySig:vector  ETV
vector 2160419  Network.dyn_peer[115]  lookupTimeSig:vector  ETV
vector 2160420  Network.dyn_peer[116]  lookupHopsSig:vector  ETV
vector 2160421  Network.dyn_peer[116]  lookupStabilitySig:vector  ETV
vector 2160422  Network.dyn_peer[116]  lookupTimeSig:vector  ETV
vector 2160303  Network.dyn_peer[77]  lookupHopsSig:vector  ETV
vector 2160304  Network.dyn_peer[77]  lookupStabilitySig:vector  ETV
vector 2160305  Network.dyn_peer[77]  lookupTimeSig:vector  ETV
vector 2160276  Network.dyn_peer[68]  lookupHopsSig:vector  ETV
vector 2160277  Network.dyn_peer[68]  lookupStabilitySig:vector  ETV
vector 2160278  Network.dyn_peer[68]  lookupTimeSig:vector  ETV
vector 2160366  Network.dyn_peer[98]  lookupHopsSig:vector  ETV
vector 2160367  Network.dyn_peer[98]  lookupStabilitySig:vector  ETV
vector 2160368  Network.dyn_peer[98]  lookupTimeSig:vector  ETV
vector 2160372  Network.dyn_peer[100]  lookupHopsSig:vector  ETV
vector 2160373  Network.dyn_peer[100]  lookupStabilitySig:vector  ETV
vector 2160374  Network.dyn_peer[100]  lookupTimeSig:vector  ETV
vector 2160435  Network.dyn_peer[121]  lookupHopsSig:vector  ETV
vector 2160436  Network.dyn_peer[121]  lookupStabilitySig:vector  ETV
vector 2160437  Network.dyn_peer[121]  lookupTimeSig:vector  ETV
vector 2160168  Network.dyn_peer[32]  lookupHopsSig:vector  ETV
vector 2160169  Network.dyn_peer[32]  lookupStabilitySig:vector  ETV
vector 2160170  Network.dyn_peer[32]  lookupTimeSig:vector  ETV
vector 2160288  Network.dyn_peer[72]  lookupHopsSig:vector  ETV
vector 2160289  Network.dyn_peer[72]  lookupStabilitySig:vector  ETV
vector 2160290  Network.dyn_peer[72]  lookupTimeSig:vector  ETV
vector 2160321  Network.dyn_peer[83]  lookupHopsSig:vector  ETV
vector 2160322  Network.dyn_peer[83]  lookupStabilitySig:vector  ETV
vector 2160323  Network.dyn_peer[83]  lookupTimeSig:vector  ETV
vector 2160384  Network.dyn_peer[104]  lookupHopsSig:vector  ETV
vector 2160385  Network.dyn_peer[104]  lookupStabilitySig:vector  ETV
vector 2160386  Network.dyn_peer[104]  lookupTimeSig:vector  ETV
vector 2160414  Network.dyn_peer[114]  lookupHopsSig:vector  ETV
vector 2160415  Network.dyn_peer[114]  lookupStabilitySig:vector  ETV
vector 2160416  Network.dyn_peer[114]  lookupTimeSig:vector  ETV
vector 2160444  Network.dyn_peer[124]  lookupHopsSig:vector  ETV
vector 2160445  Network.dyn_peer[124]  lookupStabilitySig:vector  ETV
vector 2160446  Network.dyn_peer[124]  lookupTimeSig:vector  ETV
vector 2160300  Network.dyn_peer[76]  lookupHopsSig:vector  ETV
vector 2160301  Network.dyn_peer[76]  lookupStabilitySig:vector  ETV
vector 2160302  Network.dyn_peer[76]  lookupTimeSig:vector  ETV
vector 2160228  Network.dyn_peer[52]  lookupHopsSig:vector  ETV
vector 2160229  Network.dyn_peer[52]  lookupStabilitySig:vector  ETV
vector 2160230  Network.dyn_peer[52]  lookupTimeSig:vector  ETV
vector 2160531  Network.dyn_peer[153]  lookupHopsSig:vector  ETV
vector 2160532  Network.dyn_peer[153]  lookupStabilitySig:vector  ETV
vector 2160533  Network.dyn_peer[153]  lookupTimeSig:vector  ETV
vector 2160393  Network.dyn_peer[107]  lookupHopsSig:vector  ETV
vector 2160394  Network.dyn_peer[107]  lookupStabilitySig:vector  ETV
vector 2160395  Network.dyn_peer[107]  lookupTimeSig:vector  ETV
vector 2160426  Network.dyn_peer[118]  lookupHopsSig:vector  ETV
vector 2160427  Network.dyn_peer[118]  lookupStabilitySig:vector  ETV
vector 2160428  Network.dyn_peer[118]  lookupTimeSig:vector  ETV
vector 2160516  Network.dyn_peer[148]  lookupHopsSig:vector  ETV
vector 2160517  Network.dyn_peer[148]  lookupStabilitySig:vector  ETV
vector 2160518  Network.dyn_peer[148]  lookupTimeSig:vector  ETV
vector 2160282  Network.dyn_peer[70]  lookupHopsSig:vector  ETV
vector 2160283  Network.dyn_peer[70]  lookupStabilitySig:vector  ETV
vector 2160284  Network.dyn_peer[70]  lookupTimeSig:vector  ETV
vector 2160318  Network.dyn_peer[82]  lookupHopsSig:vector  ETV
vector 2160319  Network.dyn_peer[82]  lookupStabilitySig:vector  ETV
vector 2160320  Network.dyn_peer[82]  lookupTimeSig:vector  ETV
vector 2160243  Network.dyn_peer[57]  lookupHopsSig:vector  ETV
vector 2160244  Network.dyn_peer[57]  lookupStabilitySig:vector  ETV
vector 2160245  Network.dyn_peer[57]  lookupTimeSig:vector  ETV
vector 2160474  Network.dyn_peer[134]  lookupHopsSig:vector  ETV
vector 2160475  Network.dyn_peer[134]  lookupStabilitySig:vector  ETV
vector 2160476  Network.dyn_peer[134]  lookupTimeSig:vector  ETV
vector 2160207  Network.dyn_peer[45]  lookupHopsSig:vector  ETV
vector 2160208  Network.dyn_peer[45]  lookupStabilitySig:vector  ETV
vector 2160209  Network.dyn_peer[45]  lookupTimeSig:vector  ETV
vector 2160183  Network.dyn_peer[37]  lookupHopsSig:vector  ETV
vector 2160184  Network.dyn_peer[37]  lookupStabilitySig:vector  ETV
vector 2160185  Network.dyn_peer[37]  lookupTimeSig:vector  ETV
vector 2160363  Network.dyn_peer[97]  lookupHopsSig:vector  ETV
vector 2160364  Network.dyn_peer[97]  lookupStabilitySig:vector  ETV
vector 2160365  Network.dyn_peer[97]  lookupTimeSig:vector  ETV
vector 2160501  Network.dyn_peer[143]  lookupHopsSig:vector  ETV
vector 2160502  Network.dyn_peer[143]  lookupStabilitySig:vector  ETV
vector 2160503  Network.dyn_peer[143]  lookupTimeSig:vector  ETV
vector 2160324  Network.dyn_peer[84]  lookupHopsSig:vector  ETV
vector 2160325  Network.dyn_peer[84]  lookupStabilitySig:vector  ETV
vector 2160326  Network.dyn_peer[84]  lookupTimeSig:vector  ETV
vector 2160336  Network.dyn_peer[88]  lookupHopsSig:vector  ETV
vector 2160337  Network.dyn_peer[88]  lookupStabilitySig:vector  ETV
vector 2160338  Network.dyn_peer[88]  lookupTimeSig:vector  ETV
vector 2160369  Network.dyn_peer[99]  lookupHopsSig:vector  ETV
vector 2160370  Network.dyn_peer[99]  lookupStabilitySig:vector  ETV
vector 2160371  Network.dyn_peer[99]  lookupTimeSig:vector  ETV
vector 2160459  Network.dyn_peer[129]  lookupHopsSig:vector  ETV
vector 2160460  Network.dyn_peer[129]  lookupStabilitySig:vector  ETV
vector 2160461  Network.dyn_peer[129]  lookupTimeSig:vector  ETV
vector 2160522  Network.dyn_peer[150]  lookupHopsSig:vector  ETV
vector 2160523  Network.dyn_peer[150]  lookupStabilitySig:vector  ETV
vector 2160524  Network.dyn_peer[150]  lookupTimeSig:vector  ETV
vector 2160525  Network.dyn_peer[151]  lookupHopsSig:vector  ETV
vector 2160526  Network.dyn_peer[151]  lookupStabilitySig:vector  ETV
vector 2160527  Network.dyn_peer[151]  lookupTimeSig:vector  ETV
vector 2160408  Network.dyn_peer[112]  lookupHopsSig:vector  ETV
vector 2160409  Network.dyn_peer[112]  lookupStabilitySig:vector  ETV
vector 2160410  Network.dyn_peer[112]  lookupTimeSig:vector  ETV
vector 2160234  Network.dyn_peer[54]  lookupHopsSig:vector  ETV
vector 2160235  Network.dyn_peer[54]  lookupStabilitySig:vector  ETV
vector 2160236  Network.dyn_peer[54]  lookupTimeSig:vector  ETV
vector 2160357  Network.dyn_peer[95]  lookupHopsSig:vector  ETV
vector 2160358  Network.dyn_peer[95]  lookupStabilitySig:vector  ETV
vector 2160359  Network.dyn_peer[95]  lookupTimeSig:vector  ETV
vector 2160456  Network.dyn_peer[128]  lookupHopsSig:vector  ETV
vector 2160457  Network.dyn_peer[128]  lookupStabilitySig:vector  ETV
vector 2160458  Network.dyn_peer[128]  lookupTimeSig:vector  ETV
vector 2160309  Network.dyn_peer[79]  lookupHopsSig:vector  ETV
vector 2160310  Network.dyn_peer[79]  lookupStabilitySig:vector  ETV
vector 2160311  Network.dyn_peer[79]  lookupTimeSig:vector  ETV
vector 2160402  Network.dyn_peer[110]  lookupHopsSig:vector  ETV
vector 2160403  Network.dyn_peer[110]  lookupStabilitySig:vector  ETV
vector 2160404  Network.dyn_peer[110]  lookupTimeSig:vector  ETV
vector 2160195  Network.dyn_peer[41]  lookupHopsSig:vector  ETV
vector 2160196  Network.dyn_peer[41]  lookupStabilitySig:vector  ETV
vector 2160197  Network.dyn_peer[41]  lookupTimeSig:vector  ETV
vector 2160285  Network.dyn_peer[71]  lookupHopsSig:vector  ETV
vector 2160286  Network.dyn_peer[71]  lookupStabilitySig:vector  ETV
vector 2160287  Network.dyn_peer[71]  lookupTimeSig:vector  ETV
vector 2160345  Network.dyn_peer[91]  lookupHopsSig:vector  ETV
vector 2160346  Network.dyn_peer[91]  lookupStabilitySig:vector  ETV
vector 2160347  Network.dyn_peer[91]  lookupTimeSig:vector  ETV
vector 2160561  Network.dyn_peer[163]  lookupHopsSig:vector  ETV
vector 2160562  Network.dyn_peer[163]  lookupStabilitySig:vector  ETV
vector 2160563  Network.dyn_peer[163]  lookupTimeSig:vector  ETV
vector 2160447  Network.dyn_peer[125]  lookupHopsSig:vector  ETV
vector 2160448  Network.dyn_peer[125]  lookupStabilitySig:vector  ETV
vector 2160449  Network.dyn_peer[125]  lookupTimeSig:vector  ETV
vector 2160627  Network.dyn_peer[185]  lookupHopsSig:vector  ETV
vector 2160628  Network.dyn_peer[185]  lookupStabilitySig:vector  ETV
vector 2160629  Network.dyn_peer[185]  lookupTimeSig:vector  ETV
vector 2160546  Network.dyn_peer[158]  lookupHopsSig:vector  ETV
vector 2160547  Network.dyn_peer[158]  lookupStabilitySig:vector  ETV
vector 2160548  Network.dyn_peer[158]  lookupTimeSig:vector  ETV
vector 2160636  Network.dyn_peer[188]  lookupHopsSig:vector  ETV
vector 2160637  Network.dyn_peer[188]  lookupStabilitySig:vector  ETV
vector 2160638  Network.dyn_peer[188]  lookupTimeSig:vector  ETV
vector 2160549  Network.dyn_peer[159]  lookupHopsSig:vector  ETV
vector 2160550  Network.dyn_peer[159]  lookupStabilitySig:vector  ETV
vector 2160551  Network.dyn_peer[159]  lookupTimeSig:vector  ETV
vector 2160375  Network.dyn_peer[101]  lookupHopsSig:vector  ETV
vector 2160376  Network.dyn_peer[101]  lookupStabilitySig:vector  ETV
vector 2160377  Network.dyn_peer[101]  lookupTimeSig:vector  ETV
vector 2160555  Network.dyn_peer[161]  lookupHopsSig:vector  ETV
vector 2160556  Network.dyn_peer[161]  lookupStabilitySig:vector  ETV
vector 2160557  Network.dyn_peer[161]  lookupTimeSig:vector  ETV
vector 2160675  Network.dyn_peer[201]  lookupHopsSig:vector  ETV
vector 2160676  Network.dyn_peer[201]  lookupStabilitySig:vector  ETV
vector 2160677  Network.dyn_peer[201]  lookupTimeSig:vector  ETV
vector 2160258  Network.dyn_peer[62]  lookupHopsSig:vector  ETV
vector 2160259  Network.dyn_peer[62]  lookupStabilitySig:vector  ETV
vector 2160260  Network.dyn_peer[62]  lookupTimeSig:vector  ETV
vector 2160498  Network.dyn_peer[142]  lookupHopsSig:vector  ETV
vector 2160499  Network.dyn_peer[142]  lookupStabilitySig:vector  ETV
vector 2160500  Network.dyn_peer[142]  lookupTimeSig:vector  ETV
vector 2160261  Network.dyn_peer[63]  lookupHopsSig:vector  ETV
vector 2160262  Network.dyn_peer[63]  lookupStabilitySig:vector  ETV
vector 2160263  Network.dyn_peer[63]  lookupTimeSig:vector  ETV
vector 2160591  Network.dyn_peer[173]  lookupHopsSig:vector  ETV
vector 2160592  Network.dyn_peer[173]  lookupStabilitySig:vector  ETV
vector 2160593  Network.dyn_peer[173]  lookupTimeSig:vector  ETV
vector 2160360  Network.dyn_peer[96]  lookupHopsSig:vector  ETV
vector 2160361  Network.dyn_peer[96]  lookupStabilitySig:vector  ETV
vector 2160362  Network.dyn_peer[96]  lookupTimeSig:vector  ETV
vector 2160540  Network.dyn_peer[156]  lookupHopsSig:vector  ETV
vector 2160541  Network.dyn_peer[156]  lookupStabilitySig:vector  ETV
vector 2160542  Network.dyn_peer[156]  lookupTimeSig:vector  ETV
vector 2160570  Network.dyn_peer[166]  lookupHopsSig:vector  ETV
vector 2160571  Network.dyn_peer[166]  lookupStabilitySig:vector  ETV
vector 2160572  Network.dyn_peer[166]  lookupTimeSig:vector  ETV
vector 2160432  Network.dyn_peer[120]  lookupHopsSig:vector  ETV
vector 2160433  Network.dyn_peer[120]  lookupStabilitySig:vector  ETV
vector 2160434  Network.dyn_peer[120]  lookupTimeSig:vector  ETV
vector 2160462  Network.dyn_peer[130]  lookupHopsSig:vector  ETV
vector 2160463  Network.dyn_peer[130]  lookupStabilitySig:vector  ETV
vector 2160464  Network.dyn_peer[130]  lookupTimeSig:vector  ETV
vector 2160672  Network.dyn_peer[200]  lookupHopsSig:vector  ETV
vector 2160673  Network.dyn_peer[200]  lookupStabilitySig:vector  ETV
vector 2160674  Network.dyn_peer[200]  lookupTimeSig:vector  ETV
vector 2160405  Network.dyn_peer[111]  lookupHopsSig:vector  ETV
vector 2160406  Network.dyn_peer[111]  lookupStabilitySig:vector  ETV
vector 2160407  Network.dyn_peer[111]  lookupTimeSig:vector  ETV
vector 2160615  Network.dyn_peer[181]  lookupHopsSig:vector  ETV
vector 2160616  Network.dyn_peer[181]  lookupStabilitySig:vector  ETV
vector 2160617  Network.dyn_peer[181]  lookupTimeSig:vector  ETV
vector 2160348  Network.dyn_peer[92]  lookupHopsSig:vector  ETV
vector 2160349  Network.dyn_peer[92]  lookupStabilitySig:vector  ETV
vector 2160350  Network.dyn_peer[92]  lookupTimeSig:vector  ETV
vector 2160411  Network.dyn_peer[113]  lookupHopsSig:vector  ETV
vector 2160412  Network.dyn_peer[113]  lookupStabilitySig:vector  ETV
vector 2160413  Network.dyn_peer[113]  lookupTimeSig:vector  ETV
vector 2160654  Network.dyn_peer[194]  lookupHopsSig:vector  ETV
vector 2160655  Network.dyn_peer[194]  lookupStabilitySig:vector  ETV
vector 2160656  Network.dyn_peer[194]  lookupTimeSig:vector  ETV
vector 2160390  Network.dyn_peer[106]  lookupHopsSig:vector  ETV
vector 2160391  Network.dyn_peer[106]  lookupStabilitySig:vector  ETV
vector 2160392  Network.dyn_peer[106]  lookupTimeSig:vector  ETV
vector 2160510  Network.dyn_peer[146]  lookupHopsSig:vector  ETV
vector 2160511  Network.dyn_peer[146]  lookupStabilitySig:vector  ETV
vector 2160512  Network.dyn_peer[146]  lookupTimeSig:vector  ETV
vector 2160333  Network.dyn_peer[87]  lookupHopsSig:vector  ETV
vector 2160334  Network.dyn_peer[87]  lookupStabilitySig:vector  ETV
vector 2160335  Network.dyn_peer[87]  lookupTimeSig:vector  ETV
vector 2160633  Network.dyn_peer[187]  lookupHopsSig:vector  ETV
vector 2160634  Network.dyn_peer[187]  lookupStabilitySig:vector  ETV
vector 2160635  Network.dyn_peer[187]  lookupTimeSig:vector  ETV
vector 2160726  Network.dyn_peer[218]  lookupHopsSig:vector  ETV
vector 2160727  Network.dyn_peer[218]  lookupStabilitySig:vector  ETV
vector 2160728  Network.dyn_peer[218]  lookupTimeSig:vector  ETV
vector 2160429  Network.dyn_peer[119]  lookupHopsSig:vector  ETV
vector 2160430  Network.dyn_peer[119]  lookupStabilitySig:vector  ETV
vector 2160431  Network.dyn_peer[119]  lookupTimeSig:vector  ETV
vector 2160492  Network.dyn_peer[140]  lookupHopsSig:vector  ETV
vector 2160493  Network.dyn_peer[140]  lookupStabilitySig:vector  ETV
vector 2160494  Network.dyn_peer[140]  lookupTimeSig:vector  ETV
vector 2160465  Network.dyn_peer[131]  lookupHopsSig:vector  ETV
vector 2160466  Network.dyn_peer[131]  lookupStabilitySig:vector  ETV
vector 2160467  Network.dyn_peer[131]  lookupTimeSig:vector  ETV
vector 2160618  Network.dyn_peer[182]  lookupHopsSig:vector  ETV
vector 2160619  Network.dyn_peer[182]  lookupStabilitySig:vector  ETV
vector 2160620  Network.dyn_peer[182]  lookupTimeSig:vector  ETV
vector 2160708  Network.dyn_peer[212]  lookupHopsSig:vector  ETV
vector 2160709  Network.dyn_peer[212]  lookupStabilitySig:vector  ETV
vector 2160710  Network.dyn_peer[212]  lookupTimeSig:vector  ETV
vector 2160621  Network.dyn_peer[183]  lookupHopsSig:vector  ETV
vector 2160622  Network.dyn_peer[183]  lookupStabilitySig:vector  ETV
vector 2160623  Network.dyn_peer[183]  lookupTimeSig:vector  ETV
vector 2160477  Network.dyn_peer[135]  lookupHopsSig:vector  ETV
vector 2160478  Network.dyn_peer[135]  lookupStabilitySig:vector  ETV
vector 2160479  Network.dyn_peer[135]  lookupTimeSig:vector  ETV