version 2
run Stability2-73-20130528-01:34:38-24168
attr configname Stability2
attr datetime 20130528-01:34:38
attr experiment Stability2
attr inifile omnetpp.ini
attr iterationvars $0=300
attr iterationvars2 "$0=300, $repetition=3"
attr measurement $0=300
attr network Network
attr processid 24168
attr repetition 3
attr replication #3
attr resultdir results
attr runnumber 73
attr seedset 73

vector 2220073  Network.churner  inGoingSizeSig:vector  ETV
vector 2190085  Network.dyn_peer[4]  lookupHopsSig:vector  ETV
vector 2190086  Network.dyn_peer[4]  lookupStabilitySig:vector  ETV
vector 2190087  Network.dyn_peer[4]  lookupTimeSig:vector  ETV
vector 2190088  Network.dyn_peer[5]  lookupHopsSig:vector  ETV
vector 2190089  Network.dyn_peer[5]  lookupStabilitySig:vector  ETV
vector 2190090  Network.dyn_peer[5]  lookupTimeSig:vector  ETV
vector 2190091  Network.dyn_peer[6]  lookupHopsSig:vector  ETV
vector 2190092  Network.dyn_peer[6]  lookupStabilitySig:vector  ETV
vector 2190093  Network.dyn_peer[6]  lookupTimeSig:vector  ETV
vector 2190094  Network.dyn_peer[7]  lookupHopsSig:vector  ETV
vector 2190095  Network.dyn_peer[7]  lookupStabilitySig:vector  ETV
vector 2190096  Network.dyn_peer[7]  lookupTimeSig:vector  ETV
vector 2190097  Network.dyn_peer[8]  lookupHopsSig:vector  ETV
vector 2190098  Network.dyn_peer[8]  lookupStabilitySig:vector  ETV
vector 2190099  Network.dyn_peer[8]  lookupTimeSig:vector  ETV
vector 2190073  Network.dyn_peer[0]  lookupHopsSig:vector  ETV
vector 2190074  Network.dyn_peer[0]  lookupStabilitySig:vector  ETV
vector 2190075  Network.dyn_peer[0]  lookupTimeSig:vector  ETV
vector 2190076  Network.dyn_peer[1]  lookupHopsSig:vector  ETV
vector 2190077  Network.dyn_peer[1]  lookupStabilitySig:vector  ETV
vector 2190078  Network.dyn_peer[1]  lookupTimeSig:vector  ETV
vector 2190106  Network.dyn_peer[11]  lookupHopsSig:vector  ETV
vector 2190107  Network.dyn_peer[11]  lookupStabilitySig:vector  ETV
vector 2190108  Network.dyn_peer[11]  lookupTimeSig:vector  ETV
vector 2190112  Network.dyn_peer[13]  lookupHopsSig:vector  ETV
vector 2190113  Network.dyn_peer[13]  lookupStabilitySig:vector  ETV
vector 2190114  Network.dyn_peer[13]  lookupTimeSig:vector  ETV
vector 2190142  Network.dyn_peer[23]  lookupHopsSig:vector  ETV
vector 2190143  Network.dyn_peer[23]  lookupStabilitySig:vector  ETV
vector 2190144  Network.dyn_peer[23]  lookupTimeSig:vector  ETV
vector 2190118  Network.dyn_peer[15]  lookupHopsSig:vector  ETV
vector 2190119  Network.dyn_peer[15]  lookupStabilitySig:vector  ETV
vector 2190120  Network.dyn_peer[15]  lookupTimeSig:vector  ETV
vector 2190100  Network.dyn_peer[9]  lookupHopsSig:vector  ETV
vector 2190101  Network.dyn_peer[9]  lookupStabilitySig:vector  ETV
vector 2190102  Network.dyn_peer[9]  lookupTimeSig:vector  ETV
vector 2190103  Network.dyn_peer[10]  lookupHopsSig:vector  ETV
vector 2190104  Network.dyn_peer[10]  lookupStabilitySig:vector  ETV
vector 2190105  Network.dyn_peer[10]  lookupTimeSig:vector  ETV
vector 2190139  Network.dyn_peer[22]  lookupHopsSig:vector  ETV
vector 2190140  Network.dyn_peer[22]  lookupStabilitySig:vector  ETV
vector 2190141  Network.dyn_peer[22]  lookupTimeSig:vector  ETV
vector 2190082  Network.dyn_peer[3]  lookupHopsSig:vector  ETV
vector 2190083  Network.dyn_peer[3]  lookupStabilitySig:vector  ETV
vector 2190084  Network.dyn_peer[3]  lookupTimeSig:vector  ETV
vector 2190172  Network.dyn_peer[33]  lookupHopsSig:vector  ETV
vector 2190173  Network.dyn_peer[33]  lookupStabilitySig:vector  ETV
vector 2190174  Network.dyn_peer[33]  lookupTimeSig:vector  ETV
vector 2190145  Network.dyn_peer[24]  lookupHopsSig:vector  ETV
vector 2190146  Network.dyn_peer[24]  lookupStabilitySig:vector  ETV
vector 2190147  Network.dyn_peer[24]  lookupTimeSig:vector  ETV
vector 2190178  Network.dyn_peer[35]  lookupHopsSig:vector  ETV
vector 2190179  Network.dyn_peer[35]  lookupStabilitySig:vector  ETV
vector 2190180  Network.dyn_peer[35]  lookupTimeSig:vector  ETV
vector 2190154  Network.dyn_peer[27]  lookupHopsSig:vector  ETV
vector 2190155  Network.dyn_peer[27]  lookupStabilitySig:vector  ETV
vector 2190156  Network.dyn_peer[27]  lookupTimeSig:vector  ETV
vector 2190133  Network.dyn_peer[20]  lookupHopsSig:vector  ETV
vector 2190134  Network.dyn_peer[20]  lookupStabilitySig:vector  ETV
vector 2190135  Network.dyn_peer[20]  lookupTimeSig:vector  ETV
vector 2190109  Network.dyn_peer[12]  lookupHopsSig:vector  ETV
vector 2190110  Network.dyn_peer[12]  lookupStabilitySig:vector  ETV
vector 2190111  Network.dyn_peer[12]  lookupTimeSig:vector  ETV
vector 2190199  Network.dyn_peer[42]  lookupHopsSig:vector  ETV
vector 2190200  Network.dyn_peer[42]  lookupStabilitySig:vector  ETV
vector 2190201  Network.dyn_peer[42]  lookupTimeSig:vector  ETV
vector 2190208  Network.dyn_peer[45]  lookupHopsSig:vector  ETV
vector 2190209  Network.dyn_peer[45]  lookupStabilitySig:vector  ETV
vector 2190210  Network.dyn_peer[45]  lookupTimeSig:vector  ETV
vector 2190121  Network.dyn_peer[16]  lookupHopsSig:vector  ETV
vector 2190122  Network.dyn_peer[16]  lookupStabilitySig:vector  ETV
vector 2190123  Network.dyn_peer[16]  lookupTimeSig:vector  ETV
vector 2190151  Network.dyn_peer[26]  lookupHopsSig:vector  ETV
vector 2190152  Network.dyn_peer[26]  lookupStabilitySig:vector  ETV
vector 2190153  Network.dyn_peer[26]  lookupTimeSig:vector  ETV
vector 2190157  Network.dyn_peer[28]  lookupHopsSig:vector  ETV
vector 2190158  Network.dyn_peer[28]  lookupStabilitySig:vector  ETV
vector 2190159  Network.dyn_peer[28]  lookupTimeSig:vector  ETV
vector 2190187  Network.dyn_peer[38]  lookupHopsSig:vector  ETV
vector 2190188  Network.dyn_peer[38]  lookupStabilitySig:vector  ETV
vector 2190189  Network.dyn_peer[38]  lookupTimeSig:vector  ETV
vector 2190160  Network.dyn_peer[29]  lookupHopsSig:vector  ETV
vector 2190161  Network.dyn_peer[29]  lookupStabilitySig:vector  ETV
vector 2190162  Network.dyn_peer[29]  lookupTimeSig:vector  ETV
vector 2190163  Network.dyn_peer[30]  lookupHopsSig:vector  ETV
vector 2190164  Network.dyn_peer[30]  lookupStabilitySig:vector  ETV
vector 2190165  Network.dyn_peer[30]  lookupTimeSig:vector  ETV
vector 2190115  Network.dyn_peer[14]  lookupHopsSig:vector  ETV
vector 2190116  Network.dyn_peer[14]  lookupStabilitySig:vector  ETV
vector 2190117  Network.dyn_peer[14]  lookupTimeSig:vector  ETV
vector 2190181  Network.dyn_peer[36]  lookupHopsSig:vector  ETV
vector 2190182  Network.dyn_peer[36]  lookupStabilitySig:vector  ETV
vector 2190183  Network.dyn_peer[36]  lookupTimeSig:vector  ETV
vector 2190124  Network.dyn_peer[17]  lookupHopsSig:vector  ETV
vector 2190125  Network.dyn_peer[17]  lookupStabilitySig:vector  ETV
vector 2190126  Network.dyn_peer[17]  lookupTimeSig:vector  ETV
vector 2190127  Network.dyn_peer[18]  lookupHopsSig:vector  ETV
vector 2190128  Network.dyn_peer[18]  lookupStabilitySig:vector  ETV
vector 2190129  Network.dyn_peer[18]  lookupTimeSig:vector  ETV
vector 2190079  Network.dyn_peer[2]  lookupHopsSig:vector  ETV
vector 2190080  Network.dyn_peer[2]  lookupStabilitySig:vector  ETV
vector 2190081  Network.dyn_peer[2]  lookupTimeSig:vector  ETV
vector 2190136  Network.dyn_peer[21]  lookupHopsSig:vector  ETV
vector 2190137  Network.dyn_peer[21]  lookupStabilitySig:vector  ETV
vector 2190138  Network.dyn_peer[21]  lookupTimeSig:vector  ETV
vector 2190166  Network.dyn_peer[31]  lookupHopsSig:vector  ETV
vector 2190167  Network.dyn_peer[31]  lookupStabilitySig:vector  ETV
vector 2190168  Network.dyn_peer[31]  lookupTimeSig:vector  ETV
vector 2190241  Network.dyn_peer[56]  lookupHopsSig:vector  ETV
vector 2190242  Network.dyn_peer[56]  lookupStabilitySig:vector  ETV
vector 2190243  Network.dyn_peer[56]  lookupTimeSig:vector  ETV
vector 2190130  Network.dyn_peer[19]  lookupHopsSig:vector  ETV
vector 2190131  Network.dyn_peer[19]  lookupStabilitySig:vector  ETV
vector 2190132  Network.dyn_peer[19]  lookupTimeSig:vector  ETV
vector 2190229  Network.dyn_peer[52]  lookupHopsSig:vector  ETV
vector 2190230  Network.dyn_peer[52]  lookupStabilitySig:vector  ETV
vector 2190231  Network.dyn_peer[52]  lookupTimeSig:vector  ETV
vector 2190148  Network.dyn_peer[25]  lookupHopsSig:vector  ETV
vector 2190149  Network.dyn_peer[25]  lookupStabilitySig:vector  ETV
vector 2190150  Network.dyn_peer[25]  lookupTimeSig:vector  ETV
vector 2190286  Network.dyn_peer[71]  lookupHopsSig:vector  ETV
vector 2190287  Network.dyn_peer[71]  lookupStabilitySig:vector  ETV
vector 2190288  Network.dyn_peer[71]  lookupTimeSig:vector  ETV
vector 2190169  Network.dyn_peer[32]  lookupHopsSig:vector  ETV
vector 2190170  Network.dyn_peer[32]  lookupStabilitySig:vector  ETV
vector 2190171  Network.dyn_peer[32]  lookupTimeSig:vector  ETV
vector 2190202  Network.dyn_peer[43]  lookupHopsSig:vector  ETV
vector 2190203  Network.dyn_peer[43]  lookupStabilitySig:vector  ETV
vector 2190204  Network.dyn_peer[43]  lookupTimeSig:vector  ETV
vector 2190322  Network.dyn_peer[83]  lookupHopsSig:vector  ETV
vector 2190323  Network.dyn_peer[83]  lookupStabilitySig:vector  ETV
vector 2190324  Network.dyn_peer[83]  lookupTimeSig:vector  ETV
vector 2190205  Network.dyn_peer[44]  lookupHopsSig:vector  ETV
vector 2190206  Network.dyn_peer[44]  lookupStabilitySig:vector  ETV
vector 2190207  Network.dyn_peer[44]  lookupTimeSig:vector  ETV
vector 2190268  Network.dyn_peer[65]  lookupHopsSig:vector  ETV
vector 2190269  Network.dyn_peer[65]  lookupStabilitySig:vector  ETV
vector 2190270  Network.dyn_peer[65]  lookupTimeSig:vector  ETV
vector 2190298  Network.dyn_peer[75]  lookupHopsSig:vector  ETV
vector 2190299  Network.dyn_peer[75]  lookupStabilitySig:vector  ETV
vector 2190300  Network.dyn_peer[75]  lookupTimeSig:vector  ETV
vector 2190334  Network.dyn_peer[87]  lookupHopsSig:vector  ETV
vector 2190335  Network.dyn_peer[87]  lookupStabilitySig:vector  ETV
vector 2190336  Network.dyn_peer[87]  lookupTimeSig:vector  ETV
vector 2190343  Network.dyn_peer[90]  lookupHopsSig:vector  ETV
vector 2190344  Network.dyn_peer[90]  lookupStabilitySig:vector  ETV
vector 2190345  Network.dyn_peer[90]  lookupTimeSig:vector  ETV
vector 2190259  Network.dyn_peer[62]  lookupHopsSig:vector  ETV
vector 2190260  Network.dyn_peer[62]  lookupStabilitySig:vector  ETV
vector 2190261  Network.dyn_peer[62]  lookupTimeSig:vector  ETV
vector 2190175  Network.dyn_peer[34]  lookupHopsSig:vector  ETV
vector 2190176  Network.dyn_peer[34]  lookupStabilitySig:vector  ETV
vector 2190177  Network.dyn_peer[34]  lookupTimeSig:vector  ETV
vector 2190211  Network.dyn_peer[46]  lookupHopsSig:vector  ETV
vector 2190212  Network.dyn_peer[46]  lookupStabilitySig:vector  ETV
vector 2190213  Network.dyn_peer[46]  lookupTimeSig:vector  ETV
vector 2190331  Network.dyn_peer[86]  lookupHopsSig:vector  ETV
vector 2190332  Network.dyn_peer[86]  lookupStabilitySig:vector  ETV
vector 2190333  Network.dyn_peer[86]  lookupTimeSig:vector  ETV
vector 2190184  Network.dyn_peer[37]  lookupHopsSig:vector  ETV
vector 2190185  Network.dyn_peer[37]  lookupStabilitySig:vector  ETV
vector 2190186  Network.dyn_peer[37]  lookupTimeSig:vector  ETV
vector 2190247  Network.dyn_peer[58]  lookupHopsSig:vector  ETV
vector 2190248  Network.dyn_peer[58]  lookupStabilitySig:vector  ETV
vector 2190249  Network.dyn_peer[58]  lookupTimeSig:vector  ETV
vector 2190250  Network.dyn_peer[59]  lookupHopsSig:vector  ETV
vector 2190251  Network.dyn_peer[59]  lookupStabilitySig:vector  ETV
vector 2190252  Network.dyn_peer[59]  lookupTimeSig:vector  ETV
vector 2190196  Network.dyn_peer[41]  lookupHopsSig:vector  ETV
vector 2190197  Network.dyn_peer[41]  lookupStabilitySig:vector  ETV
vector 2190198  Network.dyn_peer[41]  lookupTimeSig:vector  ETV
vector 2190214  Network.dyn_peer[47]  lookupHopsSig:vector  ETV
vector 2190215  Network.dyn_peer[47]  lookupStabilitySig:vector  ETV
vector 2190216  Network.dyn_peer[47]  lookupTimeSig:vector  ETV
vector 2190394  Network.dyn_peer[107]  lookupHopsSig:vector  ETV
vector 2190395  Network.dyn_peer[107]  lookupStabilitySig:vector  ETV
vector 2190396  Network.dyn_peer[107]  lookupTimeSig:vector  ETV
vector 2190337  Network.dyn_peer[88]  lookupHopsSig:vector  ETV
vector 2190338  Network.dyn_peer[88]  lookupStabilitySig:vector  ETV
vector 2190339  Network.dyn_peer[88]  lookupTimeSig:vector  ETV
vector 2190313  Network.dyn_peer[80]  lookupHopsSig:vector  ETV
vector 2190314  Network.dyn_peer[80]  lookupStabilitySig:vector  ETV
vector 2190315  Network.dyn_peer[80]  lookupTimeSig:vector  ETV
vector 2190265  Network.dyn_peer[64]  lookupHopsSig:vector  ETV
vector 2190266  Network.dyn_peer[64]  lookupStabilitySig:vector  ETV
vector 2190267  Network.dyn_peer[64]  lookupTimeSig:vector  ETV
vector 2190244  Network.dyn_peer[57]  lookupHopsSig:vector  ETV
vector 2190245  Network.dyn_peer[57]  lookupStabilitySig:vector  ETV
vector 2190246  Network.dyn_peer[57]  lookupTimeSig:vector  ETV
vector 2190217  Network.dyn_peer[48]  lookupHopsSig:vector  ETV
vector 2190218  Network.dyn_peer[48]  lookupStabilitySig:vector  ETV
vector 2190219  Network.dyn_peer[48]  lookupTimeSig:vector  ETV
vector 2190283  Network.dyn_peer[70]  lookupHopsSig:vector  ETV
vector 2190284  Network.dyn_peer[70]  lookupStabilitySig:vector  ETV
vector 2190285  Network.dyn_peer[70]  lookupTimeSig:vector  ETV
vector 2190373  Network.dyn_peer[100]  lookupHopsSig:vector  ETV
vector 2190374  Network.dyn_peer[100]  lookupStabilitySig:vector  ETV
vector 2190375  Network.dyn_peer[100]  lookupTimeSig:vector  ETV
vector 2190289  Network.dyn_peer[72]  lookupHopsSig:vector  ETV
vector 2190290  Network.dyn_peer[72]  lookupStabilitySig:vector  ETV
vector 2190291  Network.dyn_peer[72]  lookupTimeSig:vector  ETV
vector 2190469  Network.dyn_peer[132]  lookupHopsSig:vector  ETV
vector 2190470  Network.dyn_peer[132]  lookupStabilitySig:vector  ETV
vector 2190471  Network.dyn_peer[132]  lookupTimeSig:vector  ETV
vector 2190325  Network.dyn_peer[84]  lookupHopsSig:vector  ETV
vector 2190326  Network.dyn_peer[84]  lookupStabilitySig:vector  ETV
vector 2190327  Network.dyn_peer[84]  lookupTimeSig:vector  ETV
vector 2190328  Network.dyn_peer[85]  lookupHopsSig:vector  ETV
vector 2190329  Network.dyn_peer[85]  lookupStabilitySig:vector  ETV
vector 2190330  Network.dyn_peer[85]  lookupTimeSig:vector  ETV
vector 2190358  Network.dyn_peer[95]  lookupHopsSig:vector  ETV
vector 2190359  Network.dyn_peer[95]  lookupStabilitySig:vector  ETV
vector 2190360  Network.dyn_peer[95]  lookupTimeSig:vector  ETV
vector 2190301  Network.dyn_peer[76]  lookupHopsSig:vector  ETV
vector 2190302  Network.dyn_peer[76]  lookupStabilitySig:vector  ETV
vector 2190303  Network.dyn_peer[76]  lookupTimeSig:vector  ETV
vector 2190361  Network.dyn_peer[96]  lookupHopsSig:vector  ETV
vector 2190362  Network.dyn_peer[96]  lookupStabilitySig:vector  ETV
vector 2190363  Network.dyn_peer[96]  lookupTimeSig:vector  ETV
vector 2190481  Network.dyn_peer[136]  lookupHopsSig:vector  ETV
vector 2190482  Network.dyn_peer[136]  lookupStabilitySig:vector  ETV
vector 2190483  Network.dyn_peer[136]  lookupTimeSig:vector  ETV
vector 2190190  Network.dyn_peer[39]  lookupHopsSig:vector  ETV
vector 2190191  Network.dyn_peer[39]  lookupStabilitySig:vector  ETV
vector 2190192  Network.dyn_peer[39]  lookupTimeSig:vector  ETV
vector 2190370  Network.dyn_peer[99]  lookupHopsSig:vector  ETV
vector 2190371  Network.dyn_peer[99]  lookupStabilitySig:vector  ETV
vector 2190372  Network.dyn_peer[99]  lookupTimeSig:vector  ETV
vector 2190223  Network.dyn_peer[50]  lookupHopsSig:vector  ETV
vector 2190224  Network.dyn_peer[50]  lookupStabilitySig:vector  ETV
vector 2190225  Network.dyn_peer[50]  lookupTimeSig:vector  ETV
vector 2190433  Network.dyn_peer[120]  lookupHopsSig:vector  ETV
vector 2190434  Network.dyn_peer[120]  lookupStabilitySig:vector  ETV
vector 2190435  Network.dyn_peer[120]  lookupTimeSig:vector  ETV
vector 2190349  Network.dyn_peer[92]  lookupHopsSig:vector  ETV
vector 2190350  Network.dyn_peer[92]  lookupStabilitySig:vector  ETV
vector 2190351  Network.dyn_peer[92]  lookupTimeSig:vector  ETV
vector 2190292  Network.dyn_peer[73]  lookupHopsSig:vector  ETV
vector 2190293  Network.dyn_peer[73]  lookupStabilitySig:vector  ETV
vector 2190294  Network.dyn_peer[73]  lookupTimeSig:vector  ETV
vector 2190274  Network.dyn_peer[67]  lookupHopsSig:vector  ETV
vector 2190275  Network.dyn_peer[67]  lookupStabilitySig:vector  ETV
vector 2190276  Network.dyn_peer[67]  lookupTimeSig:vector  ETV
vector 2190277  Network.dyn_peer[68]  lookupHopsSig:vector  ETV
vector 2190278  Network.dyn_peer[68]  lookupStabilitySig:vector  ETV
vector 2190279  Network.dyn_peer[68]  lookupTimeSig:vector  ETV
vector 2190280  Network.dyn_peer[69]  lookupHopsSig:vector  ETV
vector 2190281  Network.dyn_peer[69]  lookupStabilitySig:vector  ETV
vector 2190282  Network.dyn_peer[69]  lookupTimeSig:vector  ETV
vector 2190430  Network.dyn_peer[119]  lookupHopsSig:vector  ETV
vector 2190431  Network.dyn_peer[119]  lookupStabilitySig:vector  ETV
vector 2190432  Network.dyn_peer[119]  lookupTimeSig:vector  ETV
vector 2190442  Network.dyn_peer[123]  lookupHopsSig:vector  ETV
vector 2190443  Network.dyn_peer[123]  lookupStabilitySig:vector  ETV
vector 2190444  Network.dyn_peer[123]  lookupTimeSig:vector  ETV
vector 2190478  Network.dyn_peer[135]  lookupHopsSig:vector  ETV
vector 2190479  Network.dyn_peer[135]  lookupStabilitySig:vector  ETV
vector 2190480  Network.dyn_peer[135]  lookupTimeSig:vector  ETV
vector 2190271  Network.dyn_peer[66]  lookupHopsSig:vector  ETV
vector 2190272  Network.dyn_peer[66]  lookupStabilitySig:vector  ETV
vector 2190273  Network.dyn_peer[66]  lookupTimeSig:vector  ETV
vector 2190457  Network.dyn_peer[128]  lookupHopsSig:vector  ETV
vector 2190458  Network.dyn_peer[128]  lookupStabilitySig:vector  ETV
vector 2190459  Network.dyn_peer[128]  lookupTimeSig:vector  ETV
vector 2190400  Network.dyn_peer[109]  lookupHopsSig:vector  ETV
vector 2190401  Network.dyn_peer[109]  lookupStabilitySig:vector  ETV
vector 2190402  Network.dyn_peer[109]  lookupTimeSig:vector  ETV
vector 2190379  Network.dyn_peer[102]  lookupHopsSig:vector  ETV
vector 2190380  Network.dyn_peer[102]  lookupStabilitySig:vector  ETV
vector 2190381  Network.dyn_peer[102]  lookupTimeSig:vector  ETV
vector 2190232  Network.dyn_peer[53]  lookupHopsSig:vector  ETV
vector 2190233  Network.dyn_peer[53]  lookupStabilitySig:vector  ETV
vector 2190234  Network.dyn_peer[53]  lookupTimeSig:vector  ETV
vector 2190295  Network.dyn_peer[74]  lookupHopsSig:vector  ETV
vector 2190296  Network.dyn_peer[74]  lookupStabilitySig:vector  ETV
vector 2190297  Network.dyn_peer[74]  lookupTimeSig:vector  ETV
vector 2190388  Network.dyn_peer[105]  lookupHopsSig:vector  ETV
vector 2190389  Network.dyn_peer[105]  lookupStabilitySig:vector  ETV
vector 2190390  Network.dyn_peer[105]  lookupTimeSig:vector  ETV
vector 2190508  Network.dyn_peer[145]  lookupHopsSig:vector  ETV
vector 2190509  Network.dyn_peer[145]  lookupStabilitySig:vector  ETV
vector 2190510  Network.dyn_peer[145]  lookupTimeSig:vector  ETV
vector 2190451  Network.dyn_peer[126]  lookupHopsSig:vector  ETV
vector 2190452  Network.dyn_peer[126]  lookupStabilitySig:vector  ETV
vector 2190453  Network.dyn_peer[126]  lookupTimeSig:vector  ETV
vector 2190310  Network.dyn_peer[79]  lookupHopsSig:vector  ETV
vector 2190311  Network.dyn_peer[79]  lookupStabilitySig:vector  ETV
vector 2190312  Network.dyn_peer[79]  lookupTimeSig:vector  ETV
vector 2190403  Network.dyn_peer[110]  lookupHopsSig:vector  ETV
vector 2190404  Network.dyn_peer[110]  lookupStabilitySig:vector  ETV
vector 2190405  Network.dyn_peer[110]  lookupTimeSig:vector  ETV
vector 2190376  Network.dyn_peer[101]  lookupHopsSig:vector  ETV
vector 2190377  Network.dyn_peer[101]  lookupStabilitySig:vector  ETV
vector 2190378  Network.dyn_peer[101]  lookupTimeSig:vector  ETV
vector 2190355  Network.dyn_peer[94]  lookupHopsSig:vector  ETV
vector 2190356  Network.dyn_peer[94]  lookupStabilitySig:vector  ETV
vector 2190357  Network.dyn_peer[94]  lookupTimeSig:vector  ETV
vector 2190511  Network.dyn_peer[146]  lookupHopsSig:vector  ETV
vector 2190512  Network.dyn_peer[146]  lookupStabilitySig:vector  ETV
vector 2190513  Network.dyn_peer[146]  lookupTimeSig:vector  ETV
vector 2190367  Network.dyn_peer[98]  lookupHopsSig:vector  ETV
vector 2190368  Network.dyn_peer[98]  lookupStabilitySig:vector  ETV
vector 2190369  Network.dyn_peer[98]  lookupTimeSig:vector  ETV
vector 2190397  Network.dyn_peer[108]  lookupHopsSig:vector  ETV
vector 2190398  Network.dyn_peer[108]  lookupStabilitySig:vector  ETV
vector 2190399  Network.dyn_peer[108]  lookupTimeSig:vector  ETV
vector 2190460  Network.dyn_peer[129]  lookupHopsSig:vector  ETV
vector 2190461  Network.dyn_peer[129]  lookupStabilitySig:vector  ETV
vector 2190462  Network.dyn_peer[129]  lookupTimeSig:vector  ETV
vector 2190346  Network.dyn_peer[91]  lookupHopsSig:vector  ETV
vector 2190347  Network.dyn_peer[91]  lookupStabilitySig:vector  ETV
vector 2190348  Network.dyn_peer[91]  lookupTimeSig:vector  ETV
vector 2190529  Network.dyn_peer[152]  lookupHopsSig:vector  ETV
vector 2190530  Network.dyn_peer[152]  lookupStabilitySig:vector  ETV
vector 2190531  Network.dyn_peer[152]  lookupTimeSig:vector  ETV
vector 2190352  Network.dyn_peer[93]  lookupHopsSig:vector  ETV
vector 2190353  Network.dyn_peer[93]  lookupStabilitySig:vector  ETV
vector 2190354  Network.dyn_peer[93]  lookupTimeSig:vector  ETV
vector 2190412  Network.dyn_peer[113]  lookupHopsSig:vector  ETV
vector 2190413  Network.dyn_peer[113]  lookupStabilitySig:vector  ETV
vector 2190414  Network.dyn_peer[113]  lookupTimeSig:vector  ETV
vector 2190472  Network.dyn_peer[133]  lookupHopsSig:vector  ETV
vector 2190473  Network.dyn_peer[133]  lookupStabilitySig:vector  ETV
vector 2190474  Network.dyn_peer[133]  lookupTimeSig:vector  ETV
vector 2190574  Network.dyn_peer[167]  lookupHopsSig:vector  ETV
vector 2190575  Network.dyn_peer[167]  lookupStabilitySig:vector  ETV
vector 2190576  Network.dyn_peer[167]  lookupTimeSig:vector  ETV
vector 2190220  Network.dyn_peer[49]  lookupHopsSig:vector  ETV
vector 2190221  Network.dyn_peer[49]  lookupStabilitySig:vector  ETV
vector 2190222  Network.dyn_peer[49]  lookupTimeSig:vector  ETV
vector 2190340  Network.dyn_peer[89]  lookupHopsSig:vector  ETV
vector 2190341  Network.dyn_peer[89]  lookupStabilitySig:vector  ETV
vector 2190342  Network.dyn_peer[89]  lookupTimeSig:vector  ETV
vector 2190490  Network.dyn_peer[139]  lookupHopsSig:vector  ETV
vector 2190491  Network.dyn_peer[139]  lookupStabilitySig:vector  ETV
vector 2190492  Network.dyn_peer[139]  lookupTimeSig:vector  ETV
vector 2190226  Network.dyn_peer[51]  lookupHopsSig:vector  ETV
vector 2190227  Network.dyn_peer[51]  lookupStabilitySig:vector  ETV
vector 2190228  Network.dyn_peer[51]  lookupTimeSig:vector  ETV
vector 2190382  Network.dyn_peer[103]  lookupHopsSig:vector  ETV
vector 2190383  Network.dyn_peer[103]  lookupStabilitySig:vector  ETV
vector 2190384  Network.dyn_peer[103]  lookupTimeSig:vector  ETV
vector 2190532  Network.dyn_peer[153]  lookupHopsSig:vector  ETV
vector 2190533  Network.dyn_peer[153]  lookupStabilitySig:vector  ETV
vector 2190534  Network.dyn_peer[153]  lookupTimeSig:vector  ETV
vector 2190448  Network.dyn_peer[125]  lookupHopsSig:vector  ETV
vector 2190449  Network.dyn_peer[125]  lookupStabilitySig:vector  ETV
vector 2190450  Network.dyn_peer[125]  lookupTimeSig:vector  ETV
vector 2190304  Network.dyn_peer[77]  lookupHopsSig:vector  ETV
vector 2190305  Network.dyn_peer[77]  lookupStabilitySig:vector  ETV
vector 2190306  Network.dyn_peer[77]  lookupTimeSig:vector  ETV
vector 2190427  Network.dyn_peer[118]  lookupHopsSig:vector  ETV
vector 2190428  Network.dyn_peer[118]  lookupStabilitySig:vector  ETV
vector 2190429  Network.dyn_peer[118]  lookupTimeSig:vector  ETV
vector 2190253  Network.dyn_peer[60]  lookupHopsSig:vector  ETV
vector 2190254  Network.dyn_peer[60]  lookupStabilitySig:vector  ETV
vector 2190255  Network.dyn_peer[60]  lookupTimeSig:vector  ETV
vector 2190316  Network.dyn_peer[81]  lookupHopsSig:vector  ETV
vector 2190317  Network.dyn_peer[81]  lookupStabilitySig:vector  ETV
vector 2190318  Network.dyn_peer[81]  lookupTimeSig:vector  ETV
vector 2190496  Network.dyn_peer[141]  lookupHopsSig:vector  ETV
vector 2190497  Network.dyn_peer[141]  lookupStabilitySig:vector  ETV
vector 2190498  Network.dyn_peer[141]  lookupTimeSig:vector  ETV
vector 2190439  Network.dyn_peer[122]  lookupHopsSig:vector  ETV
vector 2190440  Network.dyn_peer[122]  lookupStabilitySig:vector  ETV
vector 2190441  Network.dyn_peer[122]  lookupTimeSig:vector  ETV
vector 2190502  Network.dyn_peer[143]  lookupHopsSig:vector  ETV
vector 2190503  Network.dyn_peer[143]  lookupStabilitySig:vector  ETV
vector 2190504  Network.dyn_peer[143]  lookupTimeSig:vector  ETV
vector 2190445  Network.dyn_peer[124]  lookupHopsSig:vector  ETV
vector 2190446  Network.dyn_peer[124]  lookupStabilitySig:vector  ETV
vector 2190447  Network.dyn_peer[124]  lookupTimeSig:vector  ETV
vector 2190538  Network.dyn_peer[155]  lookupHopsSig:vector  ETV
vector 2190539  Network.dyn_peer[155]  lookupStabilitySig:vector  ETV
vector 2190540  Network.dyn_peer[155]  lookupTimeSig:vector  ETV
vector 2190541  Network.dyn_peer[156]  lookupHopsSig:vector  ETV
vector 2190542  Network.dyn_peer[156]  lookupStabilitySig:vector  ETV
vector 2190543  Network.dyn_peer[156]  lookupTimeSig:vector  ETV
vector 2190364  Network.dyn_peer[97]  lookupHopsSig:vector  ETV
vector 2190365  Network.dyn_peer[97]  lookupStabilitySig:vector  ETV
vector 2190366  Network.dyn_peer[97]  lookupTimeSig:vector  ETV
vector 2190607  Network.dyn_peer[178]  lookupHopsSig:vector  ETV
vector 2190608  Network.dyn_peer[178]  lookupStabilitySig:vector  ETV
vector 2190609  Network.dyn_peer[178]  lookupTimeSig:vector  ETV
vector 2190493  Network.dyn_peer[140]  lookupHopsSig:vector  ETV
vector 2190494  Network.dyn_peer[140]  lookupStabilitySig:vector  ETV
vector 2190495  Network.dyn_peer[140]  lookupTimeSig:vector  ETV
vector 2190613  Network.dyn_peer[180]  lookupHopsSig:vector  ETV
vector 2190614  Network.dyn_peer[180]  lookupStabilitySig:vector  ETV
vector 2190615  Network.dyn_peer[180]  lookupTimeSig:vector  ETV
vector 2190409  Network.dyn_peer[112]  lookupHopsSig:vector  ETV
vector 2190410  Network.dyn_peer[112]  lookupStabilitySig:vector  ETV
vector 2190411  Network.dyn_peer[112]  lookupTimeSig:vector  ETV
vector 2190262  Network.dyn_peer[63]  lookupHopsSig:vector  ETV
vector 2190263  Network.dyn_peer[63]  lookupStabilitySig:vector  ETV
vector 2190264  Network.dyn_peer[63]  lookupTimeSig:vector  ETV
vector 2190592  Network.dyn_peer[173]  lookupHopsSig:vector  ETV
vector 2190593  Network.dyn_peer[173]  lookupStabilitySig:vector  ETV
vector 2190594  Network.dyn_peer[173]  lookupTimeSig:vector  ETV
vector 2190505  Network.dyn_peer[144]  lookupHopsSig:vector  ETV
vector 2190506  Network.dyn_peer[144]  lookupStabilitySig:vector  ETV
vector 2190507  Network.dyn_peer[144]  lookupTimeSig:vector  ETV
vector 2190418  Network.dyn_peer[115]  lookupHopsSig:vector  ETV
vector 2190419  Network.dyn_peer[115]  lookupStabilitySig:vector  ETV
vector 2190420  Network.dyn_peer[115]  lookupTimeSig:vector  ETV
vector 2190391  Network.dyn_peer[106]  lookupHopsSig:vector  ETV
vector 2190392  Network.dyn_peer[106]  lookupStabilitySig:vector  ETV
vector 2190393  Network.dyn_peer[106]  lookupTimeSig:vector  ETV
vector 2190193  Network.dyn_peer[40]  lookupHopsSig:vector  ETV
vector 2190194  Network.dyn_peer[40]  lookupStabilitySig:vector  ETV
vector 2190195  Network.dyn_peer[40]  lookupTimeSig:vector  ETV
vector 2190415  Network.dyn_peer[114]  lookupHopsSig:vector  ETV
vector 2190416  Network.dyn_peer[114]  lookupStabilitySig:vector  ETV
vector 2190417  Network.dyn_peer[114]  lookupTimeSig:vector  ETV
vector 2190565  Network.dyn_peer[164]  lookupHopsSig:vector  ETV
vector 2190566  Network.dyn_peer[164]  lookupStabilitySig:vector  ETV
vector 2190567  Network.dyn_peer[164]  lookupTimeSig:vector  ETV
vector 2190550  Network.dyn_peer[159]  lookupHopsSig:vector  ETV
vector 2190551  Network.dyn_peer[159]  lookupStabilitySig:vector  ETV
vector 2190552  Network.dyn_peer[159]  lookupTimeSig:vector  ETV
vector 2190673  Network.dyn_peer[200]  lookupHopsSig:vector  ETV
vector 2190674  Network.dyn_peer[200]  lookupStabilitySig:vector  ETV
vector 2190675  Network.dyn_peer[200]  lookupTimeSig:vector  ETV
vector 2190466  Network.dyn_peer[131]  lookupHopsSig:vector  ETV
vector 2190467  Network.dyn_peer[131]  lookupStabilitySig:vector  ETV
vector 2190468  Network.dyn_peer[131]  lookupTimeSig:vector  ETV
vector 2190556  Network.dyn_peer[161]  lookupHopsSig:vector  ETV
vector 2190557  Network.dyn_peer[161]  lookupStabilitySig:vector  ETV
vector 2190558  Network.dyn_peer[161]  lookupTimeSig:vector  ETV
vector 2190601  Network.dyn_peer[176]  lookupHopsSig:vector  ETV
vector 2190602  Network.dyn_peer[176]  lookupStabilitySig:vector  ETV
vector 2190603  Network.dyn_peer[176]  lookupTimeSig:vector  ETV
vector 2190424  Network.dyn_peer[117]  lookupHopsSig:vector  ETV
vector 2190425  Network.dyn_peer[117]  lookupStabilitySig:vector  ETV
vector 2190426  Network.dyn_peer[117]  lookupTimeSig:vector  ETV
vector 2190544  Network.dyn_peer[157]  lookupHopsSig:vector  ETV
vector 2190545  Network.dyn_peer[157]  lookupStabilitySig:vector  ETV
vector 2190546  Network.dyn_peer[157]  lookupTimeSig:vector  ETV
vector 2190577  Network.dyn_peer[168]  lookupHopsSig:vector  ETV
vector 2190578  Network.dyn_peer[168]  lookupStabilitySig:vector  ETV
vector 2190579  Network.dyn_peer[168]  lookupTimeSig:vector  ETV
vector 2190553  Network.dyn_peer[160]  lookupHopsSig:vector  ETV
vector 2190554  Network.dyn_peer[160]  lookupStabilitySig:vector  ETV
vector 2190555  Network.dyn_peer[160]  lookupTimeSig:vector  ETV
vector 2190406  Network.dyn_peer[111]  lookupHopsSig:vector  ETV
vector 2190407  Network.dyn_peer[111]  lookupStabilitySig:vector  ETV
vector 2190408  Network.dyn_peer[111]  lookupTimeSig:vector  ETV