version 2
run Stability2-63-20130528-01:30:15-24168
attr configname Stability2
attr datetime 20130528-01:30:15
attr experiment Stability2
attr inifile omnetpp.ini
attr iterationvars $0=200
attr iterationvars2 "$0=200, $repetition=3"
attr measurement $0=200
attr network Network
attr processid 24168
attr repetition 3
attr replication #3
attr resultdir results
attr runnumber 63
attr seedset 63

vector 1920063  Network.churner  inGoingSizeSig:vector  ETV
vector 1890069  Network.dyn_peer[2]  lookupHopsSig:vector  ETV
vector 1890070  Network.dyn_peer[2]  lookupStabilitySig:vector  ETV
vector 1890071  Network.dyn_peer[2]  lookupTimeSig:vector  ETV
vector 1890078  Network.dyn_peer[5]  lookupHopsSig:vector  ETV
vector 1890079  Network.dyn_peer[5]  lookupStabilitySig:vector  ETV
vector 1890080  Network.dyn_peer[5]  lookupTimeSig:vector  ETV
vector 1890066  Network.dyn_peer[1]  lookupHopsSig:vector  ETV
vector 1890067  Network.dyn_peer[1]  lookupStabilitySig:vector  ETV
vector 1890068  Network.dyn_peer[1]  lookupTimeSig:vector  ETV
vector 1890072  Network.dyn_peer[3]  lookupHopsSig:vector  ETV
vector 1890073  Network.dyn_peer[3]  lookupStabilitySig:vector  ETV
vector 1890074  Network.dyn_peer[3]  lookupTimeSig:vector  ETV
vector 1890120  Network.dyn_peer[19]  lookupHopsSig:vector  ETV
vector 1890121  Network.dyn_peer[19]  lookupStabilitySig:vector  ETV
vector 1890122  Network.dyn_peer[19]  lookupTimeSig:vector  ETV
vector 1890063  Network.dyn_peer[0]  lookupHopsSig:vector  ETV
vector 1890064  Network.dyn_peer[0]  lookupStabilitySig:vector  ETV
vector 1890065  Network.dyn_peer[0]  lookupTimeSig:vector  ETV
vector 1890093  Network.dyn_peer[10]  lookupHopsSig:vector  ETV
vector 1890094  Network.dyn_peer[10]  lookupStabilitySig:vector  ETV
vector 1890095  Network.dyn_peer[10]  lookupTimeSig:vector  ETV
vector 1890126  Network.dyn_peer[21]  lookupHopsSig:vector  ETV
vector 1890127  Network.dyn_peer[21]  lookupStabilitySig:vector  ETV
vector 1890128  Network.dyn_peer[21]  lookupTimeSig:vector  ETV
vector 1890099  Network.dyn_peer[12]  lookupHopsSig:vector  ETV
vector 1890100  Network.dyn_peer[12]  lookupStabilitySig:vector  ETV
vector 1890101  Network.dyn_peer[12]  lookupTimeSig:vector  ETV
vector 1890105  Network.dyn_peer[14]  lookupHopsSig:vector  ETV
vector 1890106  Network.dyn_peer[14]  lookupStabilitySig:vector  ETV
vector 1890107  Network.dyn_peer[14]  lookupTimeSig:vector  ETV
vector 1890138  Network.dyn_peer[25]  lookupHopsSig:vector  ETV
vector 1890139  Network.dyn_peer[25]  lookupStabilitySig:vector  ETV
vector 1890140  Network.dyn_peer[25]  lookupTimeSig:vector  ETV
vector 1890087  Network.dyn_peer[8]  lookupHopsSig:vector  ETV
vector 1890088  Network.dyn_peer[8]  lookupStabilitySig:vector  ETV
vector 1890089  Network.dyn_peer[8]  lookupTimeSig:vector  ETV
vector 1890123  Network.dyn_peer[20]  lookupHopsSig:vector  ETV
vector 1890124  Network.dyn_peer[20]  lookupStabilitySig:vector  ETV
vector 1890125  Network.dyn_peer[20]  lookupTimeSig:vector  ETV
vector 1890096  Network.dyn_peer[11]  lookupHopsSig:vector  ETV
vector 1890097  Network.dyn_peer[11]  lookupStabilitySig:vector  ETV
vector 1890098  Network.dyn_peer[11]  lookupTimeSig:vector  ETV
vector 1890108  Network.dyn_peer[15]  lookupHopsSig:vector  ETV
vector 1890109  Network.dyn_peer[15]  lookupStabilitySig:vector  ETV
vector 1890110  Network.dyn_peer[15]  lookupTimeSig:vector  ETV
vector 1890081  Network.dyn_peer[6]  lookupHopsSig:vector  ETV
vector 1890082  Network.dyn_peer[6]  lookupStabilitySig:vector  ETV
vector 1890083  Network.dyn_peer[6]  lookupTimeSig:vector  ETV
vector 1890114  Network.dyn_peer[17]  lookupHopsSig:vector  ETV
vector 1890115  Network.dyn_peer[17]  lookupStabilitySig:vector  ETV
vector 1890116  Network.dyn_peer[17]  lookupTimeSig:vector  ETV
vector 1890147  Network.dyn_peer[28]  lookupHopsSig:vector  ETV
vector 1890148  Network.dyn_peer[28]  lookupStabilitySig:vector  ETV
vector 1890149  Network.dyn_peer[28]  lookupTimeSig:vector  ETV
vector 1890090  Network.dyn_peer[9]  lookupHopsSig:vector  ETV
vector 1890091  Network.dyn_peer[9]  lookupStabilitySig:vector  ETV
vector 1890092  Network.dyn_peer[9]  lookupTimeSig:vector  ETV
vector 1890189  Network.dyn_peer[42]  lookupHopsSig:vector  ETV
vector 1890190  Network.dyn_peer[42]  lookupStabilitySig:vector  ETV
vector 1890191  Network.dyn_peer[42]  lookupTimeSig:vector  ETV
vector 1890102  Network.dyn_peer[13]  lookupHopsSig:vector  ETV
vector 1890103  Network.dyn_peer[13]  lookupStabilitySig:vector  ETV
vector 1890104  Network.dyn_peer[13]  lookupTimeSig:vector  ETV
vector 1890192  Network.dyn_peer[43]  lookupHopsSig:vector  ETV
vector 1890193  Network.dyn_peer[43]  lookupStabilitySig:vector  ETV
vector 1890194  Network.dyn_peer[43]  lookupTimeSig:vector  ETV
vector 1890135  Network.dyn_peer[24]  lookupHopsSig:vector  ETV
vector 1890136  Network.dyn_peer[24]  lookupStabilitySig:vector  ETV
vector 1890137  Network.dyn_peer[24]  lookupTimeSig:vector  ETV
vector 1890111  Network.dyn_peer[16]  lookupHopsSig:vector  ETV
vector 1890112  Network.dyn_peer[16]  lookupStabilitySig:vector  ETV
vector 1890113  Network.dyn_peer[16]  lookupTimeSig:vector  ETV
vector 1890180  Network.dyn_peer[39]  lookupHopsSig:vector  ETV
vector 1890181  Network.dyn_peer[39]  lookupStabilitySig:vector  ETV
vector 1890182  Network.dyn_peer[39]  lookupTimeSig:vector  ETV
vector 1890159  Network.dyn_peer[32]  lookupHopsSig:vector  ETV
vector 1890160  Network.dyn_peer[32]  lookupStabilitySig:vector  ETV
vector 1890161  Network.dyn_peer[32]  lookupTimeSig:vector  ETV
vector 1890075  Network.dyn_peer[4]  lookupHopsSig:vector  ETV
vector 1890076  Network.dyn_peer[4]  lookupStabilitySig:vector  ETV
vector 1890077  Network.dyn_peer[4]  lookupTimeSig:vector  ETV
vector 1890165  Network.dyn_peer[34]  lookupHopsSig:vector  ETV
vector 1890166  Network.dyn_peer[34]  lookupStabilitySig:vector  ETV
vector 1890167  Network.dyn_peer[34]  lookupTimeSig:vector  ETV
vector 1890141  Network.dyn_peer[26]  lookupHopsSig:vector  ETV
vector 1890142  Network.dyn_peer[26]  lookupStabilitySig:vector  ETV
vector 1890143  Network.dyn_peer[26]  lookupTimeSig:vector  ETV
vector 1890084  Network.dyn_peer[7]  lookupHopsSig:vector  ETV
vector 1890085  Network.dyn_peer[7]  lookupStabilitySig:vector  ETV
vector 1890086  Network.dyn_peer[7]  lookupTimeSig:vector  ETV
vector 1890174  Network.dyn_peer[37]  lookupHopsSig:vector  ETV
vector 1890175  Network.dyn_peer[37]  lookupStabilitySig:vector  ETV
vector 1890176  Network.dyn_peer[37]  lookupTimeSig:vector  ETV
vector 1890150  Network.dyn_peer[29]  lookupHopsSig:vector  ETV
vector 1890151  Network.dyn_peer[29]  lookupStabilitySig:vector  ETV
vector 1890152  Network.dyn_peer[29]  lookupTimeSig:vector  ETV
vector 1890129  Network.dyn_peer[22]  lookupHopsSig:vector  ETV
vector 1890130  Network.dyn_peer[22]  lookupStabilitySig:vector  ETV
vector 1890131  Network.dyn_peer[22]  lookupTimeSig:vector  ETV
vector 1890228  Network.dyn_peer[55]  lookupHopsSig:vector  ETV
vector 1890229  Network.dyn_peer[55]  lookupStabilitySig:vector  ETV
vector 1890230  Network.dyn_peer[55]  lookupTimeSig:vector  ETV
vector 1890171  Network.dyn_peer[36]  lookupHopsSig:vector  ETV
vector 1890172  Network.dyn_peer[36]  lookupStabilitySig:vector  ETV
vector 1890173  Network.dyn_peer[36]  lookupTimeSig:vector  ETV
vector 1890204  Network.dyn_peer[47]  lookupHopsSig:vector  ETV
vector 1890205  Network.dyn_peer[47]  lookupStabilitySig:vector  ETV
vector 1890206  Network.dyn_peer[47]  lookupTimeSig:vector  ETV
vector 1890264  Network.dyn_peer[67]  lookupHopsSig:vector  ETV
vector 1890265  Network.dyn_peer[67]  lookupStabilitySig:vector  ETV
vector 1890266  Network.dyn_peer[67]  lookupTimeSig:vector  ETV
vector 1890183  Network.dyn_peer[40]  lookupHopsSig:vector  ETV
vector 1890184  Network.dyn_peer[40]  lookupStabilitySig:vector  ETV
vector 1890185  Network.dyn_peer[40]  lookupTimeSig:vector  ETV
vector 1890156  Network.dyn_peer[31]  lookupHopsSig:vector  ETV
vector 1890157  Network.dyn_peer[31]  lookupStabilitySig:vector  ETV
vector 1890158  Network.dyn_peer[31]  lookupTimeSig:vector  ETV
vector 1890132  Network.dyn_peer[23]  lookupHopsSig:vector  ETV
vector 1890133  Network.dyn_peer[23]  lookupStabilitySig:vector  ETV
vector 1890134  Network.dyn_peer[23]  lookupTimeSig:vector  ETV
vector 1890144  Network.dyn_peer[27]  lookupHopsSig:vector  ETV
vector 1890145  Network.dyn_peer[27]  lookupStabilitySig:vector  ETV
vector 1890146  Network.dyn_peer[27]  lookupTimeSig:vector  ETV
vector 1890210  Network.dyn_peer[49]  lookupHopsSig:vector  ETV
vector 1890211  Network.dyn_peer[49]  lookupStabilitySig:vector  ETV
vector 1890212  Network.dyn_peer[49]  lookupTimeSig:vector  ETV
vector 1890243  Network.dyn_peer[60]  lookupHopsSig:vector  ETV
vector 1890244  Network.dyn_peer[60]  lookupStabilitySig:vector  ETV
vector 1890245  Network.dyn_peer[60]  lookupTimeSig:vector  ETV
vector 1890339  Network.dyn_peer[92]  lookupHopsSig:vector  ETV
vector 1890340  Network.dyn_peer[92]  lookupStabilitySig:vector  ETV
vector 1890341  Network.dyn_peer[92]  lookupTimeSig:vector  ETV
vector 1890222  Network.dyn_peer[53]  lookupHopsSig:vector  ETV
vector 1890223  Network.dyn_peer[53]  lookupStabilitySig:vector  ETV
vector 1890224  Network.dyn_peer[53]  lookupTimeSig:vector  ETV
vector 1890237  Network.dyn_peer[58]  lookupHopsSig:vector  ETV
vector 1890238  Network.dyn_peer[58]  lookupStabilitySig:vector  ETV
vector 1890239  Network.dyn_peer[58]  lookupTimeSig:vector  ETV
vector 1890240  Network.dyn_peer[59]  lookupHopsSig:vector  ETV
vector 1890241  Network.dyn_peer[59]  lookupStabilitySig:vector  ETV
vector 1890242  Network.dyn_peer[59]  lookupTimeSig:vector  ETV
vector 1890153  Network.dyn_peer[30]  lookupHopsSig:vector  ETV
vector 1890154  Network.dyn_peer[30]  lookupStabilitySig:vector  ETV
vector 1890155  Network.dyn_peer[30]  lookupTimeSig:vector  ETV
vector 1890213  Network.dyn_peer[50]  lookupHopsSig:vector  ETV
vector 1890214  Network.dyn_peer[50]  lookupStabilitySig:vector  ETV
vector 1890215  Network.dyn_peer[50]  lookupTimeSig:vector  ETV
vector 1890276  Network.dyn_peer[71]  lookupHopsSig:vector  ETV
vector 1890277  Network.dyn_peer[71]  lookupStabilitySig:vector  ETV
vector 1890278  Network.dyn_peer[71]  lookupTimeSig:vector  ETV
vector 1890336  Network.dyn_peer[91]  lookupHopsSig:vector  ETV
vector 1890337  Network.dyn_peer[91]  lookupStabilitySig:vector  ETV
vector 1890338  Network.dyn_peer[91]  lookupTimeSig:vector  ETV
vector 1890279  Network.dyn_peer[72]  lookupHopsSig:vector  ETV
vector 1890280  Network.dyn_peer[72]  lookupStabilitySig:vector  ETV
vector 1890281  Network.dyn_peer[72]  lookupTimeSig:vector  ETV
vector 1890294  Network.dyn_peer[77]  lookupHopsSig:vector  ETV
vector 1890295  Network.dyn_peer[77]  lookupStabilitySig:vector  ETV
vector 1890296  Network.dyn_peer[77]  lookupTimeSig:vector  ETV
vector 1890324  Network.dyn_peer[87]  lookupHopsSig:vector  ETV
vector 1890325  Network.dyn_peer[87]  lookupStabilitySig:vector  ETV
vector 1890326  Network.dyn_peer[87]  lookupTimeSig:vector  ETV
vector 1890177  Network.dyn_peer[38]  lookupHopsSig:vector  ETV
vector 1890178  Network.dyn_peer[38]  lookupStabilitySig:vector  ETV
vector 1890179  Network.dyn_peer[38]  lookupTimeSig:vector  ETV
vector 1890297  Network.dyn_peer[78]  lookupHopsSig:vector  ETV
vector 1890298  Network.dyn_peer[78]  lookupStabilitySig:vector  ETV
vector 1890299  Network.dyn_peer[78]  lookupTimeSig:vector  ETV
vector 1890396  Network.dyn_peer[111]  lookupHopsSig:vector  ETV
vector 1890397  Network.dyn_peer[111]  lookupStabilitySig:vector  ETV
vector 1890398  Network.dyn_peer[111]  lookupTimeSig:vector  ETV
vector 1890225  Network.dyn_peer[54]  lookupHopsSig:vector  ETV
vector 1890226  Network.dyn_peer[54]  lookupStabilitySig:vector  ETV
vector 1890227  Network.dyn_peer[54]  lookupTimeSig:vector  ETV
vector 1890255  Network.dyn_peer[64]  lookupHopsSig:vector  ETV
vector 1890256  Network.dyn_peer[64]  lookupStabilitySig:vector  ETV
vector 1890257  Network.dyn_peer[64]  lookupTimeSig:vector  ETV
vector 1890285  Network.dyn_peer[74]  lookupHopsSig:vector  ETV
vector 1890286  Network.dyn_peer[74]  lookupStabilitySig:vector  ETV
vector 1890287  Network.dyn_peer[74]  lookupTimeSig:vector  ETV
vector 1890207  Network.dyn_peer[48]  lookupHopsSig:vector  ETV
vector 1890208  Network.dyn_peer[48]  lookupStabilitySig:vector  ETV
vector 1890209  Network.dyn_peer[48]  lookupTimeSig:vector  ETV
vector 1890357  Network.dyn_peer[98]  lookupHopsSig:vector  ETV
vector 1890358  Network.dyn_peer[98]  lookupStabilitySig:vector  ETV
vector 1890359  Network.dyn_peer[98]  lookupTimeSig:vector  ETV
vector 1890330  Network.dyn_peer[89]  lookupHopsSig:vector  ETV
vector 1890331  Network.dyn_peer[89]  lookupStabilitySig:vector  ETV
vector 1890332  Network.dyn_peer[89]  lookupTimeSig:vector  ETV
vector 1890303  Network.dyn_peer[80]  lookupHopsSig:vector  ETV
vector 1890304  Network.dyn_peer[80]  lookupStabilitySig:vector  ETV
vector 1890305  Network.dyn_peer[80]  lookupTimeSig:vector  ETV
vector 1890216  Network.dyn_peer[51]  lookupHopsSig:vector  ETV
vector 1890217  Network.dyn_peer[51]  lookupStabilitySig:vector  ETV
vector 1890218  Network.dyn_peer[51]  lookupTimeSig:vector  ETV
vector 1890282  Network.dyn_peer[73]  lookupHopsSig:vector  ETV
vector 1890283  Network.dyn_peer[73]  lookupStabilitySig:vector  ETV
vector 1890284  Network.dyn_peer[73]  lookupTimeSig:vector  ETV
vector 1890198  Network.dyn_peer[45]  lookupHopsSig:vector  ETV
vector 1890199  Network.dyn_peer[45]  lookupStabilitySig:vector  ETV
vector 1890200  Network.dyn_peer[45]  lookupTimeSig:vector  ETV
vector 1890318  Network.dyn_peer[85]  lookupHopsSig:vector  ETV
vector 1890319  Network.dyn_peer[85]  lookupStabilitySig:vector  ETV
vector 1890320  Network.dyn_peer[85]  lookupTimeSig:vector  ETV
vector 1890351  Network.dyn_peer[96]  lookupHopsSig:vector  ETV
vector 1890352  Network.dyn_peer[96]  lookupStabilitySig:vector  ETV
vector 1890353  Network.dyn_peer[96]  lookupTimeSig:vector  ETV
vector 1890117  Network.dyn_peer[18]  lookupHopsSig:vector  ETV
vector 1890118  Network.dyn_peer[18]  lookupStabilitySig:vector  ETV
vector 1890119  Network.dyn_peer[18]  lookupTimeSig:vector  ETV
vector 1890267  Network.dyn_peer[68]  lookupHopsSig:vector  ETV
vector 1890268  Network.dyn_peer[68]  lookupStabilitySig:vector  ETV
vector 1890269  Network.dyn_peer[68]  lookupTimeSig:vector  ETV
vector 1890270  Network.dyn_peer[69]  lookupHopsSig:vector  ETV
vector 1890271  Network.dyn_peer[69]  lookupStabilitySig:vector  ETV
vector 1890272  Network.dyn_peer[69]  lookupTimeSig:vector  ETV
vector 1890249  Network.dyn_peer[62]  lookupHopsSig:vector  ETV
vector 1890250  Network.dyn_peer[62]  lookupStabilitySig:vector  ETV
vector 1890251  Network.dyn_peer[62]  lookupTimeSig:vector  ETV
vector 1890309  Network.dyn_peer[82]  lookupHopsSig:vector  ETV
vector 1890310  Network.dyn_peer[82]  lookupStabilitySig:vector  ETV
vector 1890311  Network.dyn_peer[82]  lookupTimeSig:vector  ETV
vector 1890168  Network.dyn_peer[35]  lookupHopsSig:vector  ETV
vector 1890169  Network.dyn_peer[35]  lookupStabilitySig:vector  ETV
vector 1890170  Network.dyn_peer[35]  lookupTimeSig:vector  ETV
vector 1890231  Network.dyn_peer[56]  lookupHopsSig:vector  ETV
vector 1890232  Network.dyn_peer[56]  lookupStabilitySig:vector  ETV
vector 1890233  Network.dyn_peer[56]  lookupTimeSig:vector  ETV
vector 1890261  Network.dyn_peer[66]  lookupHopsSig:vector  ETV
vector 1890262  Network.dyn_peer[66]  lookupStabilitySig:vector  ETV
vector 1890263  Network.dyn_peer[66]  lookupTimeSig:vector  ETV
vector 1890291  Network.dyn_peer[76]  lookupHopsSig:vector  ETV
vector 1890292  Network.dyn_peer[76]  lookupStabilitySig:vector  ETV
vector 1890293  Network.dyn_peer[76]  lookupTimeSig:vector  ETV
vector 1890354  Network.dyn_peer[97]  lookupHopsSig:vector  ETV
vector 1890355  Network.dyn_peer[97]  lookupStabilitySig:vector  ETV
vector 1890356  Network.dyn_peer[97]  lookupTimeSig:vector  ETV
vector 1890375  Network.dyn_peer[104]  lookupHopsSig:vector  ETV
vector 1890376  Network.dyn_peer[104]  lookupStabilitySig:vector  ETV
vector 1890377  Network.dyn_peer[104]  lookupTimeSig:vector  ETV
vector 1890288  Network.dyn_peer[75]  lookupHopsSig:vector  ETV
vector 1890289  Network.dyn_peer[75]  lookupStabilitySig:vector  ETV
vector 1890290  Network.dyn_peer[75]  lookupTimeSig:vector  ETV
vector 1890201  Network.dyn_peer[46]  lookupHopsSig:vector  ETV
vector 1890202  Network.dyn_peer[46]  lookupStabilitySig:vector  ETV
vector 1890203  Network.dyn_peer[46]  lookupTimeSig:vector  ETV
vector 1890300  Network.dyn_peer[79]  lookupHopsSig:vector  ETV
vector 1890301  Network.dyn_peer[79]  lookupStabilitySig:vector  ETV
vector 1890302  Network.dyn_peer[79]  lookupTimeSig:vector  ETV
vector 1890426  Network.dyn_peer[121]  lookupHopsSig:vector  ETV
vector 1890427  Network.dyn_peer[121]  lookupStabilitySig:vector  ETV
vector 1890428  Network.dyn_peer[121]  lookupTimeSig:vector  ETV
vector 1890399  Network.dyn_peer[112]  lookupHopsSig:vector  ETV
vector 1890400  Network.dyn_peer[112]  lookupStabilitySig:vector  ETV
vector 1890401  Network.dyn_peer[112]  lookupTimeSig:vector  ETV
vector 1890342  Network.dyn_peer[93]  lookupHopsSig:vector  ETV
vector 1890343  Network.dyn_peer[93]  lookupStabilitySig:vector  ETV
vector 1890344  Network.dyn_peer[93]  lookupTimeSig:vector  ETV
vector 1890432  Network.dyn_peer[123]  lookupHopsSig:vector  ETV
vector 1890433  Network.dyn_peer[123]  lookupStabilitySig:vector  ETV
vector 1890434  Network.dyn_peer[123]  lookupTimeSig:vector  ETV
vector 1890462  Network.dyn_peer[133]  lookupHopsSig:vector  ETV
vector 1890463  Network.dyn_peer[133]  lookupStabilitySig:vector  ETV
vector 1890464  Network.dyn_peer[133]  lookupTimeSig:vector  ETV
vector 1890381  Network.dyn_peer[106]  lookupHopsSig:vector  ETV
vector 1890382  Network.dyn_peer[106]  lookupStabilitySig:vector  ETV
vector 1890383  Network.dyn_peer[106]  lookupTimeSig:vector  ETV
vector 1890501  Network.dyn_peer[146]  lookupHopsSig:vector  ETV
vector 1890502  Network.dyn_peer[146]  lookupStabilitySig:vector  ETV
vector 1890503  Network.dyn_peer[146]  lookupTimeSig:vector  ETV
vector 1890384  Network.dyn_peer[107]  lookupHopsSig:vector  ETV
vector 1890385  Network.dyn_peer[107]  lookupStabilitySig:vector  ETV
vector 1890386  Network.dyn_peer[107]  lookupTimeSig:vector  ETV
vector 1890369  Network.dyn_peer[102]  lookupHopsSig:vector  ETV
vector 1890370  Network.dyn_peer[102]  lookupStabilitySig:vector  ETV
vector 1890371  Network.dyn_peer[102]  lookupTimeSig:vector  ETV
vector 1890162  Network.dyn_peer[33]  lookupHopsSig:vector  ETV
vector 1890163  Network.dyn_peer[33]  lookupStabilitySig:vector  ETV
vector 1890164  Network.dyn_peer[33]  lookupTimeSig:vector  ETV
vector 1890498  Network.dyn_peer[145]  lookupHopsSig:vector  ETV
vector 1890499  Network.dyn_peer[145]  lookupStabilitySig:vector  ETV
vector 1890500  Network.dyn_peer[145]  lookupTimeSig:vector  ETV
vector 1890246  Network.dyn_peer[61]  lookupHopsSig:vector  ETV
vector 1890247  Network.dyn_peer[61]  lookupStabilitySig:vector  ETV
vector 1890248  Network.dyn_peer[61]  lookupTimeSig:vector  ETV
vector 1890219  Network.dyn_peer[52]  lookupHopsSig:vector  ETV
vector 1890220  Network.dyn_peer[52]  lookupStabilitySig:vector  ETV
vector 1890221  Network.dyn_peer[52]  lookupTimeSig:vector  ETV
vector 1890465  Network.dyn_peer[134]  lookupHopsSig:vector  ETV
vector 1890466  Network.dyn_peer[134]  lookupStabilitySig:vector  ETV
vector 1890467  Network.dyn_peer[134]  lookupTimeSig:vector  ETV
vector 1890258  Network.dyn_peer[65]  lookupHopsSig:vector  ETV
vector 1890259  Network.dyn_peer[65]  lookupStabilitySig:vector  ETV
vector 1890260  Network.dyn_peer[65]  lookupTimeSig:vector  ETV
vector 1890348  Network.dyn_peer[95]  lookupHopsSig:vector  ETV
vector 1890349  Network.dyn_peer[95]  lookupStabilitySig:vector  ETV
vector 1890350  Network.dyn_peer[95]  lookupTimeSig:vector  ETV
vector 1890534  Network.dyn_peer[157]  lookupHopsSig:vector  ETV
vector 1890535  Network.dyn_peer[157]  lookupStabilitySig:vector  ETV
vector 1890536  Network.dyn_peer[157]  lookupTimeSig:vector  ETV
vector 1890273  Network.dyn_peer[70]  lookupHopsSig:vector  ETV
vector 1890274  Network.dyn_peer[70]  lookupStabilitySig:vector  ETV
vector 1890275  Network.dyn_peer[70]  lookupTimeSig:vector  ETV
vector 1890333  Network.dyn_peer[90]  lookupHopsSig:vector  ETV
vector 1890334  Network.dyn_peer[90]  lookupStabilitySig:vector  ETV
vector 1890335  Network.dyn_peer[90]  lookupTimeSig:vector  ETV
vector 1890363  Network.dyn_peer[100]  lookupHopsSig:vector  ETV
vector 1890364  Network.dyn_peer[100]  lookupStabilitySig:vector  ETV
vector 1890365  Network.dyn_peer[100]  lookupTimeSig:vector  ETV
vector 1890573  Network.dyn_peer[170]  lookupHopsSig:vector  ETV
vector 1890574  Network.dyn_peer[170]  lookupStabilitySig:vector  ETV
vector 1890575  Network.dyn_peer[170]  lookupTimeSig:vector  ETV
vector 1890519  Network.dyn_peer[152]  lookupHopsSig:vector  ETV
vector 1890520  Network.dyn_peer[152]  lookupStabilitySig:vector  ETV
vector 1890521  Network.dyn_peer[152]  lookupTimeSig:vector  ETV
vector 1890252  Network.dyn_peer[63]  lookupHopsSig:vector  ETV
vector 1890253  Network.dyn_peer[63]  lookupStabilitySig:vector  ETV
vector 1890254  Network.dyn_peer[63]  lookupTimeSig:vector  ETV
vector 1890492  Network.dyn_peer[143]  lookupHopsSig:vector  ETV
vector 1890493  Network.dyn_peer[143]  lookupStabilitySig:vector  ETV
vector 1890494  Network.dyn_peer[143]  lookupTimeSig:vector  ETV
vector 1890378  Network.dyn_peer[105]  lookupHopsSig:vector  ETV
vector 1890379  Network.dyn_peer[105]  lookupStabilitySig:vector  ETV
vector 1890380  Network.dyn_peer[105]  lookupTimeSig:vector  ETV
vector 1890408  Network.dyn_peer[115]  lookupHopsSig:vector  ETV
vector 1890409  Network.dyn_peer[115]  lookupStabilitySig:vector  ETV
vector 1890410  Network.dyn_peer[115]  lookupTimeSig:vector  ETV
vector 1890528  Network.dyn_peer[155]  lookupHopsSig:vector  ETV
vector 1890529  Network.dyn_peer[155]  lookupStabilitySig:vector  ETV
vector 1890530  Network.dyn_peer[155]  lookupTimeSig:vector  ETV
vector 1890558  Network.dyn_peer[165]  lookupHopsSig:vector  ETV
vector 1890559  Network.dyn_peer[165]  lookupStabilitySig:vector  ETV
vector 1890560  Network.dyn_peer[165]  lookupTimeSig:vector  ETV
vector 1890441  Network.dyn_peer[126]  lookupHopsSig:vector  ETV
vector 1890442  Network.dyn_peer[126]  lookupStabilitySig:vector  ETV
vector 1890443  Network.dyn_peer[126]  lookupTimeSig:vector  ETV
vector 1890393  Network.dyn_peer[110]  lookupHopsSig:vector  ETV
vector 1890394  Network.dyn_peer[110]  lookupStabilitySig:vector  ETV
vector 1890395  Network.dyn_peer[110]  lookupTimeSig:vector  ETV
vector 1890306  Network.dyn_peer[81]  lookupHopsSig:vector  ETV
vector 1890307  Network.dyn_peer[81]  lookupStabilitySig:vector  ETV
vector 1890308  Network.dyn_peer[81]  lookupTimeSig:vector  ETV
vector 1890372  Network.dyn_peer[103]  lookupHopsSig:vector  ETV
vector 1890373  Network.dyn_peer[103]  lookupStabilitySig:vector  ETV
vector 1890374  Network.dyn_peer[103]  lookupTimeSig:vector  ETV
vector 1890405  Network.dyn_peer[114]  lookupHopsSig:vector  ETV
vector 1890406  Network.dyn_peer[114]  lookupStabilitySig:vector  ETV
vector 1890407  Network.dyn_peer[114]  lookupTimeSig:vector  ETV
vector 1890561  Network.dyn_peer[166]  lookupHopsSig:vector  ETV
vector 1890562  Network.dyn_peer[166]  lookupStabilitySig:vector  ETV
vector 1890563  Network.dyn_peer[166]  lookupTimeSig:vector  ETV
vector 1890417  Network.dyn_peer[118]  lookupHopsSig:vector  ETV
vector 1890418  Network.dyn_peer[118]  lookupStabilitySig:vector  ETV
vector 1890419  Network.dyn_peer[118]  lookupTimeSig:vector  ETV
vector 1890186  Network.dyn_peer[41]  lookupHopsSig:vector  ETV
vector 1890187  Network.dyn_peer[41]  lookupStabilitySig:vector  ETV
vector 1890188  Network.dyn_peer[41]  lookupTimeSig:vector  ETV
vector 1890606  Network.dyn_peer[181]  lookupHopsSig:vector  ETV
vector 1890607  Network.dyn_peer[181]  lookupStabilitySig:vector  ETV
vector 1890608  Network.dyn_peer[181]  lookupTimeSig:vector  ETV
vector 1890315  Network.dyn_peer[84]  lookupHopsSig:vector  ETV
vector 1890316  Network.dyn_peer[84]  lookupStabilitySig:vector  ETV
vector 1890317  Network.dyn_peer[84]  lookupTimeSig:vector  ETV
vector 1890321  Network.dyn_peer[86]  lookupHopsSig:vector  ETV
vector 1890322  Network.dyn_peer[86]  lookupStabilitySig:vector  ETV
vector 1890323  Network.dyn_peer[86]  lookupTimeSig:vector  ETV
vector 1890423  Network.dyn_peer[120]  lookupHopsSig:vector  ETV
vector 1890424  Network.dyn_peer[120]  lookupStabilitySig:vector  ETV
vector 1890425  Network.dyn_peer[120]  lookupTimeSig:vector  ETV
vector 1890366  Network.dyn_peer[101]  lookupHopsSig:vector  ETV
vector 1890367  Network.dyn_peer[101]  lookupStabilitySig:vector  ETV
vector 1890368  Network.dyn_peer[101]  lookupTimeSig:vector  ETV
vector 1890459  Network.dyn_peer[132]  lookupHopsSig:vector  ETV
vector 1890460  Network.dyn_peer[132]  lookupStabilitySig:vector  ETV
vector 1890461  Network.dyn_peer[132]  lookupTimeSig:vector  ETV
vector 1890195  Network.dyn_peer[44]  lookupHopsSig:vector  ETV
vector 1890196  Network.dyn_peer[44]  lookupStabilitySig:vector  ETV
vector 1890197  Network.dyn_peer[44]  lookupTimeSig:vector  ETV
vector 1890468  Network.dyn_peer[135]  lookupHopsSig:vector  ETV
vector 1890469  Network.dyn_peer[135]  lookupStabilitySig:vector  ETV
vector 1890470  Network.dyn_peer[135]  lookupTimeSig:vector  ETV
vector 1890327  Network.dyn_peer[88]  lookupHopsSig:vector  ETV
vector 1890328  Network.dyn_peer[88]  lookupStabilitySig:vector  ETV
vector 1890329  Network.dyn_peer[88]  lookupTimeSig:vector  ETV
vector 1890567  Network.dyn_peer[168]  lookupHopsSig:vector  ETV
vector 1890568  Network.dyn_peer[168]  lookupStabilitySig:vector  ETV
vector 1890569  Network.dyn_peer[168]  lookupTimeSig:vector  ETV
vector 1890450  Network.dyn_peer[129]  lookupHopsSig:vector  ETV
vector 1890451  Network.dyn_peer[129]  lookupStabilitySig:vector  ETV
vector 1890452  Network.dyn_peer[129]  lookupTimeSig:vector  ETV
vector 1890312  Network.dyn_peer[83]  lookupHopsSig:vector  ETV
vector 1890313  Network.dyn_peer[83]  lookupStabilitySig:vector  ETV
vector 1890314  Network.dyn_peer[83]  lookupTimeSig:vector  ETV
vector 1890684  Network.dyn_peer[207]  lookupHopsSig:vector  ETV
vector 1890685  Network.dyn_peer[207]  lookupStabilitySig:vector  ETV
vector 1890686  Network.dyn_peer[207]  lookupTimeSig:vector  ETV
vector 1890597  Network.dyn_peer[178]  lookupHopsSig:vector  ETV
vector 1890598  Network.dyn_peer[178]  lookupStabilitySig:vector  ETV
vector 1890599  Network.dyn_peer[178]  lookupTimeSig:vector  ETV
vector 1890627  Network.dyn_peer[188]  lookupHopsSig:vector  ETV
vector 1890628  Network.dyn_peer[188]  lookupStabilitySig:vector  ETV
vector 1890629  Network.dyn_peer[188]  lookupTimeSig:vector  ETV
vector 1890687  Network.dyn_peer[208]  lookupHopsSig:vector  ETV
vector 1890688  Network.dyn_peer[208]  lookupStabilitySig:vector  ETV
vector 1890689  Network.dyn_peer[208]  lookupTimeSig:vector  ETV
vector 1890570  Network.dyn_peer[169]  lookupHopsSig:vector  ETV
vector 1890571  Network.dyn_peer[169]  lookupStabilitySig:vector  ETV
vector 1890572  Network.dyn_peer[169]  lookupTimeSig:vector  ETV
vector 1890690  Network.dyn_peer[209]  lookupHopsSig:vector  ETV
vector 1890691  Network.dyn_peer[209]  lookupStabilitySig:vector  ETV
vector 1890692  Network.dyn_peer[209]  lookupTimeSig:vector  ETV
vector 1890666  Network.dyn_peer[201]  lookupHopsSig:vector  ETV
vector 1890667  Network.dyn_peer[201]  lookupStabilitySig:vector  ETV
vector 1890668  Network.dyn_peer[201]  lookupTimeSig:vector  ETV
vector 1890402  Network.dyn_peer[113]  lookupHopsSig:vector  ETV
vector 1890403  Network.dyn_peer[113]  lookupStabilitySig:vector  ETV
vector 1890404  Network.dyn_peer[113]  lookupTimeSig:vector  ETV
vector 1890702  Network.dyn_peer[213]  lookupHopsSig:vector  ETV
vector 1890703  Network.dyn_peer[213]  lookupStabilitySig:vector  ETV
vector 1890704  Network.dyn_peer[213]  lookupTimeSig:vector  ETV
vector 1890495  Network.dyn_peer[144]  lookupHopsSig:vector  ETV
vector 1890496  Network.dyn_peer[144]  lookupStabilitySig:vector  ETV
vector 1890497  Network.dyn_peer[144]  lookupTimeSig:vector  ETV
vector 1890705  Network.dyn_peer[214]  lookupHopsSig:vector  ETV
vector 1890706  Network.dyn_peer[214]  lookupStabilitySig:vector  ETV
vector 1890707  Network.dyn_peer[214]  lookupTimeSig:vector  ETV
vector 1890594  Network.dyn_peer[177]  lookupHopsSig:vector  ETV
vector 1890595  Network.dyn_peer[177]  lookupStabilitySig:vector  ETV
vector 1890596  Network.dyn_peer[177]  lookupTimeSig:vector  ETV
vector 1890447  Network.dyn_peer[128]  lookupHopsSig:vector  ETV
vector 1890448  Network.dyn_peer[128]  lookupStabilitySig:vector  ETV
vector 1890449  Network.dyn_peer[128]  lookupTimeSig:vector  ETV
vector 1890390  Network.dyn_peer[109]  lookupHopsSig:vector  ETV
vector 1890391  Network.dyn_peer[109]  lookupStabilitySig:vector  ETV
vector 1890392  Network.dyn_peer[109]  lookupTimeSig:vector  ETV
vector 1890480  Network.dyn_peer[139]  lookupHopsSig:vector  ETV
vector 1890481  Network.dyn_peer[139]  lookupStabilitySig:vector  ETV
vector 1890482  Network.dyn_peer[139]  lookupTimeSig:vector  ETV
vector 1890483  Network.dyn_peer[140]  lookupHopsSig:vector  ETV
vector 1890484  Network.dyn_peer[140]  lookupStabilitySig:vector  ETV
vector 1890485  Network.dyn_peer[140]  lookupTimeSig:vector  ETV
vector 1890663  Network.dyn_peer[200]  lookupHopsSig:vector  ETV
vector 1890664  Network.dyn_peer[200]  lookupStabilitySig:vector  ETV
vector 1890665  Network.dyn_peer[200]  lookupTimeSig:vector  ETV
vector 1890609  Network.dyn_peer[182]  lookupHopsSig:vector  ETV
vector 1890610  Network.dyn_peer[182]  lookupStabilitySig:vector  ETV
vector 1890611  Network.dyn_peer[182]  lookupTimeSig:vector  ETV
vector 1890555  Network.dyn_peer[164]  lookupHopsSig:vector  ETV