version 2
run Stability2-64-20130528-01:30:37-24168
attr configname Stability2
attr datetime 20130528-01:30:37
attr experiment Stability2
attr inifile omnetpp.ini
attr iterationvars $0=200
attr iterationvars2 "$0=200, $repetition=4"
attr measurement $0=200
attr network Network
attr processid 24168
attr repetition 4
attr replication #4
attr resultdir results
attr runnumber 64
attr seedset 64

vector 1950064  Network.churner  inGoingSizeSig:vector  ETV
vector 1920082  Network.dyn_peer[6]  lookupHopsSig:vector  ETV
vector 1920083  Network.dyn_peer[6]  lookupStabilitySig:vector  ETV
vector 1920084  Network.dyn_peer[6]  lookupTimeSig:vector  ETV
vector 1920085  Network.dyn_peer[7]  lookupHopsSig:vector  ETV
vector 1920086  Network.dyn_peer[7]  lookupStabilitySig:vector  ETV
vector 1920087  Network.dyn_peer[7]  lookupTimeSig:vector  ETV
vector 1920064  Network.dyn_peer[0]  lookupHopsSig:vector  ETV
vector 1920065  Network.dyn_peer[0]  lookupStabilitySig:vector  ETV
vector 1920066  Network.dyn_peer[0]  lookupTimeSig:vector  ETV
vector 1920094  Network.dyn_peer[10]  lookupHopsSig:vector  ETV
vector 1920095  Network.dyn_peer[10]  lookupStabilitySig:vector  ETV
vector 1920096  Network.dyn_peer[10]  lookupTimeSig:vector  ETV
vector 1920073  Network.dyn_peer[3]  lookupHopsSig:vector  ETV
vector 1920074  Network.dyn_peer[3]  lookupStabilitySig:vector  ETV
vector 1920075  Network.dyn_peer[3]  lookupTimeSig:vector  ETV
vector 1920103  Network.dyn_peer[13]  lookupHopsSig:vector  ETV
vector 1920104  Network.dyn_peer[13]  lookupStabilitySig:vector  ETV
vector 1920105  Network.dyn_peer[13]  lookupTimeSig:vector  ETV
vector 1920079  Network.dyn_peer[5]  lookupHopsSig:vector  ETV
vector 1920080  Network.dyn_peer[5]  lookupStabilitySig:vector  ETV
vector 1920081  Network.dyn_peer[5]  lookupTimeSig:vector  ETV
vector 1920112  Network.dyn_peer[16]  lookupHopsSig:vector  ETV
vector 1920113  Network.dyn_peer[16]  lookupStabilitySig:vector  ETV
vector 1920114  Network.dyn_peer[16]  lookupTimeSig:vector  ETV
vector 1920088  Network.dyn_peer[8]  lookupHopsSig:vector  ETV
vector 1920089  Network.dyn_peer[8]  lookupStabilitySig:vector  ETV
vector 1920090  Network.dyn_peer[8]  lookupTimeSig:vector  ETV
vector 1920097  Network.dyn_peer[11]  lookupHopsSig:vector  ETV
vector 1920098  Network.dyn_peer[11]  lookupStabilitySig:vector  ETV
vector 1920099  Network.dyn_peer[11]  lookupTimeSig:vector  ETV
vector 1920070  Network.dyn_peer[2]  lookupHopsSig:vector  ETV
vector 1920071  Network.dyn_peer[2]  lookupStabilitySig:vector  ETV
vector 1920072  Network.dyn_peer[2]  lookupTimeSig:vector  ETV
vector 1920121  Network.dyn_peer[19]  lookupHopsSig:vector  ETV
vector 1920122  Network.dyn_peer[19]  lookupStabilitySig:vector  ETV
vector 1920123  Network.dyn_peer[19]  lookupTimeSig:vector  ETV
vector 1920067  Network.dyn_peer[1]  lookupHopsSig:vector  ETV
vector 1920068  Network.dyn_peer[1]  lookupStabilitySig:vector  ETV
vector 1920069  Network.dyn_peer[1]  lookupTimeSig:vector  ETV
vector 1920127  Network.dyn_peer[21]  lookupHopsSig:vector  ETV
vector 1920128  Network.dyn_peer[21]  lookupStabilitySig:vector  ETV
vector 1920129  Network.dyn_peer[21]  lookupTimeSig:vector  ETV
vector 1920130  Network.dyn_peer[22]  lookupHopsSig:vector  ETV
vector 1920131  Network.dyn_peer[22]  lookupStabilitySig:vector  ETV
vector 1920132  Network.dyn_peer[22]  lookupTimeSig:vector  ETV
vector 1920076  Network.dyn_peer[4]  lookupHopsSig:vector  ETV
vector 1920077  Network.dyn_peer[4]  lookupStabilitySig:vector  ETV
vector 1920078  Network.dyn_peer[4]  lookupTimeSig:vector  ETV
vector 1920166  Network.dyn_peer[34]  lookupHopsSig:vector  ETV
vector 1920167  Network.dyn_peer[34]  lookupStabilitySig:vector  ETV
vector 1920168  Network.dyn_peer[34]  lookupTimeSig:vector  ETV
vector 1920091  Network.dyn_peer[9]  lookupHopsSig:vector  ETV
vector 1920092  Network.dyn_peer[9]  lookupStabilitySig:vector  ETV
vector 1920093  Network.dyn_peer[9]  lookupTimeSig:vector  ETV
vector 1920154  Network.dyn_peer[30]  lookupHopsSig:vector  ETV
vector 1920155  Network.dyn_peer[30]  lookupStabilitySig:vector  ETV
vector 1920156  Network.dyn_peer[30]  lookupTimeSig:vector  ETV
vector 1920157  Network.dyn_peer[31]  lookupHopsSig:vector  ETV
vector 1920158  Network.dyn_peer[31]  lookupStabilitySig:vector  ETV
vector 1920159  Network.dyn_peer[31]  lookupTimeSig:vector  ETV
vector 1920100  Network.dyn_peer[12]  lookupHopsSig:vector  ETV
vector 1920101  Network.dyn_peer[12]  lookupStabilitySig:vector  ETV
vector 1920102  Network.dyn_peer[12]  lookupTimeSig:vector  ETV
vector 1920106  Network.dyn_peer[14]  lookupHopsSig:vector  ETV
vector 1920107  Network.dyn_peer[14]  lookupStabilitySig:vector  ETV
vector 1920108  Network.dyn_peer[14]  lookupTimeSig:vector  ETV
vector 1920139  Network.dyn_peer[25]  lookupHopsSig:vector  ETV
vector 1920140  Network.dyn_peer[25]  lookupStabilitySig:vector  ETV
vector 1920141  Network.dyn_peer[25]  lookupTimeSig:vector  ETV
vector 1920142  Network.dyn_peer[26]  lookupHopsSig:vector  ETV
vector 1920143  Network.dyn_peer[26]  lookupStabilitySig:vector  ETV
vector 1920144  Network.dyn_peer[26]  lookupTimeSig:vector  ETV
vector 1920214  Network.dyn_peer[50]  lookupHopsSig:vector  ETV
vector 1920215  Network.dyn_peer[50]  lookupStabilitySig:vector  ETV
vector 1920216  Network.dyn_peer[50]  lookupTimeSig:vector  ETV
vector 1920133  Network.dyn_peer[23]  lookupHopsSig:vector  ETV
vector 1920134  Network.dyn_peer[23]  lookupStabilitySig:vector  ETV
vector 1920135  Network.dyn_peer[23]  lookupTimeSig:vector  ETV
vector 1920115  Network.dyn_peer[17]  lookupHopsSig:vector  ETV
vector 1920116  Network.dyn_peer[17]  lookupStabilitySig:vector  ETV
vector 1920117  Network.dyn_peer[17]  lookupTimeSig:vector  ETV
vector 1920145  Network.dyn_peer[27]  lookupHopsSig:vector  ETV
vector 1920146  Network.dyn_peer[27]  lookupStabilitySig:vector  ETV
vector 1920147  Network.dyn_peer[27]  lookupTimeSig:vector  ETV
vector 1920118  Network.dyn_peer[18]  lookupHopsSig:vector  ETV
vector 1920119  Network.dyn_peer[18]  lookupStabilitySig:vector  ETV
vector 1920120  Network.dyn_peer[18]  lookupTimeSig:vector  ETV
vector 1920160  Network.dyn_peer[32]  lookupHopsSig:vector  ETV
vector 1920161  Network.dyn_peer[32]  lookupStabilitySig:vector  ETV
vector 1920162  Network.dyn_peer[32]  lookupTimeSig:vector  ETV
vector 1920190  Network.dyn_peer[42]  lookupHopsSig:vector  ETV
vector 1920191  Network.dyn_peer[42]  lookupStabilitySig:vector  ETV
vector 1920192  Network.dyn_peer[42]  lookupTimeSig:vector  ETV
vector 1920193  Network.dyn_peer[43]  lookupHopsSig:vector  ETV
vector 1920194  Network.dyn_peer[43]  lookupStabilitySig:vector  ETV
vector 1920195  Network.dyn_peer[43]  lookupTimeSig:vector  ETV
vector 1920175  Network.dyn_peer[37]  lookupHopsSig:vector  ETV
vector 1920176  Network.dyn_peer[37]  lookupStabilitySig:vector  ETV
vector 1920177  Network.dyn_peer[37]  lookupTimeSig:vector  ETV
vector 1920151  Network.dyn_peer[29]  lookupHopsSig:vector  ETV
vector 1920152  Network.dyn_peer[29]  lookupStabilitySig:vector  ETV
vector 1920153  Network.dyn_peer[29]  lookupTimeSig:vector  ETV
vector 1920250  Network.dyn_peer[62]  lookupHopsSig:vector  ETV
vector 1920251  Network.dyn_peer[62]  lookupStabilitySig:vector  ETV
vector 1920252  Network.dyn_peer[62]  lookupTimeSig:vector  ETV
vector 1920136  Network.dyn_peer[24]  lookupHopsSig:vector  ETV
vector 1920137  Network.dyn_peer[24]  lookupStabilitySig:vector  ETV
vector 1920138  Network.dyn_peer[24]  lookupTimeSig:vector  ETV
vector 1920109  Network.dyn_peer[15]  lookupHopsSig:vector  ETV
vector 1920110  Network.dyn_peer[15]  lookupStabilitySig:vector  ETV
vector 1920111  Network.dyn_peer[15]  lookupTimeSig:vector  ETV
vector 1920169  Network.dyn_peer[35]  lookupHopsSig:vector  ETV
vector 1920170  Network.dyn_peer[35]  lookupStabilitySig:vector  ETV
vector 1920171  Network.dyn_peer[35]  lookupTimeSig:vector  ETV
vector 1920199  Network.dyn_peer[45]  lookupHopsSig:vector  ETV
vector 1920200  Network.dyn_peer[45]  lookupStabilitySig:vector  ETV
vector 1920201  Network.dyn_peer[45]  lookupTimeSig:vector  ETV
vector 1920304  Network.dyn_peer[80]  lookupHopsSig:vector  ETV
vector 1920305  Network.dyn_peer[80]  lookupStabilitySig:vector  ETV
vector 1920306  Network.dyn_peer[80]  lookupTimeSig:vector  ETV
vector 1920202  Network.dyn_peer[46]  lookupHopsSig:vector  ETV
vector 1920203  Network.dyn_peer[46]  lookupStabilitySig:vector  ETV
vector 1920204  Network.dyn_peer[46]  lookupTimeSig:vector  ETV
vector 1920232  Network.dyn_peer[56]  lookupHopsSig:vector  ETV
vector 1920233  Network.dyn_peer[56]  lookupStabilitySig:vector  ETV
vector 1920234  Network.dyn_peer[56]  lookupTimeSig:vector  ETV
vector 1920148  Network.dyn_peer[28]  lookupHopsSig:vector  ETV
vector 1920149  Network.dyn_peer[28]  lookupStabilitySig:vector  ETV
vector 1920150  Network.dyn_peer[28]  lookupTimeSig:vector  ETV
vector 1920211  Network.dyn_peer[49]  lookupHopsSig:vector  ETV
vector 1920212  Network.dyn_peer[49]  lookupStabilitySig:vector  ETV
vector 1920213  Network.dyn_peer[49]  lookupTimeSig:vector  ETV
vector 1920271  Network.dyn_peer[69]  lookupHopsSig:vector  ETV
vector 1920272  Network.dyn_peer[69]  lookupStabilitySig:vector  ETV
vector 1920273  Network.dyn_peer[69]  lookupTimeSig:vector  ETV
vector 1920316  Network.dyn_peer[84]  lookupHopsSig:vector  ETV
vector 1920317  Network.dyn_peer[84]  lookupStabilitySig:vector  ETV
vector 1920318  Network.dyn_peer[84]  lookupTimeSig:vector  ETV
vector 1920235  Network.dyn_peer[57]  lookupHopsSig:vector  ETV
vector 1920236  Network.dyn_peer[57]  lookupStabilitySig:vector  ETV
vector 1920237  Network.dyn_peer[57]  lookupTimeSig:vector  ETV
vector 1920187  Network.dyn_peer[41]  lookupHopsSig:vector  ETV
vector 1920188  Network.dyn_peer[41]  lookupStabilitySig:vector  ETV
vector 1920189  Network.dyn_peer[41]  lookupTimeSig:vector  ETV
vector 1920307  Network.dyn_peer[81]  lookupHopsSig:vector  ETV
vector 1920308  Network.dyn_peer[81]  lookupStabilitySig:vector  ETV
vector 1920309  Network.dyn_peer[81]  lookupTimeSig:vector  ETV
vector 1920352  Network.dyn_peer[96]  lookupHopsSig:vector  ETV
vector 1920353  Network.dyn_peer[96]  lookupStabilitySig:vector  ETV
vector 1920354  Network.dyn_peer[96]  lookupTimeSig:vector  ETV
vector 1920268  Network.dyn_peer[68]  lookupHopsSig:vector  ETV
vector 1920269  Network.dyn_peer[68]  lookupStabilitySig:vector  ETV
vector 1920270  Network.dyn_peer[68]  lookupTimeSig:vector  ETV
vector 1920244  Network.dyn_peer[60]  lookupHopsSig:vector  ETV
vector 1920245  Network.dyn_peer[60]  lookupStabilitySig:vector  ETV
vector 1920246  Network.dyn_peer[60]  lookupTimeSig:vector  ETV
vector 1920343  Network.dyn_peer[93]  lookupHopsSig:vector  ETV
vector 1920344  Network.dyn_peer[93]  lookupStabilitySig:vector  ETV
vector 1920345  Network.dyn_peer[93]  lookupTimeSig:vector  ETV
vector 1920373  Network.dyn_peer[103]  lookupHopsSig:vector  ETV
vector 1920374  Network.dyn_peer[103]  lookupStabilitySig:vector  ETV
vector 1920375  Network.dyn_peer[103]  lookupTimeSig:vector  ETV
vector 1920262  Network.dyn_peer[66]  lookupHopsSig:vector  ETV
vector 1920263  Network.dyn_peer[66]  lookupStabilitySig:vector  ETV
vector 1920264  Network.dyn_peer[66]  lookupTimeSig:vector  ETV
vector 1920292  Network.dyn_peer[76]  lookupHopsSig:vector  ETV
vector 1920293  Network.dyn_peer[76]  lookupStabilitySig:vector  ETV
vector 1920294  Network.dyn_peer[76]  lookupTimeSig:vector  ETV
vector 1920265  Network.dyn_peer[67]  lookupHopsSig:vector  ETV
vector 1920266  Network.dyn_peer[67]  lookupStabilitySig:vector  ETV
vector 1920267  Network.dyn_peer[67]  lookupTimeSig:vector  ETV
vector 1920238  Network.dyn_peer[58]  lookupHopsSig:vector  ETV
vector 1920239  Network.dyn_peer[58]  lookupStabilitySig:vector  ETV
vector 1920240  Network.dyn_peer[58]  lookupTimeSig:vector  ETV
vector 1920274  Network.dyn_peer[70]  lookupHopsSig:vector  ETV
vector 1920275  Network.dyn_peer[70]  lookupStabilitySig:vector  ETV
vector 1920276  Network.dyn_peer[70]  lookupTimeSig:vector  ETV
vector 1920217  Network.dyn_peer[51]  lookupHopsSig:vector  ETV
vector 1920218  Network.dyn_peer[51]  lookupStabilitySig:vector  ETV
vector 1920219  Network.dyn_peer[51]  lookupTimeSig:vector  ETV
vector 1920310  Network.dyn_peer[82]  lookupHopsSig:vector  ETV
vector 1920311  Network.dyn_peer[82]  lookupStabilitySig:vector  ETV
vector 1920312  Network.dyn_peer[82]  lookupTimeSig:vector  ETV
vector 1920340  Network.dyn_peer[92]  lookupHopsSig:vector  ETV
vector 1920341  Network.dyn_peer[92]  lookupStabilitySig:vector  ETV
vector 1920342  Network.dyn_peer[92]  lookupTimeSig:vector  ETV
vector 1920370  Network.dyn_peer[102]  lookupHopsSig:vector  ETV
vector 1920371  Network.dyn_peer[102]  lookupStabilitySig:vector  ETV
vector 1920372  Network.dyn_peer[102]  lookupTimeSig:vector  ETV
vector 1920319  Network.dyn_peer[85]  lookupHopsSig:vector  ETV
vector 1920320  Network.dyn_peer[85]  lookupStabilitySig:vector  ETV
vector 1920321  Network.dyn_peer[85]  lookupTimeSig:vector  ETV
vector 1920172  Network.dyn_peer[36]  lookupHopsSig:vector  ETV
vector 1920173  Network.dyn_peer[36]  lookupStabilitySig:vector  ETV
vector 1920174  Network.dyn_peer[36]  lookupTimeSig:vector  ETV
vector 1920337  Network.dyn_peer[91]  lookupHopsSig:vector  ETV
vector 1920338  Network.dyn_peer[91]  lookupStabilitySig:vector  ETV
vector 1920339  Network.dyn_peer[91]  lookupTimeSig:vector  ETV
vector 1920367  Network.dyn_peer[101]  lookupHopsSig:vector  ETV
vector 1920368  Network.dyn_peer[101]  lookupStabilitySig:vector  ETV
vector 1920369  Network.dyn_peer[101]  lookupTimeSig:vector  ETV
vector 1920220  Network.dyn_peer[52]  lookupHopsSig:vector  ETV
vector 1920221  Network.dyn_peer[52]  lookupStabilitySig:vector  ETV
vector 1920222  Network.dyn_peer[52]  lookupTimeSig:vector  ETV
vector 1920400  Network.dyn_peer[112]  lookupHopsSig:vector  ETV
vector 1920401  Network.dyn_peer[112]  lookupStabilitySig:vector  ETV
vector 1920402  Network.dyn_peer[112]  lookupTimeSig:vector  ETV
vector 1920253  Network.dyn_peer[63]  lookupHopsSig:vector  ETV
vector 1920254  Network.dyn_peer[63]  lookupStabilitySig:vector  ETV
vector 1920255  Network.dyn_peer[63]  lookupTimeSig:vector  ETV
vector 1920283  Network.dyn_peer[73]  lookupHopsSig:vector  ETV
vector 1920284  Network.dyn_peer[73]  lookupStabilitySig:vector  ETV
vector 1920285  Network.dyn_peer[73]  lookupTimeSig:vector  ETV
vector 1920295  Network.dyn_peer[77]  lookupHopsSig:vector  ETV
vector 1920296  Network.dyn_peer[77]  lookupStabilitySig:vector  ETV
vector 1920297  Network.dyn_peer[77]  lookupTimeSig:vector  ETV
vector 1920328  Network.dyn_peer[88]  lookupHopsSig:vector  ETV
vector 1920329  Network.dyn_peer[88]  lookupStabilitySig:vector  ETV
vector 1920330  Network.dyn_peer[88]  lookupTimeSig:vector  ETV
vector 1920364  Network.dyn_peer[100]  lookupHopsSig:vector  ETV
vector 1920365  Network.dyn_peer[100]  lookupStabilitySig:vector  ETV
vector 1920366  Network.dyn_peer[100]  lookupTimeSig:vector  ETV
vector 1920403  Network.dyn_peer[113]  lookupHopsSig:vector  ETV
vector 1920404  Network.dyn_peer[113]  lookupStabilitySig:vector  ETV
vector 1920405  Network.dyn_peer[113]  lookupTimeSig:vector  ETV
vector 1920346  Network.dyn_peer[94]  lookupHopsSig:vector  ETV
vector 1920347  Network.dyn_peer[94]  lookupStabilitySig:vector  ETV
vector 1920348  Network.dyn_peer[94]  lookupTimeSig:vector  ETV
vector 1920349  Network.dyn_peer[95]  lookupHopsSig:vector  ETV
vector 1920350  Network.dyn_peer[95]  lookupStabilitySig:vector  ETV
vector 1920351  Network.dyn_peer[95]  lookupTimeSig:vector  ETV
vector 1920442  Network.dyn_peer[126]  lookupHopsSig:vector  ETV
vector 1920443  Network.dyn_peer[126]  lookupStabilitySig:vector  ETV
vector 1920444  Network.dyn_peer[126]  lookupTimeSig:vector  ETV
vector 1920205  Network.dyn_peer[47]  lookupHopsSig:vector  ETV
vector 1920206  Network.dyn_peer[47]  lookupStabilitySig:vector  ETV
vector 1920207  Network.dyn_peer[47]  lookupTimeSig:vector  ETV
vector 1920301  Network.dyn_peer[79]  lookupHopsSig:vector  ETV
vector 1920302  Network.dyn_peer[79]  lookupStabilitySig:vector  ETV
vector 1920303  Network.dyn_peer[79]  lookupTimeSig:vector  ETV
vector 1920484  Network.dyn_peer[140]  lookupHopsSig:vector  ETV
vector 1920485  Network.dyn_peer[140]  lookupStabilitySig:vector  ETV
vector 1920486  Network.dyn_peer[140]  lookupTimeSig:vector  ETV
vector 1920277  Network.dyn_peer[71]  lookupHopsSig:vector  ETV
vector 1920278  Network.dyn_peer[71]  lookupStabilitySig:vector  ETV
vector 1920279  Network.dyn_peer[71]  lookupTimeSig:vector  ETV
vector 1920430  Network.dyn_peer[122]  lookupHopsSig:vector  ETV
vector 1920431  Network.dyn_peer[122]  lookupStabilitySig:vector  ETV
vector 1920432  Network.dyn_peer[122]  lookupTimeSig:vector  ETV
vector 1920313  Network.dyn_peer[83]  lookupHopsSig:vector  ETV
vector 1920314  Network.dyn_peer[83]  lookupStabilitySig:vector  ETV
vector 1920315  Network.dyn_peer[83]  lookupTimeSig:vector  ETV
vector 1920463  Network.dyn_peer[133]  lookupHopsSig:vector  ETV
vector 1920464  Network.dyn_peer[133]  lookupStabilitySig:vector  ETV
vector 1920465  Network.dyn_peer[133]  lookupTimeSig:vector  ETV
vector 1920289  Network.dyn_peer[75]  lookupHopsSig:vector  ETV
vector 1920290  Network.dyn_peer[75]  lookupStabilitySig:vector  ETV
vector 1920291  Network.dyn_peer[75]  lookupTimeSig:vector  ETV
vector 1920499  Network.dyn_peer[145]  lookupHopsSig:vector  ETV
vector 1920500  Network.dyn_peer[145]  lookupStabilitySig:vector  ETV
vector 1920501  Network.dyn_peer[145]  lookupTimeSig:vector  ETV
vector 1920382  Network.dyn_peer[106]  lookupHopsSig:vector  ETV
vector 1920383  Network.dyn_peer[106]  lookupStabilitySig:vector  ETV
vector 1920384  Network.dyn_peer[106]  lookupTimeSig:vector  ETV
vector 1920412  Network.dyn_peer[116]  lookupHopsSig:vector  ETV
vector 1920413  Network.dyn_peer[116]  lookupStabilitySig:vector  ETV
vector 1920414  Network.dyn_peer[116]  lookupTimeSig:vector  ETV
vector 1920358  Network.dyn_peer[98]  lookupHopsSig:vector  ETV
vector 1920359  Network.dyn_peer[98]  lookupStabilitySig:vector  ETV
vector 1920360  Network.dyn_peer[98]  lookupTimeSig:vector  ETV
vector 1920334  Network.dyn_peer[90]  lookupHopsSig:vector  ETV
vector 1920335  Network.dyn_peer[90]  lookupStabilitySig:vector  ETV
vector 1920336  Network.dyn_peer[90]  lookupTimeSig:vector  ETV
vector 1920517  Network.dyn_peer[151]  lookupHopsSig:vector  ETV
vector 1920518  Network.dyn_peer[151]  lookupStabilitySig:vector  ETV
vector 1920519  Network.dyn_peer[151]  lookupTimeSig:vector  ETV
vector 1920226  Network.dyn_peer[54]  lookupHopsSig:vector  ETV
vector 1920227  Network.dyn_peer[54]  lookupStabilitySig:vector  ETV
vector 1920228  Network.dyn_peer[54]  lookupTimeSig:vector  ETV
vector 1920286  Network.dyn_peer[74]  lookupHopsSig:vector  ETV
vector 1920287  Network.dyn_peer[74]  lookupStabilitySig:vector  ETV
vector 1920288  Network.dyn_peer[74]  lookupTimeSig:vector  ETV
vector 1920376  Network.dyn_peer[104]  lookupHopsSig:vector  ETV
vector 1920377  Network.dyn_peer[104]  lookupStabilitySig:vector  ETV
vector 1920378  Network.dyn_peer[104]  lookupTimeSig:vector  ETV
vector 1920259  Network.dyn_peer[65]  lookupHopsSig:vector  ETV
vector 1920260  Network.dyn_peer[65]  lookupStabilitySig:vector  ETV
vector 1920261  Network.dyn_peer[65]  lookupTimeSig:vector  ETV
vector 1920439  Network.dyn_peer[125]  lookupHopsSig:vector  ETV
vector 1920440  Network.dyn_peer[125]  lookupStabilitySig:vector  ETV
vector 1920441  Network.dyn_peer[125]  lookupTimeSig:vector  ETV
vector 1920181  Network.dyn_peer[39]  lookupHopsSig:vector  ETV
vector 1920182  Network.dyn_peer[39]  lookupStabilitySig:vector  ETV
vector 1920183  Network.dyn_peer[39]  lookupTimeSig:vector  ETV
vector 1920331  Network.dyn_peer[89]  lookupHopsSig:vector  ETV
vector 1920332  Network.dyn_peer[89]  lookupStabilitySig:vector  ETV
vector 1920333  Network.dyn_peer[89]  lookupTimeSig:vector  ETV
vector 1920124  Network.dyn_peer[20]  lookupHopsSig:vector  ETV
vector 1920125  Network.dyn_peer[20]  lookupStabilitySig:vector  ETV
vector 1920126  Network.dyn_peer[20]  lookupTimeSig:vector  ETV
vector 1920436  Network.dyn_peer[124]  lookupHopsSig:vector  ETV
vector 1920437  Network.dyn_peer[124]  lookupStabilitySig:vector  ETV
vector 1920438  Network.dyn_peer[124]  lookupTimeSig:vector  ETV
vector 1920379  Network.dyn_peer[105]  lookupHopsSig:vector  ETV
vector 1920380  Network.dyn_peer[105]  lookupStabilitySig:vector  ETV
vector 1920381  Network.dyn_peer[105]  lookupTimeSig:vector  ETV
vector 1920178  Network.dyn_peer[38]  lookupHopsSig:vector  ETV
vector 1920179  Network.dyn_peer[38]  lookupStabilitySig:vector  ETV
vector 1920180  Network.dyn_peer[38]  lookupTimeSig:vector  ETV
vector 1920538  Network.dyn_peer[158]  lookupHopsSig:vector  ETV
vector 1920539  Network.dyn_peer[158]  lookupStabilitySig:vector  ETV
vector 1920540  Network.dyn_peer[158]  lookupTimeSig:vector  ETV
vector 1920457  Network.dyn_peer[131]  lookupHopsSig:vector  ETV
vector 1920458  Network.dyn_peer[131]  lookupStabilitySig:vector  ETV
vector 1920459  Network.dyn_peer[131]  lookupTimeSig:vector  ETV
vector 1920547  Network.dyn_peer[161]  lookupHopsSig:vector  ETV
vector 1920548  Network.dyn_peer[161]  lookupStabilitySig:vector  ETV
vector 1920549  Network.dyn_peer[161]  lookupTimeSig:vector  ETV
vector 1920490  Network.dyn_peer[142]  lookupHopsSig:vector  ETV
vector 1920491  Network.dyn_peer[142]  lookupStabilitySig:vector  ETV
vector 1920492  Network.dyn_peer[142]  lookupTimeSig:vector  ETV
vector 1920466  Network.dyn_peer[134]  lookupHopsSig:vector  ETV
vector 1920467  Network.dyn_peer[134]  lookupStabilitySig:vector  ETV
vector 1920468  Network.dyn_peer[134]  lookupTimeSig:vector  ETV
vector 1920322  Network.dyn_peer[86]  lookupHopsSig:vector  ETV
vector 1920323  Network.dyn_peer[86]  lookupStabilitySig:vector  ETV
vector 1920324  Network.dyn_peer[86]  lookupTimeSig:vector  ETV
vector 1920532  Network.dyn_peer[156]  lookupHopsSig:vector  ETV
vector 1920533  Network.dyn_peer[156]  lookupStabilitySig:vector  ETV
vector 1920534  Network.dyn_peer[156]  lookupTimeSig:vector  ETV
vector 1920391  Network.dyn_peer[109]  lookupHopsSig:vector  ETV
vector 1920392  Network.dyn_peer[109]  lookupStabilitySig:vector  ETV
vector 1920393  Network.dyn_peer[109]  lookupTimeSig:vector  ETV
vector 1920481  Network.dyn_peer[139]  lookupHopsSig:vector  ETV
vector 1920482  Network.dyn_peer[139]  lookupStabilitySig:vector  ETV
vector 1920483  Network.dyn_peer[139]  lookupTimeSig:vector  ETV
vector 1920637  Network.dyn_peer[191]  lookupHopsSig:vector  ETV
vector 1920638  Network.dyn_peer[191]  lookupStabilitySig:vector  ETV
vector 1920639  Network.dyn_peer[191]  lookupTimeSig:vector  ETV
vector 1920640  Network.dyn_peer[192]  lookupHopsSig:vector  ETV
vector 1920641  Network.dyn_peer[192]  lookupStabilitySig:vector  ETV
vector 1920642  Network.dyn_peer[192]  lookupTimeSig:vector  ETV
vector 1920163  Network.dyn_peer[33]  lookupHopsSig:vector  ETV
vector 1920164  Network.dyn_peer[33]  lookupStabilitySig:vector  ETV
vector 1920165  Network.dyn_peer[33]  lookupTimeSig:vector  ETV
vector 1920586  Network.dyn_peer[174]  lookupHopsSig:vector  ETV
vector 1920587  Network.dyn_peer[174]  lookupStabilitySig:vector  ETV
vector 1920588  Network.dyn_peer[174]  lookupTimeSig:vector  ETV
vector 1920589  Network.dyn_peer[175]  lookupHopsSig:vector  ETV
vector 1920590  Network.dyn_peer[175]  lookupStabilitySig:vector  ETV
vector 1920591  Network.dyn_peer[175]  lookupTimeSig:vector  ETV
vector 1920325  Network.dyn_peer[87]  lookupHopsSig:vector  ETV
vector 1920326  Network.dyn_peer[87]  lookupStabilitySig:vector  ETV
vector 1920327  Network.dyn_peer[87]  lookupTimeSig:vector  ETV
vector 1920208  Network.dyn_peer[48]  lookupHopsSig:vector  ETV
vector 1920209  Network.dyn_peer[48]  lookupStabilitySig:vector  ETV
vector 1920210  Network.dyn_peer[48]  lookupTimeSig:vector  ETV
vector 1920601  Network.dyn_peer[179]  lookupHopsSig:vector  ETV
vector 1920602  Network.dyn_peer[179]  lookupStabilitySig:vector  ETV
vector 1920603  Network.dyn_peer[179]  lookupTimeSig:vector  ETV
vector 1920427  Network.dyn_peer[121]  lookupHopsSig:vector  ETV
vector 1920428  Network.dyn_peer[121]  lookupStabilitySig:vector  ETV
vector 1920429  Network.dyn_peer[121]  lookupTimeSig:vector  ETV
vector 1920223  Network.dyn_peer[53]  lookupHopsSig:vector  ETV
vector 1920224  Network.dyn_peer[53]  lookupStabilitySig:vector  ETV
vector 1920225  Network.dyn_peer[53]  lookupTimeSig:vector  ETV
vector 1920493  Network.dyn_peer[143]  lookupHopsSig:vector  ETV
vector 1920494  Network.dyn_peer[143]  lookupStabilitySig:vector  ETV
vector 1920495  Network.dyn_peer[143]  lookupTimeSig:vector  ETV
vector 1920526  Network.dyn_peer[154]  lookupHopsSig:vector  ETV
vector 1920527  Network.dyn_peer[154]  lookupStabilitySig:vector  ETV
vector 1920528  Network.dyn_peer[154]  lookupTimeSig:vector  ETV
vector 1920229  Network.dyn_peer[55]  lookupHopsSig:vector  ETV
vector 1920230  Network.dyn_peer[55]  lookupStabilitySig:vector  ETV
vector 1920231  Network.dyn_peer[55]  lookupTimeSig:vector  ETV
vector 1920502  Network.dyn_peer[146]  lookupHopsSig:vector  ETV
vector 1920503  Network.dyn_peer[146]  lookupStabilitySig:vector  ETV
vector 1920504  Network.dyn_peer[146]  lookupTimeSig:vector  ETV
vector 1920655  Network.dyn_peer[197]  lookupHopsSig:vector  ETV
vector 1920656  Network.dyn_peer[197]  lookupStabilitySig:vector  ETV
vector 1920657  Network.dyn_peer[197]  lookupTimeSig:vector  ETV
vector 1920298  Network.dyn_peer[78]  lookupHopsSig:vector  ETV
vector 1920299  Network.dyn_peer[78]  lookupStabilitySig:vector  ETV
vector 1920300  Network.dyn_peer[78]  lookupTimeSig:vector  ETV
vector 1920448  Network.dyn_peer[128]  lookupHopsSig:vector  ETV
vector 1920449  Network.dyn_peer[128]  lookupStabilitySig:vector  ETV
vector 1920450  Network.dyn_peer[128]  lookupTimeSig:vector  ETV
vector 1920424  Network.dyn_peer[120]  lookupHopsSig:vector  ETV
vector 1920425  Network.dyn_peer[120]  lookupStabilitySig:vector  ETV
vector 1920426  Network.dyn_peer[120]  lookupTimeSig:vector  ETV
vector 1920544  Network.dyn_peer[160]  lookupHopsSig:vector  ETV
vector 1920545  Network.dyn_peer[160]  lookupStabilitySig:vector  ETV
vector 1920546  Network.dyn_peer[160]  lookupTimeSig:vector  ETV
vector 1920433  Network.dyn_peer[123]  lookupHopsSig:vector  ETV
vector 1920434  Network.dyn_peer[123]  lookupStabilitySig:vector  ETV
vector 1920435  Network.dyn_peer[123]  lookupTimeSig:vector  ETV
vector 1920523  Network.dyn_peer[153]  lookupHopsSig:vector  ETV
vector 1920524  Network.dyn_peer[153]  lookupStabilitySig:vector  ETV
vector 1920525  Network.dyn_peer[153]  lookupTimeSig:vector  ETV
vector 1920592  Network.dyn_peer[176]  lookupHopsSig:vector  ETV
vector 1920593  Network.dyn_peer[176]  lookupStabilitySig:vector  ETV
vector 1920594  Network.dyn_peer[176]  lookupTimeSig:vector  ETV
vector 1920568  Network.dyn_peer[168]  lookupHopsSig:vector  ETV
vector 1920569  Network.dyn_peer[168]  lookupStabilitySig:vector  ETV
vector 1920570  Network.dyn_peer[168]  lookupTimeSig:vector  ETV
vector 1920487  Network.dyn_peer[141]  lookupHopsSig:vector  ETV
vector 1920488  Network.dyn_peer[141]  lookupStabilitySig:vector  ETV
vector 1920489  Network.dyn_peer[141]  lookupTimeSig:vector  ETV
vector 1920409  Network.dyn_peer[115]  lookupHopsSig:vector  ETV
vector 1920410  Network.dyn_peer[115]  lookupStabilitySig:vector  ETV
vector 1920411  Network.dyn_peer[115]  lookupTimeSig:vector  ETV
vector 1920559  Network.dyn_peer[165]  lookupHopsSig:vector  ETV
vector 1920560  Network.dyn_peer[165]  lookupStabilitySig:vector  ETV
vector 1920561  Network.dyn_peer[165]  lookupTimeSig:vector  ETV
vector 1920421  Network.dyn_peer[119]  lookupHopsSig:vector  ETV
vector 1920422  Network.dyn_peer[119]  lookupStabilitySig:vector  ETV
vector 1920423  Network.dyn_peer[119]  lookupTimeSig:vector  ETV
vector 1920451  Network.dyn_peer[129]  lookupHopsSig:vector  ETV
vector 1920452  Network.dyn_peer[129]  lookupStabilitySig:vector  ETV
vector 1920453  Network.dyn_peer[129]  lookupTimeSig:vector  ETV
vector 1920247  Network.dyn_peer[61]  lookupHopsSig:vector  ETV
vector 1920248  Network.dyn_peer[61]  lookupStabilitySig:vector  ETV
vector 1920249  Network.dyn_peer[61]  lookupTimeSig:vector  ETV
vector 1920496  Network.dyn_peer[144]  lookupHopsSig:vector  ETV
vector 1920497  Network.dyn_peer[144]  lookupStabilitySig:vector  ETV
vector 1920498  Network.dyn_peer[144]  lookupTimeSig:vector  ETV
vector 1920646  Network.dyn_peer[194]  lookupHopsSig:vector  ETV
vector 1920647  Network.dyn_peer[194]  lookupStabilitySig:vector  ETV
vector 1920648  Network.dyn_peer[194]  lookupTimeSig:vector  ETV
vector 1920472  Network.dyn_peer[136]  lookupHopsSig:vector  ETV
vector 1920473  Network.dyn_peer[136]  lookupStabilitySig:vector  ETV
vector 1920474  Network.dyn_peer[136]  lookupTimeSig:vector  ETV
vector 1920562  Network.dyn_peer[166]  lookupHopsSig:vector  ETV
vector 1920563  Network.dyn_peer[166]  lookupStabilitySig:vector  ETV
vector 1920564  Network.dyn_peer[166]  lookupTimeSig:vector  ETV
vector 1920385  Network.dyn_peer[107]  lookupHopsSig:vector  ETV
vector 1920386  Network.dyn_peer[107]  lookupStabilitySig:vector  ETV
vector 1920387  Network.dyn_peer[107]  lookupTimeSig:vector  ETV
vector 1920445  Network.dyn_peer[127]  lookupHopsSig:vector  ETV
vector 1920446  Network.dyn_peer[127]  lookupStabilitySig:vector  ETV
vector 1920447  Network.dyn_peer[127]  lookupTimeSig:vector  ETV
vector 1920658  Network.dyn_peer[198]  lookupHopsSig:vector  ETV
vector 1920659  Network.dyn_peer[198]  lookupStabilitySig:vector  ETV
vector 1920660  Network.dyn_peer[198]  lookupTimeSig:vector  ETV
vector 1920634  Network.dyn_peer[190]  lookupHopsSig:vector  ETV
vector 1920635  Network.dyn_peer[190]  lookupStabilitySig:vector  ETV
vector 1920636  Network.dyn_peer[190]  lookupTimeSig:vector  ETV