file 6003320 1369698851                                         
version 2
run Stability2-96-20130528-01:53:11-24168
attr configname Stability2
attr datetime 20130528-01:53:11
attr experiment Stability2
attr inifile omnetpp.ini
attr iterationvars $0=500
attr iterationvars2 "$0=500, $repetition=6"
attr measurement $0=500
attr network Network
attr processid 24168
attr repetition 6
attr replication #6
attr resultdir results
attr runnumber 96
attr seedset 96

vector 2910096  Network.churner  inGoingSizeSig:vector  ETV
vector 2880105  Network.dyn_peer[3]  lookupHopsSig:vector  ETV
vector 2880106  Network.dyn_peer[3]  lookupStabilitySig:vector  ETV
vector 2880107  Network.dyn_peer[3]  lookupTimeSig:vector  ETV
vector 2880108  Network.dyn_peer[4]  lookupHopsSig:vector  ETV
vector 2880109  Network.dyn_peer[4]  lookupStabilitySig:vector  ETV
vector 2880110  Network.dyn_peer[4]  lookupTimeSig:vector  ETV
vector 2880117  Network.dyn_peer[7]  lookupHopsSig:vector  ETV
vector 2880118  Network.dyn_peer[7]  lookupStabilitySig:vector  ETV
vector 2880119  Network.dyn_peer[7]  lookupTimeSig:vector  ETV
vector 2880096  Network.dyn_peer[0]  lookupHopsSig:vector  ETV
vector 2880097  Network.dyn_peer[0]  lookupStabilitySig:vector  ETV
vector 2880098  Network.dyn_peer[0]  lookupTimeSig:vector  ETV
vector 2880099  Network.dyn_peer[1]  lookupHopsSig:vector  ETV
vector 2880100  Network.dyn_peer[1]  lookupStabilitySig:vector  ETV
vector 2880101  Network.dyn_peer[1]  lookupTimeSig:vector  ETV
vector 2880132  Network.dyn_peer[12]  lookupHopsSig:vector  ETV
vector 2880133  Network.dyn_peer[12]  lookupStabilitySig:vector  ETV
vector 2880134  Network.dyn_peer[12]  lookupTimeSig:vector  ETV
vector 2880114  Network.dyn_peer[6]  lookupHopsSig:vector  ETV
vector 2880115  Network.dyn_peer[6]  lookupStabilitySig:vector  ETV
vector 2880116  Network.dyn_peer[6]  lookupTimeSig:vector  ETV
vector 2880123  Network.dyn_peer[9]  lookupHopsSig:vector  ETV
vector 2880124  Network.dyn_peer[9]  lookupStabilitySig:vector  ETV
vector 2880125  Network.dyn_peer[9]  lookupTimeSig:vector  ETV
vector 2880159  Network.dyn_peer[21]  lookupHopsSig:vector  ETV
vector 2880160  Network.dyn_peer[21]  lookupStabilitySig:vector  ETV
vector 2880161  Network.dyn_peer[21]  lookupTimeSig:vector  ETV
vector 2880138  Network.dyn_peer[14]  lookupHopsSig:vector  ETV
vector 2880139  Network.dyn_peer[14]  lookupStabilitySig:vector  ETV
vector 2880140  Network.dyn_peer[14]  lookupTimeSig:vector  ETV
vector 2880129  Network.dyn_peer[11]  lookupHopsSig:vector  ETV
vector 2880130  Network.dyn_peer[11]  lookupStabilitySig:vector  ETV
vector 2880131  Network.dyn_peer[11]  lookupTimeSig:vector  ETV
vector 2880102  Network.dyn_peer[2]  lookupHopsSig:vector  ETV
vector 2880103  Network.dyn_peer[2]  lookupStabilitySig:vector  ETV
vector 2880104  Network.dyn_peer[2]  lookupTimeSig:vector  ETV
vector 2880135  Network.dyn_peer[13]  lookupHopsSig:vector  ETV
vector 2880136  Network.dyn_peer[13]  lookupStabilitySig:vector  ETV
vector 2880137  Network.dyn_peer[13]  lookupTimeSig:vector  ETV
vector 2880168  Network.dyn_peer[24]  lookupHopsSig:vector  ETV
vector 2880169  Network.dyn_peer[24]  lookupStabilitySig:vector  ETV
vector 2880170  Network.dyn_peer[24]  lookupTimeSig:vector  ETV
vector 2880111  Network.dyn_peer[5]  lookupHopsSig:vector  ETV
vector 2880112  Network.dyn_peer[5]  lookupStabilitySig:vector  ETV
vector 2880113  Network.dyn_peer[5]  lookupTimeSig:vector  ETV
vector 2880171  Network.dyn_peer[25]  lookupHopsSig:vector  ETV
vector 2880172  Network.dyn_peer[25]  lookupStabilitySig:vector  ETV
vector 2880173  Network.dyn_peer[25]  lookupTimeSig:vector  ETV
vector 2880144  Network.dyn_peer[16]  lookupHopsSig:vector  ETV
vector 2880145  Network.dyn_peer[16]  lookupStabilitySig:vector  ETV
vector 2880146  Network.dyn_peer[16]  lookupTimeSig:vector  ETV
vector 2880147  Network.dyn_peer[17]  lookupHopsSig:vector  ETV
vector 2880148  Network.dyn_peer[17]  lookupStabilitySig:vector  ETV
vector 2880149  Network.dyn_peer[17]  lookupTimeSig:vector  ETV
vector 2880177  Network.dyn_peer[27]  lookupHopsSig:vector  ETV
vector 2880178  Network.dyn_peer[27]  lookupStabilitySig:vector  ETV
vector 2880179  Network.dyn_peer[27]  lookupTimeSig:vector  ETV
vector 2880219  Network.dyn_peer[41]  lookupHopsSig:vector  ETV
vector 2880220  Network.dyn_peer[41]  lookupStabilitySig:vector  ETV
vector 2880221  Network.dyn_peer[41]  lookupTimeSig:vector  ETV
vector 2880162  Network.dyn_peer[22]  lookupHopsSig:vector  ETV
vector 2880163  Network.dyn_peer[22]  lookupStabilitySig:vector  ETV
vector 2880164  Network.dyn_peer[22]  lookupTimeSig:vector  ETV
vector 2880237  Network.dyn_peer[47]  lookupHopsSig:vector  ETV
vector 2880238  Network.dyn_peer[47]  lookupStabilitySig:vector  ETV
vector 2880239  Network.dyn_peer[47]  lookupTimeSig:vector  ETV
vector 2880120  Network.dyn_peer[8]  lookupHopsSig:vector  ETV
vector 2880121  Network.dyn_peer[8]  lookupStabilitySig:vector  ETV
vector 2880122  Network.dyn_peer[8]  lookupTimeSig:vector  ETV
vector 2880153  Network.dyn_peer[19]  lookupHopsSig:vector  ETV
vector 2880154  Network.dyn_peer[19]  lookupStabilitySig:vector  ETV
vector 2880155  Network.dyn_peer[19]  lookupTimeSig:vector  ETV
vector 2880243  Network.dyn_peer[49]  lookupHopsSig:vector  ETV
vector 2880244  Network.dyn_peer[49]  lookupStabilitySig:vector  ETV
vector 2880245  Network.dyn_peer[49]  lookupTimeSig:vector  ETV
vector 2880195  Network.dyn_peer[33]  lookupHopsSig:vector  ETV
vector 2880196  Network.dyn_peer[33]  lookupStabilitySig:vector  ETV
vector 2880197  Network.dyn_peer[33]  lookupTimeSig:vector  ETV
vector 2880228  Network.dyn_peer[44]  lookupHopsSig:vector  ETV
vector 2880229  Network.dyn_peer[44]  lookupStabilitySig:vector  ETV
vector 2880230  Network.dyn_peer[44]  lookupTimeSig:vector  ETV
vector 2880141  Network.dyn_peer[15]  lookupHopsSig:vector  ETV
vector 2880142  Network.dyn_peer[15]  lookupStabilitySig:vector  ETV
vector 2880143  Network.dyn_peer[15]  lookupTimeSig:vector  ETV
vector 2880174  Network.dyn_peer[26]  lookupHopsSig:vector  ETV
vector 2880175  Network.dyn_peer[26]  lookupStabilitySig:vector  ETV
vector 2880176  Network.dyn_peer[26]  lookupTimeSig:vector  ETV
vector 2880156  Network.dyn_peer[20]  lookupHopsSig:vector  ETV
vector 2880157  Network.dyn_peer[20]  lookupStabilitySig:vector  ETV
vector 2880158  Network.dyn_peer[20]  lookupTimeSig:vector  ETV
vector 2880216  Network.dyn_peer[40]  lookupHopsSig:vector  ETV
vector 2880217  Network.dyn_peer[40]  lookupStabilitySig:vector  ETV
vector 2880218  Network.dyn_peer[40]  lookupTimeSig:vector  ETV
vector 2880204  Network.dyn_peer[36]  lookupHopsSig:vector  ETV
vector 2880205  Network.dyn_peer[36]  lookupStabilitySig:vector  ETV
vector 2880206  Network.dyn_peer[36]  lookupTimeSig:vector  ETV
vector 2880207  Network.dyn_peer[37]  lookupHopsSig:vector  ETV
vector 2880208  Network.dyn_peer[37]  lookupStabilitySig:vector  ETV
vector 2880209  Network.dyn_peer[37]  lookupTimeSig:vector  ETV
vector 2880150  Network.dyn_peer[18]  lookupHopsSig:vector  ETV
vector 2880151  Network.dyn_peer[18]  lookupStabilitySig:vector  ETV
vector 2880152  Network.dyn_peer[18]  lookupTimeSig:vector  ETV
vector 2880273  Network.dyn_peer[59]  lookupHopsSig:vector  ETV
vector 2880274  Network.dyn_peer[59]  lookupStabilitySig:vector  ETV
vector 2880275  Network.dyn_peer[59]  lookupTimeSig:vector  ETV
vector 2880126  Network.dyn_peer[10]  lookupHopsSig:vector  ETV
vector 2880127  Network.dyn_peer[10]  lookupStabilitySig:vector  ETV
vector 2880128  Network.dyn_peer[10]  lookupTimeSig:vector  ETV
vector 2880246  Network.dyn_peer[50]  lookupHopsSig:vector  ETV
vector 2880247  Network.dyn_peer[50]  lookupStabilitySig:vector  ETV
vector 2880248  Network.dyn_peer[50]  lookupTimeSig:vector  ETV
vector 2880189  Network.dyn_peer[31]  lookupHopsSig:vector  ETV
vector 2880190  Network.dyn_peer[31]  lookupStabilitySig:vector  ETV
vector 2880191  Network.dyn_peer[31]  lookupTimeSig:vector  ETV
vector 2880282  Network.dyn_peer[62]  lookupHopsSig:vector  ETV
vector 2880283  Network.dyn_peer[62]  lookupStabilitySig:vector  ETV
vector 2880284  Network.dyn_peer[62]  lookupTimeSig:vector  ETV
vector 2880198  Network.dyn_peer[34]  lookupHopsSig:vector  ETV
vector 2880199  Network.dyn_peer[34]  lookupStabilitySig:vector  ETV
vector 2880200  Network.dyn_peer[34]  lookupTimeSig:vector  ETV
vector 2880210  Network.dyn_peer[38]  lookupHopsSig:vector  ETV
vector 2880211  Network.dyn_peer[38]  lookupStabilitySig:vector  ETV
vector 2880212  Network.dyn_peer[38]  lookupTimeSig:vector  ETV
vector 2880249  Network.dyn_peer[51]  lookupHopsSig:vector  ETV
vector 2880250  Network.dyn_peer[51]  lookupStabilitySig:vector  ETV
vector 2880251  Network.dyn_peer[51]  lookupTimeSig:vector  ETV
vector 2880192  Network.dyn_peer[32]  lookupHopsSig:vector  ETV
vector 2880193  Network.dyn_peer[32]  lookupStabilitySig:vector  ETV
vector 2880194  Network.dyn_peer[32]  lookupTimeSig:vector  ETV
vector 2880234  Network.dyn_peer[46]  lookupHopsSig:vector  ETV
vector 2880235  Network.dyn_peer[46]  lookupStabilitySig:vector  ETV
vector 2880236  Network.dyn_peer[46]  lookupTimeSig:vector  ETV
vector 2880240  Network.dyn_peer[48]  lookupHopsSig:vector  ETV
vector 2880241  Network.dyn_peer[48]  lookupStabilitySig:vector  ETV
vector 2880242  Network.dyn_peer[48]  lookupTimeSig:vector  ETV
vector 2880336  Network.dyn_peer[80]  lookupHopsSig:vector  ETV
vector 2880337  Network.dyn_peer[80]  lookupStabilitySig:vector  ETV
vector 2880338  Network.dyn_peer[80]  lookupTimeSig:vector  ETV
vector 2880255  Network.dyn_peer[53]  lookupHopsSig:vector  ETV
vector 2880256  Network.dyn_peer[53]  lookupStabilitySig:vector  ETV
vector 2880257  Network.dyn_peer[53]  lookupTimeSig:vector  ETV
vector 2880180  Network.dyn_peer[28]  lookupHopsSig:vector  ETV
vector 2880181  Network.dyn_peer[28]  lookupStabilitySig:vector  ETV
vector 2880182  Network.dyn_peer[28]  lookupTimeSig:vector  ETV
vector 2880183  Network.dyn_peer[29]  lookupHopsSig:vector  ETV
vector 2880184  Network.dyn_peer[29]  lookupStabilitySig:vector  ETV
vector 2880185  Network.dyn_peer[29]  lookupTimeSig:vector  ETV
vector 2880333  Network.dyn_peer[79]  lookupHopsSig:vector  ETV
vector 2880334  Network.dyn_peer[79]  lookupStabilitySig:vector  ETV
vector 2880335  Network.dyn_peer[79]  lookupTimeSig:vector  ETV
vector 2880222  Network.dyn_peer[42]  lookupHopsSig:vector  ETV
vector 2880223  Network.dyn_peer[42]  lookupStabilitySig:vector  ETV
vector 2880224  Network.dyn_peer[42]  lookupTimeSig:vector  ETV
vector 2880165  Network.dyn_peer[23]  lookupHopsSig:vector  ETV
vector 2880166  Network.dyn_peer[23]  lookupStabilitySig:vector  ETV
vector 2880167  Network.dyn_peer[23]  lookupTimeSig:vector  ETV
vector 2880258  Network.dyn_peer[54]  lookupHopsSig:vector  ETV
vector 2880259  Network.dyn_peer[54]  lookupStabilitySig:vector  ETV
vector 2880260  Network.dyn_peer[54]  lookupTimeSig:vector  ETV
vector 2880231  Network.dyn_peer[45]  lookupHopsSig:vector  ETV
vector 2880232  Network.dyn_peer[45]  lookupStabilitySig:vector  ETV
vector 2880233  Network.dyn_peer[45]  lookupTimeSig:vector  ETV
vector 2880324  Network.dyn_peer[76]  lookupHopsSig:vector  ETV
vector 2880325  Network.dyn_peer[76]  lookupStabilitySig:vector  ETV
vector 2880326  Network.dyn_peer[76]  lookupTimeSig:vector  ETV
vector 2880270  Network.dyn_peer[58]  lookupHopsSig:vector  ETV
vector 2880271  Network.dyn_peer[58]  lookupStabilitySig:vector  ETV
vector 2880272  Network.dyn_peer[58]  lookupTimeSig:vector  ETV
vector 2880363  Network.dyn_peer[89]  lookupHopsSig:vector  ETV
vector 2880364  Network.dyn_peer[89]  lookupStabilitySig:vector  ETV
vector 2880365  Network.dyn_peer[89]  lookupTimeSig:vector  ETV
vector 2880186  Network.dyn_peer[30]  lookupHopsSig:vector  ETV
vector 2880187  Network.dyn_peer[30]  lookupStabilitySig:vector  ETV
vector 2880188  Network.dyn_peer[30]  lookupTimeSig:vector  ETV
vector 2880279  Network.dyn_peer[61]  lookupHopsSig:vector  ETV
vector 2880280  Network.dyn_peer[61]  lookupStabilitySig:vector  ETV
vector 2880281  Network.dyn_peer[61]  lookupTimeSig:vector  ETV
vector 2880312  Network.dyn_peer[72]  lookupHopsSig:vector  ETV
vector 2880313  Network.dyn_peer[72]  lookupStabilitySig:vector  ETV
vector 2880314  Network.dyn_peer[72]  lookupTimeSig:vector  ETV
vector 2880225  Network.dyn_peer[43]  lookupHopsSig:vector  ETV
vector 2880226  Network.dyn_peer[43]  lookupStabilitySig:vector  ETV
vector 2880227  Network.dyn_peer[43]  lookupTimeSig:vector  ETV
vector 2880291  Network.dyn_peer[65]  lookupHopsSig:vector  ETV
vector 2880292  Network.dyn_peer[65]  lookupStabilitySig:vector  ETV
vector 2880293  Network.dyn_peer[65]  lookupTimeSig:vector  ETV
vector 2880264  Network.dyn_peer[56]  lookupHopsSig:vector  ETV
vector 2880265  Network.dyn_peer[56]  lookupStabilitySig:vector  ETV
vector 2880266  Network.dyn_peer[56]  lookupTimeSig:vector  ETV
vector 2880366  Network.dyn_peer[90]  lookupHopsSig:vector  ETV
vector 2880367  Network.dyn_peer[90]  lookupStabilitySig:vector  ETV
vector 2880368  Network.dyn_peer[90]  lookupTimeSig:vector  ETV
vector 2880396  Network.dyn_peer[100]  lookupHopsSig:vector  ETV
vector 2880397  Network.dyn_peer[100]  lookupStabilitySig:vector  ETV
vector 2880398  Network.dyn_peer[100]  lookupTimeSig:vector  ETV
vector 2880342  Network.dyn_peer[82]  lookupHopsSig:vector  ETV
vector 2880343  Network.dyn_peer[82]  lookupStabilitySig:vector  ETV
vector 2880344  Network.dyn_peer[82]  lookupTimeSig:vector  ETV
vector 2880285  Network.dyn_peer[63]  lookupHopsSig:vector  ETV
vector 2880286  Network.dyn_peer[63]  lookupStabilitySig:vector  ETV
vector 2880287  Network.dyn_peer[63]  lookupTimeSig:vector  ETV
vector 2880405  Network.dyn_peer[103]  lookupHopsSig:vector  ETV
vector 2880406  Network.dyn_peer[103]  lookupStabilitySig:vector  ETV
vector 2880407  Network.dyn_peer[103]  lookupTimeSig:vector  ETV
vector 2880303  Network.dyn_peer[69]  lookupHopsSig:vector  ETV
vector 2880304  Network.dyn_peer[69]  lookupStabilitySig:vector  ETV
vector 2880305  Network.dyn_peer[69]  lookupTimeSig:vector  ETV
vector 2880399  Network.dyn_peer[101]  lookupHopsSig:vector  ETV
vector 2880400  Network.dyn_peer[101]  lookupStabilitySig:vector  ETV
vector 2880401  Network.dyn_peer[101]  lookupTimeSig:vector  ETV
vector 2880288  Network.dyn_peer[64]  lookupHopsSig:vector  ETV
vector 2880289  Network.dyn_peer[64]  lookupStabilitySig:vector  ETV
vector 2880290  Network.dyn_peer[64]  lookupTimeSig:vector  ETV
vector 2880327  Network.dyn_peer[77]  lookupHopsSig:vector  ETV
vector 2880328  Network.dyn_peer[77]  lookupStabilitySig:vector  ETV
vector 2880329  Network.dyn_peer[77]  lookupTimeSig:vector  ETV
vector 2880252  Network.dyn_peer[52]  lookupHopsSig:vector  ETV
vector 2880253  Network.dyn_peer[52]  lookupStabilitySig:vector  ETV
vector 2880254  Network.dyn_peer[52]  lookupTimeSig:vector  ETV
vector 2880432  Network.dyn_peer[112]  lookupHopsSig:vector  ETV
vector 2880433  Network.dyn_peer[112]  lookupStabilitySig:vector  ETV
vector 2880434  Network.dyn_peer[112]  lookupTimeSig:vector  ETV
vector 2880315  Network.dyn_peer[73]  lookupHopsSig:vector  ETV
vector 2880316  Network.dyn_peer[73]  lookupStabilitySig:vector  ETV
vector 2880317  Network.dyn_peer[73]  lookupTimeSig:vector  ETV
vector 2880261  Network.dyn_peer[55]  lookupHopsSig:vector  ETV
vector 2880262  Network.dyn_peer[55]  lookupStabilitySig:vector  ETV
vector 2880263  Network.dyn_peer[55]  lookupTimeSig:vector  ETV
vector 2880474  Network.dyn_peer[126]  lookupHopsSig:vector  ETV
vector 2880475  Network.dyn_peer[126]  lookupStabilitySig:vector  ETV
vector 2880476  Network.dyn_peer[126]  lookupTimeSig:vector  ETV
vector 2880267  Network.dyn_peer[57]  lookupHopsSig:vector  ETV
vector 2880268  Network.dyn_peer[57]  lookupStabilitySig:vector  ETV
vector 2880269  Network.dyn_peer[57]  lookupTimeSig:vector  ETV
vector 2880387  Network.dyn_peer[97]  lookupHopsSig:vector  ETV
vector 2880388  Network.dyn_peer[97]  lookupStabilitySig:vector  ETV
vector 2880389  Network.dyn_peer[97]  lookupTimeSig:vector  ETV
vector 2880480  Network.dyn_peer[128]  lookupHopsSig:vector  ETV
vector 2880481  Network.dyn_peer[128]  lookupStabilitySig:vector  ETV
vector 2880482  Network.dyn_peer[128]  lookupTimeSig:vector  ETV
vector 2880540  Network.dyn_peer[148]  lookupHopsSig:vector  ETV
vector 2880541  Network.dyn_peer[148]  lookupStabilitySig:vector  ETV
vector 2880542  Network.dyn_peer[148]  lookupTimeSig:vector  ETV
vector 2880276  Network.dyn_peer[60]  lookupHopsSig:vector  ETV
vector 2880277  Network.dyn_peer[60]  lookupStabilitySig:vector  ETV
vector 2880278  Network.dyn_peer[60]  lookupTimeSig:vector  ETV
vector 2880486  Network.dyn_peer[130]  lookupHopsSig:vector  ETV
vector 2880487  Network.dyn_peer[130]  lookupStabilitySig:vector  ETV
vector 2880488  Network.dyn_peer[130]  lookupTimeSig:vector  ETV
vector 2880372  Network.dyn_peer[92]  lookupHopsSig:vector  ETV
vector 2880373  Network.dyn_peer[92]  lookupStabilitySig:vector  ETV
vector 2880374  Network.dyn_peer[92]  lookupTimeSig:vector  ETV
vector 2880201  Network.dyn_peer[35]  lookupHopsSig:vector  ETV
vector 2880202  Network.dyn_peer[35]  lookupStabilitySig:vector  ETV
vector 2880203  Network.dyn_peer[35]  lookupTimeSig:vector  ETV
vector 2880351  Network.dyn_peer[85]  lookupHopsSig:vector  ETV
vector 2880352  Network.dyn_peer[85]  lookupStabilitySig:vector  ETV
vector 2880353  Network.dyn_peer[85]  lookupTimeSig:vector  ETV
vector 2880414  Network.dyn_peer[106]  lookupHopsSig:vector  ETV
vector 2880415  Network.dyn_peer[106]  lookupStabilitySig:vector  ETV
vector 2880416  Network.dyn_peer[106]  lookupTimeSig:vector  ETV
vector 2880357  Network.dyn_peer[87]  lookupHopsSig:vector  ETV
vector 2880358  Network.dyn_peer[87]  lookupStabilitySig:vector  ETV
vector 2880359  Network.dyn_peer[87]  lookupTimeSig:vector  ETV
vector 2880507  Network.dyn_peer[137]  lookupHopsSig:vector  ETV
vector 2880508  Network.dyn_peer[137]  lookupStabilitySig:vector  ETV
vector 2880509  Network.dyn_peer[137]  lookupTimeSig:vector  ETV
vector 2880300  Network.dyn_peer[68]  lookupHopsSig:vector  ETV
vector 2880301  Network.dyn_peer[68]  lookupStabilitySig:vector  ETV
vector 2880302  Network.dyn_peer[68]  lookupTimeSig:vector  ETV
vector 2880450  Network.dyn_peer[118]  lookupHopsSig:vector  ETV
vector 2880451  Network.dyn_peer[118]  lookupStabilitySig:vector  ETV
vector 2880452  Network.dyn_peer[118]  lookupTimeSig:vector  ETV
vector 2880306  Network.dyn_peer[70]  lookupHopsSig:vector  ETV
vector 2880307  Network.dyn_peer[70]  lookupStabilitySig:vector  ETV
vector 2880308  Network.dyn_peer[70]  lookupTimeSig:vector  ETV
vector 2880402  Network.dyn_peer[102]  lookupHopsSig:vector  ETV
vector 2880403  Network.dyn_peer[102]  lookupStabilitySig:vector  ETV
vector 2880404  Network.dyn_peer[102]  lookupTimeSig:vector  ETV
vector 2880345  Network.dyn_peer[83]  lookupHopsSig:vector  ETV
vector 2880346  Network.dyn_peer[83]  lookupStabilitySig:vector  ETV
vector 2880347  Network.dyn_peer[83]  lookupTimeSig:vector  ETV
vector 2880528  Network.dyn_peer[144]  lookupHopsSig:vector  ETV
vector 2880529  Network.dyn_peer[144]  lookupStabilitySig:vector  ETV
vector 2880530  Network.dyn_peer[144]  lookupTimeSig:vector  ETV
vector 2880441  Network.dyn_peer[115]  lookupHopsSig:vector  ETV
vector 2880442  Network.dyn_peer[115]  lookupStabilitySig:vector  ETV
vector 2880443  Network.dyn_peer[115]  lookupTimeSig:vector  ETV
vector 2880294  Network.dyn_peer[66]  lookupHopsSig:vector  ETV
vector 2880295  Network.dyn_peer[66]  lookupStabilitySig:vector  ETV
vector 2880296  Network.dyn_peer[66]  lookupTimeSig:vector  ETV
vector 2880435  Network.dyn_peer[113]  lookupHopsSig:vector  ETV
vector 2880436  Network.dyn_peer[113]  lookupStabilitySig:vector  ETV
vector 2880437  Network.dyn_peer[113]  lookupTimeSig:vector  ETV
vector 2880471  Network.dyn_peer[125]  lookupHopsSig:vector  ETV
vector 2880472  Network.dyn_peer[125]  lookupStabilitySig:vector  ETV
vector 2880473  Network.dyn_peer[125]  lookupTimeSig:vector  ETV
vector 2880354  Network.dyn_peer[86]  lookupHopsSig:vector  ETV
vector 2880355  Network.dyn_peer[86]  lookupStabilitySig:vector  ETV
vector 2880356  Network.dyn_peer[86]  lookupTimeSig:vector  ETV
vector 2880384  Network.dyn_peer[96]  lookupHopsSig:vector  ETV
vector 2880385  Network.dyn_peer[96]  lookupStabilitySig:vector  ETV
vector 2880386  Network.dyn_peer[96]  lookupTimeSig:vector  ETV
vector 2880477  Network.dyn_peer[127]  lookupHopsSig:vector  ETV
vector 2880478  Network.dyn_peer[127]  lookupStabilitySig:vector  ETV
vector 2880479  Network.dyn_peer[127]  lookupTimeSig:vector  ETV
vector 2880309  Network.dyn_peer[71]  lookupHopsSig:vector  ETV
vector 2880310  Network.dyn_peer[71]  lookupStabilitySig:vector  ETV
vector 2880311  Network.dyn_peer[71]  lookupTimeSig:vector  ETV
vector 2880489  Network.dyn_peer[131]  lookupHopsSig:vector  ETV
vector 2880490  Network.dyn_peer[131]  lookupStabilitySig:vector  ETV
vector 2880491  Network.dyn_peer[131]  lookupTimeSig:vector  ETV
vector 2880390  Network.dyn_peer[98]  lookupHopsSig:vector  ETV
vector 2880391  Network.dyn_peer[98]  lookupStabilitySig:vector  ETV
vector 2880392  Network.dyn_peer[98]  lookupTimeSig:vector  ETV
vector 2880420  Network.dyn_peer[108]  lookupHopsSig:vector  ETV
vector 2880421  Network.dyn_peer[108]  lookupStabilitySig:vector  ETV
vector 2880422  Network.dyn_peer[108]  lookupTimeSig:vector  ETV
vector 2880213  Network.dyn_peer[39]  lookupHopsSig:vector  ETV
vector 2880214  Network.dyn_peer[39]  lookupStabilitySig:vector  ETV
vector 2880215  Network.dyn_peer[39]  lookupTimeSig:vector  ETV
vector 2880552  Network.dyn_peer[152]  lookupHopsSig:vector  ETV
vector 2880553  Network.dyn_peer[152]  lookupStabilitySig:vector  ETV
vector 2880554  Network.dyn_peer[152]  lookupTimeSig:vector  ETV
vector 2880495  Network.dyn_peer[133]  lookupHopsSig:vector  ETV
vector 2880496  Network.dyn_peer[133]  lookupStabilitySig:vector  ETV
vector 2880497  Network.dyn_peer[133]  lookupTimeSig:vector  ETV
vector 2880378  Network.dyn_peer[94]  lookupHopsSig:vector  ETV
vector 2880379  Network.dyn_peer[94]  lookupStabilitySig:vector  ETV
vector 2880380  Network.dyn_peer[94]  lookupTimeSig:vector  ETV
vector 2880408  Network.dyn_peer[104]  lookupHopsSig:vector  ETV
vector 2880409  Network.dyn_peer[104]  lookupStabilitySig:vector  ETV
vector 2880410  Network.dyn_peer[104]  lookupTimeSig:vector  ETV
vector 2880648  Network.dyn_peer[184]  lookupHopsSig:vector  ETV
vector 2880649  Network.dyn_peer[184]  lookupStabilitySig:vector  ETV
vector 2880650  Network.dyn_peer[184]  lookupTimeSig:vector  ETV
vector 2880591  Network.dyn_peer[165]  lookupHopsSig:vector  ETV
vector 2880592  Network.dyn_peer[165]  lookupStabilitySig:vector  ETV
vector 2880593  Network.dyn_peer[165]  lookupTimeSig:vector  ETV
vector 2880654  Network.dyn_peer[186]  lookupHopsSig:vector  ETV
vector 2880655  Network.dyn_peer[186]  lookupStabilitySig:vector  ETV
vector 2880656  Network.dyn_peer[186]  lookupTimeSig:vector  ETV
vector 2880573  Network.dyn_peer[159]  lookupHopsSig:vector  ETV
vector 2880574  Network.dyn_peer[159]  lookupStabilitySig:vector  ETV
vector 2880575  Network.dyn_peer[159]  lookupTimeSig:vector  ETV
vector 2880603  Network.dyn_peer[169]  lookupHopsSig:vector  ETV
vector 2880604  Network.dyn_peer[169]  lookupStabilitySig:vector  ETV
vector 2880605  Network.dyn_peer[169]  lookupTimeSig:vector  ETV
vector 2880633  Network.dyn_peer[179]  lookupHopsSig:vector  ETV
vector 2880634  Network.dyn_peer[179]  lookupStabilitySig:vector  ETV
vector 2880635  Network.dyn_peer[179]  lookupTimeSig:vector  ETV
vector 2880732  Network.dyn_peer[212]  lookupHopsSig:vector  ETV
vector 2880733  Network.dyn_peer[212]  lookupStabilitySig:vector  ETV
vector 2880734  Network.dyn_peer[212]  lookupTimeSig:vector  ETV
vector 2880375  Network.dyn_peer[93]  lookupHopsSig:vector  ETV
vector 2880376  Network.dyn_peer[93]  lookupStabilitySig:vector  ETV
vector 2880377  Network.dyn_peer[93]  lookupTimeSig:vector  ETV
vector 2880678  Network.dyn_peer[194]  lookupHopsSig:vector  ETV
vector 2880679  Network.dyn_peer[194]  lookupStabilitySig:vector  ETV
vector 2880680  Network.dyn_peer[194]  lookupTimeSig:vector  ETV
vector 2880297  Network.dyn_peer[67]  lookupHopsSig:vector  ETV
vector 2880298  Network.dyn_peer[67]  lookupStabilitySig:vector  ETV
vector 2880299  Network.dyn_peer[67]  lookupTimeSig:vector  ETV
vector 2880417  Network.dyn_peer[107]  lookupHopsSig:vector  ETV
vector 2880418  Network.dyn_peer[107]  lookupStabilitySig:vector  ETV
vector 2880419  Network.dyn_peer[107]  lookupTimeSig:vector  ETV
vector 2880663  Network.dyn_peer[189]  lookupHopsSig:vector  ETV
vector 2880664  Network.dyn_peer[189]  lookupStabilitySig:vector  ETV
vector 2880665  Network.dyn_peer[189]  lookupTimeSig:vector  ETV
vector 2880549  Network.dyn_peer[151]  lookupHopsSig:vector  ETV
vector 2880550  Network.dyn_peer[151]  lookupStabilitySig:vector  ETV
vector 2880551  Network.dyn_peer[151]  lookupTimeSig:vector  ETV
vector 2880522  Network.dyn_peer[142]  lookupHopsSig:vector  ETV
vector 2880523  Network.dyn_peer[142]  lookupStabilitySig:vector  ETV
vector 2880524  Network.dyn_peer[142]  lookupTimeSig:vector  ETV
vector 2880438  Network.dyn_peer[114]  lookupHopsSig:vector  ETV
vector 2880439  Network.dyn_peer[114]  lookupStabilitySig:vector  ETV
vector 2880440  Network.dyn_peer[114]  lookupTimeSig:vector  ETV
vector 2880381  Network.dyn_peer[95]  lookupHopsSig:vector  ETV
vector 2880382  Network.dyn_peer[95]  lookupStabilitySig:vector  ETV
vector 2880383  Network.dyn_peer[95]  lookupTimeSig:vector  ETV
vector 2880624  Network.dyn_peer[176]  lookupHopsSig:vector  ETV
vector 2880625  Network.dyn_peer[176]  lookupStabilitySig:vector  ETV
vector 2880626  Network.dyn_peer[176]  lookupTimeSig:vector  ETV
vector 2880423  Network.dyn_peer[109]  lookupHopsSig:vector  ETV
vector 2880424  Network.dyn_peer[109]  lookupStabilitySig:vector  ETV
vector 2880425  Network.dyn_peer[109]  lookupTimeSig:vector  ETV
vector 2880579  Network.dyn_peer[161]  lookupHopsSig:vector  ETV
vector 2880580  Network.dyn_peer[161]  lookupStabilitySig:vector  ETV
vector 2880581  Network.dyn_peer[161]  lookupTimeSig:vector  ETV
vector 2880462  Network.dyn_peer[122]  lookupHopsSig:vector  ETV
vector 2880463  Network.dyn_peer[122]  lookupStabilitySig:vector  ETV
vector 2880464  Network.dyn_peer[122]  lookupTimeSig:vector  ETV
vector 2880582  Network.dyn_peer[162]  lookupHopsSig:vector  ETV
vector 2880583  Network.dyn_peer[162]  lookupStabilitySig:vector  ETV
vector 2880584  Network.dyn_peer[162]  lookupTimeSig:vector  ETV
vector 2880525  Network.dyn_peer[143]  lookupHopsSig:vector  ETV
vector 2880526  Network.dyn_peer[143]  lookupStabilitySig:vector  ETV
vector 2880527  Network.dyn_peer[143]  lookupTimeSig:vector  ETV
vector 2880318  Network.dyn_peer[74]  lookupHopsSig:vector  ETV
vector 2880319  Network.dyn_peer[74]  lookupStabilitySig:vector  ETV
vector 2880320  Network.dyn_peer[74]  lookupTimeSig:vector  ETV
vector 2880468  Network.dyn_peer[124]  lookupHopsSig:vector  ETV
vector 2880469  Network.dyn_peer[124]  lookupStabilitySig:vector  ETV
vector 2880470  Network.dyn_peer[124]  lookupTimeSig:vector  ETV
vector 2880609  Network.dyn_peer[171]  lookupHopsSig:vector  ETV
vector 2880610  Network.dyn_peer[171]  lookupStabilitySig:vector  ETV
vector 2880611  Network.dyn_peer[171]  lookupTimeSig:vector  ETV
vector 2880639  Network.dyn_peer[181]  lookupHopsSig:vector  ETV
vector 2880640  Network.dyn_peer[181]  lookupStabilitySig:vector  ETV
vector 2880641  Network.dyn_peer[181]  lookupTimeSig:vector  ETV
vector 2880729  Network.dyn_peer[211]  lookupHopsSig:vector  ETV
vector 2880730  Network.dyn_peer[211]  lookupStabilitySig:vector  ETV
vector 2880731  Network.dyn_peer[211]  lookupTimeSig:vector  ETV
vector 2880759  Network.dyn_peer[221]  lookupHopsSig:vector  ETV
vector 2880760  Network.dyn_peer[221]  lookupStabilitySig:vector  ETV
vector 2880761  Network.dyn_peer[221]  lookupTimeSig:vector  ETV
vector 2880465  Network.dyn_peer[123]  lookupHopsSig:vector  ETV
vector 2880466  Network.dyn_peer[123]  lookupStabilitySig:vector  ETV
vector 2880467  Network.dyn_peer[123]  lookupTimeSig:vector  ETV
vector 2880588  Network.dyn_peer[164]  lookupHopsSig:vector  ETV
vector 2880589  Network.dyn_peer[164]  lookupStabilitySig:vector  ETV
vector 2880590  Network.dyn_peer[164]  lookupTimeSig:vector  ETV
vector 2880411  Network.dyn_peer[105]  lookupHopsSig:vector  ETV
vector 2880412  Network.dyn_peer[105]  lookupStabilitySig:vector  ETV
vector 2880413  Network.dyn_peer[105]  lookupTimeSig:vector  ETV
vector 2880570  Network.dyn_peer[158]  lookupHopsSig:vector  ETV
vector 2880571  Network.dyn_peer[158]  lookupStabilitySig:vector  ETV
vector 2880572  Network.dyn_peer[158]  lookupTimeSig:vector  ETV
vector 2880483  Network.dyn_peer[129]  lookupHopsSig:vector  ETV
vector 2880484  Network.dyn_peer[129]  lookupStabilitySig:vector  ETV
vector 2880485  Network.dyn_peer[129]  lookupTimeSig:vector  ETV
vector 2880693  Network.dyn_peer[199]  lookupHopsSig:vector  ETV
vector 2880694  Network.dyn_peer[199]  lookupStabilitySig:vector  ETV
vector 2880695  Network.dyn_peer[199]  lookupTimeSig:vector  ETV
vector 2880813  Network.dyn_peer[239]  lookupHopsSig:vector  ETV
vector 2880814  Network.dyn_peer[239]  lookupStabilitySig:vector  ETV
vector 2880815  Network.dyn_peer[239]  lookupTimeSig:vector  ETV
vector 2880456  Network.dyn_peer[120]  lookupHopsSig:vector  ETV
vector 2880457  Network.dyn_peer[120]  lookupStabilitySig:vector  ETV
vector 2880458  Network.dyn_peer[120]  lookupTimeSig:vector  ETV
vector 2880339  Network.dyn_peer[81]  lookupHopsSig:vector  ETV
vector 2880340  Network.dyn_peer[81]  lookupStabilitySig:vector  ETV
vector 2880341  Network.dyn_peer[81]  lookupTimeSig:vector  ETV
vector 2880642  Network.dyn_peer[182]  lookupHopsSig:vector  ETV
vector 2880643  Network.dyn_peer[182]  lookupStabilitySig:vector  ETV