version 2
run Stability2-67-20130528-01:31:45-24168
attr configname Stability2
attr datetime 20130528-01:31:45
attr experiment Stability2
attr inifile omnetpp.ini
attr iterationvars $0=200
attr iterationvars2 "$0=200, $repetition=7"
attr measurement $0=200
attr network Network
attr processid 24168
attr repetition 7
attr replication #7
attr resultdir results
attr runnumber 67
attr seedset 67

vector 2040067  Network.churner  inGoingSizeSig:vector  ETV
vector 2010073  Network.dyn_peer[2]  lookupHopsSig:vector  ETV
vector 2010074  Network.dyn_peer[2]  lookupStabilitySig:vector  ETV
vector 2010075  Network.dyn_peer[2]  lookupTimeSig:vector  ETV
vector 2010079  Network.dyn_peer[4]  lookupHopsSig:vector  ETV
vector 2010080  Network.dyn_peer[4]  lookupStabilitySig:vector  ETV
vector 2010081  Network.dyn_peer[4]  lookupTimeSig:vector  ETV
vector 2010067  Network.dyn_peer[0]  lookupHopsSig:vector  ETV
vector 2010068  Network.dyn_peer[0]  lookupStabilitySig:vector  ETV
vector 2010069  Network.dyn_peer[0]  lookupTimeSig:vector  ETV
vector 2010076  Network.dyn_peer[3]  lookupHopsSig:vector  ETV
vector 2010077  Network.dyn_peer[3]  lookupStabilitySig:vector  ETV
vector 2010078  Network.dyn_peer[3]  lookupTimeSig:vector  ETV
vector 2010082  Network.dyn_peer[5]  lookupHopsSig:vector  ETV
vector 2010083  Network.dyn_peer[5]  lookupStabilitySig:vector  ETV
vector 2010084  Network.dyn_peer[5]  lookupTimeSig:vector  ETV
vector 2010085  Network.dyn_peer[6]  lookupHopsSig:vector  ETV
vector 2010086  Network.dyn_peer[6]  lookupStabilitySig:vector  ETV
vector 2010087  Network.dyn_peer[6]  lookupTimeSig:vector  ETV
vector 2010124  Network.dyn_peer[19]  lookupHopsSig:vector  ETV
vector 2010125  Network.dyn_peer[19]  lookupStabilitySig:vector  ETV
vector 2010126  Network.dyn_peer[19]  lookupTimeSig:vector  ETV
vector 2010070  Network.dyn_peer[1]  lookupHopsSig:vector  ETV
vector 2010071  Network.dyn_peer[1]  lookupStabilitySig:vector  ETV
vector 2010072  Network.dyn_peer[1]  lookupTimeSig:vector  ETV
vector 2010115  Network.dyn_peer[16]  lookupHopsSig:vector  ETV
vector 2010116  Network.dyn_peer[16]  lookupStabilitySig:vector  ETV
vector 2010117  Network.dyn_peer[16]  lookupTimeSig:vector  ETV
vector 2010091  Network.dyn_peer[8]  lookupHopsSig:vector  ETV
vector 2010092  Network.dyn_peer[8]  lookupStabilitySig:vector  ETV
vector 2010093  Network.dyn_peer[8]  lookupTimeSig:vector  ETV
vector 2010100  Network.dyn_peer[11]  lookupHopsSig:vector  ETV
vector 2010101  Network.dyn_peer[11]  lookupStabilitySig:vector  ETV
vector 2010102  Network.dyn_peer[11]  lookupTimeSig:vector  ETV
vector 2010103  Network.dyn_peer[12]  lookupHopsSig:vector  ETV
vector 2010104  Network.dyn_peer[12]  lookupStabilitySig:vector  ETV
vector 2010105  Network.dyn_peer[12]  lookupTimeSig:vector  ETV
vector 2010133  Network.dyn_peer[22]  lookupHopsSig:vector  ETV
vector 2010134  Network.dyn_peer[22]  lookupStabilitySig:vector  ETV
vector 2010135  Network.dyn_peer[22]  lookupTimeSig:vector  ETV
vector 2010139  Network.dyn_peer[24]  lookupHopsSig:vector  ETV
vector 2010140  Network.dyn_peer[24]  lookupStabilitySig:vector  ETV
vector 2010141  Network.dyn_peer[24]  lookupTimeSig:vector  ETV
vector 2010112  Network.dyn_peer[15]  lookupHopsSig:vector  ETV
vector 2010113  Network.dyn_peer[15]  lookupStabilitySig:vector  ETV
vector 2010114  Network.dyn_peer[15]  lookupTimeSig:vector  ETV
vector 2010088  Network.dyn_peer[7]  lookupHopsSig:vector  ETV
vector 2010089  Network.dyn_peer[7]  lookupStabilitySig:vector  ETV
vector 2010090  Network.dyn_peer[7]  lookupTimeSig:vector  ETV
vector 2010097  Network.dyn_peer[10]  lookupHopsSig:vector  ETV
vector 2010098  Network.dyn_peer[10]  lookupStabilitySig:vector  ETV
vector 2010099  Network.dyn_peer[10]  lookupTimeSig:vector  ETV
vector 2010127  Network.dyn_peer[20]  lookupHopsSig:vector  ETV
vector 2010128  Network.dyn_peer[20]  lookupStabilitySig:vector  ETV
vector 2010129  Network.dyn_peer[20]  lookupTimeSig:vector  ETV
vector 2010130  Network.dyn_peer[21]  lookupHopsSig:vector  ETV
vector 2010131  Network.dyn_peer[21]  lookupStabilitySig:vector  ETV
vector 2010132  Network.dyn_peer[21]  lookupTimeSig:vector  ETV
vector 2010193  Network.dyn_peer[42]  lookupHopsSig:vector  ETV
vector 2010194  Network.dyn_peer[42]  lookupStabilitySig:vector  ETV
vector 2010195  Network.dyn_peer[42]  lookupTimeSig:vector  ETV
vector 2010136  Network.dyn_peer[23]  lookupHopsSig:vector  ETV
vector 2010137  Network.dyn_peer[23]  lookupStabilitySig:vector  ETV
vector 2010138  Network.dyn_peer[23]  lookupTimeSig:vector  ETV
vector 2010109  Network.dyn_peer[14]  lookupHopsSig:vector  ETV
vector 2010110  Network.dyn_peer[14]  lookupStabilitySig:vector  ETV
vector 2010111  Network.dyn_peer[14]  lookupTimeSig:vector  ETV
vector 2010145  Network.dyn_peer[26]  lookupHopsSig:vector  ETV
vector 2010146  Network.dyn_peer[26]  lookupStabilitySig:vector  ETV
vector 2010147  Network.dyn_peer[26]  lookupTimeSig:vector  ETV
vector 2010121  Network.dyn_peer[18]  lookupHopsSig:vector  ETV
vector 2010122  Network.dyn_peer[18]  lookupStabilitySig:vector  ETV
vector 2010123  Network.dyn_peer[18]  lookupTimeSig:vector  ETV
vector 2010106  Network.dyn_peer[13]  lookupHopsSig:vector  ETV
vector 2010107  Network.dyn_peer[13]  lookupStabilitySig:vector  ETV
vector 2010108  Network.dyn_peer[13]  lookupTimeSig:vector  ETV
vector 2010118  Network.dyn_peer[17]  lookupHopsSig:vector  ETV
vector 2010119  Network.dyn_peer[17]  lookupStabilitySig:vector  ETV
vector 2010120  Network.dyn_peer[17]  lookupTimeSig:vector  ETV
vector 2010148  Network.dyn_peer[27]  lookupHopsSig:vector  ETV
vector 2010149  Network.dyn_peer[27]  lookupStabilitySig:vector  ETV
vector 2010150  Network.dyn_peer[27]  lookupTimeSig:vector  ETV
vector 2010178  Network.dyn_peer[37]  lookupHopsSig:vector  ETV
vector 2010179  Network.dyn_peer[37]  lookupStabilitySig:vector  ETV
vector 2010180  Network.dyn_peer[37]  lookupTimeSig:vector  ETV
vector 2010181  Network.dyn_peer[38]  lookupHopsSig:vector  ETV
vector 2010182  Network.dyn_peer[38]  lookupStabilitySig:vector  ETV
vector 2010183  Network.dyn_peer[38]  lookupTimeSig:vector  ETV
vector 2010184  Network.dyn_peer[39]  lookupHopsSig:vector  ETV
vector 2010185  Network.dyn_peer[39]  lookupStabilitySig:vector  ETV
vector 2010186  Network.dyn_peer[39]  lookupTimeSig:vector  ETV
vector 2010157  Network.dyn_peer[30]  lookupHopsSig:vector  ETV
vector 2010158  Network.dyn_peer[30]  lookupStabilitySig:vector  ETV
vector 2010159  Network.dyn_peer[30]  lookupTimeSig:vector  ETV
vector 2010217  Network.dyn_peer[50]  lookupHopsSig:vector  ETV
vector 2010218  Network.dyn_peer[50]  lookupStabilitySig:vector  ETV
vector 2010219  Network.dyn_peer[50]  lookupTimeSig:vector  ETV
vector 2010166  Network.dyn_peer[33]  lookupHopsSig:vector  ETV
vector 2010167  Network.dyn_peer[33]  lookupStabilitySig:vector  ETV
vector 2010168  Network.dyn_peer[33]  lookupTimeSig:vector  ETV
vector 2010226  Network.dyn_peer[53]  lookupHopsSig:vector  ETV
vector 2010227  Network.dyn_peer[53]  lookupStabilitySig:vector  ETV
vector 2010228  Network.dyn_peer[53]  lookupTimeSig:vector  ETV
vector 2010142  Network.dyn_peer[25]  lookupHopsSig:vector  ETV
vector 2010143  Network.dyn_peer[25]  lookupStabilitySig:vector  ETV
vector 2010144  Network.dyn_peer[25]  lookupTimeSig:vector  ETV
vector 2010199  Network.dyn_peer[44]  lookupHopsSig:vector  ETV
vector 2010200  Network.dyn_peer[44]  lookupStabilitySig:vector  ETV
vector 2010201  Network.dyn_peer[44]  lookupTimeSig:vector  ETV
vector 2010259  Network.dyn_peer[64]  lookupHopsSig:vector  ETV
vector 2010260  Network.dyn_peer[64]  lookupStabilitySig:vector  ETV
vector 2010261  Network.dyn_peer[64]  lookupTimeSig:vector  ETV
vector 2010094  Network.dyn_peer[9]  lookupHopsSig:vector  ETV
vector 2010095  Network.dyn_peer[9]  lookupStabilitySig:vector  ETV
vector 2010096  Network.dyn_peer[9]  lookupTimeSig:vector  ETV
vector 2010175  Network.dyn_peer[36]  lookupHopsSig:vector  ETV
vector 2010176  Network.dyn_peer[36]  lookupStabilitySig:vector  ETV
vector 2010177  Network.dyn_peer[36]  lookupTimeSig:vector  ETV
vector 2010298  Network.dyn_peer[77]  lookupHopsSig:vector  ETV
vector 2010299  Network.dyn_peer[77]  lookupStabilitySig:vector  ETV
vector 2010300  Network.dyn_peer[77]  lookupTimeSig:vector  ETV
vector 2010214  Network.dyn_peer[49]  lookupHopsSig:vector  ETV
vector 2010215  Network.dyn_peer[49]  lookupStabilitySig:vector  ETV
vector 2010216  Network.dyn_peer[49]  lookupTimeSig:vector  ETV
vector 2010277  Network.dyn_peer[70]  lookupHopsSig:vector  ETV
vector 2010278  Network.dyn_peer[70]  lookupStabilitySig:vector  ETV
vector 2010279  Network.dyn_peer[70]  lookupTimeSig:vector  ETV
vector 2010223  Network.dyn_peer[52]  lookupHopsSig:vector  ETV
vector 2010224  Network.dyn_peer[52]  lookupStabilitySig:vector  ETV
vector 2010225  Network.dyn_peer[52]  lookupTimeSig:vector  ETV
vector 2010253  Network.dyn_peer[62]  lookupHopsSig:vector  ETV
vector 2010254  Network.dyn_peer[62]  lookupStabilitySig:vector  ETV
vector 2010255  Network.dyn_peer[62]  lookupTimeSig:vector  ETV
vector 2010283  Network.dyn_peer[72]  lookupHopsSig:vector  ETV
vector 2010284  Network.dyn_peer[72]  lookupStabilitySig:vector  ETV
vector 2010285  Network.dyn_peer[72]  lookupTimeSig:vector  ETV
vector 2010169  Network.dyn_peer[34]  lookupHopsSig:vector  ETV
vector 2010170  Network.dyn_peer[34]  lookupStabilitySig:vector  ETV
vector 2010171  Network.dyn_peer[34]  lookupTimeSig:vector  ETV
vector 2010292  Network.dyn_peer[75]  lookupHopsSig:vector  ETV
vector 2010293  Network.dyn_peer[75]  lookupStabilitySig:vector  ETV
vector 2010294  Network.dyn_peer[75]  lookupTimeSig:vector  ETV
vector 2010250  Network.dyn_peer[61]  lookupHopsSig:vector  ETV
vector 2010251  Network.dyn_peer[61]  lookupStabilitySig:vector  ETV
vector 2010252  Network.dyn_peer[61]  lookupTimeSig:vector  ETV
vector 2010340  Network.dyn_peer[91]  lookupHopsSig:vector  ETV
vector 2010341  Network.dyn_peer[91]  lookupStabilitySig:vector  ETV
vector 2010342  Network.dyn_peer[91]  lookupTimeSig:vector  ETV
vector 2010358  Network.dyn_peer[97]  lookupHopsSig:vector  ETV
vector 2010359  Network.dyn_peer[97]  lookupStabilitySig:vector  ETV
vector 2010360  Network.dyn_peer[97]  lookupTimeSig:vector  ETV
vector 2010151  Network.dyn_peer[28]  lookupHopsSig:vector  ETV
vector 2010152  Network.dyn_peer[28]  lookupStabilitySig:vector  ETV
vector 2010153  Network.dyn_peer[28]  lookupTimeSig:vector  ETV
vector 2010301  Network.dyn_peer[78]  lookupHopsSig:vector  ETV
vector 2010302  Network.dyn_peer[78]  lookupStabilitySig:vector  ETV
vector 2010303  Network.dyn_peer[78]  lookupTimeSig:vector  ETV
vector 2010160  Network.dyn_peer[31]  lookupHopsSig:vector  ETV
vector 2010161  Network.dyn_peer[31]  lookupStabilitySig:vector  ETV
vector 2010162  Network.dyn_peer[31]  lookupTimeSig:vector  ETV
vector 2010346  Network.dyn_peer[93]  lookupHopsSig:vector  ETV
vector 2010347  Network.dyn_peer[93]  lookupStabilitySig:vector  ETV
vector 2010348  Network.dyn_peer[93]  lookupTimeSig:vector  ETV
vector 2010202  Network.dyn_peer[45]  lookupHopsSig:vector  ETV
vector 2010203  Network.dyn_peer[45]  lookupStabilitySig:vector  ETV
vector 2010204  Network.dyn_peer[45]  lookupTimeSig:vector  ETV
vector 2010232  Network.dyn_peer[55]  lookupHopsSig:vector  ETV
vector 2010233  Network.dyn_peer[55]  lookupStabilitySig:vector  ETV
vector 2010234  Network.dyn_peer[55]  lookupTimeSig:vector  ETV
vector 2010208  Network.dyn_peer[47]  lookupHopsSig:vector  ETV
vector 2010209  Network.dyn_peer[47]  lookupStabilitySig:vector  ETV
vector 2010210  Network.dyn_peer[47]  lookupTimeSig:vector  ETV
vector 2010211  Network.dyn_peer[48]  lookupHopsSig:vector  ETV
vector 2010212  Network.dyn_peer[48]  lookupStabilitySig:vector  ETV
vector 2010213  Network.dyn_peer[48]  lookupTimeSig:vector  ETV
vector 2010244  Network.dyn_peer[59]  lookupHopsSig:vector  ETV
vector 2010245  Network.dyn_peer[59]  lookupStabilitySig:vector  ETV
vector 2010246  Network.dyn_peer[59]  lookupTimeSig:vector  ETV
vector 2010190  Network.dyn_peer[41]  lookupHopsSig:vector  ETV
vector 2010191  Network.dyn_peer[41]  lookupStabilitySig:vector  ETV
vector 2010192  Network.dyn_peer[41]  lookupTimeSig:vector  ETV
vector 2010196  Network.dyn_peer[43]  lookupHopsSig:vector  ETV
vector 2010197  Network.dyn_peer[43]  lookupStabilitySig:vector  ETV
vector 2010198  Network.dyn_peer[43]  lookupTimeSig:vector  ETV
vector 2010376  Network.dyn_peer[103]  lookupHopsSig:vector  ETV
vector 2010377  Network.dyn_peer[103]  lookupStabilitySig:vector  ETV
vector 2010378  Network.dyn_peer[103]  lookupTimeSig:vector  ETV
vector 2010436  Network.dyn_peer[123]  lookupHopsSig:vector  ETV
vector 2010437  Network.dyn_peer[123]  lookupStabilitySig:vector  ETV
vector 2010438  Network.dyn_peer[123]  lookupTimeSig:vector  ETV
vector 2010328  Network.dyn_peer[87]  lookupHopsSig:vector  ETV
vector 2010329  Network.dyn_peer[87]  lookupStabilitySig:vector  ETV
vector 2010330  Network.dyn_peer[87]  lookupTimeSig:vector  ETV
vector 2010274  Network.dyn_peer[69]  lookupHopsSig:vector  ETV
vector 2010275  Network.dyn_peer[69]  lookupStabilitySig:vector  ETV
vector 2010276  Network.dyn_peer[69]  lookupTimeSig:vector  ETV
vector 2010187  Network.dyn_peer[40]  lookupHopsSig:vector  ETV
vector 2010188  Network.dyn_peer[40]  lookupStabilitySig:vector  ETV
vector 2010189  Network.dyn_peer[40]  lookupTimeSig:vector  ETV
vector 2010397  Network.dyn_peer[110]  lookupHopsSig:vector  ETV
vector 2010398  Network.dyn_peer[110]  lookupStabilitySig:vector  ETV
vector 2010399  Network.dyn_peer[110]  lookupTimeSig:vector  ETV
vector 2010313  Network.dyn_peer[82]  lookupHopsSig:vector  ETV
vector 2010314  Network.dyn_peer[82]  lookupStabilitySig:vector  ETV
vector 2010315  Network.dyn_peer[82]  lookupTimeSig:vector  ETV
vector 2010316  Network.dyn_peer[83]  lookupHopsSig:vector  ETV
vector 2010317  Network.dyn_peer[83]  lookupStabilitySig:vector  ETV
vector 2010318  Network.dyn_peer[83]  lookupTimeSig:vector  ETV
vector 2010262  Network.dyn_peer[65]  lookupHopsSig:vector  ETV
vector 2010263  Network.dyn_peer[65]  lookupStabilitySig:vector  ETV
vector 2010264  Network.dyn_peer[65]  lookupTimeSig:vector  ETV
vector 2010322  Network.dyn_peer[85]  lookupHopsSig:vector  ETV
vector 2010323  Network.dyn_peer[85]  lookupStabilitySig:vector  ETV
vector 2010324  Network.dyn_peer[85]  lookupTimeSig:vector  ETV
vector 2010352  Network.dyn_peer[95]  lookupHopsSig:vector  ETV
vector 2010353  Network.dyn_peer[95]  lookupStabilitySig:vector  ETV
vector 2010354  Network.dyn_peer[95]  lookupTimeSig:vector  ETV
vector 2010238  Network.dyn_peer[57]  lookupHopsSig:vector  ETV
vector 2010239  Network.dyn_peer[57]  lookupStabilitySig:vector  ETV
vector 2010240  Network.dyn_peer[57]  lookupTimeSig:vector  ETV
vector 2010247  Network.dyn_peer[60]  lookupHopsSig:vector  ETV
vector 2010248  Network.dyn_peer[60]  lookupStabilitySig:vector  ETV
vector 2010249  Network.dyn_peer[60]  lookupTimeSig:vector  ETV
vector 2010220  Network.dyn_peer[51]  lookupHopsSig:vector  ETV
vector 2010221  Network.dyn_peer[51]  lookupStabilitySig:vector  ETV
vector 2010222  Network.dyn_peer[51]  lookupTimeSig:vector  ETV
vector 2010373  Network.dyn_peer[102]  lookupHopsSig:vector  ETV
vector 2010374  Network.dyn_peer[102]  lookupStabilitySig:vector  ETV
vector 2010375  Network.dyn_peer[102]  lookupTimeSig:vector  ETV
vector 2010349  Network.dyn_peer[94]  lookupHopsSig:vector  ETV
vector 2010350  Network.dyn_peer[94]  lookupStabilitySig:vector  ETV
vector 2010351  Network.dyn_peer[94]  lookupTimeSig:vector  ETV
vector 2010409  Network.dyn_peer[114]  lookupHopsSig:vector  ETV
vector 2010410  Network.dyn_peer[114]  lookupStabilitySig:vector  ETV
vector 2010411  Network.dyn_peer[114]  lookupTimeSig:vector  ETV
vector 2010355  Network.dyn_peer[96]  lookupHopsSig:vector  ETV
vector 2010356  Network.dyn_peer[96]  lookupStabilitySig:vector  ETV
vector 2010357  Network.dyn_peer[96]  lookupTimeSig:vector  ETV
vector 2010475  Network.dyn_peer[136]  lookupHopsSig:vector  ETV
vector 2010476  Network.dyn_peer[136]  lookupStabilitySig:vector  ETV
vector 2010477  Network.dyn_peer[136]  lookupTimeSig:vector  ETV
vector 2010388  Network.dyn_peer[107]  lookupHopsSig:vector  ETV
vector 2010389  Network.dyn_peer[107]  lookupStabilitySig:vector  ETV
vector 2010390  Network.dyn_peer[107]  lookupTimeSig:vector  ETV
vector 2010334  Network.dyn_peer[89]  lookupHopsSig:vector  ETV
vector 2010335  Network.dyn_peer[89]  lookupStabilitySig:vector  ETV
vector 2010336  Network.dyn_peer[89]  lookupTimeSig:vector  ETV
vector 2010256  Network.dyn_peer[63]  lookupHopsSig:vector  ETV
vector 2010257  Network.dyn_peer[63]  lookupStabilitySig:vector  ETV
vector 2010258  Network.dyn_peer[63]  lookupTimeSig:vector  ETV
vector 2010379  Network.dyn_peer[104]  lookupHopsSig:vector  ETV
vector 2010380  Network.dyn_peer[104]  lookupStabilitySig:vector  ETV
vector 2010381  Network.dyn_peer[104]  lookupTimeSig:vector  ETV
vector 2010448  Network.dyn_peer[127]  lookupHopsSig:vector  ETV
vector 2010449  Network.dyn_peer[127]  lookupStabilitySig:vector  ETV
vector 2010450  Network.dyn_peer[127]  lookupTimeSig:vector  ETV
vector 2010508  Network.dyn_peer[147]  lookupHopsSig:vector  ETV
vector 2010509  Network.dyn_peer[147]  lookupStabilitySig:vector  ETV
vector 2010510  Network.dyn_peer[147]  lookupTimeSig:vector  ETV
vector 2010361  Network.dyn_peer[98]  lookupHopsSig:vector  ETV
vector 2010362  Network.dyn_peer[98]  lookupStabilitySig:vector  ETV
vector 2010363  Network.dyn_peer[98]  lookupTimeSig:vector  ETV
vector 2010511  Network.dyn_peer[148]  lookupHopsSig:vector  ETV
vector 2010512  Network.dyn_peer[148]  lookupStabilitySig:vector  ETV
vector 2010513  Network.dyn_peer[148]  lookupTimeSig:vector  ETV
vector 2010430  Network.dyn_peer[121]  lookupHopsSig:vector  ETV
vector 2010431  Network.dyn_peer[121]  lookupStabilitySig:vector  ETV
vector 2010432  Network.dyn_peer[121]  lookupTimeSig:vector  ETV
vector 2010163  Network.dyn_peer[32]  lookupHopsSig:vector  ETV
vector 2010164  Network.dyn_peer[32]  lookupStabilitySig:vector  ETV
vector 2010165  Network.dyn_peer[32]  lookupTimeSig:vector  ETV
vector 2010235  Network.dyn_peer[56]  lookupHopsSig:vector  ETV
vector 2010236  Network.dyn_peer[56]  lookupStabilitySig:vector  ETV
vector 2010237  Network.dyn_peer[56]  lookupTimeSig:vector  ETV
vector 2010268  Network.dyn_peer[67]  lookupHopsSig:vector  ETV
vector 2010269  Network.dyn_peer[67]  lookupStabilitySig:vector  ETV
vector 2010270  Network.dyn_peer[67]  lookupTimeSig:vector  ETV
vector 2010241  Network.dyn_peer[58]  lookupHopsSig:vector  ETV
vector 2010242  Network.dyn_peer[58]  lookupStabilitySig:vector  ETV
vector 2010243  Network.dyn_peer[58]  lookupTimeSig:vector  ETV
vector 2010514  Network.dyn_peer[149]  lookupHopsSig:vector  ETV
vector 2010515  Network.dyn_peer[149]  lookupStabilitySig:vector  ETV
vector 2010516  Network.dyn_peer[149]  lookupTimeSig:vector  ETV
vector 2010499  Network.dyn_peer[144]  lookupHopsSig:vector  ETV
vector 2010500  Network.dyn_peer[144]  lookupStabilitySig:vector  ETV
vector 2010501  Network.dyn_peer[144]  lookupTimeSig:vector  ETV
vector 2010205  Network.dyn_peer[46]  lookupHopsSig:vector  ETV
vector 2010206  Network.dyn_peer[46]  lookupStabilitySig:vector  ETV
vector 2010207  Network.dyn_peer[46]  lookupTimeSig:vector  ETV
vector 2010154  Network.dyn_peer[29]  lookupHopsSig:vector  ETV
vector 2010155  Network.dyn_peer[29]  lookupStabilitySig:vector  ETV
vector 2010156  Network.dyn_peer[29]  lookupTimeSig:vector  ETV
vector 2010304  Network.dyn_peer[79]  lookupHopsSig:vector  ETV
vector 2010305  Network.dyn_peer[79]  lookupStabilitySig:vector  ETV
vector 2010306  Network.dyn_peer[79]  lookupTimeSig:vector  ETV
vector 2010454  Network.dyn_peer[129]  lookupHopsSig:vector  ETV
vector 2010455  Network.dyn_peer[129]  lookupStabilitySig:vector  ETV
vector 2010456  Network.dyn_peer[129]  lookupTimeSig:vector  ETV
vector 2010460  Network.dyn_peer[131]  lookupHopsSig:vector  ETV
vector 2010461  Network.dyn_peer[131]  lookupStabilitySig:vector  ETV
vector 2010462  Network.dyn_peer[131]  lookupTimeSig:vector  ETV
vector 2010580  Network.dyn_peer[171]  lookupHopsSig:vector  ETV
vector 2010581  Network.dyn_peer[171]  lookupStabilitySig:vector  ETV
vector 2010582  Network.dyn_peer[171]  lookupTimeSig:vector  ETV
vector 2010523  Network.dyn_peer[152]  lookupHopsSig:vector  ETV
vector 2010524  Network.dyn_peer[152]  lookupStabilitySig:vector  ETV
vector 2010525  Network.dyn_peer[152]  lookupTimeSig:vector  ETV
vector 2010331  Network.dyn_peer[88]  lookupHopsSig:vector  ETV
vector 2010332  Network.dyn_peer[88]  lookupStabilitySig:vector  ETV
vector 2010333  Network.dyn_peer[88]  lookupTimeSig:vector  ETV
vector 2010367  Network.dyn_peer[100]  lookupHopsSig:vector  ETV
vector 2010368  Network.dyn_peer[100]  lookupStabilitySig:vector  ETV
vector 2010369  Network.dyn_peer[100]  lookupTimeSig:vector  ETV
vector 2010487  Network.dyn_peer[140]  lookupHopsSig:vector  ETV
vector 2010488  Network.dyn_peer[140]  lookupStabilitySig:vector  ETV
vector 2010489  Network.dyn_peer[140]  lookupTimeSig:vector  ETV
vector 2010370  Network.dyn_peer[101]  lookupHopsSig:vector  ETV
vector 2010371  Network.dyn_peer[101]  lookupStabilitySig:vector  ETV
vector 2010372  Network.dyn_peer[101]  lookupTimeSig:vector  ETV
vector 2010463  Network.dyn_peer[132]  lookupHopsSig:vector  ETV
vector 2010464  Network.dyn_peer[132]  lookupStabilitySig:vector  ETV
vector 2010465  Network.dyn_peer[132]  lookupTimeSig:vector  ETV
vector 2010469  Network.dyn_peer[134]  lookupHopsSig:vector  ETV
vector 2010470  Network.dyn_peer[134]  lookupStabilitySig:vector  ETV
vector 2010471  Network.dyn_peer[134]  lookupTimeSig:vector  ETV
vector 2010505  Network.dyn_peer[146]  lookupHopsSig:vector  ETV
vector 2010506  Network.dyn_peer[146]  lookupStabilitySig:vector  ETV
vector 2010507  Network.dyn_peer[146]  lookupTimeSig:vector  ETV
vector 2010571  Network.dyn_peer[168]  lookupHopsSig:vector  ETV
vector 2010572  Network.dyn_peer[168]  lookupStabilitySig:vector  ETV
vector 2010573  Network.dyn_peer[168]  lookupTimeSig:vector  ETV
vector 2010484  Network.dyn_peer[139]  lookupHopsSig:vector  ETV
vector 2010485  Network.dyn_peer[139]  lookupStabilitySig:vector  ETV
vector 2010486  Network.dyn_peer[139]  lookupTimeSig:vector  ETV
vector 2010544  Network.dyn_peer[159]  lookupHopsSig:vector  ETV
vector 2010545  Network.dyn_peer[159]  lookupStabilitySig:vector  ETV
vector 2010546  Network.dyn_peer[159]  lookupTimeSig:vector  ETV
vector 2010547  Network.dyn_peer[160]  lookupHopsSig:vector  ETV
vector 2010548  Network.dyn_peer[160]  lookupStabilitySig:vector  ETV
vector 2010549  Network.dyn_peer[160]  lookupTimeSig:vector  ETV
vector 2010442  Network.dyn_peer[125]  lookupHopsSig:vector  ETV
vector 2010443  Network.dyn_peer[125]  lookupStabilitySig:vector  ETV
vector 2010444  Network.dyn_peer[125]  lookupTimeSig:vector  ETV
vector 2010562  Network.dyn_peer[165]  lookupHopsSig:vector  ETV
vector 2010563  Network.dyn_peer[165]  lookupStabilitySig:vector  ETV
vector 2010564  Network.dyn_peer[165]  lookupTimeSig:vector  ETV
vector 2010598  Network.dyn_peer[177]  lookupHopsSig:vector  ETV
vector 2010599  Network.dyn_peer[177]  lookupStabilitySig:vector  ETV
vector 2010600  Network.dyn_peer[177]  lookupTimeSig:vector  ETV
vector 2010391  Network.dyn_peer[108]  lookupHopsSig:vector  ETV
vector 2010392  Network.dyn_peer[108]  lookupStabilitySig:vector  ETV
vector 2010393  Network.dyn_peer[108]  lookupTimeSig:vector  ETV
vector 2010574  Network.dyn_peer[169]  lookupHopsSig:vector  ETV
vector 2010575  Network.dyn_peer[169]  lookupStabilitySig:vector  ETV
vector 2010576  Network.dyn_peer[169]  lookupTimeSig:vector  ETV
vector 2010577  Network.dyn_peer[170]  lookupHopsSig:vector  ETV
vector 2010578  Network.dyn_peer[170]  lookupStabilitySig:vector  ETV
vector 2010579  Network.dyn_peer[170]  lookupTimeSig:vector  ETV
vector 2010400  Network.dyn_peer[111]  lookupHopsSig:vector  ETV
vector 2010401  Network.dyn_peer[111]  lookupStabilitySig:vector  ETV
vector 2010402  Network.dyn_peer[111]  lookupTimeSig:vector  ETV
vector 2010583  Network.dyn_peer[172]  lookupHopsSig:vector  ETV
vector 2010584  Network.dyn_peer[172]  lookupStabilitySig:vector  ETV
vector 2010585  Network.dyn_peer[172]  lookupTimeSig:vector  ETV
vector 2010406  Network.dyn_peer[113]  lookupHopsSig:vector  ETV
vector 2010407  Network.dyn_peer[113]  lookupStabilitySig:vector  ETV
vector 2010408  Network.dyn_peer[113]  lookupTimeSig:vector  ETV
vector 2010466  Network.dyn_peer[133]  lookupHopsSig:vector  ETV
vector 2010467  Network.dyn_peer[133]  lookupStabilitySig:vector  ETV
vector 2010468  Network.dyn_peer[133]  lookupTimeSig:vector  ETV
vector 2010556  Network.dyn_peer[163]  lookupHopsSig:vector  ETV
vector 2010557  Network.dyn_peer[163]  lookupStabilitySig:vector  ETV
vector 2010558  Network.dyn_peer[163]  lookupTimeSig:vector  ETV
vector 2010319  Network.dyn_peer[84]  lookupHopsSig:vector  ETV
vector 2010320  Network.dyn_peer[84]  lookupStabilitySig:vector  ETV
vector 2010321  Network.dyn_peer[84]  lookupTimeSig:vector  ETV
vector 2010172  Network.dyn_peer[35]  lookupHopsSig:vector  ETV
vector 2010173  Network.dyn_peer[35]  lookupStabilitySig:vector  ETV
vector 2010174  Network.dyn_peer[35]  lookupTimeSig:vector  ETV
vector 2010382  Network.dyn_peer[105]  lookupHopsSig:vector  ETV
vector 2010383  Network.dyn_peer[105]  lookupStabilitySig:vector  ETV
vector 2010384  Network.dyn_peer[105]  lookupTimeSig:vector  ETV
vector 2010502  Network.dyn_peer[145]  lookupHopsSig:vector  ETV
vector 2010503  Network.dyn_peer[145]  lookupStabilitySig:vector  ETV
vector 2010504  Network.dyn_peer[145]  lookupTimeSig:vector  ETV
vector 2010682  Network.dyn_peer[205]  lookupHopsSig:vector  ETV
vector 2010683  Network.dyn_peer[205]  lookupStabilitySig:vector  ETV
vector 2010684  Network.dyn_peer[205]  lookupTimeSig:vector  ETV
vector 2010415  Network.dyn_peer[116]  lookupHopsSig:vector  ETV
vector 2010416  Network.dyn_peer[116]  lookupStabilitySig:vector  ETV
vector 2010417  Network.dyn_peer[116]  lookupTimeSig:vector  ETV
vector 2010418  Network.dyn_peer[117]  lookupHopsSig:vector  ETV
vector 2010419  Network.dyn_peer[117]  lookupStabilitySig:vector  ETV
vector 2010420  Network.dyn_peer[117]  lookupTimeSig:vector  ETV
vector 2010628  Network.dyn_peer[187]  lookupHopsSig:vector  ETV
vector 2010629  Network.dyn_peer[187]  lookupStabilitySig:vector  ETV
vector 2010630  Network.dyn_peer[187]  lookupTimeSig:vector  ETV
vector 2010691  Network.dyn_peer[208]  lookupHopsSig:vector  ETV
vector 2010692  Network.dyn_peer[208]  lookupStabilitySig:vector  ETV
vector 2010693  Network.dyn_peer[208]  lookupTimeSig:vector  ETV
vector 2010307  Network.dyn_peer[80]  lookupHopsSig:vector  ETV
vector 2010308  Network.dyn_peer[80]  lookupStabilitySig:vector  ETV
vector 2010309  Network.dyn_peer[80]  lookupTimeSig:vector  ETV
vector 2010640  Network.dyn_peer[191]  lookupHopsSig:vector  ETV
vector 2010641  Network.dyn_peer[191]  lookupStabilitySig:vector  ETV
vector 2010642  Network.dyn_peer[191]  lookupTimeSig:vector  ETV
vector 2010403  Network.dyn_peer[112]  lookupHopsSig:vector  ETV
vector 2010404  Network.dyn_peer[112]  lookupStabilitySig:vector  ETV
vector 2010405  Network.dyn_peer[112]  lookupTimeSig:vector  ETV
vector 2010589  Network.dyn_peer[174]  lookupHopsSig:vector  ETV
vector 2010590  Network.dyn_peer[174]  lookupStabilitySig:vector  ETV
vector 2010591  Network.dyn_peer[174]  lookupTimeSig:vector  ETV
vector 2010412  Network.dyn_peer[115]  lookupHopsSig:vector  ETV
vector 2010413  Network.dyn_peer[115]  lookupStabilitySig:vector  ETV
vector 2010414  Network.dyn_peer[115]  lookupTimeSig:vector  ETV
vector 2010535  Network.dyn_peer[156]  lookupHopsSig:vector  ETV
vector 2010536  Network.dyn_peer[156]  lookupStabilitySig:vector  ETV
vector 2010537  Network.dyn_peer[156]  lookupTimeSig:vector  ETV
vector 2010568  Network.dyn_peer[167]  lookupHopsSig:vector  ETV
vector 2010569  Network.dyn_peer[167]  lookupStabilitySig:vector  ETV
vector 2010570  Network.dyn_peer[167]  lookupTimeSig:vector  ETV
vector 2010718  Network.dyn_peer[217]  lookupHopsSig:vector  ETV
vector 2010719  Network.dyn_peer[217]  lookupStabilitySig:vector  ETV
vector 2010720  Network.dyn_peer[217]  lookupTimeSig:vector  ETV
vector 2010421  Network.dyn_peer[118]  lookupHopsSig:vector  ETV
vector 2010422  Network.dyn_peer[118]  lookupStabilitySig:vector  ETV
vector 2010423  Network.dyn_peer[118]  lookupTimeSig:vector  ETV
vector 2010493  Network.dyn_peer[142]  lookupHopsSig:vector  ETV
vector 2010494  Network.dyn_peer[142]  lookupStabilitySig:vector  ETV
vector 2010495  Network.dyn_peer[142]  lookupTimeSig:vector  ETV
vector 2010532  Network.dyn_peer[155]  lookupHopsSig:vector  ETV
vector 2010533  Network.dyn_peer[155]  lookupStabilitySig:vector  ETV
vector 2010534  Network.dyn_peer[155]  lookupTimeSig:vector  ETV
vector 2010592  Network.dyn_peer[175]  lookupHopsSig:vector  ETV
vector 2010593  Network.dyn_peer[175]  lookupStabilitySig:vector  ETV
vector 2010594  Network.dyn_peer[175]  lookupTimeSig:vector  ETV
vector 2010622  Network.dyn_peer[185]  lookupHopsSig:vector  ETV
vector 2010623  Network.dyn_peer[185]  lookupStabilitySig:vector  ETV
vector 2010624  Network.dyn_peer[185]  lookupTimeSig:vector  ETV
vector 2010385  Network.dyn_peer[106]  lookupHopsSig:vector  ETV
vector 2010386  Network.dyn_peer[106]  lookupStabilitySig:vector  ETV
vector 2010387  Network.dyn_peer[106]  lookupTimeSig:vector  ETV
vector 2010481  Network.dyn_peer[138]  lookupHopsSig:vector  ETV
vector 2010482  Network.dyn_peer[138]  lookupStabilitySig:vector  ETV
vector 2010483  Network.dyn_peer[138]  lookupTimeSig:vector  ETV
vector 2010490  Network.dyn_peer[141]  lookupHopsSig:vector  ETV
vector 2010491  Network.dyn_peer[141]  lookupStabilitySig:vector  ETV
vector 2010492  Network.dyn_peer[141]  lookupTimeSig:vector  ETV