version 2
run Stability2-8-20130528-01:22:21-24168
attr configname Stability2
attr datetime 20130528-01:22:21
attr experiment Stability2
attr inifile omnetpp.ini
attr iterationvars $0=10
attr iterationvars2 "$0=10, $repetition=8"
attr measurement $0=10
attr network Network
attr processid 24168
attr repetition 8
attr replication #8
attr resultdir results
attr runnumber 8
attr seedset 8

vector 270008  Network.churner  inGoingSizeSig:vector  ETV
vector 240020  Network.dyn_peer[4]  lookupHopsSig:vector  ETV
vector 240021  Network.dyn_peer[4]  lookupStabilitySig:vector  ETV
vector 240022  Network.dyn_peer[4]  lookupTimeSig:vector  ETV
vector 240029  Network.dyn_peer[7]  lookupHopsSig:vector  ETV
vector 240030  Network.dyn_peer[7]  lookupStabilitySig:vector  ETV
vector 240031  Network.dyn_peer[7]  lookupTimeSig:vector  ETV
vector 240032  Network.dyn_peer[8]  lookupHopsSig:vector  ETV
vector 240033  Network.dyn_peer[8]  lookupStabilitySig:vector  ETV
vector 240034  Network.dyn_peer[8]  lookupTimeSig:vector  ETV
vector 240014  Network.dyn_peer[2]  lookupHopsSig:vector  ETV
vector 240015  Network.dyn_peer[2]  lookupStabilitySig:vector  ETV
vector 240016  Network.dyn_peer[2]  lookupTimeSig:vector  ETV
vector 240017  Network.dyn_peer[3]  lookupHopsSig:vector  ETV
vector 240018  Network.dyn_peer[3]  lookupStabilitySig:vector  ETV
vector 240019  Network.dyn_peer[3]  lookupTimeSig:vector  ETV
vector 240038  Network.dyn_peer[10]  lookupHopsSig:vector  ETV
vector 240039  Network.dyn_peer[10]  lookupStabilitySig:vector  ETV
vector 240040  Network.dyn_peer[10]  lookupTimeSig:vector  ETV
vector 240011  Network.dyn_peer[1]  lookupHopsSig:vector  ETV
vector 240012  Network.dyn_peer[1]  lookupStabilitySig:vector  ETV
vector 240013  Network.dyn_peer[1]  lookupTimeSig:vector  ETV
vector 240044  Network.dyn_peer[12]  lookupHopsSig:vector  ETV
vector 240045  Network.dyn_peer[12]  lookupStabilitySig:vector  ETV
vector 240046  Network.dyn_peer[12]  lookupTimeSig:vector  ETV
vector 240080  Network.dyn_peer[24]  lookupHopsSig:vector  ETV
vector 240081  Network.dyn_peer[24]  lookupStabilitySig:vector  ETV
vector 240082  Network.dyn_peer[24]  lookupTimeSig:vector  ETV
vector 240023  Network.dyn_peer[5]  lookupHopsSig:vector  ETV
vector 240024  Network.dyn_peer[5]  lookupStabilitySig:vector  ETV
vector 240025  Network.dyn_peer[5]  lookupTimeSig:vector  ETV
vector 240008  Network.dyn_peer[0]  lookupHopsSig:vector  ETV
vector 240009  Network.dyn_peer[0]  lookupStabilitySig:vector  ETV
vector 240010  Network.dyn_peer[0]  lookupTimeSig:vector  ETV
vector 240047  Network.dyn_peer[13]  lookupHopsSig:vector  ETV
vector 240048  Network.dyn_peer[13]  lookupStabilitySig:vector  ETV
vector 240049  Network.dyn_peer[13]  lookupTimeSig:vector  ETV
vector 240107  Network.dyn_peer[33]  lookupHopsSig:vector  ETV
vector 240108  Network.dyn_peer[33]  lookupStabilitySig:vector  ETV
vector 240109  Network.dyn_peer[33]  lookupTimeSig:vector  ETV
vector 240053  Network.dyn_peer[15]  lookupHopsSig:vector  ETV
vector 240054  Network.dyn_peer[15]  lookupStabilitySig:vector  ETV
vector 240055  Network.dyn_peer[15]  lookupTimeSig:vector  ETV
vector 240041  Network.dyn_peer[11]  lookupHopsSig:vector  ETV
vector 240042  Network.dyn_peer[11]  lookupStabilitySig:vector  ETV
vector 240043  Network.dyn_peer[11]  lookupTimeSig:vector  ETV
vector 240071  Network.dyn_peer[21]  lookupHopsSig:vector  ETV
vector 240072  Network.dyn_peer[21]  lookupStabilitySig:vector  ETV
vector 240073  Network.dyn_peer[21]  lookupTimeSig:vector  ETV
vector 240074  Network.dyn_peer[22]  lookupHopsSig:vector  ETV
vector 240075  Network.dyn_peer[22]  lookupStabilitySig:vector  ETV
vector 240076  Network.dyn_peer[22]  lookupTimeSig:vector  ETV
vector 240050  Network.dyn_peer[14]  lookupHopsSig:vector  ETV
vector 240051  Network.dyn_peer[14]  lookupStabilitySig:vector  ETV
vector 240052  Network.dyn_peer[14]  lookupTimeSig:vector  ETV
vector 240083  Network.dyn_peer[25]  lookupHopsSig:vector  ETV
vector 240084  Network.dyn_peer[25]  lookupStabilitySig:vector  ETV
vector 240085  Network.dyn_peer[25]  lookupTimeSig:vector  ETV
vector 240026  Network.dyn_peer[6]  lookupHopsSig:vector  ETV
vector 240027  Network.dyn_peer[6]  lookupStabilitySig:vector  ETV
vector 240028  Network.dyn_peer[6]  lookupTimeSig:vector  ETV
vector 240059  Network.dyn_peer[17]  lookupHopsSig:vector  ETV
vector 240060  Network.dyn_peer[17]  lookupStabilitySig:vector  ETV
vector 240061  Network.dyn_peer[17]  lookupTimeSig:vector  ETV
vector 240119  Network.dyn_peer[37]  lookupHopsSig:vector  ETV
vector 240120  Network.dyn_peer[37]  lookupStabilitySig:vector  ETV
vector 240121  Network.dyn_peer[37]  lookupTimeSig:vector  ETV
vector 240122  Network.dyn_peer[38]  lookupHopsSig:vector  ETV
vector 240123  Network.dyn_peer[38]  lookupStabilitySig:vector  ETV
vector 240124  Network.dyn_peer[38]  lookupTimeSig:vector  ETV
vector 240068  Network.dyn_peer[20]  lookupHopsSig:vector  ETV
vector 240069  Network.dyn_peer[20]  lookupStabilitySig:vector  ETV
vector 240070  Network.dyn_peer[20]  lookupTimeSig:vector  ETV
vector 240128  Network.dyn_peer[40]  lookupHopsSig:vector  ETV
vector 240129  Network.dyn_peer[40]  lookupStabilitySig:vector  ETV
vector 240130  Network.dyn_peer[40]  lookupTimeSig:vector  ETV
vector 240104  Network.dyn_peer[32]  lookupHopsSig:vector  ETV
vector 240105  Network.dyn_peer[32]  lookupStabilitySig:vector  ETV
vector 240106  Network.dyn_peer[32]  lookupTimeSig:vector  ETV
vector 240110  Network.dyn_peer[34]  lookupHopsSig:vector  ETV
vector 240111  Network.dyn_peer[34]  lookupStabilitySig:vector  ETV
vector 240112  Network.dyn_peer[34]  lookupTimeSig:vector  ETV
vector 240113  Network.dyn_peer[35]  lookupHopsSig:vector  ETV
vector 240114  Network.dyn_peer[35]  lookupStabilitySig:vector  ETV
vector 240115  Network.dyn_peer[35]  lookupTimeSig:vector  ETV
vector 240056  Network.dyn_peer[16]  lookupHopsSig:vector  ETV
vector 240057  Network.dyn_peer[16]  lookupStabilitySig:vector  ETV
vector 240058  Network.dyn_peer[16]  lookupTimeSig:vector  ETV
vector 240086  Network.dyn_peer[26]  lookupHopsSig:vector  ETV
vector 240087  Network.dyn_peer[26]  lookupStabilitySig:vector  ETV
vector 240088  Network.dyn_peer[26]  lookupTimeSig:vector  ETV
vector 240062  Network.dyn_peer[18]  lookupHopsSig:vector  ETV
vector 240063  Network.dyn_peer[18]  lookupStabilitySig:vector  ETV
vector 240064  Network.dyn_peer[18]  lookupTimeSig:vector  ETV
vector 240035  Network.dyn_peer[9]  lookupHopsSig:vector  ETV
vector 240036  Network.dyn_peer[9]  lookupStabilitySig:vector  ETV
vector 240037  Network.dyn_peer[9]  lookupTimeSig:vector  ETV
vector 240095  Network.dyn_peer[29]  lookupHopsSig:vector  ETV
vector 240096  Network.dyn_peer[29]  lookupStabilitySig:vector  ETV
vector 240097  Network.dyn_peer[29]  lookupTimeSig:vector  ETV
vector 240131  Network.dyn_peer[41]  lookupHopsSig:vector  ETV
vector 240132  Network.dyn_peer[41]  lookupStabilitySig:vector  ETV
vector 240133  Network.dyn_peer[41]  lookupTimeSig:vector  ETV
vector 240089  Network.dyn_peer[27]  lookupHopsSig:vector  ETV
vector 240090  Network.dyn_peer[27]  lookupStabilitySig:vector  ETV
vector 240091  Network.dyn_peer[27]  lookupTimeSig:vector  ETV
vector 240149  Network.dyn_peer[47]  lookupHopsSig:vector  ETV
vector 240150  Network.dyn_peer[47]  lookupStabilitySig:vector  ETV
vector 240151  Network.dyn_peer[47]  lookupTimeSig:vector  ETV
vector 240179  Network.dyn_peer[57]  lookupHopsSig:vector  ETV
vector 240180  Network.dyn_peer[57]  lookupStabilitySig:vector  ETV
vector 240181  Network.dyn_peer[57]  lookupTimeSig:vector  ETV
vector 240152  Network.dyn_peer[48]  lookupHopsSig:vector  ETV
vector 240153  Network.dyn_peer[48]  lookupStabilitySig:vector  ETV
vector 240154  Network.dyn_peer[48]  lookupTimeSig:vector  ETV
vector 240161  Network.dyn_peer[51]  lookupHopsSig:vector  ETV
vector 240162  Network.dyn_peer[51]  lookupStabilitySig:vector  ETV
vector 240163  Network.dyn_peer[51]  lookupTimeSig:vector  ETV
vector 240137  Network.dyn_peer[43]  lookupHopsSig:vector  ETV
vector 240138  Network.dyn_peer[43]  lookupStabilitySig:vector  ETV
vector 240139  Network.dyn_peer[43]  lookupTimeSig:vector  ETV
vector 240140  Network.dyn_peer[44]  lookupHopsSig:vector  ETV
vector 240141  Network.dyn_peer[44]  lookupStabilitySig:vector  ETV
vector 240142  Network.dyn_peer[44]  lookupTimeSig:vector  ETV
vector 240170  Network.dyn_peer[54]  lookupHopsSig:vector  ETV
vector 240171  Network.dyn_peer[54]  lookupStabilitySig:vector  ETV
vector 240172  Network.dyn_peer[54]  lookupTimeSig:vector  ETV
vector 240116  Network.dyn_peer[36]  lookupHopsSig:vector  ETV
vector 240117  Network.dyn_peer[36]  lookupStabilitySig:vector  ETV
vector 240118  Network.dyn_peer[36]  lookupTimeSig:vector  ETV
vector 240077  Network.dyn_peer[23]  lookupHopsSig:vector  ETV
vector 240078  Network.dyn_peer[23]  lookupStabilitySig:vector  ETV
vector 240079  Network.dyn_peer[23]  lookupTimeSig:vector  ETV
vector 240263  Network.dyn_peer[85]  lookupHopsSig:vector  ETV
vector 240264  Network.dyn_peer[85]  lookupStabilitySig:vector  ETV
vector 240265  Network.dyn_peer[85]  lookupTimeSig:vector  ETV
vector 240146  Network.dyn_peer[46]  lookupHopsSig:vector  ETV
vector 240147  Network.dyn_peer[46]  lookupStabilitySig:vector  ETV
vector 240148  Network.dyn_peer[46]  lookupTimeSig:vector  ETV
vector 240206  Network.dyn_peer[66]  lookupHopsSig:vector  ETV
vector 240207  Network.dyn_peer[66]  lookupStabilitySig:vector  ETV
vector 240208  Network.dyn_peer[66]  lookupTimeSig:vector  ETV
vector 240101  Network.dyn_peer[31]  lookupHopsSig:vector  ETV
vector 240102  Network.dyn_peer[31]  lookupStabilitySig:vector  ETV
vector 240103  Network.dyn_peer[31]  lookupTimeSig:vector  ETV
vector 240167  Network.dyn_peer[53]  lookupHopsSig:vector  ETV
vector 240168  Network.dyn_peer[53]  lookupStabilitySig:vector  ETV
vector 240169  Network.dyn_peer[53]  lookupTimeSig:vector  ETV
vector 240230  Network.dyn_peer[74]  lookupHopsSig:vector  ETV
vector 240231  Network.dyn_peer[74]  lookupStabilitySig:vector  ETV
vector 240232  Network.dyn_peer[74]  lookupTimeSig:vector  ETV
vector 240293  Network.dyn_peer[95]  lookupHopsSig:vector  ETV
vector 240294  Network.dyn_peer[95]  lookupStabilitySig:vector  ETV
vector 240295  Network.dyn_peer[95]  lookupTimeSig:vector  ETV
vector 240065  Network.dyn_peer[19]  lookupHopsSig:vector  ETV
vector 240066  Network.dyn_peer[19]  lookupStabilitySig:vector  ETV
vector 240067  Network.dyn_peer[19]  lookupTimeSig:vector  ETV
vector 240098  Network.dyn_peer[30]  lookupHopsSig:vector  ETV
vector 240099  Network.dyn_peer[30]  lookupStabilitySig:vector  ETV
vector 240100  Network.dyn_peer[30]  lookupTimeSig:vector  ETV
vector 240158  Network.dyn_peer[50]  lookupHopsSig:vector  ETV
vector 240159  Network.dyn_peer[50]  lookupStabilitySig:vector  ETV
vector 240160  Network.dyn_peer[50]  lookupTimeSig:vector  ETV
vector 240188  Network.dyn_peer[60]  lookupHopsSig:vector  ETV
vector 240189  Network.dyn_peer[60]  lookupStabilitySig:vector  ETV
vector 240190  Network.dyn_peer[60]  lookupTimeSig:vector  ETV
vector 240176  Network.dyn_peer[56]  lookupHopsSig:vector  ETV
vector 240177  Network.dyn_peer[56]  lookupStabilitySig:vector  ETV
vector 240178  Network.dyn_peer[56]  lookupTimeSig:vector  ETV
vector 240281  Network.dyn_peer[91]  lookupHopsSig:vector  ETV
vector 240282  Network.dyn_peer[91]  lookupStabilitySig:vector  ETV
vector 240283  Network.dyn_peer[91]  lookupTimeSig:vector  ETV
vector 240194  Network.dyn_peer[62]  lookupHopsSig:vector  ETV
vector 240195  Network.dyn_peer[62]  lookupStabilitySig:vector  ETV
vector 240196  Network.dyn_peer[62]  lookupTimeSig:vector  ETV
vector 240125  Network.dyn_peer[39]  lookupHopsSig:vector  ETV
vector 240126  Network.dyn_peer[39]  lookupStabilitySig:vector  ETV
vector 240127  Network.dyn_peer[39]  lookupTimeSig:vector  ETV
vector 240287  Network.dyn_peer[93]  lookupHopsSig:vector  ETV
vector 240288  Network.dyn_peer[93]  lookupStabilitySig:vector  ETV
vector 240289  Network.dyn_peer[93]  lookupTimeSig:vector  ETV
vector 240173  Network.dyn_peer[55]  lookupHopsSig:vector  ETV
vector 240174  Network.dyn_peer[55]  lookupStabilitySig:vector  ETV
vector 240175  Network.dyn_peer[55]  lookupTimeSig:vector  ETV
vector 240092  Network.dyn_peer[28]  lookupHopsSig:vector  ETV
vector 240093  Network.dyn_peer[28]  lookupStabilitySig:vector  ETV
vector 240094  Network.dyn_peer[28]  lookupTimeSig:vector  ETV
vector 240251  Network.dyn_peer[81]  lookupHopsSig:vector  ETV
vector 240252  Network.dyn_peer[81]  lookupStabilitySig:vector  ETV
vector 240253  Network.dyn_peer[81]  lookupTimeSig:vector  ETV
vector 240200  Network.dyn_peer[64]  lookupHopsSig:vector  ETV
vector 240201  Network.dyn_peer[64]  lookupStabilitySig:vector  ETV
vector 240202  Network.dyn_peer[64]  lookupTimeSig:vector  ETV
vector 240242  Network.dyn_peer[78]  lookupHopsSig:vector  ETV
vector 240243  Network.dyn_peer[78]  lookupStabilitySig:vector  ETV
vector 240244  Network.dyn_peer[78]  lookupTimeSig:vector  ETV
vector 240134  Network.dyn_peer[42]  lookupHopsSig:vector  ETV
vector 240135  Network.dyn_peer[42]  lookupStabilitySig:vector  ETV
vector 240136  Network.dyn_peer[42]  lookupTimeSig:vector  ETV
vector 240224  Network.dyn_peer[72]  lookupHopsSig:vector  ETV
vector 240225  Network.dyn_peer[72]  lookupStabilitySig:vector  ETV
vector 240226  Network.dyn_peer[72]  lookupTimeSig:vector  ETV
vector 240185  Network.dyn_peer[59]  lookupHopsSig:vector  ETV
vector 240186  Network.dyn_peer[59]  lookupStabilitySig:vector  ETV
vector 240187  Network.dyn_peer[59]  lookupTimeSig:vector  ETV
vector 240215  Network.dyn_peer[69]  lookupHopsSig:vector  ETV
vector 240216  Network.dyn_peer[69]  lookupStabilitySig:vector  ETV
vector 240217  Network.dyn_peer[69]  lookupTimeSig:vector  ETV
vector 240143  Network.dyn_peer[45]  lookupHopsSig:vector  ETV
vector 240144  Network.dyn_peer[45]  lookupStabilitySig:vector  ETV
vector 240145  Network.dyn_peer[45]  lookupTimeSig:vector  ETV
vector 240236  Network.dyn_peer[76]  lookupHopsSig:vector  ETV
vector 240237  Network.dyn_peer[76]  lookupStabilitySig:vector  ETV
vector 240238  Network.dyn_peer[76]  lookupTimeSig:vector  ETV
vector 240209  Network.dyn_peer[67]  lookupHopsSig:vector  ETV
vector 240210  Network.dyn_peer[67]  lookupStabilitySig:vector  ETV
vector 240211  Network.dyn_peer[67]  lookupTimeSig:vector  ETV
vector 240155  Network.dyn_peer[49]  lookupHopsSig:vector  ETV
vector 240156  Network.dyn_peer[49]  lookupStabilitySig:vector  ETV
vector 240157  Network.dyn_peer[49]  lookupTimeSig:vector  ETV
vector 240278  Network.dyn_peer[90]  lookupHopsSig:vector  ETV
vector 240279  Network.dyn_peer[90]  lookupStabilitySig:vector  ETV
vector 240280  Network.dyn_peer[90]  lookupTimeSig:vector  ETV
vector 240284  Network.dyn_peer[92]  lookupHopsSig:vector  ETV
vector 240285  Network.dyn_peer[92]  lookupStabilitySig:vector  ETV
vector 240286  Network.dyn_peer[92]  lookupTimeSig:vector  ETV
vector 240212  Network.dyn_peer[68]  lookupHopsSig:vector  ETV
vector 240213  Network.dyn_peer[68]  lookupStabilitySig:vector  ETV
vector 240214  Network.dyn_peer[68]  lookupTimeSig:vector  ETV
vector 240305  Network.dyn_peer[99]  lookupHopsSig:vector  ETV
vector 240306  Network.dyn_peer[99]  lookupStabilitySig:vector  ETV
vector 240307  Network.dyn_peer[99]  lookupTimeSig:vector  ETV
vector 240191  Network.dyn_peer[61]  lookupHopsSig:vector  ETV
vector 240192  Network.dyn_peer[61]  lookupStabilitySig:vector  ETV
vector 240193  Network.dyn_peer[61]  lookupTimeSig:vector  ETV
vector 240164  Network.dyn_peer[52]  lookupHopsSig:vector  ETV
vector 240165  Network.dyn_peer[52]  lookupStabilitySig:vector  ETV
vector 240166  Network.dyn_peer[52]  lookupTimeSig:vector  ETV
vector 240272  Network.dyn_peer[88]  lookupHopsSig:vector  ETV
vector 240273  Network.dyn_peer[88]  lookupStabilitySig:vector  ETV
vector 240274  Network.dyn_peer[88]  lookupTimeSig:vector  ETV
vector 240245  Network.dyn_peer[79]  lookupHopsSig:vector  ETV
vector 240246  Network.dyn_peer[79]  lookupStabilitySig:vector  ETV
vector 240247  Network.dyn_peer[79]  lookupTimeSig:vector  ETV
vector 240275  Network.dyn_peer[89]  lookupHopsSig:vector  ETV
vector 240276  Network.dyn_peer[89]  lookupStabilitySig:vector  ETV
vector 240277  Network.dyn_peer[89]  lookupTimeSig:vector  ETV
vector 240227  Network.dyn_peer[73]  lookupHopsSig:vector  ETV
vector 240228  Network.dyn_peer[73]  lookupStabilitySig:vector  ETV
vector 240229  Network.dyn_peer[73]  lookupTimeSig:vector  ETV
vector 240290  Network.dyn_peer[94]  lookupHopsSig:vector  ETV
vector 240291  Network.dyn_peer[94]  lookupStabilitySig:vector  ETV
vector 240292  Network.dyn_peer[94]  lookupTimeSig:vector  ETV
vector 240299  Network.dyn_peer[97]  lookupHopsSig:vector  ETV
vector 240300  Network.dyn_peer[97]  lookupStabilitySig:vector  ETV
vector 240301  Network.dyn_peer[97]  lookupTimeSig:vector  ETV
vector 240233  Network.dyn_peer[75]  lookupHopsSig:vector  ETV
vector 240234  Network.dyn_peer[75]  lookupStabilitySig:vector  ETV
vector 240235  Network.dyn_peer[75]  lookupTimeSig:vector  ETV
vector 240218  Network.dyn_peer[70]  lookupHopsSig:vector  ETV
vector 240219  Network.dyn_peer[70]  lookupStabilitySig:vector  ETV
vector 240220  Network.dyn_peer[70]  lookupTimeSig:vector  ETV
vector 240221  Network.dyn_peer[71]  lookupHopsSig:vector  ETV
vector 240222  Network.dyn_peer[71]  lookupStabilitySig:vector  ETV
vector 240223  Network.dyn_peer[71]  lookupTimeSig:vector  ETV
vector 240182  Network.dyn_peer[58]  lookupHopsSig:vector  ETV
vector 240183  Network.dyn_peer[58]  lookupStabilitySig:vector  ETV
vector 240184  Network.dyn_peer[58]  lookupTimeSig:vector  ETV
vector 240302  Network.dyn_peer[98]  lookupHopsSig:vector  ETV
vector 240303  Network.dyn_peer[98]  lookupStabilitySig:vector  ETV
vector 240304  Network.dyn_peer[98]  lookupTimeSig:vector  ETV
vector 240254  Network.dyn_peer[82]  lookupHopsSig:vector  ETV
vector 240255  Network.dyn_peer[82]  lookupStabilitySig:vector  ETV
vector 240256  Network.dyn_peer[82]  lookupTimeSig:vector  ETV
vector 240257  Network.dyn_peer[83]  lookupHopsSig:vector  ETV
vector 240258  Network.dyn_peer[83]  lookupStabilitySig:vector  ETV
vector 240259  Network.dyn_peer[83]  lookupTimeSig:vector  ETV
vector 240260  Network.dyn_peer[84]  lookupHopsSig:vector  ETV
vector 240261  Network.dyn_peer[84]  lookupStabilitySig:vector  ETV
vector 240262  Network.dyn_peer[84]  lookupTimeSig:vector  ETV
vector 240197  Network.dyn_peer[63]  lookupHopsSig:vector  ETV
vector 240198  Network.dyn_peer[63]  lookupStabilitySig:vector  ETV
vector 240199  Network.dyn_peer[63]  lookupTimeSig:vector  ETV
vector 240203  Network.dyn_peer[65]  lookupHopsSig:vector  ETV
vector 240204  Network.dyn_peer[65]  lookupStabilitySig:vector  ETV
vector 240205  Network.dyn_peer[65]  lookupTimeSig:vector  ETV
vector 240269  Network.dyn_peer[87]  lookupHopsSig:vector  ETV
vector 240270  Network.dyn_peer[87]  lookupStabilitySig:vector  ETV
vector 240271  Network.dyn_peer[87]  lookupTimeSig:vector  ETV
vector 240248  Network.dyn_peer[80]  lookupHopsSig:vector  ETV
vector 240249  Network.dyn_peer[80]  lookupStabilitySig:vector  ETV
vector 240250  Network.dyn_peer[80]  lookupTimeSig:vector  ETV
vector 240266  Network.dyn_peer[86]  lookupHopsSig:vector  ETV
vector 240267  Network.dyn_peer[86]  lookupStabilitySig:vector  ETV
vector 240268  Network.dyn_peer[86]  lookupTimeSig:vector  ETV
vector 240296  Network.dyn_peer[96]  lookupHopsSig:vector  ETV
vector 240297  Network.dyn_peer[96]  lookupStabilitySig:vector  ETV
vector 240298  Network.dyn_peer[96]  lookupTimeSig:vector  ETV
vector 240239  Network.dyn_peer[77]  lookupHopsSig:vector  ETV
vector 240240  Network.dyn_peer[77]  lookupStabilitySig:vector  ETV
vector 240241  Network.dyn_peer[77]  lookupTimeSig:vector  ETV
240008	191	20.31	3
240008	1554	21.41	10
240008	2334	22.014711450117	5
240008	3087	22.719747972206	6
240009	191	20.31	0.39999997615814
240009	1554	21.41	0.090909063816071
240009	2334	22.014711450117	0.78260870277882
240009	3087	22.719747972206	0.86363635957241
240010	191	20.31	0.3
240010	1554	21.41	1.1
240010	2334	22.014711450117	0.6
240010	3087	22.719747972206	0.7
240011	123	20.22	2
240011	399	20.52	2
240011	1446	21.328786595456	7
240011	2473	22.130597074303	7
240011	3009	22.639370289257	4
240012	123	20.22	0.59999999403954
240012	399	20.52	0.59999999403954
240012	1446	21.328786595456	0.22222220897675
240012	2473	22.130597074303	0.71999999880791
240012	3009	22.639370289257	0.89999999850988
240013	123	20.22	0.2
240013	399	20.52	0.3
240013	1446	21.328786595456	0.8
240013	2473	22.130597074303	0.8
240013	3009	22.639370289257	0.5
240014	71	20.13	1
240014	1331	21.23	10
240014	2359	22.032428272522	7
240014	2803	22.438156099135	3
240014	3776	23.68305932101	8
240014	4036	24.291360774686	5
240014	4353	25.392876314519	10
240014	4483	26.597221197111	11
240014	4542	27.603003350139	9
240014	4563	28.010853543252	3
240015	71	20.13	0.79999999701977
240015	1331	21.23	-0.11111116409302
240015	2359	22.032428272522	0.69565218687057
240015	2803	22.438156099135	0.90625
240015	3776	23.68305932101	0.89189188927412
240015	4036	24.291360774686	0.93975903466344
240015	4353	25.392876314519	0.89690721780062
240015	4483	26.597221197111	0.89215686172247
240015	4542	27.603003350139	0.91262135654688
240015	4563	28.010853543252	0.97115384601057
240016	71	20.13	0.1
240016	1331	21.23	1.1
240016	2359	22.032428272522	0.8
240016	2803	22.438156099135	0.4
240016	3776	23.68305932101	0.9
240016	4036	24.291360774686	0.6
240016	4353	25.392876314519	1.1
240016	4483	26.597221197111	1.2
240016	4542	27.603003350139	1
240016	4563	28.010853543252	0.4
240017	79	20.14	1
240017	672	20.749883823079	5
240017	1238	21.157381149785	3
240018	79	20.14	0.79999999701977
240018	672	20.749883823079	0
240018	1238	21.157381149785	0.5714285671711
240019	79	20.14	0.1
240019	672	20.749883823079	0.6
240019	1238	21.157381149785	0.4
240020	30	20.05	0
240020	143	20.25	1
240020	316	20.456431097129	1
240020	1248	21.160674147542	6
240020	3441	23.165090728724	19
240021	30	20.05	1
240021	143	20.25	0.79999999701977
240021	316	20.456431097129	0.79999999701977
240021	1248	21.160674147542	0.14285713434219
240021	3441	23.165090728724	0.66666665673256
240022	30	20.05	0
240022	143	20.25	0.2
240022	316	20.456431097129	0.2
240022	1248	21.160674147542	0.7
240022	3441	23.165090728724	2
240023	157	20.26	2
240023	565	20.664030968493	3
240023	859	20.871753851617	1
240023	1141	21.076844271099	1
240024	157	20.26	0.59999999403954
240024	565	20.664030968493	0.39999997615814
240024	859	20.871753851617	0.83333332836628
240024	1141	21.076844271099	0.83333332836628
240025	157	20.26	0.2
240025	565	20.664030968493	0.4
240025	859	20.871753851617	0.2
240025	1141	21.076844271099	0.2
240026	338	20.47	4
240026	1636	21.47	9
240026	1908	21.679422535132	1
240027	338	20.47	0.19999998807907
240027	1636	21.47	0.18181818723679
240027	1908	21.679422535132	0.9333333298564
240028	338	20.47	0.4
240028	1636	21.47	1
240028	1908	21.679422535132	0.2
240029	43	20.08	0
240029	254	20.395535530577	2
240029	1175	21.100852488927	6
240029	1957	21.710447347031	5
240029	2329	22.010489953818	2
240030	43	20.08	1
240030	254	20.395535530577	0.59999999403954
240030	1175	21.100852488927	0.14285713434219
240030	1957	21.710447347031	0.6875
240030	2329	22.010489953818	0.90909090638161
240031	43	20.08	0
240031	254	20.395535530577	0.3
240031	1175	21.100852488927	0.7
240031	1957	21.710447347031	0.6
240031	2329	22.010489953818	0.3
240032	51	20.09	0
240032	173	20.29	1
240032	753	20.805529573682	4
240032	2447	22.113745699146	12
240033	51	20.09	1
240033	173	20.29	0.79999999701977
240033	753	20.805529573682	0.19999998807907
240033	2447	22.113745699146	0.5
240034	51	20.09	0
240034	173	20.29	0.2
240034	753	20.805529573682	0.5
240034	2447	22.113745699146	1.3
240035	495	20.6	5
240035	1545	21.4	7
240035	2673	22.309297846604	8
240035	3259	22.917178809369	5
240036	495	20.6	0
240036	1545	21.4	0.36363637447357
240036	2673	22.309297846604	0.72413793206215
240036	3259	22.917178809369	0.90196078270674
240037	495	20.6	0.5
240037	1545	21.4	0.8
240037	2673	22.309297846604	0.9
240037	3259	22.917178809369	0.6
240038	114	20.21	1
240038	381	20.51	2
240038	1067	21.019142305378	4
240038	1840	21.621246499926	5
240039	114	20.21	0.79999999701977
240039	381	20.51	0.59999999403954
240039	1067	21.019142305378	0.33333331346512
240039	1840	21.621246499926	0.61538460850716
240040	114	20.21	0.1
240040	381	20.51	0.3
240040	1067	21.019142305378	0.5
240040	1840	21.621246499926	0.6
240041	279	20.42	3
240041	774	20.82	3
240041	1077	21.021005940884	1
240041	1842	21.621259063498	5
240041	2967	22.593041394299	8
240041	3152	22.796176264667	1
240041	3476	23.200477668369	3
240041	3787	23.70132778456	4
240041	3999	24.209070128654	4
240041	4293	25.111997747453	8
240041	4341	25.318688075276	1
240042	279	20.42	0.39999997615814
240042	774	20.82	0.39999997615814
240042	1077	21.021005940884	0.83333332836628
240042	1842	21.621259063498	0.61538460850716
240042	2967	22.593041394299	0.78947368264198
240042	3152	22.796176264667	0.97959183715284
240042	3476	23.200477668369	0.94999999925494
240042	3787	23.70132778456	0.94594594463706
240042	3999	24.209070128654	0.95121951401234
240042	4293	25.111997747453	0.91397849470377
240042	4341	25.318688075276	0.98969072196633
240043	279	20.42	0.3
240043	774	20.82	0.4
240043	1077	21.021005940884	0.2
240043	1842	21.621259063498	0.6
240043	2967	22.593041394299	0.9
240043	3152	22.796176264667	0.2
240043	3476	23.200477668369	0.4
240043	3787	23.70132778456	0.5
240043	3999	24.209070128654	0.5
240043	4293	25.111997747453	0.9
240043	4341	25.318688075276	0.2
240044	132	20.23	1
240044	1332	21.23	9
240044	2363	22.039529032662	7
240045	132	20.23	0.79999999701977
240045	1332	21.23	0
240045	2363	22.039529032662	0.69565218687057
240046	132	20.23	0.1
240046	1332	21.23	1
240046	2363	22.039529032662	0.8
240047	212	20.34	2
240047	806	20.84	4
240047	2138	21.847711354752	9
240047	2717	22.354654878749	4
240048	212	20.34	0.59999999403954
240048	806	20.84	0.19999998807907
240048	2138	21.847711354752	0.47058820724487
240048	2717	22.354654878749	0.86206896603107
240049	212	20.34	0.2
240049	806	20.84	0.5
240049	2138	21.847711354752	1
240049	2717	22.354654878749	0.5
240050	312	20.45	3
240050	1476	21.35	8
240050	2149	21.851567137204	4
240050	3054	22.68378249977	7
240050	3227	22.888274036596	1
240051	312	20.45	0.39999997615814
240051	1476	21.35	0.11111110448837
240051	2149	21.851567137204	0.7647058814764
240051	3054	22.68378249977	0.84090909361839
240051	3227	22.888274036596	0.98039215616882
240052	312	20.45	0.3
240052	1476	21.35	0.9
240052	2149	21.851567137204	0.5
240052	3054	22.68378249977	0.8
240052	3227	22.888274036596	0.2
240053	232	20.36	2
240053	1365	21.26	8
240053	2404	22.074576132704	7
240053	2954	22.580807167157	4
240054	232	20.36	0.59999999403954
240054	1365	21.26	0.11111110448837
240054	2404	22.074576132704	0.70833334326744
240054	2954	22.580807167157	0.89189188927412
240055	232	20.36	0.2
240055	1365	21.26	0.9
240055	2404	22.074576132704	0.8
240055	2954	22.580807167157	0.5
240056	460	20.57	4
240056	2173	21.87	12
240056	3304	22.970248948112	10
240056	3594	23.380120568473	3
240056	3870	23.887091177217	4
240057	460	20.57	0.19999998807907
240057	2173	21.87	0.33333331346512
240057	3304	22.970248948112	0.81132075190544
240057	3594	23.380120568473	0.953125
240057	3870	23.887091177217	0.94936708733439
240058	460	20.57	0.4
240058	2173	21.87	1.3
240058	3304	22.970248948112	1.1
240058	3594	23.380120568473	0.4
240058	3870	23.887091177217	0.5
240059	348	20.48	3
240059	1513	21.38	8
240059	1914	21.680776622314	2
240059	2856	22.488806091858	7
240060	348	20.48	0.39999997615814
240060	1513	21.38	0.19999998807907
240060	1914	21.680776622314	0.86666665971279
240060	2856	22.488806091858	0.79411764442921
240061	348	20.48	0.3
240061	1513	21.38	0.9
240061	1914	21.680776622314	0.3
240061	2856	22.488806091858	0.8
240062	482	20.59	4
240062	1793	21.59	9
240062	3605	23.39786240654	17
240063	482	20.59	0.19999998807907
240063	1793	21.59	0.30769228935242
240063	3605	23.39786240654	0.73846152424812
240064	482	20.59	0.4
240064	1793	21.59	1
240064	3605	23.39786240654	1.8
240065	1038	21	8
240065	1943	21.7	6
240065	2210	21.907901028068	1
240065	4026	24.271872265471	12
240065	4312	25.18307696064	8
240065	4452	26.186335196169	9
240065	4497	26.791372470983	5
240065	4530	27.39627234947	5
240065	4578	28.704349695549	12
240065	4590	29.708450577305	9
240065	4598	30.314562255287	5
240066	1038	21	-0.33333337306976
240066	1943	21.7	0.625
240066	2210	21.907901028068	0.94444444403052
240066	4026	24.271872265471	0.85542169213295
240066	4312	25.18307696064	0.91397849470377
240066	4452	26.186335196169	0.91176470369101
240066	4497	26.791372470983	0.95098039135337
240066	4530	27.39627234947	0.95145631209016
240066	4578	28.704349695549	0.88571428507566
240066	4590	29.708450577305	0.9142857119441
240066	4598	30.314562255287	0.95238095149398
240067	1038	21	0.8
240067	1943	21.7	0.7
240067	2210	21.907901028068	0.2
240067	4026	24.271872265471	1.3
240067	4312	25.18307696064	0.9
240067	4452	26.186335196169	1
240067	4497	26.791372470983	0.6
240067	4530	27.39627234947	0.6
240067	4578	28.704349695549	1.3
240067	4590	29.708450577305	1
240067	4598	30.314562255287	0.6
240068	385	20.51	3
240068	1055	21.01	4
240068	2571	22.219561590729	11
240068	2895	22.522167357476	2
240068	3098	22.727712124615	1
240069	385	20.51	0.39999997615814
240069	1055	21.01	0.33333331346512
240069	2571	22.219561590729	0.59259259700775
240069	2895	22.522167357476	0.94285714253783
240069	3098	22.727712124615	0.97777777723968
240070	385	20.51	0.3
240070	1055	21.01	0.5
240070	2571	22.219561590729	1.2
240070	2895	22.522167357476	0.3
240070	3098	22.727712124615	0.2
240071	283	20.42	2
240071	775	20.82	3
240071	1845	21.623902813668	7
240071	2119	21.83168793657	1
240071	2825	22.456456672689	5
240071	3031	22.660470724129	1
240072	283	20.42	0.59999999403954
240072	775	20.82	0.39999997615814
240072	1845	21.623902813668	0.5
240072	2119	21.83168793657	0.9411764703691