file 4684953 1369697973                                         
version 2
run Stability2-80-20130528-01:38:44-24168
attr configname Stability2
attr datetime 20130528-01:38:44
attr experiment Stability2
attr inifile omnetpp.ini
attr iterationvars $0=400
attr iterationvars2 "$0=400, $repetition=0"
attr measurement $0=400
attr network Network
attr processid 24168
attr repetition 0
attr replication #0
attr resultdir results
attr runnumber 80
attr seedset 80

vector 2430080  Network.churner  inGoingSizeSig:vector  ETV
vector 2400089  Network.dyn_peer[3]  lookupHopsSig:vector  ETV
vector 2400090  Network.dyn_peer[3]  lookupStabilitySig:vector  ETV
vector 2400091  Network.dyn_peer[3]  lookupTimeSig:vector  ETV
vector 2400092  Network.dyn_peer[4]  lookupHopsSig:vector  ETV
vector 2400093  Network.dyn_peer[4]  lookupStabilitySig:vector  ETV
vector 2400094  Network.dyn_peer[4]  lookupTimeSig:vector  ETV
vector 2400083  Network.dyn_peer[1]  lookupHopsSig:vector  ETV
vector 2400084  Network.dyn_peer[1]  lookupStabilitySig:vector  ETV
vector 2400085  Network.dyn_peer[1]  lookupTimeSig:vector  ETV
vector 2400095  Network.dyn_peer[5]  lookupHopsSig:vector  ETV
vector 2400096  Network.dyn_peer[5]  lookupStabilitySig:vector  ETV
vector 2400097  Network.dyn_peer[5]  lookupTimeSig:vector  ETV
vector 2400098  Network.dyn_peer[6]  lookupHopsSig:vector  ETV
vector 2400099  Network.dyn_peer[6]  lookupStabilitySig:vector  ETV
vector 2400100  Network.dyn_peer[6]  lookupTimeSig:vector  ETV
vector 2400101  Network.dyn_peer[7]  lookupHopsSig:vector  ETV
vector 2400102  Network.dyn_peer[7]  lookupStabilitySig:vector  ETV
vector 2400103  Network.dyn_peer[7]  lookupTimeSig:vector  ETV
vector 2400131  Network.dyn_peer[17]  lookupHopsSig:vector  ETV
vector 2400132  Network.dyn_peer[17]  lookupStabilitySig:vector  ETV
vector 2400133  Network.dyn_peer[17]  lookupTimeSig:vector  ETV
vector 2400104  Network.dyn_peer[8]  lookupHopsSig:vector  ETV
vector 2400105  Network.dyn_peer[8]  lookupStabilitySig:vector  ETV
vector 2400106  Network.dyn_peer[8]  lookupTimeSig:vector  ETV
vector 2400107  Network.dyn_peer[9]  lookupHopsSig:vector  ETV
vector 2400108  Network.dyn_peer[9]  lookupStabilitySig:vector  ETV
vector 2400109  Network.dyn_peer[9]  lookupTimeSig:vector  ETV
vector 2400110  Network.dyn_peer[10]  lookupHopsSig:vector  ETV
vector 2400111  Network.dyn_peer[10]  lookupStabilitySig:vector  ETV
vector 2400112  Network.dyn_peer[10]  lookupTimeSig:vector  ETV
vector 2400116  Network.dyn_peer[12]  lookupHopsSig:vector  ETV
vector 2400117  Network.dyn_peer[12]  lookupStabilitySig:vector  ETV
vector 2400118  Network.dyn_peer[12]  lookupTimeSig:vector  ETV
vector 2400125  Network.dyn_peer[15]  lookupHopsSig:vector  ETV
vector 2400126  Network.dyn_peer[15]  lookupStabilitySig:vector  ETV
vector 2400127  Network.dyn_peer[15]  lookupTimeSig:vector  ETV
vector 2400137  Network.dyn_peer[19]  lookupHopsSig:vector  ETV
vector 2400138  Network.dyn_peer[19]  lookupStabilitySig:vector  ETV
vector 2400139  Network.dyn_peer[19]  lookupTimeSig:vector  ETV
vector 2400080  Network.dyn_peer[0]  lookupHopsSig:vector  ETV
vector 2400081  Network.dyn_peer[0]  lookupStabilitySig:vector  ETV
vector 2400082  Network.dyn_peer[0]  lookupTimeSig:vector  ETV
vector 2400113  Network.dyn_peer[11]  lookupHopsSig:vector  ETV
vector 2400114  Network.dyn_peer[11]  lookupStabilitySig:vector  ETV
vector 2400115  Network.dyn_peer[11]  lookupTimeSig:vector  ETV
vector 2400149  Network.dyn_peer[23]  lookupHopsSig:vector  ETV
vector 2400150  Network.dyn_peer[23]  lookupStabilitySig:vector  ETV
vector 2400151  Network.dyn_peer[23]  lookupTimeSig:vector  ETV
vector 2400122  Network.dyn_peer[14]  lookupHopsSig:vector  ETV
vector 2400123  Network.dyn_peer[14]  lookupStabilitySig:vector  ETV
vector 2400124  Network.dyn_peer[14]  lookupTimeSig:vector  ETV
vector 2400155  Network.dyn_peer[25]  lookupHopsSig:vector  ETV
vector 2400156  Network.dyn_peer[25]  lookupStabilitySig:vector  ETV
vector 2400157  Network.dyn_peer[25]  lookupTimeSig:vector  ETV
vector 2400119  Network.dyn_peer[13]  lookupHopsSig:vector  ETV
vector 2400120  Network.dyn_peer[13]  lookupStabilitySig:vector  ETV
vector 2400121  Network.dyn_peer[13]  lookupTimeSig:vector  ETV
vector 2400128  Network.dyn_peer[16]  lookupHopsSig:vector  ETV
vector 2400129  Network.dyn_peer[16]  lookupStabilitySig:vector  ETV
vector 2400130  Network.dyn_peer[16]  lookupTimeSig:vector  ETV
vector 2400161  Network.dyn_peer[27]  lookupHopsSig:vector  ETV
vector 2400162  Network.dyn_peer[27]  lookupStabilitySig:vector  ETV
vector 2400163  Network.dyn_peer[27]  lookupTimeSig:vector  ETV
vector 2400146  Network.dyn_peer[22]  lookupHopsSig:vector  ETV
vector 2400147  Network.dyn_peer[22]  lookupStabilitySig:vector  ETV
vector 2400148  Network.dyn_peer[22]  lookupTimeSig:vector  ETV
vector 2400158  Network.dyn_peer[26]  lookupHopsSig:vector  ETV
vector 2400159  Network.dyn_peer[26]  lookupStabilitySig:vector  ETV
vector 2400160  Network.dyn_peer[26]  lookupTimeSig:vector  ETV
vector 2400218  Network.dyn_peer[46]  lookupHopsSig:vector  ETV
vector 2400219  Network.dyn_peer[46]  lookupStabilitySig:vector  ETV
vector 2400220  Network.dyn_peer[46]  lookupTimeSig:vector  ETV
vector 2400134  Network.dyn_peer[18]  lookupHopsSig:vector  ETV
vector 2400135  Network.dyn_peer[18]  lookupStabilitySig:vector  ETV
vector 2400136  Network.dyn_peer[18]  lookupTimeSig:vector  ETV
vector 2400224  Network.dyn_peer[48]  lookupHopsSig:vector  ETV
vector 2400225  Network.dyn_peer[48]  lookupStabilitySig:vector  ETV
vector 2400226  Network.dyn_peer[48]  lookupTimeSig:vector  ETV
vector 2400197  Network.dyn_peer[39]  lookupHopsSig:vector  ETV
vector 2400198  Network.dyn_peer[39]  lookupStabilitySig:vector  ETV
vector 2400199  Network.dyn_peer[39]  lookupTimeSig:vector  ETV
vector 2400143  Network.dyn_peer[21]  lookupHopsSig:vector  ETV
vector 2400144  Network.dyn_peer[21]  lookupStabilitySig:vector  ETV
vector 2400145  Network.dyn_peer[21]  lookupTimeSig:vector  ETV
vector 2400182  Network.dyn_peer[34]  lookupHopsSig:vector  ETV
vector 2400183  Network.dyn_peer[34]  lookupStabilitySig:vector  ETV
vector 2400184  Network.dyn_peer[34]  lookupTimeSig:vector  ETV
vector 2400140  Network.dyn_peer[20]  lookupHopsSig:vector  ETV
vector 2400141  Network.dyn_peer[20]  lookupStabilitySig:vector  ETV
vector 2400142  Network.dyn_peer[20]  lookupTimeSig:vector  ETV
vector 2400230  Network.dyn_peer[50]  lookupHopsSig:vector  ETV
vector 2400231  Network.dyn_peer[50]  lookupStabilitySig:vector  ETV
vector 2400232  Network.dyn_peer[50]  lookupTimeSig:vector  ETV
vector 2400236  Network.dyn_peer[52]  lookupHopsSig:vector  ETV
vector 2400237  Network.dyn_peer[52]  lookupStabilitySig:vector  ETV
vector 2400238  Network.dyn_peer[52]  lookupTimeSig:vector  ETV
vector 2400242  Network.dyn_peer[54]  lookupHopsSig:vector  ETV
vector 2400243  Network.dyn_peer[54]  lookupStabilitySig:vector  ETV
vector 2400244  Network.dyn_peer[54]  lookupTimeSig:vector  ETV
vector 2400245  Network.dyn_peer[55]  lookupHopsSig:vector  ETV
vector 2400246  Network.dyn_peer[55]  lookupStabilitySig:vector  ETV
vector 2400247  Network.dyn_peer[55]  lookupTimeSig:vector  ETV
vector 2400167  Network.dyn_peer[29]  lookupHopsSig:vector  ETV
vector 2400168  Network.dyn_peer[29]  lookupStabilitySig:vector  ETV
vector 2400169  Network.dyn_peer[29]  lookupTimeSig:vector  ETV
vector 2400086  Network.dyn_peer[2]  lookupHopsSig:vector  ETV
vector 2400087  Network.dyn_peer[2]  lookupStabilitySig:vector  ETV
vector 2400088  Network.dyn_peer[2]  lookupTimeSig:vector  ETV
vector 2400176  Network.dyn_peer[32]  lookupHopsSig:vector  ETV
vector 2400177  Network.dyn_peer[32]  lookupStabilitySig:vector  ETV
vector 2400178  Network.dyn_peer[32]  lookupTimeSig:vector  ETV
vector 2400206  Network.dyn_peer[42]  lookupHopsSig:vector  ETV
vector 2400207  Network.dyn_peer[42]  lookupStabilitySig:vector  ETV
vector 2400208  Network.dyn_peer[42]  lookupTimeSig:vector  ETV
vector 2400269  Network.dyn_peer[63]  lookupHopsSig:vector  ETV
vector 2400270  Network.dyn_peer[63]  lookupStabilitySig:vector  ETV
vector 2400271  Network.dyn_peer[63]  lookupTimeSig:vector  ETV
vector 2400248  Network.dyn_peer[56]  lookupHopsSig:vector  ETV
vector 2400249  Network.dyn_peer[56]  lookupStabilitySig:vector  ETV
vector 2400250  Network.dyn_peer[56]  lookupTimeSig:vector  ETV
vector 2400221  Network.dyn_peer[47]  lookupHopsSig:vector  ETV
vector 2400222  Network.dyn_peer[47]  lookupStabilitySig:vector  ETV
vector 2400223  Network.dyn_peer[47]  lookupTimeSig:vector  ETV
vector 2400290  Network.dyn_peer[70]  lookupHopsSig:vector  ETV
vector 2400291  Network.dyn_peer[70]  lookupStabilitySig:vector  ETV
vector 2400292  Network.dyn_peer[70]  lookupTimeSig:vector  ETV
vector 2400296  Network.dyn_peer[72]  lookupHopsSig:vector  ETV
vector 2400297  Network.dyn_peer[72]  lookupStabilitySig:vector  ETV
vector 2400298  Network.dyn_peer[72]  lookupTimeSig:vector  ETV
vector 2400326  Network.dyn_peer[82]  lookupHopsSig:vector  ETV
vector 2400327  Network.dyn_peer[82]  lookupStabilitySig:vector  ETV
vector 2400328  Network.dyn_peer[82]  lookupTimeSig:vector  ETV
vector 2400185  Network.dyn_peer[35]  lookupHopsSig:vector  ETV
vector 2400186  Network.dyn_peer[35]  lookupStabilitySig:vector  ETV
vector 2400187  Network.dyn_peer[35]  lookupTimeSig:vector  ETV
vector 2400164  Network.dyn_peer[28]  lookupHopsSig:vector  ETV
vector 2400165  Network.dyn_peer[28]  lookupStabilitySig:vector  ETV
vector 2400166  Network.dyn_peer[28]  lookupTimeSig:vector  ETV
vector 2400350  Network.dyn_peer[90]  lookupHopsSig:vector  ETV
vector 2400351  Network.dyn_peer[90]  lookupStabilitySig:vector  ETV
vector 2400352  Network.dyn_peer[90]  lookupTimeSig:vector  ETV
vector 2400179  Network.dyn_peer[33]  lookupHopsSig:vector  ETV
vector 2400180  Network.dyn_peer[33]  lookupStabilitySig:vector  ETV
vector 2400181  Network.dyn_peer[33]  lookupTimeSig:vector  ETV
vector 2400308  Network.dyn_peer[76]  lookupHopsSig:vector  ETV
vector 2400309  Network.dyn_peer[76]  lookupStabilitySig:vector  ETV
vector 2400310  Network.dyn_peer[76]  lookupTimeSig:vector  ETV
vector 2400383  Network.dyn_peer[101]  lookupHopsSig:vector  ETV
vector 2400384  Network.dyn_peer[101]  lookupStabilitySig:vector  ETV
vector 2400385  Network.dyn_peer[101]  lookupTimeSig:vector  ETV
vector 2400152  Network.dyn_peer[24]  lookupHopsSig:vector  ETV
vector 2400153  Network.dyn_peer[24]  lookupStabilitySig:vector  ETV
vector 2400154  Network.dyn_peer[24]  lookupTimeSig:vector  ETV
vector 2400212  Network.dyn_peer[44]  lookupHopsSig:vector  ETV
vector 2400213  Network.dyn_peer[44]  lookupStabilitySig:vector  ETV
vector 2400214  Network.dyn_peer[44]  lookupTimeSig:vector  ETV
vector 2400215  Network.dyn_peer[45]  lookupHopsSig:vector  ETV
vector 2400216  Network.dyn_peer[45]  lookupStabilitySig:vector  ETV
vector 2400217  Network.dyn_peer[45]  lookupTimeSig:vector  ETV
vector 2400311  Network.dyn_peer[77]  lookupHopsSig:vector  ETV
vector 2400312  Network.dyn_peer[77]  lookupStabilitySig:vector  ETV
vector 2400313  Network.dyn_peer[77]  lookupTimeSig:vector  ETV
vector 2400401  Network.dyn_peer[107]  lookupHopsSig:vector  ETV
vector 2400402  Network.dyn_peer[107]  lookupStabilitySig:vector  ETV
vector 2400403  Network.dyn_peer[107]  lookupTimeSig:vector  ETV
vector 2400320  Network.dyn_peer[80]  lookupHopsSig:vector  ETV
vector 2400321  Network.dyn_peer[80]  lookupStabilitySig:vector  ETV
vector 2400322  Network.dyn_peer[80]  lookupTimeSig:vector  ETV
vector 2400233  Network.dyn_peer[51]  lookupHopsSig:vector  ETV
vector 2400234  Network.dyn_peer[51]  lookupStabilitySig:vector  ETV
vector 2400235  Network.dyn_peer[51]  lookupTimeSig:vector  ETV
vector 2400263  Network.dyn_peer[61]  lookupHopsSig:vector  ETV
vector 2400264  Network.dyn_peer[61]  lookupStabilitySig:vector  ETV
vector 2400265  Network.dyn_peer[61]  lookupTimeSig:vector  ETV
vector 2400266  Network.dyn_peer[62]  lookupHopsSig:vector  ETV
vector 2400267  Network.dyn_peer[62]  lookupStabilitySig:vector  ETV
vector 2400268  Network.dyn_peer[62]  lookupTimeSig:vector  ETV
vector 2400395  Network.dyn_peer[105]  lookupHopsSig:vector  ETV
vector 2400396  Network.dyn_peer[105]  lookupStabilitySig:vector  ETV
vector 2400397  Network.dyn_peer[105]  lookupTimeSig:vector  ETV
vector 2400191  Network.dyn_peer[37]  lookupHopsSig:vector  ETV
vector 2400192  Network.dyn_peer[37]  lookupStabilitySig:vector  ETV
vector 2400193  Network.dyn_peer[37]  lookupTimeSig:vector  ETV
vector 2400170  Network.dyn_peer[30]  lookupHopsSig:vector  ETV
vector 2400171  Network.dyn_peer[30]  lookupStabilitySig:vector  ETV
vector 2400172  Network.dyn_peer[30]  lookupTimeSig:vector  ETV
vector 2400200  Network.dyn_peer[40]  lookupHopsSig:vector  ETV
vector 2400201  Network.dyn_peer[40]  lookupStabilitySig:vector  ETV
vector 2400202  Network.dyn_peer[40]  lookupTimeSig:vector  ETV
vector 2400260  Network.dyn_peer[60]  lookupHopsSig:vector  ETV
vector 2400261  Network.dyn_peer[60]  lookupStabilitySig:vector  ETV
vector 2400262  Network.dyn_peer[60]  lookupTimeSig:vector  ETV
vector 2400410  Network.dyn_peer[110]  lookupHopsSig:vector  ETV
vector 2400411  Network.dyn_peer[110]  lookupStabilitySig:vector  ETV
vector 2400412  Network.dyn_peer[110]  lookupTimeSig:vector  ETV
vector 2400389  Network.dyn_peer[103]  lookupHopsSig:vector  ETV
vector 2400390  Network.dyn_peer[103]  lookupStabilitySig:vector  ETV
vector 2400391  Network.dyn_peer[103]  lookupTimeSig:vector  ETV
vector 2400251  Network.dyn_peer[57]  lookupHopsSig:vector  ETV
vector 2400252  Network.dyn_peer[57]  lookupStabilitySig:vector  ETV
vector 2400253  Network.dyn_peer[57]  lookupTimeSig:vector  ETV
vector 2400344  Network.dyn_peer[88]  lookupHopsSig:vector  ETV
vector 2400345  Network.dyn_peer[88]  lookupStabilitySig:vector  ETV
vector 2400346  Network.dyn_peer[88]  lookupTimeSig:vector  ETV
vector 2400227  Network.dyn_peer[49]  lookupHopsSig:vector  ETV
vector 2400228  Network.dyn_peer[49]  lookupStabilitySig:vector  ETV
vector 2400229  Network.dyn_peer[49]  lookupTimeSig:vector  ETV
vector 2400203  Network.dyn_peer[41]  lookupHopsSig:vector  ETV
vector 2400204  Network.dyn_peer[41]  lookupStabilitySig:vector  ETV
vector 2400205  Network.dyn_peer[41]  lookupTimeSig:vector  ETV
vector 2400272  Network.dyn_peer[64]  lookupHopsSig:vector  ETV
vector 2400273  Network.dyn_peer[64]  lookupStabilitySig:vector  ETV
vector 2400274  Network.dyn_peer[64]  lookupTimeSig:vector  ETV
vector 2400431  Network.dyn_peer[117]  lookupHopsSig:vector  ETV
vector 2400432  Network.dyn_peer[117]  lookupStabilitySig:vector  ETV
vector 2400433  Network.dyn_peer[117]  lookupTimeSig:vector  ETV
vector 2400521  Network.dyn_peer[147]  lookupHopsSig:vector  ETV
vector 2400522  Network.dyn_peer[147]  lookupStabilitySig:vector  ETV
vector 2400523  Network.dyn_peer[147]  lookupTimeSig:vector  ETV
vector 2400254  Network.dyn_peer[58]  lookupHopsSig:vector  ETV
vector 2400255  Network.dyn_peer[58]  lookupStabilitySig:vector  ETV
vector 2400256  Network.dyn_peer[58]  lookupTimeSig:vector  ETV
vector 2400374  Network.dyn_peer[98]  lookupHopsSig:vector  ETV
vector 2400375  Network.dyn_peer[98]  lookupStabilitySig:vector  ETV
vector 2400376  Network.dyn_peer[98]  lookupTimeSig:vector  ETV
vector 2400287  Network.dyn_peer[69]  lookupHopsSig:vector  ETV
vector 2400288  Network.dyn_peer[69]  lookupStabilitySig:vector  ETV
vector 2400289  Network.dyn_peer[69]  lookupTimeSig:vector  ETV
vector 2400443  Network.dyn_peer[121]  lookupHopsSig:vector  ETV
vector 2400444  Network.dyn_peer[121]  lookupStabilitySig:vector  ETV
vector 2400445  Network.dyn_peer[121]  lookupTimeSig:vector  ETV
vector 2400209  Network.dyn_peer[43]  lookupHopsSig:vector  ETV
vector 2400210  Network.dyn_peer[43]  lookupStabilitySig:vector  ETV
vector 2400211  Network.dyn_peer[43]  lookupTimeSig:vector  ETV
vector 2400239  Network.dyn_peer[53]  lookupHopsSig:vector  ETV
vector 2400240  Network.dyn_peer[53]  lookupStabilitySig:vector  ETV
vector 2400241  Network.dyn_peer[53]  lookupTimeSig:vector  ETV
vector 2400392  Network.dyn_peer[104]  lookupHopsSig:vector  ETV
vector 2400393  Network.dyn_peer[104]  lookupStabilitySig:vector  ETV
vector 2400394  Network.dyn_peer[104]  lookupTimeSig:vector  ETV
vector 2400305  Network.dyn_peer[75]  lookupHopsSig:vector  ETV
vector 2400306  Network.dyn_peer[75]  lookupStabilitySig:vector  ETV
vector 2400307  Network.dyn_peer[75]  lookupTimeSig:vector  ETV
vector 2400335  Network.dyn_peer[85]  lookupHopsSig:vector  ETV
vector 2400336  Network.dyn_peer[85]  lookupStabilitySig:vector  ETV
vector 2400337  Network.dyn_peer[85]  lookupTimeSig:vector  ETV
vector 2400278  Network.dyn_peer[66]  lookupHopsSig:vector  ETV
vector 2400279  Network.dyn_peer[66]  lookupStabilitySig:vector  ETV
vector 2400280  Network.dyn_peer[66]  lookupTimeSig:vector  ETV
vector 2400398  Network.dyn_peer[106]  lookupHopsSig:vector  ETV
vector 2400399  Network.dyn_peer[106]  lookupStabilitySig:vector  ETV
vector 2400400  Network.dyn_peer[106]  lookupTimeSig:vector  ETV
vector 2400257  Network.dyn_peer[59]  lookupHopsSig:vector  ETV
vector 2400258  Network.dyn_peer[59]  lookupStabilitySig:vector  ETV
vector 2400259  Network.dyn_peer[59]  lookupTimeSig:vector  ETV
vector 2400353  Network.dyn_peer[91]  lookupHopsSig:vector  ETV
vector 2400354  Network.dyn_peer[91]  lookupStabilitySig:vector  ETV
vector 2400355  Network.dyn_peer[91]  lookupTimeSig:vector  ETV
vector 2400299  Network.dyn_peer[73]  lookupHopsSig:vector  ETV
vector 2400300  Network.dyn_peer[73]  lookupStabilitySig:vector  ETV
vector 2400301  Network.dyn_peer[73]  lookupTimeSig:vector  ETV
vector 2400479  Network.dyn_peer[133]  lookupHopsSig:vector  ETV
vector 2400480  Network.dyn_peer[133]  lookupStabilitySig:vector  ETV
vector 2400481  Network.dyn_peer[133]  lookupTimeSig:vector  ETV
vector 2400362  Network.dyn_peer[94]  lookupHopsSig:vector  ETV
vector 2400363  Network.dyn_peer[94]  lookupStabilitySig:vector  ETV
vector 2400364  Network.dyn_peer[94]  lookupTimeSig:vector  ETV
vector 2400371  Network.dyn_peer[97]  lookupHopsSig:vector  ETV
vector 2400372  Network.dyn_peer[97]  lookupStabilitySig:vector  ETV
vector 2400373  Network.dyn_peer[97]  lookupTimeSig:vector  ETV
vector 2400317  Network.dyn_peer[79]  lookupHopsSig:vector  ETV
vector 2400318  Network.dyn_peer[79]  lookupStabilitySig:vector  ETV
vector 2400319  Network.dyn_peer[79]  lookupTimeSig:vector  ETV
vector 2400437  Network.dyn_peer[119]  lookupHopsSig:vector  ETV
vector 2400438  Network.dyn_peer[119]  lookupStabilitySig:vector  ETV
vector 2400439  Network.dyn_peer[119]  lookupTimeSig:vector  ETV
vector 2400473  Network.dyn_peer[131]  lookupHopsSig:vector  ETV
vector 2400474  Network.dyn_peer[131]  lookupStabilitySig:vector  ETV
vector 2400475  Network.dyn_peer[131]  lookupTimeSig:vector  ETV
vector 2400449  Network.dyn_peer[123]  lookupHopsSig:vector  ETV
vector 2400450  Network.dyn_peer[123]  lookupStabilitySig:vector  ETV
vector 2400451  Network.dyn_peer[123]  lookupTimeSig:vector  ETV
vector 2400455  Network.dyn_peer[125]  lookupHopsSig:vector  ETV
vector 2400456  Network.dyn_peer[125]  lookupStabilitySig:vector  ETV
vector 2400457  Network.dyn_peer[125]  lookupTimeSig:vector  ETV
vector 2400341  Network.dyn_peer[87]  lookupHopsSig:vector  ETV
vector 2400342  Network.dyn_peer[87]  lookupStabilitySig:vector  ETV
vector 2400343  Network.dyn_peer[87]  lookupTimeSig:vector  ETV
vector 2400491  Network.dyn_peer[137]  lookupHopsSig:vector  ETV
vector 2400492  Network.dyn_peer[137]  lookupStabilitySig:vector  ETV
vector 2400493  Network.dyn_peer[137]  lookupTimeSig:vector  ETV
vector 2400284  Network.dyn_peer[68]  lookupHopsSig:vector  ETV
vector 2400285  Network.dyn_peer[68]  lookupStabilitySig:vector  ETV
vector 2400286  Network.dyn_peer[68]  lookupTimeSig:vector  ETV
vector 2400494  Network.dyn_peer[138]  lookupHopsSig:vector  ETV
vector 2400495  Network.dyn_peer[138]  lookupStabilitySig:vector  ETV
vector 2400496  Network.dyn_peer[138]  lookupTimeSig:vector  ETV
vector 2400554  Network.dyn_peer[158]  lookupHopsSig:vector  ETV
vector 2400555  Network.dyn_peer[158]  lookupStabilitySig:vector  ETV
vector 2400556  Network.dyn_peer[158]  lookupTimeSig:vector  ETV
vector 2400293  Network.dyn_peer[71]  lookupHopsSig:vector  ETV
vector 2400294  Network.dyn_peer[71]  lookupStabilitySig:vector  ETV
vector 2400295  Network.dyn_peer[71]  lookupTimeSig:vector  ETV
vector 2400533  Network.dyn_peer[151]  lookupHopsSig:vector  ETV
vector 2400534  Network.dyn_peer[151]  lookupStabilitySig:vector  ETV
vector 2400535  Network.dyn_peer[151]  lookupTimeSig:vector  ETV
vector 2400539  Network.dyn_peer[153]  lookupHopsSig:vector  ETV
vector 2400540  Network.dyn_peer[153]  lookupStabilitySig:vector  ETV
vector 2400541  Network.dyn_peer[153]  lookupTimeSig:vector  ETV
vector 2400281  Network.dyn_peer[67]  lookupHopsSig:vector  ETV
vector 2400282  Network.dyn_peer[67]  lookupStabilitySig:vector  ETV
vector 2400283  Network.dyn_peer[67]  lookupTimeSig:vector  ETV
vector 2400380  Network.dyn_peer[100]  lookupHopsSig:vector  ETV
vector 2400381  Network.dyn_peer[100]  lookupStabilitySig:vector  ETV
vector 2400382  Network.dyn_peer[100]  lookupTimeSig:vector  ETV
vector 2400590  Network.dyn_peer[170]  lookupHopsSig:vector  ETV
vector 2400591  Network.dyn_peer[170]  lookupStabilitySig:vector  ETV
vector 2400592  Network.dyn_peer[170]  lookupTimeSig:vector  ETV
vector 2400419  Network.dyn_peer[113]  lookupHopsSig:vector  ETV
vector 2400420  Network.dyn_peer[113]  lookupStabilitySig:vector  ETV
vector 2400421  Network.dyn_peer[113]  lookupTimeSig:vector  ETV
vector 2400509  Network.dyn_peer[143]  lookupHopsSig:vector  ETV
vector 2400510  Network.dyn_peer[143]  lookupStabilitySig:vector  ETV
vector 2400511  Network.dyn_peer[143]  lookupTimeSig:vector  ETV
vector 2400599  Network.dyn_peer[173]  lookupHopsSig:vector  ETV
vector 2400600  Network.dyn_peer[173]  lookupStabilitySig:vector  ETV
vector 2400601  Network.dyn_peer[173]  lookupTimeSig:vector  ETV
vector 2400302  Network.dyn_peer[74]  lookupHopsSig:vector  ETV
vector 2400303  Network.dyn_peer[74]  lookupStabilitySig:vector  ETV
vector 2400304  Network.dyn_peer[74]  lookupTimeSig:vector  ETV
vector 2400518  Network.dyn_peer[146]  lookupHopsSig:vector  ETV
vector 2400519  Network.dyn_peer[146]  lookupStabilitySig:vector  ETV
vector 2400520  Network.dyn_peer[146]  lookupTimeSig:vector  ETV
vector 2400461  Network.dyn_peer[127]  lookupHopsSig:vector  ETV
vector 2400462  Network.dyn_peer[127]  lookupStabilitySig:vector  ETV
vector 2400463  Network.dyn_peer[127]  lookupTimeSig:vector  ETV
vector 2400524  Network.dyn_peer[148]  lookupHopsSig:vector  ETV
vector 2400525  Network.dyn_peer[148]  lookupStabilitySig:vector  ETV
vector 2400526  Network.dyn_peer[148]  lookupTimeSig:vector  ETV
vector 2400617  Network.dyn_peer[179]  lookupHopsSig:vector  ETV
vector 2400618  Network.dyn_peer[179]  lookupStabilitySig:vector  ETV
vector 2400619  Network.dyn_peer[179]  lookupTimeSig:vector  ETV
vector 2400563  Network.dyn_peer[161]  lookupHopsSig:vector  ETV
vector 2400564  Network.dyn_peer[161]  lookupStabilitySig:vector  ETV
vector 2400565  Network.dyn_peer[161]  lookupTimeSig:vector  ETV
vector 2400329  Network.dyn_peer[83]  lookupHopsSig:vector  ETV
vector 2400330  Network.dyn_peer[83]  lookupStabilitySig:vector  ETV
vector 2400331  Network.dyn_peer[83]  lookupTimeSig:vector  ETV
vector 2400188  Network.dyn_peer[36]  lookupHopsSig:vector  ETV
vector 2400189  Network.dyn_peer[36]  lookupStabilitySig:vector  ETV
vector 2400190  Network.dyn_peer[36]  lookupTimeSig:vector  ETV
vector 2400578  Network.dyn_peer[166]  lookupHopsSig:vector  ETV
vector 2400579  Network.dyn_peer[166]  lookupStabilitySig:vector  ETV
vector 2400580  Network.dyn_peer[166]  lookupTimeSig:vector  ETV
vector 2400464  Network.dyn_peer[128]  lookupHopsSig:vector  ETV
vector 2400465  Network.dyn_peer[128]  lookupStabilitySig:vector  ETV
vector 2400466  Network.dyn_peer[128]  lookupTimeSig:vector  ETV
vector 2400644  Network.dyn_peer[188]  lookupHopsSig:vector  ETV
vector 2400645  Network.dyn_peer[188]  lookupStabilitySig:vector  ETV
vector 2400646  Network.dyn_peer[188]  lookupTimeSig:vector  ETV
vector 2400467  Network.dyn_peer[129]  lookupHopsSig:vector  ETV
vector 2400468  Network.dyn_peer[129]  lookupStabilitySig:vector  ETV
vector 2400469  Network.dyn_peer[129]  lookupTimeSig:vector  ETV
vector 2400323  Network.dyn_peer[81]  lookupHopsSig:vector  ETV
vector 2400324  Network.dyn_peer[81]  lookupStabilitySig:vector  ETV
vector 2400325  Network.dyn_peer[81]  lookupTimeSig:vector  ETV
vector 2400365  Network.dyn_peer[95]  lookupHopsSig:vector  ETV
vector 2400366  Network.dyn_peer[95]  lookupStabilitySig:vector  ETV
vector 2400367  Network.dyn_peer[95]  lookupTimeSig:vector  ETV
vector 2400404  Network.dyn_peer[108]  lookupHopsSig:vector  ETV
vector 2400405  Network.dyn_peer[108]  lookupStabilitySig:vector  ETV
vector 2400406  Network.dyn_peer[108]  lookupTimeSig:vector  ETV
vector 2400527  Network.dyn_peer[149]  lookupHopsSig:vector  ETV
vector 2400528  Network.dyn_peer[149]  lookupStabilitySig:vector  ETV
vector 2400529  Network.dyn_peer[149]  lookupTimeSig:vector  ETV
vector 2400650  Network.dyn_peer[190]  lookupHopsSig:vector  ETV
vector 2400651  Network.dyn_peer[190]  lookupStabilitySig:vector  ETV
vector 2400652  Network.dyn_peer[190]  lookupTimeSig:vector  ETV
vector 2400602  Network.dyn_peer[174]  lookupHopsSig:vector  ETV
vector 2400603  Network.dyn_peer[174]  lookupStabilitySig:vector  ETV
vector 2400604  Network.dyn_peer[174]  lookupTimeSig:vector  ETV
vector 2400488  Network.dyn_peer[136]  lookupHopsSig:vector  ETV
vector 2400489  Network.dyn_peer[136]  lookupStabilitySig:vector  ETV
vector 2400490  Network.dyn_peer[136]  lookupTimeSig:vector  ETV
vector 2400416  Network.dyn_peer[112]  lookupHopsSig:vector  ETV
vector 2400417  Network.dyn_peer[112]  lookupStabilitySig:vector  ETV
vector 2400418  Network.dyn_peer[112]  lookupTimeSig:vector  ETV
vector 2400596  Network.dyn_peer[172]  lookupHopsSig:vector  ETV
vector 2400597  Network.dyn_peer[172]  lookupStabilitySig:vector  ETV
vector 2400598  Network.dyn_peer[172]  lookupTimeSig:vector  ETV
vector 2400656  Network.dyn_peer[192]  lookupHopsSig:vector  ETV
vector 2400657  Network.dyn_peer[192]  lookupStabilitySig:vector  ETV
vector 2400658  Network.dyn_peer[192]  lookupTimeSig:vector  ETV
vector 2400635  Network.dyn_peer[185]  lookupHopsSig:vector  ETV
vector 2400636  Network.dyn_peer[185]  lookupStabilitySig:vector  ETV
vector 2400637  Network.dyn_peer[185]  lookupTimeSig:vector  ETV
vector 2400674  Network.dyn_peer[198]  lookupHopsSig:vector  ETV
vector 2400675  Network.dyn_peer[198]  lookupStabilitySig:vector  ETV
vector 2400676  Network.dyn_peer[198]  lookupTimeSig:vector  ETV
vector 2400407  Network.dyn_peer[109]  lookupHopsSig:vector  ETV
vector 2400408  Network.dyn_peer[109]  lookupStabilitySig:vector  ETV
vector 2400409  Network.dyn_peer[109]  lookupTimeSig:vector  ETV
vector 2400647  Network.dyn_peer[189]  lookupHopsSig:vector  ETV
vector 2400648  Network.dyn_peer[189]  lookupStabilitySig:vector  ETV
vector 2400649  Network.dyn_peer[189]  lookupTimeSig:vector  ETV
vector 2400413  Network.dyn_peer[111]  lookupHopsSig:vector  ETV
vector 2400414  Network.dyn_peer[111]  lookupStabilitySig:vector  ETV
vector 2400415  Network.dyn_peer[111]  lookupTimeSig:vector  ETV
vector 2400536  Network.dyn_peer[152]  lookupHopsSig:vector  ETV
vector 2400537  Network.dyn_peer[152]  lookupStabilitySig:vector  ETV
vector 2400538  Network.dyn_peer[152]  lookupTimeSig:vector  ETV
vector 2400359  Network.dyn_peer[93]  lookupHopsSig:vector  ETV
vector 2400360  Network.dyn_peer[93]  lookupStabilitySig:vector  ETV
vector 2400361  Network.dyn_peer[93]  lookupTimeSig:vector  ETV
vector 2400569  Network.dyn_peer[163]  lookupHopsSig:vector  ETV
vector 2400570  Network.dyn_peer[163]  lookupStabilitySig:vector  ETV
vector 2400571  Network.dyn_peer[163]  lookupTimeSig:vector  ETV
vector 2400629  Network.dyn_peer[183]  lookupHopsSig:vector  ETV
vector 2400630  Network.dyn_peer[183]  lookupStabilitySig:vector  ETV
vector 2400631  Network.dyn_peer[183]  lookupTimeSig:vector  ETV
vector 2400659  Network.dyn_peer[193]  lookupHopsSig:vector  ETV
vector 2400660  Network.dyn_peer[193]  lookupStabilitySig:vector  ETV
vector 2400661  Network.dyn_peer[193]  lookupTimeSig:vector  ETV
vector 2400275  Network.dyn_peer[65]  lookupHopsSig:vector  ETV
vector 2400276  Network.dyn_peer[65]  lookupStabilitySig:vector  ETV
vector 2400277  Network.dyn_peer[65]  lookupTimeSig:vector  ETV
vector 2400545  Network.dyn_peer[155]  lookupHopsSig:vector  ETV
vector 2400546  Network.dyn_peer[155]  lookupStabilitySig:vector  ETV
vector 2400547  Network.dyn_peer[155]  lookupTimeSig:vector  ETV
vector 2400338  Network.dyn_peer[86]  lookupHopsSig:vector  ETV
vector 2400339  Network.dyn_peer[86]  lookupStabilitySig:vector  ETV
vector 2400340  Network.dyn_peer[86]  lookupTimeSig:vector  ETV
vector 2400548  Network.dyn_peer[156]  lookupHopsSig:vector  ETV
vector 2400549  Network.dyn_peer[156]  lookupStabilitySig:vector  ETV
vector 2400550  Network.dyn_peer[156]  lookupTimeSig:vector  ETV
vector 2400638  Network.dyn_peer[186]  lookupHopsSig:vector  ETV
vector 2400639  Network.dyn_peer[186]  lookupStabilitySig:vector  ETV
vector 2400640  Network.dyn_peer[186]  lookupTimeSig:vector  ETV
vector 2400497  Network.dyn_peer[139]  lookupHopsSig:vector  ETV
vector 2400498  Network.dyn_peer[139]  lookupStabilitySig:vector  ETV
vector 2400499  Network.dyn_peer[139]  lookupTimeSig:vector  ETV
vector 2400587  Network.dyn_peer[169]  lookupHopsSig:vector  ETV
vector 2400588  Network.dyn_peer[169]  lookupStabilitySig:vector  ETV
vector 2400589  Network.dyn_peer[169]  lookupTimeSig:vector  ETV
vector 2400707  Network.dyn_peer[209]  lookupHopsSig:vector  ETV
vector 2400708  Network.dyn_peer[209]  lookupStabilitySig:vector  ETV