version 2
run Stability2-10-20130528-01:22:31-24168
attr configname Stability2
attr datetime 20130528-01:22:31
attr experiment Stability2
attr inifile omnetpp.ini
attr iterationvars $0=20
attr iterationvars2 "$0=20, $repetition=0"
attr measurement $0=20
attr network Network
attr processid 24168
attr repetition 0
attr replication #0
attr resultdir results
attr runnumber 10
attr seedset 10

vector 330010  Network.churner  inGoingSizeSig:vector  ETV
vector 300022  Network.dyn_peer[4]  lookupHopsSig:vector  ETV
vector 300023  Network.dyn_peer[4]  lookupStabilitySig:vector  ETV
vector 300024  Network.dyn_peer[4]  lookupTimeSig:vector  ETV
vector 300031  Network.dyn_peer[7]  lookupHopsSig:vector  ETV
vector 300032  Network.dyn_peer[7]  lookupStabilitySig:vector  ETV
vector 300033  Network.dyn_peer[7]  lookupTimeSig:vector  ETV
vector 300010  Network.dyn_peer[0]  lookupHopsSig:vector  ETV
vector 300011  Network.dyn_peer[0]  lookupStabilitySig:vector  ETV
vector 300012  Network.dyn_peer[0]  lookupTimeSig:vector  ETV
vector 300040  Network.dyn_peer[10]  lookupHopsSig:vector  ETV
vector 300041  Network.dyn_peer[10]  lookupStabilitySig:vector  ETV
vector 300042  Network.dyn_peer[10]  lookupTimeSig:vector  ETV
vector 300016  Network.dyn_peer[2]  lookupHopsSig:vector  ETV
vector 300017  Network.dyn_peer[2]  lookupStabilitySig:vector  ETV
vector 300018  Network.dyn_peer[2]  lookupTimeSig:vector  ETV
vector 300046  Network.dyn_peer[12]  lookupHopsSig:vector  ETV
vector 300047  Network.dyn_peer[12]  lookupStabilitySig:vector  ETV
vector 300048  Network.dyn_peer[12]  lookupTimeSig:vector  ETV
vector 300025  Network.dyn_peer[5]  lookupHopsSig:vector  ETV
vector 300026  Network.dyn_peer[5]  lookupStabilitySig:vector  ETV
vector 300027  Network.dyn_peer[5]  lookupTimeSig:vector  ETV
vector 300037  Network.dyn_peer[9]  lookupHopsSig:vector  ETV
vector 300038  Network.dyn_peer[9]  lookupStabilitySig:vector  ETV
vector 300039  Network.dyn_peer[9]  lookupTimeSig:vector  ETV
vector 300013  Network.dyn_peer[1]  lookupHopsSig:vector  ETV
vector 300014  Network.dyn_peer[1]  lookupStabilitySig:vector  ETV
vector 300015  Network.dyn_peer[1]  lookupTimeSig:vector  ETV
vector 300019  Network.dyn_peer[3]  lookupHopsSig:vector  ETV
vector 300020  Network.dyn_peer[3]  lookupStabilitySig:vector  ETV
vector 300021  Network.dyn_peer[3]  lookupTimeSig:vector  ETV
vector 300028  Network.dyn_peer[6]  lookupHopsSig:vector  ETV
vector 300029  Network.dyn_peer[6]  lookupStabilitySig:vector  ETV
vector 300030  Network.dyn_peer[6]  lookupTimeSig:vector  ETV
vector 300094  Network.dyn_peer[28]  lookupHopsSig:vector  ETV
vector 300095  Network.dyn_peer[28]  lookupStabilitySig:vector  ETV
vector 300096  Network.dyn_peer[28]  lookupTimeSig:vector  ETV
vector 300067  Network.dyn_peer[19]  lookupHopsSig:vector  ETV
vector 300068  Network.dyn_peer[19]  lookupStabilitySig:vector  ETV
vector 300069  Network.dyn_peer[19]  lookupTimeSig:vector  ETV
vector 300043  Network.dyn_peer[11]  lookupHopsSig:vector  ETV
vector 300044  Network.dyn_peer[11]  lookupStabilitySig:vector  ETV
vector 300045  Network.dyn_peer[11]  lookupTimeSig:vector  ETV
vector 300049  Network.dyn_peer[13]  lookupHopsSig:vector  ETV
vector 300050  Network.dyn_peer[13]  lookupStabilitySig:vector  ETV
vector 300051  Network.dyn_peer[13]  lookupTimeSig:vector  ETV
vector 300052  Network.dyn_peer[14]  lookupHopsSig:vector  ETV
vector 300053  Network.dyn_peer[14]  lookupStabilitySig:vector  ETV
vector 300054  Network.dyn_peer[14]  lookupTimeSig:vector  ETV
vector 300085  Network.dyn_peer[25]  lookupHopsSig:vector  ETV
vector 300086  Network.dyn_peer[25]  lookupStabilitySig:vector  ETV
vector 300087  Network.dyn_peer[25]  lookupTimeSig:vector  ETV
vector 300061  Network.dyn_peer[17]  lookupHopsSig:vector  ETV
vector 300062  Network.dyn_peer[17]  lookupStabilitySig:vector  ETV
vector 300063  Network.dyn_peer[17]  lookupTimeSig:vector  ETV
vector 300034  Network.dyn_peer[8]  lookupHopsSig:vector  ETV
vector 300035  Network.dyn_peer[8]  lookupStabilitySig:vector  ETV
vector 300036  Network.dyn_peer[8]  lookupTimeSig:vector  ETV
vector 300142  Network.dyn_peer[44]  lookupHopsSig:vector  ETV
vector 300143  Network.dyn_peer[44]  lookupStabilitySig:vector  ETV
vector 300144  Network.dyn_peer[44]  lookupTimeSig:vector  ETV
vector 300115  Network.dyn_peer[35]  lookupHopsSig:vector  ETV
vector 300116  Network.dyn_peer[35]  lookupStabilitySig:vector  ETV
vector 300117  Network.dyn_peer[35]  lookupTimeSig:vector  ETV
vector 300091  Network.dyn_peer[27]  lookupHopsSig:vector  ETV
vector 300092  Network.dyn_peer[27]  lookupStabilitySig:vector  ETV
vector 300093  Network.dyn_peer[27]  lookupTimeSig:vector  ETV
vector 300097  Network.dyn_peer[29]  lookupHopsSig:vector  ETV
vector 300098  Network.dyn_peer[29]  lookupStabilitySig:vector  ETV
vector 300099  Network.dyn_peer[29]  lookupTimeSig:vector  ETV
vector 300100  Network.dyn_peer[30]  lookupHopsSig:vector  ETV
vector 300101  Network.dyn_peer[30]  lookupStabilitySig:vector  ETV
vector 300102  Network.dyn_peer[30]  lookupTimeSig:vector  ETV
vector 300130  Network.dyn_peer[40]  lookupHopsSig:vector  ETV
vector 300131  Network.dyn_peer[40]  lookupStabilitySig:vector  ETV
vector 300132  Network.dyn_peer[40]  lookupTimeSig:vector  ETV
vector 300073  Network.dyn_peer[21]  lookupHopsSig:vector  ETV
vector 300074  Network.dyn_peer[21]  lookupStabilitySig:vector  ETV
vector 300075  Network.dyn_peer[21]  lookupTimeSig:vector  ETV
vector 300079  Network.dyn_peer[23]  lookupHopsSig:vector  ETV
vector 300080  Network.dyn_peer[23]  lookupStabilitySig:vector  ETV
vector 300081  Network.dyn_peer[23]  lookupTimeSig:vector  ETV
vector 300133  Network.dyn_peer[41]  lookupHopsSig:vector  ETV
vector 300134  Network.dyn_peer[41]  lookupStabilitySig:vector  ETV
vector 300135  Network.dyn_peer[41]  lookupTimeSig:vector  ETV
vector 300109  Network.dyn_peer[33]  lookupHopsSig:vector  ETV
vector 300110  Network.dyn_peer[33]  lookupStabilitySig:vector  ETV
vector 300111  Network.dyn_peer[33]  lookupTimeSig:vector  ETV
vector 300058  Network.dyn_peer[16]  lookupHopsSig:vector  ETV
vector 300059  Network.dyn_peer[16]  lookupStabilitySig:vector  ETV
vector 300060  Network.dyn_peer[16]  lookupTimeSig:vector  ETV
vector 300118  Network.dyn_peer[36]  lookupHopsSig:vector  ETV
vector 300119  Network.dyn_peer[36]  lookupStabilitySig:vector  ETV
vector 300120  Network.dyn_peer[36]  lookupTimeSig:vector  ETV
vector 300064  Network.dyn_peer[18]  lookupHopsSig:vector  ETV
vector 300065  Network.dyn_peer[18]  lookupStabilitySig:vector  ETV
vector 300066  Network.dyn_peer[18]  lookupTimeSig:vector  ETV
vector 300136  Network.dyn_peer[42]  lookupHopsSig:vector  ETV
vector 300137  Network.dyn_peer[42]  lookupStabilitySig:vector  ETV
vector 300138  Network.dyn_peer[42]  lookupTimeSig:vector  ETV
vector 300205  Network.dyn_peer[65]  lookupHopsSig:vector  ETV
vector 300206  Network.dyn_peer[65]  lookupStabilitySig:vector  ETV
vector 300207  Network.dyn_peer[65]  lookupTimeSig:vector  ETV
vector 300121  Network.dyn_peer[37]  lookupHopsSig:vector  ETV
vector 300122  Network.dyn_peer[37]  lookupStabilitySig:vector  ETV
vector 300123  Network.dyn_peer[37]  lookupTimeSig:vector  ETV
vector 300226  Network.dyn_peer[72]  lookupHopsSig:vector  ETV
vector 300227  Network.dyn_peer[72]  lookupStabilitySig:vector  ETV
vector 300228  Network.dyn_peer[72]  lookupTimeSig:vector  ETV
vector 300139  Network.dyn_peer[43]  lookupHopsSig:vector  ETV
vector 300140  Network.dyn_peer[43]  lookupStabilitySig:vector  ETV
vector 300141  Network.dyn_peer[43]  lookupTimeSig:vector  ETV
vector 300235  Network.dyn_peer[75]  lookupHopsSig:vector  ETV
vector 300236  Network.dyn_peer[75]  lookupStabilitySig:vector  ETV
vector 300237  Network.dyn_peer[75]  lookupTimeSig:vector  ETV
vector 300088  Network.dyn_peer[26]  lookupHopsSig:vector  ETV
vector 300089  Network.dyn_peer[26]  lookupStabilitySig:vector  ETV
vector 300090  Network.dyn_peer[26]  lookupTimeSig:vector  ETV
vector 300082  Network.dyn_peer[24]  lookupHopsSig:vector  ETV
vector 300083  Network.dyn_peer[24]  lookupStabilitySig:vector  ETV
vector 300084  Network.dyn_peer[24]  lookupTimeSig:vector  ETV
vector 300112  Network.dyn_peer[34]  lookupHopsSig:vector  ETV
vector 300113  Network.dyn_peer[34]  lookupStabilitySig:vector  ETV
vector 300114  Network.dyn_peer[34]  lookupTimeSig:vector  ETV
vector 300055  Network.dyn_peer[15]  lookupHopsSig:vector  ETV
vector 300056  Network.dyn_peer[15]  lookupStabilitySig:vector  ETV
vector 300057  Network.dyn_peer[15]  lookupTimeSig:vector  ETV
vector 300127  Network.dyn_peer[39]  lookupHopsSig:vector  ETV
vector 300128  Network.dyn_peer[39]  lookupStabilitySig:vector  ETV
vector 300129  Network.dyn_peer[39]  lookupTimeSig:vector  ETV
vector 300157  Network.dyn_peer[49]  lookupHopsSig:vector  ETV
vector 300158  Network.dyn_peer[49]  lookupStabilitySig:vector  ETV
vector 300159  Network.dyn_peer[49]  lookupTimeSig:vector  ETV
vector 300277  Network.dyn_peer[89]  lookupHopsSig:vector  ETV
vector 300278  Network.dyn_peer[89]  lookupStabilitySig:vector  ETV
vector 300279  Network.dyn_peer[89]  lookupTimeSig:vector  ETV
vector 300070  Network.dyn_peer[20]  lookupHopsSig:vector  ETV
vector 300071  Network.dyn_peer[20]  lookupStabilitySig:vector  ETV
vector 300072  Network.dyn_peer[20]  lookupTimeSig:vector  ETV
vector 300106  Network.dyn_peer[32]  lookupHopsSig:vector  ETV
vector 300107  Network.dyn_peer[32]  lookupStabilitySig:vector  ETV
vector 300108  Network.dyn_peer[32]  lookupTimeSig:vector  ETV
vector 300175  Network.dyn_peer[55]  lookupHopsSig:vector  ETV
vector 300176  Network.dyn_peer[55]  lookupStabilitySig:vector  ETV
vector 300177  Network.dyn_peer[55]  lookupTimeSig:vector  ETV
vector 300148  Network.dyn_peer[46]  lookupHopsSig:vector  ETV
vector 300149  Network.dyn_peer[46]  lookupStabilitySig:vector  ETV
vector 300150  Network.dyn_peer[46]  lookupTimeSig:vector  ETV
vector 300124  Network.dyn_peer[38]  lookupHopsSig:vector  ETV
vector 300125  Network.dyn_peer[38]  lookupStabilitySig:vector  ETV
vector 300126  Network.dyn_peer[38]  lookupTimeSig:vector  ETV
vector 300307  Network.dyn_peer[99]  lookupHopsSig:vector  ETV
vector 300308  Network.dyn_peer[99]  lookupStabilitySig:vector  ETV
vector 300309  Network.dyn_peer[99]  lookupTimeSig:vector  ETV
vector 300160  Network.dyn_peer[50]  lookupHopsSig:vector  ETV
vector 300161  Network.dyn_peer[50]  lookupStabilitySig:vector  ETV
vector 300162  Network.dyn_peer[50]  lookupTimeSig:vector  ETV
vector 300223  Network.dyn_peer[71]  lookupHopsSig:vector  ETV
vector 300224  Network.dyn_peer[71]  lookupStabilitySig:vector  ETV
vector 300225  Network.dyn_peer[71]  lookupTimeSig:vector  ETV
vector 300283  Network.dyn_peer[91]  lookupHopsSig:vector  ETV
vector 300284  Network.dyn_peer[91]  lookupStabilitySig:vector  ETV
vector 300285  Network.dyn_peer[91]  lookupTimeSig:vector  ETV
vector 300286  Network.dyn_peer[92]  lookupHopsSig:vector  ETV
vector 300287  Network.dyn_peer[92]  lookupStabilitySig:vector  ETV
vector 300288  Network.dyn_peer[92]  lookupTimeSig:vector  ETV
vector 300328  Network.dyn_peer[106]  lookupHopsSig:vector  ETV
vector 300329  Network.dyn_peer[106]  lookupStabilitySig:vector  ETV
vector 300330  Network.dyn_peer[106]  lookupTimeSig:vector  ETV
vector 300154  Network.dyn_peer[48]  lookupHopsSig:vector  ETV
vector 300155  Network.dyn_peer[48]  lookupStabilitySig:vector  ETV
vector 300156  Network.dyn_peer[48]  lookupTimeSig:vector  ETV
vector 300304  Network.dyn_peer[98]  lookupHopsSig:vector  ETV
vector 300305  Network.dyn_peer[98]  lookupStabilitySig:vector  ETV
vector 300306  Network.dyn_peer[98]  lookupTimeSig:vector  ETV
vector 300187  Network.dyn_peer[59]  lookupHopsSig:vector  ETV
vector 300188  Network.dyn_peer[59]  lookupStabilitySig:vector  ETV
vector 300189  Network.dyn_peer[59]  lookupTimeSig:vector  ETV
vector 300220  Network.dyn_peer[70]  lookupHopsSig:vector  ETV
vector 300221  Network.dyn_peer[70]  lookupStabilitySig:vector  ETV
vector 300222  Network.dyn_peer[70]  lookupTimeSig:vector  ETV
vector 300229  Network.dyn_peer[73]  lookupHopsSig:vector  ETV
vector 300230  Network.dyn_peer[73]  lookupStabilitySig:vector  ETV
vector 300231  Network.dyn_peer[73]  lookupTimeSig:vector  ETV
vector 300262  Network.dyn_peer[84]  lookupHopsSig:vector  ETV
vector 300263  Network.dyn_peer[84]  lookupStabilitySig:vector  ETV
vector 300264  Network.dyn_peer[84]  lookupTimeSig:vector  ETV
vector 300295  Network.dyn_peer[95]  lookupHopsSig:vector  ETV
vector 300296  Network.dyn_peer[95]  lookupStabilitySig:vector  ETV
vector 300297  Network.dyn_peer[95]  lookupTimeSig:vector  ETV
vector 300178  Network.dyn_peer[56]  lookupHopsSig:vector  ETV
vector 300179  Network.dyn_peer[56]  lookupStabilitySig:vector  ETV
vector 300180  Network.dyn_peer[56]  lookupTimeSig:vector  ETV
vector 300208  Network.dyn_peer[66]  lookupHopsSig:vector  ETV
vector 300209  Network.dyn_peer[66]  lookupStabilitySig:vector  ETV
vector 300210  Network.dyn_peer[66]  lookupTimeSig:vector  ETV
vector 300334  Network.dyn_peer[108]  lookupHopsSig:vector  ETV
vector 300335  Network.dyn_peer[108]  lookupStabilitySig:vector  ETV
vector 300336  Network.dyn_peer[108]  lookupTimeSig:vector  ETV
vector 300247  Network.dyn_peer[79]  lookupHopsSig:vector  ETV
vector 300248  Network.dyn_peer[79]  lookupStabilitySig:vector  ETV
vector 300249  Network.dyn_peer[79]  lookupTimeSig:vector  ETV
vector 300163  Network.dyn_peer[51]  lookupHopsSig:vector  ETV
vector 300164  Network.dyn_peer[51]  lookupStabilitySig:vector  ETV
vector 300165  Network.dyn_peer[51]  lookupTimeSig:vector  ETV
vector 300253  Network.dyn_peer[81]  lookupHopsSig:vector  ETV
vector 300254  Network.dyn_peer[81]  lookupStabilitySig:vector  ETV
vector 300255  Network.dyn_peer[81]  lookupTimeSig:vector  ETV
vector 300076  Network.dyn_peer[22]  lookupHopsSig:vector  ETV
vector 300077  Network.dyn_peer[22]  lookupStabilitySig:vector  ETV
vector 300078  Network.dyn_peer[22]  lookupTimeSig:vector  ETV
vector 300166  Network.dyn_peer[52]  lookupHopsSig:vector  ETV
vector 300167  Network.dyn_peer[52]  lookupStabilitySig:vector  ETV
vector 300168  Network.dyn_peer[52]  lookupTimeSig:vector  ETV
vector 300289  Network.dyn_peer[93]  lookupHopsSig:vector  ETV
vector 300290  Network.dyn_peer[93]  lookupStabilitySig:vector  ETV
vector 300291  Network.dyn_peer[93]  lookupTimeSig:vector  ETV
vector 300319  Network.dyn_peer[103]  lookupHopsSig:vector  ETV
vector 300320  Network.dyn_peer[103]  lookupStabilitySig:vector  ETV
vector 300321  Network.dyn_peer[103]  lookupTimeSig:vector  ETV
vector 300322  Network.dyn_peer[104]  lookupHopsSig:vector  ETV
vector 300323  Network.dyn_peer[104]  lookupStabilitySig:vector  ETV
vector 300324  Network.dyn_peer[104]  lookupTimeSig:vector  ETV
vector 300358  Network.dyn_peer[116]  lookupHopsSig:vector  ETV
vector 300359  Network.dyn_peer[116]  lookupStabilitySig:vector  ETV
vector 300360  Network.dyn_peer[116]  lookupTimeSig:vector  ETV
vector 300388  Network.dyn_peer[126]  lookupHopsSig:vector  ETV
vector 300389  Network.dyn_peer[126]  lookupStabilitySig:vector  ETV
vector 300390  Network.dyn_peer[126]  lookupTimeSig:vector  ETV
vector 300211  Network.dyn_peer[67]  lookupHopsSig:vector  ETV
vector 300212  Network.dyn_peer[67]  lookupStabilitySig:vector  ETV
vector 300213  Network.dyn_peer[67]  lookupTimeSig:vector  ETV
vector 300301  Network.dyn_peer[97]  lookupHopsSig:vector  ETV
vector 300302  Network.dyn_peer[97]  lookupStabilitySig:vector  ETV
vector 300303  Network.dyn_peer[97]  lookupTimeSig:vector  ETV
vector 300331  Network.dyn_peer[107]  lookupHopsSig:vector  ETV
vector 300332  Network.dyn_peer[107]  lookupStabilitySig:vector  ETV
vector 300333  Network.dyn_peer[107]  lookupTimeSig:vector  ETV
vector 300274  Network.dyn_peer[88]  lookupHopsSig:vector  ETV
vector 300275  Network.dyn_peer[88]  lookupStabilitySig:vector  ETV
vector 300276  Network.dyn_peer[88]  lookupTimeSig:vector  ETV
vector 300199  Network.dyn_peer[63]  lookupHopsSig:vector  ETV
vector 300200  Network.dyn_peer[63]  lookupStabilitySig:vector  ETV
vector 300201  Network.dyn_peer[63]  lookupTimeSig:vector  ETV
vector 300379  Network.dyn_peer[123]  lookupHopsSig:vector  ETV
vector 300380  Network.dyn_peer[123]  lookupStabilitySig:vector  ETV
vector 300381  Network.dyn_peer[123]  lookupTimeSig:vector  ETV
vector 300409  Network.dyn_peer[133]  lookupHopsSig:vector  ETV
vector 300410  Network.dyn_peer[133]  lookupStabilitySig:vector  ETV
vector 300411  Network.dyn_peer[133]  lookupTimeSig:vector  ETV
vector 300424  Network.dyn_peer[138]  lookupHopsSig:vector  ETV
vector 300425  Network.dyn_peer[138]  lookupStabilitySig:vector  ETV
vector 300426  Network.dyn_peer[138]  lookupTimeSig:vector  ETV
vector 300217  Network.dyn_peer[69]  lookupHopsSig:vector  ETV
vector 300218  Network.dyn_peer[69]  lookupStabilitySig:vector  ETV
vector 300219  Network.dyn_peer[69]  lookupTimeSig:vector  ETV
vector 300343  Network.dyn_peer[111]  lookupHopsSig:vector  ETV
vector 300344  Network.dyn_peer[111]  lookupStabilitySig:vector  ETV
vector 300345  Network.dyn_peer[111]  lookupTimeSig:vector  ETV
vector 300196  Network.dyn_peer[62]  lookupHopsSig:vector  ETV
vector 300197  Network.dyn_peer[62]  lookupStabilitySig:vector  ETV
vector 300198  Network.dyn_peer[62]  lookupTimeSig:vector  ETV
vector 300172  Network.dyn_peer[54]  lookupHopsSig:vector  ETV
vector 300173  Network.dyn_peer[54]  lookupStabilitySig:vector  ETV
vector 300174  Network.dyn_peer[54]  lookupTimeSig:vector  ETV
vector 300202  Network.dyn_peer[64]  lookupHopsSig:vector  ETV
vector 300203  Network.dyn_peer[64]  lookupStabilitySig:vector  ETV
vector 300204  Network.dyn_peer[64]  lookupTimeSig:vector  ETV
vector 300238  Network.dyn_peer[76]  lookupHopsSig:vector  ETV
vector 300239  Network.dyn_peer[76]  lookupStabilitySig:vector  ETV
vector 300240  Network.dyn_peer[76]  lookupTimeSig:vector  ETV
vector 300241  Network.dyn_peer[77]  lookupHopsSig:vector  ETV
vector 300242  Network.dyn_peer[77]  lookupStabilitySig:vector  ETV
vector 300243  Network.dyn_peer[77]  lookupTimeSig:vector  ETV
vector 300364  Network.dyn_peer[118]  lookupHopsSig:vector  ETV
vector 300365  Network.dyn_peer[118]  lookupStabilitySig:vector  ETV
vector 300366  Network.dyn_peer[118]  lookupTimeSig:vector  ETV
vector 300190  Network.dyn_peer[60]  lookupHopsSig:vector  ETV
vector 300191  Network.dyn_peer[60]  lookupStabilitySig:vector  ETV
vector 300192  Network.dyn_peer[60]  lookupTimeSig:vector  ETV
vector 300310  Network.dyn_peer[100]  lookupHopsSig:vector  ETV
vector 300311  Network.dyn_peer[100]  lookupStabilitySig:vector  ETV
vector 300312  Network.dyn_peer[100]  lookupTimeSig:vector  ETV
vector 300460  Network.dyn_peer[150]  lookupHopsSig:vector  ETV
vector 300461  Network.dyn_peer[150]  lookupStabilitySig:vector  ETV
vector 300462  Network.dyn_peer[150]  lookupTimeSig:vector  ETV
vector 300313  Network.dyn_peer[101]  lookupHopsSig:vector  ETV
vector 300314  Network.dyn_peer[101]  lookupStabilitySig:vector  ETV
vector 300315  Network.dyn_peer[101]  lookupTimeSig:vector  ETV
vector 300268  Network.dyn_peer[86]  lookupHopsSig:vector  ETV
vector 300269  Network.dyn_peer[86]  lookupStabilitySig:vector  ETV
vector 300270  Network.dyn_peer[86]  lookupTimeSig:vector  ETV
vector 300370  Network.dyn_peer[120]  lookupHopsSig:vector  ETV
vector 300371  Network.dyn_peer[120]  lookupStabilitySig:vector  ETV
vector 300372  Network.dyn_peer[120]  lookupTimeSig:vector  ETV
vector 300352  Network.dyn_peer[114]  lookupHopsSig:vector  ETV
vector 300353  Network.dyn_peer[114]  lookupStabilitySig:vector  ETV
vector 300354  Network.dyn_peer[114]  lookupTimeSig:vector  ETV
vector 300415  Network.dyn_peer[135]  lookupHopsSig:vector  ETV
vector 300416  Network.dyn_peer[135]  lookupStabilitySig:vector  ETV
vector 300417  Network.dyn_peer[135]  lookupTimeSig:vector  ETV
vector 300505  Network.dyn_peer[165]  lookupHopsSig:vector  ETV
vector 300506  Network.dyn_peer[165]  lookupStabilitySig:vector  ETV
vector 300507  Network.dyn_peer[165]  lookupTimeSig:vector  ETV
vector 300298  Network.dyn_peer[96]  lookupHopsSig:vector  ETV
vector 300299  Network.dyn_peer[96]  lookupStabilitySig:vector  ETV
vector 300300  Network.dyn_peer[96]  lookupTimeSig:vector  ETV
vector 300448  Network.dyn_peer[146]  lookupHopsSig:vector  ETV
vector 300449  Network.dyn_peer[146]  lookupStabilitySig:vector  ETV
vector 300450  Network.dyn_peer[146]  lookupTimeSig:vector  ETV
vector 300337  Network.dyn_peer[109]  lookupHopsSig:vector  ETV
vector 300338  Network.dyn_peer[109]  lookupStabilitySig:vector  ETV
vector 300339  Network.dyn_peer[109]  lookupTimeSig:vector  ETV
vector 300367  Network.dyn_peer[119]  lookupHopsSig:vector  ETV
vector 300368  Network.dyn_peer[119]  lookupStabilitySig:vector  ETV
vector 300369  Network.dyn_peer[119]  lookupTimeSig:vector  ETV
vector 300427  Network.dyn_peer[139]  lookupHopsSig:vector  ETV
vector 300428  Network.dyn_peer[139]  lookupStabilitySig:vector  ETV
vector 300429  Network.dyn_peer[139]  lookupTimeSig:vector  ETV
vector 300250  Network.dyn_peer[80]  lookupHopsSig:vector  ETV
vector 300251  Network.dyn_peer[80]  lookupStabilitySig:vector  ETV
vector 300252  Network.dyn_peer[80]  lookupTimeSig:vector  ETV
vector 300103  Network.dyn_peer[31]  lookupHopsSig:vector  ETV
vector 300104  Network.dyn_peer[31]  lookupStabilitySig:vector  ETV
vector 300105  Network.dyn_peer[31]  lookupTimeSig:vector  ETV
vector 300463  Network.dyn_peer[151]  lookupHopsSig:vector  ETV
vector 300464  Network.dyn_peer[151]  lookupStabilitySig:vector  ETV
vector 300465  Network.dyn_peer[151]  lookupTimeSig:vector  ETV
vector 300499  Network.dyn_peer[163]  lookupHopsSig:vector  ETV
vector 300500  Network.dyn_peer[163]  lookupStabilitySig:vector  ETV
vector 300501  Network.dyn_peer[163]  lookupTimeSig:vector  ETV
vector 300412  Network.dyn_peer[134]  lookupHopsSig:vector  ETV
vector 300413  Network.dyn_peer[134]  lookupStabilitySig:vector  ETV
vector 300414  Network.dyn_peer[134]  lookupTimeSig:vector  ETV
vector 300478  Network.dyn_peer[156]  lookupHopsSig:vector  ETV
vector 300479  Network.dyn_peer[156]  lookupStabilitySig:vector  ETV
vector 300480  Network.dyn_peer[156]  lookupTimeSig:vector  ETV
vector 300451  Network.dyn_peer[147]  lookupHopsSig:vector  ETV
vector 300452  Network.dyn_peer[147]  lookupStabilitySig:vector  ETV
vector 300453  Network.dyn_peer[147]  lookupTimeSig:vector  ETV
vector 300340  Network.dyn_peer[110]  lookupHopsSig:vector  ETV
vector 300341  Network.dyn_peer[110]  lookupStabilitySig:vector  ETV
vector 300342  Network.dyn_peer[110]  lookupTimeSig:vector  ETV
vector 300193  Network.dyn_peer[61]  lookupHopsSig:vector  ETV
vector 300194  Network.dyn_peer[61]  lookupStabilitySig:vector  ETV
vector 300195  Network.dyn_peer[61]  lookupTimeSig:vector  ETV
vector 300406  Network.dyn_peer[132]  lookupHopsSig:vector  ETV
vector 300407  Network.dyn_peer[132]  lookupStabilitySig:vector  ETV
vector 300408  Network.dyn_peer[132]  lookupTimeSig:vector  ETV
vector 300436  Network.dyn_peer[142]  lookupHopsSig:vector  ETV
vector 300437  Network.dyn_peer[142]  lookupStabilitySig:vector  ETV
vector 300438  Network.dyn_peer[142]  lookupTimeSig:vector  ETV
vector 300169  Network.dyn_peer[53]  lookupHopsSig:vector  ETV
vector 300170  Network.dyn_peer[53]  lookupStabilitySig:vector  ETV
vector 300171  Network.dyn_peer[53]  lookupTimeSig:vector  ETV
vector 300259  Network.dyn_peer[83]  lookupHopsSig:vector  ETV
vector 300260  Network.dyn_peer[83]  lookupStabilitySig:vector  ETV
vector 300261  Network.dyn_peer[83]  lookupTimeSig:vector  ETV
vector 300502  Network.dyn_peer[164]  lookupHopsSig:vector  ETV
vector 300503  Network.dyn_peer[164]  lookupStabilitySig:vector  ETV
vector 300504  Network.dyn_peer[164]  lookupTimeSig:vector  ETV
vector 300508  Network.dyn_peer[166]  lookupHopsSig:vector  ETV
vector 300509  Network.dyn_peer[166]  lookupStabilitySig:vector  ETV
vector 300510  Network.dyn_peer[166]  lookupTimeSig:vector  ETV
vector 300607  Network.dyn_peer[199]  lookupHopsSig:vector  ETV
vector 300608  Network.dyn_peer[199]  lookupStabilitySig:vector  ETV
vector 300609  Network.dyn_peer[199]  lookupTimeSig:vector  ETV
vector 300580  Network.dyn_peer[190]  lookupHopsSig:vector  ETV
vector 300581  Network.dyn_peer[190]  lookupStabilitySig:vector  ETV
vector 300582  Network.dyn_peer[190]  lookupTimeSig:vector  ETV
vector 300256  Network.dyn_peer[82]  lookupHopsSig:vector  ETV
vector 300257  Network.dyn_peer[82]  lookupStabilitySig:vector  ETV
vector 300258  Network.dyn_peer[82]  lookupTimeSig:vector  ETV
vector 300232  Network.dyn_peer[74]  lookupHopsSig:vector  ETV
vector 300233  Network.dyn_peer[74]  lookupStabilitySig:vector  ETV
vector 300234  Network.dyn_peer[74]  lookupTimeSig:vector  ETV
vector 300355  Network.dyn_peer[115]  lookupHopsSig:vector  ETV
vector 300356  Network.dyn_peer[115]  lookupStabilitySig:vector  ETV
vector 300357  Network.dyn_peer[115]  lookupTimeSig:vector  ETV
vector 300391  Network.dyn_peer[127]  lookupHopsSig:vector  ETV
vector 300392  Network.dyn_peer[127]  lookupStabilitySig:vector  ETV
vector 300393  Network.dyn_peer[127]  lookupTimeSig:vector  ETV
vector 300184  Network.dyn_peer[58]  lookupHopsSig:vector  ETV
vector 300185  Network.dyn_peer[58]  lookupStabilitySig:vector  ETV
vector 300186  Network.dyn_peer[58]  lookupTimeSig:vector  ETV
vector 300244  Network.dyn_peer[78]  lookupHopsSig:vector  ETV
vector 300245  Network.dyn_peer[78]  lookupStabilitySig:vector  ETV
vector 300246  Network.dyn_peer[78]  lookupTimeSig:vector  ETV
vector 300514  Network.dyn_peer[168]  lookupHopsSig:vector  ETV
vector 300515  Network.dyn_peer[168]  lookupStabilitySig:vector  ETV
vector 300516  Network.dyn_peer[168]  lookupTimeSig:vector  ETV
vector 300400  Network.dyn_peer[130]  lookupHopsSig:vector  ETV
vector 300401  Network.dyn_peer[130]  lookupStabilitySig:vector  ETV
vector 300402  Network.dyn_peer[130]  lookupTimeSig:vector  ETV
vector 300418  Network.dyn_peer[136]  lookupHopsSig:vector  ETV
vector 300419  Network.dyn_peer[136]  lookupStabilitySig:vector  ETV
vector 300420  Network.dyn_peer[136]  lookupTimeSig:vector  ETV
vector 300457  Network.dyn_peer[149]  lookupHopsSig:vector  ETV
vector 300458  Network.dyn_peer[149]  lookupStabilitySig:vector  ETV
vector 300459  Network.dyn_peer[149]  lookupTimeSig:vector  ETV
vector 300280  Network.dyn_peer[90]  lookupHopsSig:vector  ETV
vector 300281  Network.dyn_peer[90]  lookupStabilitySig:vector  ETV
vector 300282  Network.dyn_peer[90]  lookupTimeSig:vector  ETV
vector 300493  Network.dyn_peer[161]  lookupHopsSig:vector  ETV
vector 300494  Network.dyn_peer[161]  lookupStabilitySig:vector  ETV
vector 300495  Network.dyn_peer[161]  lookupTimeSig:vector  ETV
vector 300316  Network.dyn_peer[102]  lookupHopsSig:vector  ETV
vector 300317  Network.dyn_peer[102]  lookupStabilitySig:vector  ETV
vector 300318  Network.dyn_peer[102]  lookupTimeSig:vector  ETV
vector 300529  Network.dyn_peer[173]  lookupHopsSig:vector  ETV
vector 300530  Network.dyn_peer[173]  lookupStabilitySig:vector  ETV
vector 300531  Network.dyn_peer[173]  lookupTimeSig:vector  ETV
vector 300382  Network.dyn_peer[124]  lookupHopsSig:vector  ETV
vector 300383  Network.dyn_peer[124]  lookupStabilitySig:vector  ETV
vector 300384  Network.dyn_peer[124]  lookupTimeSig:vector  ETV
vector 300265  Network.dyn_peer[85]  lookupHopsSig:vector  ETV
vector 300266  Network.dyn_peer[85]  lookupStabilitySig:vector  ETV
vector 300267  Network.dyn_peer[85]  lookupTimeSig:vector  ETV
vector 300325  Network.dyn_peer[105]  lookupHopsSig:vector  ETV
vector 300326  Network.dyn_peer[105]  lookupStabilitySig:vector  ETV
vector 300327  Network.dyn_peer[105]  lookupTimeSig:vector  ETV
vector 300421  Network.dyn_peer[137]  lookupHopsSig:vector  ETV
vector 300422  Network.dyn_peer[137]  lookupStabilitySig:vector  ETV
vector 300423  Network.dyn_peer[137]  lookupTimeSig:vector  ETV
vector 300394  Network.dyn_peer[128]  lookupHopsSig:vector  ETV
vector 300395  Network.dyn_peer[128]  lookupStabilitySig:vector  ETV
vector 300396  Network.dyn_peer[128]  lookupTimeSig:vector  ETV
vector 300490  Network.dyn_peer[160]  lookupHopsSig:vector  ETV
vector 300491  Network.dyn_peer[160]  lookupStabilitySig:vector  ETV
vector 300492  Network.dyn_peer[160]  lookupTimeSig:vector  ETV
vector 300526  Network.dyn_peer[172]  lookupHopsSig:vector  ETV
vector 300527  Network.dyn_peer[172]  lookupStabilitySig:vector  ETV
vector 300528  Network.dyn_peer[172]  lookupTimeSig:vector  ETV
vector 300292  Network.dyn_peer[94]  lookupHopsSig:vector  ETV
vector 300293  Network.dyn_peer[94]  lookupStabilitySig:vector  ETV
vector 300294  Network.dyn_peer[94]  lookupTimeSig:vector  ETV
vector 300442  Network.dyn_peer[144]  lookupHopsSig:vector  ETV
vector 300443  Network.dyn_peer[144]  lookupStabilitySig:vector  ETV
vector 300444  Network.dyn_peer[144]  lookupTimeSig:vector  ETV
vector 300271  Network.dyn_peer[87]  lookupHopsSig:vector  ETV
vector 300272  Network.dyn_peer[87]  lookupStabilitySig:vector  ETV
vector 300273  Network.dyn_peer[87]  lookupTimeSig:vector  ETV
vector 300550  Network.dyn_peer[180]  lookupHopsSig:vector  ETV
vector 300551  Network.dyn_peer[180]  lookupStabilitySig:vector  ETV
vector 300552  Network.dyn_peer[180]  lookupTimeSig:vector  ETV
vector 300553  Network.dyn_peer[181]  lookupHopsSig:vector  ETV
vector 300554  Network.dyn_peer[181]  lookupStabilitySig:vector  ETV
vector 300555  Network.dyn_peer[181]  lookupTimeSig:vector  ETV
vector 300466  Network.dyn_peer[152]  lookupHopsSig:vector  ETV
vector 300467  Network.dyn_peer[152]  lookupStabilitySig:vector  ETV
vector 300468  Network.dyn_peer[152]  lookupTimeSig:vector  ETV
vector 300433  Network.dyn_peer[141]  lookupHopsSig:vector  ETV
vector 300434  Network.dyn_peer[141]  lookupStabilitySig:vector  ETV
vector 300435  Network.dyn_peer[141]  lookupTimeSig:vector  ETV
vector 300349  Network.dyn_peer[113]  lookupHopsSig:vector  ETV