file 59652 1369696910                                           
version 2
run Stability2-1-20130528-01:21:45-24168
attr configname Stability2
attr datetime 20130528-01:21:45
attr experiment Stability2
attr inifile omnetpp.ini
attr iterationvars $0=10
attr iterationvars2 "$0=10, $repetition=1"
attr measurement $0=10
attr network Network
attr processid 24168
attr repetition 1
attr replication #1
attr resultdir results
attr runnumber 1
attr seedset 1

vector 60001  Network.churner  inGoingSizeSig:vector  ETV
vector 30001  Network.dyn_peer[0]  lookupHopsSig:vector  ETV
vector 30002  Network.dyn_peer[0]  lookupStabilitySig:vector  ETV
vector 30003  Network.dyn_peer[0]  lookupTimeSig:vector  ETV
vector 30016  Network.dyn_peer[5]  lookupHopsSig:vector  ETV
vector 30017  Network.dyn_peer[5]  lookupStabilitySig:vector  ETV
vector 30018  Network.dyn_peer[5]  lookupTimeSig:vector  ETV
vector 30004  Network.dyn_peer[1]  lookupHopsSig:vector  ETV
vector 30005  Network.dyn_peer[1]  lookupStabilitySig:vector  ETV
vector 30006  Network.dyn_peer[1]  lookupTimeSig:vector  ETV
vector 30007  Network.dyn_peer[2]  lookupHopsSig:vector  ETV
vector 30008  Network.dyn_peer[2]  lookupStabilitySig:vector  ETV
vector 30009  Network.dyn_peer[2]  lookupTimeSig:vector  ETV
vector 30025  Network.dyn_peer[8]  lookupHopsSig:vector  ETV
vector 30026  Network.dyn_peer[8]  lookupStabilitySig:vector  ETV
vector 30027  Network.dyn_peer[8]  lookupTimeSig:vector  ETV
vector 30055  Network.dyn_peer[18]  lookupHopsSig:vector  ETV
vector 30056  Network.dyn_peer[18]  lookupStabilitySig:vector  ETV
vector 30057  Network.dyn_peer[18]  lookupTimeSig:vector  ETV
vector 30034  Network.dyn_peer[11]  lookupHopsSig:vector  ETV
vector 30035  Network.dyn_peer[11]  lookupStabilitySig:vector  ETV
vector 30036  Network.dyn_peer[11]  lookupTimeSig:vector  ETV
vector 30037  Network.dyn_peer[12]  lookupHopsSig:vector  ETV
vector 30038  Network.dyn_peer[12]  lookupStabilitySig:vector  ETV
vector 30039  Network.dyn_peer[12]  lookupTimeSig:vector  ETV
vector 30067  Network.dyn_peer[22]  lookupHopsSig:vector  ETV
vector 30068  Network.dyn_peer[22]  lookupStabilitySig:vector  ETV
vector 30069  Network.dyn_peer[22]  lookupTimeSig:vector  ETV
vector 30010  Network.dyn_peer[3]  lookupHopsSig:vector  ETV
vector 30011  Network.dyn_peer[3]  lookupStabilitySig:vector  ETV
vector 30012  Network.dyn_peer[3]  lookupTimeSig:vector  ETV
vector 30040  Network.dyn_peer[13]  lookupHopsSig:vector  ETV
vector 30041  Network.dyn_peer[13]  lookupStabilitySig:vector  ETV
vector 30042  Network.dyn_peer[13]  lookupTimeSig:vector  ETV
vector 30028  Network.dyn_peer[9]  lookupHopsSig:vector  ETV
vector 30029  Network.dyn_peer[9]  lookupStabilitySig:vector  ETV
vector 30030  Network.dyn_peer[9]  lookupTimeSig:vector  ETV
vector 30088  Network.dyn_peer[29]  lookupHopsSig:vector  ETV
vector 30089  Network.dyn_peer[29]  lookupStabilitySig:vector  ETV
vector 30090  Network.dyn_peer[29]  lookupTimeSig:vector  ETV
vector 30100  Network.dyn_peer[33]  lookupHopsSig:vector  ETV
vector 30101  Network.dyn_peer[33]  lookupStabilitySig:vector  ETV
vector 30102  Network.dyn_peer[33]  lookupTimeSig:vector  ETV
vector 30013  Network.dyn_peer[4]  lookupHopsSig:vector  ETV
vector 30014  Network.dyn_peer[4]  lookupStabilitySig:vector  ETV
vector 30015  Network.dyn_peer[4]  lookupTimeSig:vector  ETV
vector 30043  Network.dyn_peer[14]  lookupHopsSig:vector  ETV
vector 30044  Network.dyn_peer[14]  lookupStabilitySig:vector  ETV
vector 30045  Network.dyn_peer[14]  lookupTimeSig:vector  ETV
vector 30019  Network.dyn_peer[6]  lookupHopsSig:vector  ETV
vector 30020  Network.dyn_peer[6]  lookupStabilitySig:vector  ETV
vector 30021  Network.dyn_peer[6]  lookupTimeSig:vector  ETV
vector 30049  Network.dyn_peer[16]  lookupHopsSig:vector  ETV
vector 30050  Network.dyn_peer[16]  lookupStabilitySig:vector  ETV
vector 30051  Network.dyn_peer[16]  lookupTimeSig:vector  ETV
vector 30022  Network.dyn_peer[7]  lookupHopsSig:vector  ETV
vector 30023  Network.dyn_peer[7]  lookupStabilitySig:vector  ETV
vector 30024  Network.dyn_peer[7]  lookupTimeSig:vector  ETV
vector 30058  Network.dyn_peer[19]  lookupHopsSig:vector  ETV
vector 30059  Network.dyn_peer[19]  lookupStabilitySig:vector  ETV
vector 30060  Network.dyn_peer[19]  lookupTimeSig:vector  ETV
vector 30064  Network.dyn_peer[21]  lookupHopsSig:vector  ETV
vector 30065  Network.dyn_peer[21]  lookupStabilitySig:vector  ETV
vector 30066  Network.dyn_peer[21]  lookupTimeSig:vector  ETV
vector 30106  Network.dyn_peer[35]  lookupHopsSig:vector  ETV
vector 30107  Network.dyn_peer[35]  lookupStabilitySig:vector  ETV
vector 30108  Network.dyn_peer[35]  lookupTimeSig:vector  ETV
vector 30079  Network.dyn_peer[26]  lookupHopsSig:vector  ETV
vector 30080  Network.dyn_peer[26]  lookupStabilitySig:vector  ETV
vector 30081  Network.dyn_peer[26]  lookupTimeSig:vector  ETV
vector 30109  Network.dyn_peer[36]  lookupHopsSig:vector  ETV
vector 30110  Network.dyn_peer[36]  lookupStabilitySig:vector  ETV
vector 30111  Network.dyn_peer[36]  lookupTimeSig:vector  ETV
vector 30052  Network.dyn_peer[17]  lookupHopsSig:vector  ETV
vector 30053  Network.dyn_peer[17]  lookupStabilitySig:vector  ETV
vector 30054  Network.dyn_peer[17]  lookupTimeSig:vector  ETV
vector 30061  Network.dyn_peer[20]  lookupHopsSig:vector  ETV
vector 30062  Network.dyn_peer[20]  lookupStabilitySig:vector  ETV
vector 30063  Network.dyn_peer[20]  lookupTimeSig:vector  ETV
vector 30070  Network.dyn_peer[23]  lookupHopsSig:vector  ETV
vector 30071  Network.dyn_peer[23]  lookupStabilitySig:vector  ETV
vector 30072  Network.dyn_peer[23]  lookupTimeSig:vector  ETV
vector 30127  Network.dyn_peer[42]  lookupHopsSig:vector  ETV
vector 30128  Network.dyn_peer[42]  lookupStabilitySig:vector  ETV
vector 30129  Network.dyn_peer[42]  lookupTimeSig:vector  ETV
vector 30157  Network.dyn_peer[52]  lookupHopsSig:vector  ETV
vector 30158  Network.dyn_peer[52]  lookupStabilitySig:vector  ETV
vector 30159  Network.dyn_peer[52]  lookupTimeSig:vector  ETV
vector 30076  Network.dyn_peer[25]  lookupHopsSig:vector  ETV
vector 30077  Network.dyn_peer[25]  lookupStabilitySig:vector  ETV
vector 30078  Network.dyn_peer[25]  lookupTimeSig:vector  ETV
vector 30196  Network.dyn_peer[65]  lookupHopsSig:vector  ETV
vector 30197  Network.dyn_peer[65]  lookupStabilitySig:vector  ETV
vector 30198  Network.dyn_peer[65]  lookupTimeSig:vector  ETV
vector 30082  Network.dyn_peer[27]  lookupHopsSig:vector  ETV
vector 30083  Network.dyn_peer[27]  lookupStabilitySig:vector  ETV
vector 30084  Network.dyn_peer[27]  lookupTimeSig:vector  ETV
vector 30142  Network.dyn_peer[47]  lookupHopsSig:vector  ETV
vector 30143  Network.dyn_peer[47]  lookupStabilitySig:vector  ETV
vector 30144  Network.dyn_peer[47]  lookupTimeSig:vector  ETV
vector 30085  Network.dyn_peer[28]  lookupHopsSig:vector  ETV
vector 30086  Network.dyn_peer[28]  lookupStabilitySig:vector  ETV
vector 30087  Network.dyn_peer[28]  lookupTimeSig:vector  ETV
vector 30145  Network.dyn_peer[48]  lookupHopsSig:vector  ETV
vector 30146  Network.dyn_peer[48]  lookupStabilitySig:vector  ETV
vector 30147  Network.dyn_peer[48]  lookupTimeSig:vector  ETV
vector 30118  Network.dyn_peer[39]  lookupHopsSig:vector  ETV
vector 30119  Network.dyn_peer[39]  lookupStabilitySig:vector  ETV
vector 30120  Network.dyn_peer[39]  lookupTimeSig:vector  ETV
vector 30091  Network.dyn_peer[30]  lookupHopsSig:vector  ETV
vector 30092  Network.dyn_peer[30]  lookupStabilitySig:vector  ETV
vector 30093  Network.dyn_peer[30]  lookupTimeSig:vector  ETV
vector 30094  Network.dyn_peer[31]  lookupHopsSig:vector  ETV
vector 30095  Network.dyn_peer[31]  lookupStabilitySig:vector  ETV
vector 30096  Network.dyn_peer[31]  lookupTimeSig:vector  ETV
vector 30160  Network.dyn_peer[53]  lookupHopsSig:vector  ETV
vector 30161  Network.dyn_peer[53]  lookupStabilitySig:vector  ETV
vector 30162  Network.dyn_peer[53]  lookupTimeSig:vector  ETV
vector 30073  Network.dyn_peer[24]  lookupHopsSig:vector  ETV
vector 30074  Network.dyn_peer[24]  lookupStabilitySig:vector  ETV
vector 30075  Network.dyn_peer[24]  lookupTimeSig:vector  ETV
vector 30046  Network.dyn_peer[15]  lookupHopsSig:vector  ETV
vector 30047  Network.dyn_peer[15]  lookupStabilitySig:vector  ETV
vector 30048  Network.dyn_peer[15]  lookupTimeSig:vector  ETV
vector 30199  Network.dyn_peer[66]  lookupHopsSig:vector  ETV
vector 30200  Network.dyn_peer[66]  lookupStabilitySig:vector  ETV
vector 30201  Network.dyn_peer[66]  lookupTimeSig:vector  ETV
vector 30115  Network.dyn_peer[38]  lookupHopsSig:vector  ETV
vector 30116  Network.dyn_peer[38]  lookupStabilitySig:vector  ETV
vector 30117  Network.dyn_peer[38]  lookupTimeSig:vector  ETV
vector 30097  Network.dyn_peer[32]  lookupHopsSig:vector  ETV
vector 30098  Network.dyn_peer[32]  lookupStabilitySig:vector  ETV
vector 30099  Network.dyn_peer[32]  lookupTimeSig:vector  ETV
vector 30130  Network.dyn_peer[43]  lookupHopsSig:vector  ETV
vector 30131  Network.dyn_peer[43]  lookupStabilitySig:vector  ETV
vector 30132  Network.dyn_peer[43]  lookupTimeSig:vector  ETV
vector 30190  Network.dyn_peer[63]  lookupHopsSig:vector  ETV
vector 30191  Network.dyn_peer[63]  lookupStabilitySig:vector  ETV
vector 30192  Network.dyn_peer[63]  lookupTimeSig:vector  ETV
vector 30133  Network.dyn_peer[44]  lookupHopsSig:vector  ETV
vector 30134  Network.dyn_peer[44]  lookupStabilitySig:vector  ETV
vector 30135  Network.dyn_peer[44]  lookupTimeSig:vector  ETV
vector 30232  Network.dyn_peer[77]  lookupHopsSig:vector  ETV
vector 30233  Network.dyn_peer[77]  lookupStabilitySig:vector  ETV
vector 30234  Network.dyn_peer[77]  lookupTimeSig:vector  ETV
vector 30148  Network.dyn_peer[49]  lookupHopsSig:vector  ETV
vector 30149  Network.dyn_peer[49]  lookupStabilitySig:vector  ETV
vector 30150  Network.dyn_peer[49]  lookupTimeSig:vector  ETV
vector 30031  Network.dyn_peer[10]  lookupHopsSig:vector  ETV
vector 30032  Network.dyn_peer[10]  lookupStabilitySig:vector  ETV
vector 30033  Network.dyn_peer[10]  lookupTimeSig:vector  ETV
vector 30223  Network.dyn_peer[74]  lookupHopsSig:vector  ETV
vector 30224  Network.dyn_peer[74]  lookupStabilitySig:vector  ETV
vector 30225  Network.dyn_peer[74]  lookupTimeSig:vector  ETV
vector 30136  Network.dyn_peer[45]  lookupHopsSig:vector  ETV
vector 30137  Network.dyn_peer[45]  lookupStabilitySig:vector  ETV
vector 30138  Network.dyn_peer[45]  lookupTimeSig:vector  ETV
vector 30166  Network.dyn_peer[55]  lookupHopsSig:vector  ETV
vector 30167  Network.dyn_peer[55]  lookupStabilitySig:vector  ETV
vector 30168  Network.dyn_peer[55]  lookupTimeSig:vector  ETV
vector 30226  Network.dyn_peer[75]  lookupHopsSig:vector  ETV
vector 30227  Network.dyn_peer[75]  lookupStabilitySig:vector  ETV
vector 30228  Network.dyn_peer[75]  lookupTimeSig:vector  ETV
vector 30229  Network.dyn_peer[76]  lookupHopsSig:vector  ETV
vector 30230  Network.dyn_peer[76]  lookupStabilitySig:vector  ETV
vector 30231  Network.dyn_peer[76]  lookupTimeSig:vector  ETV
vector 30217  Network.dyn_peer[72]  lookupHopsSig:vector  ETV
vector 30218  Network.dyn_peer[72]  lookupStabilitySig:vector  ETV
vector 30219  Network.dyn_peer[72]  lookupTimeSig:vector  ETV
vector 30193  Network.dyn_peer[64]  lookupHopsSig:vector  ETV
vector 30194  Network.dyn_peer[64]  lookupStabilitySig:vector  ETV
vector 30195  Network.dyn_peer[64]  lookupTimeSig:vector  ETV
vector 30202  Network.dyn_peer[67]  lookupHopsSig:vector  ETV
vector 30203  Network.dyn_peer[67]  lookupStabilitySig:vector  ETV
vector 30204  Network.dyn_peer[67]  lookupTimeSig:vector  ETV
vector 30238  Network.dyn_peer[79]  lookupHopsSig:vector  ETV
vector 30239  Network.dyn_peer[79]  lookupStabilitySig:vector  ETV
vector 30240  Network.dyn_peer[79]  lookupTimeSig:vector  ETV
vector 30268  Network.dyn_peer[89]  lookupHopsSig:vector  ETV
vector 30269  Network.dyn_peer[89]  lookupStabilitySig:vector  ETV
vector 30270  Network.dyn_peer[89]  lookupTimeSig:vector  ETV
vector 30298  Network.dyn_peer[99]  lookupHopsSig:vector  ETV
vector 30299  Network.dyn_peer[99]  lookupStabilitySig:vector  ETV
vector 30300  Network.dyn_peer[99]  lookupTimeSig:vector  ETV
vector 30121  Network.dyn_peer[40]  lookupHopsSig:vector  ETV
vector 30122  Network.dyn_peer[40]  lookupStabilitySig:vector  ETV
vector 30123  Network.dyn_peer[40]  lookupTimeSig:vector  ETV
vector 30241  Network.dyn_peer[80]  lookupHopsSig:vector  ETV
vector 30242  Network.dyn_peer[80]  lookupStabilitySig:vector  ETV
vector 30243  Network.dyn_peer[80]  lookupTimeSig:vector  ETV
vector 30292  Network.dyn_peer[97]  lookupHopsSig:vector  ETV
vector 30293  Network.dyn_peer[97]  lookupStabilitySig:vector  ETV
vector 30294  Network.dyn_peer[97]  lookupTimeSig:vector  ETV
vector 30271  Network.dyn_peer[90]  lookupHopsSig:vector  ETV
vector 30272  Network.dyn_peer[90]  lookupStabilitySig:vector  ETV
vector 30273  Network.dyn_peer[90]  lookupTimeSig:vector  ETV
vector 30154  Network.dyn_peer[51]  lookupHopsSig:vector  ETV
vector 30155  Network.dyn_peer[51]  lookupStabilitySig:vector  ETV
vector 30156  Network.dyn_peer[51]  lookupTimeSig:vector  ETV
vector 30274  Network.dyn_peer[91]  lookupHopsSig:vector  ETV
vector 30275  Network.dyn_peer[91]  lookupStabilitySig:vector  ETV
vector 30276  Network.dyn_peer[91]  lookupTimeSig:vector  ETV
vector 30163  Network.dyn_peer[54]  lookupHopsSig:vector  ETV
vector 30164  Network.dyn_peer[54]  lookupStabilitySig:vector  ETV
vector 30165  Network.dyn_peer[54]  lookupTimeSig:vector  ETV
vector 30211  Network.dyn_peer[70]  lookupHopsSig:vector  ETV
vector 30212  Network.dyn_peer[70]  lookupStabilitySig:vector  ETV
vector 30213  Network.dyn_peer[70]  lookupTimeSig:vector  ETV
vector 30250  Network.dyn_peer[83]  lookupHopsSig:vector  ETV
vector 30251  Network.dyn_peer[83]  lookupStabilitySig:vector  ETV
vector 30252  Network.dyn_peer[83]  lookupTimeSig:vector  ETV
vector 30235  Network.dyn_peer[78]  lookupHopsSig:vector  ETV
vector 30236  Network.dyn_peer[78]  lookupStabilitySig:vector  ETV
vector 30237  Network.dyn_peer[78]  lookupTimeSig:vector  ETV
vector 30295  Network.dyn_peer[98]  lookupHopsSig:vector  ETV
vector 30296  Network.dyn_peer[98]  lookupStabilitySig:vector  ETV
vector 30297  Network.dyn_peer[98]  lookupTimeSig:vector  ETV
vector 30103  Network.dyn_peer[34]  lookupHopsSig:vector  ETV
vector 30104  Network.dyn_peer[34]  lookupStabilitySig:vector  ETV
vector 30105  Network.dyn_peer[34]  lookupTimeSig:vector  ETV
vector 30286  Network.dyn_peer[95]  lookupHopsSig:vector  ETV
vector 30287  Network.dyn_peer[95]  lookupStabilitySig:vector  ETV
vector 30288  Network.dyn_peer[95]  lookupTimeSig:vector  ETV
vector 30208  Network.dyn_peer[69]  lookupHopsSig:vector  ETV
vector 30209  Network.dyn_peer[69]  lookupStabilitySig:vector  ETV
vector 30210  Network.dyn_peer[69]  lookupTimeSig:vector  ETV
vector 30151  Network.dyn_peer[50]  lookupHopsSig:vector  ETV
vector 30152  Network.dyn_peer[50]  lookupStabilitySig:vector  ETV
vector 30153  Network.dyn_peer[50]  lookupTimeSig:vector  ETV
vector 30247  Network.dyn_peer[82]  lookupHopsSig:vector  ETV
vector 30248  Network.dyn_peer[82]  lookupStabilitySig:vector  ETV
vector 30249  Network.dyn_peer[82]  lookupTimeSig:vector  ETV
vector 30280  Network.dyn_peer[93]  lookupHopsSig:vector  ETV
vector 30281  Network.dyn_peer[93]  lookupStabilitySig:vector  ETV
vector 30282  Network.dyn_peer[93]  lookupTimeSig:vector  ETV
vector 30283  Network.dyn_peer[94]  lookupHopsSig:vector  ETV
vector 30284  Network.dyn_peer[94]  lookupStabilitySig:vector  ETV
vector 30285  Network.dyn_peer[94]  lookupTimeSig:vector  ETV
vector 30289  Network.dyn_peer[96]  lookupHopsSig:vector  ETV
vector 30290  Network.dyn_peer[96]  lookupStabilitySig:vector  ETV
vector 30291  Network.dyn_peer[96]  lookupTimeSig:vector  ETV
vector 30220  Network.dyn_peer[73]  lookupHopsSig:vector  ETV
vector 30221  Network.dyn_peer[73]  lookupStabilitySig:vector  ETV
vector 30222  Network.dyn_peer[73]  lookupTimeSig:vector  ETV
vector 30169  Network.dyn_peer[56]  lookupHopsSig:vector  ETV
vector 30170  Network.dyn_peer[56]  lookupStabilitySig:vector  ETV
vector 30171  Network.dyn_peer[56]  lookupTimeSig:vector  ETV
vector 30259  Network.dyn_peer[86]  lookupHopsSig:vector  ETV
vector 30260  Network.dyn_peer[86]  lookupStabilitySig:vector  ETV
vector 30261  Network.dyn_peer[86]  lookupTimeSig:vector  ETV
vector 30124  Network.dyn_peer[41]  lookupHopsSig:vector  ETV
vector 30125  Network.dyn_peer[41]  lookupStabilitySig:vector  ETV
vector 30126  Network.dyn_peer[41]  lookupTimeSig:vector  ETV
vector 30112  Network.dyn_peer[37]  lookupHopsSig:vector  ETV
vector 30113  Network.dyn_peer[37]  lookupStabilitySig:vector  ETV
vector 30114  Network.dyn_peer[37]  lookupTimeSig:vector  ETV
vector 30262  Network.dyn_peer[87]  lookupHopsSig:vector  ETV
vector 30263  Network.dyn_peer[87]  lookupStabilitySig:vector  ETV
vector 30264  Network.dyn_peer[87]  lookupTimeSig:vector  ETV
vector 30175  Network.dyn_peer[58]  lookupHopsSig:vector  ETV
vector 30176  Network.dyn_peer[58]  lookupStabilitySig:vector  ETV
vector 30177  Network.dyn_peer[58]  lookupTimeSig:vector  ETV
vector 30181  Network.dyn_peer[60]  lookupHopsSig:vector  ETV
vector 30182  Network.dyn_peer[60]  lookupStabilitySig:vector  ETV
vector 30183  Network.dyn_peer[60]  lookupTimeSig:vector  ETV
vector 30205  Network.dyn_peer[68]  lookupHopsSig:vector  ETV
vector 30206  Network.dyn_peer[68]  lookupStabilitySig:vector  ETV
vector 30207  Network.dyn_peer[68]  lookupTimeSig:vector  ETV
vector 30178  Network.dyn_peer[59]  lookupHopsSig:vector  ETV
vector 30179  Network.dyn_peer[59]  lookupStabilitySig:vector  ETV
vector 30180  Network.dyn_peer[59]  lookupTimeSig:vector  ETV
vector 30184  Network.dyn_peer[61]  lookupHopsSig:vector  ETV
vector 30185  Network.dyn_peer[61]  lookupStabilitySig:vector  ETV
vector 30186  Network.dyn_peer[61]  lookupTimeSig:vector  ETV
vector 30187  Network.dyn_peer[62]  lookupHopsSig:vector  ETV
vector 30188  Network.dyn_peer[62]  lookupStabilitySig:vector  ETV
vector 30189  Network.dyn_peer[62]  lookupTimeSig:vector  ETV
vector 30256  Network.dyn_peer[85]  lookupHopsSig:vector  ETV
vector 30257  Network.dyn_peer[85]  lookupStabilitySig:vector  ETV
vector 30258  Network.dyn_peer[85]  lookupTimeSig:vector  ETV
vector 30139  Network.dyn_peer[46]  lookupHopsSig:vector  ETV
vector 30140  Network.dyn_peer[46]  lookupStabilitySig:vector  ETV
vector 30141  Network.dyn_peer[46]  lookupTimeSig:vector  ETV
vector 30172  Network.dyn_peer[57]  lookupHopsSig:vector  ETV
vector 30173  Network.dyn_peer[57]  lookupStabilitySig:vector  ETV
vector 30174  Network.dyn_peer[57]  lookupTimeSig:vector  ETV
vector 30244  Network.dyn_peer[81]  lookupHopsSig:vector  ETV
vector 30245  Network.dyn_peer[81]  lookupStabilitySig:vector  ETV
vector 30246  Network.dyn_peer[81]  lookupTimeSig:vector  ETV
vector 30277  Network.dyn_peer[92]  lookupHopsSig:vector  ETV
vector 30278  Network.dyn_peer[92]  lookupStabilitySig:vector  ETV
vector 30279  Network.dyn_peer[92]  lookupTimeSig:vector  ETV
vector 30253  Network.dyn_peer[84]  lookupHopsSig:vector  ETV
vector 30254  Network.dyn_peer[84]  lookupStabilitySig:vector  ETV
vector 30255  Network.dyn_peer[84]  lookupTimeSig:vector  ETV
vector 30265  Network.dyn_peer[88]  lookupHopsSig:vector  ETV
vector 30266  Network.dyn_peer[88]  lookupStabilitySig:vector  ETV
vector 30267  Network.dyn_peer[88]  lookupTimeSig:vector  ETV
vector 30214  Network.dyn_peer[71]  lookupHopsSig:vector  ETV
vector 30215  Network.dyn_peer[71]  lookupStabilitySig:vector  ETV
vector 30216  Network.dyn_peer[71]  lookupTimeSig:vector  ETV
30001	19517 121 18 3915 20.01 23.95454727794 5 0 22 31 513
30002	19638 154 18 3915 20.01 23.95454727794 5 0.5 1 3.3142856955528 2.3702040562338
30003	19792 128 18 3915 20.01 23.95454727794 5 0 2.3 3.5 5.79
30004	19920 162 60 3692 20.12 23.484934571444 6 1 10 29 209
30005	20082 229 60 3692 20.12 23.484934571444 6 0.25 0.9375 4.0505136847496 3.0461988767114
30006	20311 173 60 3692 20.12 23.484934571444 6 0.1 1.1 3.4 2.7
30007	20484 123 69 3486 20.13 23.144715367386 5 1 11 27 223
30008	20607 188 69 3486 20.13 23.144715367386 5 0.11111110448837 0.90625 3.3030753731728 2.5838387969556
30009	20795 132 69 3486 20.13 23.144715367386 5 0.1 1.2 3.1 2.79
30010	20927 153 144 4130 20.24 24.564010075033 6 2 18 39 441
30011	21080 229 144 4130 20.24 24.564010075033 6 0.25 0.9101123586297 4.0867790058255 3.0695155887003
30012	21309 164 144 4130 20.24 24.564010075033 6 0.2 1.9 4.4 5.2
30013	21473 124 233 3126 20.35 22.670618966644 5 1 8 22 132
30014	21597 188 233 3126 20.35 22.670618966644 5 0.125 0.89999999850988 3.0547872111201 2.3141718362007
30015	21785 134 233 3126 20.35 22.670618966644 5 0.2 0.9 2.6 1.74
30016	21919 161 37 3756 20.06 23.603495641636 6 0 11 28 224
30017	22080 233 37 3756 20.06 23.603495641636 6 0.36363637447357 1 4.5072077959776 3.6544473332363
30018	22313 170 37 3756 20.06 23.603495641636 6 0 1.2 3.3 2.85
30019	22483 123 256 3928 20.37 23.983682077 5 2 11 35 319
30020	22606 196 256 3928 20.37 23.983682077 5 0.15384614467621 0.96825396642089 3.2182039804757 2.5641865486657
30021	22802 131 256 3928 20.37 23.983682077 5 0.3 1.2 3.9 3.87
30022	22933 95 271 2339 20.38 21.988915659577 4 3 7 16 76
30023	23028 144 271 2339 20.38 21.988915659577 4 0.125 0.84210526943207 2.1363360136747 1.4764822402997
30024	23172 103 271 2339 20.38 21.988915659577 4 0.3 0.8 1.9 1.05
30025	23275 95 100 3242 20.19 22.806586694423 4 1 20 24 406
30026	23370 153 100 3242 20.19 22.806586694423 4 0.4594594836235 0.96428571268916 3.0237451903522 2.4209499432513
30027	23523 102 100 3242 20.19 22.806586694423 4 0.1 2.1 2.7 4.55
30028	23625 64 183 2238 20.3 21.907425738153 3 2 7 16 102
30029	23689 98 183 2238 20.3 21.907425738153 3 0.125 0.61111110448837 1.3361110985279 0.74908177487644
30030	23787 70 183 2238 20.3 21.907425738153 3 0.2 0.8 1.8 1.32
30031	23857 96 924 3457 20.91 23.112160603759 4 1 10 27 229
30032	23953 129 924 3457 20.91 23.112160603759 4 0 0.875 2.3480158597231 1.8877816945827
30033	24082 103 924 3457 20.91 23.112160603759 4 0.2 1.1 3 2.7
30034	24185 94 121 3184 20.22 22.726060539622 4 1 11 23 187
30035	24279 153 121 3184 20.22 22.726060539622 4 0.33333331346512 0.79999999701977 2.3873245716095 1.5921103023553
30036	24432 101 121 3184 20.22 22.726060539622 4 0.1 1.2 2.6 2.34
30037	24533 76 130 2762 20.23 22.342281782535 3 1 16 20 266
30038	24609 107 130 2762 20.23 22.342281782535 3 0.46666663885117 0.79999999701977 1.7666666358709 1.1077777470483
30039	24716 81 130 2762 20.23 22.342281782535 3 0.1 1.7 2.2 3.06
30040	24797 149 148 3140 20.24 22.682479412738 6 1 7 18 84
30041	24946 238 148 3140 20.24 22.682479412738 6 0.61538460850716 0.8823529407382 4.6548803821206 3.6708276576167
30042	25184 161 148 3140 20.24 22.682479412738 6 0.1 0.8 2.3 1.23
30043	25345 95 237 2176 20.35 21.860109324852 4 2 7 14 66
30044	25440 133 237 2176 20.35 21.860109324852 4 0.125 0.875 2.3692307621241 1.7329659674154
30045	25573 103 237 2176 20.35 21.860109324852 4 0.2 0.8 1.7 0.93
30046	25676 96 714 3630 20.76 23.363576729662 4 4 11 29 237
30047	25772 155 714 3630 20.76 23.363576729662 4 0.14285713434219 0.94285714253783 2.3756193779409 1.8415776815419
30048	25927 103 714 3630 20.76 23.363576729662 4 0.5 1.2 3.2 2.86
30049	26030 67 260 3222 20.37 22.775534490351 3 2 13 24 254
30050	26097 111 260 3222 20.37 22.775534490351 3 0.13333332538605 0.83636364340782 1.5696969628334 1.0772819125204
30051	26208 70 260 3222 20.37 22.775534490351 3 0.2 1.4 2.6 3
30052	26278 37 375 1446 20.48 21.28 2 3 7 10 58
30053	26315 54 375 1446 20.48 21.28 2 0.22222220897675 0.5 0.72222220897675 0.2993827101625
30054	26369 41 375 1446 20.48 21.28 2 0.3 0.8 1.1 0.73
30055	26410 66 106 3158 20.19 22.704108881362 3 0 22 23 485
30056	26476 95 106 3158 20.19 22.704108881362 3 0.56862744688988 1 2.3686274439096 1.9633371685881
30057	26571 69 106 3158 20.19 22.704108881362 3 0 2.3 2.5 5.33
30058	26640 93 292 2968 20.4 22.518401030583 4 1 9 20 150
30059	26733 141 292 2968 20.4 22.518401030583 4 0.25 0.97368421033025 2.5478221364319 1.8949366789451
30060	26874 99 292 2968 20.4 22.518401030583 4 0.2 1 2.3 1.89
30061	26973 67 400 3069 20.51 22.616249392938 3 3 14 22 230
30062	27040 98 400 3069 20.51 22.616249392938 3 0.30000001192093 0.88636363297701 1.6863636448979 1.1256404970168
30063	27138 72 400 3069 20.51 22.616249392938 3 0.3 1.5 2.4 2.7
30064	27210 96 309 3602 20.42 23.327737069452 4 2 15 28 302
30065	27306 143 309 3602 20.42 23.327737069452 4 0.25 0.95652173832059 2.675374198705 2.0923384370008
30066	27449 103 309 3602 20.42 23.327737069452 4 0.2 1.6 3.1 3.57
30067	27552 152 136 3943 20.23 24.026782384741 6 0 8 32 210
30068	27704 218 136 3943 20.23 24.026782384741 6 0.28571426868439 1 4.4219793453813 3.6288765525635
30069	27922 162 136 3943 20.23 24.026782384741 6 0 0.9 3.7 2.79
30070	28084 183 429 3972 20.54 24.075092706971 7 1 15 32 284
30071	28267 274 429 3972 20.54 24.075092706971 7 0.34782606363297 0.98666666634381 5.6197796622291 4.9294602444367
30072	28541 196 429 3972 20.54 24.075092706971 7 0.2 1.6 3.8 3.48
30073	28737 152 699 3635 20.75 23.366353633909 6 1 9 26 156
30074	28889 242 699 3635 20.75 23.366353633909 6 0.16666668653488 0.98412698321044 4.3055555447936 3.6969015882379
30075	29131 162 699 3635 20.75 23.366353633909 6 0.2 1 3.1 2.03
30076	29293 67 556 3120 20.66 22.665905090842 3 1 17 22 306
30077	29360 111 556 3120 20.66 22.665905090842 3 0.33333331346512 0.97777777723968 1.8388888817281 1.3457098762268
30078	29471 72 556 3120 20.66 22.665905090842 3 0.2 1.8 2.4 3.44
30079	29543 67 359 2923 20.47 22.477095897123 3 2 14 20 216
30080	29610 110 359 2923 20.47 22.477095897123 3 0.2631579041481 0.88888888806105 1.8187134489417 1.303819969033
30081	29720 72 359 2923 20.47 22.477095897123 3 0.2 1.5 2.2 2.54
30082	29792 68 585 3522 20.68 23.188076584187 3 4 13 27 285
30083	29860 111 585 3522 20.68 23.188076584187 3 0.33333331346512 0.84848484396935 1.5318181812763 0.95353764500062
30084	29971 72 585 3522 20.68 23.188076584187 3 0.4 1.4 2.9 3.33
30085	30043 75 601 2837 20.69 22.400180199222 3 4 9 19 133
30086	30118 120 601 2837 20.69 22.400180199222 3 0.33333331346512 0.81818181276321 1.5086579918861 0.9080836030924
30087	30238 79 601 2837 20.69 22.400180199222 3 0.4 1 2.1 1.65
30088	30317 120 189 2501 20.3 22.113525593232 5 0 5 14 54
30089	30437 154 189 2501 20.3 22.113525593232 5 0.5 1 3.6188811063766 2.8130837492107
30090	30591 128 189 2501 20.3 22.113525593232 5 0 0.6 1.8 0.86
30091	30719 66 638 1991 20.71 21.717043352434 3 1 7 12 66
30092	30785 111 638 1991 20.71 21.717043352434 3 0.33333331346512 0.92857142537832 1.7234431728721 1.1863737159804
30093	30896 72 638 1991 20.71 21.717043352434 3 0.2 0.8 1.4 0.84
30094	30968 97 652 3664 20.72 23.430766687445 4 2 12 28 264
30095	31065 134 652 3664 20.72 23.430766687445 4 0.33333331346512 0.97222222201526 2.4930555354804 1.8571083968459
30096	31199 103 652 3664 20.72 23.430766687445 4 0.3 1.3 3.1 3.15
30097	31302 125 801 4033 20.83 24.247860130368 5 2 15 35 339
30098	31427 178 801 4033 20.83 24.247860130368 5 0.375 0.97619047574699 3.7379599492997 3.0678387908841
30099	31605 134 801 4033 20.83 24.247860130368 5 0.3 1.6 3.9 4.03
30100	31739 211 223 4305 20.34 25.470332441505 8 0 17 44 456
30101	31950 288 223 4305 20.34 25.470332441505 8 0.5 1 6.6012843810022 5.6923621948763
30102	32238 223 223 4305 20.34 25.470332441505 8 0 1.8 5.1 5.51
30103	32461 68 1767 3204 21.55 22.753522615881 3 3 12 22 202
30104	32529 113 1767 3204 21.55 22.753522615881 3 0.076923072338104 0.94444444403052 1.7955610714853 1.4972681277022
30105	32642 73 1767 3204 21.55 22.753522615881 3 0.4 1.2 2.4 2.24
30106	32715 210 346 4280 20.46 25.309337664806 8 1 9 39 231
30107	32925 317 346 4280 20.46 25.309337664806 8 0.5 0.95505617931485 6.4291125722229 5.4022544262724
30108	33242 224 346 4280 20.46 25.309337664806 8 0.1 1 4.6 3.14
30109	33466 122 363 3969 20.47 24.066028538969 5 1 8 24 142
30110	33588 184 363 3969 20.47 24.066028538969 5 0.5 0.92307692021132 3.6948717832565 2.8964562600442
30111	33772 132 363 3969 20.47 24.066028538969 5 0.1 0.9 2.8 1.92
30112	33904 40 2331 3516 21.98 23.18 2 11 16 27 377
30113	33944 68 2331 3516 21.98 23.18 2 0.15789473056793 0.83076922595501 0.98866395652294 0.71510825273501
30114	34012 42 2331 3516 21.98 23.18 2 1.2 1.6 2.8 4
30115	34054 66 752 3052 20.79 22.594920431098 3 4 9 20 146
30116	34120 101 752 3052 20.79 22.594920431098 3 0.42857140302658 0.83720929920673 1.7032807022333 1.0759991081704
30117	34221 70 752 3052 20.79 22.594920431098 3 0.4 1 2.2 1.8
30118	34291 65 622 2952 20.7 22.508999695391 3 3 11 19 155
30119	34356 96 622 2952 20.7 22.508999695391 3 0.38888889551163 0.86842104792595 1.7573099434376 1.1553896895331
30120	34452 70 622 2952 20.7 22.508999695391 3 0.3 1.2 2.1 1.89
30121	34522 67 1218 2851 21.11 22.415294403138 3 5 7 18 110
30122	34589 101 1218 2851 21.11 22.415294403138 3 0.125 0.82352940738201 1.5913865417242 1.1070909799976
30123	34690 73 1218 2851 21.11 22.415294403138 3 0.6 0.7 2 1.34
30124	34763 127 2262 4200 21.92 24.833586353954 5 4 15 40 402
30125	34890 200 2262 4200 21.92 24.833586353954 5 0.21052628755569 0.95180723071098 3.8697109334171 3.3994600631017
30126	35090 135 2262 4200 21.92 24.833586353954 5 0.5 1.5 4.4 4.56
30127	35225 124 513 3282 20.63 22.850199411708 5 2 8 20 102
30128	35349 198 513 3282 20.63 22.850199411708 5 0.38461536169052 0.94915254414082 3.7147202715278 2.969182317993
30129	35547 134 513 3282 20.63 22.850199411708 5 0.2 0.9 2.4 1.42
30130	35681 38 816 2538 20.84 22.14 2 4 12 16 160
30131	35719 54 816 2538 20.84 22.14 2 0.47826087474823 0.5 0.97826087474823 0.47873346431494
30132	35773 41 816 2538 20.84 22.14 2 0.4 1.3 1.7 1.85
30133	35814 124 839 2693 20.85 22.274206307337 5 1 5 14 52
30134	35938 174 839 2693 20.85 22.274206307337 5 0.5 0.96296296268702 3.8027065396309 3.0363130993327
30135	36112 134 839 2693 20.85 22.274206307337 5 0.2 0.6 1.8 0.76
30136	36246 97 1002 3128 20.96 22.672391335144 4 1 10 19 135