version 2
run Stability2-4-20130528-01:22:00-24168
attr configname Stability2
attr datetime 20130528-01:22:00
attr experiment Stability2
attr inifile omnetpp.ini
attr iterationvars $0=10
attr iterationvars2 "$0=10, $repetition=4"
attr measurement $0=10
attr network Network
attr processid 24168
attr repetition 4
attr replication #4
attr resultdir results
attr runnumber 4
attr seedset 4

vector 150004  Network.churner  inGoingSizeSig:vector  ETV
vector 120004  Network.dyn_peer[0]  lookupHopsSig:vector  ETV
vector 120005  Network.dyn_peer[0]  lookupStabilitySig:vector  ETV
vector 120006  Network.dyn_peer[0]  lookupTimeSig:vector  ETV
vector 120007  Network.dyn_peer[1]  lookupHopsSig:vector  ETV
vector 120008  Network.dyn_peer[1]  lookupStabilitySig:vector  ETV
vector 120009  Network.dyn_peer[1]  lookupTimeSig:vector  ETV
vector 120019  Network.dyn_peer[5]  lookupHopsSig:vector  ETV
vector 120020  Network.dyn_peer[5]  lookupStabilitySig:vector  ETV
vector 120021  Network.dyn_peer[5]  lookupTimeSig:vector  ETV
vector 120022  Network.dyn_peer[6]  lookupHopsSig:vector  ETV
vector 120023  Network.dyn_peer[6]  lookupStabilitySig:vector  ETV
vector 120024  Network.dyn_peer[6]  lookupTimeSig:vector  ETV
vector 120055  Network.dyn_peer[17]  lookupHopsSig:vector  ETV
vector 120056  Network.dyn_peer[17]  lookupStabilitySig:vector  ETV
vector 120057  Network.dyn_peer[17]  lookupTimeSig:vector  ETV
vector 120037  Network.dyn_peer[11]  lookupHopsSig:vector  ETV
vector 120038  Network.dyn_peer[11]  lookupStabilitySig:vector  ETV
vector 120039  Network.dyn_peer[11]  lookupTimeSig:vector  ETV
vector 120010  Network.dyn_peer[2]  lookupHopsSig:vector  ETV
vector 120011  Network.dyn_peer[2]  lookupStabilitySig:vector  ETV
vector 120012  Network.dyn_peer[2]  lookupTimeSig:vector  ETV
vector 120016  Network.dyn_peer[4]  lookupHopsSig:vector  ETV
vector 120017  Network.dyn_peer[4]  lookupStabilitySig:vector  ETV
vector 120018  Network.dyn_peer[4]  lookupTimeSig:vector  ETV
vector 120025  Network.dyn_peer[7]  lookupHopsSig:vector  ETV
vector 120026  Network.dyn_peer[7]  lookupStabilitySig:vector  ETV
vector 120027  Network.dyn_peer[7]  lookupTimeSig:vector  ETV
vector 120088  Network.dyn_peer[28]  lookupHopsSig:vector  ETV
vector 120089  Network.dyn_peer[28]  lookupStabilitySig:vector  ETV
vector 120090  Network.dyn_peer[28]  lookupTimeSig:vector  ETV
vector 120046  Network.dyn_peer[14]  lookupHopsSig:vector  ETV
vector 120047  Network.dyn_peer[14]  lookupStabilitySig:vector  ETV
vector 120048  Network.dyn_peer[14]  lookupTimeSig:vector  ETV
vector 120028  Network.dyn_peer[8]  lookupHopsSig:vector  ETV
vector 120029  Network.dyn_peer[8]  lookupStabilitySig:vector  ETV
vector 120030  Network.dyn_peer[8]  lookupTimeSig:vector  ETV
vector 120031  Network.dyn_peer[9]  lookupHopsSig:vector  ETV
vector 120032  Network.dyn_peer[9]  lookupStabilitySig:vector  ETV
vector 120033  Network.dyn_peer[9]  lookupTimeSig:vector  ETV
vector 120067  Network.dyn_peer[21]  lookupHopsSig:vector  ETV
vector 120068  Network.dyn_peer[21]  lookupStabilitySig:vector  ETV
vector 120069  Network.dyn_peer[21]  lookupTimeSig:vector  ETV
vector 120040  Network.dyn_peer[12]  lookupHopsSig:vector  ETV
vector 120041  Network.dyn_peer[12]  lookupStabilitySig:vector  ETV
vector 120042  Network.dyn_peer[12]  lookupTimeSig:vector  ETV
vector 120043  Network.dyn_peer[13]  lookupHopsSig:vector  ETV
vector 120044  Network.dyn_peer[13]  lookupStabilitySig:vector  ETV
vector 120045  Network.dyn_peer[13]  lookupTimeSig:vector  ETV
vector 120073  Network.dyn_peer[23]  lookupHopsSig:vector  ETV
vector 120074  Network.dyn_peer[23]  lookupStabilitySig:vector  ETV
vector 120075  Network.dyn_peer[23]  lookupTimeSig:vector  ETV
vector 120079  Network.dyn_peer[25]  lookupHopsSig:vector  ETV
vector 120080  Network.dyn_peer[25]  lookupStabilitySig:vector  ETV
vector 120081  Network.dyn_peer[25]  lookupTimeSig:vector  ETV
vector 120112  Network.dyn_peer[36]  lookupHopsSig:vector  ETV
vector 120113  Network.dyn_peer[36]  lookupStabilitySig:vector  ETV
vector 120114  Network.dyn_peer[36]  lookupTimeSig:vector  ETV
vector 120064  Network.dyn_peer[20]  lookupHopsSig:vector  ETV
vector 120065  Network.dyn_peer[20]  lookupStabilitySig:vector  ETV
vector 120066  Network.dyn_peer[20]  lookupTimeSig:vector  ETV
vector 120070  Network.dyn_peer[22]  lookupHopsSig:vector  ETV
vector 120071  Network.dyn_peer[22]  lookupStabilitySig:vector  ETV
vector 120072  Network.dyn_peer[22]  lookupTimeSig:vector  ETV
vector 120013  Network.dyn_peer[3]  lookupHopsSig:vector  ETV
vector 120014  Network.dyn_peer[3]  lookupStabilitySig:vector  ETV
vector 120015  Network.dyn_peer[3]  lookupTimeSig:vector  ETV
vector 120049  Network.dyn_peer[15]  lookupHopsSig:vector  ETV
vector 120050  Network.dyn_peer[15]  lookupStabilitySig:vector  ETV
vector 120051  Network.dyn_peer[15]  lookupTimeSig:vector  ETV
vector 120082  Network.dyn_peer[26]  lookupHopsSig:vector  ETV
vector 120083  Network.dyn_peer[26]  lookupStabilitySig:vector  ETV
vector 120084  Network.dyn_peer[26]  lookupTimeSig:vector  ETV
vector 120118  Network.dyn_peer[38]  lookupHopsSig:vector  ETV
vector 120119  Network.dyn_peer[38]  lookupStabilitySig:vector  ETV
vector 120120  Network.dyn_peer[38]  lookupTimeSig:vector  ETV
vector 120061  Network.dyn_peer[19]  lookupHopsSig:vector  ETV
vector 120062  Network.dyn_peer[19]  lookupStabilitySig:vector  ETV
vector 120063  Network.dyn_peer[19]  lookupTimeSig:vector  ETV
vector 120034  Network.dyn_peer[10]  lookupHopsSig:vector  ETV
vector 120035  Network.dyn_peer[10]  lookupStabilitySig:vector  ETV
vector 120036  Network.dyn_peer[10]  lookupTimeSig:vector  ETV
vector 120154  Network.dyn_peer[50]  lookupHopsSig:vector  ETV
vector 120155  Network.dyn_peer[50]  lookupStabilitySig:vector  ETV
vector 120156  Network.dyn_peer[50]  lookupTimeSig:vector  ETV
vector 120157  Network.dyn_peer[51]  lookupHopsSig:vector  ETV
vector 120158  Network.dyn_peer[51]  lookupStabilitySig:vector  ETV
vector 120159  Network.dyn_peer[51]  lookupTimeSig:vector  ETV
vector 120100  Network.dyn_peer[32]  lookupHopsSig:vector  ETV
vector 120101  Network.dyn_peer[32]  lookupStabilitySig:vector  ETV
vector 120102  Network.dyn_peer[32]  lookupTimeSig:vector  ETV
vector 120160  Network.dyn_peer[52]  lookupHopsSig:vector  ETV
vector 120161  Network.dyn_peer[52]  lookupStabilitySig:vector  ETV
vector 120162  Network.dyn_peer[52]  lookupTimeSig:vector  ETV
vector 120052  Network.dyn_peer[16]  lookupHopsSig:vector  ETV
vector 120053  Network.dyn_peer[16]  lookupStabilitySig:vector  ETV
vector 120054  Network.dyn_peer[16]  lookupTimeSig:vector  ETV
vector 120085  Network.dyn_peer[27]  lookupHopsSig:vector  ETV
vector 120086  Network.dyn_peer[27]  lookupStabilitySig:vector  ETV
vector 120087  Network.dyn_peer[27]  lookupTimeSig:vector  ETV
vector 120058  Network.dyn_peer[18]  lookupHopsSig:vector  ETV
vector 120059  Network.dyn_peer[18]  lookupStabilitySig:vector  ETV
vector 120060  Network.dyn_peer[18]  lookupTimeSig:vector  ETV
vector 120091  Network.dyn_peer[29]  lookupHopsSig:vector  ETV
vector 120092  Network.dyn_peer[29]  lookupStabilitySig:vector  ETV
vector 120093  Network.dyn_peer[29]  lookupTimeSig:vector  ETV
vector 120121  Network.dyn_peer[39]  lookupHopsSig:vector  ETV
vector 120122  Network.dyn_peer[39]  lookupStabilitySig:vector  ETV
vector 120123  Network.dyn_peer[39]  lookupTimeSig:vector  ETV
vector 120220  Network.dyn_peer[72]  lookupHopsSig:vector  ETV
vector 120221  Network.dyn_peer[72]  lookupStabilitySig:vector  ETV
vector 120222  Network.dyn_peer[72]  lookupTimeSig:vector  ETV
vector 120103  Network.dyn_peer[33]  lookupHopsSig:vector  ETV
vector 120104  Network.dyn_peer[33]  lookupStabilitySig:vector  ETV
vector 120105  Network.dyn_peer[33]  lookupTimeSig:vector  ETV
vector 120076  Network.dyn_peer[24]  lookupHopsSig:vector  ETV
vector 120077  Network.dyn_peer[24]  lookupStabilitySig:vector  ETV
vector 120078  Network.dyn_peer[24]  lookupTimeSig:vector  ETV
vector 120106  Network.dyn_peer[34]  lookupHopsSig:vector  ETV
vector 120107  Network.dyn_peer[34]  lookupStabilitySig:vector  ETV
vector 120108  Network.dyn_peer[34]  lookupTimeSig:vector  ETV
vector 120115  Network.dyn_peer[37]  lookupHopsSig:vector  ETV
vector 120116  Network.dyn_peer[37]  lookupStabilitySig:vector  ETV
vector 120117  Network.dyn_peer[37]  lookupTimeSig:vector  ETV
vector 120145  Network.dyn_peer[47]  lookupHopsSig:vector  ETV
vector 120146  Network.dyn_peer[47]  lookupStabilitySig:vector  ETV
vector 120147  Network.dyn_peer[47]  lookupTimeSig:vector  ETV
vector 120097  Network.dyn_peer[31]  lookupHopsSig:vector  ETV
vector 120098  Network.dyn_peer[31]  lookupStabilitySig:vector  ETV
vector 120099  Network.dyn_peer[31]  lookupTimeSig:vector  ETV
vector 120127  Network.dyn_peer[41]  lookupHopsSig:vector  ETV
vector 120128  Network.dyn_peer[41]  lookupStabilitySig:vector  ETV
vector 120129  Network.dyn_peer[41]  lookupTimeSig:vector  ETV
vector 120214  Network.dyn_peer[70]  lookupHopsSig:vector  ETV
vector 120215  Network.dyn_peer[70]  lookupStabilitySig:vector  ETV
vector 120216  Network.dyn_peer[70]  lookupTimeSig:vector  ETV
vector 120217  Network.dyn_peer[71]  lookupHopsSig:vector  ETV
vector 120218  Network.dyn_peer[71]  lookupStabilitySig:vector  ETV
vector 120219  Network.dyn_peer[71]  lookupTimeSig:vector  ETV
vector 120109  Network.dyn_peer[35]  lookupHopsSig:vector  ETV
vector 120110  Network.dyn_peer[35]  lookupStabilitySig:vector  ETV
vector 120111  Network.dyn_peer[35]  lookupTimeSig:vector  ETV
vector 120151  Network.dyn_peer[49]  lookupHopsSig:vector  ETV
vector 120152  Network.dyn_peer[49]  lookupStabilitySig:vector  ETV
vector 120153  Network.dyn_peer[49]  lookupTimeSig:vector  ETV
vector 120094  Network.dyn_peer[30]  lookupHopsSig:vector  ETV
vector 120095  Network.dyn_peer[30]  lookupStabilitySig:vector  ETV
vector 120096  Network.dyn_peer[30]  lookupTimeSig:vector  ETV
vector 120229  Network.dyn_peer[75]  lookupHopsSig:vector  ETV
vector 120230  Network.dyn_peer[75]  lookupStabilitySig:vector  ETV
vector 120231  Network.dyn_peer[75]  lookupTimeSig:vector  ETV
vector 120202  Network.dyn_peer[66]  lookupHopsSig:vector  ETV
vector 120203  Network.dyn_peer[66]  lookupStabilitySig:vector  ETV
vector 120204  Network.dyn_peer[66]  lookupTimeSig:vector  ETV
vector 120232  Network.dyn_peer[76]  lookupHopsSig:vector  ETV
vector 120233  Network.dyn_peer[76]  lookupStabilitySig:vector  ETV
vector 120234  Network.dyn_peer[76]  lookupTimeSig:vector  ETV
vector 120205  Network.dyn_peer[67]  lookupHopsSig:vector  ETV
vector 120206  Network.dyn_peer[67]  lookupStabilitySig:vector  ETV
vector 120207  Network.dyn_peer[67]  lookupTimeSig:vector  ETV
vector 120139  Network.dyn_peer[45]  lookupHopsSig:vector  ETV
vector 120140  Network.dyn_peer[45]  lookupStabilitySig:vector  ETV
vector 120141  Network.dyn_peer[45]  lookupTimeSig:vector  ETV
vector 120298  Network.dyn_peer[98]  lookupHopsSig:vector  ETV
vector 120299  Network.dyn_peer[98]  lookupStabilitySig:vector  ETV
vector 120300  Network.dyn_peer[98]  lookupTimeSig:vector  ETV
vector 120181  Network.dyn_peer[59]  lookupHopsSig:vector  ETV
vector 120182  Network.dyn_peer[59]  lookupStabilitySig:vector  ETV
vector 120183  Network.dyn_peer[59]  lookupTimeSig:vector  ETV
vector 120184  Network.dyn_peer[60]  lookupHopsSig:vector  ETV
vector 120185  Network.dyn_peer[60]  lookupStabilitySig:vector  ETV
vector 120186  Network.dyn_peer[60]  lookupTimeSig:vector  ETV
vector 120187  Network.dyn_peer[61]  lookupHopsSig:vector  ETV
vector 120188  Network.dyn_peer[61]  lookupStabilitySig:vector  ETV
vector 120189  Network.dyn_peer[61]  lookupTimeSig:vector  ETV
vector 120247  Network.dyn_peer[81]  lookupHopsSig:vector  ETV
vector 120248  Network.dyn_peer[81]  lookupStabilitySig:vector  ETV
vector 120249  Network.dyn_peer[81]  lookupTimeSig:vector  ETV
vector 120277  Network.dyn_peer[91]  lookupHopsSig:vector  ETV
vector 120278  Network.dyn_peer[91]  lookupStabilitySig:vector  ETV
vector 120279  Network.dyn_peer[91]  lookupTimeSig:vector  ETV
vector 120130  Network.dyn_peer[42]  lookupHopsSig:vector  ETV
vector 120131  Network.dyn_peer[42]  lookupStabilitySig:vector  ETV
vector 120132  Network.dyn_peer[42]  lookupTimeSig:vector  ETV
vector 120253  Network.dyn_peer[83]  lookupHopsSig:vector  ETV
vector 120254  Network.dyn_peer[83]  lookupStabilitySig:vector  ETV
vector 120255  Network.dyn_peer[83]  lookupTimeSig:vector  ETV
vector 120199  Network.dyn_peer[65]  lookupHopsSig:vector  ETV
vector 120200  Network.dyn_peer[65]  lookupStabilitySig:vector  ETV
vector 120201  Network.dyn_peer[65]  lookupTimeSig:vector  ETV
vector 120175  Network.dyn_peer[57]  lookupHopsSig:vector  ETV
vector 120176  Network.dyn_peer[57]  lookupStabilitySig:vector  ETV
vector 120177  Network.dyn_peer[57]  lookupTimeSig:vector  ETV
vector 120211  Network.dyn_peer[69]  lookupHopsSig:vector  ETV
vector 120212  Network.dyn_peer[69]  lookupStabilitySig:vector  ETV
vector 120213  Network.dyn_peer[69]  lookupTimeSig:vector  ETV
vector 120241  Network.dyn_peer[79]  lookupHopsSig:vector  ETV
vector 120242  Network.dyn_peer[79]  lookupStabilitySig:vector  ETV
vector 120243  Network.dyn_peer[79]  lookupTimeSig:vector  ETV
vector 120124  Network.dyn_peer[40]  lookupHopsSig:vector  ETV
vector 120125  Network.dyn_peer[40]  lookupStabilitySig:vector  ETV
vector 120126  Network.dyn_peer[40]  lookupTimeSig:vector  ETV
vector 120274  Network.dyn_peer[90]  lookupHopsSig:vector  ETV
vector 120275  Network.dyn_peer[90]  lookupStabilitySig:vector  ETV
vector 120276  Network.dyn_peer[90]  lookupTimeSig:vector  ETV
vector 120283  Network.dyn_peer[93]  lookupHopsSig:vector  ETV
vector 120284  Network.dyn_peer[93]  lookupStabilitySig:vector  ETV
vector 120285  Network.dyn_peer[93]  lookupTimeSig:vector  ETV
vector 120148  Network.dyn_peer[48]  lookupHopsSig:vector  ETV
vector 120149  Network.dyn_peer[48]  lookupStabilitySig:vector  ETV
vector 120150  Network.dyn_peer[48]  lookupTimeSig:vector  ETV
vector 120268  Network.dyn_peer[88]  lookupHopsSig:vector  ETV
vector 120269  Network.dyn_peer[88]  lookupStabilitySig:vector  ETV
vector 120270  Network.dyn_peer[88]  lookupTimeSig:vector  ETV
vector 120256  Network.dyn_peer[84]  lookupHopsSig:vector  ETV
vector 120257  Network.dyn_peer[84]  lookupStabilitySig:vector  ETV
vector 120258  Network.dyn_peer[84]  lookupTimeSig:vector  ETV
vector 120169  Network.dyn_peer[55]  lookupHopsSig:vector  ETV
vector 120170  Network.dyn_peer[55]  lookupStabilitySig:vector  ETV
vector 120171  Network.dyn_peer[55]  lookupTimeSig:vector  ETV
vector 120259  Network.dyn_peer[85]  lookupHopsSig:vector  ETV
vector 120260  Network.dyn_peer[85]  lookupStabilitySig:vector  ETV
vector 120261  Network.dyn_peer[85]  lookupTimeSig:vector  ETV
vector 120193  Network.dyn_peer[63]  lookupHopsSig:vector  ETV
vector 120194  Network.dyn_peer[63]  lookupStabilitySig:vector  ETV
vector 120195  Network.dyn_peer[63]  lookupTimeSig:vector  ETV
vector 120223  Network.dyn_peer[73]  lookupHopsSig:vector  ETV
vector 120224  Network.dyn_peer[73]  lookupStabilitySig:vector  ETV
vector 120225  Network.dyn_peer[73]  lookupTimeSig:vector  ETV
vector 120166  Network.dyn_peer[54]  lookupHopsSig:vector  ETV
vector 120167  Network.dyn_peer[54]  lookupStabilitySig:vector  ETV
vector 120168  Network.dyn_peer[54]  lookupTimeSig:vector  ETV
vector 120289  Network.dyn_peer[95]  lookupHopsSig:vector  ETV
vector 120290  Network.dyn_peer[95]  lookupStabilitySig:vector  ETV
vector 120291  Network.dyn_peer[95]  lookupTimeSig:vector  ETV
vector 120142  Network.dyn_peer[46]  lookupHopsSig:vector  ETV
vector 120143  Network.dyn_peer[46]  lookupStabilitySig:vector  ETV
vector 120144  Network.dyn_peer[46]  lookupTimeSig:vector  ETV
vector 120262  Network.dyn_peer[86]  lookupHopsSig:vector  ETV
vector 120263  Network.dyn_peer[86]  lookupStabilitySig:vector  ETV
vector 120264  Network.dyn_peer[86]  lookupTimeSig:vector  ETV
vector 120301  Network.dyn_peer[99]  lookupHopsSig:vector  ETV
vector 120302  Network.dyn_peer[99]  lookupStabilitySig:vector  ETV
vector 120303  Network.dyn_peer[99]  lookupTimeSig:vector  ETV
vector 120163  Network.dyn_peer[53]  lookupHopsSig:vector  ETV
vector 120164  Network.dyn_peer[53]  lookupStabilitySig:vector  ETV
vector 120165  Network.dyn_peer[53]  lookupTimeSig:vector  ETV
vector 120295  Network.dyn_peer[97]  lookupHopsSig:vector  ETV
vector 120296  Network.dyn_peer[97]  lookupStabilitySig:vector  ETV
vector 120297  Network.dyn_peer[97]  lookupTimeSig:vector  ETV
vector 120238  Network.dyn_peer[78]  lookupHopsSig:vector  ETV
vector 120239  Network.dyn_peer[78]  lookupStabilitySig:vector  ETV
vector 120240  Network.dyn_peer[78]  lookupTimeSig:vector  ETV
vector 120208  Network.dyn_peer[68]  lookupHopsSig:vector  ETV
vector 120209  Network.dyn_peer[68]  lookupStabilitySig:vector  ETV
vector 120210  Network.dyn_peer[68]  lookupTimeSig:vector  ETV
vector 120286  Network.dyn_peer[94]  lookupHopsSig:vector  ETV
vector 120287  Network.dyn_peer[94]  lookupStabilitySig:vector  ETV
vector 120288  Network.dyn_peer[94]  lookupTimeSig:vector  ETV
vector 120235  Network.dyn_peer[77]  lookupHopsSig:vector  ETV
vector 120236  Network.dyn_peer[77]  lookupStabilitySig:vector  ETV
vector 120237  Network.dyn_peer[77]  lookupTimeSig:vector  ETV
vector 120265  Network.dyn_peer[87]  lookupHopsSig:vector  ETV
vector 120266  Network.dyn_peer[87]  lookupStabilitySig:vector  ETV
vector 120267  Network.dyn_peer[87]  lookupTimeSig:vector  ETV
vector 120133  Network.dyn_peer[43]  lookupHopsSig:vector  ETV
vector 120134  Network.dyn_peer[43]  lookupStabilitySig:vector  ETV
vector 120135  Network.dyn_peer[43]  lookupTimeSig:vector  ETV
vector 120196  Network.dyn_peer[64]  lookupHopsSig:vector  ETV
vector 120197  Network.dyn_peer[64]  lookupStabilitySig:vector  ETV
vector 120198  Network.dyn_peer[64]  lookupTimeSig:vector  ETV
vector 120271  Network.dyn_peer[89]  lookupHopsSig:vector  ETV
vector 120272  Network.dyn_peer[89]  lookupStabilitySig:vector  ETV
vector 120273  Network.dyn_peer[89]  lookupTimeSig:vector  ETV
vector 120226  Network.dyn_peer[74]  lookupHopsSig:vector  ETV
vector 120227  Network.dyn_peer[74]  lookupStabilitySig:vector  ETV
vector 120228  Network.dyn_peer[74]  lookupTimeSig:vector  ETV
vector 120136  Network.dyn_peer[44]  lookupHopsSig:vector  ETV
vector 120137  Network.dyn_peer[44]  lookupStabilitySig:vector  ETV
vector 120138  Network.dyn_peer[44]  lookupTimeSig:vector  ETV
vector 120244  Network.dyn_peer[80]  lookupHopsSig:vector  ETV
vector 120245  Network.dyn_peer[80]  lookupStabilitySig:vector  ETV
vector 120246  Network.dyn_peer[80]  lookupTimeSig:vector  ETV
vector 120172  Network.dyn_peer[56]  lookupHopsSig:vector  ETV
vector 120173  Network.dyn_peer[56]  lookupStabilitySig:vector  ETV
vector 120174  Network.dyn_peer[56]  lookupTimeSig:vector  ETV
vector 120190  Network.dyn_peer[62]  lookupHopsSig:vector  ETV
vector 120191  Network.dyn_peer[62]  lookupStabilitySig:vector  ETV
vector 120192  Network.dyn_peer[62]  lookupTimeSig:vector  ETV
vector 120280  Network.dyn_peer[92]  lookupHopsSig:vector  ETV
vector 120281  Network.dyn_peer[92]  lookupStabilitySig:vector  ETV
vector 120282  Network.dyn_peer[92]  lookupTimeSig:vector  ETV
vector 120250  Network.dyn_peer[82]  lookupHopsSig:vector  ETV
vector 120251  Network.dyn_peer[82]  lookupStabilitySig:vector  ETV
vector 120252  Network.dyn_peer[82]  lookupTimeSig:vector  ETV
vector 120178  Network.dyn_peer[58]  lookupHopsSig:vector  ETV
vector 120179  Network.dyn_peer[58]  lookupStabilitySig:vector  ETV
vector 120180  Network.dyn_peer[58]  lookupTimeSig:vector  ETV
vector 120292  Network.dyn_peer[96]  lookupHopsSig:vector  ETV
vector 120293  Network.dyn_peer[96]  lookupStabilitySig:vector  ETV
vector 120294  Network.dyn_peer[96]  lookupTimeSig:vector  ETV
120004	16	20.01	0
120004	248	20.41	3
120004	2698	22.321750886418	18
120004	3489	23.028282196585	6
120004	4224	23.930817311241	8
120005	16	20.01	1
120005	248	20.41	0.39999997615814
120005	2698	22.321750886418	0.14285713434219
120005	3489	23.028282196585	0.85714285075665
120005	4224	23.930817311241	0.88059701770544
120006	16	20.01	0
120006	248	20.41	0.4
120006	2698	22.321750886418	1.9
120006	3489	23.028282196585	0.7
120006	4224	23.930817311241	0.9
120007	53	20.12	1
120007	1045	21.02	8
120007	3062	22.629180806505	13
120008	53	20.12	0.79999999701977
120008	1045	21.02	-0.33333337306976
120008	3062	22.629180806505	0.58064517378807
120009	53	20.12	0.1
120009	1045	21.02	0.9
120009	3062	22.629180806505	1.4
120010	120	20.23	2
120010	2364	22.03	17
120010	3892	23.475065730609	8
120010	4047	23.681024202512	1
120010	4456	24.386896791796	6
120011	120	20.23	0.59999999403954
120011	2364	22.03	0
120011	3892	23.475065730609	0.84615384042263
120011	4047	23.681024202512	0.9833333324641
120011	4456	24.386896791796	0.92405063658953
120012	120	20.23	0.2
120012	2364	22.03	1.8
120012	3892	23.475065730609	0.9
120012	4047	23.681024202512	0.2
120012	4456	24.386896791796	0.7
120013	387	20.54	5
120013	650	20.74	1
120013	2127	21.840461513076	10
120013	2727	22.341447982044	4
120013	3702	23.24681146096	8
120014	387	20.54	0
120014	650	20.74	0.79999999701977
120014	2127	21.840461513076	0.33333331346512
120014	2727	22.341447982044	0.81818181276321
120014	3702	23.24681146096	0.82222221791744
120015	387	20.54	0.5
120015	650	20.74	0.2
120015	2127	21.840461513076	1.1
120015	2727	22.341447982044	0.5
120015	3702	23.24681146096	0.9
120016	134	20.25	2
120016	398	20.55	2
120016	1365	21.259470090609	6
120016	4242	23.961515303398	23
120016	4529	24.563059138634	5
120016	4750	25.264383842234	6
120016	4798	25.466821420885	1
120017	134	20.25	0.59999999403954
120017	398	20.55	0.59999999403954
120017	1365	21.259470090609	0.25
120017	4242	23.961515303398	0.66666665673256
120017	4529	24.563059138634	0.93902438879013
120017	4750	25.264383842234	0.93181817978621
120017	4798	25.466821420885	0.9886363632977
120018	134	20.25	0.2
120018	398	20.55	0.3
120018	1365	21.259470090609	0.7
120018	4242	23.961515303398	2.4
120018	4529	24.563059138634	0.6
120018	4750	25.264383842234	0.7
120018	4798	25.466821420885	0.2
120019	73	20.16	1
120019	684	20.76	5
120019	1646	21.464489619201	6
120019	1917	21.670306555309	1
120020	73	20.16	0.79999999701977
120020	684	20.76	0
120020	1646	21.464489619201	0.39999997615814
120020	1917	21.670306555309	0.92307692021132
120021	73	20.16	0.1
120021	684	20.76	0.6
120021	1646	21.464489619201	0.7
120021	1917	21.670306555309	0.2
120022	81	20.17	1
120022	545	20.67	4
120022	1122	21.0769200255	3
120022	1670	21.485292007043	3
120022	3446	22.987673778554	12
120022	4262	23.989525178432	9
120023	81	20.17	0.79999999701977
120023	545	20.67	0.19999998807907
120023	1122	21.0769200255	0.5714285671711
120023	1670	21.485292007043	0.69999998807907
120023	3446	22.987673778554	0.71428570151329
120023	4262	23.989525178432	0.87323944270611
120024	81	20.17	0.1
120024	545	20.67	0.5
120024	1122	21.0769200255	0.4
120024	1670	21.485292007043	0.4
120024	3446	22.987673778554	1.3
120024	4262	23.989525178432	1
120025	153	20.28	2
120025	561	20.68	3
120025	842	20.88134203592	1
120025	1692	21.506972351721	4
120025	3474	23.013841538172	14
120025	4001	23.616464652667	5
120025	4280	24.01821577957	3
120025	4621	24.826256708445	7
120025	4712	25.13022435348	2
120026	153	20.28	0.59999999403954
120026	561	20.68	0.39999997615814
120026	842	20.88134203592	0.79999999701977
120026	1692	21.506972351721	0.63636362552643
120026	3474	23.013841538172	0.66666665673256
120026	4001	23.616464652667	0.91379310190678
120026	4280	24.01821577957	0.95833333209157
120026	4621	24.826256708445	0.91666666418314
120026	4712	25.13022435348	0.97674418613315
120027	153	20.28	0.2
120027	561	20.68	0.4
120027	842	20.88134203592	0.2
120027	1692	21.506972351721	0.5
120027	3474	23.013841538172	1.5
120027	4001	23.616464652667	0.6
120027	4280	24.01821577957	0.4
120027	4621	24.826256708445	0.8
120027	4712	25.13022435348	0.3
120028	229	20.39	3
120028	3025	22.59	21
120029	229	20.39	0.39999997615814
120029	3025	22.59	0.30000001192093
120030	229	20.39	0.3
120030	3025	22.59	2.2
120031	239	20.4	3
120031	1273	21.2	7
120031	2214	21.906125252104	6
120031	3158	22.711011890188	7
120031	3374	22.91332105069	1
120032	239	20.4	0.39999997615814
120032	1273	21.2	0.125
120032	2214	21.906125252104	0.64705881476402
120032	3158	22.711011890188	0.79411764442921
120032	3374	22.91332105069	0.97499999962747
120033	239	20.4	0.3
120033	1273	21.2	0.8
120033	2214	21.906125252104	0.7
120033	3158	22.711011890188	0.8
120033	3374	22.91332105069	0.2
120034	468	20.61	5
120034	1165	21.11	4
120034	1705	21.51428928113	3
120034	2096	21.82236559254	2
120035	468	20.61	0
120035	1165	21.11	0.42857140302658
120035	1705	21.51428928113	0.72727271914482
120035	2096	21.82236559254	0.85714285075665
120036	468	20.61	0.5
120036	1165	21.11	0.5
120036	1705	21.51428928113	0.4
120036	2096	21.82236559254	0.3
120037	111	20.22	1
120037	1306	21.22	9
120037	2591	22.228008482945	9
120037	3496	23.035416449643	7
120037	4229	23.938987303592	8
120038	111	20.22	0.79999999701977
120038	1306	21.22	-0.125
120038	2591	22.228008482945	0.5714285671711
120038	3496	23.035416449643	0.83333332836628
120038	4229	23.938987303592	0.8823529407382
120039	111	20.22	0.1
120039	1306	21.22	1
120039	2591	22.228008482945	1
120039	3496	23.035416449643	0.8
120039	4229	23.938987303592	0.9
120040	273	20.43	3
120040	1864	21.63	11
120040	2370	22.034655532969	3
120040	2963	22.544243301722	4
120040	3945	23.544794485443	9
120041	273	20.43	0.39999997615814
120041	1864	21.63	0.15384614467621
120041	2370	22.034655532969	0.83333332836628
120041	2963	22.544243301722	0.85714285075665
120041	3945	23.544794485443	0.83636364340782
120042	273	20.43	0.3
120042	1864	21.63	1.2
120042	2370	22.034655532969	0.4
120042	2963	22.544243301722	0.5
120042	3945	23.544794485443	1
120043	284	20.44	3
120043	3501	23.04	25
120043	3776	23.342137877966	2
120043	4018	23.647813017511	2
120043	4398	24.251307750016	5
120044	284	20.44	0.39999997615814
120044	3501	23.04	0.40476191043854
120044	3776	23.342137877966	0.95918367430568
120044	4018	23.647813017511	0.96551724150777
120044	4398	24.251307750016	0.93421052396297
120045	284	20.44	0.3
120045	3501	23.04	2.6
120045	3776	23.342137877966	0.3
120045	4018	23.647813017511	0.3
120045	4398	24.251307750016	0.6
120046	201	20.35	2
120046	1084	21.05	6
120046	2979	22.559291746353	14
120047	201	20.35	0.59999999403954
120047	1084	21.05	0.14285713434219
120047	2979	22.559291746353	0.5
120048	201	20.35	0.2
120048	1084	21.05	0.7
120048	2979	22.559291746353	1.5
120049	411	20.56	4
120049	685	20.76	1
120049	1781	21.565773696326	7
120049	3229	22.772766288175	11
120049	3635	23.176015668048	3
120049	3977	23.585460322045	3
120050	411	20.56	0.19999998807907
120050	685	20.76	0.79999999701977
120050	1781	21.565773696326	0.46153843402863
120050	3229	22.772766288175	0.68571427464485
120050	3635	23.176015668048	0.93023255467415
120050	3977	23.585460322045	0.9473684206605
120051	411	20.56	0.4
120051	685	20.76	0.2
120051	1781	21.565773696326	0.8
120051	3229	22.772766288175	1.2
120051	3635	23.176015668048	0.4
120051	3977	23.585460322045	0.4
120052	549	20.67	5
120052	827	20.87	1
120052	2769	22.374250836747	14
120052	3641	23.184201167574	7
120052	4180	23.886173919338	6
120052	4458	24.38801161835	4
120053	549	20.67	0
120053	827	20.87	0.79999999701977
120053	2769	22.374250836747	0.39130437374115
120053	3641	23.184201167574	0.83720929920673
120053	4180	23.886173919338	0.90625
120053	4458	24.38801161835	0.94936708733439
120054	549	20.67	0.5
120054	827	20.87	0.2
120054	2769	22.374250836747	1.5
120054	3641	23.184201167574	0.8
120054	4180	23.886173919338	0.7
120054	4458	24.38801161835	0.5
120055	91	20.18	0
120055	560	20.68	4
120055	1245	21.180933921262	4
120055	1892	21.653279491425	1
120055	3218	22.763253981351	10
120055	3803	23.36759906146	5
120056	91	20.18	1
120056	560	20.68	0.19999998807907
120056	1245	21.180933921262	0.42857140302658
120056	1892	21.653279491425	0.92307692021132
120056	3218	22.763253981351	0.70588234066963
120056	3803	23.36759906146	0.89795918017626
120057	91	20.18	0
120057	560	20.68	0.5
120057	1245	21.180933921262	0.5
120057	1892	21.653279491425	0.2
120057	3218	22.763253981351	1.1
120057	3803	23.36759906146	0.6
120058	581	20.69	5
120058	853	20.89	1
120058	1415	21.296892544906	3
120058	2616	22.243660011752	5
120058	3402	22.948793208337	6
120059	581	20.69	0
120059	853	20.89	0.83333332836628
120059	1415	21.296892544906	0.66666665673256
120059	2616	22.243660011752	0.76190476119518
120059	3402	22.948793208337	0.85365854203701
120060	581	20.69	0.5
120060	853	20.89	0.2
120060	1415	21.296892544906	0.4
120060	2616	22.243660011752	0.6
120060	3402	22.948793208337	0.7
120061	455	20.6	4
120061	736	20.8	1
120061	1012	21.002966481652	1
120061	3676	23.212498947825	21
120061	4384	24.225685321732	9
120061	4485	24.442912279086	1
120062	455	20.6	0.19999998807907
120062	736	20.8	0.79999999701977
120062	1012	21.002966481652	0.83333332836628
120062	3676	23.212498947825	0.53333333134651
120062	4384	24.225685321732	0.88157894462347
120062	4485	24.442912279086	0.98749999981374
120063	455	20.6	0.4
120063	736	20.8	0.2
120063	1012	21.002966481652	0.2
120063	3676	23.212498947825	2.2
120063	4384	24.225685321732	1
120063	4485	24.442912279086	0.2
120064	352	20.51	3
120064	1030	21.01	4
120064	1707	21.515823888976	4
120065	352	20.51	0.39999997615814
120065	1030	21.01	0.33333331346512
120065	1707	21.515823888976	0.63636362552643
120066	352	20.51	0.3
120066	1030	21.01	0.5
120066	1707	21.515823888976	0.5
120067	260	20.42	2
120067	2092	21.82	13
120067	2828	22.42504945713	5
120068	260	20.42	0.59999999403954
120068	2092	21.82	0.071428596973419
120068	2828	22.42504945713	0.79166667163372
120069	260	20.42	0.2
120069	2092	21.82	1.4
120069	2828	22.42504945713	0.6
120070	375	20.53	3
120070	3285	22.83	22
120070	3770	23.334224909655	4
120071	375	20.53	0.39999997615814
120071	3285	22.83	0.38888889551163
120071	3770	23.334224909655	0.91489361971617
120072	375	20.53	0.3
120072	3285	22.83	2.3
120072	3770	23.334224909655	0.5
120073	288	20.44	2