version 2
run Stability2-0-20130528-01:21:40-24168
attr configname Stability2
attr datetime 20130528-01:21:40
attr experiment Stability2
attr inifile omnetpp.ini
attr iterationvars $0=10
attr iterationvars2 "$0=10, $repetition=0"
attr measurement $0=10
attr network Network
attr processid 24168
attr repetition 0
attr replication #0
attr resultdir results
attr runnumber 0
attr seedset 0

vector 30000  Network.churner  inGoingSizeSig:vector  ETV
vector 18  Network.dyn_peer[6]  lookupHopsSig:vector  ETV
vector 19  Network.dyn_peer[6]  lookupStabilitySig:vector  ETV
vector 20  Network.dyn_peer[6]  lookupTimeSig:vector  ETV
vector 27  Network.dyn_peer[9]  lookupHopsSig:vector  ETV
vector 28  Network.dyn_peer[9]  lookupStabilitySig:vector  ETV
vector 29  Network.dyn_peer[9]  lookupTimeSig:vector  ETV
vector 30  Network.dyn_peer[10]  lookupHopsSig:vector  ETV
vector 31  Network.dyn_peer[10]  lookupStabilitySig:vector  ETV
vector 32  Network.dyn_peer[10]  lookupTimeSig:vector  ETV
vector 21  Network.dyn_peer[7]  lookupHopsSig:vector  ETV
vector 22  Network.dyn_peer[7]  lookupStabilitySig:vector  ETV
vector 23  Network.dyn_peer[7]  lookupTimeSig:vector  ETV
vector 60  Network.dyn_peer[20]  lookupHopsSig:vector  ETV
vector 61  Network.dyn_peer[20]  lookupStabilitySig:vector  ETV
vector 62  Network.dyn_peer[20]  lookupTimeSig:vector  ETV
vector 12  Network.dyn_peer[4]  lookupHopsSig:vector  ETV
vector 13  Network.dyn_peer[4]  lookupStabilitySig:vector  ETV
vector 14  Network.dyn_peer[4]  lookupTimeSig:vector  ETV
vector 15  Network.dyn_peer[5]  lookupHopsSig:vector  ETV
vector 16  Network.dyn_peer[5]  lookupStabilitySig:vector  ETV
vector 17  Network.dyn_peer[5]  lookupTimeSig:vector  ETV
vector 3  Network.dyn_peer[1]  lookupHopsSig:vector  ETV
vector 4  Network.dyn_peer[1]  lookupStabilitySig:vector  ETV
vector 5  Network.dyn_peer[1]  lookupTimeSig:vector  ETV
vector 33  Network.dyn_peer[11]  lookupHopsSig:vector  ETV
vector 34  Network.dyn_peer[11]  lookupStabilitySig:vector  ETV
vector 35  Network.dyn_peer[11]  lookupTimeSig:vector  ETV
vector 6  Network.dyn_peer[2]  lookupHopsSig:vector  ETV
vector 7  Network.dyn_peer[2]  lookupStabilitySig:vector  ETV
vector 8  Network.dyn_peer[2]  lookupTimeSig:vector  ETV
vector 36  Network.dyn_peer[12]  lookupHopsSig:vector  ETV
vector 37  Network.dyn_peer[12]  lookupStabilitySig:vector  ETV
vector 38  Network.dyn_peer[12]  lookupTimeSig:vector  ETV
vector 9  Network.dyn_peer[3]  lookupHopsSig:vector  ETV
vector 10  Network.dyn_peer[3]  lookupStabilitySig:vector  ETV
vector 11  Network.dyn_peer[3]  lookupTimeSig:vector  ETV
vector 39  Network.dyn_peer[13]  lookupHopsSig:vector  ETV
vector 40  Network.dyn_peer[13]  lookupStabilitySig:vector  ETV
vector 41  Network.dyn_peer[13]  lookupTimeSig:vector  ETV
vector 42  Network.dyn_peer[14]  lookupHopsSig:vector  ETV
vector 43  Network.dyn_peer[14]  lookupStabilitySig:vector  ETV
vector 44  Network.dyn_peer[14]  lookupTimeSig:vector  ETV
vector 24  Network.dyn_peer[8]  lookupHopsSig:vector  ETV
vector 25  Network.dyn_peer[8]  lookupStabilitySig:vector  ETV
vector 26  Network.dyn_peer[8]  lookupTimeSig:vector  ETV
vector 57  Network.dyn_peer[19]  lookupHopsSig:vector  ETV
vector 58  Network.dyn_peer[19]  lookupStabilitySig:vector  ETV
vector 59  Network.dyn_peer[19]  lookupTimeSig:vector  ETV
vector 0  Network.dyn_peer[0]  lookupHopsSig:vector  ETV
vector 1  Network.dyn_peer[0]  lookupStabilitySig:vector  ETV
vector 2  Network.dyn_peer[0]  lookupTimeSig:vector  ETV
vector 66  Network.dyn_peer[22]  lookupHopsSig:vector  ETV
vector 67  Network.dyn_peer[22]  lookupStabilitySig:vector  ETV
vector 68  Network.dyn_peer[22]  lookupTimeSig:vector  ETV
vector 99  Network.dyn_peer[33]  lookupHopsSig:vector  ETV
vector 100  Network.dyn_peer[33]  lookupStabilitySig:vector  ETV
vector 101  Network.dyn_peer[33]  lookupTimeSig:vector  ETV
vector 75  Network.dyn_peer[25]  lookupHopsSig:vector  ETV
vector 76  Network.dyn_peer[25]  lookupStabilitySig:vector  ETV
vector 77  Network.dyn_peer[25]  lookupTimeSig:vector  ETV
vector 117  Network.dyn_peer[39]  lookupHopsSig:vector  ETV
vector 118  Network.dyn_peer[39]  lookupStabilitySig:vector  ETV
vector 119  Network.dyn_peer[39]  lookupTimeSig:vector  ETV
vector 63  Network.dyn_peer[21]  lookupHopsSig:vector  ETV
vector 64  Network.dyn_peer[21]  lookupStabilitySig:vector  ETV
vector 65  Network.dyn_peer[21]  lookupTimeSig:vector  ETV
vector 69  Network.dyn_peer[23]  lookupHopsSig:vector  ETV
vector 70  Network.dyn_peer[23]  lookupStabilitySig:vector  ETV
vector 71  Network.dyn_peer[23]  lookupTimeSig:vector  ETV
vector 129  Network.dyn_peer[43]  lookupHopsSig:vector  ETV
vector 130  Network.dyn_peer[43]  lookupStabilitySig:vector  ETV
vector 131  Network.dyn_peer[43]  lookupTimeSig:vector  ETV
vector 45  Network.dyn_peer[15]  lookupHopsSig:vector  ETV
vector 46  Network.dyn_peer[15]  lookupStabilitySig:vector  ETV
vector 47  Network.dyn_peer[15]  lookupTimeSig:vector  ETV
vector 48  Network.dyn_peer[16]  lookupHopsSig:vector  ETV
vector 49  Network.dyn_peer[16]  lookupStabilitySig:vector  ETV
vector 50  Network.dyn_peer[16]  lookupTimeSig:vector  ETV
vector 84  Network.dyn_peer[28]  lookupHopsSig:vector  ETV
vector 85  Network.dyn_peer[28]  lookupStabilitySig:vector  ETV
vector 86  Network.dyn_peer[28]  lookupTimeSig:vector  ETV
vector 96  Network.dyn_peer[32]  lookupHopsSig:vector  ETV
vector 97  Network.dyn_peer[32]  lookupStabilitySig:vector  ETV
vector 98  Network.dyn_peer[32]  lookupTimeSig:vector  ETV
vector 102  Network.dyn_peer[34]  lookupHopsSig:vector  ETV
vector 103  Network.dyn_peer[34]  lookupStabilitySig:vector  ETV
vector 104  Network.dyn_peer[34]  lookupTimeSig:vector  ETV
vector 132  Network.dyn_peer[44]  lookupHopsSig:vector  ETV
vector 133  Network.dyn_peer[44]  lookupStabilitySig:vector  ETV
vector 134  Network.dyn_peer[44]  lookupTimeSig:vector  ETV
vector 78  Network.dyn_peer[26]  lookupHopsSig:vector  ETV
vector 79  Network.dyn_peer[26]  lookupStabilitySig:vector  ETV
vector 80  Network.dyn_peer[26]  lookupTimeSig:vector  ETV
vector 51  Network.dyn_peer[17]  lookupHopsSig:vector  ETV
vector 52  Network.dyn_peer[17]  lookupStabilitySig:vector  ETV
vector 53  Network.dyn_peer[17]  lookupTimeSig:vector  ETV
vector 111  Network.dyn_peer[37]  lookupHopsSig:vector  ETV
vector 112  Network.dyn_peer[37]  lookupStabilitySig:vector  ETV
vector 113  Network.dyn_peer[37]  lookupTimeSig:vector  ETV
vector 141  Network.dyn_peer[47]  lookupHopsSig:vector  ETV
vector 142  Network.dyn_peer[47]  lookupStabilitySig:vector  ETV
vector 143  Network.dyn_peer[47]  lookupTimeSig:vector  ETV
vector 54  Network.dyn_peer[18]  lookupHopsSig:vector  ETV
vector 55  Network.dyn_peer[18]  lookupStabilitySig:vector  ETV
vector 56  Network.dyn_peer[18]  lookupTimeSig:vector  ETV
vector 114  Network.dyn_peer[38]  lookupHopsSig:vector  ETV
vector 115  Network.dyn_peer[38]  lookupStabilitySig:vector  ETV
vector 116  Network.dyn_peer[38]  lookupTimeSig:vector  ETV
vector 219  Network.dyn_peer[73]  lookupHopsSig:vector  ETV
vector 220  Network.dyn_peer[73]  lookupStabilitySig:vector  ETV
vector 221  Network.dyn_peer[73]  lookupTimeSig:vector  ETV
vector 108  Network.dyn_peer[36]  lookupHopsSig:vector  ETV
vector 109  Network.dyn_peer[36]  lookupStabilitySig:vector  ETV
vector 110  Network.dyn_peer[36]  lookupTimeSig:vector  ETV
vector 213  Network.dyn_peer[71]  lookupHopsSig:vector  ETV
vector 214  Network.dyn_peer[71]  lookupStabilitySig:vector  ETV
vector 215  Network.dyn_peer[71]  lookupTimeSig:vector  ETV
vector 126  Network.dyn_peer[42]  lookupHopsSig:vector  ETV
vector 127  Network.dyn_peer[42]  lookupStabilitySig:vector  ETV
vector 128  Network.dyn_peer[42]  lookupTimeSig:vector  ETV
vector 186  Network.dyn_peer[62]  lookupHopsSig:vector  ETV
vector 187  Network.dyn_peer[62]  lookupStabilitySig:vector  ETV
vector 188  Network.dyn_peer[62]  lookupTimeSig:vector  ETV
vector 81  Network.dyn_peer[27]  lookupHopsSig:vector  ETV
vector 82  Network.dyn_peer[27]  lookupStabilitySig:vector  ETV
vector 83  Network.dyn_peer[27]  lookupTimeSig:vector  ETV
vector 87  Network.dyn_peer[29]  lookupHopsSig:vector  ETV
vector 88  Network.dyn_peer[29]  lookupStabilitySig:vector  ETV
vector 89  Network.dyn_peer[29]  lookupTimeSig:vector  ETV
vector 153  Network.dyn_peer[51]  lookupHopsSig:vector  ETV
vector 154  Network.dyn_peer[51]  lookupStabilitySig:vector  ETV
vector 155  Network.dyn_peer[51]  lookupTimeSig:vector  ETV
vector 156  Network.dyn_peer[52]  lookupHopsSig:vector  ETV
vector 157  Network.dyn_peer[52]  lookupStabilitySig:vector  ETV
vector 158  Network.dyn_peer[52]  lookupTimeSig:vector  ETV
vector 252  Network.dyn_peer[84]  lookupHopsSig:vector  ETV
vector 253  Network.dyn_peer[84]  lookupStabilitySig:vector  ETV
vector 254  Network.dyn_peer[84]  lookupTimeSig:vector  ETV
vector 225  Network.dyn_peer[75]  lookupHopsSig:vector  ETV
vector 226  Network.dyn_peer[75]  lookupStabilitySig:vector  ETV
vector 227  Network.dyn_peer[75]  lookupTimeSig:vector  ETV
vector 273  Network.dyn_peer[91]  lookupHopsSig:vector  ETV
vector 274  Network.dyn_peer[91]  lookupStabilitySig:vector  ETV
vector 275  Network.dyn_peer[91]  lookupTimeSig:vector  ETV
vector 159  Network.dyn_peer[53]  lookupHopsSig:vector  ETV
vector 160  Network.dyn_peer[53]  lookupStabilitySig:vector  ETV
vector 161  Network.dyn_peer[53]  lookupTimeSig:vector  ETV
vector 135  Network.dyn_peer[45]  lookupHopsSig:vector  ETV
vector 136  Network.dyn_peer[45]  lookupStabilitySig:vector  ETV
vector 137  Network.dyn_peer[45]  lookupTimeSig:vector  ETV
vector 294  Network.dyn_peer[98]  lookupHopsSig:vector  ETV
vector 295  Network.dyn_peer[98]  lookupStabilitySig:vector  ETV
vector 296  Network.dyn_peer[98]  lookupTimeSig:vector  ETV
vector 240  Network.dyn_peer[80]  lookupHopsSig:vector  ETV
vector 241  Network.dyn_peer[80]  lookupStabilitySig:vector  ETV
vector 242  Network.dyn_peer[80]  lookupTimeSig:vector  ETV
vector 246  Network.dyn_peer[82]  lookupHopsSig:vector  ETV
vector 247  Network.dyn_peer[82]  lookupStabilitySig:vector  ETV
vector 248  Network.dyn_peer[82]  lookupTimeSig:vector  ETV
vector 144  Network.dyn_peer[48]  lookupHopsSig:vector  ETV
vector 145  Network.dyn_peer[48]  lookupStabilitySig:vector  ETV
vector 146  Network.dyn_peer[48]  lookupTimeSig:vector  ETV
vector 183  Network.dyn_peer[61]  lookupHopsSig:vector  ETV
vector 184  Network.dyn_peer[61]  lookupStabilitySig:vector  ETV
vector 185  Network.dyn_peer[61]  lookupTimeSig:vector  ETV
vector 243  Network.dyn_peer[81]  lookupHopsSig:vector  ETV
vector 244  Network.dyn_peer[81]  lookupStabilitySig:vector  ETV
vector 245  Network.dyn_peer[81]  lookupTimeSig:vector  ETV
vector 249  Network.dyn_peer[83]  lookupHopsSig:vector  ETV
vector 250  Network.dyn_peer[83]  lookupStabilitySig:vector  ETV
vector 251  Network.dyn_peer[83]  lookupTimeSig:vector  ETV
vector 72  Network.dyn_peer[24]  lookupHopsSig:vector  ETV
vector 73  Network.dyn_peer[24]  lookupStabilitySig:vector  ETV
vector 74  Network.dyn_peer[24]  lookupTimeSig:vector  ETV
vector 192  Network.dyn_peer[64]  lookupHopsSig:vector  ETV
vector 193  Network.dyn_peer[64]  lookupStabilitySig:vector  ETV
vector 194  Network.dyn_peer[64]  lookupTimeSig:vector  ETV
vector 288  Network.dyn_peer[96]  lookupHopsSig:vector  ETV
vector 289  Network.dyn_peer[96]  lookupStabilitySig:vector  ETV
vector 290  Network.dyn_peer[96]  lookupTimeSig:vector  ETV
vector 171  Network.dyn_peer[57]  lookupHopsSig:vector  ETV
vector 172  Network.dyn_peer[57]  lookupStabilitySig:vector  ETV
vector 173  Network.dyn_peer[57]  lookupTimeSig:vector  ETV
vector 123  Network.dyn_peer[41]  lookupHopsSig:vector  ETV
vector 124  Network.dyn_peer[41]  lookupStabilitySig:vector  ETV
vector 125  Network.dyn_peer[41]  lookupTimeSig:vector  ETV
vector 162  Network.dyn_peer[54]  lookupHopsSig:vector  ETV
vector 163  Network.dyn_peer[54]  lookupStabilitySig:vector  ETV
vector 164  Network.dyn_peer[54]  lookupTimeSig:vector  ETV
vector 105  Network.dyn_peer[35]  lookupHopsSig:vector  ETV
vector 106  Network.dyn_peer[35]  lookupStabilitySig:vector  ETV
vector 107  Network.dyn_peer[35]  lookupTimeSig:vector  ETV
vector 261  Network.dyn_peer[87]  lookupHopsSig:vector  ETV
vector 262  Network.dyn_peer[87]  lookupStabilitySig:vector  ETV
vector 263  Network.dyn_peer[87]  lookupTimeSig:vector  ETV
vector 264  Network.dyn_peer[88]  lookupHopsSig:vector  ETV
vector 265  Network.dyn_peer[88]  lookupStabilitySig:vector  ETV
vector 266  Network.dyn_peer[88]  lookupTimeSig:vector  ETV
vector 177  Network.dyn_peer[59]  lookupHopsSig:vector  ETV
vector 178  Network.dyn_peer[59]  lookupStabilitySig:vector  ETV
vector 179  Network.dyn_peer[59]  lookupTimeSig:vector  ETV
vector 297  Network.dyn_peer[99]  lookupHopsSig:vector  ETV
vector 298  Network.dyn_peer[99]  lookupStabilitySig:vector  ETV
vector 299  Network.dyn_peer[99]  lookupTimeSig:vector  ETV
vector 150  Network.dyn_peer[50]  lookupHopsSig:vector  ETV
vector 151  Network.dyn_peer[50]  lookupStabilitySig:vector  ETV
vector 152  Network.dyn_peer[50]  lookupTimeSig:vector  ETV
vector 168  Network.dyn_peer[56]  lookupHopsSig:vector  ETV
vector 169  Network.dyn_peer[56]  lookupStabilitySig:vector  ETV
vector 170  Network.dyn_peer[56]  lookupTimeSig:vector  ETV
vector 231  Network.dyn_peer[77]  lookupHopsSig:vector  ETV
vector 232  Network.dyn_peer[77]  lookupStabilitySig:vector  ETV
vector 233  Network.dyn_peer[77]  lookupTimeSig:vector  ETV
vector 147  Network.dyn_peer[49]  lookupHopsSig:vector  ETV
vector 148  Network.dyn_peer[49]  lookupStabilitySig:vector  ETV
vector 149  Network.dyn_peer[49]  lookupTimeSig:vector  ETV
vector 180  Network.dyn_peer[60]  lookupHopsSig:vector  ETV
vector 181  Network.dyn_peer[60]  lookupStabilitySig:vector  ETV
vector 182  Network.dyn_peer[60]  lookupTimeSig:vector  ETV
vector 189  Network.dyn_peer[63]  lookupHopsSig:vector  ETV
vector 190  Network.dyn_peer[63]  lookupStabilitySig:vector  ETV
vector 191  Network.dyn_peer[63]  lookupTimeSig:vector  ETV
vector 258  Network.dyn_peer[86]  lookupHopsSig:vector  ETV
vector 259  Network.dyn_peer[86]  lookupStabilitySig:vector  ETV
vector 260  Network.dyn_peer[86]  lookupTimeSig:vector  ETV
vector 291  Network.dyn_peer[97]  lookupHopsSig:vector  ETV
vector 292  Network.dyn_peer[97]  lookupStabilitySig:vector  ETV
vector 293  Network.dyn_peer[97]  lookupTimeSig:vector  ETV
vector 204  Network.dyn_peer[68]  lookupHopsSig:vector  ETV
vector 205  Network.dyn_peer[68]  lookupStabilitySig:vector  ETV
vector 206  Network.dyn_peer[68]  lookupTimeSig:vector  ETV
vector 207  Network.dyn_peer[69]  lookupHopsSig:vector  ETV
vector 208  Network.dyn_peer[69]  lookupStabilitySig:vector  ETV
vector 209  Network.dyn_peer[69]  lookupTimeSig:vector  ETV
vector 90  Network.dyn_peer[30]  lookupHopsSig:vector  ETV
vector 91  Network.dyn_peer[30]  lookupStabilitySig:vector  ETV
vector 92  Network.dyn_peer[30]  lookupTimeSig:vector  ETV
vector 120  Network.dyn_peer[40]  lookupHopsSig:vector  ETV
vector 121  Network.dyn_peer[40]  lookupStabilitySig:vector  ETV
vector 122  Network.dyn_peer[40]  lookupTimeSig:vector  ETV
vector 276  Network.dyn_peer[92]  lookupHopsSig:vector  ETV
vector 277  Network.dyn_peer[92]  lookupStabilitySig:vector  ETV
vector 278  Network.dyn_peer[92]  lookupTimeSig:vector  ETV
vector 165  Network.dyn_peer[55]  lookupHopsSig:vector  ETV
vector 166  Network.dyn_peer[55]  lookupStabilitySig:vector  ETV
vector 167  Network.dyn_peer[55]  lookupTimeSig:vector  ETV
vector 174  Network.dyn_peer[58]  lookupHopsSig:vector  ETV
vector 175  Network.dyn_peer[58]  lookupStabilitySig:vector  ETV
vector 176  Network.dyn_peer[58]  lookupTimeSig:vector  ETV
vector 210  Network.dyn_peer[70]  lookupHopsSig:vector  ETV
vector 211  Network.dyn_peer[70]  lookupStabilitySig:vector  ETV
vector 212  Network.dyn_peer[70]  lookupTimeSig:vector  ETV
vector 93  Network.dyn_peer[31]  lookupHopsSig:vector  ETV
vector 94  Network.dyn_peer[31]  lookupStabilitySig:vector  ETV
vector 95  Network.dyn_peer[31]  lookupTimeSig:vector  ETV
vector 195  Network.dyn_peer[65]  lookupHopsSig:vector  ETV
vector 196  Network.dyn_peer[65]  lookupStabilitySig:vector  ETV
vector 197  Network.dyn_peer[65]  lookupTimeSig:vector  ETV
vector 201  Network.dyn_peer[67]  lookupHopsSig:vector  ETV
vector 202  Network.dyn_peer[67]  lookupStabilitySig:vector  ETV
vector 203  Network.dyn_peer[67]  lookupTimeSig:vector  ETV
vector 270  Network.dyn_peer[90]  lookupHopsSig:vector  ETV
vector 271  Network.dyn_peer[90]  lookupStabilitySig:vector  ETV
vector 272  Network.dyn_peer[90]  lookupTimeSig:vector  ETV
vector 222  Network.dyn_peer[74]  lookupHopsSig:vector  ETV
vector 223  Network.dyn_peer[74]  lookupStabilitySig:vector  ETV
vector 224  Network.dyn_peer[74]  lookupTimeSig:vector  ETV
vector 285  Network.dyn_peer[95]  lookupHopsSig:vector  ETV
vector 286  Network.dyn_peer[95]  lookupStabilitySig:vector  ETV
vector 287  Network.dyn_peer[95]  lookupTimeSig:vector  ETV
vector 138  Network.dyn_peer[46]  lookupHopsSig:vector  ETV
vector 139  Network.dyn_peer[46]  lookupStabilitySig:vector  ETV
vector 140  Network.dyn_peer[46]  lookupTimeSig:vector  ETV
vector 216  Network.dyn_peer[72]  lookupHopsSig:vector  ETV
vector 217  Network.dyn_peer[72]  lookupStabilitySig:vector  ETV
vector 218  Network.dyn_peer[72]  lookupTimeSig:vector  ETV
vector 234  Network.dyn_peer[78]  lookupHopsSig:vector  ETV
vector 235  Network.dyn_peer[78]  lookupStabilitySig:vector  ETV
vector 236  Network.dyn_peer[78]  lookupTimeSig:vector  ETV
vector 237  Network.dyn_peer[79]  lookupHopsSig:vector  ETV
vector 238  Network.dyn_peer[79]  lookupStabilitySig:vector  ETV
vector 239  Network.dyn_peer[79]  lookupTimeSig:vector  ETV
vector 255  Network.dyn_peer[85]  lookupHopsSig:vector  ETV
vector 256  Network.dyn_peer[85]  lookupStabilitySig:vector  ETV
vector 257  Network.dyn_peer[85]  lookupTimeSig:vector  ETV
vector 198  Network.dyn_peer[66]  lookupHopsSig:vector  ETV
vector 199  Network.dyn_peer[66]  lookupStabilitySig:vector  ETV
vector 200  Network.dyn_peer[66]  lookupTimeSig:vector  ETV
vector 267  Network.dyn_peer[89]  lookupHopsSig:vector  ETV
vector 268  Network.dyn_peer[89]  lookupStabilitySig:vector  ETV
vector 269  Network.dyn_peer[89]  lookupTimeSig:vector  ETV
vector 279  Network.dyn_peer[93]  lookupHopsSig:vector  ETV
vector 280  Network.dyn_peer[93]  lookupStabilitySig:vector  ETV
vector 281  Network.dyn_peer[93]  lookupTimeSig:vector  ETV
vector 228  Network.dyn_peer[76]  lookupHopsSig:vector  ETV
vector 229  Network.dyn_peer[76]  lookupStabilitySig:vector  ETV
vector 230  Network.dyn_peer[76]  lookupTimeSig:vector  ETV
vector 282  Network.dyn_peer[94]  lookupHopsSig:vector  ETV
vector 283  Network.dyn_peer[94]  lookupStabilitySig:vector  ETV
vector 284  Network.dyn_peer[94]  lookupTimeSig:vector  ETV
0	270	20.41	4
0	1176	21.11	6
1	270	20.41	0.19999998807907
1	1176	21.11	0.14285713434219
2	270	20.41	0.4
2	1176	21.11	0.7
3	177	20.32	3
3	1314	21.22	8
3	1887	21.622545320203	3
3	2864	22.462615788497	5
3	3488	23.163569418691	6
3	4028	24.07028945924	8
3	4125	24.277003945987	1
3	4358	24.985921345482	6
3	4556	26.493751950716	14
3	4574	26.701291495457	1
3	4609	27.308461119418	5
3	4621	27.512605590344	1
3	4639	27.821987753041	2
3	4651	28.027151172755	1
4	177	20.32	0.39999997615814
4	1314	21.22	0.19999998807907
4	1887	21.622545320203	0.85714285075665
4	2864	22.462615788497	0.88095238059759
4	3488	23.163569418691	0.89999999850988
4	4028	24.07028945924	0.89189188927412
4	4125	24.277003945987	0.9873417718336
4	4358	24.985921345482	0.93617021292448
4	4556	26.493751950716	0.85999999940395
4	4574	26.701291495457	0.99009901005775
4	4609	27.308461119418	0.95098039135337
4	4621	27.512605590344	0.99019607808441
4	4639	27.821987753041	0.98039215616882
4	4651	28.027151172755	0.9902912620455
5	177	20.32	0.3
5	1314	21.22	0.9
5	1887	21.622545320203	0.4
5	2864	22.462615788497	0.6
5	3488	23.163569418691	0.7
5	4028	24.07028945924	0.9
5	4125	24.277003945987	0.2
5	4358	24.985921345482	0.7
5	4556	26.493751950716	1.5
5	4574	26.701291495457	0.2
5	4609	27.308461119418	0.6
5	4621	27.512605590344	0.2
5	4639	27.821987753041	0.3
5	4651	28.027151172755	0.2
6	192	20.33	3
6	917	20.93	5
6	1217	21.142493493851	1
6	2369	22.012027374154	5
6	2711	22.312633174683	2
6	3208	22.815506509406	4
6	3379	23.01997196778	1
7	192	20.33	0.39999997615814
7	917	20.93	0.28571426868439
7	1217	21.142493493851	0.88888888806105
7	2369	22.012027374154	0.85294117033482
7	2711	22.312633174683	0.94871794804931
7	3208	22.815506509406	0.92156862467527
7	3379	23.01997196778	0.98245614022017
8	192	20.33	0.3
8	917	20.93	0.6
8	1217	21.142493493851	0.2
8	2369	22.012027374154	0.6
8	2711	22.312633174683	0.3
8	3208	22.815506509406	0.5
8	3379	23.01997196778	0.2
9	207	20.34	3
9	790	20.84	4
9	2515	22.148794946828	12
9	2754	22.355265505755	1
9	3617	23.357254206576	9
10	207	20.34	0.39999997615814
10	790	20.84	0.33333331346512
10	2515	22.148794946828	0.64705881476402
10	2754	22.355265505755	0.97435897402465
10	3617	23.357254206576	0.859375
11	207	20.34	0.3
11	790	20.84	0.5
11	2515	22.148794946828	1.3
11	2754	22.355265505755	0.2
11	3617	23.357254206576	1
12	127	20.25	2
12	534	20.65777390094	3
12	2545	22.163549959524	14
12	2768	22.36781940122	1
13	127	20.25	0.59999999403954
13	534	20.65777390094	0.39999997615814
13	2545	22.163549959524	0.59999999403954
13	2768	22.36781940122	0.97499999962747
14	127	20.25	0.2
14	534	20.65777390094	0.4
14	2545	22.163549959524	1.5
14	2768	22.36781940122	0.2
15	139	20.26	2
15	815	20.86	5
15	3095	22.700723277311	10
16	139	20.26	0.59999999403954
16	815	20.86	0.16666668653488
16	3095	22.700723277311	0.77777777612209
17	139	20.26	0.2
17	815	20.86	0.6
17	3095	22.700723277311	1.1
18	34	20.07	0
18	332	20.47	3
18	695	20.774611594469	2
18	1708	21.50143797871	6
19	34	20.07	1
19	332	20.47	0.39999997615814
19	695	20.774611594469	0.59999999403954
19	1708	21.50143797871	0.59999999403954
20	34	20.07	0
20	332	20.47	0.4
20	695	20.774611594469	0.3
20	1708	21.50143797871	0.7
21	86	20.18	1
21	704	20.78	5
21	2333	21.983213750799	11
21	2569	22.188938488939	1
22	86	20.18	0.79999999701977
22	704	20.78	0
22	2333	21.983213750799	0.66666665673256
22	2569	22.188938488939	0.97142857126892
23	86	20.18	0.1
23	704	20.78	0.6
23	2333	21.983213750799	1.2
23	2569	22.188938488939	0.2
24	250	20.39	3
24	1421	21.29	8
24	1841	21.597331854929	2
24	3812	23.659267611389	16
25	250	20.39	0.39999997615814
25	1421	21.29	0.19999998807907
25	1841	21.597331854929	0.89999999850988
25	3812	23.659267611389	0.77464789152145
26	250	20.39	0.3
26	1421	21.29	0.9
26	1841	21.597331854929	0.3
26	3812	23.659267611389	1.7
27	47	20.1	0
27	160	20.3	1
27	605	20.706899582133	3
27	1714	21.509963672051	7
27	2729	22.331810799171	6
28	47	20.1	1
28	160	20.3	0.79999999701977
28	605	20.706899582133	0.39999997615814
28	1714	21.509963672051	0.5625
28	2729	22.331810799171	0.84615384042263
29	47	20.1	0
29	160	20.3	0.2
29	605	20.706899582133	0.4
29	1714	21.509963672051	0.8
29	2729	22.331810799171	0.7
30	55	20.11	0
30	274	20.416931170152	2
30	758	20.823954521477	3
30	2869	22.469292458526	7
31	55	20.11	1
31	274	20.416931170152	0.59999999403954
31	758	20.823954521477	0.39999997615814
31	2869	22.469292458526	0.83333332836628
32	55	20.11	0
32	274	20.416931170152	0.3
32	758	20.823954521477	0.4
32	2869	22.469292458526	0.8
33	181	20.32	2
33	1884	21.62	12
33	2384	22.027816861793	3
33	2834	22.431862959253	3
33	3392	23.040892206301	5
33	3741	23.544796386192	4
34	181	20.32	0.59999999403954
34	1884	21.62	0.42857140302658
34	2384	22.027816861793	0.91176470369101
34	2834	22.431862959253	0.92857142537832
34	3392	23.040892206301	0.91228070110083
34	3741	23.544796386192	0.9411764703691
35	181	20.32	0.2
35	1884	21.62	1.3
35	2384	22.027816861793	0.4
35	2834	22.431862959253	0.4
35	3392	23.040892206301	0.6
35	3741	23.544796386192	0.5
36	196	20.33	2
36	931	20.937209334527	5
36	1480	21.338098412974	3
37	196	20.33	0.59999999403954
37	931	20.937209334527	0.28571426868439
37	1480	21.338098412974	0.75
38	196	20.33	0.2
38	931	20.937209334527	0.6
38	1480	21.338098412974	0.4
39	211	20.34	2
39	402	20.54	1
39	951	20.943660464573	3
39	3035	22.648994350081	16
39	3621	23.361482054349	6
40	211	20.34	0.59999999403954
40	402	20.54	0.79999999701977
40	951	20.943660464573	0.5714285671711
40	3035	22.648994350081	0.63636362552643
40	3621	23.361482054349	0.90769230574369
41	211	20.34	0.2
41	402	20.54	0.2
41	951	20.943660464573	0.4
41	3035	22.648994350081	1.7
41	3621	23.361482054349	0.7
42	221	20.35	2
42	665	20.75	3
42	1247	21.166298618855	3
42	2094	21.783652941516	5
42	2567	22.187670739424	3
42	3840	23.703040216444	12
42	4258	24.605191839644	8
42	4381	25.111434248608	4
42	4493	25.911755649229	7
43	221	20.35	0.59999999403954
43	665	20.75	0.39999997615814
43	1247	21.166298618855	0.69999998807907
43	2094	21.783652941516	0.8214285671711
43	2567	22.187670739424	0.9142857119441
43	3840	23.703040216444	0.83098591864109
43	4258	24.605191839644	0.90588235110044
43	4381	25.111434248608	0.95789473503828
43	4493	25.911755649229	0.92783505469561
44	221	20.35	0.2
44	665	20.75	0.4
44	1247	21.166298618855	0.4
44	2094	21.783652941516	0.6
44	2567	22.187670739424	0.4
44	3840	23.703040216444	1.3
44	4258	24.605191839644	0.9
44	4381	25.111434248608	0.5
44	4493	25.911755649229	0.8
45	428	20.56	4
45	1117	21.06	4
45	1650	21.469119939934	3
45	1951	21.670768667105	1
46	428	20.56	0.19999998807907
46	1117	21.06	0.42857140302658
46	1650	21.469119939934	0.78571428358555
46	1951	21.670768667105	0.95652173832059
47	428	20.56	0.4
47	1117	21.06	0.5
47	1650	21.469119939934	0.4
47	1951	21.670768667105	0.2
48	439	20.57	4
48	1534	21.37	7
48	2082	21.773370467589	3
48	2555	22.178265146712	3
48	2884	22.482913207031	2
48	3270	22.884237662086	3
49	439	20.57	0.19999998807907
49	1534	21.37	0.46153843402863
49	2082	21.773370467589	0.88888888806105
49	2555	22.178265146712	0.9142857119441
49	2884	22.482913207031	0.95238095149398
49	3270	22.884237662086	0.9411764703691
50	439	20.57	0.4
50	1534	21.37	0.8
50	2082	21.773370467589	0.4
50	2555	22.178265146712	0.4
50	2884	22.482913207031	0.3
50	3270	22.884237662086	0.4
51	568	20.68	5
51	1138	21.08	3
51	1552	21.388992269649	2
51	2350	21.997804645385	5
52	568	20.68	0
52	1138	21.08	0.5714285671711
52	1552	21.388992269649	0.85714285075665
52	2350	21.997804645385	0.84848484396935
53	568	20.68	0.5
53	1138	21.08	0.4
53	1552	21.388992269649	0.3
53	2350	21.997804645385	0.6
54	589	20.69	5
54	1422	21.29	5
54	1838	21.591946872598	2
54	2109	21.798372535989	1
54	2591	22.203367083567	3
54	3564	23.275634743836	5
54	3827	23.681343001834	3
54	4087	24.189866986152	4
54	4215	24.491635687922	2
55	589	20.69	0
55	1422	21.29	0.5
55	1838	21.591946872598	0.89999999850988
55	2109	21.798372535989	0.96428571268916
55	2591	22.203367083567	0.91891892254353
55	3564	23.275634743836	0.92063491791487
55	3827	23.681343001834	0.95774647966027
55	4087	24.189866986152	0.94871794804931
55	4215	24.491635687922	0.97560975700617
56	589	20.69	0.5
56	1422	21.29	0.6
56	1838	21.591946872598	0.3
56	2109	21.798372535989	0.2
56	2591	22.203367083567	0.4
56	3564	23.275634743836	0.6
56	3827	23.681343001834	0.4
56	4087	24.189866986152	0.5
56	4215	24.491635687922	0.3
57	259	20.4	2
57	468	20.6	1
57	2240	21.907712525632	12
57	2606	22.214953264137	2
58	259	20.4	0.59999999403954
58	468	20.6	0.79999999701977
58	2240	21.907712525632	0.61290323734283
58	2606	22.214953264137	0.9473684206605
59	259	20.4	0.2
59	468	20.6	0.2
59	2240	21.907712525632	1.3
59	2606	22.214953264137	0.3
60	104	20.21	0
60	615	20.71	4
60	887	20.918940493485	1
60	1475	21.332483412026	3
60	3791	23.618400770332	19
60	3965	23.922237086043	2
60	4300	24.724855245664	7
61	104	20.21	1
61	615	20.71	0.19999998807907
61	887	20.918940493485	0.85714285075665
61	1475	21.332483412026	0.72727271914482
61	3791	23.618400770332	0.73239436745644
61	3965	23.922237086043	0.97260273993015
61	4300	24.724855245664	0.9204545468092
62	104	20.21	0
62	615	20.71	0.5
62	887	20.918940493485	0.2
62	1475	21.332483412026	0.4
62	3791	23.618400770332	2
62	3965	23.922237086043	0.3
62	4300	24.724855245664	0.8
63	378	20.52	3
63	898	20.92	3
63	1191	21.121633824992	1
63	1900	21.63127152508	4
64	378	20.52	0.39999997615814
64	898	20.92	0.5714285671711
64	1191	21.121633824992	0.875
64	1900	21.63127152508	0.81818181276321
65	378	20.52	0.3
65	898	20.92	0.4
65	1191	21.121633824992	0.2
65	1900	21.63127152508	0.5
66	291	20.43	2
66	918	20.93	4
66	1205	21.132405823885	1
66	2579	22.196734122382	7
66	3193	22.799391368289	5
67	291	20.43	0.59999999403954
67	918	20.93	0.42857140302658
67	1205	21.132405823885	0.875
67	2579	22.196734122382	0.81081080436707
67	3193	22.799391368289	0.89999999850988
68	291	20.43	0.2
68	918	20.93	0.5
68	1205	21.132405823885	0.2
68	2579	22.196734122382	0.8
68	3193	22.799391368289	0.6
69	401	20.54	3
69	1760	21.54	9
69	2941	22.543737178153	9
69	3921	23.853551360912	12
69	4276	24.653852270306	7
70	401	20.54	0.39999997615814
70	1760	21.54	0.52631577849388
70	2941	22.543737178153	0.79069767892361
70	3921	23.853551360912	0.83561643958092
70	4276	24.653852270306	0.91860464960337
71	401	20.54	0.3
71	1760	21.54	1
71	2941	22.543737178153	1
71	3921	23.853551360912	1.3
71	4276	24.653852270306	0.8
72	1366	21.25	10
72	3686	23.45	21
72	3919	23.8524404658	3
72	4021	24.057413972026	1
72	4312	24.765393138398	6
72	4471	25.770032312849	9
72	4568	26.673214033262	8
73	1366	21.25	0
73	3686	23.45	0.68181818723679
73	3919	23.8524404658	0.95890410989523
73	4021	24.057413972026	0.98648648615927
73	4312	24.765393138398	0.93258427083492
73	4471	25.770032312849	0.90721649676561
73	4568	26.673214033262	0.92000000178814
74	1366	21.25	1
74	3686	23.45	2.2
74	3919	23.8524404658	0.4
74	4021	24.057413972026	0.2
74	4312	24.765393138398	0.7
74	4471	25.770032312849	1
74	4568	26.673214033262	0.9
75	324	20.46	2
75	1242	21.16	6
75	2069	21.767153450481	5
76	324	20.46	0.59999999403954
76	1242	21.16	0.39999997615814
76	2069	21.767153450481	0.81481482088566
77	324	20.46	0.2
77	1242	21.16	0.7
77	2069	21.767153450481	0.6
78	554	20.67	4
78	1663	21.47	7
79	554	20.67	0.19999998807907
79	1663	21.47	0.5
80	554	20.67	0.4