version 2
run Stability2-11-20130528-01:22:36-24168
attr configname Stability2
attr datetime 20130528-01:22:36
attr experiment Stability2
attr inifile omnetpp.ini
attr iterationvars $0=20
attr iterationvars2 "$0=20, $repetition=1"
attr measurement $0=20
attr network Network
attr processid 24168
attr repetition 1
attr replication #1
attr resultdir results
attr runnumber 11
attr seedset 11

vector 360011  Network.churner  inGoingSizeSig:vector  ETV
vector 330017  Network.dyn_peer[2]  lookupHopsSig:vector  ETV
vector 330018  Network.dyn_peer[2]  lookupStabilitySig:vector  ETV
vector 330019  Network.dyn_peer[2]  lookupTimeSig:vector  ETV
vector 330032  Network.dyn_peer[7]  lookupHopsSig:vector  ETV
vector 330033  Network.dyn_peer[7]  lookupStabilitySig:vector  ETV
vector 330034  Network.dyn_peer[7]  lookupTimeSig:vector  ETV
vector 330038  Network.dyn_peer[9]  lookupHopsSig:vector  ETV
vector 330039  Network.dyn_peer[9]  lookupStabilitySig:vector  ETV
vector 330040  Network.dyn_peer[9]  lookupTimeSig:vector  ETV
vector 330011  Network.dyn_peer[0]  lookupHopsSig:vector  ETV
vector 330012  Network.dyn_peer[0]  lookupStabilitySig:vector  ETV
vector 330013  Network.dyn_peer[0]  lookupTimeSig:vector  ETV
vector 330014  Network.dyn_peer[1]  lookupHopsSig:vector  ETV
vector 330015  Network.dyn_peer[1]  lookupStabilitySig:vector  ETV
vector 330016  Network.dyn_peer[1]  lookupTimeSig:vector  ETV
vector 330053  Network.dyn_peer[14]  lookupHopsSig:vector  ETV
vector 330054  Network.dyn_peer[14]  lookupStabilitySig:vector  ETV
vector 330055  Network.dyn_peer[14]  lookupTimeSig:vector  ETV
vector 330062  Network.dyn_peer[17]  lookupHopsSig:vector  ETV
vector 330063  Network.dyn_peer[17]  lookupStabilitySig:vector  ETV
vector 330064  Network.dyn_peer[17]  lookupTimeSig:vector  ETV
vector 330035  Network.dyn_peer[8]  lookupHopsSig:vector  ETV
vector 330036  Network.dyn_peer[8]  lookupStabilitySig:vector  ETV
vector 330037  Network.dyn_peer[8]  lookupTimeSig:vector  ETV
vector 330047  Network.dyn_peer[12]  lookupHopsSig:vector  ETV
vector 330048  Network.dyn_peer[12]  lookupStabilitySig:vector  ETV
vector 330049  Network.dyn_peer[12]  lookupTimeSig:vector  ETV
vector 330020  Network.dyn_peer[3]  lookupHopsSig:vector  ETV
vector 330021  Network.dyn_peer[3]  lookupStabilitySig:vector  ETV
vector 330022  Network.dyn_peer[3]  lookupTimeSig:vector  ETV
vector 330071  Network.dyn_peer[20]  lookupHopsSig:vector  ETV
vector 330072  Network.dyn_peer[20]  lookupStabilitySig:vector  ETV
vector 330073  Network.dyn_peer[20]  lookupTimeSig:vector  ETV
vector 330044  Network.dyn_peer[11]  lookupHopsSig:vector  ETV
vector 330045  Network.dyn_peer[11]  lookupStabilitySig:vector  ETV
vector 330046  Network.dyn_peer[11]  lookupTimeSig:vector  ETV
vector 330050  Network.dyn_peer[13]  lookupHopsSig:vector  ETV
vector 330051  Network.dyn_peer[13]  lookupStabilitySig:vector  ETV
vector 330052  Network.dyn_peer[13]  lookupTimeSig:vector  ETV
vector 330023  Network.dyn_peer[4]  lookupHopsSig:vector  ETV
vector 330024  Network.dyn_peer[4]  lookupStabilitySig:vector  ETV
vector 330025  Network.dyn_peer[4]  lookupTimeSig:vector  ETV
vector 330026  Network.dyn_peer[5]  lookupHopsSig:vector  ETV
vector 330027  Network.dyn_peer[5]  lookupStabilitySig:vector  ETV
vector 330028  Network.dyn_peer[5]  lookupTimeSig:vector  ETV
vector 330092  Network.dyn_peer[27]  lookupHopsSig:vector  ETV
vector 330093  Network.dyn_peer[27]  lookupStabilitySig:vector  ETV
vector 330094  Network.dyn_peer[27]  lookupTimeSig:vector  ETV
vector 330065  Network.dyn_peer[18]  lookupHopsSig:vector  ETV
vector 330066  Network.dyn_peer[18]  lookupStabilitySig:vector  ETV
vector 330067  Network.dyn_peer[18]  lookupTimeSig:vector  ETV
vector 330098  Network.dyn_peer[29]  lookupHopsSig:vector  ETV
vector 330099  Network.dyn_peer[29]  lookupStabilitySig:vector  ETV
vector 330100  Network.dyn_peer[29]  lookupTimeSig:vector  ETV
vector 330104  Network.dyn_peer[31]  lookupHopsSig:vector  ETV
vector 330105  Network.dyn_peer[31]  lookupStabilitySig:vector  ETV
vector 330106  Network.dyn_peer[31]  lookupTimeSig:vector  ETV
vector 330080  Network.dyn_peer[23]  lookupHopsSig:vector  ETV
vector 330081  Network.dyn_peer[23]  lookupStabilitySig:vector  ETV
vector 330082  Network.dyn_peer[23]  lookupTimeSig:vector  ETV
vector 330110  Network.dyn_peer[33]  lookupHopsSig:vector  ETV
vector 330111  Network.dyn_peer[33]  lookupStabilitySig:vector  ETV
vector 330112  Network.dyn_peer[33]  lookupTimeSig:vector  ETV
vector 330140  Network.dyn_peer[43]  lookupHopsSig:vector  ETV
vector 330141  Network.dyn_peer[43]  lookupStabilitySig:vector  ETV
vector 330142  Network.dyn_peer[43]  lookupTimeSig:vector  ETV
vector 330029  Network.dyn_peer[6]  lookupHopsSig:vector  ETV
vector 330030  Network.dyn_peer[6]  lookupStabilitySig:vector  ETV
vector 330031  Network.dyn_peer[6]  lookupTimeSig:vector  ETV
vector 330068  Network.dyn_peer[19]  lookupHopsSig:vector  ETV
vector 330069  Network.dyn_peer[19]  lookupStabilitySig:vector  ETV
vector 330070  Network.dyn_peer[19]  lookupTimeSig:vector  ETV
vector 330041  Network.dyn_peer[10]  lookupHopsSig:vector  ETV
vector 330042  Network.dyn_peer[10]  lookupStabilitySig:vector  ETV
vector 330043  Network.dyn_peer[10]  lookupTimeSig:vector  ETV
vector 330113  Network.dyn_peer[34]  lookupHopsSig:vector  ETV
vector 330114  Network.dyn_peer[34]  lookupStabilitySig:vector  ETV
vector 330115  Network.dyn_peer[34]  lookupTimeSig:vector  ETV
vector 330086  Network.dyn_peer[25]  lookupHopsSig:vector  ETV
vector 330087  Network.dyn_peer[25]  lookupStabilitySig:vector  ETV
vector 330088  Network.dyn_peer[25]  lookupTimeSig:vector  ETV
vector 330095  Network.dyn_peer[28]  lookupHopsSig:vector  ETV
vector 330096  Network.dyn_peer[28]  lookupStabilitySig:vector  ETV
vector 330097  Network.dyn_peer[28]  lookupTimeSig:vector  ETV
vector 330101  Network.dyn_peer[30]  lookupHopsSig:vector  ETV
vector 330102  Network.dyn_peer[30]  lookupStabilitySig:vector  ETV
vector 330103  Network.dyn_peer[30]  lookupTimeSig:vector  ETV
vector 330131  Network.dyn_peer[40]  lookupHopsSig:vector  ETV
vector 330132  Network.dyn_peer[40]  lookupStabilitySig:vector  ETV
vector 330133  Network.dyn_peer[40]  lookupTimeSig:vector  ETV
vector 330170  Network.dyn_peer[53]  lookupHopsSig:vector  ETV
vector 330171  Network.dyn_peer[53]  lookupStabilitySig:vector  ETV
vector 330172  Network.dyn_peer[53]  lookupTimeSig:vector  ETV
vector 330200  Network.dyn_peer[63]  lookupHopsSig:vector  ETV
vector 330201  Network.dyn_peer[63]  lookupStabilitySig:vector  ETV
vector 330202  Network.dyn_peer[63]  lookupTimeSig:vector  ETV
vector 330083  Network.dyn_peer[24]  lookupHopsSig:vector  ETV
vector 330084  Network.dyn_peer[24]  lookupStabilitySig:vector  ETV
vector 330085  Network.dyn_peer[24]  lookupTimeSig:vector  ETV
vector 330119  Network.dyn_peer[36]  lookupHopsSig:vector  ETV
vector 330120  Network.dyn_peer[36]  lookupStabilitySig:vector  ETV
vector 330121  Network.dyn_peer[36]  lookupTimeSig:vector  ETV
vector 330122  Network.dyn_peer[37]  lookupHopsSig:vector  ETV
vector 330123  Network.dyn_peer[37]  lookupStabilitySig:vector  ETV
vector 330124  Network.dyn_peer[37]  lookupTimeSig:vector  ETV
vector 330125  Network.dyn_peer[38]  lookupHopsSig:vector  ETV
vector 330126  Network.dyn_peer[38]  lookupStabilitySig:vector  ETV
vector 330127  Network.dyn_peer[38]  lookupTimeSig:vector  ETV
vector 330221  Network.dyn_peer[70]  lookupHopsSig:vector  ETV
vector 330222  Network.dyn_peer[70]  lookupStabilitySig:vector  ETV
vector 330223  Network.dyn_peer[70]  lookupTimeSig:vector  ETV
vector 330137  Network.dyn_peer[42]  lookupHopsSig:vector  ETV
vector 330138  Network.dyn_peer[42]  lookupStabilitySig:vector  ETV
vector 330139  Network.dyn_peer[42]  lookupTimeSig:vector  ETV
vector 330056  Network.dyn_peer[15]  lookupHopsSig:vector  ETV
vector 330057  Network.dyn_peer[15]  lookupStabilitySig:vector  ETV
vector 330058  Network.dyn_peer[15]  lookupTimeSig:vector  ETV
vector 330089  Network.dyn_peer[26]  lookupHopsSig:vector  ETV
vector 330090  Network.dyn_peer[26]  lookupStabilitySig:vector  ETV
vector 330091  Network.dyn_peer[26]  lookupTimeSig:vector  ETV
vector 330149  Network.dyn_peer[46]  lookupHopsSig:vector  ETV
vector 330150  Network.dyn_peer[46]  lookupStabilitySig:vector  ETV
vector 330151  Network.dyn_peer[46]  lookupTimeSig:vector  ETV
vector 330152  Network.dyn_peer[47]  lookupHopsSig:vector  ETV
vector 330153  Network.dyn_peer[47]  lookupStabilitySig:vector  ETV
vector 330154  Network.dyn_peer[47]  lookupTimeSig:vector  ETV
vector 330074  Network.dyn_peer[21]  lookupHopsSig:vector  ETV
vector 330075  Network.dyn_peer[21]  lookupStabilitySig:vector  ETV
vector 330076  Network.dyn_peer[21]  lookupTimeSig:vector  ETV
vector 330077  Network.dyn_peer[22]  lookupHopsSig:vector  ETV
vector 330078  Network.dyn_peer[22]  lookupStabilitySig:vector  ETV
vector 330079  Network.dyn_peer[22]  lookupTimeSig:vector  ETV
vector 330107  Network.dyn_peer[32]  lookupHopsSig:vector  ETV
vector 330108  Network.dyn_peer[32]  lookupStabilitySig:vector  ETV
vector 330109  Network.dyn_peer[32]  lookupTimeSig:vector  ETV
vector 330197  Network.dyn_peer[62]  lookupHopsSig:vector  ETV
vector 330198  Network.dyn_peer[62]  lookupStabilitySig:vector  ETV
vector 330199  Network.dyn_peer[62]  lookupTimeSig:vector  ETV
vector 330206  Network.dyn_peer[65]  lookupHopsSig:vector  ETV
vector 330207  Network.dyn_peer[65]  lookupStabilitySig:vector  ETV
vector 330208  Network.dyn_peer[65]  lookupTimeSig:vector  ETV
vector 330059  Network.dyn_peer[16]  lookupHopsSig:vector  ETV
vector 330060  Network.dyn_peer[16]  lookupStabilitySig:vector  ETV
vector 330061  Network.dyn_peer[16]  lookupTimeSig:vector  ETV
vector 330245  Network.dyn_peer[78]  lookupHopsSig:vector  ETV
vector 330246  Network.dyn_peer[78]  lookupStabilitySig:vector  ETV
vector 330247  Network.dyn_peer[78]  lookupTimeSig:vector  ETV
vector 330134  Network.dyn_peer[41]  lookupHopsSig:vector  ETV
vector 330135  Network.dyn_peer[41]  lookupStabilitySig:vector  ETV
vector 330136  Network.dyn_peer[41]  lookupTimeSig:vector  ETV
vector 330146  Network.dyn_peer[45]  lookupHopsSig:vector  ETV
vector 330147  Network.dyn_peer[45]  lookupStabilitySig:vector  ETV
vector 330148  Network.dyn_peer[45]  lookupTimeSig:vector  ETV
vector 330182  Network.dyn_peer[57]  lookupHopsSig:vector  ETV
vector 330183  Network.dyn_peer[57]  lookupStabilitySig:vector  ETV
vector 330184  Network.dyn_peer[57]  lookupTimeSig:vector  ETV
vector 330188  Network.dyn_peer[59]  lookupHopsSig:vector  ETV
vector 330189  Network.dyn_peer[59]  lookupStabilitySig:vector  ETV
vector 330190  Network.dyn_peer[59]  lookupTimeSig:vector  ETV
vector 330227  Network.dyn_peer[72]  lookupHopsSig:vector  ETV
vector 330228  Network.dyn_peer[72]  lookupStabilitySig:vector  ETV
vector 330229  Network.dyn_peer[72]  lookupTimeSig:vector  ETV
vector 330257  Network.dyn_peer[82]  lookupHopsSig:vector  ETV
vector 330258  Network.dyn_peer[82]  lookupStabilitySig:vector  ETV
vector 330259  Network.dyn_peer[82]  lookupTimeSig:vector  ETV
vector 330233  Network.dyn_peer[74]  lookupHopsSig:vector  ETV
vector 330234  Network.dyn_peer[74]  lookupStabilitySig:vector  ETV
vector 330235  Network.dyn_peer[74]  lookupTimeSig:vector  ETV
vector 330185  Network.dyn_peer[58]  lookupHopsSig:vector  ETV
vector 330186  Network.dyn_peer[58]  lookupStabilitySig:vector  ETV
vector 330187  Network.dyn_peer[58]  lookupTimeSig:vector  ETV
vector 330215  Network.dyn_peer[68]  lookupHopsSig:vector  ETV
vector 330216  Network.dyn_peer[68]  lookupStabilitySig:vector  ETV
vector 330217  Network.dyn_peer[68]  lookupTimeSig:vector  ETV
vector 330287  Network.dyn_peer[92]  lookupHopsSig:vector  ETV
vector 330288  Network.dyn_peer[92]  lookupStabilitySig:vector  ETV
vector 330289  Network.dyn_peer[92]  lookupTimeSig:vector  ETV
vector 330260  Network.dyn_peer[83]  lookupHopsSig:vector  ETV
vector 330261  Network.dyn_peer[83]  lookupStabilitySig:vector  ETV
vector 330262  Network.dyn_peer[83]  lookupTimeSig:vector  ETV
vector 330293  Network.dyn_peer[94]  lookupHopsSig:vector  ETV
vector 330294  Network.dyn_peer[94]  lookupStabilitySig:vector  ETV
vector 330295  Network.dyn_peer[94]  lookupTimeSig:vector  ETV
vector 330296  Network.dyn_peer[95]  lookupHopsSig:vector  ETV
vector 330297  Network.dyn_peer[95]  lookupStabilitySig:vector  ETV
vector 330298  Network.dyn_peer[95]  lookupTimeSig:vector  ETV
vector 330212  Network.dyn_peer[67]  lookupHopsSig:vector  ETV
vector 330213  Network.dyn_peer[67]  lookupStabilitySig:vector  ETV
vector 330214  Network.dyn_peer[67]  lookupTimeSig:vector  ETV
vector 330335  Network.dyn_peer[108]  lookupHopsSig:vector  ETV
vector 330336  Network.dyn_peer[108]  lookupStabilitySig:vector  ETV
vector 330337  Network.dyn_peer[108]  lookupTimeSig:vector  ETV
vector 330191  Network.dyn_peer[60]  lookupHopsSig:vector  ETV
vector 330192  Network.dyn_peer[60]  lookupStabilitySig:vector  ETV
vector 330193  Network.dyn_peer[60]  lookupTimeSig:vector  ETV
vector 330167  Network.dyn_peer[52]  lookupHopsSig:vector  ETV
vector 330168  Network.dyn_peer[52]  lookupStabilitySig:vector  ETV
vector 330169  Network.dyn_peer[52]  lookupTimeSig:vector  ETV
vector 330272  Network.dyn_peer[87]  lookupHopsSig:vector  ETV
vector 330273  Network.dyn_peer[87]  lookupStabilitySig:vector  ETV
vector 330274  Network.dyn_peer[87]  lookupTimeSig:vector  ETV
vector 330158  Network.dyn_peer[49]  lookupHopsSig:vector  ETV
vector 330159  Network.dyn_peer[49]  lookupStabilitySig:vector  ETV
vector 330160  Network.dyn_peer[49]  lookupTimeSig:vector  ETV
vector 330308  Network.dyn_peer[99]  lookupHopsSig:vector  ETV
vector 330309  Network.dyn_peer[99]  lookupStabilitySig:vector  ETV
vector 330310  Network.dyn_peer[99]  lookupTimeSig:vector  ETV
vector 330251  Network.dyn_peer[80]  lookupHopsSig:vector  ETV
vector 330252  Network.dyn_peer[80]  lookupStabilitySig:vector  ETV
vector 330253  Network.dyn_peer[80]  lookupTimeSig:vector  ETV
vector 330344  Network.dyn_peer[111]  lookupHopsSig:vector  ETV
vector 330345  Network.dyn_peer[111]  lookupStabilitySig:vector  ETV
vector 330346  Network.dyn_peer[111]  lookupTimeSig:vector  ETV
vector 330290  Network.dyn_peer[93]  lookupHopsSig:vector  ETV
vector 330291  Network.dyn_peer[93]  lookupStabilitySig:vector  ETV
vector 330292  Network.dyn_peer[93]  lookupTimeSig:vector  ETV
vector 330143  Network.dyn_peer[44]  lookupHopsSig:vector  ETV
vector 330144  Network.dyn_peer[44]  lookupStabilitySig:vector  ETV
vector 330145  Network.dyn_peer[44]  lookupTimeSig:vector  ETV
vector 330311  Network.dyn_peer[100]  lookupHopsSig:vector  ETV
vector 330312  Network.dyn_peer[100]  lookupStabilitySig:vector  ETV
vector 330313  Network.dyn_peer[100]  lookupTimeSig:vector  ETV
vector 330377  Network.dyn_peer[122]  lookupHopsSig:vector  ETV
vector 330378  Network.dyn_peer[122]  lookupStabilitySig:vector  ETV
vector 330379  Network.dyn_peer[122]  lookupTimeSig:vector  ETV
vector 330407  Network.dyn_peer[132]  lookupHopsSig:vector  ETV
vector 330408  Network.dyn_peer[132]  lookupStabilitySig:vector  ETV
vector 330409  Network.dyn_peer[132]  lookupTimeSig:vector  ETV
vector 330239  Network.dyn_peer[76]  lookupHopsSig:vector  ETV
vector 330240  Network.dyn_peer[76]  lookupStabilitySig:vector  ETV
vector 330241  Network.dyn_peer[76]  lookupTimeSig:vector  ETV
vector 330401  Network.dyn_peer[130]  lookupHopsSig:vector  ETV
vector 330402  Network.dyn_peer[130]  lookupStabilitySig:vector  ETV
vector 330403  Network.dyn_peer[130]  lookupTimeSig:vector  ETV
vector 330194  Network.dyn_peer[61]  lookupHopsSig:vector  ETV
vector 330195  Network.dyn_peer[61]  lookupStabilitySig:vector  ETV
vector 330196  Network.dyn_peer[61]  lookupTimeSig:vector  ETV
vector 330314  Network.dyn_peer[101]  lookupHopsSig:vector  ETV
vector 330315  Network.dyn_peer[101]  lookupStabilitySig:vector  ETV
vector 330316  Network.dyn_peer[101]  lookupTimeSig:vector  ETV
vector 330203  Network.dyn_peer[64]  lookupHopsSig:vector  ETV
vector 330204  Network.dyn_peer[64]  lookupStabilitySig:vector  ETV
vector 330205  Network.dyn_peer[64]  lookupTimeSig:vector  ETV
vector 330116  Network.dyn_peer[35]  lookupHopsSig:vector  ETV
vector 330117  Network.dyn_peer[35]  lookupStabilitySig:vector  ETV
vector 330118  Network.dyn_peer[35]  lookupTimeSig:vector  ETV
vector 330419  Network.dyn_peer[136]  lookupHopsSig:vector  ETV
vector 330420  Network.dyn_peer[136]  lookupStabilitySig:vector  ETV
vector 330421  Network.dyn_peer[136]  lookupTimeSig:vector  ETV
vector 330224  Network.dyn_peer[71]  lookupHopsSig:vector  ETV
vector 330225  Network.dyn_peer[71]  lookupStabilitySig:vector  ETV
vector 330226  Network.dyn_peer[71]  lookupTimeSig:vector  ETV
vector 330347  Network.dyn_peer[112]  lookupHopsSig:vector  ETV
vector 330348  Network.dyn_peer[112]  lookupStabilitySig:vector  ETV
vector 330349  Network.dyn_peer[112]  lookupTimeSig:vector  ETV
vector 330383  Network.dyn_peer[124]  lookupHopsSig:vector  ETV
vector 330384  Network.dyn_peer[124]  lookupStabilitySig:vector  ETV
vector 330385  Network.dyn_peer[124]  lookupTimeSig:vector  ETV
vector 330236  Network.dyn_peer[75]  lookupHopsSig:vector  ETV
vector 330237  Network.dyn_peer[75]  lookupStabilitySig:vector  ETV
vector 330238  Network.dyn_peer[75]  lookupTimeSig:vector  ETV
vector 330416  Network.dyn_peer[135]  lookupHopsSig:vector  ETV
vector 330417  Network.dyn_peer[135]  lookupStabilitySig:vector  ETV
vector 330418  Network.dyn_peer[135]  lookupTimeSig:vector  ETV
vector 330209  Network.dyn_peer[66]  lookupHopsSig:vector  ETV
vector 330210  Network.dyn_peer[66]  lookupStabilitySig:vector  ETV
vector 330211  Network.dyn_peer[66]  lookupTimeSig:vector  ETV
vector 330455  Network.dyn_peer[148]  lookupHopsSig:vector  ETV
vector 330456  Network.dyn_peer[148]  lookupStabilitySig:vector  ETV
vector 330457  Network.dyn_peer[148]  lookupTimeSig:vector  ETV
vector 330338  Network.dyn_peer[109]  lookupHopsSig:vector  ETV
vector 330339  Network.dyn_peer[109]  lookupStabilitySig:vector  ETV
vector 330340  Network.dyn_peer[109]  lookupTimeSig:vector  ETV
vector 330374  Network.dyn_peer[121]  lookupHopsSig:vector  ETV
vector 330375  Network.dyn_peer[121]  lookupStabilitySig:vector  ETV
vector 330376  Network.dyn_peer[121]  lookupTimeSig:vector  ETV
vector 330464  Network.dyn_peer[151]  lookupHopsSig:vector  ETV
vector 330465  Network.dyn_peer[151]  lookupStabilitySig:vector  ETV
vector 330466  Network.dyn_peer[151]  lookupTimeSig:vector  ETV
vector 330437  Network.dyn_peer[142]  lookupHopsSig:vector  ETV
vector 330438  Network.dyn_peer[142]  lookupStabilitySig:vector  ETV
vector 330439  Network.dyn_peer[142]  lookupTimeSig:vector  ETV
vector 330263  Network.dyn_peer[84]  lookupHopsSig:vector  ETV
vector 330264  Network.dyn_peer[84]  lookupStabilitySig:vector  ETV
vector 330265  Network.dyn_peer[84]  lookupTimeSig:vector  ETV
vector 330326  Network.dyn_peer[105]  lookupHopsSig:vector  ETV
vector 330327  Network.dyn_peer[105]  lookupStabilitySig:vector  ETV
vector 330328  Network.dyn_peer[105]  lookupTimeSig:vector  ETV
vector 330536  Network.dyn_peer[175]  lookupHopsSig:vector  ETV
vector 330537  Network.dyn_peer[175]  lookupStabilitySig:vector  ETV
vector 330538  Network.dyn_peer[175]  lookupTimeSig:vector  ETV
vector 330362  Network.dyn_peer[117]  lookupHopsSig:vector  ETV
vector 330363  Network.dyn_peer[117]  lookupStabilitySig:vector  ETV
vector 330364  Network.dyn_peer[117]  lookupTimeSig:vector  ETV
vector 330485  Network.dyn_peer[158]  lookupHopsSig:vector  ETV
vector 330486  Network.dyn_peer[158]  lookupStabilitySig:vector  ETV
vector 330487  Network.dyn_peer[158]  lookupTimeSig:vector  ETV
vector 330278  Network.dyn_peer[89]  lookupHopsSig:vector  ETV
vector 330279  Network.dyn_peer[89]  lookupStabilitySig:vector  ETV
vector 330280  Network.dyn_peer[89]  lookupTimeSig:vector  ETV
vector 330164  Network.dyn_peer[51]  lookupHopsSig:vector  ETV
vector 330165  Network.dyn_peer[51]  lookupStabilitySig:vector  ETV
vector 330166  Network.dyn_peer[51]  lookupTimeSig:vector  ETV
vector 330284  Network.dyn_peer[91]  lookupHopsSig:vector  ETV
vector 330285  Network.dyn_peer[91]  lookupStabilitySig:vector  ETV
vector 330286  Network.dyn_peer[91]  lookupTimeSig:vector  ETV
vector 330266  Network.dyn_peer[85]  lookupHopsSig:vector  ETV
vector 330267  Network.dyn_peer[85]  lookupStabilitySig:vector  ETV
vector 330268  Network.dyn_peer[85]  lookupTimeSig:vector  ETV
vector 330323  Network.dyn_peer[104]  lookupHopsSig:vector  ETV
vector 330324  Network.dyn_peer[104]  lookupStabilitySig:vector  ETV
vector 330325  Network.dyn_peer[104]  lookupTimeSig:vector  ETV
vector 330353  Network.dyn_peer[114]  lookupHopsSig:vector  ETV
vector 330354  Network.dyn_peer[114]  lookupStabilitySig:vector  ETV
vector 330355  Network.dyn_peer[114]  lookupTimeSig:vector  ETV
vector 330356  Network.dyn_peer[115]  lookupHopsSig:vector  ETV
vector 330357  Network.dyn_peer[115]  lookupStabilitySig:vector  ETV
vector 330358  Network.dyn_peer[115]  lookupTimeSig:vector  ETV
vector 330479  Network.dyn_peer[156]  lookupHopsSig:vector  ETV
vector 330480  Network.dyn_peer[156]  lookupStabilitySig:vector  ETV
vector 330481  Network.dyn_peer[156]  lookupTimeSig:vector  ETV
vector 330539  Network.dyn_peer[176]  lookupHopsSig:vector  ETV
vector 330540  Network.dyn_peer[176]  lookupStabilitySig:vector  ETV
vector 330541  Network.dyn_peer[176]  lookupTimeSig:vector  ETV
vector 330512  Network.dyn_peer[167]  lookupHopsSig:vector  ETV
vector 330513  Network.dyn_peer[167]  lookupStabilitySig:vector  ETV
vector 330514  Network.dyn_peer[167]  lookupTimeSig:vector  ETV
vector 330425  Network.dyn_peer[138]  lookupHopsSig:vector  ETV
vector 330426  Network.dyn_peer[138]  lookupStabilitySig:vector  ETV
vector 330427  Network.dyn_peer[138]  lookupTimeSig:vector  ETV
vector 330398  Network.dyn_peer[129]  lookupHopsSig:vector  ETV
vector 330399  Network.dyn_peer[129]  lookupStabilitySig:vector  ETV
vector 330400  Network.dyn_peer[129]  lookupTimeSig:vector  ETV
vector 330161  Network.dyn_peer[50]  lookupHopsSig:vector  ETV
vector 330162  Network.dyn_peer[50]  lookupStabilitySig:vector  ETV
vector 330163  Network.dyn_peer[50]  lookupTimeSig:vector  ETV
vector 330494  Network.dyn_peer[161]  lookupHopsSig:vector  ETV
vector 330495  Network.dyn_peer[161]  lookupStabilitySig:vector  ETV
vector 330496  Network.dyn_peer[161]  lookupTimeSig:vector  ETV
vector 330269  Network.dyn_peer[86]  lookupHopsSig:vector  ETV
vector 330270  Network.dyn_peer[86]  lookupStabilitySig:vector  ETV
vector 330271  Network.dyn_peer[86]  lookupTimeSig:vector  ETV
vector 330299  Network.dyn_peer[96]  lookupHopsSig:vector  ETV
vector 330300  Network.dyn_peer[96]  lookupStabilitySig:vector  ETV
vector 330301  Network.dyn_peer[96]  lookupTimeSig:vector  ETV
vector 330461  Network.dyn_peer[150]  lookupHopsSig:vector  ETV
vector 330462  Network.dyn_peer[150]  lookupStabilitySig:vector  ETV
vector 330463  Network.dyn_peer[150]  lookupTimeSig:vector  ETV
vector 330551  Network.dyn_peer[180]  lookupHopsSig:vector  ETV
vector 330552  Network.dyn_peer[180]  lookupStabilitySig:vector  ETV
vector 330553  Network.dyn_peer[180]  lookupTimeSig:vector  ETV
vector 330404  Network.dyn_peer[131]  lookupHopsSig:vector  ETV
vector 330405  Network.dyn_peer[131]  lookupStabilitySig:vector  ETV
vector 330406  Network.dyn_peer[131]  lookupTimeSig:vector  ETV
vector 330467  Network.dyn_peer[152]  lookupHopsSig:vector  ETV
vector 330468  Network.dyn_peer[152]  lookupStabilitySig:vector  ETV
vector 330469  Network.dyn_peer[152]  lookupTimeSig:vector  ETV
vector 330230  Network.dyn_peer[73]  lookupHopsSig:vector  ETV
vector 330231  Network.dyn_peer[73]  lookupStabilitySig:vector  ETV
vector 330232  Network.dyn_peer[73]  lookupTimeSig:vector  ETV
vector 330470  Network.dyn_peer[153]  lookupHopsSig:vector  ETV
vector 330471  Network.dyn_peer[153]  lookupStabilitySig:vector  ETV
vector 330472  Network.dyn_peer[153]  lookupTimeSig:vector  ETV
vector 330506  Network.dyn_peer[165]  lookupHopsSig:vector  ETV
vector 330507  Network.dyn_peer[165]  lookupStabilitySig:vector  ETV
vector 330508  Network.dyn_peer[165]  lookupTimeSig:vector  ETV
vector 330599  Network.dyn_peer[196]  lookupHopsSig:vector  ETV
vector 330600  Network.dyn_peer[196]  lookupStabilitySig:vector  ETV
vector 330601  Network.dyn_peer[196]  lookupTimeSig:vector  ETV
vector 330422  Network.dyn_peer[137]  lookupHopsSig:vector  ETV
vector 330423  Network.dyn_peer[137]  lookupStabilitySig:vector  ETV
vector 330424  Network.dyn_peer[137]  lookupTimeSig:vector  ETV
vector 330305  Network.dyn_peer[98]  lookupHopsSig:vector  ETV
vector 330306  Network.dyn_peer[98]  lookupStabilitySig:vector  ETV
vector 330307  Network.dyn_peer[98]  lookupTimeSig:vector  ETV
vector 330395  Network.dyn_peer[128]  lookupHopsSig:vector  ETV
vector 330396  Network.dyn_peer[128]  lookupStabilitySig:vector  ETV
vector 330397  Network.dyn_peer[128]  lookupTimeSig:vector  ETV
vector 330518  Network.dyn_peer[169]  lookupHopsSig:vector  ETV
vector 330519  Network.dyn_peer[169]  lookupStabilitySig:vector  ETV
vector 330520  Network.dyn_peer[169]  lookupTimeSig:vector  ETV
vector 330521  Network.dyn_peer[170]  lookupHopsSig:vector  ETV
vector 330522  Network.dyn_peer[170]  lookupStabilitySig:vector  ETV
vector 330523  Network.dyn_peer[170]  lookupTimeSig:vector  ETV
vector 330500  Network.dyn_peer[163]  lookupHopsSig:vector  ETV
vector 330501  Network.dyn_peer[163]  lookupStabilitySig:vector  ETV
vector 330502  Network.dyn_peer[163]  lookupTimeSig:vector  ETV
vector 330443  Network.dyn_peer[144]  lookupHopsSig:vector  ETV
vector 330444  Network.dyn_peer[144]  lookupStabilitySig:vector  ETV
vector 330445  Network.dyn_peer[144]  lookupTimeSig:vector  ETV
vector 330563  Network.dyn_peer[184]  lookupHopsSig:vector  ETV
vector 330564  Network.dyn_peer[184]  lookupStabilitySig:vector  ETV
vector 330565  Network.dyn_peer[184]  lookupTimeSig:vector  ETV
vector 330593  Network.dyn_peer[194]  lookupHopsSig:vector  ETV
vector 330594  Network.dyn_peer[194]  lookupStabilitySig:vector  ETV
vector 330595  Network.dyn_peer[194]  lookupTimeSig:vector  ETV
vector 330515  Network.dyn_peer[168]  lookupHopsSig:vector  ETV
vector 330516  Network.dyn_peer[168]  lookupStabilitySig:vector  ETV
vector 330517  Network.dyn_peer[168]  lookupTimeSig:vector  ETV
vector 330545  Network.dyn_peer[178]  lookupHopsSig:vector  ETV
vector 330546  Network.dyn_peer[178]  lookupStabilitySig:vector  ETV
vector 330547  Network.dyn_peer[178]  lookupTimeSig:vector  ETV
vector 330281  Network.dyn_peer[90]  lookupHopsSig:vector  ETV
vector 330282  Network.dyn_peer[90]  lookupStabilitySig:vector  ETV
vector 330283  Network.dyn_peer[90]  lookupTimeSig:vector  ETV
vector 330584  Network.dyn_peer[191]  lookupHopsSig:vector  ETV
vector 330585  Network.dyn_peer[191]  lookupStabilitySig:vector  ETV
vector 330586  Network.dyn_peer[191]  lookupTimeSig:vector  ETV
vector 330440  Network.dyn_peer[143]  lookupHopsSig:vector  ETV
vector 330441  Network.dyn_peer[143]  lookupStabilitySig:vector  ETV
vector 330442  Network.dyn_peer[143]  lookupTimeSig:vector  ETV
vector 330473  Network.dyn_peer[154]  lookupHopsSig:vector  ETV
vector 330474  Network.dyn_peer[154]  lookupStabilitySig:vector  ETV
vector 330475  Network.dyn_peer[154]  lookupTimeSig:vector  ETV
vector 330449  Network.dyn_peer[146]  lookupHopsSig:vector  ETV
vector 330450  Network.dyn_peer[146]  lookupStabilitySig:vector  ETV
vector 330451  Network.dyn_peer[146]  lookupTimeSig:vector  ETV
vector 330602  Network.dyn_peer[197]  lookupHopsSig:vector  ETV
vector 330603  Network.dyn_peer[197]  lookupStabilitySig:vector  ETV
vector 330604  Network.dyn_peer[197]  lookupTimeSig:vector  ETV
vector 330605  Network.dyn_peer[198]  lookupHopsSig:vector  ETV
vector 330606  Network.dyn_peer[198]  lookupStabilitySig:vector  ETV
vector 330607  Network.dyn_peer[198]  lookupTimeSig:vector  ETV
vector 330341  Network.dyn_peer[110]  lookupHopsSig:vector  ETV
vector 330342  Network.dyn_peer[110]  lookupStabilitySig:vector  ETV
vector 330343  Network.dyn_peer[110]  lookupTimeSig:vector  ETV
vector 330527  Network.dyn_peer[172]  lookupHopsSig:vector  ETV
vector 330528  Network.dyn_peer[172]  lookupStabilitySig:vector  ETV
vector 330529  Network.dyn_peer[172]  lookupTimeSig:vector  ETV
vector 330320  Network.dyn_peer[103]  lookupHopsSig:vector  ETV
vector 330321  Network.dyn_peer[103]  lookupStabilitySig:vector  ETV
vector 330322  Network.dyn_peer[103]  lookupTimeSig:vector  ETV
vector 330359  Network.dyn_peer[116]  lookupHopsSig:vector  ETV
vector 330360  Network.dyn_peer[116]  lookupStabilitySig:vector  ETV
vector 330361  Network.dyn_peer[116]  lookupTimeSig:vector  ETV
vector 330128  Network.dyn_peer[39]  lookupHopsSig:vector  ETV
vector 330129  Network.dyn_peer[39]  lookupStabilitySig:vector  ETV
vector 330130  Network.dyn_peer[39]  lookupTimeSig:vector  ETV
vector 330368  Network.dyn_peer[119]  lookupHopsSig:vector  ETV
vector 330369  Network.dyn_peer[119]  lookupStabilitySig:vector  ETV
vector 330370  Network.dyn_peer[119]  lookupTimeSig:vector  ETV
vector 330548  Network.dyn_peer[179]  lookupHopsSig:vector  ETV
vector 330549  Network.dyn_peer[179]  lookupStabilitySig:vector  ETV
vector 330550  Network.dyn_peer[179]  lookupTimeSig:vector  ETV
vector 330371  Network.dyn_peer[120]  lookupHopsSig:vector  ETV
vector 330372  Network.dyn_peer[120]  lookupStabilitySig:vector  ETV
vector 330373  Network.dyn_peer[120]  lookupTimeSig:vector  ETV
vector 330524  Network.dyn_peer[171]  lookupHopsSig:vector  ETV
vector 330525  Network.dyn_peer[171]  lookupStabilitySig:vector  ETV
vector 330526  Network.dyn_peer[171]  lookupTimeSig:vector  ETV
vector 330596  Network.dyn_peer[195]  lookupHopsSig:vector  ETV
vector 330597  Network.dyn_peer[195]  lookupStabilitySig:vector  ETV
vector 330598  Network.dyn_peer[195]  lookupTimeSig:vector  ETV
vector 330329  Network.dyn_peer[106]  lookupHopsSig:vector  ETV