version 2
run Stability2-59-20130528-01:28:53-24168
attr configname Stability2
attr datetime 20130528-01:28:53
attr experiment Stability2
attr inifile omnetpp.ini
attr iterationvars $0=100
attr iterationvars2 "$0=100, $repetition=9"
attr measurement $0=100
attr network Network
attr processid 24168
attr repetition 9
attr replication #9
attr resultdir results
attr runnumber 59
attr seedset 59

vector 1800059  Network.churner  inGoingSizeSig:vector  ETV
vector 1770074  Network.dyn_peer[5]  lookupHopsSig:vector  ETV
vector 1770075  Network.dyn_peer[5]  lookupStabilitySig:vector  ETV
vector 1770076  Network.dyn_peer[5]  lookupTimeSig:vector  ETV
vector 1770077  Network.dyn_peer[6]  lookupHopsSig:vector  ETV
vector 1770078  Network.dyn_peer[6]  lookupStabilitySig:vector  ETV
vector 1770079  Network.dyn_peer[6]  lookupTimeSig:vector  ETV
vector 1770059  Network.dyn_peer[0]  lookupHopsSig:vector  ETV
vector 1770060  Network.dyn_peer[0]  lookupStabilitySig:vector  ETV
vector 1770061  Network.dyn_peer[0]  lookupTimeSig:vector  ETV
vector 1770062  Network.dyn_peer[1]  lookupHopsSig:vector  ETV
vector 1770063  Network.dyn_peer[1]  lookupStabilitySig:vector  ETV
vector 1770064  Network.dyn_peer[1]  lookupTimeSig:vector  ETV
vector 1770092  Network.dyn_peer[11]  lookupHopsSig:vector  ETV
vector 1770093  Network.dyn_peer[11]  lookupStabilitySig:vector  ETV
vector 1770094  Network.dyn_peer[11]  lookupTimeSig:vector  ETV
vector 1770065  Network.dyn_peer[2]  lookupHopsSig:vector  ETV
vector 1770066  Network.dyn_peer[2]  lookupStabilitySig:vector  ETV
vector 1770067  Network.dyn_peer[2]  lookupTimeSig:vector  ETV
vector 1770068  Network.dyn_peer[3]  lookupHopsSig:vector  ETV
vector 1770069  Network.dyn_peer[3]  lookupStabilitySig:vector  ETV
vector 1770070  Network.dyn_peer[3]  lookupTimeSig:vector  ETV
vector 1770098  Network.dyn_peer[13]  lookupHopsSig:vector  ETV
vector 1770099  Network.dyn_peer[13]  lookupStabilitySig:vector  ETV
vector 1770100  Network.dyn_peer[13]  lookupTimeSig:vector  ETV
vector 1770071  Network.dyn_peer[4]  lookupHopsSig:vector  ETV
vector 1770072  Network.dyn_peer[4]  lookupStabilitySig:vector  ETV
vector 1770073  Network.dyn_peer[4]  lookupTimeSig:vector  ETV
vector 1770116  Network.dyn_peer[19]  lookupHopsSig:vector  ETV
vector 1770117  Network.dyn_peer[19]  lookupStabilitySig:vector  ETV
vector 1770118  Network.dyn_peer[19]  lookupTimeSig:vector  ETV
vector 1770131  Network.dyn_peer[24]  lookupHopsSig:vector  ETV
vector 1770132  Network.dyn_peer[24]  lookupStabilitySig:vector  ETV
vector 1770133  Network.dyn_peer[24]  lookupTimeSig:vector  ETV
vector 1770080  Network.dyn_peer[7]  lookupHopsSig:vector  ETV
vector 1770081  Network.dyn_peer[7]  lookupStabilitySig:vector  ETV
vector 1770082  Network.dyn_peer[7]  lookupTimeSig:vector  ETV
vector 1770110  Network.dyn_peer[17]  lookupHopsSig:vector  ETV
vector 1770111  Network.dyn_peer[17]  lookupStabilitySig:vector  ETV
vector 1770112  Network.dyn_peer[17]  lookupTimeSig:vector  ETV
vector 1770083  Network.dyn_peer[8]  lookupHopsSig:vector  ETV
vector 1770084  Network.dyn_peer[8]  lookupStabilitySig:vector  ETV
vector 1770085  Network.dyn_peer[8]  lookupTimeSig:vector  ETV
vector 1770149  Network.dyn_peer[30]  lookupHopsSig:vector  ETV
vector 1770150  Network.dyn_peer[30]  lookupStabilitySig:vector  ETV
vector 1770151  Network.dyn_peer[30]  lookupTimeSig:vector  ETV
vector 1770122  Network.dyn_peer[21]  lookupHopsSig:vector  ETV
vector 1770123  Network.dyn_peer[21]  lookupStabilitySig:vector  ETV
vector 1770124  Network.dyn_peer[21]  lookupTimeSig:vector  ETV
vector 1770134  Network.dyn_peer[25]  lookupHopsSig:vector  ETV
vector 1770135  Network.dyn_peer[25]  lookupStabilitySig:vector  ETV
vector 1770136  Network.dyn_peer[25]  lookupTimeSig:vector  ETV
vector 1770107  Network.dyn_peer[16]  lookupHopsSig:vector  ETV
vector 1770108  Network.dyn_peer[16]  lookupStabilitySig:vector  ETV
vector 1770109  Network.dyn_peer[16]  lookupTimeSig:vector  ETV
vector 1770113  Network.dyn_peer[18]  lookupHopsSig:vector  ETV
vector 1770114  Network.dyn_peer[18]  lookupStabilitySig:vector  ETV
vector 1770115  Network.dyn_peer[18]  lookupTimeSig:vector  ETV
vector 1770086  Network.dyn_peer[9]  lookupHopsSig:vector  ETV
vector 1770087  Network.dyn_peer[9]  lookupStabilitySig:vector  ETV
vector 1770088  Network.dyn_peer[9]  lookupTimeSig:vector  ETV
vector 1770089  Network.dyn_peer[10]  lookupHopsSig:vector  ETV
vector 1770090  Network.dyn_peer[10]  lookupStabilitySig:vector  ETV
vector 1770091  Network.dyn_peer[10]  lookupTimeSig:vector  ETV
vector 1770179  Network.dyn_peer[40]  lookupHopsSig:vector  ETV
vector 1770180  Network.dyn_peer[40]  lookupStabilitySig:vector  ETV
vector 1770181  Network.dyn_peer[40]  lookupTimeSig:vector  ETV
vector 1770095  Network.dyn_peer[12]  lookupHopsSig:vector  ETV
vector 1770096  Network.dyn_peer[12]  lookupStabilitySig:vector  ETV
vector 1770097  Network.dyn_peer[12]  lookupTimeSig:vector  ETV
vector 1770128  Network.dyn_peer[23]  lookupHopsSig:vector  ETV
vector 1770129  Network.dyn_peer[23]  lookupStabilitySig:vector  ETV
vector 1770130  Network.dyn_peer[23]  lookupTimeSig:vector  ETV
vector 1770101  Network.dyn_peer[14]  lookupHopsSig:vector  ETV
vector 1770102  Network.dyn_peer[14]  lookupStabilitySig:vector  ETV
vector 1770103  Network.dyn_peer[14]  lookupTimeSig:vector  ETV
vector 1770197  Network.dyn_peer[46]  lookupHopsSig:vector  ETV
vector 1770198  Network.dyn_peer[46]  lookupStabilitySig:vector  ETV
vector 1770199  Network.dyn_peer[46]  lookupTimeSig:vector  ETV
vector 1770173  Network.dyn_peer[38]  lookupHopsSig:vector  ETV
vector 1770174  Network.dyn_peer[38]  lookupStabilitySig:vector  ETV
vector 1770175  Network.dyn_peer[38]  lookupTimeSig:vector  ETV
vector 1770119  Network.dyn_peer[20]  lookupHopsSig:vector  ETV
vector 1770120  Network.dyn_peer[20]  lookupStabilitySig:vector  ETV
vector 1770121  Network.dyn_peer[20]  lookupTimeSig:vector  ETV
vector 1770155  Network.dyn_peer[32]  lookupHopsSig:vector  ETV
vector 1770156  Network.dyn_peer[32]  lookupStabilitySig:vector  ETV
vector 1770157  Network.dyn_peer[32]  lookupTimeSig:vector  ETV
vector 1770104  Network.dyn_peer[15]  lookupHopsSig:vector  ETV
vector 1770105  Network.dyn_peer[15]  lookupStabilitySig:vector  ETV
vector 1770106  Network.dyn_peer[15]  lookupTimeSig:vector  ETV
vector 1770224  Network.dyn_peer[55]  lookupHopsSig:vector  ETV
vector 1770225  Network.dyn_peer[55]  lookupStabilitySig:vector  ETV
vector 1770226  Network.dyn_peer[55]  lookupTimeSig:vector  ETV
vector 1770200  Network.dyn_peer[47]  lookupHopsSig:vector  ETV
vector 1770201  Network.dyn_peer[47]  lookupStabilitySig:vector  ETV
vector 1770202  Network.dyn_peer[47]  lookupTimeSig:vector  ETV
vector 1770203  Network.dyn_peer[48]  lookupHopsSig:vector  ETV
vector 1770204  Network.dyn_peer[48]  lookupStabilitySig:vector  ETV
vector 1770205  Network.dyn_peer[48]  lookupTimeSig:vector  ETV
vector 1770161  Network.dyn_peer[34]  lookupHopsSig:vector  ETV
vector 1770162  Network.dyn_peer[34]  lookupStabilitySig:vector  ETV
vector 1770163  Network.dyn_peer[34]  lookupTimeSig:vector  ETV
vector 1770194  Network.dyn_peer[45]  lookupHopsSig:vector  ETV
vector 1770195  Network.dyn_peer[45]  lookupStabilitySig:vector  ETV
vector 1770196  Network.dyn_peer[45]  lookupTimeSig:vector  ETV
vector 1770137  Network.dyn_peer[26]  lookupHopsSig:vector  ETV
vector 1770138  Network.dyn_peer[26]  lookupStabilitySig:vector  ETV
vector 1770139  Network.dyn_peer[26]  lookupTimeSig:vector  ETV
vector 1770233  Network.dyn_peer[58]  lookupHopsSig:vector  ETV
vector 1770234  Network.dyn_peer[58]  lookupStabilitySig:vector  ETV
vector 1770235  Network.dyn_peer[58]  lookupTimeSig:vector  ETV
vector 1770164  Network.dyn_peer[35]  lookupHopsSig:vector  ETV
vector 1770165  Network.dyn_peer[35]  lookupStabilitySig:vector  ETV
vector 1770166  Network.dyn_peer[35]  lookupTimeSig:vector  ETV
vector 1770290  Network.dyn_peer[77]  lookupHopsSig:vector  ETV
vector 1770291  Network.dyn_peer[77]  lookupStabilitySig:vector  ETV
vector 1770292  Network.dyn_peer[77]  lookupTimeSig:vector  ETV
vector 1770242  Network.dyn_peer[61]  lookupHopsSig:vector  ETV
vector 1770243  Network.dyn_peer[61]  lookupStabilitySig:vector  ETV
vector 1770244  Network.dyn_peer[61]  lookupTimeSig:vector  ETV
vector 1770302  Network.dyn_peer[81]  lookupHopsSig:vector  ETV
vector 1770303  Network.dyn_peer[81]  lookupStabilitySig:vector  ETV
vector 1770304  Network.dyn_peer[81]  lookupTimeSig:vector  ETV
vector 1770215  Network.dyn_peer[52]  lookupHopsSig:vector  ETV
vector 1770216  Network.dyn_peer[52]  lookupStabilitySig:vector  ETV
vector 1770217  Network.dyn_peer[52]  lookupTimeSig:vector  ETV
vector 1770158  Network.dyn_peer[33]  lookupHopsSig:vector  ETV
vector 1770159  Network.dyn_peer[33]  lookupStabilitySig:vector  ETV
vector 1770160  Network.dyn_peer[33]  lookupTimeSig:vector  ETV
vector 1770227  Network.dyn_peer[56]  lookupHopsSig:vector  ETV
vector 1770228  Network.dyn_peer[56]  lookupStabilitySig:vector  ETV
vector 1770229  Network.dyn_peer[56]  lookupTimeSig:vector  ETV
vector 1770140  Network.dyn_peer[27]  lookupHopsSig:vector  ETV
vector 1770141  Network.dyn_peer[27]  lookupStabilitySig:vector  ETV
vector 1770142  Network.dyn_peer[27]  lookupTimeSig:vector  ETV
vector 1770170  Network.dyn_peer[37]  lookupHopsSig:vector  ETV
vector 1770171  Network.dyn_peer[37]  lookupStabilitySig:vector  ETV
vector 1770172  Network.dyn_peer[37]  lookupTimeSig:vector  ETV
vector 1770230  Network.dyn_peer[57]  lookupHopsSig:vector  ETV
vector 1770231  Network.dyn_peer[57]  lookupStabilitySig:vector  ETV
vector 1770232  Network.dyn_peer[57]  lookupTimeSig:vector  ETV
vector 1770263  Network.dyn_peer[68]  lookupHopsSig:vector  ETV
vector 1770264  Network.dyn_peer[68]  lookupStabilitySig:vector  ETV
vector 1770265  Network.dyn_peer[68]  lookupTimeSig:vector  ETV
vector 1770146  Network.dyn_peer[29]  lookupHopsSig:vector  ETV
vector 1770147  Network.dyn_peer[29]  lookupStabilitySig:vector  ETV
vector 1770148  Network.dyn_peer[29]  lookupTimeSig:vector  ETV
vector 1770176  Network.dyn_peer[39]  lookupHopsSig:vector  ETV
vector 1770177  Network.dyn_peer[39]  lookupStabilitySig:vector  ETV
vector 1770178  Network.dyn_peer[39]  lookupTimeSig:vector  ETV
vector 1770152  Network.dyn_peer[31]  lookupHopsSig:vector  ETV
vector 1770153  Network.dyn_peer[31]  lookupStabilitySig:vector  ETV
vector 1770154  Network.dyn_peer[31]  lookupTimeSig:vector  ETV
vector 1770182  Network.dyn_peer[41]  lookupHopsSig:vector  ETV
vector 1770183  Network.dyn_peer[41]  lookupStabilitySig:vector  ETV
vector 1770184  Network.dyn_peer[41]  lookupTimeSig:vector  ETV
vector 1770218  Network.dyn_peer[53]  lookupHopsSig:vector  ETV
vector 1770219  Network.dyn_peer[53]  lookupStabilitySig:vector  ETV
vector 1770220  Network.dyn_peer[53]  lookupTimeSig:vector  ETV
vector 1770320  Network.dyn_peer[87]  lookupHopsSig:vector  ETV
vector 1770321  Network.dyn_peer[87]  lookupStabilitySig:vector  ETV
vector 1770322  Network.dyn_peer[87]  lookupTimeSig:vector  ETV
vector 1770206  Network.dyn_peer[49]  lookupHopsSig:vector  ETV
vector 1770207  Network.dyn_peer[49]  lookupStabilitySig:vector  ETV
vector 1770208  Network.dyn_peer[49]  lookupTimeSig:vector  ETV
vector 1770236  Network.dyn_peer[59]  lookupHopsSig:vector  ETV
vector 1770237  Network.dyn_peer[59]  lookupStabilitySig:vector  ETV
vector 1770238  Network.dyn_peer[59]  lookupTimeSig:vector  ETV
vector 1770125  Network.dyn_peer[22]  lookupHopsSig:vector  ETV
vector 1770126  Network.dyn_peer[22]  lookupStabilitySig:vector  ETV
vector 1770127  Network.dyn_peer[22]  lookupTimeSig:vector  ETV
vector 1770188  Network.dyn_peer[43]  lookupHopsSig:vector  ETV
vector 1770189  Network.dyn_peer[43]  lookupStabilitySig:vector  ETV
vector 1770190  Network.dyn_peer[43]  lookupTimeSig:vector  ETV
vector 1770293  Network.dyn_peer[78]  lookupHopsSig:vector  ETV
vector 1770294  Network.dyn_peer[78]  lookupStabilitySig:vector  ETV
vector 1770295  Network.dyn_peer[78]  lookupTimeSig:vector  ETV
vector 1770353  Network.dyn_peer[98]  lookupHopsSig:vector  ETV
vector 1770354  Network.dyn_peer[98]  lookupStabilitySig:vector  ETV
vector 1770355  Network.dyn_peer[98]  lookupTimeSig:vector  ETV
vector 1770266  Network.dyn_peer[69]  lookupHopsSig:vector  ETV
vector 1770267  Network.dyn_peer[69]  lookupStabilitySig:vector  ETV
vector 1770268  Network.dyn_peer[69]  lookupTimeSig:vector  ETV
vector 1770209  Network.dyn_peer[50]  lookupHopsSig:vector  ETV
vector 1770210  Network.dyn_peer[50]  lookupStabilitySig:vector  ETV
vector 1770211  Network.dyn_peer[50]  lookupTimeSig:vector  ETV
vector 1770269  Network.dyn_peer[70]  lookupHopsSig:vector  ETV
vector 1770270  Network.dyn_peer[70]  lookupStabilitySig:vector  ETV
vector 1770271  Network.dyn_peer[70]  lookupTimeSig:vector  ETV
vector 1770308  Network.dyn_peer[83]  lookupHopsSig:vector  ETV
vector 1770309  Network.dyn_peer[83]  lookupStabilitySig:vector  ETV
vector 1770310  Network.dyn_peer[83]  lookupTimeSig:vector  ETV
vector 1770368  Network.dyn_peer[103]  lookupHopsSig:vector  ETV
vector 1770369  Network.dyn_peer[103]  lookupStabilitySig:vector  ETV
vector 1770370  Network.dyn_peer[103]  lookupTimeSig:vector  ETV
vector 1770314  Network.dyn_peer[85]  lookupHopsSig:vector  ETV
vector 1770315  Network.dyn_peer[85]  lookupStabilitySig:vector  ETV
vector 1770316  Network.dyn_peer[85]  lookupTimeSig:vector  ETV
vector 1770167  Network.dyn_peer[36]  lookupHopsSig:vector  ETV
vector 1770168  Network.dyn_peer[36]  lookupStabilitySig:vector  ETV
vector 1770169  Network.dyn_peer[36]  lookupTimeSig:vector  ETV
vector 1770350  Network.dyn_peer[97]  lookupHopsSig:vector  ETV
vector 1770351  Network.dyn_peer[97]  lookupStabilitySig:vector  ETV
vector 1770352  Network.dyn_peer[97]  lookupTimeSig:vector  ETV
vector 1770332  Network.dyn_peer[91]  lookupHopsSig:vector  ETV
vector 1770333  Network.dyn_peer[91]  lookupStabilitySig:vector  ETV
vector 1770334  Network.dyn_peer[91]  lookupTimeSig:vector  ETV
vector 1770392  Network.dyn_peer[111]  lookupHopsSig:vector  ETV
vector 1770393  Network.dyn_peer[111]  lookupStabilitySig:vector  ETV
vector 1770394  Network.dyn_peer[111]  lookupTimeSig:vector  ETV
vector 1770245  Network.dyn_peer[62]  lookupHopsSig:vector  ETV
vector 1770246  Network.dyn_peer[62]  lookupStabilitySig:vector  ETV
vector 1770247  Network.dyn_peer[62]  lookupTimeSig:vector  ETV
vector 1770305  Network.dyn_peer[82]  lookupHopsSig:vector  ETV
vector 1770306  Network.dyn_peer[82]  lookupStabilitySig:vector  ETV
vector 1770307  Network.dyn_peer[82]  lookupTimeSig:vector  ETV
vector 1770251  Network.dyn_peer[64]  lookupHopsSig:vector  ETV
vector 1770252  Network.dyn_peer[64]  lookupStabilitySig:vector  ETV
vector 1770253  Network.dyn_peer[64]  lookupTimeSig:vector  ETV
vector 1770281  Network.dyn_peer[74]  lookupHopsSig:vector  ETV
vector 1770282  Network.dyn_peer[74]  lookupStabilitySig:vector  ETV
vector 1770283  Network.dyn_peer[74]  lookupTimeSig:vector  ETV
vector 1770257  Network.dyn_peer[66]  lookupHopsSig:vector  ETV
vector 1770258  Network.dyn_peer[66]  lookupStabilitySig:vector  ETV
vector 1770259  Network.dyn_peer[66]  lookupTimeSig:vector  ETV
vector 1770287  Network.dyn_peer[76]  lookupHopsSig:vector  ETV
vector 1770288  Network.dyn_peer[76]  lookupStabilitySig:vector  ETV
vector 1770289  Network.dyn_peer[76]  lookupTimeSig:vector  ETV
vector 1770359  Network.dyn_peer[100]  lookupHopsSig:vector  ETV
vector 1770360  Network.dyn_peer[100]  lookupStabilitySig:vector  ETV
vector 1770361  Network.dyn_peer[100]  lookupTimeSig:vector  ETV
vector 1770401  Network.dyn_peer[114]  lookupHopsSig:vector  ETV
vector 1770402  Network.dyn_peer[114]  lookupStabilitySig:vector  ETV
vector 1770403  Network.dyn_peer[114]  lookupTimeSig:vector  ETV
vector 1770260  Network.dyn_peer[67]  lookupHopsSig:vector  ETV
vector 1770261  Network.dyn_peer[67]  lookupStabilitySig:vector  ETV
vector 1770262  Network.dyn_peer[67]  lookupTimeSig:vector  ETV
vector 1770356  Network.dyn_peer[99]  lookupHopsSig:vector  ETV
vector 1770357  Network.dyn_peer[99]  lookupStabilitySig:vector  ETV
vector 1770358  Network.dyn_peer[99]  lookupTimeSig:vector  ETV
vector 1770386  Network.dyn_peer[109]  lookupHopsSig:vector  ETV
vector 1770387  Network.dyn_peer[109]  lookupStabilitySig:vector  ETV
vector 1770388  Network.dyn_peer[109]  lookupTimeSig:vector  ETV
vector 1770239  Network.dyn_peer[60]  lookupHopsSig:vector  ETV
vector 1770240  Network.dyn_peer[60]  lookupStabilitySig:vector  ETV
vector 1770241  Network.dyn_peer[60]  lookupTimeSig:vector  ETV
vector 1770212  Network.dyn_peer[51]  lookupHopsSig:vector  ETV
vector 1770213  Network.dyn_peer[51]  lookupStabilitySig:vector  ETV
vector 1770214  Network.dyn_peer[51]  lookupTimeSig:vector  ETV
vector 1770275  Network.dyn_peer[72]  lookupHopsSig:vector  ETV
vector 1770276  Network.dyn_peer[72]  lookupStabilitySig:vector  ETV
vector 1770277  Network.dyn_peer[72]  lookupTimeSig:vector  ETV
vector 1770278  Network.dyn_peer[73]  lookupHopsSig:vector  ETV
vector 1770279  Network.dyn_peer[73]  lookupStabilitySig:vector  ETV
vector 1770280  Network.dyn_peer[73]  lookupTimeSig:vector  ETV
vector 1770221  Network.dyn_peer[54]  lookupHopsSig:vector  ETV
vector 1770222  Network.dyn_peer[54]  lookupStabilitySig:vector  ETV
vector 1770223  Network.dyn_peer[54]  lookupTimeSig:vector  ETV
vector 1770254  Network.dyn_peer[65]  lookupHopsSig:vector  ETV
vector 1770255  Network.dyn_peer[65]  lookupStabilitySig:vector  ETV
vector 1770256  Network.dyn_peer[65]  lookupTimeSig:vector  ETV
vector 1770317  Network.dyn_peer[86]  lookupHopsSig:vector  ETV
vector 1770318  Network.dyn_peer[86]  lookupStabilitySig:vector  ETV
vector 1770319  Network.dyn_peer[86]  lookupTimeSig:vector  ETV
vector 1770380  Network.dyn_peer[107]  lookupHopsSig:vector  ETV
vector 1770381  Network.dyn_peer[107]  lookupStabilitySig:vector  ETV
vector 1770382  Network.dyn_peer[107]  lookupTimeSig:vector  ETV
vector 1770446  Network.dyn_peer[129]  lookupHopsSig:vector  ETV
vector 1770447  Network.dyn_peer[129]  lookupStabilitySig:vector  ETV
vector 1770448  Network.dyn_peer[129]  lookupTimeSig:vector  ETV
vector 1770389  Network.dyn_peer[110]  lookupHopsSig:vector  ETV
vector 1770390  Network.dyn_peer[110]  lookupStabilitySig:vector  ETV
vector 1770391  Network.dyn_peer[110]  lookupTimeSig:vector  ETV
vector 1770272  Network.dyn_peer[71]  lookupHopsSig:vector  ETV
vector 1770273  Network.dyn_peer[71]  lookupStabilitySig:vector  ETV
vector 1770274  Network.dyn_peer[71]  lookupTimeSig:vector  ETV
vector 1770521  Network.dyn_peer[154]  lookupHopsSig:vector  ETV
vector 1770522  Network.dyn_peer[154]  lookupStabilitySig:vector  ETV
vector 1770523  Network.dyn_peer[154]  lookupTimeSig:vector  ETV
vector 1770404  Network.dyn_peer[115]  lookupHopsSig:vector  ETV
vector 1770405  Network.dyn_peer[115]  lookupStabilitySig:vector  ETV
vector 1770406  Network.dyn_peer[115]  lookupTimeSig:vector  ETV
vector 1770347  Network.dyn_peer[96]  lookupHopsSig:vector  ETV
vector 1770348  Network.dyn_peer[96]  lookupStabilitySig:vector  ETV
vector 1770349  Network.dyn_peer[96]  lookupTimeSig:vector  ETV
vector 1770377  Network.dyn_peer[106]  lookupHopsSig:vector  ETV
vector 1770378  Network.dyn_peer[106]  lookupStabilitySig:vector  ETV
vector 1770379  Network.dyn_peer[106]  lookupTimeSig:vector  ETV
vector 1770296  Network.dyn_peer[79]  lookupHopsSig:vector  ETV
vector 1770297  Network.dyn_peer[79]  lookupStabilitySig:vector  ETV
vector 1770298  Network.dyn_peer[79]  lookupTimeSig:vector  ETV
vector 1770437  Network.dyn_peer[126]  lookupHopsSig:vector  ETV
vector 1770438  Network.dyn_peer[126]  lookupStabilitySig:vector  ETV
vector 1770439  Network.dyn_peer[126]  lookupTimeSig:vector  ETV
vector 1770410  Network.dyn_peer[117]  lookupHopsSig:vector  ETV
vector 1770411  Network.dyn_peer[117]  lookupStabilitySig:vector  ETV
vector 1770412  Network.dyn_peer[117]  lookupTimeSig:vector  ETV
vector 1770383  Network.dyn_peer[108]  lookupHopsSig:vector  ETV
vector 1770384  Network.dyn_peer[108]  lookupStabilitySig:vector  ETV
vector 1770385  Network.dyn_peer[108]  lookupTimeSig:vector  ETV
vector 1770413  Network.dyn_peer[118]  lookupHopsSig:vector  ETV
vector 1770414  Network.dyn_peer[118]  lookupStabilitySig:vector  ETV
vector 1770415  Network.dyn_peer[118]  lookupTimeSig:vector  ETV
vector 1770506  Network.dyn_peer[149]  lookupHopsSig:vector  ETV
vector 1770507  Network.dyn_peer[149]  lookupStabilitySig:vector  ETV
vector 1770508  Network.dyn_peer[149]  lookupTimeSig:vector  ETV
vector 1770419  Network.dyn_peer[120]  lookupHopsSig:vector  ETV
vector 1770420  Network.dyn_peer[120]  lookupStabilitySig:vector  ETV
vector 1770421  Network.dyn_peer[120]  lookupTimeSig:vector  ETV
vector 1770509  Network.dyn_peer[150]  lookupHopsSig:vector  ETV
vector 1770510  Network.dyn_peer[150]  lookupStabilitySig:vector  ETV
vector 1770511  Network.dyn_peer[150]  lookupTimeSig:vector  ETV
vector 1770485  Network.dyn_peer[142]  lookupHopsSig:vector  ETV
vector 1770486  Network.dyn_peer[142]  lookupStabilitySig:vector  ETV
vector 1770487  Network.dyn_peer[142]  lookupTimeSig:vector  ETV
vector 1770488  Network.dyn_peer[143]  lookupHopsSig:vector  ETV
vector 1770489  Network.dyn_peer[143]  lookupStabilitySig:vector  ETV
vector 1770490  Network.dyn_peer[143]  lookupTimeSig:vector  ETV
vector 1770434  Network.dyn_peer[125]  lookupHopsSig:vector  ETV
vector 1770435  Network.dyn_peer[125]  lookupStabilitySig:vector  ETV
vector 1770436  Network.dyn_peer[125]  lookupTimeSig:vector  ETV
vector 1770326  Network.dyn_peer[89]  lookupHopsSig:vector  ETV
vector 1770327  Network.dyn_peer[89]  lookupStabilitySig:vector  ETV
vector 1770328  Network.dyn_peer[89]  lookupTimeSig:vector  ETV
vector 1770362  Network.dyn_peer[101]  lookupHopsSig:vector  ETV
vector 1770363  Network.dyn_peer[101]  lookupStabilitySig:vector  ETV
vector 1770364  Network.dyn_peer[101]  lookupTimeSig:vector  ETV
vector 1770422  Network.dyn_peer[121]  lookupHopsSig:vector  ETV
vector 1770423  Network.dyn_peer[121]  lookupStabilitySig:vector  ETV
vector 1770424  Network.dyn_peer[121]  lookupTimeSig:vector  ETV
vector 1770512  Network.dyn_peer[151]  lookupHopsSig:vector  ETV
vector 1770513  Network.dyn_peer[151]  lookupStabilitySig:vector  ETV
vector 1770514  Network.dyn_peer[151]  lookupTimeSig:vector  ETV
vector 1770185  Network.dyn_peer[42]  lookupHopsSig:vector  ETV
vector 1770186  Network.dyn_peer[42]  lookupStabilitySig:vector  ETV
vector 1770187  Network.dyn_peer[42]  lookupTimeSig:vector  ETV
vector 1770335  Network.dyn_peer[92]  lookupHopsSig:vector  ETV
vector 1770336  Network.dyn_peer[92]  lookupStabilitySig:vector  ETV
vector 1770337  Network.dyn_peer[92]  lookupTimeSig:vector  ETV
vector 1770431  Network.dyn_peer[124]  lookupHopsSig:vector  ETV
vector 1770432  Network.dyn_peer[124]  lookupStabilitySig:vector  ETV
vector 1770433  Network.dyn_peer[124]  lookupTimeSig:vector  ETV
vector 1770395  Network.dyn_peer[112]  lookupHopsSig:vector  ETV
vector 1770396  Network.dyn_peer[112]  lookupStabilitySig:vector  ETV
vector 1770397  Network.dyn_peer[112]  lookupTimeSig:vector  ETV
vector 1770455  Network.dyn_peer[132]  lookupHopsSig:vector  ETV
vector 1770456  Network.dyn_peer[132]  lookupStabilitySig:vector  ETV
vector 1770457  Network.dyn_peer[132]  lookupTimeSig:vector  ETV
vector 1770248  Network.dyn_peer[63]  lookupHopsSig:vector  ETV
vector 1770249  Network.dyn_peer[63]  lookupStabilitySig:vector  ETV
vector 1770250  Network.dyn_peer[63]  lookupTimeSig:vector  ETV
vector 1770428  Network.dyn_peer[123]  lookupHopsSig:vector  ETV
vector 1770429  Network.dyn_peer[123]  lookupStabilitySig:vector  ETV
vector 1770430  Network.dyn_peer[123]  lookupTimeSig:vector  ETV
vector 1770560  Network.dyn_peer[167]  lookupHopsSig:vector  ETV
vector 1770561  Network.dyn_peer[167]  lookupStabilitySig:vector  ETV
vector 1770562  Network.dyn_peer[167]  lookupTimeSig:vector  ETV
vector 1770533  Network.dyn_peer[158]  lookupHopsSig:vector  ETV
vector 1770534  Network.dyn_peer[158]  lookupStabilitySig:vector  ETV
vector 1770535  Network.dyn_peer[158]  lookupTimeSig:vector  ETV
vector 1770479  Network.dyn_peer[140]  lookupHopsSig:vector  ETV
vector 1770480  Network.dyn_peer[140]  lookupStabilitySig:vector  ETV
vector 1770481  Network.dyn_peer[140]  lookupTimeSig:vector  ETV
vector 1770458  Network.dyn_peer[133]  lookupHopsSig:vector  ETV
vector 1770459  Network.dyn_peer[133]  lookupStabilitySig:vector  ETV
vector 1770460  Network.dyn_peer[133]  lookupTimeSig:vector  ETV
vector 1770548  Network.dyn_peer[163]  lookupHopsSig:vector  ETV
vector 1770549  Network.dyn_peer[163]  lookupStabilitySig:vector  ETV
vector 1770550  Network.dyn_peer[163]  lookupTimeSig:vector  ETV
vector 1770344  Network.dyn_peer[95]  lookupHopsSig:vector  ETV
vector 1770345  Network.dyn_peer[95]  lookupStabilitySig:vector  ETV
vector 1770346  Network.dyn_peer[95]  lookupTimeSig:vector  ETV
vector 1770407  Network.dyn_peer[116]  lookupHopsSig:vector  ETV
vector 1770408  Network.dyn_peer[116]  lookupStabilitySig:vector  ETV
vector 1770409  Network.dyn_peer[116]  lookupTimeSig:vector  ETV
vector 1770416  Network.dyn_peer[119]  lookupHopsSig:vector  ETV
vector 1770417  Network.dyn_peer[119]  lookupStabilitySig:vector  ETV
vector 1770418  Network.dyn_peer[119]  lookupTimeSig:vector  ETV
vector 1770626  Network.dyn_peer[189]  lookupHopsSig:vector  ETV
vector 1770627  Network.dyn_peer[189]  lookupStabilitySig:vector  ETV
vector 1770628  Network.dyn_peer[189]  lookupTimeSig:vector  ETV
vector 1770656  Network.dyn_peer[199]  lookupHopsSig:vector  ETV
vector 1770657  Network.dyn_peer[199]  lookupStabilitySig:vector  ETV
vector 1770658  Network.dyn_peer[199]  lookupTimeSig:vector  ETV
vector 1770329  Network.dyn_peer[90]  lookupHopsSig:vector  ETV
vector 1770330  Network.dyn_peer[90]  lookupStabilitySig:vector  ETV
vector 1770331  Network.dyn_peer[90]  lookupTimeSig:vector  ETV
vector 1770542  Network.dyn_peer[161]  lookupHopsSig:vector  ETV
vector 1770543  Network.dyn_peer[161]  lookupStabilitySig:vector  ETV
vector 1770544  Network.dyn_peer[161]  lookupTimeSig:vector  ETV
vector 1770518  Network.dyn_peer[153]  lookupHopsSig:vector  ETV
vector 1770519  Network.dyn_peer[153]  lookupStabilitySig:vector  ETV
vector 1770520  Network.dyn_peer[153]  lookupTimeSig:vector  ETV
vector 1770494  Network.dyn_peer[145]  lookupHopsSig:vector  ETV
vector 1770495  Network.dyn_peer[145]  lookupStabilitySig:vector  ETV
vector 1770496  Network.dyn_peer[145]  lookupTimeSig:vector  ETV
vector 1770527  Network.dyn_peer[156]  lookupHopsSig:vector  ETV
vector 1770528  Network.dyn_peer[156]  lookupStabilitySig:vector  ETV
vector 1770529  Network.dyn_peer[156]  lookupTimeSig:vector  ETV
vector 1770143  Network.dyn_peer[28]  lookupHopsSig:vector  ETV
vector 1770144  Network.dyn_peer[28]  lookupStabilitySig:vector  ETV
vector 1770145  Network.dyn_peer[28]  lookupTimeSig:vector  ETV
vector 1770443  Network.dyn_peer[128]  lookupHopsSig:vector  ETV
vector 1770444  Network.dyn_peer[128]  lookupStabilitySig:vector  ETV
vector 1770445  Network.dyn_peer[128]  lookupTimeSig:vector  ETV
vector 1770566  Network.dyn_peer[169]  lookupHopsSig:vector  ETV
vector 1770567  Network.dyn_peer[169]  lookupStabilitySig:vector  ETV
vector 1770568  Network.dyn_peer[169]  lookupTimeSig:vector  ETV
vector 1770572  Network.dyn_peer[171]  lookupHopsSig:vector  ETV
vector 1770573  Network.dyn_peer[171]  lookupStabilitySig:vector  ETV
vector 1770574  Network.dyn_peer[171]  lookupTimeSig:vector  ETV
vector 1770365  Network.dyn_peer[102]  lookupHopsSig:vector  ETV
vector 1770366  Network.dyn_peer[102]  lookupStabilitySig:vector  ETV
vector 1770367  Network.dyn_peer[102]  lookupTimeSig:vector  ETV
vector 1770425  Network.dyn_peer[122]  lookupHopsSig:vector  ETV
vector 1770426  Network.dyn_peer[122]  lookupStabilitySig:vector  ETV
vector 1770427  Network.dyn_peer[122]  lookupTimeSig:vector  ETV
vector 1770515  Network.dyn_peer[152]  lookupHopsSig:vector  ETV
vector 1770516  Network.dyn_peer[152]  lookupStabilitySig:vector  ETV
vector 1770517  Network.dyn_peer[152]  lookupTimeSig:vector  ETV
vector 1770581  Network.dyn_peer[174]  lookupHopsSig:vector  ETV
vector 1770582  Network.dyn_peer[174]  lookupStabilitySig:vector  ETV
vector 1770583  Network.dyn_peer[174]  lookupTimeSig:vector  ETV
vector 1770449  Network.dyn_peer[130]  lookupHopsSig:vector  ETV
vector 1770450  Network.dyn_peer[130]  lookupStabilitySig:vector  ETV
vector 1770451  Network.dyn_peer[130]  lookupTimeSig:vector  ETV
vector 1770539  Network.dyn_peer[160]  lookupHopsSig:vector  ETV
vector 1770540  Network.dyn_peer[160]  lookupStabilitySig:vector  ETV
vector 1770541  Network.dyn_peer[160]  lookupTimeSig:vector  ETV
vector 1770719  Network.dyn_peer[220]  lookupHopsSig:vector  ETV
vector 1770720  Network.dyn_peer[220]  lookupStabilitySig:vector  ETV
vector 1770721  Network.dyn_peer[220]  lookupTimeSig:vector  ETV
vector 1770575  Network.dyn_peer[172]  lookupHopsSig:vector  ETV
vector 1770576  Network.dyn_peer[172]  lookupStabilitySig:vector  ETV
vector 1770577  Network.dyn_peer[172]  lookupTimeSig:vector  ETV
vector 1770728  Network.dyn_peer[223]  lookupHopsSig:vector  ETV
vector 1770729  Network.dyn_peer[223]  lookupStabilitySig:vector  ETV
vector 1770730  Network.dyn_peer[223]  lookupTimeSig:vector  ETV
vector 1770191  Network.dyn_peer[44]  lookupHopsSig:vector  ETV
vector 1770192  Network.dyn_peer[44]  lookupStabilitySig:vector  ETV
vector 1770193  Network.dyn_peer[44]  lookupTimeSig:vector  ETV
vector 1770470  Network.dyn_peer[137]  lookupHopsSig:vector  ETV
vector 1770471  Network.dyn_peer[137]  lookupStabilitySig:vector  ETV
vector 1770472  Network.dyn_peer[137]  lookupTimeSig:vector  ETV
vector 1770590  Network.dyn_peer[177]  lookupHopsSig:vector  ETV
vector 1770591  Network.dyn_peer[177]  lookupStabilitySig:vector  ETV
vector 1770592  Network.dyn_peer[177]  lookupTimeSig:vector  ETV