version 2
run Stability2-18-20130528-01:23:16-24168
attr configname Stability2
attr datetime 20130528-01:23:16
attr experiment Stability2
attr inifile omnetpp.ini
attr iterationvars $0=20
attr iterationvars2 "$0=20, $repetition=8"
attr measurement $0=20
attr network Network
attr processid 24168
attr repetition 8
attr replication #8
attr resultdir results
attr runnumber 18
attr seedset 18

vector 570018  Network.churner  inGoingSizeSig:vector  ETV
vector 540018  Network.dyn_peer[0]  lookupHopsSig:vector  ETV
vector 540019  Network.dyn_peer[0]  lookupStabilitySig:vector  ETV
vector 540020  Network.dyn_peer[0]  lookupTimeSig:vector  ETV
vector 540030  Network.dyn_peer[4]  lookupHopsSig:vector  ETV
vector 540031  Network.dyn_peer[4]  lookupStabilitySig:vector  ETV
vector 540032  Network.dyn_peer[4]  lookupTimeSig:vector  ETV
vector 540021  Network.dyn_peer[1]  lookupHopsSig:vector  ETV
vector 540022  Network.dyn_peer[1]  lookupStabilitySig:vector  ETV
vector 540023  Network.dyn_peer[1]  lookupTimeSig:vector  ETV
vector 540054  Network.dyn_peer[12]  lookupHopsSig:vector  ETV
vector 540055  Network.dyn_peer[12]  lookupStabilitySig:vector  ETV
vector 540056  Network.dyn_peer[12]  lookupTimeSig:vector  ETV
vector 540033  Network.dyn_peer[5]  lookupHopsSig:vector  ETV
vector 540034  Network.dyn_peer[5]  lookupStabilitySig:vector  ETV
vector 540035  Network.dyn_peer[5]  lookupTimeSig:vector  ETV
vector 540036  Network.dyn_peer[6]  lookupHopsSig:vector  ETV
vector 540037  Network.dyn_peer[6]  lookupStabilitySig:vector  ETV
vector 540038  Network.dyn_peer[6]  lookupTimeSig:vector  ETV
vector 540066  Network.dyn_peer[16]  lookupHopsSig:vector  ETV
vector 540067  Network.dyn_peer[16]  lookupStabilitySig:vector  ETV
vector 540068  Network.dyn_peer[16]  lookupTimeSig:vector  ETV
vector 540045  Network.dyn_peer[9]  lookupHopsSig:vector  ETV
vector 540046  Network.dyn_peer[9]  lookupStabilitySig:vector  ETV
vector 540047  Network.dyn_peer[9]  lookupTimeSig:vector  ETV
vector 540075  Network.dyn_peer[19]  lookupHopsSig:vector  ETV
vector 540076  Network.dyn_peer[19]  lookupStabilitySig:vector  ETV
vector 540077  Network.dyn_peer[19]  lookupTimeSig:vector  ETV
vector 540039  Network.dyn_peer[7]  lookupHopsSig:vector  ETV
vector 540040  Network.dyn_peer[7]  lookupStabilitySig:vector  ETV
vector 540041  Network.dyn_peer[7]  lookupTimeSig:vector  ETV
vector 540042  Network.dyn_peer[8]  lookupHopsSig:vector  ETV
vector 540043  Network.dyn_peer[8]  lookupStabilitySig:vector  ETV
vector 540044  Network.dyn_peer[8]  lookupTimeSig:vector  ETV
vector 540048  Network.dyn_peer[10]  lookupHopsSig:vector  ETV
vector 540049  Network.dyn_peer[10]  lookupStabilitySig:vector  ETV
vector 540050  Network.dyn_peer[10]  lookupTimeSig:vector  ETV
vector 540078  Network.dyn_peer[20]  lookupHopsSig:vector  ETV
vector 540079  Network.dyn_peer[20]  lookupStabilitySig:vector  ETV
vector 540080  Network.dyn_peer[20]  lookupTimeSig:vector  ETV
vector 540024  Network.dyn_peer[2]  lookupHopsSig:vector  ETV
vector 540025  Network.dyn_peer[2]  lookupStabilitySig:vector  ETV
vector 540026  Network.dyn_peer[2]  lookupTimeSig:vector  ETV
vector 540027  Network.dyn_peer[3]  lookupHopsSig:vector  ETV
vector 540028  Network.dyn_peer[3]  lookupStabilitySig:vector  ETV
vector 540029  Network.dyn_peer[3]  lookupTimeSig:vector  ETV
vector 540090  Network.dyn_peer[24]  lookupHopsSig:vector  ETV
vector 540091  Network.dyn_peer[24]  lookupStabilitySig:vector  ETV
vector 540092  Network.dyn_peer[24]  lookupTimeSig:vector  ETV
vector 540123  Network.dyn_peer[35]  lookupHopsSig:vector  ETV
vector 540124  Network.dyn_peer[35]  lookupStabilitySig:vector  ETV
vector 540125  Network.dyn_peer[35]  lookupTimeSig:vector  ETV
vector 540084  Network.dyn_peer[22]  lookupHopsSig:vector  ETV
vector 540085  Network.dyn_peer[22]  lookupStabilitySig:vector  ETV
vector 540086  Network.dyn_peer[22]  lookupTimeSig:vector  ETV
vector 540057  Network.dyn_peer[13]  lookupHopsSig:vector  ETV
vector 540058  Network.dyn_peer[13]  lookupStabilitySig:vector  ETV
vector 540059  Network.dyn_peer[13]  lookupTimeSig:vector  ETV
vector 540060  Network.dyn_peer[14]  lookupHopsSig:vector  ETV
vector 540061  Network.dyn_peer[14]  lookupStabilitySig:vector  ETV
vector 540062  Network.dyn_peer[14]  lookupTimeSig:vector  ETV
vector 540063  Network.dyn_peer[15]  lookupHopsSig:vector  ETV
vector 540064  Network.dyn_peer[15]  lookupStabilitySig:vector  ETV
vector 540065  Network.dyn_peer[15]  lookupTimeSig:vector  ETV
vector 540093  Network.dyn_peer[25]  lookupHopsSig:vector  ETV
vector 540094  Network.dyn_peer[25]  lookupStabilitySig:vector  ETV
vector 540095  Network.dyn_peer[25]  lookupTimeSig:vector  ETV
vector 540069  Network.dyn_peer[17]  lookupHopsSig:vector  ETV
vector 540070  Network.dyn_peer[17]  lookupStabilitySig:vector  ETV
vector 540071  Network.dyn_peer[17]  lookupTimeSig:vector  ETV
vector 540102  Network.dyn_peer[28]  lookupHopsSig:vector  ETV
vector 540103  Network.dyn_peer[28]  lookupStabilitySig:vector  ETV
vector 540104  Network.dyn_peer[28]  lookupTimeSig:vector  ETV
vector 540117  Network.dyn_peer[33]  lookupHopsSig:vector  ETV
vector 540118  Network.dyn_peer[33]  lookupStabilitySig:vector  ETV
vector 540119  Network.dyn_peer[33]  lookupTimeSig:vector  ETV
vector 540096  Network.dyn_peer[26]  lookupHopsSig:vector  ETV
vector 540097  Network.dyn_peer[26]  lookupStabilitySig:vector  ETV
vector 540098  Network.dyn_peer[26]  lookupTimeSig:vector  ETV
vector 540198  Network.dyn_peer[60]  lookupHopsSig:vector  ETV
vector 540199  Network.dyn_peer[60]  lookupStabilitySig:vector  ETV
vector 540200  Network.dyn_peer[60]  lookupTimeSig:vector  ETV
vector 540051  Network.dyn_peer[11]  lookupHopsSig:vector  ETV
vector 540052  Network.dyn_peer[11]  lookupStabilitySig:vector  ETV
vector 540053  Network.dyn_peer[11]  lookupTimeSig:vector  ETV
vector 540081  Network.dyn_peer[21]  lookupHopsSig:vector  ETV
vector 540082  Network.dyn_peer[21]  lookupStabilitySig:vector  ETV
vector 540083  Network.dyn_peer[21]  lookupTimeSig:vector  ETV
vector 540111  Network.dyn_peer[31]  lookupHopsSig:vector  ETV
vector 540112  Network.dyn_peer[31]  lookupStabilitySig:vector  ETV
vector 540113  Network.dyn_peer[31]  lookupTimeSig:vector  ETV
vector 540120  Network.dyn_peer[34]  lookupHopsSig:vector  ETV
vector 540121  Network.dyn_peer[34]  lookupStabilitySig:vector  ETV
vector 540122  Network.dyn_peer[34]  lookupTimeSig:vector  ETV
vector 540153  Network.dyn_peer[45]  lookupHopsSig:vector  ETV
vector 540154  Network.dyn_peer[45]  lookupStabilitySig:vector  ETV
vector 540155  Network.dyn_peer[45]  lookupTimeSig:vector  ETV
vector 540126  Network.dyn_peer[36]  lookupHopsSig:vector  ETV
vector 540127  Network.dyn_peer[36]  lookupStabilitySig:vector  ETV
vector 540128  Network.dyn_peer[36]  lookupTimeSig:vector  ETV
vector 540216  Network.dyn_peer[66]  lookupHopsSig:vector  ETV
vector 540217  Network.dyn_peer[66]  lookupStabilitySig:vector  ETV
vector 540218  Network.dyn_peer[66]  lookupTimeSig:vector  ETV
vector 540099  Network.dyn_peer[27]  lookupHopsSig:vector  ETV
vector 540100  Network.dyn_peer[27]  lookupStabilitySig:vector  ETV
vector 540101  Network.dyn_peer[27]  lookupTimeSig:vector  ETV
vector 540072  Network.dyn_peer[18]  lookupHopsSig:vector  ETV
vector 540073  Network.dyn_peer[18]  lookupStabilitySig:vector  ETV
vector 540074  Network.dyn_peer[18]  lookupTimeSig:vector  ETV
vector 540192  Network.dyn_peer[58]  lookupHopsSig:vector  ETV
vector 540193  Network.dyn_peer[58]  lookupStabilitySig:vector  ETV
vector 540194  Network.dyn_peer[58]  lookupTimeSig:vector  ETV
vector 540114  Network.dyn_peer[32]  lookupHopsSig:vector  ETV
vector 540115  Network.dyn_peer[32]  lookupStabilitySig:vector  ETV
vector 540116  Network.dyn_peer[32]  lookupTimeSig:vector  ETV
vector 540186  Network.dyn_peer[56]  lookupHopsSig:vector  ETV
vector 540187  Network.dyn_peer[56]  lookupStabilitySig:vector  ETV
vector 540188  Network.dyn_peer[56]  lookupTimeSig:vector  ETV
vector 540246  Network.dyn_peer[76]  lookupHopsSig:vector  ETV
vector 540247  Network.dyn_peer[76]  lookupStabilitySig:vector  ETV
vector 540248  Network.dyn_peer[76]  lookupTimeSig:vector  ETV
vector 540162  Network.dyn_peer[48]  lookupHopsSig:vector  ETV
vector 540163  Network.dyn_peer[48]  lookupStabilitySig:vector  ETV
vector 540164  Network.dyn_peer[48]  lookupTimeSig:vector  ETV
vector 540165  Network.dyn_peer[49]  lookupHopsSig:vector  ETV
vector 540166  Network.dyn_peer[49]  lookupStabilitySig:vector  ETV
vector 540167  Network.dyn_peer[49]  lookupTimeSig:vector  ETV
vector 540087  Network.dyn_peer[23]  lookupHopsSig:vector  ETV
vector 540088  Network.dyn_peer[23]  lookupStabilitySig:vector  ETV
vector 540089  Network.dyn_peer[23]  lookupTimeSig:vector  ETV
vector 540177  Network.dyn_peer[53]  lookupHopsSig:vector  ETV
vector 540178  Network.dyn_peer[53]  lookupStabilitySig:vector  ETV
vector 540179  Network.dyn_peer[53]  lookupTimeSig:vector  ETV
vector 540156  Network.dyn_peer[46]  lookupHopsSig:vector  ETV
vector 540157  Network.dyn_peer[46]  lookupStabilitySig:vector  ETV
vector 540158  Network.dyn_peer[46]  lookupTimeSig:vector  ETV
vector 540132  Network.dyn_peer[38]  lookupHopsSig:vector  ETV
vector 540133  Network.dyn_peer[38]  lookupStabilitySig:vector  ETV
vector 540134  Network.dyn_peer[38]  lookupTimeSig:vector  ETV
vector 540291  Network.dyn_peer[91]  lookupHopsSig:vector  ETV
vector 540292  Network.dyn_peer[91]  lookupStabilitySig:vector  ETV
vector 540293  Network.dyn_peer[91]  lookupTimeSig:vector  ETV
vector 540135  Network.dyn_peer[39]  lookupHopsSig:vector  ETV
vector 540136  Network.dyn_peer[39]  lookupStabilitySig:vector  ETV
vector 540137  Network.dyn_peer[39]  lookupTimeSig:vector  ETV
vector 540225  Network.dyn_peer[69]  lookupHopsSig:vector  ETV
vector 540226  Network.dyn_peer[69]  lookupStabilitySig:vector  ETV
vector 540227  Network.dyn_peer[69]  lookupTimeSig:vector  ETV
vector 540219  Network.dyn_peer[67]  lookupHopsSig:vector  ETV
vector 540220  Network.dyn_peer[67]  lookupStabilitySig:vector  ETV
vector 540221  Network.dyn_peer[67]  lookupTimeSig:vector  ETV
vector 540249  Network.dyn_peer[77]  lookupHopsSig:vector  ETV
vector 540250  Network.dyn_peer[77]  lookupStabilitySig:vector  ETV
vector 540251  Network.dyn_peer[77]  lookupTimeSig:vector  ETV
vector 540339  Network.dyn_peer[107]  lookupHopsSig:vector  ETV
vector 540340  Network.dyn_peer[107]  lookupStabilitySig:vector  ETV
vector 540341  Network.dyn_peer[107]  lookupTimeSig:vector  ETV
vector 540195  Network.dyn_peer[59]  lookupHopsSig:vector  ETV
vector 540196  Network.dyn_peer[59]  lookupStabilitySig:vector  ETV
vector 540197  Network.dyn_peer[59]  lookupTimeSig:vector  ETV
vector 540255  Network.dyn_peer[79]  lookupHopsSig:vector  ETV
vector 540256  Network.dyn_peer[79]  lookupStabilitySig:vector  ETV
vector 540257  Network.dyn_peer[79]  lookupTimeSig:vector  ETV
vector 540315  Network.dyn_peer[99]  lookupHopsSig:vector  ETV
vector 540316  Network.dyn_peer[99]  lookupStabilitySig:vector  ETV
vector 540317  Network.dyn_peer[99]  lookupTimeSig:vector  ETV
vector 540168  Network.dyn_peer[50]  lookupHopsSig:vector  ETV
vector 540169  Network.dyn_peer[50]  lookupStabilitySig:vector  ETV
vector 540170  Network.dyn_peer[50]  lookupTimeSig:vector  ETV
vector 540207  Network.dyn_peer[63]  lookupHopsSig:vector  ETV
vector 540208  Network.dyn_peer[63]  lookupStabilitySig:vector  ETV
vector 540209  Network.dyn_peer[63]  lookupTimeSig:vector  ETV
vector 540336  Network.dyn_peer[106]  lookupHopsSig:vector  ETV
vector 540337  Network.dyn_peer[106]  lookupStabilitySig:vector  ETV
vector 540338  Network.dyn_peer[106]  lookupTimeSig:vector  ETV
vector 540189  Network.dyn_peer[57]  lookupHopsSig:vector  ETV
vector 540190  Network.dyn_peer[57]  lookupStabilitySig:vector  ETV
vector 540191  Network.dyn_peer[57]  lookupTimeSig:vector  ETV
vector 540105  Network.dyn_peer[29]  lookupHopsSig:vector  ETV
vector 540106  Network.dyn_peer[29]  lookupStabilitySig:vector  ETV
vector 540107  Network.dyn_peer[29]  lookupTimeSig:vector  ETV
vector 540228  Network.dyn_peer[70]  lookupHopsSig:vector  ETV
vector 540229  Network.dyn_peer[70]  lookupStabilitySig:vector  ETV
vector 540230  Network.dyn_peer[70]  lookupTimeSig:vector  ETV
vector 540201  Network.dyn_peer[61]  lookupHopsSig:vector  ETV
vector 540202  Network.dyn_peer[61]  lookupStabilitySig:vector  ETV
vector 540203  Network.dyn_peer[61]  lookupTimeSig:vector  ETV
vector 540264  Network.dyn_peer[82]  lookupHopsSig:vector  ETV
vector 540265  Network.dyn_peer[82]  lookupStabilitySig:vector  ETV
vector 540266  Network.dyn_peer[82]  lookupTimeSig:vector  ETV
vector 540210  Network.dyn_peer[64]  lookupHopsSig:vector  ETV
vector 540211  Network.dyn_peer[64]  lookupStabilitySig:vector  ETV
vector 540212  Network.dyn_peer[64]  lookupTimeSig:vector  ETV
vector 540300  Network.dyn_peer[94]  lookupHopsSig:vector  ETV
vector 540301  Network.dyn_peer[94]  lookupStabilitySig:vector  ETV
vector 540302  Network.dyn_peer[94]  lookupTimeSig:vector  ETV
vector 540243  Network.dyn_peer[75]  lookupHopsSig:vector  ETV
vector 540244  Network.dyn_peer[75]  lookupStabilitySig:vector  ETV
vector 540245  Network.dyn_peer[75]  lookupTimeSig:vector  ETV
vector 540306  Network.dyn_peer[96]  lookupHopsSig:vector  ETV
vector 540307  Network.dyn_peer[96]  lookupStabilitySig:vector  ETV
vector 540308  Network.dyn_peer[96]  lookupTimeSig:vector  ETV
vector 540159  Network.dyn_peer[47]  lookupHopsSig:vector  ETV
vector 540160  Network.dyn_peer[47]  lookupStabilitySig:vector  ETV
vector 540161  Network.dyn_peer[47]  lookupTimeSig:vector  ETV
vector 540369  Network.dyn_peer[117]  lookupHopsSig:vector  ETV
vector 540370  Network.dyn_peer[117]  lookupStabilitySig:vector  ETV
vector 540371  Network.dyn_peer[117]  lookupTimeSig:vector  ETV
vector 540147  Network.dyn_peer[43]  lookupHopsSig:vector  ETV
vector 540148  Network.dyn_peer[43]  lookupStabilitySig:vector  ETV
vector 540149  Network.dyn_peer[43]  lookupTimeSig:vector  ETV
vector 540363  Network.dyn_peer[115]  lookupHopsSig:vector  ETV
vector 540364  Network.dyn_peer[115]  lookupStabilitySig:vector  ETV
vector 540365  Network.dyn_peer[115]  lookupTimeSig:vector  ETV
vector 540267  Network.dyn_peer[83]  lookupHopsSig:vector  ETV
vector 540268  Network.dyn_peer[83]  lookupStabilitySig:vector  ETV
vector 540269  Network.dyn_peer[83]  lookupTimeSig:vector  ETV
vector 540420  Network.dyn_peer[134]  lookupHopsSig:vector  ETV
vector 540421  Network.dyn_peer[134]  lookupStabilitySig:vector  ETV
vector 540422  Network.dyn_peer[134]  lookupTimeSig:vector  ETV
vector 540429  Network.dyn_peer[137]  lookupHopsSig:vector  ETV
vector 540430  Network.dyn_peer[137]  lookupStabilitySig:vector  ETV
vector 540431  Network.dyn_peer[137]  lookupTimeSig:vector  ETV
vector 540297  Network.dyn_peer[93]  lookupHopsSig:vector  ETV
vector 540298  Network.dyn_peer[93]  lookupStabilitySig:vector  ETV
vector 540299  Network.dyn_peer[93]  lookupTimeSig:vector  ETV
vector 540150  Network.dyn_peer[44]  lookupHopsSig:vector  ETV
vector 540151  Network.dyn_peer[44]  lookupStabilitySig:vector  ETV
vector 540152  Network.dyn_peer[44]  lookupTimeSig:vector  ETV
vector 540222  Network.dyn_peer[68]  lookupHopsSig:vector  ETV
vector 540223  Network.dyn_peer[68]  lookupStabilitySig:vector  ETV
vector 540224  Network.dyn_peer[68]  lookupTimeSig:vector  ETV
vector 540432  Network.dyn_peer[138]  lookupHopsSig:vector  ETV
vector 540433  Network.dyn_peer[138]  lookupStabilitySig:vector  ETV
vector 540434  Network.dyn_peer[138]  lookupTimeSig:vector  ETV
vector 540405  Network.dyn_peer[129]  lookupHopsSig:vector  ETV
vector 540406  Network.dyn_peer[129]  lookupStabilitySig:vector  ETV
vector 540407  Network.dyn_peer[129]  lookupTimeSig:vector  ETV
vector 540495  Network.dyn_peer[159]  lookupHopsSig:vector  ETV
vector 540496  Network.dyn_peer[159]  lookupStabilitySig:vector  ETV
vector 540497  Network.dyn_peer[159]  lookupTimeSig:vector  ETV
vector 540258  Network.dyn_peer[80]  lookupHopsSig:vector  ETV
vector 540259  Network.dyn_peer[80]  lookupStabilitySig:vector  ETV
vector 540260  Network.dyn_peer[80]  lookupTimeSig:vector  ETV
vector 540180  Network.dyn_peer[54]  lookupHopsSig:vector  ETV
vector 540181  Network.dyn_peer[54]  lookupStabilitySig:vector  ETV
vector 540182  Network.dyn_peer[54]  lookupTimeSig:vector  ETV
vector 540183  Network.dyn_peer[55]  lookupHopsSig:vector  ETV
vector 540184  Network.dyn_peer[55]  lookupStabilitySig:vector  ETV
vector 540185  Network.dyn_peer[55]  lookupTimeSig:vector  ETV
vector 540276  Network.dyn_peer[86]  lookupHopsSig:vector  ETV
vector 540277  Network.dyn_peer[86]  lookupStabilitySig:vector  ETV
vector 540278  Network.dyn_peer[86]  lookupTimeSig:vector  ETV
vector 540465  Network.dyn_peer[149]  lookupHopsSig:vector  ETV
vector 540466  Network.dyn_peer[149]  lookupStabilitySig:vector  ETV
vector 540467  Network.dyn_peer[149]  lookupTimeSig:vector  ETV
vector 540279  Network.dyn_peer[87]  lookupHopsSig:vector  ETV
vector 540280  Network.dyn_peer[87]  lookupStabilitySig:vector  ETV
vector 540281  Network.dyn_peer[87]  lookupTimeSig:vector  ETV
vector 540312  Network.dyn_peer[98]  lookupHopsSig:vector  ETV
vector 540313  Network.dyn_peer[98]  lookupStabilitySig:vector  ETV
vector 540314  Network.dyn_peer[98]  lookupTimeSig:vector  ETV
vector 540402  Network.dyn_peer[128]  lookupHopsSig:vector  ETV
vector 540403  Network.dyn_peer[128]  lookupStabilitySig:vector  ETV
vector 540404  Network.dyn_peer[128]  lookupTimeSig:vector  ETV
vector 540108  Network.dyn_peer[30]  lookupHopsSig:vector  ETV
vector 540109  Network.dyn_peer[30]  lookupStabilitySig:vector  ETV
vector 540110  Network.dyn_peer[30]  lookupTimeSig:vector  ETV
vector 540378  Network.dyn_peer[120]  lookupHopsSig:vector  ETV
vector 540379  Network.dyn_peer[120]  lookupStabilitySig:vector  ETV
vector 540380  Network.dyn_peer[120]  lookupTimeSig:vector  ETV
vector 540261  Network.dyn_peer[81]  lookupHopsSig:vector  ETV
vector 540262  Network.dyn_peer[81]  lookupStabilitySig:vector  ETV
vector 540263  Network.dyn_peer[81]  lookupTimeSig:vector  ETV
vector 540477  Network.dyn_peer[153]  lookupHopsSig:vector  ETV
vector 540478  Network.dyn_peer[153]  lookupStabilitySig:vector  ETV
vector 540479  Network.dyn_peer[153]  lookupTimeSig:vector  ETV
vector 540330  Network.dyn_peer[104]  lookupHopsSig:vector  ETV
vector 540331  Network.dyn_peer[104]  lookupStabilitySig:vector  ETV
vector 540332  Network.dyn_peer[104]  lookupTimeSig:vector  ETV
vector 540423  Network.dyn_peer[135]  lookupHopsSig:vector  ETV
vector 540424  Network.dyn_peer[135]  lookupStabilitySig:vector  ETV
vector 540425  Network.dyn_peer[135]  lookupTimeSig:vector  ETV
vector 540573  Network.dyn_peer[185]  lookupHopsSig:vector  ETV
vector 540574  Network.dyn_peer[185]  lookupStabilitySig:vector  ETV
vector 540575  Network.dyn_peer[185]  lookupTimeSig:vector  ETV
vector 540459  Network.dyn_peer[147]  lookupHopsSig:vector  ETV
vector 540460  Network.dyn_peer[147]  lookupStabilitySig:vector  ETV
vector 540461  Network.dyn_peer[147]  lookupTimeSig:vector  ETV
vector 540282  Network.dyn_peer[88]  lookupHopsSig:vector  ETV
vector 540283  Network.dyn_peer[88]  lookupStabilitySig:vector  ETV
vector 540284  Network.dyn_peer[88]  lookupTimeSig:vector  ETV
vector 540492  Network.dyn_peer[158]  lookupHopsSig:vector  ETV
vector 540493  Network.dyn_peer[158]  lookupStabilitySig:vector  ETV
vector 540494  Network.dyn_peer[158]  lookupTimeSig:vector  ETV
vector 540318  Network.dyn_peer[100]  lookupHopsSig:vector  ETV
vector 540319  Network.dyn_peer[100]  lookupStabilitySig:vector  ETV
vector 540320  Network.dyn_peer[100]  lookupTimeSig:vector  ETV
vector 540381  Network.dyn_peer[121]  lookupHopsSig:vector  ETV
vector 540382  Network.dyn_peer[121]  lookupStabilitySig:vector  ETV
vector 540383  Network.dyn_peer[121]  lookupTimeSig:vector  ETV
vector 540534  Network.dyn_peer[172]  lookupHopsSig:vector  ETV
vector 540535  Network.dyn_peer[172]  lookupStabilitySig:vector  ETV
vector 540536  Network.dyn_peer[172]  lookupTimeSig:vector  ETV
vector 540237  Network.dyn_peer[73]  lookupHopsSig:vector  ETV
vector 540238  Network.dyn_peer[73]  lookupStabilitySig:vector  ETV
vector 540239  Network.dyn_peer[73]  lookupTimeSig:vector  ETV
vector 540240  Network.dyn_peer[74]  lookupHopsSig:vector  ETV
vector 540241  Network.dyn_peer[74]  lookupStabilitySig:vector  ETV
vector 540242  Network.dyn_peer[74]  lookupTimeSig:vector  ETV
vector 540309  Network.dyn_peer[97]  lookupHopsSig:vector  ETV
vector 540310  Network.dyn_peer[97]  lookupStabilitySig:vector  ETV
vector 540311  Network.dyn_peer[97]  lookupTimeSig:vector  ETV
vector 540342  Network.dyn_peer[108]  lookupHopsSig:vector  ETV
vector 540343  Network.dyn_peer[108]  lookupStabilitySig:vector  ETV
vector 540344  Network.dyn_peer[108]  lookupTimeSig:vector  ETV
vector 540288  Network.dyn_peer[90]  lookupHopsSig:vector  ETV
vector 540289  Network.dyn_peer[90]  lookupStabilitySig:vector  ETV
vector 540290  Network.dyn_peer[90]  lookupTimeSig:vector  ETV
vector 540528  Network.dyn_peer[170]  lookupHopsSig:vector  ETV
vector 540529  Network.dyn_peer[170]  lookupStabilitySig:vector  ETV
vector 540530  Network.dyn_peer[170]  lookupTimeSig:vector  ETV
vector 540204  Network.dyn_peer[62]  lookupHopsSig:vector  ETV
vector 540205  Network.dyn_peer[62]  lookupStabilitySig:vector  ETV
vector 540206  Network.dyn_peer[62]  lookupTimeSig:vector  ETV
vector 540324  Network.dyn_peer[102]  lookupHopsSig:vector  ETV
vector 540325  Network.dyn_peer[102]  lookupStabilitySig:vector  ETV
vector 540326  Network.dyn_peer[102]  lookupTimeSig:vector  ETV
vector 540537  Network.dyn_peer[173]  lookupHopsSig:vector  ETV
vector 540538  Network.dyn_peer[173]  lookupStabilitySig:vector  ETV
vector 540539  Network.dyn_peer[173]  lookupTimeSig:vector  ETV
vector 540390  Network.dyn_peer[124]  lookupHopsSig:vector  ETV
vector 540391  Network.dyn_peer[124]  lookupStabilitySig:vector  ETV
vector 540392  Network.dyn_peer[124]  lookupTimeSig:vector  ETV
vector 540510  Network.dyn_peer[164]  lookupHopsSig:vector  ETV
vector 540511  Network.dyn_peer[164]  lookupStabilitySig:vector  ETV
vector 540512  Network.dyn_peer[164]  lookupTimeSig:vector  ETV
vector 540540  Network.dyn_peer[174]  lookupHopsSig:vector  ETV
vector 540541  Network.dyn_peer[174]  lookupStabilitySig:vector  ETV
vector 540542  Network.dyn_peer[174]  lookupTimeSig:vector  ETV
vector 540483  Network.dyn_peer[155]  lookupHopsSig:vector  ETV
vector 540484  Network.dyn_peer[155]  lookupStabilitySig:vector  ETV
vector 540485  Network.dyn_peer[155]  lookupTimeSig:vector  ETV
vector 540543  Network.dyn_peer[175]  lookupHopsSig:vector  ETV
vector 540544  Network.dyn_peer[175]  lookupStabilitySig:vector  ETV
vector 540545  Network.dyn_peer[175]  lookupTimeSig:vector  ETV
vector 540456  Network.dyn_peer[146]  lookupHopsSig:vector  ETV
vector 540457  Network.dyn_peer[146]  lookupStabilitySig:vector  ETV
vector 540458  Network.dyn_peer[146]  lookupTimeSig:vector  ETV
vector 540552  Network.dyn_peer[178]  lookupHopsSig:vector  ETV
vector 540553  Network.dyn_peer[178]  lookupStabilitySig:vector  ETV
vector 540554  Network.dyn_peer[178]  lookupTimeSig:vector  ETV
vector 540375  Network.dyn_peer[119]  lookupHopsSig:vector  ETV
vector 540376  Network.dyn_peer[119]  lookupStabilitySig:vector  ETV
vector 540377  Network.dyn_peer[119]  lookupTimeSig:vector  ETV
vector 540525  Network.dyn_peer[169]  lookupHopsSig:vector  ETV
vector 540526  Network.dyn_peer[169]  lookupStabilitySig:vector  ETV
vector 540527  Network.dyn_peer[169]  lookupTimeSig:vector  ETV
vector 540348  Network.dyn_peer[110]  lookupHopsSig:vector  ETV
vector 540349  Network.dyn_peer[110]  lookupStabilitySig:vector  ETV
vector 540350  Network.dyn_peer[110]  lookupTimeSig:vector  ETV
vector 540468  Network.dyn_peer[150]  lookupHopsSig:vector  ETV
vector 540469  Network.dyn_peer[150]  lookupStabilitySig:vector  ETV
vector 540470  Network.dyn_peer[150]  lookupTimeSig:vector  ETV
vector 540141  Network.dyn_peer[41]  lookupHopsSig:vector  ETV
vector 540142  Network.dyn_peer[41]  lookupStabilitySig:vector  ETV
vector 540143  Network.dyn_peer[41]  lookupTimeSig:vector  ETV
vector 540171  Network.dyn_peer[51]  lookupHopsSig:vector  ETV
vector 540172  Network.dyn_peer[51]  lookupStabilitySig:vector  ETV
vector 540173  Network.dyn_peer[51]  lookupTimeSig:vector  ETV
vector 540561  Network.dyn_peer[181]  lookupHopsSig:vector  ETV
vector 540562  Network.dyn_peer[181]  lookupStabilitySig:vector  ETV
vector 540563  Network.dyn_peer[181]  lookupTimeSig:vector  ETV
vector 540294  Network.dyn_peer[92]  lookupHopsSig:vector  ETV
vector 540295  Network.dyn_peer[92]  lookupStabilitySig:vector  ETV
vector 540296  Network.dyn_peer[92]  lookupTimeSig:vector  ETV
vector 540444  Network.dyn_peer[142]  lookupHopsSig:vector  ETV
vector 540445  Network.dyn_peer[142]  lookupStabilitySig:vector  ETV
vector 540446  Network.dyn_peer[142]  lookupTimeSig:vector  ETV
vector 540504  Network.dyn_peer[162]  lookupHopsSig:vector  ETV
vector 540505  Network.dyn_peer[162]  lookupStabilitySig:vector  ETV
vector 540506  Network.dyn_peer[162]  lookupTimeSig:vector  ETV
vector 540507  Network.dyn_peer[163]  lookupHopsSig:vector  ETV
vector 540508  Network.dyn_peer[163]  lookupStabilitySig:vector  ETV
vector 540509  Network.dyn_peer[163]  lookupTimeSig:vector  ETV
vector 540450  Network.dyn_peer[144]  lookupHopsSig:vector  ETV
vector 540451  Network.dyn_peer[144]  lookupStabilitySig:vector  ETV
vector 540452  Network.dyn_peer[144]  lookupTimeSig:vector  ETV
vector 540396  Network.dyn_peer[126]  lookupHopsSig:vector  ETV
vector 540397  Network.dyn_peer[126]  lookupStabilitySig:vector  ETV
vector 540398  Network.dyn_peer[126]  lookupTimeSig:vector  ETV
vector 540399  Network.dyn_peer[127]  lookupHopsSig:vector  ETV
vector 540400  Network.dyn_peer[127]  lookupStabilitySig:vector  ETV
vector 540401  Network.dyn_peer[127]  lookupTimeSig:vector  ETV
vector 540252  Network.dyn_peer[78]  lookupHopsSig:vector  ETV
vector 540253  Network.dyn_peer[78]  lookupStabilitySig:vector  ETV
vector 540254  Network.dyn_peer[78]  lookupTimeSig:vector  ETV
vector 540522  Network.dyn_peer[168]  lookupHopsSig:vector  ETV
vector 540523  Network.dyn_peer[168]  lookupStabilitySig:vector  ETV
vector 540524  Network.dyn_peer[168]  lookupTimeSig:vector  ETV
vector 540585  Network.dyn_peer[189]  lookupHopsSig:vector  ETV
vector 540586  Network.dyn_peer[189]  lookupStabilitySig:vector  ETV
vector 540587  Network.dyn_peer[189]  lookupTimeSig:vector  ETV
vector 540558  Network.dyn_peer[180]  lookupHopsSig:vector  ETV
vector 540559  Network.dyn_peer[180]  lookupStabilitySig:vector  ETV
vector 540560  Network.dyn_peer[180]  lookupTimeSig:vector  ETV
vector 540411  Network.dyn_peer[131]  lookupHopsSig:vector  ETV
vector 540412  Network.dyn_peer[131]  lookupStabilitySig:vector  ETV
vector 540413  Network.dyn_peer[131]  lookupTimeSig:vector  ETV
vector 540501  Network.dyn_peer[161]  lookupHopsSig:vector  ETV
vector 540502  Network.dyn_peer[161]  lookupStabilitySig:vector  ETV
vector 540503  Network.dyn_peer[161]  lookupTimeSig:vector  ETV
vector 540144  Network.dyn_peer[42]  lookupHopsSig:vector  ETV
vector 540145  Network.dyn_peer[42]  lookupStabilitySig:vector  ETV
vector 540146  Network.dyn_peer[42]  lookupTimeSig:vector  ETV
vector 540486  Network.dyn_peer[156]  lookupHopsSig:vector  ETV
vector 540487  Network.dyn_peer[156]  lookupStabilitySig:vector  ETV
vector 540488  Network.dyn_peer[156]  lookupTimeSig:vector  ETV
vector 540606  Network.dyn_peer[196]  lookupHopsSig:vector  ETV
vector 540607  Network.dyn_peer[196]  lookupStabilitySig:vector  ETV
vector 540608  Network.dyn_peer[196]  lookupTimeSig:vector  ETV
vector 540438  Network.dyn_peer[140]  lookupHopsSig:vector  ETV
vector 540439  Network.dyn_peer[140]  lookupStabilitySig:vector  ETV
vector 540440  Network.dyn_peer[140]  lookupTimeSig:vector  ETV
vector 540591  Network.dyn_peer[191]  lookupHopsSig:vector  ETV
vector 540592  Network.dyn_peer[191]  lookupStabilitySig:vector  ETV
vector 540593  Network.dyn_peer[191]  lookupTimeSig:vector  ETV
vector 540174  Network.dyn_peer[52]  lookupHopsSig:vector  ETV
vector 540175  Network.dyn_peer[52]  lookupStabilitySig:vector  ETV
vector 540176  Network.dyn_peer[52]  lookupTimeSig:vector  ETV
vector 540384  Network.dyn_peer[122]  lookupHopsSig:vector  ETV
vector 540385  Network.dyn_peer[122]  lookupStabilitySig:vector  ETV
vector 540386  Network.dyn_peer[122]  lookupTimeSig:vector  ETV
vector 540480  Network.dyn_peer[154]  lookupHopsSig:vector  ETV
vector 540481  Network.dyn_peer[154]  lookupStabilitySig:vector  ETV
vector 540482  Network.dyn_peer[154]  lookupTimeSig:vector  ETV
vector 540273  Network.dyn_peer[85]  lookupHopsSig:vector  ETV
vector 540274  Network.dyn_peer[85]  lookupStabilitySig:vector  ETV
vector 540275  Network.dyn_peer[85]  lookupTimeSig:vector  ETV
vector 540129  Network.dyn_peer[37]  lookupHopsSig:vector  ETV
vector 540130  Network.dyn_peer[37]  lookupStabilitySig:vector  ETV
vector 540131  Network.dyn_peer[37]  lookupTimeSig:vector  ETV
vector 540582  Network.dyn_peer[188]  lookupHopsSig:vector  ETV
vector 540583  Network.dyn_peer[188]  lookupStabilitySig:vector  ETV
vector 540584  Network.dyn_peer[188]  lookupTimeSig:vector  ETV
vector 540285  Network.dyn_peer[89]  lookupHopsSig:vector  ETV
vector 540286  Network.dyn_peer[89]  lookupStabilitySig:vector  ETV
vector 540287  Network.dyn_peer[89]  lookupTimeSig:vector  ETV
vector 540408  Network.dyn_peer[130]  lookupHopsSig:vector  ETV
vector 540409  Network.dyn_peer[130]  lookupStabilitySig:vector  ETV
vector 540410  Network.dyn_peer[130]  lookupTimeSig:vector  ETV
vector 540357  Network.dyn_peer[113]  lookupHopsSig:vector  ETV
vector 540358  Network.dyn_peer[113]  lookupStabilitySig:vector  ETV
vector 540359  Network.dyn_peer[113]  lookupTimeSig:vector  ETV
vector 540270  Network.dyn_peer[84]  lookupHopsSig:vector  ETV