file 913319 1369697247                                          
version 2
run Stability2-51-20130528-01:27:15-24168
attr configname Stability2
attr datetime 20130528-01:27:15
attr experiment Stability2
attr inifile omnetpp.ini
attr iterationvars $0=100
attr iterationvars2 "$0=100, $repetition=1"
attr measurement $0=100
attr network Network
attr processid 24168
attr repetition 1
attr replication #1
attr resultdir results
attr runnumber 51
attr seedset 51

vector 1560051  Network.churner  inGoingSizeSig:vector  ETV
vector 1530057  Network.dyn_peer[2]  lookupHopsSig:vector  ETV
vector 1530058  Network.dyn_peer[2]  lookupStabilitySig:vector  ETV
vector 1530059  Network.dyn_peer[2]  lookupTimeSig:vector  ETV
vector 1530060  Network.dyn_peer[3]  lookupHopsSig:vector  ETV
vector 1530061  Network.dyn_peer[3]  lookupStabilitySig:vector  ETV
vector 1530062  Network.dyn_peer[3]  lookupTimeSig:vector  ETV
vector 1530054  Network.dyn_peer[1]  lookupHopsSig:vector  ETV
vector 1530055  Network.dyn_peer[1]  lookupStabilitySig:vector  ETV
vector 1530056  Network.dyn_peer[1]  lookupTimeSig:vector  ETV
vector 1530084  Network.dyn_peer[11]  lookupHopsSig:vector  ETV
vector 1530085  Network.dyn_peer[11]  lookupStabilitySig:vector  ETV
vector 1530086  Network.dyn_peer[11]  lookupTimeSig:vector  ETV
vector 1530102  Network.dyn_peer[17]  lookupHopsSig:vector  ETV
vector 1530103  Network.dyn_peer[17]  lookupStabilitySig:vector  ETV
vector 1530104  Network.dyn_peer[17]  lookupTimeSig:vector  ETV
vector 1530051  Network.dyn_peer[0]  lookupHopsSig:vector  ETV
vector 1530052  Network.dyn_peer[0]  lookupStabilitySig:vector  ETV
vector 1530053  Network.dyn_peer[0]  lookupTimeSig:vector  ETV
vector 1530063  Network.dyn_peer[4]  lookupHopsSig:vector  ETV
vector 1530064  Network.dyn_peer[4]  lookupStabilitySig:vector  ETV
vector 1530065  Network.dyn_peer[4]  lookupTimeSig:vector  ETV
vector 1530093  Network.dyn_peer[14]  lookupHopsSig:vector  ETV
vector 1530094  Network.dyn_peer[14]  lookupStabilitySig:vector  ETV
vector 1530095  Network.dyn_peer[14]  lookupTimeSig:vector  ETV
vector 1530105  Network.dyn_peer[18]  lookupHopsSig:vector  ETV
vector 1530106  Network.dyn_peer[18]  lookupStabilitySig:vector  ETV
vector 1530107  Network.dyn_peer[18]  lookupTimeSig:vector  ETV
vector 1530078  Network.dyn_peer[9]  lookupHopsSig:vector  ETV
vector 1530079  Network.dyn_peer[9]  lookupStabilitySig:vector  ETV
vector 1530080  Network.dyn_peer[9]  lookupTimeSig:vector  ETV
vector 1530108  Network.dyn_peer[19]  lookupHopsSig:vector  ETV
vector 1530109  Network.dyn_peer[19]  lookupStabilitySig:vector  ETV
vector 1530110  Network.dyn_peer[19]  lookupTimeSig:vector  ETV
vector 1530066  Network.dyn_peer[5]  lookupHopsSig:vector  ETV
vector 1530067  Network.dyn_peer[5]  lookupStabilitySig:vector  ETV
vector 1530068  Network.dyn_peer[5]  lookupTimeSig:vector  ETV
vector 1530096  Network.dyn_peer[15]  lookupHopsSig:vector  ETV
vector 1530097  Network.dyn_peer[15]  lookupStabilitySig:vector  ETV
vector 1530098  Network.dyn_peer[15]  lookupTimeSig:vector  ETV
vector 1530069  Network.dyn_peer[6]  lookupHopsSig:vector  ETV
vector 1530070  Network.dyn_peer[6]  lookupStabilitySig:vector  ETV
vector 1530071  Network.dyn_peer[6]  lookupTimeSig:vector  ETV
vector 1530159  Network.dyn_peer[36]  lookupHopsSig:vector  ETV
vector 1530160  Network.dyn_peer[36]  lookupStabilitySig:vector  ETV
vector 1530161  Network.dyn_peer[36]  lookupTimeSig:vector  ETV
vector 1530072  Network.dyn_peer[7]  lookupHopsSig:vector  ETV
vector 1530073  Network.dyn_peer[7]  lookupStabilitySig:vector  ETV
vector 1530074  Network.dyn_peer[7]  lookupTimeSig:vector  ETV
vector 1530168  Network.dyn_peer[39]  lookupHopsSig:vector  ETV
vector 1530169  Network.dyn_peer[39]  lookupStabilitySig:vector  ETV
vector 1530170  Network.dyn_peer[39]  lookupTimeSig:vector  ETV
vector 1530114  Network.dyn_peer[21]  lookupHopsSig:vector  ETV
vector 1530115  Network.dyn_peer[21]  lookupStabilitySig:vector  ETV
vector 1530116  Network.dyn_peer[21]  lookupTimeSig:vector  ETV
vector 1530087  Network.dyn_peer[12]  lookupHopsSig:vector  ETV
vector 1530088  Network.dyn_peer[12]  lookupStabilitySig:vector  ETV
vector 1530089  Network.dyn_peer[12]  lookupTimeSig:vector  ETV
vector 1530117  Network.dyn_peer[22]  lookupHopsSig:vector  ETV
vector 1530118  Network.dyn_peer[22]  lookupStabilitySig:vector  ETV
vector 1530119  Network.dyn_peer[22]  lookupTimeSig:vector  ETV
vector 1530090  Network.dyn_peer[13]  lookupHopsSig:vector  ETV
vector 1530091  Network.dyn_peer[13]  lookupStabilitySig:vector  ETV
vector 1530092  Network.dyn_peer[13]  lookupTimeSig:vector  ETV
vector 1530120  Network.dyn_peer[23]  lookupHopsSig:vector  ETV
vector 1530121  Network.dyn_peer[23]  lookupStabilitySig:vector  ETV
vector 1530122  Network.dyn_peer[23]  lookupTimeSig:vector  ETV
vector 1530099  Network.dyn_peer[16]  lookupHopsSig:vector  ETV
vector 1530100  Network.dyn_peer[16]  lookupStabilitySig:vector  ETV
vector 1530101  Network.dyn_peer[16]  lookupTimeSig:vector  ETV
vector 1530075  Network.dyn_peer[8]  lookupHopsSig:vector  ETV
vector 1530076  Network.dyn_peer[8]  lookupStabilitySig:vector  ETV
vector 1530077  Network.dyn_peer[8]  lookupTimeSig:vector  ETV
vector 1530150  Network.dyn_peer[33]  lookupHopsSig:vector  ETV
vector 1530151  Network.dyn_peer[33]  lookupStabilitySig:vector  ETV
vector 1530152  Network.dyn_peer[33]  lookupTimeSig:vector  ETV
vector 1530138  Network.dyn_peer[29]  lookupHopsSig:vector  ETV
vector 1530139  Network.dyn_peer[29]  lookupStabilitySig:vector  ETV
vector 1530140  Network.dyn_peer[29]  lookupTimeSig:vector  ETV
vector 1530111  Network.dyn_peer[20]  lookupHopsSig:vector  ETV
vector 1530112  Network.dyn_peer[20]  lookupStabilitySig:vector  ETV
vector 1530113  Network.dyn_peer[20]  lookupTimeSig:vector  ETV
vector 1530156  Network.dyn_peer[35]  lookupHopsSig:vector  ETV
vector 1530157  Network.dyn_peer[35]  lookupStabilitySig:vector  ETV
vector 1530158  Network.dyn_peer[35]  lookupTimeSig:vector  ETV
vector 1530132  Network.dyn_peer[27]  lookupHopsSig:vector  ETV
vector 1530133  Network.dyn_peer[27]  lookupStabilitySig:vector  ETV
vector 1530134  Network.dyn_peer[27]  lookupTimeSig:vector  ETV
vector 1530081  Network.dyn_peer[10]  lookupHopsSig:vector  ETV
vector 1530082  Network.dyn_peer[10]  lookupStabilitySig:vector  ETV
vector 1530083  Network.dyn_peer[10]  lookupTimeSig:vector  ETV
vector 1530141  Network.dyn_peer[30]  lookupHopsSig:vector  ETV
vector 1530142  Network.dyn_peer[30]  lookupStabilitySig:vector  ETV
vector 1530143  Network.dyn_peer[30]  lookupTimeSig:vector  ETV
vector 1530174  Network.dyn_peer[41]  lookupHopsSig:vector  ETV
vector 1530175  Network.dyn_peer[41]  lookupStabilitySig:vector  ETV
vector 1530176  Network.dyn_peer[41]  lookupTimeSig:vector  ETV
vector 1530147  Network.dyn_peer[32]  lookupHopsSig:vector  ETV
vector 1530148  Network.dyn_peer[32]  lookupStabilitySig:vector  ETV
vector 1530149  Network.dyn_peer[32]  lookupTimeSig:vector  ETV
vector 1530180  Network.dyn_peer[43]  lookupHopsSig:vector  ETV
vector 1530181  Network.dyn_peer[43]  lookupStabilitySig:vector  ETV
vector 1530182  Network.dyn_peer[43]  lookupTimeSig:vector  ETV
vector 1530153  Network.dyn_peer[34]  lookupHopsSig:vector  ETV
vector 1530154  Network.dyn_peer[34]  lookupStabilitySig:vector  ETV
vector 1530155  Network.dyn_peer[34]  lookupTimeSig:vector  ETV
vector 1530243  Network.dyn_peer[64]  lookupHopsSig:vector  ETV
vector 1530244  Network.dyn_peer[64]  lookupStabilitySig:vector  ETV
vector 1530245  Network.dyn_peer[64]  lookupTimeSig:vector  ETV
vector 1530276  Network.dyn_peer[75]  lookupHopsSig:vector  ETV
vector 1530277  Network.dyn_peer[75]  lookupStabilitySig:vector  ETV
vector 1530278  Network.dyn_peer[75]  lookupTimeSig:vector  ETV
vector 1530192  Network.dyn_peer[47]  lookupHopsSig:vector  ETV
vector 1530193  Network.dyn_peer[47]  lookupStabilitySig:vector  ETV
vector 1530194  Network.dyn_peer[47]  lookupTimeSig:vector  ETV
vector 1530225  Network.dyn_peer[58]  lookupHopsSig:vector  ETV
vector 1530226  Network.dyn_peer[58]  lookupStabilitySig:vector  ETV
vector 1530227  Network.dyn_peer[58]  lookupTimeSig:vector  ETV
vector 1530291  Network.dyn_peer[80]  lookupHopsSig:vector  ETV
vector 1530292  Network.dyn_peer[80]  lookupStabilitySig:vector  ETV
vector 1530293  Network.dyn_peer[80]  lookupTimeSig:vector  ETV
vector 1530129  Network.dyn_peer[26]  lookupHopsSig:vector  ETV
vector 1530130  Network.dyn_peer[26]  lookupStabilitySig:vector  ETV
vector 1530131  Network.dyn_peer[26]  lookupTimeSig:vector  ETV
vector 1530249  Network.dyn_peer[66]  lookupHopsSig:vector  ETV
vector 1530250  Network.dyn_peer[66]  lookupStabilitySig:vector  ETV
vector 1530251  Network.dyn_peer[66]  lookupTimeSig:vector  ETV
vector 1530195  Network.dyn_peer[48]  lookupHopsSig:vector  ETV
vector 1530196  Network.dyn_peer[48]  lookupStabilitySig:vector  ETV
vector 1530197  Network.dyn_peer[48]  lookupTimeSig:vector  ETV
vector 1530288  Network.dyn_peer[79]  lookupHopsSig:vector  ETV
vector 1530289  Network.dyn_peer[79]  lookupStabilitySig:vector  ETV
vector 1530290  Network.dyn_peer[79]  lookupTimeSig:vector  ETV
vector 1530294  Network.dyn_peer[81]  lookupHopsSig:vector  ETV
vector 1530295  Network.dyn_peer[81]  lookupStabilitySig:vector  ETV
vector 1530296  Network.dyn_peer[81]  lookupTimeSig:vector  ETV
vector 1530183  Network.dyn_peer[44]  lookupHopsSig:vector  ETV
vector 1530184  Network.dyn_peer[44]  lookupStabilitySig:vector  ETV
vector 1530185  Network.dyn_peer[44]  lookupTimeSig:vector  ETV
vector 1530126  Network.dyn_peer[25]  lookupHopsSig:vector  ETV
vector 1530127  Network.dyn_peer[25]  lookupStabilitySig:vector  ETV
vector 1530128  Network.dyn_peer[25]  lookupTimeSig:vector  ETV
vector 1530282  Network.dyn_peer[77]  lookupHopsSig:vector  ETV
vector 1530283  Network.dyn_peer[77]  lookupStabilitySig:vector  ETV
vector 1530284  Network.dyn_peer[77]  lookupTimeSig:vector  ETV
vector 1530135  Network.dyn_peer[28]  lookupHopsSig:vector  ETV
vector 1530136  Network.dyn_peer[28]  lookupStabilitySig:vector  ETV
vector 1530137  Network.dyn_peer[28]  lookupTimeSig:vector  ETV
vector 1530171  Network.dyn_peer[40]  lookupHopsSig:vector  ETV
vector 1530172  Network.dyn_peer[40]  lookupStabilitySig:vector  ETV
vector 1530173  Network.dyn_peer[40]  lookupTimeSig:vector  ETV
vector 1530204  Network.dyn_peer[51]  lookupHopsSig:vector  ETV
vector 1530205  Network.dyn_peer[51]  lookupStabilitySig:vector  ETV
vector 1530206  Network.dyn_peer[51]  lookupTimeSig:vector  ETV
vector 1530264  Network.dyn_peer[71]  lookupHopsSig:vector  ETV
vector 1530265  Network.dyn_peer[71]  lookupStabilitySig:vector  ETV
vector 1530266  Network.dyn_peer[71]  lookupTimeSig:vector  ETV
vector 1530285  Network.dyn_peer[78]  lookupHopsSig:vector  ETV
vector 1530286  Network.dyn_peer[78]  lookupStabilitySig:vector  ETV
vector 1530287  Network.dyn_peer[78]  lookupTimeSig:vector  ETV
vector 1530228  Network.dyn_peer[59]  lookupHopsSig:vector  ETV
vector 1530229  Network.dyn_peer[59]  lookupStabilitySig:vector  ETV
vector 1530230  Network.dyn_peer[59]  lookupTimeSig:vector  ETV
vector 1530207  Network.dyn_peer[52]  lookupHopsSig:vector  ETV
vector 1530208  Network.dyn_peer[52]  lookupStabilitySig:vector  ETV
vector 1530209  Network.dyn_peer[52]  lookupTimeSig:vector  ETV
vector 1530267  Network.dyn_peer[72]  lookupHopsSig:vector  ETV
vector 1530268  Network.dyn_peer[72]  lookupStabilitySig:vector  ETV
vector 1530269  Network.dyn_peer[72]  lookupTimeSig:vector  ETV
vector 1530387  Network.dyn_peer[112]  lookupHopsSig:vector  ETV
vector 1530388  Network.dyn_peer[112]  lookupStabilitySig:vector  ETV
vector 1530389  Network.dyn_peer[112]  lookupTimeSig:vector  ETV
vector 1530123  Network.dyn_peer[24]  lookupHopsSig:vector  ETV
vector 1530124  Network.dyn_peer[24]  lookupStabilitySig:vector  ETV
vector 1530125  Network.dyn_peer[24]  lookupTimeSig:vector  ETV
vector 1530309  Network.dyn_peer[86]  lookupHopsSig:vector  ETV
vector 1530310  Network.dyn_peer[86]  lookupStabilitySig:vector  ETV
vector 1530311  Network.dyn_peer[86]  lookupTimeSig:vector  ETV
vector 1530222  Network.dyn_peer[57]  lookupHopsSig:vector  ETV
vector 1530223  Network.dyn_peer[57]  lookupStabilitySig:vector  ETV
vector 1530224  Network.dyn_peer[57]  lookupTimeSig:vector  ETV
vector 1530144  Network.dyn_peer[31]  lookupHopsSig:vector  ETV
vector 1530145  Network.dyn_peer[31]  lookupStabilitySig:vector  ETV
vector 1530146  Network.dyn_peer[31]  lookupTimeSig:vector  ETV
vector 1530330  Network.dyn_peer[93]  lookupHopsSig:vector  ETV
vector 1530331  Network.dyn_peer[93]  lookupStabilitySig:vector  ETV
vector 1530332  Network.dyn_peer[93]  lookupTimeSig:vector  ETV
vector 1530162  Network.dyn_peer[37]  lookupHopsSig:vector  ETV
vector 1530163  Network.dyn_peer[37]  lookupStabilitySig:vector  ETV
vector 1530164  Network.dyn_peer[37]  lookupTimeSig:vector  ETV
vector 1530414  Network.dyn_peer[121]  lookupHopsSig:vector  ETV
vector 1530415  Network.dyn_peer[121]  lookupStabilitySig:vector  ETV
vector 1530416  Network.dyn_peer[121]  lookupTimeSig:vector  ETV
vector 1530444  Network.dyn_peer[131]  lookupHopsSig:vector  ETV
vector 1530445  Network.dyn_peer[131]  lookupStabilitySig:vector  ETV
vector 1530446  Network.dyn_peer[131]  lookupTimeSig:vector  ETV
vector 1530216  Network.dyn_peer[55]  lookupHopsSig:vector  ETV
vector 1530217  Network.dyn_peer[55]  lookupStabilitySig:vector  ETV
vector 1530218  Network.dyn_peer[55]  lookupTimeSig:vector  ETV
vector 1530306  Network.dyn_peer[85]  lookupHopsSig:vector  ETV
vector 1530307  Network.dyn_peer[85]  lookupStabilitySig:vector  ETV
vector 1530308  Network.dyn_peer[85]  lookupTimeSig:vector  ETV
vector 1530258  Network.dyn_peer[69]  lookupHopsSig:vector  ETV
vector 1530259  Network.dyn_peer[69]  lookupStabilitySig:vector  ETV
vector 1530260  Network.dyn_peer[69]  lookupTimeSig:vector  ETV
vector 1530234  Network.dyn_peer[61]  lookupHopsSig:vector  ETV
vector 1530235  Network.dyn_peer[61]  lookupStabilitySig:vector  ETV
vector 1530236  Network.dyn_peer[61]  lookupTimeSig:vector  ETV
vector 1530210  Network.dyn_peer[53]  lookupHopsSig:vector  ETV
vector 1530211  Network.dyn_peer[53]  lookupStabilitySig:vector  ETV
vector 1530212  Network.dyn_peer[53]  lookupTimeSig:vector  ETV
vector 1530240  Network.dyn_peer[63]  lookupHopsSig:vector  ETV
vector 1530241  Network.dyn_peer[63]  lookupStabilitySig:vector  ETV
vector 1530242  Network.dyn_peer[63]  lookupTimeSig:vector  ETV
vector 1530366  Network.dyn_peer[105]  lookupHopsSig:vector  ETV
vector 1530367  Network.dyn_peer[105]  lookupStabilitySig:vector  ETV
vector 1530368  Network.dyn_peer[105]  lookupTimeSig:vector  ETV
vector 1530198  Network.dyn_peer[49]  lookupHopsSig:vector  ETV
vector 1530199  Network.dyn_peer[49]  lookupStabilitySig:vector  ETV
vector 1530200  Network.dyn_peer[49]  lookupTimeSig:vector  ETV
vector 1530201  Network.dyn_peer[50]  lookupHopsSig:vector  ETV
vector 1530202  Network.dyn_peer[50]  lookupStabilitySig:vector  ETV
vector 1530203  Network.dyn_peer[50]  lookupTimeSig:vector  ETV
vector 1530237  Network.dyn_peer[62]  lookupHopsSig:vector  ETV
vector 1530238  Network.dyn_peer[62]  lookupStabilitySig:vector  ETV
vector 1530239  Network.dyn_peer[62]  lookupTimeSig:vector  ETV
vector 1530213  Network.dyn_peer[54]  lookupHopsSig:vector  ETV
vector 1530214  Network.dyn_peer[54]  lookupStabilitySig:vector  ETV
vector 1530215  Network.dyn_peer[54]  lookupTimeSig:vector  ETV
vector 1530303  Network.dyn_peer[84]  lookupHopsSig:vector  ETV
vector 1530304  Network.dyn_peer[84]  lookupStabilitySig:vector  ETV
vector 1530305  Network.dyn_peer[84]  lookupTimeSig:vector  ETV
vector 1530456  Network.dyn_peer[135]  lookupHopsSig:vector  ETV
vector 1530457  Network.dyn_peer[135]  lookupStabilitySig:vector  ETV
vector 1530458  Network.dyn_peer[135]  lookupTimeSig:vector  ETV
vector 1530252  Network.dyn_peer[67]  lookupHopsSig:vector  ETV
vector 1530253  Network.dyn_peer[67]  lookupStabilitySig:vector  ETV
vector 1530254  Network.dyn_peer[67]  lookupTimeSig:vector  ETV
vector 1530354  Network.dyn_peer[101]  lookupHopsSig:vector  ETV
vector 1530355  Network.dyn_peer[101]  lookupStabilitySig:vector  ETV
vector 1530356  Network.dyn_peer[101]  lookupTimeSig:vector  ETV
vector 1530384  Network.dyn_peer[111]  lookupHopsSig:vector  ETV
vector 1530385  Network.dyn_peer[111]  lookupStabilitySig:vector  ETV
vector 1530386  Network.dyn_peer[111]  lookupTimeSig:vector  ETV
vector 1530357  Network.dyn_peer[102]  lookupHopsSig:vector  ETV
vector 1530358  Network.dyn_peer[102]  lookupStabilitySig:vector  ETV
vector 1530359  Network.dyn_peer[102]  lookupTimeSig:vector  ETV
vector 1530333  Network.dyn_peer[94]  lookupHopsSig:vector  ETV
vector 1530334  Network.dyn_peer[94]  lookupStabilitySig:vector  ETV
vector 1530335  Network.dyn_peer[94]  lookupTimeSig:vector  ETV
vector 1530363  Network.dyn_peer[104]  lookupHopsSig:vector  ETV
vector 1530364  Network.dyn_peer[104]  lookupStabilitySig:vector  ETV
vector 1530365  Network.dyn_peer[104]  lookupTimeSig:vector  ETV
vector 1530513  Network.dyn_peer[154]  lookupHopsSig:vector  ETV
vector 1530514  Network.dyn_peer[154]  lookupStabilitySig:vector  ETV
vector 1530515  Network.dyn_peer[154]  lookupTimeSig:vector  ETV
vector 1530336  Network.dyn_peer[95]  lookupHopsSig:vector  ETV
vector 1530337  Network.dyn_peer[95]  lookupStabilitySig:vector  ETV
vector 1530338  Network.dyn_peer[95]  lookupTimeSig:vector  ETV
vector 1530522  Network.dyn_peer[157]  lookupHopsSig:vector  ETV
vector 1530523  Network.dyn_peer[157]  lookupStabilitySig:vector  ETV
vector 1530524  Network.dyn_peer[157]  lookupTimeSig:vector  ETV
vector 1530552  Network.dyn_peer[167]  lookupHopsSig:vector  ETV
vector 1530553  Network.dyn_peer[167]  lookupStabilitySig:vector  ETV
vector 1530554  Network.dyn_peer[167]  lookupTimeSig:vector  ETV
vector 1530255  Network.dyn_peer[68]  lookupHopsSig:vector  ETV
vector 1530256  Network.dyn_peer[68]  lookupStabilitySig:vector  ETV
vector 1530257  Network.dyn_peer[68]  lookupTimeSig:vector  ETV
vector 1530177  Network.dyn_peer[42]  lookupHopsSig:vector  ETV
vector 1530178  Network.dyn_peer[42]  lookupStabilitySig:vector  ETV
vector 1530179  Network.dyn_peer[42]  lookupTimeSig:vector  ETV
vector 1530477  Network.dyn_peer[142]  lookupHopsSig:vector  ETV
vector 1530478  Network.dyn_peer[142]  lookupStabilitySig:vector  ETV
vector 1530479  Network.dyn_peer[142]  lookupTimeSig:vector  ETV
vector 1530507  Network.dyn_peer[152]  lookupHopsSig:vector  ETV
vector 1530508  Network.dyn_peer[152]  lookupStabilitySig:vector  ETV
vector 1530509  Network.dyn_peer[152]  lookupTimeSig:vector  ETV
vector 1530360  Network.dyn_peer[103]  lookupHopsSig:vector  ETV
vector 1530361  Network.dyn_peer[103]  lookupStabilitySig:vector  ETV
vector 1530362  Network.dyn_peer[103]  lookupTimeSig:vector  ETV
vector 1530519  Network.dyn_peer[156]  lookupHopsSig:vector  ETV
vector 1530520  Network.dyn_peer[156]  lookupStabilitySig:vector  ETV
vector 1530521  Network.dyn_peer[156]  lookupTimeSig:vector  ETV
vector 1530315  Network.dyn_peer[88]  lookupHopsSig:vector  ETV
vector 1530316  Network.dyn_peer[88]  lookupStabilitySig:vector  ETV
vector 1530317  Network.dyn_peer[88]  lookupTimeSig:vector  ETV
vector 1530345  Network.dyn_peer[98]  lookupHopsSig:vector  ETV
vector 1530346  Network.dyn_peer[98]  lookupStabilitySig:vector  ETV
vector 1530347  Network.dyn_peer[98]  lookupTimeSig:vector  ETV
vector 1530231  Network.dyn_peer[60]  lookupHopsSig:vector  ETV
vector 1530232  Network.dyn_peer[60]  lookupStabilitySig:vector  ETV
vector 1530233  Network.dyn_peer[60]  lookupTimeSig:vector  ETV
vector 1530411  Network.dyn_peer[120]  lookupHopsSig:vector  ETV
vector 1530412  Network.dyn_peer[120]  lookupStabilitySig:vector  ETV
vector 1530413  Network.dyn_peer[120]  lookupTimeSig:vector  ETV
vector 1530327  Network.dyn_peer[92]  lookupHopsSig:vector  ETV
vector 1530328  Network.dyn_peer[92]  lookupStabilitySig:vector  ETV
vector 1530329  Network.dyn_peer[92]  lookupTimeSig:vector  ETV
vector 1530246  Network.dyn_peer[65]  lookupHopsSig:vector  ETV
vector 1530247  Network.dyn_peer[65]  lookupStabilitySig:vector  ETV
vector 1530248  Network.dyn_peer[65]  lookupTimeSig:vector  ETV
vector 1530426  Network.dyn_peer[125]  lookupHopsSig:vector  ETV
vector 1530427  Network.dyn_peer[125]  lookupStabilitySig:vector  ETV
vector 1530428  Network.dyn_peer[125]  lookupTimeSig:vector  ETV
vector 1530369  Network.dyn_peer[106]  lookupHopsSig:vector  ETV
vector 1530370  Network.dyn_peer[106]  lookupStabilitySig:vector  ETV
vector 1530371  Network.dyn_peer[106]  lookupTimeSig:vector  ETV
vector 1530459  Network.dyn_peer[136]  lookupHopsSig:vector  ETV
vector 1530460  Network.dyn_peer[136]  lookupStabilitySig:vector  ETV
vector 1530461  Network.dyn_peer[136]  lookupTimeSig:vector  ETV
vector 1530165  Network.dyn_peer[38]  lookupHopsSig:vector  ETV
vector 1530166  Network.dyn_peer[38]  lookupStabilitySig:vector  ETV
vector 1530167  Network.dyn_peer[38]  lookupTimeSig:vector  ETV
vector 1530375  Network.dyn_peer[108]  lookupHopsSig:vector  ETV
vector 1530376  Network.dyn_peer[108]  lookupStabilitySig:vector  ETV
vector 1530377  Network.dyn_peer[108]  lookupTimeSig:vector  ETV
vector 1530378  Network.dyn_peer[109]  lookupHopsSig:vector  ETV
vector 1530379  Network.dyn_peer[109]  lookupStabilitySig:vector  ETV
vector 1530380  Network.dyn_peer[109]  lookupTimeSig:vector  ETV
vector 1530408  Network.dyn_peer[119]  lookupHopsSig:vector  ETV
vector 1530409  Network.dyn_peer[119]  lookupStabilitySig:vector  ETV
vector 1530410  Network.dyn_peer[119]  lookupTimeSig:vector  ETV
vector 1530321  Network.dyn_peer[90]  lookupHopsSig:vector  ETV
vector 1530322  Network.dyn_peer[90]  lookupStabilitySig:vector  ETV
vector 1530323  Network.dyn_peer[90]  lookupTimeSig:vector  ETV
vector 1530324  Network.dyn_peer[91]  lookupHopsSig:vector  ETV
vector 1530325  Network.dyn_peer[91]  lookupStabilitySig:vector  ETV
vector 1530326  Network.dyn_peer[91]  lookupTimeSig:vector  ETV
vector 1530189  Network.dyn_peer[46]  lookupHopsSig:vector  ETV
vector 1530190  Network.dyn_peer[46]  lookupStabilitySig:vector  ETV
vector 1530191  Network.dyn_peer[46]  lookupTimeSig:vector  ETV
vector 1530219  Network.dyn_peer[56]  lookupHopsSig:vector  ETV
vector 1530220  Network.dyn_peer[56]  lookupStabilitySig:vector  ETV
vector 1530221  Network.dyn_peer[56]  lookupTimeSig:vector  ETV
vector 1530579  Network.dyn_peer[176]  lookupHopsSig:vector  ETV
vector 1530580  Network.dyn_peer[176]  lookupStabilitySig:vector  ETV
vector 1530581  Network.dyn_peer[176]  lookupTimeSig:vector  ETV
vector 1530318  Network.dyn_peer[89]  lookupHopsSig:vector  ETV
vector 1530319  Network.dyn_peer[89]  lookupStabilitySig:vector  ETV
vector 1530320  Network.dyn_peer[89]  lookupTimeSig:vector  ETV
vector 1530471  Network.dyn_peer[140]  lookupHopsSig:vector  ETV
vector 1530472  Network.dyn_peer[140]  lookupStabilitySig:vector  ETV
vector 1530473  Network.dyn_peer[140]  lookupTimeSig:vector  ETV
vector 1530504  Network.dyn_peer[151]  lookupHopsSig:vector  ETV
vector 1530505  Network.dyn_peer[151]  lookupStabilitySig:vector  ETV
vector 1530506  Network.dyn_peer[151]  lookupTimeSig:vector  ETV
vector 1530447  Network.dyn_peer[132]  lookupHopsSig:vector  ETV
vector 1530448  Network.dyn_peer[132]  lookupStabilitySig:vector  ETV
vector 1530449  Network.dyn_peer[132]  lookupTimeSig:vector  ETV
vector 1530186  Network.dyn_peer[45]  lookupHopsSig:vector  ETV
vector 1530187  Network.dyn_peer[45]  lookupStabilitySig:vector  ETV
vector 1530188  Network.dyn_peer[45]  lookupTimeSig:vector  ETV
vector 1530405  Network.dyn_peer[118]  lookupHopsSig:vector  ETV
vector 1530406  Network.dyn_peer[118]  lookupStabilitySig:vector  ETV
vector 1530407  Network.dyn_peer[118]  lookupTimeSig:vector  ETV
vector 1530558  Network.dyn_peer[169]  lookupHopsSig:vector  ETV
vector 1530559  Network.dyn_peer[169]  lookupStabilitySig:vector  ETV
vector 1530560  Network.dyn_peer[169]  lookupTimeSig:vector  ETV
vector 1530621  Network.dyn_peer[190]  lookupHopsSig:vector  ETV
vector 1530622  Network.dyn_peer[190]  lookupStabilitySig:vector  ETV
vector 1530623  Network.dyn_peer[190]  lookupTimeSig:vector  ETV
vector 1530417  Network.dyn_peer[122]  lookupHopsSig:vector  ETV
vector 1530418  Network.dyn_peer[122]  lookupStabilitySig:vector  ETV
vector 1530419  Network.dyn_peer[122]  lookupTimeSig:vector  ETV
vector 1530537  Network.dyn_peer[162]  lookupHopsSig:vector  ETV
vector 1530538  Network.dyn_peer[162]  lookupStabilitySig:vector  ETV
vector 1530539  Network.dyn_peer[162]  lookupTimeSig:vector  ETV
vector 1530270  Network.dyn_peer[73]  lookupHopsSig:vector  ETV
vector 1530271  Network.dyn_peer[73]  lookupStabilitySig:vector  ETV
vector 1530272  Network.dyn_peer[73]  lookupTimeSig:vector  ETV
vector 1530450  Network.dyn_peer[133]  lookupHopsSig:vector  ETV
vector 1530451  Network.dyn_peer[133]  lookupStabilitySig:vector  ETV
vector 1530452  Network.dyn_peer[133]  lookupTimeSig:vector  ETV
vector 1530516  Network.dyn_peer[155]  lookupHopsSig:vector  ETV
vector 1530517  Network.dyn_peer[155]  lookupStabilitySig:vector  ETV
vector 1530518  Network.dyn_peer[155]  lookupTimeSig:vector  ETV
vector 1530279  Network.dyn_peer[76]  lookupHopsSig:vector  ETV
vector 1530280  Network.dyn_peer[76]  lookupStabilitySig:vector  ETV
vector 1530281  Network.dyn_peer[76]  lookupTimeSig:vector  ETV
vector 1530528  Network.dyn_peer[159]  lookupHopsSig:vector  ETV
vector 1530529  Network.dyn_peer[159]  lookupStabilitySig:vector  ETV
vector 1530530  Network.dyn_peer[159]  lookupTimeSig:vector  ETV
vector 1530381  Network.dyn_peer[110]  lookupHopsSig:vector  ETV
vector 1530382  Network.dyn_peer[110]  lookupStabilitySig:vector  ETV
vector 1530383  Network.dyn_peer[110]  lookupTimeSig:vector  ETV
vector 1530627  Network.dyn_peer[192]  lookupHopsSig:vector  ETV
vector 1530628  Network.dyn_peer[192]  lookupStabilitySig:vector  ETV
vector 1530629  Network.dyn_peer[192]  lookupTimeSig:vector  ETV
vector 1530570  Network.dyn_peer[173]  lookupHopsSig:vector  ETV
vector 1530571  Network.dyn_peer[173]  lookupStabilitySig:vector  ETV
vector 1530572  Network.dyn_peer[173]  lookupTimeSig:vector  ETV
vector 1530573  Network.dyn_peer[174]  lookupHopsSig:vector  ETV
vector 1530574  Network.dyn_peer[174]  lookupStabilitySig:vector  ETV
vector 1530575  Network.dyn_peer[174]  lookupTimeSig:vector  ETV
vector 1530396  Network.dyn_peer[115]  lookupHopsSig:vector  ETV
vector 1530397  Network.dyn_peer[115]  lookupStabilitySig:vector  ETV
vector 1530398  Network.dyn_peer[115]  lookupTimeSig:vector  ETV
vector 1530549  Network.dyn_peer[166]  lookupHopsSig:vector  ETV
vector 1530550  Network.dyn_peer[166]  lookupStabilitySig:vector  ETV
vector 1530551  Network.dyn_peer[166]  lookupTimeSig:vector  ETV
vector 1530588  Network.dyn_peer[179]  lookupHopsSig:vector  ETV
vector 1530589  Network.dyn_peer[179]  lookupStabilitySig:vector  ETV
vector 1530590  Network.dyn_peer[179]  lookupTimeSig:vector  ETV
vector 1530561  Network.dyn_peer[170]  lookupHopsSig:vector  ETV
vector 1530562  Network.dyn_peer[170]  lookupStabilitySig:vector  ETV
vector 1530563  Network.dyn_peer[170]  lookupTimeSig:vector  ETV
vector 1530591  Network.dyn_peer[180]  lookupHopsSig:vector  ETV
vector 1530592  Network.dyn_peer[180]  lookupStabilitySig:vector  ETV
vector 1530593  Network.dyn_peer[180]  lookupTimeSig:vector  ETV
vector 1530597  Network.dyn_peer[182]  lookupHopsSig:vector  ETV
vector 1530598  Network.dyn_peer[182]  lookupStabilitySig:vector  ETV
vector 1530599  Network.dyn_peer[182]  lookupTimeSig:vector  ETV
vector 1530687  Network.dyn_peer[212]  lookupHopsSig:vector  ETV
vector 1530688  Network.dyn_peer[212]  lookupStabilitySig:vector  ETV
vector 1530689  Network.dyn_peer[212]  lookupTimeSig:vector  ETV
vector 1530420  Network.dyn_peer[123]  lookupHopsSig:vector  ETV
vector 1530421  Network.dyn_peer[123]  lookupStabilitySig:vector  ETV
vector 1530422  Network.dyn_peer[123]  lookupTimeSig:vector  ETV
vector 1530660  Network.dyn_peer[203]  lookupHopsSig:vector  ETV
vector 1530661  Network.dyn_peer[203]  lookupStabilitySig:vector  ETV
vector 1530662  Network.dyn_peer[203]  lookupTimeSig:vector  ETV
vector 1530429  Network.dyn_peer[126]  lookupHopsSig:vector  ETV
vector 1530430  Network.dyn_peer[126]  lookupStabilitySig:vector  ETV
vector 1530431  Network.dyn_peer[126]  lookupTimeSig:vector  ETV
vector 1530342  Network.dyn_peer[97]  lookupHopsSig:vector  ETV
vector 1530343  Network.dyn_peer[97]  lookupStabilitySig:vector  ETV
vector 1530344  Network.dyn_peer[97]  lookupTimeSig:vector  ETV
vector 1530492  Network.dyn_peer[147]  lookupHopsSig:vector  ETV
vector 1530493  Network.dyn_peer[147]  lookupStabilitySig:vector  ETV
vector 1530494  Network.dyn_peer[147]  lookupTimeSig:vector  ETV
vector 1530612  Network.dyn_peer[187]  lookupHopsSig:vector  ETV
vector 1530613  Network.dyn_peer[187]  lookupStabilitySig:vector  ETV
vector 1530614  Network.dyn_peer[187]  lookupTimeSig:vector  ETV
vector 1530642  Network.dyn_peer[197]  lookupHopsSig:vector  ETV
vector 1530643  Network.dyn_peer[197]  lookupStabilitySig:vector  ETV
vector 1530644  Network.dyn_peer[197]  lookupTimeSig:vector  ETV
vector 1530555  Network.dyn_peer[168]  lookupHopsSig:vector  ETV
vector 1530556  Network.dyn_peer[168]  lookupStabilitySig:vector  ETV
vector 1530557  Network.dyn_peer[168]  lookupTimeSig:vector  ETV
vector 1530498  Network.dyn_peer[149]  lookupHopsSig:vector  ETV
vector 1530499  Network.dyn_peer[149]  lookupStabilitySig:vector  ETV
vector 1530500  Network.dyn_peer[149]  lookupTimeSig:vector  ETV
vector 1530714  Network.dyn_peer[221]  lookupHopsSig:vector  ETV
vector 1530715  Network.dyn_peer[221]  lookupStabilitySig:vector  ETV
vector 1530716  Network.dyn_peer[221]  lookupTimeSig:vector  ETV
vector 1530747  Network.dyn_peer[232]  lookupHopsSig:vector  ETV
vector 1530748  Network.dyn_peer[232]  lookupStabilitySig:vector  ETV