version 2
run Stability2-52-20130528-01:27:27-24168
attr configname Stability2
attr datetime 20130528-01:27:27
attr experiment Stability2
attr inifile omnetpp.ini
attr iterationvars $0=100
attr iterationvars2 "$0=100, $repetition=2"
attr measurement $0=100
attr network Network
attr processid 24168
attr repetition 2
attr replication #2
attr resultdir results
attr runnumber 52
attr seedset 52

vector 1590052  Network.churner  inGoingSizeSig:vector  ETV
vector 1560064  Network.dyn_peer[4]  lookupHopsSig:vector  ETV
vector 1560065  Network.dyn_peer[4]  lookupStabilitySig:vector  ETV
vector 1560066  Network.dyn_peer[4]  lookupTimeSig:vector  ETV
vector 1560067  Network.dyn_peer[5]  lookupHopsSig:vector  ETV
vector 1560068  Network.dyn_peer[5]  lookupStabilitySig:vector  ETV
vector 1560069  Network.dyn_peer[5]  lookupTimeSig:vector  ETV
vector 1560052  Network.dyn_peer[0]  lookupHopsSig:vector  ETV
vector 1560053  Network.dyn_peer[0]  lookupStabilitySig:vector  ETV
vector 1560054  Network.dyn_peer[0]  lookupTimeSig:vector  ETV
vector 1560055  Network.dyn_peer[1]  lookupHopsSig:vector  ETV
vector 1560056  Network.dyn_peer[1]  lookupStabilitySig:vector  ETV
vector 1560057  Network.dyn_peer[1]  lookupTimeSig:vector  ETV
vector 1560085  Network.dyn_peer[11]  lookupHopsSig:vector  ETV
vector 1560086  Network.dyn_peer[11]  lookupStabilitySig:vector  ETV
vector 1560087  Network.dyn_peer[11]  lookupTimeSig:vector  ETV
vector 1560058  Network.dyn_peer[2]  lookupHopsSig:vector  ETV
vector 1560059  Network.dyn_peer[2]  lookupStabilitySig:vector  ETV
vector 1560060  Network.dyn_peer[2]  lookupTimeSig:vector  ETV
vector 1560103  Network.dyn_peer[17]  lookupHopsSig:vector  ETV
vector 1560104  Network.dyn_peer[17]  lookupStabilitySig:vector  ETV
vector 1560105  Network.dyn_peer[17]  lookupTimeSig:vector  ETV
vector 1560082  Network.dyn_peer[10]  lookupHopsSig:vector  ETV
vector 1560083  Network.dyn_peer[10]  lookupStabilitySig:vector  ETV
vector 1560084  Network.dyn_peer[10]  lookupTimeSig:vector  ETV
vector 1560061  Network.dyn_peer[3]  lookupHopsSig:vector  ETV
vector 1560062  Network.dyn_peer[3]  lookupStabilitySig:vector  ETV
vector 1560063  Network.dyn_peer[3]  lookupTimeSig:vector  ETV
vector 1560070  Network.dyn_peer[6]  lookupHopsSig:vector  ETV
vector 1560071  Network.dyn_peer[6]  lookupStabilitySig:vector  ETV
vector 1560072  Network.dyn_peer[6]  lookupTimeSig:vector  ETV
vector 1560073  Network.dyn_peer[7]  lookupHopsSig:vector  ETV
vector 1560074  Network.dyn_peer[7]  lookupStabilitySig:vector  ETV
vector 1560075  Network.dyn_peer[7]  lookupTimeSig:vector  ETV
vector 1560076  Network.dyn_peer[8]  lookupHopsSig:vector  ETV
vector 1560077  Network.dyn_peer[8]  lookupStabilitySig:vector  ETV
vector 1560078  Network.dyn_peer[8]  lookupTimeSig:vector  ETV
vector 1560112  Network.dyn_peer[20]  lookupHopsSig:vector  ETV
vector 1560113  Network.dyn_peer[20]  lookupStabilitySig:vector  ETV
vector 1560114  Network.dyn_peer[20]  lookupTimeSig:vector  ETV
vector 1560094  Network.dyn_peer[14]  lookupHopsSig:vector  ETV
vector 1560095  Network.dyn_peer[14]  lookupStabilitySig:vector  ETV
vector 1560096  Network.dyn_peer[14]  lookupTimeSig:vector  ETV
vector 1560145  Network.dyn_peer[31]  lookupHopsSig:vector  ETV
vector 1560146  Network.dyn_peer[31]  lookupStabilitySig:vector  ETV
vector 1560147  Network.dyn_peer[31]  lookupTimeSig:vector  ETV
vector 1560091  Network.dyn_peer[13]  lookupHopsSig:vector  ETV
vector 1560092  Network.dyn_peer[13]  lookupStabilitySig:vector  ETV
vector 1560093  Network.dyn_peer[13]  lookupTimeSig:vector  ETV
vector 1560124  Network.dyn_peer[24]  lookupHopsSig:vector  ETV
vector 1560125  Network.dyn_peer[24]  lookupStabilitySig:vector  ETV
vector 1560126  Network.dyn_peer[24]  lookupTimeSig:vector  ETV
vector 1560097  Network.dyn_peer[15]  lookupHopsSig:vector  ETV
vector 1560098  Network.dyn_peer[15]  lookupStabilitySig:vector  ETV
vector 1560099  Network.dyn_peer[15]  lookupTimeSig:vector  ETV
vector 1560157  Network.dyn_peer[35]  lookupHopsSig:vector  ETV
vector 1560158  Network.dyn_peer[35]  lookupStabilitySig:vector  ETV
vector 1560159  Network.dyn_peer[35]  lookupTimeSig:vector  ETV
vector 1560100  Network.dyn_peer[16]  lookupHopsSig:vector  ETV
vector 1560101  Network.dyn_peer[16]  lookupStabilitySig:vector  ETV
vector 1560102  Network.dyn_peer[16]  lookupTimeSig:vector  ETV
vector 1560079  Network.dyn_peer[9]  lookupHopsSig:vector  ETV
vector 1560080  Network.dyn_peer[9]  lookupStabilitySig:vector  ETV
vector 1560081  Network.dyn_peer[9]  lookupTimeSig:vector  ETV
vector 1560139  Network.dyn_peer[29]  lookupHopsSig:vector  ETV
vector 1560140  Network.dyn_peer[29]  lookupStabilitySig:vector  ETV
vector 1560141  Network.dyn_peer[29]  lookupTimeSig:vector  ETV
vector 1560088  Network.dyn_peer[12]  lookupHopsSig:vector  ETV
vector 1560089  Network.dyn_peer[12]  lookupStabilitySig:vector  ETV
vector 1560090  Network.dyn_peer[12]  lookupTimeSig:vector  ETV
vector 1560118  Network.dyn_peer[22]  lookupHopsSig:vector  ETV
vector 1560119  Network.dyn_peer[22]  lookupStabilitySig:vector  ETV
vector 1560120  Network.dyn_peer[22]  lookupTimeSig:vector  ETV
vector 1560148  Network.dyn_peer[32]  lookupHopsSig:vector  ETV
vector 1560149  Network.dyn_peer[32]  lookupStabilitySig:vector  ETV
vector 1560150  Network.dyn_peer[32]  lookupTimeSig:vector  ETV
vector 1560121  Network.dyn_peer[23]  lookupHopsSig:vector  ETV
vector 1560122  Network.dyn_peer[23]  lookupStabilitySig:vector  ETV
vector 1560123  Network.dyn_peer[23]  lookupTimeSig:vector  ETV
vector 1560211  Network.dyn_peer[53]  lookupHopsSig:vector  ETV
vector 1560212  Network.dyn_peer[53]  lookupStabilitySig:vector  ETV
vector 1560213  Network.dyn_peer[53]  lookupTimeSig:vector  ETV
vector 1560130  Network.dyn_peer[26]  lookupHopsSig:vector  ETV
vector 1560131  Network.dyn_peer[26]  lookupStabilitySig:vector  ETV
vector 1560132  Network.dyn_peer[26]  lookupTimeSig:vector  ETV
vector 1560133  Network.dyn_peer[27]  lookupHopsSig:vector  ETV
vector 1560134  Network.dyn_peer[27]  lookupStabilitySig:vector  ETV
vector 1560135  Network.dyn_peer[27]  lookupTimeSig:vector  ETV
vector 1560163  Network.dyn_peer[37]  lookupHopsSig:vector  ETV
vector 1560164  Network.dyn_peer[37]  lookupStabilitySig:vector  ETV
vector 1560165  Network.dyn_peer[37]  lookupTimeSig:vector  ETV
vector 1560115  Network.dyn_peer[21]  lookupHopsSig:vector  ETV
vector 1560116  Network.dyn_peer[21]  lookupStabilitySig:vector  ETV
vector 1560117  Network.dyn_peer[21]  lookupTimeSig:vector  ETV
vector 1560205  Network.dyn_peer[51]  lookupHopsSig:vector  ETV
vector 1560206  Network.dyn_peer[51]  lookupStabilitySig:vector  ETV
vector 1560207  Network.dyn_peer[51]  lookupTimeSig:vector  ETV
vector 1560106  Network.dyn_peer[18]  lookupHopsSig:vector  ETV
vector 1560107  Network.dyn_peer[18]  lookupStabilitySig:vector  ETV
vector 1560108  Network.dyn_peer[18]  lookupTimeSig:vector  ETV
vector 1560136  Network.dyn_peer[28]  lookupHopsSig:vector  ETV
vector 1560137  Network.dyn_peer[28]  lookupStabilitySig:vector  ETV
vector 1560138  Network.dyn_peer[28]  lookupTimeSig:vector  ETV
vector 1560196  Network.dyn_peer[48]  lookupHopsSig:vector  ETV
vector 1560197  Network.dyn_peer[48]  lookupStabilitySig:vector  ETV
vector 1560198  Network.dyn_peer[48]  lookupTimeSig:vector  ETV
vector 1560178  Network.dyn_peer[42]  lookupHopsSig:vector  ETV
vector 1560179  Network.dyn_peer[42]  lookupStabilitySig:vector  ETV
vector 1560180  Network.dyn_peer[42]  lookupTimeSig:vector  ETV
vector 1560151  Network.dyn_peer[33]  lookupHopsSig:vector  ETV
vector 1560152  Network.dyn_peer[33]  lookupStabilitySig:vector  ETV
vector 1560153  Network.dyn_peer[33]  lookupTimeSig:vector  ETV
vector 1560184  Network.dyn_peer[44]  lookupHopsSig:vector  ETV
vector 1560185  Network.dyn_peer[44]  lookupStabilitySig:vector  ETV
vector 1560186  Network.dyn_peer[44]  lookupTimeSig:vector  ETV
vector 1560244  Network.dyn_peer[64]  lookupHopsSig:vector  ETV
vector 1560245  Network.dyn_peer[64]  lookupStabilitySig:vector  ETV
vector 1560246  Network.dyn_peer[64]  lookupTimeSig:vector  ETV
vector 1560190  Network.dyn_peer[46]  lookupHopsSig:vector  ETV
vector 1560191  Network.dyn_peer[46]  lookupStabilitySig:vector  ETV
vector 1560192  Network.dyn_peer[46]  lookupTimeSig:vector  ETV
vector 1560109  Network.dyn_peer[19]  lookupHopsSig:vector  ETV
vector 1560110  Network.dyn_peer[19]  lookupStabilitySig:vector  ETV
vector 1560111  Network.dyn_peer[19]  lookupTimeSig:vector  ETV
vector 1560175  Network.dyn_peer[41]  lookupHopsSig:vector  ETV
vector 1560176  Network.dyn_peer[41]  lookupStabilitySig:vector  ETV
vector 1560177  Network.dyn_peer[41]  lookupTimeSig:vector  ETV
vector 1560316  Network.dyn_peer[88]  lookupHopsSig:vector  ETV
vector 1560317  Network.dyn_peer[88]  lookupStabilitySig:vector  ETV
vector 1560318  Network.dyn_peer[88]  lookupTimeSig:vector  ETV
vector 1560259  Network.dyn_peer[69]  lookupHopsSig:vector  ETV
vector 1560260  Network.dyn_peer[69]  lookupStabilitySig:vector  ETV
vector 1560261  Network.dyn_peer[69]  lookupTimeSig:vector  ETV
vector 1560142  Network.dyn_peer[30]  lookupHopsSig:vector  ETV
vector 1560143  Network.dyn_peer[30]  lookupStabilitySig:vector  ETV
vector 1560144  Network.dyn_peer[30]  lookupTimeSig:vector  ETV
vector 1560172  Network.dyn_peer[40]  lookupHopsSig:vector  ETV
vector 1560173  Network.dyn_peer[40]  lookupStabilitySig:vector  ETV
vector 1560174  Network.dyn_peer[40]  lookupTimeSig:vector  ETV
vector 1560214  Network.dyn_peer[54]  lookupHopsSig:vector  ETV
vector 1560215  Network.dyn_peer[54]  lookupStabilitySig:vector  ETV
vector 1560216  Network.dyn_peer[54]  lookupTimeSig:vector  ETV
vector 1560220  Network.dyn_peer[56]  lookupHopsSig:vector  ETV
vector 1560221  Network.dyn_peer[56]  lookupStabilitySig:vector  ETV
vector 1560222  Network.dyn_peer[56]  lookupTimeSig:vector  ETV
vector 1560241  Network.dyn_peer[63]  lookupHopsSig:vector  ETV
vector 1560242  Network.dyn_peer[63]  lookupStabilitySig:vector  ETV
vector 1560243  Network.dyn_peer[63]  lookupTimeSig:vector  ETV
vector 1560307  Network.dyn_peer[85]  lookupHopsSig:vector  ETV
vector 1560308  Network.dyn_peer[85]  lookupStabilitySig:vector  ETV
vector 1560309  Network.dyn_peer[85]  lookupTimeSig:vector  ETV
vector 1560349  Network.dyn_peer[99]  lookupHopsSig:vector  ETV
vector 1560350  Network.dyn_peer[99]  lookupStabilitySig:vector  ETV
vector 1560351  Network.dyn_peer[99]  lookupTimeSig:vector  ETV
vector 1560292  Network.dyn_peer[80]  lookupHopsSig:vector  ETV
vector 1560293  Network.dyn_peer[80]  lookupStabilitySig:vector  ETV
vector 1560294  Network.dyn_peer[80]  lookupTimeSig:vector  ETV
vector 1560268  Network.dyn_peer[72]  lookupHopsSig:vector  ETV
vector 1560269  Network.dyn_peer[72]  lookupStabilitySig:vector  ETV
vector 1560270  Network.dyn_peer[72]  lookupTimeSig:vector  ETV
vector 1560358  Network.dyn_peer[102]  lookupHopsSig:vector  ETV
vector 1560359  Network.dyn_peer[102]  lookupStabilitySig:vector  ETV
vector 1560360  Network.dyn_peer[102]  lookupTimeSig:vector  ETV
vector 1560181  Network.dyn_peer[43]  lookupHopsSig:vector  ETV
vector 1560182  Network.dyn_peer[43]  lookupStabilitySig:vector  ETV
vector 1560183  Network.dyn_peer[43]  lookupTimeSig:vector  ETV
vector 1560154  Network.dyn_peer[34]  lookupHopsSig:vector  ETV
vector 1560155  Network.dyn_peer[34]  lookupStabilitySig:vector  ETV
vector 1560156  Network.dyn_peer[34]  lookupTimeSig:vector  ETV
vector 1560337  Network.dyn_peer[95]  lookupHopsSig:vector  ETV
vector 1560338  Network.dyn_peer[95]  lookupStabilitySig:vector  ETV
vector 1560339  Network.dyn_peer[95]  lookupTimeSig:vector  ETV
vector 1560160  Network.dyn_peer[36]  lookupHopsSig:vector  ETV
vector 1560161  Network.dyn_peer[36]  lookupStabilitySig:vector  ETV
vector 1560162  Network.dyn_peer[36]  lookupTimeSig:vector  ETV
vector 1560373  Network.dyn_peer[107]  lookupHopsSig:vector  ETV
vector 1560374  Network.dyn_peer[107]  lookupStabilitySig:vector  ETV
vector 1560375  Network.dyn_peer[107]  lookupTimeSig:vector  ETV
vector 1560169  Network.dyn_peer[39]  lookupHopsSig:vector  ETV
vector 1560170  Network.dyn_peer[39]  lookupStabilitySig:vector  ETV
vector 1560171  Network.dyn_peer[39]  lookupTimeSig:vector  ETV
vector 1560355  Network.dyn_peer[101]  lookupHopsSig:vector  ETV
vector 1560356  Network.dyn_peer[101]  lookupStabilitySig:vector  ETV
vector 1560357  Network.dyn_peer[101]  lookupTimeSig:vector  ETV
vector 1560247  Network.dyn_peer[65]  lookupHopsSig:vector  ETV
vector 1560248  Network.dyn_peer[65]  lookupStabilitySig:vector  ETV
vector 1560249  Network.dyn_peer[65]  lookupTimeSig:vector  ETV
vector 1560250  Network.dyn_peer[66]  lookupHopsSig:vector  ETV
vector 1560251  Network.dyn_peer[66]  lookupStabilitySig:vector  ETV
vector 1560252  Network.dyn_peer[66]  lookupTimeSig:vector  ETV
vector 1560223  Network.dyn_peer[57]  lookupHopsSig:vector  ETV
vector 1560224  Network.dyn_peer[57]  lookupStabilitySig:vector  ETV
vector 1560225  Network.dyn_peer[57]  lookupTimeSig:vector  ETV
vector 1560382  Network.dyn_peer[110]  lookupHopsSig:vector  ETV
vector 1560383  Network.dyn_peer[110]  lookupStabilitySig:vector  ETV
vector 1560384  Network.dyn_peer[110]  lookupTimeSig:vector  ETV
vector 1560301  Network.dyn_peer[83]  lookupHopsSig:vector  ETV
vector 1560302  Network.dyn_peer[83]  lookupStabilitySig:vector  ETV
vector 1560303  Network.dyn_peer[83]  lookupTimeSig:vector  ETV
vector 1560253  Network.dyn_peer[67]  lookupHopsSig:vector  ETV
vector 1560254  Network.dyn_peer[67]  lookupStabilitySig:vector  ETV
vector 1560255  Network.dyn_peer[67]  lookupTimeSig:vector  ETV
vector 1560313  Network.dyn_peer[87]  lookupHopsSig:vector  ETV
vector 1560314  Network.dyn_peer[87]  lookupStabilitySig:vector  ETV
vector 1560315  Network.dyn_peer[87]  lookupTimeSig:vector  ETV
vector 1560319  Network.dyn_peer[89]  lookupHopsSig:vector  ETV
vector 1560320  Network.dyn_peer[89]  lookupStabilitySig:vector  ETV
vector 1560321  Network.dyn_peer[89]  lookupTimeSig:vector  ETV
vector 1560379  Network.dyn_peer[109]  lookupHopsSig:vector  ETV
vector 1560380  Network.dyn_peer[109]  lookupStabilitySig:vector  ETV
vector 1560381  Network.dyn_peer[109]  lookupTimeSig:vector  ETV
vector 1560385  Network.dyn_peer[111]  lookupHopsSig:vector  ETV
vector 1560386  Network.dyn_peer[111]  lookupStabilitySig:vector  ETV
vector 1560387  Network.dyn_peer[111]  lookupTimeSig:vector  ETV
vector 1560421  Network.dyn_peer[123]  lookupHopsSig:vector  ETV
vector 1560422  Network.dyn_peer[123]  lookupStabilitySig:vector  ETV
vector 1560423  Network.dyn_peer[123]  lookupTimeSig:vector  ETV
vector 1560304  Network.dyn_peer[84]  lookupHopsSig:vector  ETV
vector 1560305  Network.dyn_peer[84]  lookupStabilitySig:vector  ETV
vector 1560306  Network.dyn_peer[84]  lookupTimeSig:vector  ETV
vector 1560367  Network.dyn_peer[105]  lookupHopsSig:vector  ETV
vector 1560368  Network.dyn_peer[105]  lookupStabilitySig:vector  ETV
vector 1560369  Network.dyn_peer[105]  lookupTimeSig:vector  ETV
vector 1560346  Network.dyn_peer[98]  lookupHopsSig:vector  ETV
vector 1560347  Network.dyn_peer[98]  lookupStabilitySig:vector  ETV
vector 1560348  Network.dyn_peer[98]  lookupTimeSig:vector  ETV
vector 1560325  Network.dyn_peer[91]  lookupHopsSig:vector  ETV
vector 1560326  Network.dyn_peer[91]  lookupStabilitySig:vector  ETV
vector 1560327  Network.dyn_peer[91]  lookupTimeSig:vector  ETV
vector 1560448  Network.dyn_peer[132]  lookupHopsSig:vector  ETV
vector 1560449  Network.dyn_peer[132]  lookupStabilitySig:vector  ETV
vector 1560450  Network.dyn_peer[132]  lookupTimeSig:vector  ETV
vector 1560364  Network.dyn_peer[104]  lookupHopsSig:vector  ETV
vector 1560365  Network.dyn_peer[104]  lookupStabilitySig:vector  ETV
vector 1560366  Network.dyn_peer[104]  lookupTimeSig:vector  ETV
vector 1560277  Network.dyn_peer[75]  lookupHopsSig:vector  ETV
vector 1560278  Network.dyn_peer[75]  lookupStabilitySig:vector  ETV
vector 1560279  Network.dyn_peer[75]  lookupTimeSig:vector  ETV
vector 1560343  Network.dyn_peer[97]  lookupHopsSig:vector  ETV
vector 1560344  Network.dyn_peer[97]  lookupStabilitySig:vector  ETV
vector 1560345  Network.dyn_peer[97]  lookupTimeSig:vector  ETV
vector 1560208  Network.dyn_peer[52]  lookupHopsSig:vector  ETV
vector 1560209  Network.dyn_peer[52]  lookupStabilitySig:vector  ETV
vector 1560210  Network.dyn_peer[52]  lookupTimeSig:vector  ETV
vector 1560193  Network.dyn_peer[47]  lookupHopsSig:vector  ETV
vector 1560194  Network.dyn_peer[47]  lookupStabilitySig:vector  ETV
vector 1560195  Network.dyn_peer[47]  lookupTimeSig:vector  ETV
vector 1560166  Network.dyn_peer[38]  lookupHopsSig:vector  ETV
vector 1560167  Network.dyn_peer[38]  lookupStabilitySig:vector  ETV
vector 1560168  Network.dyn_peer[38]  lookupTimeSig:vector  ETV
vector 1560286  Network.dyn_peer[78]  lookupHopsSig:vector  ETV
vector 1560287  Network.dyn_peer[78]  lookupStabilitySig:vector  ETV
vector 1560288  Network.dyn_peer[78]  lookupTimeSig:vector  ETV
vector 1560199  Network.dyn_peer[49]  lookupHopsSig:vector  ETV
vector 1560200  Network.dyn_peer[49]  lookupStabilitySig:vector  ETV
vector 1560201  Network.dyn_peer[49]  lookupTimeSig:vector  ETV
vector 1560229  Network.dyn_peer[59]  lookupHopsSig:vector  ETV
vector 1560230  Network.dyn_peer[59]  lookupStabilitySig:vector  ETV
vector 1560231  Network.dyn_peer[59]  lookupTimeSig:vector  ETV
vector 1560295  Network.dyn_peer[81]  lookupHopsSig:vector  ETV
vector 1560296  Network.dyn_peer[81]  lookupStabilitySig:vector  ETV
vector 1560297  Network.dyn_peer[81]  lookupTimeSig:vector  ETV
vector 1560451  Network.dyn_peer[133]  lookupHopsSig:vector  ETV
vector 1560452  Network.dyn_peer[133]  lookupStabilitySig:vector  ETV
vector 1560453  Network.dyn_peer[133]  lookupTimeSig:vector  ETV
vector 1560523  Network.dyn_peer[157]  lookupHopsSig:vector  ETV
vector 1560524  Network.dyn_peer[157]  lookupStabilitySig:vector  ETV
vector 1560525  Network.dyn_peer[157]  lookupTimeSig:vector  ETV
vector 1560262  Network.dyn_peer[70]  lookupHopsSig:vector  ETV
vector 1560263  Network.dyn_peer[70]  lookupStabilitySig:vector  ETV
vector 1560264  Network.dyn_peer[70]  lookupTimeSig:vector  ETV
vector 1560445  Network.dyn_peer[131]  lookupHopsSig:vector  ETV
vector 1560446  Network.dyn_peer[131]  lookupStabilitySig:vector  ETV
vector 1560447  Network.dyn_peer[131]  lookupTimeSig:vector  ETV
vector 1560298  Network.dyn_peer[82]  lookupHopsSig:vector  ETV
vector 1560299  Network.dyn_peer[82]  lookupStabilitySig:vector  ETV
vector 1560300  Network.dyn_peer[82]  lookupTimeSig:vector  ETV
vector 1560508  Network.dyn_peer[152]  lookupHopsSig:vector  ETV
vector 1560509  Network.dyn_peer[152]  lookupStabilitySig:vector  ETV
vector 1560510  Network.dyn_peer[152]  lookupTimeSig:vector  ETV
vector 1560424  Network.dyn_peer[124]  lookupHopsSig:vector  ETV
vector 1560425  Network.dyn_peer[124]  lookupStabilitySig:vector  ETV
vector 1560426  Network.dyn_peer[124]  lookupTimeSig:vector  ETV
vector 1560484  Network.dyn_peer[144]  lookupHopsSig:vector  ETV
vector 1560485  Network.dyn_peer[144]  lookupStabilitySig:vector  ETV
vector 1560486  Network.dyn_peer[144]  lookupTimeSig:vector  ETV
vector 1560340  Network.dyn_peer[96]  lookupHopsSig:vector  ETV
vector 1560341  Network.dyn_peer[96]  lookupStabilitySig:vector  ETV
vector 1560342  Network.dyn_peer[96]  lookupTimeSig:vector  ETV
vector 1560430  Network.dyn_peer[126]  lookupHopsSig:vector  ETV
vector 1560431  Network.dyn_peer[126]  lookupStabilitySig:vector  ETV
vector 1560432  Network.dyn_peer[126]  lookupTimeSig:vector  ETV
vector 1560463  Network.dyn_peer[137]  lookupHopsSig:vector  ETV
vector 1560464  Network.dyn_peer[137]  lookupStabilitySig:vector  ETV
vector 1560465  Network.dyn_peer[137]  lookupTimeSig:vector  ETV
vector 1560559  Network.dyn_peer[169]  lookupHopsSig:vector  ETV
vector 1560560  Network.dyn_peer[169]  lookupStabilitySig:vector  ETV
vector 1560561  Network.dyn_peer[169]  lookupTimeSig:vector  ETV
vector 1560352  Network.dyn_peer[100]  lookupHopsSig:vector  ETV
vector 1560353  Network.dyn_peer[100]  lookupStabilitySig:vector  ETV
vector 1560354  Network.dyn_peer[100]  lookupTimeSig:vector  ETV
vector 1560502  Network.dyn_peer[150]  lookupHopsSig:vector  ETV
vector 1560503  Network.dyn_peer[150]  lookupStabilitySig:vector  ETV
vector 1560504  Network.dyn_peer[150]  lookupTimeSig:vector  ETV
vector 1560328  Network.dyn_peer[92]  lookupHopsSig:vector  ETV
vector 1560329  Network.dyn_peer[92]  lookupStabilitySig:vector  ETV
vector 1560330  Network.dyn_peer[92]  lookupTimeSig:vector  ETV
vector 1560418  Network.dyn_peer[122]  lookupHopsSig:vector  ETV
vector 1560419  Network.dyn_peer[122]  lookupStabilitySig:vector  ETV
vector 1560420  Network.dyn_peer[122]  lookupTimeSig:vector  ETV
vector 1560538  Network.dyn_peer[162]  lookupHopsSig:vector  ETV
vector 1560539  Network.dyn_peer[162]  lookupStabilitySig:vector  ETV
vector 1560540  Network.dyn_peer[162]  lookupTimeSig:vector  ETV
vector 1560544  Network.dyn_peer[164]  lookupHopsSig:vector  ETV
vector 1560545  Network.dyn_peer[164]  lookupStabilitySig:vector  ETV
vector 1560546  Network.dyn_peer[164]  lookupTimeSig:vector  ETV
vector 1560550  Network.dyn_peer[166]  lookupHopsSig:vector  ETV
vector 1560551  Network.dyn_peer[166]  lookupStabilitySig:vector  ETV
vector 1560552  Network.dyn_peer[166]  lookupTimeSig:vector  ETV
vector 1560583  Network.dyn_peer[177]  lookupHopsSig:vector  ETV
vector 1560584  Network.dyn_peer[177]  lookupStabilitySig:vector  ETV
vector 1560585  Network.dyn_peer[177]  lookupTimeSig:vector  ETV
vector 1560526  Network.dyn_peer[158]  lookupHopsSig:vector  ETV
vector 1560527  Network.dyn_peer[158]  lookupStabilitySig:vector  ETV
vector 1560528  Network.dyn_peer[158]  lookupTimeSig:vector  ETV
vector 1560586  Network.dyn_peer[178]  lookupHopsSig:vector  ETV
vector 1560587  Network.dyn_peer[178]  lookupStabilitySig:vector  ETV
vector 1560588  Network.dyn_peer[178]  lookupTimeSig:vector  ETV
vector 1560616  Network.dyn_peer[188]  lookupHopsSig:vector  ETV
vector 1560617  Network.dyn_peer[188]  lookupStabilitySig:vector  ETV
vector 1560618  Network.dyn_peer[188]  lookupTimeSig:vector  ETV
vector 1560469  Network.dyn_peer[139]  lookupHopsSig:vector  ETV
vector 1560470  Network.dyn_peer[139]  lookupStabilitySig:vector  ETV
vector 1560471  Network.dyn_peer[139]  lookupTimeSig:vector  ETV
vector 1560619  Network.dyn_peer[189]  lookupHopsSig:vector  ETV
vector 1560620  Network.dyn_peer[189]  lookupStabilitySig:vector  ETV
vector 1560621  Network.dyn_peer[189]  lookupTimeSig:vector  ETV
vector 1560412  Network.dyn_peer[120]  lookupHopsSig:vector  ETV
vector 1560413  Network.dyn_peer[120]  lookupStabilitySig:vector  ETV
vector 1560414  Network.dyn_peer[120]  lookupTimeSig:vector  ETV
vector 1560475  Network.dyn_peer[141]  lookupHopsSig:vector  ETV
vector 1560476  Network.dyn_peer[141]  lookupStabilitySig:vector  ETV
vector 1560477  Network.dyn_peer[141]  lookupTimeSig:vector  ETV
vector 1560505  Network.dyn_peer[151]  lookupHopsSig:vector  ETV
vector 1560506  Network.dyn_peer[151]  lookupStabilitySig:vector  ETV
vector 1560507  Network.dyn_peer[151]  lookupTimeSig:vector  ETV
vector 1560454  Network.dyn_peer[134]  lookupHopsSig:vector  ETV
vector 1560455  Network.dyn_peer[134]  lookupStabilitySig:vector  ETV
vector 1560456  Network.dyn_peer[134]  lookupTimeSig:vector  ETV
vector 1560496  Network.dyn_peer[148]  lookupHopsSig:vector  ETV
vector 1560497  Network.dyn_peer[148]  lookupStabilitySig:vector  ETV
vector 1560498  Network.dyn_peer[148]  lookupTimeSig:vector  ETV
vector 1560499  Network.dyn_peer[149]  lookupHopsSig:vector  ETV
vector 1560500  Network.dyn_peer[149]  lookupStabilitySig:vector  ETV
vector 1560501  Network.dyn_peer[149]  lookupTimeSig:vector  ETV
vector 1560415  Network.dyn_peer[121]  lookupHopsSig:vector  ETV
vector 1560416  Network.dyn_peer[121]  lookupStabilitySig:vector  ETV
vector 1560417  Network.dyn_peer[121]  lookupTimeSig:vector  ETV
vector 1560565  Network.dyn_peer[171]  lookupHopsSig:vector  ETV
vector 1560566  Network.dyn_peer[171]  lookupStabilitySig:vector  ETV
vector 1560567  Network.dyn_peer[171]  lookupTimeSig:vector  ETV
vector 1560238  Network.dyn_peer[62]  lookupHopsSig:vector  ETV
vector 1560239  Network.dyn_peer[62]  lookupStabilitySig:vector  ETV
vector 1560240  Network.dyn_peer[62]  lookupTimeSig:vector  ETV
vector 1560271  Network.dyn_peer[73]  lookupHopsSig:vector  ETV
vector 1560272  Network.dyn_peer[73]  lookupStabilitySig:vector  ETV
vector 1560273  Network.dyn_peer[73]  lookupTimeSig:vector  ETV
vector 1560541  Network.dyn_peer[163]  lookupHopsSig:vector  ETV
vector 1560542  Network.dyn_peer[163]  lookupStabilitySig:vector  ETV
vector 1560543  Network.dyn_peer[163]  lookupTimeSig:vector  ETV
vector 1560631  Network.dyn_peer[193]  lookupHopsSig:vector  ETV
vector 1560632  Network.dyn_peer[193]  lookupStabilitySig:vector  ETV
vector 1560633  Network.dyn_peer[193]  lookupTimeSig:vector  ETV
vector 1560604  Network.dyn_peer[184]  lookupHopsSig:vector  ETV
vector 1560605  Network.dyn_peer[184]  lookupStabilitySig:vector  ETV
vector 1560606  Network.dyn_peer[184]  lookupTimeSig:vector  ETV
vector 1560127  Network.dyn_peer[25]  lookupHopsSig:vector  ETV
vector 1560128  Network.dyn_peer[25]  lookupStabilitySig:vector  ETV
vector 1560129  Network.dyn_peer[25]  lookupTimeSig:vector  ETV
vector 1560397  Network.dyn_peer[115]  lookupHopsSig:vector  ETV
vector 1560398  Network.dyn_peer[115]  lookupStabilitySig:vector  ETV
vector 1560399  Network.dyn_peer[115]  lookupTimeSig:vector  ETV
vector 1560643  Network.dyn_peer[197]  lookupHopsSig:vector  ETV
vector 1560644  Network.dyn_peer[197]  lookupStabilitySig:vector  ETV
vector 1560645  Network.dyn_peer[197]  lookupTimeSig:vector  ETV
vector 1560673  Network.dyn_peer[207]  lookupHopsSig:vector  ETV
vector 1560674  Network.dyn_peer[207]  lookupStabilitySig:vector  ETV
vector 1560675  Network.dyn_peer[207]  lookupTimeSig:vector  ETV
vector 1560439  Network.dyn_peer[129]  lookupHopsSig:vector  ETV
vector 1560440  Network.dyn_peer[129]  lookupStabilitySig:vector  ETV
vector 1560441  Network.dyn_peer[129]  lookupTimeSig:vector  ETV
vector 1560592  Network.dyn_peer[180]  lookupHopsSig:vector  ETV
vector 1560593  Network.dyn_peer[180]  lookupStabilitySig:vector  ETV
vector 1560594  Network.dyn_peer[180]  lookupTimeSig:vector  ETV
vector 1560394  Network.dyn_peer[114]  lookupHopsSig:vector  ETV
vector 1560395  Network.dyn_peer[114]  lookupStabilitySig:vector  ETV
vector 1560396  Network.dyn_peer[114]  lookupTimeSig:vector  ETV
vector 1560460  Network.dyn_peer[136]  lookupHopsSig:vector  ETV
vector 1560461  Network.dyn_peer[136]  lookupStabilitySig:vector  ETV
vector 1560462  Network.dyn_peer[136]  lookupTimeSig:vector  ETV
vector 1560553  Network.dyn_peer[167]  lookupHopsSig:vector  ETV
vector 1560554  Network.dyn_peer[167]  lookupStabilitySig:vector  ETV
vector 1560555  Network.dyn_peer[167]  lookupTimeSig:vector  ETV
vector 1560226  Network.dyn_peer[58]  lookupHopsSig:vector  ETV
vector 1560227  Network.dyn_peer[58]  lookupStabilitySig:vector  ETV
vector 1560228  Network.dyn_peer[58]  lookupTimeSig:vector  ETV
vector 1560649  Network.dyn_peer[199]  lookupHopsSig:vector  ETV
vector 1560650  Network.dyn_peer[199]  lookupStabilitySig:vector  ETV
vector 1560651  Network.dyn_peer[199]  lookupTimeSig:vector  ETV
vector 1560202  Network.dyn_peer[50]  lookupHopsSig:vector  ETV
vector 1560203  Network.dyn_peer[50]  lookupStabilitySig:vector  ETV
vector 1560204  Network.dyn_peer[50]  lookupTimeSig:vector  ETV
vector 1560217  Network.dyn_peer[55]  lookupHopsSig:vector  ETV
vector 1560218  Network.dyn_peer[55]  lookupStabilitySig:vector  ETV
vector 1560219  Network.dyn_peer[55]  lookupTimeSig:vector  ETV
vector 1560280  Network.dyn_peer[76]  lookupHopsSig:vector  ETV
vector 1560281  Network.dyn_peer[76]  lookupStabilitySig:vector  ETV
vector 1560282  Network.dyn_peer[76]  lookupTimeSig:vector  ETV
vector 1560436  Network.dyn_peer[128]  lookupHopsSig:vector  ETV
vector 1560437  Network.dyn_peer[128]  lookupStabilitySig:vector  ETV
vector 1560438  Network.dyn_peer[128]  lookupTimeSig:vector  ETV
vector 1560535  Network.dyn_peer[161]  lookupHopsSig:vector  ETV
vector 1560536  Network.dyn_peer[161]  lookupStabilitySig:vector  ETV
vector 1560537  Network.dyn_peer[161]  lookupTimeSig:vector  ETV
vector 1560655  Network.dyn_peer[201]  lookupHopsSig:vector  ETV
vector 1560656  Network.dyn_peer[201]  lookupStabilitySig:vector  ETV
vector 1560657  Network.dyn_peer[201]  lookupTimeSig:vector  ETV
vector 1560187  Network.dyn_peer[45]  lookupHopsSig:vector  ETV
vector 1560188  Network.dyn_peer[45]  lookupStabilitySig:vector  ETV
vector 1560189  Network.dyn_peer[45]  lookupTimeSig:vector  ETV
vector 1560310  Network.dyn_peer[86]  lookupHopsSig:vector  ETV
vector 1560311  Network.dyn_peer[86]  lookupStabilitySig:vector  ETV
vector 1560312  Network.dyn_peer[86]  lookupTimeSig:vector  ETV
vector 1560403  Network.dyn_peer[117]  lookupHopsSig:vector  ETV
vector 1560404  Network.dyn_peer[117]  lookupStabilitySig:vector  ETV
vector 1560405  Network.dyn_peer[117]  lookupTimeSig:vector  ETV
vector 1560433  Network.dyn_peer[127]  lookupHopsSig:vector  ETV
vector 1560434  Network.dyn_peer[127]  lookupStabilitySig:vector  ETV
vector 1560435  Network.dyn_peer[127]  lookupTimeSig:vector  ETV
vector 1560256  Network.dyn_peer[68]  lookupHopsSig:vector  ETV
vector 1560257  Network.dyn_peer[68]  lookupStabilitySig:vector  ETV
vector 1560258  Network.dyn_peer[68]  lookupTimeSig:vector  ETV
vector 1560235  Network.dyn_peer[61]  lookupHopsSig:vector  ETV
vector 1560236  Network.dyn_peer[61]  lookupStabilitySig:vector  ETV
vector 1560237  Network.dyn_peer[61]  lookupTimeSig:vector  ETV
vector 1560625  Network.dyn_peer[191]  lookupHopsSig:vector  ETV
vector 1560626  Network.dyn_peer[191]  lookupStabilitySig:vector  ETV
vector 1560627  Network.dyn_peer[191]  lookupTimeSig:vector  ETV