file 6052997 1369933132                                         
version 2
run Stability2-91-20130528-01:48:02-24168
attr configname Stability2
attr datetime 20130528-01:48:02
attr experiment Stability2
attr inifile omnetpp.ini
attr iterationvars $0=500
attr iterationvars2 "$0=500, $repetition=1"
attr measurement $0=500
attr network Network
attr processid 24168
attr repetition 1
attr replication #1
attr resultdir results
attr runnumber 91
attr seedset 91
vector 2760091  Network.churner  inGoingSizeSig:vector  ETV
2760091	5927270 125727 11 930980 20 70 5001 0 2268 6492461 10387085921
vector 2730097  Network.dyn_peer[2]  lookupHopsSig:vector  ETV
2730097	1015541 438 55 289601 20.13 46.000385602663 14 1 57 214 7328
vector 2730098  Network.dyn_peer[2]  lookupStabilitySig:vector  ETV
2730098	1015979 640 55 289601 20.13 46.000385602663 14 0.39999997615814 0.99182004109025 11.964567828923 10.612354164094
vector 2730099  Network.dyn_peer[2]  lookupTimeSig:vector  ETV
2730099	1016619 458 55 289601 20.13 46.000385602663 14 0.1 5.8 22.7 77.67
vector 2730100  Network.dyn_peer[3]  lookupHopsSig:vector  ETV
2730100	1017077 334 64 128839 20.14 36.50171316576 11 1 51 139 4229
vector 2730101  Network.dyn_peer[3]  lookupStabilitySig:vector  ETV
2730101	1017411 496 64 128839 20.14 36.50171316576 11 0.59999999403954 0.99156118184328 9.0820493819192 7.6806082968079
vector 2730102  Network.dyn_peer[3]  lookupTimeSig:vector  ETV
2730102	1017907 351 64 128839 20.14 36.50171316576 11 0.1 5.2 14.9 45.15
vector 2730130  Network.dyn_peer[13]  lookupHopsSig:vector  ETV
2730130	1033519 630 70 460307 20.14 53.639410682267 20 0 27 276 5628
vector 2730131  Network.dyn_peer[13]  lookupStabilitySig:vector  ETV
2730131	1034149 898 70 460307 20.14 53.639410682267 20 0.64285713434219 1 18.410655448679 17.144528812893
vector 2730132  Network.dyn_peer[13]  lookupTimeSig:vector  ETV
2730132	1035047 650 70 460307 20.14 53.639410682267 20 0 2.8 29.5 61.99
vector 2730103  Network.dyn_peer[4]  lookupHopsSig:vector  ETV
2730103	1018258 561 77 1241233 20.15 80.786171506902 18 1 58 375 14749
vector 2730104  Network.dyn_peer[4]  lookupStabilitySig:vector  ETV
2730104	1018819 809 77 1241233 20.15 80.786171506902 18 0.5714285671711 0.98666666634381 15.98611538671 14.429734693017
vector 2730105  Network.dyn_peer[4]  lookupTimeSig:vector  ETV
2730105	1019628 583 77 1241233 20.15 80.786171506902 18 0.1 5.9 39.2 155.14
vector 2730133  Network.dyn_peer[14]  lookupHopsSig:vector  ETV
2730133	1035697 299 83 818373 20.15 66.472005071104 10 0 60 172 6874
vector 2730134  Network.dyn_peer[14]  lookupStabilitySig:vector  ETV
2730134	1035996 428 83 818373 20.15 66.472005071104 10 0.39999997615814 1 8.3033053623512 7.24891392019
vector 2730135  Network.dyn_peer[14]  lookupTimeSig:vector  ETV
2730135	1036424 310 83 818373 20.15 66.472005071104 10 0 6.1 18.1 72.27
vector 2730109  Network.dyn_peer[6]  lookupHopsSig:vector  ETV
2730109	1021395 568 93 1255872 20.17 81.416013525557 18 1 93 468 22522
vector 2730110  Network.dyn_peer[6]  lookupStabilitySig:vector  ETV
2730110	1021963 811 93 1255872 20.17 81.416013525557 18 0.5 0.99065420590341 16.079219420441 14.660335397796
vector 2730111  Network.dyn_peer[6]  lookupTimeSig:vector  ETV
2730111	1022774 587 93 1255872 20.17 81.416013525557 18 0.1 9.4 48.5 234.73
vector 2730112  Network.dyn_peer[7]  lookupHopsSig:vector  ETV
2730112	1023361 601 101 1295249 20.18 83.226988492153 19 1 137 490 31938
vector 2730113  Network.dyn_peer[7]  lookupStabilitySig:vector  ETV
2730113	1023962 874 101 1295249 20.18 83.226988492153 19 0.59523808956146 0.99285445641726 17.073184419423 15.666326271025
vector 2730114  Network.dyn_peer[7]  lookupTimeSig:vector  ETV
2730114	1024836 622 101 1295249 20.18 83.226988492153 19 0.1 13.8 50.8 329.34
vector 2730094  Network.dyn_peer[1]  lookupHopsSig:vector  ETV
2730094	1013549 571 123 1168500 20.22 77.909488442264 18 2 87 410 19460
vector 2730095  Network.dyn_peer[1]  lookupStabilitySig:vector  ETV
2730095	1014120 829 123 1168500 20.22 77.909488442264 18 0.38461536169052 0.99768625642173 16.170077964431 14.985542034658
vector 2730096  Network.dyn_peer[1]  lookupTimeSig:vector  ETV
2730096	1014949 592 123 1168500 20.22 77.909488442264 18 0.2 8.8 42.7 202.93
vector 2730157  Network.dyn_peer[22]  lookupHopsSig:vector  ETV
2730157	1048524 377 133 1211077 20.23 79.54984267789 12 0 83 364 17454
vector 2730158  Network.dyn_peer[22]  lookupStabilitySig:vector  ETV
2730158	1048901 533 133 1211077 20.23 79.54984267789 12 0.42857140302658 1 10.77945077233 10.005645758338
vector 2730159  Network.dyn_peer[22]  lookupTimeSig:vector  ETV
2730159	1049434 388 133 1211077 20.23 79.54984267789 12 0 8.4 37.5 181.93
vector 2730160  Network.dyn_peer[23]  lookupHopsSig:vector  ETV
2730160	1049822 579 142 1452505 20.24 93.723838401642 18 0 71 403 16545
vector 2730161  Network.dyn_peer[23]  lookupStabilitySig:vector  ETV
2730161	1050401 822 142 1452505 20.24 93.723838401642 18 0.19999998807907 1 16.117355308961 15.016239116206
vector 2730162  Network.dyn_peer[23]  lookupTimeSig:vector  ETV
2730162	1051223 598 142 1452505 20.24 93.723838401642 18 0 7.2 42 173.68
vector 2730115  Network.dyn_peer[8]  lookupHopsSig:vector  ETV
2730115	1025458 503 172 969774 20.29 71.206741299758 16 2 66 391 16457
vector 2730116  Network.dyn_peer[8]  lookupStabilitySig:vector  ETV
2730116	1025961 727 172 969774 20.29 71.206741299758 16 0.44444441795349 0.99396454170346 14.012917992659 12.613325682024
vector 2730117  Network.dyn_peer[8]  lookupTimeSig:vector  ETV
2730117	1026688 518 172 969774 20.29 71.206741299758 16 0.2 6.7 40.6 172.5
vector 2730118  Network.dyn_peer[9]  lookupHopsSig:vector  ETV
2730118	1027206 533 181 784049 20.3 65.353304423615 17 2 108 365 18187
vector 2730119  Network.dyn_peer[9]  lookupStabilitySig:vector  ETV
2730119	1027739 775 181 784049 20.3 65.353304423615 17 0.44444441795349 0.99576014559716 14.880176518578 13.4421384389
vector 2730120  Network.dyn_peer[9]  lookupTimeSig:vector  ETV
2730120	1028514 554 181 784049 20.3 65.353304423615 17 0.2 10.9 38.1 189.29
vector 2730148  Network.dyn_peer[19]  lookupHopsSig:vector  ETV
2730148	1043834 404 185 1330175 20.3 85.018951170098 13 1 126 393 28397
vector 2730149  Network.dyn_peer[19]  lookupStabilitySig:vector  ETV
2730149	1044238 590 185 1330175 20.3 85.018951170098 13 0.55555555224419 0.99217118974775 11.482682402246 10.348334625395
vector 2730150  Network.dyn_peer[19]  lookupTimeSig:vector  ETV
2730150	1044828 419 185 1330175 20.3 85.018951170098 13 0.1 12.7 40.5 291.93
vector 2730091  Network.dyn_peer[0]  lookupHopsSig:vector  ETV
2730091	1012125 407 197 310804 20.31 47.062883539152 13 1 61 167 5063
vector 2730092  Network.dyn_peer[0]  lookupStabilitySig:vector  ETV
2730092	1012532 594 197 310804 20.31 47.062883539152 13 0.39999997615814 0.98896247241646 11.252415643074 10.090460719276
vector 2730093  Network.dyn_peer[0]  lookupTimeSig:vector  ETV
2730093	1013126 423 197 310804 20.31 47.062883539152 13 0.2 6.2 17.9 54.03
vector 2730121  Network.dyn_peer[10]  lookupHopsSig:vector  ETV
2730121	1029068 405 201 685096 20.31 62.030936247894 13 2 75 351 16269
vector 2730122  Network.dyn_peer[10]  lookupStabilitySig:vector  ETV
2730122	1029473 588 201 685096 20.31 62.030936247894 13 0.46153843402863 0.97745454497635 11.077408598736 9.7820784703651
vector 2730123  Network.dyn_peer[10]  lookupTimeSig:vector  ETV
2730123	1030061 419 201 685096 20.31 62.030936247894 13 0.2 7.6 36.3 169.79
vector 2730163  Network.dyn_peer[24]  lookupHopsSig:vector  ETV
2730163	1051821 527 237 1329251 20.35 84.969531691063 17 1 163 523 46315
vector 2730164  Network.dyn_peer[24]  lookupStabilitySig:vector  ETV
2730164	1052348 769 237 1329251 20.35 84.969531691063 17 0.78260870277882 0.98942198697478 15.553273613565 14.317935647932
vector 2730165  Network.dyn_peer[24]  lookupTimeSig:vector  ETV
2730165	1053117 552 237 1329251 20.35 84.969531691063 17 0.1 16.4 53.9 473.75
vector 2730106  Network.dyn_peer[5]  lookupHopsSig:vector  ETV
2730106	1020211 339 248 385815 20.36 50.539762641009 11 3 50 258 8240
vector 2730107  Network.dyn_peer[5]  lookupStabilitySig:vector  ETV
2730107	1020550 495 248 385815 20.36 50.539762641009 11 0.39999997615814 0.96914445981383 9.1733297295868 8.0346132406732
vector 2730108  Network.dyn_peer[5]  lookupTimeSig:vector  ETV
2730108	1021045 350 248 385815 20.36 50.539762641009 11 0.3 5.1 26.8 87.6
vector 2730142  Network.dyn_peer[17]  lookupHopsSig:vector  ETV
2730142	1040053 545 266 1362642 20.38 86.870954275257 17 2 78 480 20708
vector 2730143  Network.dyn_peer[17]  lookupStabilitySig:vector  ETV
2730143	1040598 785 266 1362642 20.38 86.870954275257 17 0.53846153616905 0.99460674170405 15.197441137861 13.972068157315
vector 2730144  Network.dyn_peer[17]  lookupTimeSig:vector  ETV
2730144	1041383 563 266 1362642 20.38 86.870954275257 17 0.2 7.9 49.6 216.8
vector 2730145  Network.dyn_peer[18]  lookupHopsSig:vector  ETV
2730145	1041946 544 277 1013515 20.39 72.592829404179 17 2 46 399 12165
vector 2730146  Network.dyn_peer[18]  lookupStabilitySig:vector  ETV
2730146	1042490 781 277 1013515 20.39 72.592829404179 17 0.38461536169052 0.9983633387601 15.273586639087 14.161907717321
vector 2730147  Network.dyn_peer[18]  lookupTimeSig:vector  ETV
2730147	1043271 563 277 1013515 20.39 72.592829404179 17 0.2 4.7 41.5 129.75
vector 2730151  Network.dyn_peer[20]  lookupHopsSig:vector  ETV
2730151	1045247 299 295 1031316 20.41 73.169310560293 10 2 44 140 3756
vector 2730152  Network.dyn_peer[20]  lookupStabilitySig:vector  ETV
2730152	1045546 433 295 1031316 20.41 73.169310560293 10 0.55000001192093 0.98817966878414 8.2516702860594 7.1126638653022
vector 2730153  Network.dyn_peer[20]  lookupTimeSig:vector  ETV
2730153	1045979 313 295 1031316 20.41 73.169310560293 10 0.2 4.5 14.9 40.41
vector 2730154  Network.dyn_peer[21]  lookupHopsSig:vector  ETV
2730154	1046292 640 307 668466 20.42 61.455817109291 20 2 47 311 8753
vector 2730155  Network.dyn_peer[21]  lookupStabilitySig:vector  ETV
2730155	1046932 924 307 668466 20.42 61.455817109291 20 0.5714285671711 0.99822485202458 18.29711412813 17.018772347711
vector 2730156  Network.dyn_peer[21]  lookupTimeSig:vector  ETV
2730156	1047856 668 307 668466 20.42 61.455817109291 20 0.2 4.8 33 93.9
vector 2730187  Network.dyn_peer[32]  lookupHopsSig:vector  ETV
2730187	1064306 470 318 542340 20.43 56.849914455221 15 1 53 249 6887
vector 2730188  Network.dyn_peer[32]  lookupStabilitySig:vector  ETV
2730188	1064776 685 318 542340 20.43 56.849914455221 15 0.34615385532379 0.99476439785212 13.558713864535 12.647388873139
vector 2730189  Network.dyn_peer[32]  lookupTimeSig:vector  ETV
2730189	1065461 490 318 542340 20.43 56.849914455221 15 0.1 5.4 26.3 73.97
vector 2730190  Network.dyn_peer[33]  lookupHopsSig:vector  ETV
2730190	1065951 446 327 456994 20.44 53.503980669034 14 1 54 279 9737
vector 2730191  Network.dyn_peer[33]  lookupStabilitySig:vector  ETV
2730191	1066397 625 327 456994 20.44 53.503980669034 14 0.625 0.98420615121722 12.564408874139 11.42579465252
vector 2730192  Network.dyn_peer[33]  lookupTimeSig:vector  ETV
2730192	1067022 460 327 456994 20.44 53.503980669034 14 0.1 5.5 29.2 103.06
vector 2730166  Network.dyn_peer[25]  lookupHopsSig:vector  ETV
2730166	1053669 433 353 540176 20.46 56.765672073467 14 2 92 271 12613
vector 2730167  Network.dyn_peer[25]  lookupStabilitySig:vector  ETV
2730167	1054102 634 353 540176 20.46 56.765672073467 14 0.59999999403954 0.98786039464176 12.334765048698 11.115873869437
vector 2730168  Network.dyn_peer[25]  lookupTimeSig:vector  ETV
2730168	1054736 454 353 540176 20.46 56.765672073467 14 0.2 9.3 28.4 131.64
vector 2730139  Network.dyn_peer[16]  lookupHopsSig:vector  ETV
2730139	1039094 276 363 93919 20.47 33.837090500437 9 3 34 107 2397
vector 2730140  Network.dyn_peer[16]  lookupStabilitySig:vector  ETV
2730140	1039370 393 363 93919 20.47 33.837090500437 9 0.39999997615814 0.98571428563446 7.3913445835933 6.3848115658781
vector 2730141  Network.dyn_peer[16]  lookupTimeSig:vector  ETV
2730141	1039763 290 363 93919 20.47 33.837090500437 9 0.3 3.5 11.5 26.13
vector 2730175  Network.dyn_peer[28]  lookupHopsSig:vector  ETV
2730175	1057016 469 386 991053 20.49 71.875619194097 15 2 62 297 9899
vector 2730176  Network.dyn_peer[28]  lookupStabilitySig:vector  ETV
2730176	1057485 683 386 991053 20.49 71.875619194097 15 0.59999999403954 0.99349710997194 13.338562740013 12.095669459992
vector 2730177  Network.dyn_peer[28]  lookupTimeSig:vector  ETV
2730177	1058168 484 386 991053 20.49 71.875619194097 15 0.2 6.3 31.1 105.03
vector 2730241  Network.dyn_peer[50]  lookupHopsSig:vector  ETV
2730241	1092653 373 408 919775 20.51 69.659572610286 12 0 51 245 7201
vector 2730242  Network.dyn_peer[50]  lookupStabilitySig:vector  ETV
2730242	1093026 511 408 919775 20.51 69.659572610286 12 0.5 1 10.968797894195 10.230031622587
vector 2730243  Network.dyn_peer[50]  lookupTimeSig:vector  ETV
2730243	1093537 383 408 919775 20.51 69.659572610286 12 0 5.2 25.6 77.02
vector 2730124  Network.dyn_peer[11]  lookupHopsSig:vector  ETV
2730124	1030480 537 419 1170528 20.52 77.982894992931 17 3 67 373 12613
vector 2730125  Network.dyn_peer[11]  lookupStabilitySig:vector  ETV
2730125	1031017 779 419 1170528 20.52 77.982894992931 17 0.19999998807907 0.99146341439337 14.870762645267 13.6433492945
vector 2730126  Network.dyn_peer[11]  lookupTimeSig:vector  ETV
2730126	1031796 559 419 1170528 20.52 77.982894992931 17 0.4 6.8 38.9 133.67
vector 2730184  Network.dyn_peer[31]  lookupHopsSig:vector  ETV
2730184	1062437 540 423 823682 20.52 66.644782200377 17 2 71 407 14759
vector 2730185  Network.dyn_peer[31]  lookupStabilitySig:vector  ETV
2730185	1062977 770 423 823682 20.52 66.644782200377 17 0.59999999403954 0.99084759224206 15.303272699006 14.020352731721
vector 2730186  Network.dyn_peer[31]  lookupTimeSig:vector  ETV
2730186	1063747 559 423 823682 20.52 66.644782200377 17 0.2 7.2 42.3 155.85
vector 2730136  Network.dyn_peer[15]  lookupHopsSig:vector  ETV
2730136	1036734 679 471 1341541 20.56 85.646547482178 21 2 77 518 22230
vector 2730137  Network.dyn_peer[15]  lookupStabilitySig:vector  ETV
2730137	1037413 976 471 1341541 20.56 85.646547482178 21 0.19999998807907 0.99550898186862 19.043677498586 17.966712526946
vector 2730138  Network.dyn_peer[15]  lookupTimeSig:vector  ETV
2730138	1038389 705 471 1341541 20.56 85.646547482178 21 0.3 7.8 53.8 232.78
vector 2730229  Network.dyn_peer[46]  lookupHopsSig:vector  ETV
2730229	1085077 409 481 1256643 20.57 81.45040535976 13 1 57 346 14162
vector 2730230  Network.dyn_peer[46]  lookupStabilitySig:vector  ETV
2730230	1085486 595 481 1256643 20.57 81.45040535976 13 0.61111110448837 0.99435778288171 11.589226880576 10.503579511132
vector 2730231  Network.dyn_peer[46]  lookupTimeSig:vector  ETV
2730231	1086081 426 481 1256643 20.57 81.45040535976 13 0.1 5.8 35.8 148.64
vector 2730214  Network.dyn_peer[41]  lookupHopsSig:vector  ETV
2730214	1077273 552 530 1298729 20.62 83.395905831035 17 1 49 357 10775
vector 2730215  Network.dyn_peer[41]  lookupStabilitySig:vector  ETV
2730215	1077825 794 530 1298729 20.62 83.395905831035 17 0.5714285671711 0.99295323528349 15.521727195941 14.444998406425
vector 2730216  Network.dyn_peer[41]  lookupTimeSig:vector  ETV
2730216	1078619 570 530 1298729 20.62 83.395905831035 17 0.2 5 37.3 115.01
vector 2730127  Network.dyn_peer[12]  lookupHopsSig:vector  ETV
2730127	1032355 340 545 226762 20.63 42.648439104372 11 5 34 168 3400
vector 2730128  Network.dyn_peer[12]  lookupStabilitySig:vector  ETV
2730128	1032695 470 545 226762 20.63 42.648439104372 11 0 0.98820059001446 8.9973511043936 8.3229146901143
vector 2730129  Network.dyn_peer[12]  lookupTimeSig:vector  ETV
2730129	1033165 354 545 226762 20.63 42.648439104372 11 0.5 3.5 17.8 37.36
vector 2730217  Network.dyn_peer[42]  lookupHopsSig:vector  ETV
2730217	1079189 375 549 1235789 20.63 80.557301783734 12 1 59 327 14201
vector 2730218  Network.dyn_peer[42]  lookupStabilitySig:vector  ETV
2730218	1079564 546 549 1235789 20.63 80.557301783734 12 0.59999999403954 0.99524332256988 11.021977305878 10.251502023856
vector 2730219  Network.dyn_peer[42]  lookupTimeSig:vector  ETV
2730219	1080110 387 549 1235789 20.63 80.557301783734 12 0.2 6 33.8 148.62
vector 2730247  Network.dyn_peer[52]  lookupHopsSig:vector  ETV
2730247	1096046 409 553 1092353 20.63 75.195876496286 13 1 38 232 5750
vector 2730248  Network.dyn_peer[52]  lookupStabilitySig:vector  ETV
2730248	1096455 593 553 1092353 20.63 75.195876496286 13 0.61111110448837 0.99519586097449 11.878864885308 11.005127058415
vector 2730249  Network.dyn_peer[52]  lookupTimeSig:vector  ETV
2730249	1097048 422 553 1092353 20.63 75.195876496286 13 0.1 3.9 24.4 62.24
vector 2730250  Network.dyn_peer[53]  lookupHopsSig:vector  ETV
2730250	1097470 366 563 430377 20.64 52.419664645546 12 1 53 172 5642
vector 2730251  Network.dyn_peer[53]  lookupStabilitySig:vector  ETV
2730251	1097836 541 563 430377 20.64 52.419664645546 12 0.66666665673256 0.99265785608441 10.730895092711 9.744970743602
vector 2730252  Network.dyn_peer[53]  lookupTimeSig:vector  ETV
2730252	1098377 384 563 430377 20.64 52.419664645546 12 0.1 5.4 18.3 59.95
vector 2730226  Network.dyn_peer[45]  lookupHopsSig:vector  ETV
2730226	1083792 367 591 282584 20.66 45.641470664 12 2 46 210 6006
vector 2730227  Network.dyn_peer[45]  lookupStabilitySig:vector  ETV
2730227	1084159 537 591 282584 20.66 45.641470664 12 0.59999999403954 0.98357064649463 10.476254107431 9.3564505492716
vector 2730228  Network.dyn_peer[45]  lookupTimeSig:vector  ETV
2730228	1084696 381 591 282584 20.66 45.641470664 12 0.2 4.7 22.1 64.33
vector 2730265  Network.dyn_peer[58]  lookupHopsSig:vector  ETV
2730265	1107212 614 623 1376475 20.69 87.732899726966 19 1 116 596 33784
vector 2730266  Network.dyn_peer[58]  lookupStabilitySig:vector  ETV
2730266	1107826 864 623 1376475 20.69 87.732899726966 19 0.5 0.9914977112785 17.564003920183 16.484844539948
vector 2730267  Network.dyn_peer[58]  lookupTimeSig:vector  ETV
2730267	1108690 634 623 1376475 20.69 87.732899726966 19 0.1 11.7 61.4 349.92
vector 2730193  Network.dyn_peer[34]  lookupHopsSig:vector  ETV
2730193	1067482 373 692 551718 20.75 57.203641970148 12 1 77 262 10688
vector 2730194  Network.dyn_peer[34]  lookupStabilitySig:vector  ETV
2730194	1067855 535 692 551718 20.75 57.203641970148 12 0.33333331346512 0.99074074067175 10.443708814681 9.5278891198869
vector 2730195  Network.dyn_peer[34]  lookupTimeSig:vector  ETV
2730195	1068390 389 692 551718 20.75 57.203641970148 12 0.2 7.8 27.3 112.15
vector 2730223  Network.dyn_peer[44]  lookupHopsSig:vector  ETV
2730223	1082276 437 696 464652 20.75 53.813448347476 14 1 35 247 6347
vector 2730224  Network.dyn_peer[44]  lookupStabilitySig:vector  ETV
2730224	1082713 625 696 464652 20.75 53.813448347476 14 0.5 0.99770114943385 12.367322331294 11.166094097484
vector 2730225  Network.dyn_peer[44]  lookupTimeSig:vector  ETV
2730225	1083338 454 696 464652 20.75 53.813448347476 14 0.2 3.6 26 68.48
vector 2730283  Network.dyn_peer[64]  lookupHopsSig:vector  ETV
2730283	1118550 368 700 635261 20.75 60.281733166504 12 1 56 215 7425
vector 2730284  Network.dyn_peer[64]  lookupStabilitySig:vector  ETV
2730284	1118918 541 700 635261 20.75 60.281733166504 12 0.57894736528397 0.98655462171882 10.808792990632 9.874554989724
vector 2730285  Network.dyn_peer[64]  lookupTimeSig:vector  ETV
2730285	1119459 385 700 635261 20.75 60.281733166504 12 0.1 5.7 22.6 78.64
vector 2730178  Network.dyn_peer[29]  lookupHopsSig:vector  ETV
2730178	1058652 510 772 983212 20.8 71.628447246623 16 3 68 381 13857
vector 2730179  Network.dyn_peer[29]  lookupStabilitySig:vector  ETV
2730179	1059162 735 772 983212 20.8 71.628447246623 16 0.28571426868439 0.99537620833144 14.306678388733 13.301270537066
vector 2730180  Network.dyn_peer[29]  lookupTimeSig:vector  ETV
2730180	1059897 528 772 983212 20.8 71.628447246623 16 0.4 6.9 39.6 146.24
vector 2730310  Network.dyn_peer[73]  lookupHopsSig:vector  ETV
2730310	1134098 634 828 1013133 20.84 72.580897019732 20 1 51 365 10781
vector 2730311  Network.dyn_peer[73]  lookupStabilitySig:vector  ETV
2730311	1134732 899 828 1013133 20.84 72.580897019732 20 0.66666665673256 0.99227642267942 18.758685787208 17.709791119502
vector 2730312  Network.dyn_peer[73]  lookupTimeSig:vector  ETV
2730312	1135631 653 828 1013133 20.84 72.580897019732 20 0.1 5.2 38.4 115.28
vector 2730169  Network.dyn_peer[26]  lookupHopsSig:vector  ETV
2730169	1055190 250 871 693120 20.87 62.307280352802 8 5 48 189 6375
vector 2730170  Network.dyn_peer[26]  lookupStabilitySig:vector  ETV
2730170	1055440 359 871 693120 20.87 62.307280352802 8 0.33333331346512 0.97823129221797 6.4142248164862 5.4674728781301
vector 2730171  Network.dyn_peer[26]  lookupTimeSig:vector  ETV
2730171	1055799 258 871 693120 20.87 62.307280352802 8 0.6 4.9 19.6 67.48
vector 2730199  Network.dyn_peer[36]  lookupHopsSig:vector  ETV
2730199	1070313 470 875 537065 20.87 56.647574436116 15 3 62 252 7880
vector 2730200  Network.dyn_peer[36]  lookupStabilitySig:vector  ETV
2730200	1070783 685 875 537065 20.87 56.647574436116 15 0.44444441795349 0.99048185627908 13.607349173166 12.650397777157
vector 2730201  Network.dyn_peer[36]  lookupTimeSig:vector  ETV
2730201	1071468 490 875 537065 20.87 56.647574436116 15 0.4 6.3 26.6 83.88
vector 2730208  Network.dyn_peer[39]  lookupHopsSig:vector  ETV
2730208	1074791 405 921 949226 20.9 70.56168888511 13 5 113 389 24457
vector 2730209  Network.dyn_peer[39]  lookupStabilitySig:vector  ETV
2730209	1075196 586 921 949226 20.9 70.56168888511 13 0.44444441795349 0.99175446666777 11.373569824733 10.245076492778
vector 2730210  Network.dyn_peer[39]  lookupTimeSig:vector  ETV
2730210	1075782 419 921 949226 20.9 70.56168888511 13 0.5 11.4 40.1 252.37
vector 2730313  Network.dyn_peer[74]  lookupHopsSig:vector  ETV
2730313	1136284 514 985 1134911 20.95 76.684561522713 16 2 79 463 21581
vector 2730314  Network.dyn_peer[74]  lookupStabilitySig:vector  ETV
2730314	1136798 736 985 1134911 20.95 76.684561522713 16 0.5714285671711 0.99532205844298 14.851073117461 13.961640316261
vector 2730315  Network.dyn_peer[74]  lookupTimeSig:vector  ETV
2730315	1137534 530 985 1134911 20.95 76.684561522713 16 0.2 8 47.8 225.18
vector 2730196  Network.dyn_peer[35]  lookupHopsSig:vector  ETV
2730196	1068779 437 1006 1042514 20.96 73.531565023287 14 3 72 252 9622
vector 2730197  Network.dyn_peer[35]  lookupStabilitySig:vector  ETV
2730197	1069216 639 1006 1042514 20.96 73.531565023287 14 0.39999997615814 0.99628942483105 12.440288068959 11.400900134198
vector 2730198  Network.dyn_peer[35]  lookupTimeSig:vector  ETV
2730198	1069855 458 1006 1042514 20.96 73.531565023287 14 0.4 7.3 26.5 101.27
vector 2730172  Network.dyn_peer[27]  lookupHopsSig:vector  ETV
2730172	1056057 273 1035 392497 20.98 50.827506570277 9 3 30 121 2397
vector 2730173  Network.dyn_peer[27]  lookupStabilitySig:vector  ETV
2730173	1056330 401 1035 392497 20.98 50.827506570277 9 0.30000001192093 0.9935760172084 7.6174502559006 6.8555839801213
vector 2730174  Network.dyn_peer[27]  lookupTimeSig:vector  ETV
2730174	1056731 285 1035 392497 20.98 50.827506570277 9 0.4 3.1 12.9 26.33
vector 2730205  Network.dyn_peer[38]  lookupHopsSig:vector  ETV
2730205	1073377 405 1050 568694 20.99 57.844269346034 13 2 82 331 15037
vector 2730206  Network.dyn_peer[38]  lookupStabilitySig:vector  ETV
2730206	1073782 590 1050 568694 20.99 57.844269346034 13 0.39999997615814 0.9943005181849 11.417140901089 10.342252718267
vector 2730207  Network.dyn_peer[38]  lookupTimeSig:vector  ETV
2730207	1074372 419 1050 568694 20.99 57.844269346034 13 0.3 8.3 34.3 156.99
vector 2730268  Network.dyn_peer[59]  lookupHopsSig:vector  ETV
2730268	1109324 1025 1068 1551405 21 121.795970871333 31 2 98 876 42256
vector 2730269  Network.dyn_peer[59]  lookupStabilitySig:vector  ETV
2730269	1110349 1463 1068 1551405 21 121.795970871333 31 0.59999999403954 0.99812265334185 29.467905337107 28.218021331347
vector 2730270  Network.dyn_peer[59]  lookupTimeSig:vector  ETV
2730270	1111812 1061 1068 1551405 21 121.795970871333 31 0.3 9.9 90.6 440.3
vector 2730304  Network.dyn_peer[71]  lookupHopsSig:vector  ETV
2730304	1130340 709 1099 1104176 21.02 75.605200213823 22 3 70 421 13173
vector 2730305  Network.dyn_peer[71]  lookupStabilitySig:vector  ETV
2730305	1131049 1022 1099 1104176 21.02 75.605200213823 22 0.69999998807907 0.99402628419921 20.589418320917 19.42874302229
vector 2730306  Network.dyn_peer[71]  lookupTimeSig:vector  ETV
2730306	1132071 732 1099 1104176 21.02 75.605200213823 22 0.3 7.1 44.2 140.3
vector 2730292  Network.dyn_peer[67]  lookupHopsSig:vector  ETV
2730292	1122671 373 1193 332622 21.08 48.112396662295 12 1 54 188 6960
vector 2730293  Network.dyn_peer[67]  lookupStabilitySig:vector  ETV
2730293	1123044 545 1193 332622 21.08 48.112396662295 12 0.69230768084526 0.96330275386572 10.806048173457 9.7924996860643
vector 2730294  Network.dyn_peer[67]  lookupTimeSig:vector  ETV
2730294	1123589 392 1193 332622 21.08 48.112396662295 12 0.2 5.5 19.9 73.39
vector 2730295  Network.dyn_peer[68]  lookupHopsSig:vector  ETV
2730295	1123981 477 1212 692763 21.09 62.293875661153 15 3 49 367 12373
vector 2730296  Network.dyn_peer[68]  lookupStabilitySig:vector  ETV
2730296	1124458 684 1212 692763 21.09 62.293875661153 15 0.65079364180565 0.99801849410869 13.852585369954 12.948055926018
vector 2730297  Network.dyn_peer[68]  lookupTimeSig:vector  ETV
2730297	1125142 490 1212 692763 21.09 62.293875661153 15 0.4 5 38.1 131.13
vector 2730328  Network.dyn_peer[79]  lookupHopsSig:vector  ETV
2730328	1146281 438 1231 724609 21.1 63.37730066934 14 3 59 280 9694
vector 2730329  Network.dyn_peer[79]  lookupStabilitySig:vector  ETV
2730329	1146719 637 1231 724609 21.1 63.37730066934 14 0.73913043737411 0.99430523905903 12.876455441117 11.953085471563
vector 2730330  Network.dyn_peer[79]  lookupTimeSig:vector  ETV
2730330	1147356 451 1231 724609 21.1 63.37730066934 14 0.3 6 29.3 102.61
vector 2730301  Network.dyn_peer[70]  lookupHopsSig:vector  ETV
2730301	1128681 478 1251 926146 21.11 69.851642945858 15 4 56 337 10393
vector 2730302  Network.dyn_peer[70]  lookupStabilitySig:vector  ETV
2730302	1129159 688 1251 926146 21.11 69.851642945858 15 0.66666665673256 0.99606077652425 13.888308712281 13.021233907122
vector 2730303  Network.dyn_peer[70]  lookupTimeSig:vector  ETV
2730303	1129847 493 1251 926146 21.11 69.851642945858 15 0.4 5.7 35.1 110.73
vector 2730256  Network.dyn_peer[55]  lookupHopsSig:vector  ETV
2730256	1100507 782 1333 1478519 21.16 96.597479897619 24 2 73 583 23073
vector 2730257  Network.dyn_peer[55]  lookupStabilitySig:vector  ETV
2730257	1101289 1112 1333 1478519 21.16 96.597479897619 24 0.625 0.99826086952817 22.632624069112 21.511208543929
vector 2730258  Network.dyn_peer[55]  lookupTimeSig:vector  ETV
2730258	1102401 808 1333 1478519 21.16 96.597479897619 24 0.3 7.4 60.6 242.5
vector 2730379  Network.dyn_peer[96]  lookupHopsSig:vector  ETV
2730379	1178189 511 1353 1228665 21.17 80.26030804662 16 2 123 541 34351
vector 2730380  Network.dyn_peer[96]  lookupStabilitySig:vector  ETV
2730380	1178700 725 1353 1228665 21.17 80.26030804662 16 0.66666665673256 0.99679589876905 14.850363220554 13.900944264351
vector 2730381  Network.dyn_peer[96]  lookupTimeSig:vector  ETV
2730381	1179425 527 1353 1228665 21.17 80.26030804662 16 0.2 12.4 55.6 354.44
vector 2730262  Network.dyn_peer[57]  lookupHopsSig:vector  ETV
2730262	1105005 637 1373 1210017 21.18 79.505969167323 20 3 71 471 20273
vector 2730263  Network.dyn_peer[57]  lookupStabilitySig:vector  ETV
2730263	1105642 912 1373 1210017 21.18 79.505969167323 20 0.625 0.98673300165683 18.673175358213 17.621768193389
vector 2730264  Network.dyn_peer[57]  lookupTimeSig:vector  ETV
2730264	1106554 658 1373 1210017 21.18 79.505969167323 20 0.4 7.2 49 212.22
vector 2730307  Network.dyn_peer[72]  lookupHopsSig:vector  ETV
2730307	1132803 368 1457 992865 21.23 71.932557401955 12 1 65 207 7603
vector 2730308  Network.dyn_peer[72]  lookupStabilitySig:vector  ETV
2730308	1133171 541 1457 992865 21.23 71.932557401955 12 0.67441859841347 0.99217221140862 10.987149382941 10.179368995459
vector 2730309  Network.dyn_peer[72]  lookupTimeSig:vector  ETV
2730309	1133712 386 1457 992865 21.23 71.932557401955 12 0.2 6.6 21.8 80.18
vector 2730220  Network.dyn_peer[43]  lookupHopsSig:vector  ETV
2730220	1080497 512 1474 1255380 21.24 81.394352398862 16 2 89 404 18072
vector 2730221  Network.dyn_peer[43]  lookupStabilitySig:vector  ETV
2730221	1081009 737 1474 1255380 21.24 81.394352398862 16 0.55555555224419 0.99889319308568 14.710642015678 13.759392400258
vector 2730222  Network.dyn_peer[43]  lookupTimeSig:vector  ETV
2730222	1081746 530 1474 1255380 21.24 81.394352398862 16 0.3 9 41.9 188.79
vector 2730280  Network.dyn_peer[63]  lookupHopsSig:vector  ETV
2730280	1117131 407 1478 1001937 21.24 72.220250657689 13 4 59 255 8541
vector 2730281  Network.dyn_peer[63]  lookupStabilitySig:vector  ETV
2730281	1117538 592 1478 1001937 21.24 72.220250657689 13 0.66666665673256 0.98631239961833 11.849029499106 10.91891062957
vector 2730282  Network.dyn_peer[63]  lookupTimeSig:vector  ETV
2730282	1118130 420 1478 1001937 21.24 72.220250657689 13 0.5 6 26.7 90.51
vector 2730340  Network.dyn_peer[83]  lookupHopsSig:vector  ETV
2730340	1152664 707 1482 1353457 21.24 86.32856119999 22 1 130 557 33523
vector 2730341  Network.dyn_peer[83]  lookupStabilitySig:vector  ETV
2730341	1153371 1021 1482 1353457 21.24 86.32856119999 22 0.67741936445236 0.99334016395733 20.757897038013 19.703806039419
vector 2730342  Network.dyn_peer[83]  lookupTimeSig:vector  ETV
2730342	1154392 733 1482 1353457 21.24 86.32856119999 22 0.2 13.1 57.8 346.5
vector 2730346  Network.dyn_peer[85]  lookupHopsSig:vector  ETV
2730346	1157137 653 1516 1472085 21.26 95.819353383816 20 3 97 550 26020
vector 2730347  Network.dyn_peer[85]  lookupStabilitySig:vector  ETV