version 2
run Stability2-39-20130528-01:25:37-24168
attr configname Stability2
attr datetime 20130528-01:25:37
attr experiment Stability2
attr inifile omnetpp.ini
attr iterationvars $0=40
attr iterationvars2 "$0=40, $repetition=9"
attr measurement $0=40
attr network Network
attr processid 24168
attr repetition 9
attr replication #9
attr resultdir results
attr runnumber 39
attr seedset 39

vector 1200039  Network.churner  inGoingSizeSig:vector  ETV
vector 1170039  Network.dyn_peer[0]  lookupHopsSig:vector  ETV
vector 1170040  Network.dyn_peer[0]  lookupStabilitySig:vector  ETV
vector 1170041  Network.dyn_peer[0]  lookupTimeSig:vector  ETV
vector 1170045  Network.dyn_peer[2]  lookupHopsSig:vector  ETV
vector 1170046  Network.dyn_peer[2]  lookupStabilitySig:vector  ETV
vector 1170047  Network.dyn_peer[2]  lookupTimeSig:vector  ETV
vector 1170048  Network.dyn_peer[3]  lookupHopsSig:vector  ETV
vector 1170049  Network.dyn_peer[3]  lookupStabilitySig:vector  ETV
vector 1170050  Network.dyn_peer[3]  lookupTimeSig:vector  ETV
vector 1170057  Network.dyn_peer[6]  lookupHopsSig:vector  ETV
vector 1170058  Network.dyn_peer[6]  lookupStabilitySig:vector  ETV
vector 1170059  Network.dyn_peer[6]  lookupTimeSig:vector  ETV
vector 1170072  Network.dyn_peer[11]  lookupHopsSig:vector  ETV
vector 1170073  Network.dyn_peer[11]  lookupStabilitySig:vector  ETV
vector 1170074  Network.dyn_peer[11]  lookupTimeSig:vector  ETV
vector 1170060  Network.dyn_peer[7]  lookupHopsSig:vector  ETV
vector 1170061  Network.dyn_peer[7]  lookupStabilitySig:vector  ETV
vector 1170062  Network.dyn_peer[7]  lookupTimeSig:vector  ETV
vector 1170063  Network.dyn_peer[8]  lookupHopsSig:vector  ETV
vector 1170064  Network.dyn_peer[8]  lookupStabilitySig:vector  ETV
vector 1170065  Network.dyn_peer[8]  lookupTimeSig:vector  ETV
vector 1170042  Network.dyn_peer[1]  lookupHopsSig:vector  ETV
vector 1170043  Network.dyn_peer[1]  lookupStabilitySig:vector  ETV
vector 1170044  Network.dyn_peer[1]  lookupTimeSig:vector  ETV
vector 1170078  Network.dyn_peer[13]  lookupHopsSig:vector  ETV
vector 1170079  Network.dyn_peer[13]  lookupStabilitySig:vector  ETV
vector 1170080  Network.dyn_peer[13]  lookupTimeSig:vector  ETV
vector 1170051  Network.dyn_peer[4]  lookupHopsSig:vector  ETV
vector 1170052  Network.dyn_peer[4]  lookupStabilitySig:vector  ETV
vector 1170053  Network.dyn_peer[4]  lookupTimeSig:vector  ETV
vector 1170081  Network.dyn_peer[14]  lookupHopsSig:vector  ETV
vector 1170082  Network.dyn_peer[14]  lookupStabilitySig:vector  ETV
vector 1170083  Network.dyn_peer[14]  lookupTimeSig:vector  ETV
vector 1170129  Network.dyn_peer[30]  lookupHopsSig:vector  ETV
vector 1170130  Network.dyn_peer[30]  lookupStabilitySig:vector  ETV
vector 1170131  Network.dyn_peer[30]  lookupTimeSig:vector  ETV
vector 1170075  Network.dyn_peer[12]  lookupHopsSig:vector  ETV
vector 1170076  Network.dyn_peer[12]  lookupStabilitySig:vector  ETV
vector 1170077  Network.dyn_peer[12]  lookupTimeSig:vector  ETV
vector 1170054  Network.dyn_peer[5]  lookupHopsSig:vector  ETV
vector 1170055  Network.dyn_peer[5]  lookupStabilitySig:vector  ETV
vector 1170056  Network.dyn_peer[5]  lookupTimeSig:vector  ETV
vector 1170117  Network.dyn_peer[26]  lookupHopsSig:vector  ETV
vector 1170118  Network.dyn_peer[26]  lookupStabilitySig:vector  ETV
vector 1170119  Network.dyn_peer[26]  lookupTimeSig:vector  ETV
vector 1170090  Network.dyn_peer[17]  lookupHopsSig:vector  ETV
vector 1170091  Network.dyn_peer[17]  lookupStabilitySig:vector  ETV
vector 1170092  Network.dyn_peer[17]  lookupTimeSig:vector  ETV
vector 1170120  Network.dyn_peer[27]  lookupHopsSig:vector  ETV
vector 1170121  Network.dyn_peer[27]  lookupStabilitySig:vector  ETV
vector 1170122  Network.dyn_peer[27]  lookupTimeSig:vector  ETV
vector 1170066  Network.dyn_peer[9]  lookupHopsSig:vector  ETV
vector 1170067  Network.dyn_peer[9]  lookupStabilitySig:vector  ETV
vector 1170068  Network.dyn_peer[9]  lookupTimeSig:vector  ETV
vector 1170099  Network.dyn_peer[20]  lookupHopsSig:vector  ETV
vector 1170100  Network.dyn_peer[20]  lookupStabilitySig:vector  ETV
vector 1170101  Network.dyn_peer[20]  lookupTimeSig:vector  ETV
vector 1170108  Network.dyn_peer[23]  lookupHopsSig:vector  ETV
vector 1170109  Network.dyn_peer[23]  lookupStabilitySig:vector  ETV
vector 1170110  Network.dyn_peer[23]  lookupTimeSig:vector  ETV
vector 1170111  Network.dyn_peer[24]  lookupHopsSig:vector  ETV
vector 1170112  Network.dyn_peer[24]  lookupStabilitySig:vector  ETV
vector 1170113  Network.dyn_peer[24]  lookupTimeSig:vector  ETV
vector 1170093  Network.dyn_peer[18]  lookupHopsSig:vector  ETV
vector 1170094  Network.dyn_peer[18]  lookupStabilitySig:vector  ETV
vector 1170095  Network.dyn_peer[18]  lookupTimeSig:vector  ETV
vector 1170096  Network.dyn_peer[19]  lookupHopsSig:vector  ETV
vector 1170097  Network.dyn_peer[19]  lookupStabilitySig:vector  ETV
vector 1170098  Network.dyn_peer[19]  lookupTimeSig:vector  ETV
vector 1170126  Network.dyn_peer[29]  lookupHopsSig:vector  ETV
vector 1170127  Network.dyn_peer[29]  lookupStabilitySig:vector  ETV
vector 1170128  Network.dyn_peer[29]  lookupTimeSig:vector  ETV
vector 1170159  Network.dyn_peer[40]  lookupHopsSig:vector  ETV
vector 1170160  Network.dyn_peer[40]  lookupStabilitySig:vector  ETV
vector 1170161  Network.dyn_peer[40]  lookupTimeSig:vector  ETV
vector 1170132  Network.dyn_peer[31]  lookupHopsSig:vector  ETV
vector 1170133  Network.dyn_peer[31]  lookupStabilitySig:vector  ETV
vector 1170134  Network.dyn_peer[31]  lookupTimeSig:vector  ETV
vector 1170138  Network.dyn_peer[33]  lookupHopsSig:vector  ETV
vector 1170139  Network.dyn_peer[33]  lookupStabilitySig:vector  ETV
vector 1170140  Network.dyn_peer[33]  lookupTimeSig:vector  ETV
vector 1170201  Network.dyn_peer[54]  lookupHopsSig:vector  ETV
vector 1170202  Network.dyn_peer[54]  lookupStabilitySig:vector  ETV
vector 1170203  Network.dyn_peer[54]  lookupTimeSig:vector  ETV
vector 1170084  Network.dyn_peer[15]  lookupHopsSig:vector  ETV
vector 1170085  Network.dyn_peer[15]  lookupStabilitySig:vector  ETV
vector 1170086  Network.dyn_peer[15]  lookupTimeSig:vector  ETV
vector 1170123  Network.dyn_peer[28]  lookupHopsSig:vector  ETV
vector 1170124  Network.dyn_peer[28]  lookupStabilitySig:vector  ETV
vector 1170125  Network.dyn_peer[28]  lookupTimeSig:vector  ETV
vector 1170186  Network.dyn_peer[49]  lookupHopsSig:vector  ETV
vector 1170187  Network.dyn_peer[49]  lookupStabilitySig:vector  ETV
vector 1170188  Network.dyn_peer[49]  lookupTimeSig:vector  ETV
vector 1170102  Network.dyn_peer[21]  lookupHopsSig:vector  ETV
vector 1170103  Network.dyn_peer[21]  lookupStabilitySig:vector  ETV
vector 1170104  Network.dyn_peer[21]  lookupTimeSig:vector  ETV
vector 1170114  Network.dyn_peer[25]  lookupHopsSig:vector  ETV
vector 1170115  Network.dyn_peer[25]  lookupStabilitySig:vector  ETV
vector 1170116  Network.dyn_peer[25]  lookupTimeSig:vector  ETV
vector 1170087  Network.dyn_peer[16]  lookupHopsSig:vector  ETV
vector 1170088  Network.dyn_peer[16]  lookupStabilitySig:vector  ETV
vector 1170089  Network.dyn_peer[16]  lookupTimeSig:vector  ETV
vector 1170069  Network.dyn_peer[10]  lookupHopsSig:vector  ETV
vector 1170070  Network.dyn_peer[10]  lookupStabilitySig:vector  ETV
vector 1170071  Network.dyn_peer[10]  lookupTimeSig:vector  ETV
vector 1170192  Network.dyn_peer[51]  lookupHopsSig:vector  ETV
vector 1170193  Network.dyn_peer[51]  lookupStabilitySig:vector  ETV
vector 1170194  Network.dyn_peer[51]  lookupTimeSig:vector  ETV
vector 1170105  Network.dyn_peer[22]  lookupHopsSig:vector  ETV
vector 1170106  Network.dyn_peer[22]  lookupStabilitySig:vector  ETV
vector 1170107  Network.dyn_peer[22]  lookupTimeSig:vector  ETV
vector 1170141  Network.dyn_peer[34]  lookupHopsSig:vector  ETV
vector 1170142  Network.dyn_peer[34]  lookupStabilitySig:vector  ETV
vector 1170143  Network.dyn_peer[34]  lookupTimeSig:vector  ETV
vector 1170171  Network.dyn_peer[44]  lookupHopsSig:vector  ETV
vector 1170172  Network.dyn_peer[44]  lookupStabilitySig:vector  ETV
vector 1170173  Network.dyn_peer[44]  lookupTimeSig:vector  ETV
vector 1170234  Network.dyn_peer[65]  lookupHopsSig:vector  ETV
vector 1170235  Network.dyn_peer[65]  lookupStabilitySig:vector  ETV
vector 1170236  Network.dyn_peer[65]  lookupTimeSig:vector  ETV
vector 1170207  Network.dyn_peer[56]  lookupHopsSig:vector  ETV
vector 1170208  Network.dyn_peer[56]  lookupStabilitySig:vector  ETV
vector 1170209  Network.dyn_peer[56]  lookupTimeSig:vector  ETV
vector 1170237  Network.dyn_peer[66]  lookupHopsSig:vector  ETV
vector 1170238  Network.dyn_peer[66]  lookupStabilitySig:vector  ETV
vector 1170239  Network.dyn_peer[66]  lookupTimeSig:vector  ETV
vector 1170153  Network.dyn_peer[38]  lookupHopsSig:vector  ETV
vector 1170154  Network.dyn_peer[38]  lookupStabilitySig:vector  ETV
vector 1170155  Network.dyn_peer[38]  lookupTimeSig:vector  ETV
vector 1170135  Network.dyn_peer[32]  lookupHopsSig:vector  ETV
vector 1170136  Network.dyn_peer[32]  lookupStabilitySig:vector  ETV
vector 1170137  Network.dyn_peer[32]  lookupTimeSig:vector  ETV
vector 1170168  Network.dyn_peer[43]  lookupHopsSig:vector  ETV
vector 1170169  Network.dyn_peer[43]  lookupStabilitySig:vector  ETV
vector 1170170  Network.dyn_peer[43]  lookupTimeSig:vector  ETV
vector 1170177  Network.dyn_peer[46]  lookupHopsSig:vector  ETV
vector 1170178  Network.dyn_peer[46]  lookupStabilitySig:vector  ETV
vector 1170179  Network.dyn_peer[46]  lookupTimeSig:vector  ETV
vector 1170291  Network.dyn_peer[84]  lookupHopsSig:vector  ETV
vector 1170292  Network.dyn_peer[84]  lookupStabilitySig:vector  ETV
vector 1170293  Network.dyn_peer[84]  lookupTimeSig:vector  ETV
vector 1170180  Network.dyn_peer[47]  lookupHopsSig:vector  ETV
vector 1170181  Network.dyn_peer[47]  lookupStabilitySig:vector  ETV
vector 1170182  Network.dyn_peer[47]  lookupTimeSig:vector  ETV
vector 1170273  Network.dyn_peer[78]  lookupHopsSig:vector  ETV
vector 1170274  Network.dyn_peer[78]  lookupStabilitySig:vector  ETV
vector 1170275  Network.dyn_peer[78]  lookupTimeSig:vector  ETV
vector 1170204  Network.dyn_peer[55]  lookupHopsSig:vector  ETV
vector 1170205  Network.dyn_peer[55]  lookupStabilitySig:vector  ETV
vector 1170206  Network.dyn_peer[55]  lookupTimeSig:vector  ETV
vector 1170246  Network.dyn_peer[69]  lookupHopsSig:vector  ETV
vector 1170247  Network.dyn_peer[69]  lookupStabilitySig:vector  ETV
vector 1170248  Network.dyn_peer[69]  lookupTimeSig:vector  ETV
vector 1170279  Network.dyn_peer[80]  lookupHopsSig:vector  ETV
vector 1170280  Network.dyn_peer[80]  lookupStabilitySig:vector  ETV
vector 1170281  Network.dyn_peer[80]  lookupTimeSig:vector  ETV
vector 1170225  Network.dyn_peer[62]  lookupHopsSig:vector  ETV
vector 1170226  Network.dyn_peer[62]  lookupStabilitySig:vector  ETV
vector 1170227  Network.dyn_peer[62]  lookupTimeSig:vector  ETV
vector 1170228  Network.dyn_peer[63]  lookupHopsSig:vector  ETV
vector 1170229  Network.dyn_peer[63]  lookupStabilitySig:vector  ETV
vector 1170230  Network.dyn_peer[63]  lookupTimeSig:vector  ETV
vector 1170162  Network.dyn_peer[41]  lookupHopsSig:vector  ETV
vector 1170163  Network.dyn_peer[41]  lookupStabilitySig:vector  ETV
vector 1170164  Network.dyn_peer[41]  lookupTimeSig:vector  ETV
vector 1170252  Network.dyn_peer[71]  lookupHopsSig:vector  ETV
vector 1170253  Network.dyn_peer[71]  lookupStabilitySig:vector  ETV
vector 1170254  Network.dyn_peer[71]  lookupTimeSig:vector  ETV
vector 1170345  Network.dyn_peer[102]  lookupHopsSig:vector  ETV
vector 1170346  Network.dyn_peer[102]  lookupStabilitySig:vector  ETV
vector 1170347  Network.dyn_peer[102]  lookupTimeSig:vector  ETV
vector 1170294  Network.dyn_peer[85]  lookupHopsSig:vector  ETV
vector 1170295  Network.dyn_peer[85]  lookupStabilitySig:vector  ETV
vector 1170296  Network.dyn_peer[85]  lookupTimeSig:vector  ETV
vector 1170324  Network.dyn_peer[95]  lookupHopsSig:vector  ETV
vector 1170325  Network.dyn_peer[95]  lookupStabilitySig:vector  ETV
vector 1170326  Network.dyn_peer[95]  lookupTimeSig:vector  ETV
vector 1170330  Network.dyn_peer[97]  lookupHopsSig:vector  ETV
vector 1170331  Network.dyn_peer[97]  lookupStabilitySig:vector  ETV
vector 1170332  Network.dyn_peer[97]  lookupTimeSig:vector  ETV
vector 1170258  Network.dyn_peer[73]  lookupHopsSig:vector  ETV
vector 1170259  Network.dyn_peer[73]  lookupStabilitySig:vector  ETV
vector 1170260  Network.dyn_peer[73]  lookupTimeSig:vector  ETV
vector 1170288  Network.dyn_peer[83]  lookupHopsSig:vector  ETV
vector 1170289  Network.dyn_peer[83]  lookupStabilitySig:vector  ETV
vector 1170290  Network.dyn_peer[83]  lookupTimeSig:vector  ETV
vector 1170261  Network.dyn_peer[74]  lookupHopsSig:vector  ETV
vector 1170262  Network.dyn_peer[74]  lookupStabilitySig:vector  ETV
vector 1170263  Network.dyn_peer[74]  lookupTimeSig:vector  ETV
vector 1170414  Network.dyn_peer[125]  lookupHopsSig:vector  ETV
vector 1170415  Network.dyn_peer[125]  lookupStabilitySig:vector  ETV
vector 1170416  Network.dyn_peer[125]  lookupTimeSig:vector  ETV
vector 1170150  Network.dyn_peer[37]  lookupHopsSig:vector  ETV
vector 1170151  Network.dyn_peer[37]  lookupStabilitySig:vector  ETV
vector 1170152  Network.dyn_peer[37]  lookupTimeSig:vector  ETV
vector 1170270  Network.dyn_peer[77]  lookupHopsSig:vector  ETV
vector 1170271  Network.dyn_peer[77]  lookupStabilitySig:vector  ETV
vector 1170272  Network.dyn_peer[77]  lookupTimeSig:vector  ETV
vector 1170282  Network.dyn_peer[81]  lookupHopsSig:vector  ETV
vector 1170283  Network.dyn_peer[81]  lookupStabilitySig:vector  ETV
vector 1170284  Network.dyn_peer[81]  lookupTimeSig:vector  ETV
vector 1170408  Network.dyn_peer[123]  lookupHopsSig:vector  ETV
vector 1170409  Network.dyn_peer[123]  lookupStabilitySig:vector  ETV
vector 1170410  Network.dyn_peer[123]  lookupTimeSig:vector  ETV
vector 1170354  Network.dyn_peer[105]  lookupHopsSig:vector  ETV
vector 1170355  Network.dyn_peer[105]  lookupStabilitySig:vector  ETV
vector 1170356  Network.dyn_peer[105]  lookupTimeSig:vector  ETV
vector 1170417  Network.dyn_peer[126]  lookupHopsSig:vector  ETV
vector 1170418  Network.dyn_peer[126]  lookupStabilitySig:vector  ETV
vector 1170419  Network.dyn_peer[126]  lookupTimeSig:vector  ETV
vector 1170210  Network.dyn_peer[57]  lookupHopsSig:vector  ETV
vector 1170211  Network.dyn_peer[57]  lookupStabilitySig:vector  ETV
vector 1170212  Network.dyn_peer[57]  lookupTimeSig:vector  ETV
vector 1170360  Network.dyn_peer[107]  lookupHopsSig:vector  ETV
vector 1170361  Network.dyn_peer[107]  lookupStabilitySig:vector  ETV
vector 1170362  Network.dyn_peer[107]  lookupTimeSig:vector  ETV
vector 1170213  Network.dyn_peer[58]  lookupHopsSig:vector  ETV
vector 1170214  Network.dyn_peer[58]  lookupStabilitySig:vector  ETV
vector 1170215  Network.dyn_peer[58]  lookupTimeSig:vector  ETV
vector 1170396  Network.dyn_peer[119]  lookupHopsSig:vector  ETV
vector 1170397  Network.dyn_peer[119]  lookupStabilitySig:vector  ETV
vector 1170398  Network.dyn_peer[119]  lookupTimeSig:vector  ETV
vector 1170309  Network.dyn_peer[90]  lookupHopsSig:vector  ETV
vector 1170310  Network.dyn_peer[90]  lookupStabilitySig:vector  ETV
vector 1170311  Network.dyn_peer[90]  lookupTimeSig:vector  ETV
vector 1170399  Network.dyn_peer[120]  lookupHopsSig:vector  ETV
vector 1170400  Network.dyn_peer[120]  lookupStabilitySig:vector  ETV
vector 1170401  Network.dyn_peer[120]  lookupTimeSig:vector  ETV
vector 1170348  Network.dyn_peer[103]  lookupHopsSig:vector  ETV
vector 1170349  Network.dyn_peer[103]  lookupStabilitySig:vector  ETV
vector 1170350  Network.dyn_peer[103]  lookupTimeSig:vector  ETV
vector 1170264  Network.dyn_peer[75]  lookupHopsSig:vector  ETV
vector 1170265  Network.dyn_peer[75]  lookupStabilitySig:vector  ETV
vector 1170266  Network.dyn_peer[75]  lookupTimeSig:vector  ETV
vector 1170147  Network.dyn_peer[36]  lookupHopsSig:vector  ETV
vector 1170148  Network.dyn_peer[36]  lookupStabilitySig:vector  ETV
vector 1170149  Network.dyn_peer[36]  lookupTimeSig:vector  ETV
vector 1170243  Network.dyn_peer[68]  lookupHopsSig:vector  ETV
vector 1170244  Network.dyn_peer[68]  lookupStabilitySig:vector  ETV
vector 1170245  Network.dyn_peer[68]  lookupTimeSig:vector  ETV
vector 1170216  Network.dyn_peer[59]  lookupHopsSig:vector  ETV
vector 1170217  Network.dyn_peer[59]  lookupStabilitySig:vector  ETV
vector 1170218  Network.dyn_peer[59]  lookupTimeSig:vector  ETV
vector 1170456  Network.dyn_peer[139]  lookupHopsSig:vector  ETV
vector 1170457  Network.dyn_peer[139]  lookupStabilitySig:vector  ETV
vector 1170458  Network.dyn_peer[139]  lookupTimeSig:vector  ETV
vector 1170222  Network.dyn_peer[61]  lookupHopsSig:vector  ETV
vector 1170223  Network.dyn_peer[61]  lookupStabilitySig:vector  ETV
vector 1170224  Network.dyn_peer[61]  lookupTimeSig:vector  ETV
vector 1170195  Network.dyn_peer[52]  lookupHopsSig:vector  ETV
vector 1170196  Network.dyn_peer[52]  lookupStabilitySig:vector  ETV
vector 1170197  Network.dyn_peer[52]  lookupTimeSig:vector  ETV
vector 1170255  Network.dyn_peer[72]  lookupHopsSig:vector  ETV
vector 1170256  Network.dyn_peer[72]  lookupStabilitySig:vector  ETV
vector 1170257  Network.dyn_peer[72]  lookupTimeSig:vector  ETV
vector 1170285  Network.dyn_peer[82]  lookupHopsSig:vector  ETV
vector 1170286  Network.dyn_peer[82]  lookupStabilitySig:vector  ETV
vector 1170287  Network.dyn_peer[82]  lookupTimeSig:vector  ETV
vector 1170438  Network.dyn_peer[133]  lookupHopsSig:vector  ETV
vector 1170439  Network.dyn_peer[133]  lookupStabilitySig:vector  ETV
vector 1170440  Network.dyn_peer[133]  lookupTimeSig:vector  ETV
vector 1170381  Network.dyn_peer[114]  lookupHopsSig:vector  ETV
vector 1170382  Network.dyn_peer[114]  lookupStabilitySig:vector  ETV
vector 1170383  Network.dyn_peer[114]  lookupTimeSig:vector  ETV
vector 1170441  Network.dyn_peer[134]  lookupHopsSig:vector  ETV
vector 1170442  Network.dyn_peer[134]  lookupStabilitySig:vector  ETV
vector 1170443  Network.dyn_peer[134]  lookupTimeSig:vector  ETV
vector 1170327  Network.dyn_peer[96]  lookupHopsSig:vector  ETV
vector 1170328  Network.dyn_peer[96]  lookupStabilitySig:vector  ETV
vector 1170329  Network.dyn_peer[96]  lookupTimeSig:vector  ETV
vector 1170420  Network.dyn_peer[127]  lookupHopsSig:vector  ETV
vector 1170421  Network.dyn_peer[127]  lookupStabilitySig:vector  ETV
vector 1170422  Network.dyn_peer[127]  lookupTimeSig:vector  ETV
vector 1170156  Network.dyn_peer[39]  lookupHopsSig:vector  ETV
vector 1170157  Network.dyn_peer[39]  lookupStabilitySig:vector  ETV
vector 1170158  Network.dyn_peer[39]  lookupTimeSig:vector  ETV
vector 1170366  Network.dyn_peer[109]  lookupHopsSig:vector  ETV
vector 1170367  Network.dyn_peer[109]  lookupStabilitySig:vector  ETV
vector 1170368  Network.dyn_peer[109]  lookupTimeSig:vector  ETV
vector 1170462  Network.dyn_peer[141]  lookupHopsSig:vector  ETV
vector 1170463  Network.dyn_peer[141]  lookupStabilitySig:vector  ETV
vector 1170464  Network.dyn_peer[141]  lookupTimeSig:vector  ETV
vector 1170165  Network.dyn_peer[42]  lookupHopsSig:vector  ETV
vector 1170166  Network.dyn_peer[42]  lookupStabilitySig:vector  ETV
vector 1170167  Network.dyn_peer[42]  lookupTimeSig:vector  ETV
vector 1170474  Network.dyn_peer[145]  lookupHopsSig:vector  ETV
vector 1170475  Network.dyn_peer[145]  lookupStabilitySig:vector  ETV
vector 1170476  Network.dyn_peer[145]  lookupTimeSig:vector  ETV
vector 1170240  Network.dyn_peer[67]  lookupHopsSig:vector  ETV
vector 1170241  Network.dyn_peer[67]  lookupStabilitySig:vector  ETV
vector 1170242  Network.dyn_peer[67]  lookupTimeSig:vector  ETV
vector 1170276  Network.dyn_peer[79]  lookupHopsSig:vector  ETV
vector 1170277  Network.dyn_peer[79]  lookupStabilitySig:vector  ETV
vector 1170278  Network.dyn_peer[79]  lookupTimeSig:vector  ETV
vector 1170306  Network.dyn_peer[89]  lookupHopsSig:vector  ETV
vector 1170307  Network.dyn_peer[89]  lookupStabilitySig:vector  ETV
vector 1170308  Network.dyn_peer[89]  lookupTimeSig:vector  ETV
vector 1170486  Network.dyn_peer[149]  lookupHopsSig:vector  ETV
vector 1170487  Network.dyn_peer[149]  lookupStabilitySig:vector  ETV
vector 1170488  Network.dyn_peer[149]  lookupTimeSig:vector  ETV
vector 1170405  Network.dyn_peer[122]  lookupHopsSig:vector  ETV
vector 1170406  Network.dyn_peer[122]  lookupStabilitySig:vector  ETV
vector 1170407  Network.dyn_peer[122]  lookupTimeSig:vector  ETV
vector 1170144  Network.dyn_peer[35]  lookupHopsSig:vector  ETV
vector 1170145  Network.dyn_peer[35]  lookupStabilitySig:vector  ETV
vector 1170146  Network.dyn_peer[35]  lookupTimeSig:vector  ETV
vector 1170267  Network.dyn_peer[76]  lookupHopsSig:vector  ETV
vector 1170268  Network.dyn_peer[76]  lookupStabilitySig:vector  ETV
vector 1170269  Network.dyn_peer[76]  lookupTimeSig:vector  ETV
vector 1170387  Network.dyn_peer[116]  lookupHopsSig:vector  ETV
vector 1170388  Network.dyn_peer[116]  lookupStabilitySig:vector  ETV
vector 1170389  Network.dyn_peer[116]  lookupTimeSig:vector  ETV
vector 1170303  Network.dyn_peer[88]  lookupHopsSig:vector  ETV
vector 1170304  Network.dyn_peer[88]  lookupStabilitySig:vector  ETV
vector 1170305  Network.dyn_peer[88]  lookupTimeSig:vector  ETV
vector 1170189  Network.dyn_peer[50]  lookupHopsSig:vector  ETV
vector 1170190  Network.dyn_peer[50]  lookupStabilitySig:vector  ETV
vector 1170191  Network.dyn_peer[50]  lookupTimeSig:vector  ETV
vector 1170339  Network.dyn_peer[100]  lookupHopsSig:vector  ETV
vector 1170340  Network.dyn_peer[100]  lookupStabilitySig:vector  ETV
vector 1170341  Network.dyn_peer[100]  lookupTimeSig:vector  ETV
vector 1170429  Network.dyn_peer[130]  lookupHopsSig:vector  ETV
vector 1170430  Network.dyn_peer[130]  lookupStabilitySig:vector  ETV
vector 1170431  Network.dyn_peer[130]  lookupTimeSig:vector  ETV
vector 1170489  Network.dyn_peer[150]  lookupHopsSig:vector  ETV
vector 1170490  Network.dyn_peer[150]  lookupStabilitySig:vector  ETV
vector 1170491  Network.dyn_peer[150]  lookupTimeSig:vector  ETV
vector 1170198  Network.dyn_peer[53]  lookupHopsSig:vector  ETV
vector 1170199  Network.dyn_peer[53]  lookupStabilitySig:vector  ETV
vector 1170200  Network.dyn_peer[53]  lookupTimeSig:vector  ETV
vector 1170567  Network.dyn_peer[176]  lookupHopsSig:vector  ETV
vector 1170568  Network.dyn_peer[176]  lookupStabilitySig:vector  ETV
vector 1170569  Network.dyn_peer[176]  lookupTimeSig:vector  ETV
vector 1170390  Network.dyn_peer[117]  lookupHopsSig:vector  ETV
vector 1170391  Network.dyn_peer[117]  lookupStabilitySig:vector  ETV
vector 1170392  Network.dyn_peer[117]  lookupTimeSig:vector  ETV
vector 1170450  Network.dyn_peer[137]  lookupHopsSig:vector  ETV
vector 1170451  Network.dyn_peer[137]  lookupStabilitySig:vector  ETV
vector 1170452  Network.dyn_peer[137]  lookupTimeSig:vector  ETV
vector 1170570  Network.dyn_peer[177]  lookupHopsSig:vector  ETV
vector 1170571  Network.dyn_peer[177]  lookupStabilitySig:vector  ETV
vector 1170572  Network.dyn_peer[177]  lookupTimeSig:vector  ETV
vector 1170333  Network.dyn_peer[98]  lookupHopsSig:vector  ETV
vector 1170334  Network.dyn_peer[98]  lookupStabilitySig:vector  ETV
vector 1170335  Network.dyn_peer[98]  lookupTimeSig:vector  ETV
vector 1170426  Network.dyn_peer[129]  lookupHopsSig:vector  ETV
vector 1170427  Network.dyn_peer[129]  lookupStabilitySig:vector  ETV
vector 1170428  Network.dyn_peer[129]  lookupTimeSig:vector  ETV
vector 1170249  Network.dyn_peer[70]  lookupHopsSig:vector  ETV
vector 1170250  Network.dyn_peer[70]  lookupStabilitySig:vector  ETV
vector 1170251  Network.dyn_peer[70]  lookupTimeSig:vector  ETV
vector 1170459  Network.dyn_peer[140]  lookupHopsSig:vector  ETV
vector 1170460  Network.dyn_peer[140]  lookupStabilitySig:vector  ETV
vector 1170461  Network.dyn_peer[140]  lookupTimeSig:vector  ETV
vector 1170312  Network.dyn_peer[91]  lookupHopsSig:vector  ETV
vector 1170313  Network.dyn_peer[91]  lookupStabilitySig:vector  ETV
vector 1170314  Network.dyn_peer[91]  lookupTimeSig:vector  ETV
vector 1170492  Network.dyn_peer[151]  lookupHopsSig:vector  ETV
vector 1170493  Network.dyn_peer[151]  lookupStabilitySig:vector  ETV
vector 1170494  Network.dyn_peer[151]  lookupTimeSig:vector  ETV
vector 1170522  Network.dyn_peer[161]  lookupHopsSig:vector  ETV
vector 1170523  Network.dyn_peer[161]  lookupStabilitySig:vector  ETV
vector 1170524  Network.dyn_peer[161]  lookupTimeSig:vector  ETV
vector 1170435  Network.dyn_peer[132]  lookupHopsSig:vector  ETV
vector 1170436  Network.dyn_peer[132]  lookupStabilitySig:vector  ETV
vector 1170437  Network.dyn_peer[132]  lookupTimeSig:vector  ETV
vector 1170483  Network.dyn_peer[148]  lookupHopsSig:vector  ETV
vector 1170484  Network.dyn_peer[148]  lookupStabilitySig:vector  ETV
vector 1170485  Network.dyn_peer[148]  lookupTimeSig:vector  ETV
vector 1170516  Network.dyn_peer[159]  lookupHopsSig:vector  ETV
vector 1170517  Network.dyn_peer[159]  lookupStabilitySig:vector  ETV
vector 1170518  Network.dyn_peer[159]  lookupTimeSig:vector  ETV
vector 1170402  Network.dyn_peer[121]  lookupHopsSig:vector  ETV
vector 1170403  Network.dyn_peer[121]  lookupStabilitySig:vector  ETV
vector 1170404  Network.dyn_peer[121]  lookupTimeSig:vector  ETV
vector 1170315  Network.dyn_peer[92]  lookupHopsSig:vector  ETV
vector 1170316  Network.dyn_peer[92]  lookupStabilitySig:vector  ETV
vector 1170317  Network.dyn_peer[92]  lookupTimeSig:vector  ETV
vector 1170675  Network.dyn_peer[212]  lookupHopsSig:vector  ETV
vector 1170676  Network.dyn_peer[212]  lookupStabilitySig:vector  ETV
vector 1170677  Network.dyn_peer[212]  lookupTimeSig:vector  ETV
vector 1170528  Network.dyn_peer[163]  lookupHopsSig:vector  ETV
vector 1170529  Network.dyn_peer[163]  lookupStabilitySig:vector  ETV
vector 1170530  Network.dyn_peer[163]  lookupTimeSig:vector  ETV
vector 1170231  Network.dyn_peer[64]  lookupHopsSig:vector  ETV
vector 1170232  Network.dyn_peer[64]  lookupStabilitySig:vector  ETV
vector 1170233  Network.dyn_peer[64]  lookupTimeSig:vector  ETV
vector 1170321  Network.dyn_peer[94]  lookupHopsSig:vector  ETV
vector 1170322  Network.dyn_peer[94]  lookupStabilitySig:vector  ETV
vector 1170323  Network.dyn_peer[94]  lookupTimeSig:vector  ETV
vector 1170471  Network.dyn_peer[144]  lookupHopsSig:vector  ETV
vector 1170472  Network.dyn_peer[144]  lookupStabilitySig:vector  ETV
vector 1170473  Network.dyn_peer[144]  lookupTimeSig:vector  ETV
vector 1170174  Network.dyn_peer[45]  lookupHopsSig:vector  ETV
vector 1170175  Network.dyn_peer[45]  lookupStabilitySig:vector  ETV
vector 1170176  Network.dyn_peer[45]  lookupTimeSig:vector  ETV
vector 1170444  Network.dyn_peer[135]  lookupHopsSig:vector  ETV
vector 1170445  Network.dyn_peer[135]  lookupStabilitySig:vector  ETV
vector 1170446  Network.dyn_peer[135]  lookupTimeSig:vector  ETV
vector 1170624  Network.dyn_peer[195]  lookupHopsSig:vector  ETV
vector 1170625  Network.dyn_peer[195]  lookupStabilitySig:vector  ETV
vector 1170626  Network.dyn_peer[195]  lookupTimeSig:vector  ETV
vector 1170297  Network.dyn_peer[86]  lookupHopsSig:vector  ETV
vector 1170298  Network.dyn_peer[86]  lookupStabilitySig:vector  ETV
vector 1170299  Network.dyn_peer[86]  lookupTimeSig:vector  ETV
vector 1170300  Network.dyn_peer[87]  lookupHopsSig:vector  ETV
vector 1170301  Network.dyn_peer[87]  lookupStabilitySig:vector  ETV
vector 1170302  Network.dyn_peer[87]  lookupTimeSig:vector  ETV
vector 1170480  Network.dyn_peer[147]  lookupHopsSig:vector  ETV
vector 1170481  Network.dyn_peer[147]  lookupStabilitySig:vector  ETV
vector 1170482  Network.dyn_peer[147]  lookupTimeSig:vector  ETV
vector 1170183  Network.dyn_peer[48]  lookupHopsSig:vector  ETV
vector 1170184  Network.dyn_peer[48]  lookupStabilitySig:vector  ETV
vector 1170185  Network.dyn_peer[48]  lookupTimeSig:vector  ETV
vector 1170393  Network.dyn_peer[118]  lookupHopsSig:vector  ETV
vector 1170394  Network.dyn_peer[118]  lookupStabilitySig:vector  ETV
vector 1170395  Network.dyn_peer[118]  lookupTimeSig:vector  ETV
vector 1170543  Network.dyn_peer[168]  lookupHopsSig:vector  ETV
vector 1170544  Network.dyn_peer[168]  lookupStabilitySig:vector  ETV
vector 1170545  Network.dyn_peer[168]  lookupTimeSig:vector  ETV
vector 1170336  Network.dyn_peer[99]  lookupHopsSig:vector  ETV
vector 1170337  Network.dyn_peer[99]  lookupStabilitySig:vector  ETV
vector 1170338  Network.dyn_peer[99]  lookupTimeSig:vector  ETV
vector 1170342  Network.dyn_peer[101]  lookupHopsSig:vector  ETV
vector 1170343  Network.dyn_peer[101]  lookupStabilitySig:vector  ETV
vector 1170344  Network.dyn_peer[101]  lookupTimeSig:vector  ETV
vector 1170375  Network.dyn_peer[112]  lookupHopsSig:vector  ETV
vector 1170376  Network.dyn_peer[112]  lookupStabilitySig:vector  ETV
vector 1170377  Network.dyn_peer[112]  lookupTimeSig:vector  ETV
vector 1170465  Network.dyn_peer[142]  lookupHopsSig:vector  ETV
vector 1170466  Network.dyn_peer[142]  lookupStabilitySig:vector  ETV
vector 1170467  Network.dyn_peer[142]  lookupTimeSig:vector  ETV
vector 1170411  Network.dyn_peer[124]  lookupHopsSig:vector  ETV
vector 1170412  Network.dyn_peer[124]  lookupStabilitySig:vector  ETV
vector 1170413  Network.dyn_peer[124]  lookupTimeSig:vector  ETV
vector 1170600  Network.dyn_peer[187]  lookupHopsSig:vector  ETV
vector 1170601  Network.dyn_peer[187]  lookupStabilitySig:vector  ETV
vector 1170602  Network.dyn_peer[187]  lookupTimeSig:vector  ETV
vector 1170690  Network.dyn_peer[217]  lookupHopsSig:vector  ETV
vector 1170691  Network.dyn_peer[217]  lookupStabilitySig:vector  ETV
vector 1170692  Network.dyn_peer[217]  lookupTimeSig:vector  ETV
vector 1170573  Network.dyn_peer[178]  lookupHopsSig:vector  ETV
vector 1170574  Network.dyn_peer[178]  lookupStabilitySig:vector  ETV
vector 1170575  Network.dyn_peer[178]  lookupTimeSig:vector  ETV
vector 1170633  Network.dyn_peer[198]  lookupHopsSig:vector  ETV
vector 1170634  Network.dyn_peer[198]  lookupStabilitySig:vector  ETV
vector 1170635  Network.dyn_peer[198]  lookupTimeSig:vector  ETV
vector 1170663  Network.dyn_peer[208]  lookupHopsSig:vector  ETV