version 2
run Stability2-6-20130528-01:22:11-24168
attr configname Stability2
attr datetime 20130528-01:22:11
attr experiment Stability2
attr inifile omnetpp.ini
attr iterationvars $0=10
attr iterationvars2 "$0=10, $repetition=6"
attr measurement $0=10
attr network Network
attr processid 24168
attr repetition 6
attr replication #6
attr resultdir results
attr runnumber 6
attr seedset 6

vector 210006  Network.churner  inGoingSizeSig:vector  ETV
vector 180036  Network.dyn_peer[10]  lookupHopsSig:vector  ETV
vector 180037  Network.dyn_peer[10]  lookupStabilitySig:vector  ETV
vector 180038  Network.dyn_peer[10]  lookupTimeSig:vector  ETV
vector 180012  Network.dyn_peer[2]  lookupHopsSig:vector  ETV
vector 180013  Network.dyn_peer[2]  lookupStabilitySig:vector  ETV
vector 180014  Network.dyn_peer[2]  lookupTimeSig:vector  ETV
vector 180048  Network.dyn_peer[14]  lookupHopsSig:vector  ETV
vector 180049  Network.dyn_peer[14]  lookupStabilitySig:vector  ETV
vector 180050  Network.dyn_peer[14]  lookupTimeSig:vector  ETV
vector 180024  Network.dyn_peer[6]  lookupHopsSig:vector  ETV
vector 180025  Network.dyn_peer[6]  lookupStabilitySig:vector  ETV
vector 180026  Network.dyn_peer[6]  lookupTimeSig:vector  ETV
vector 180027  Network.dyn_peer[7]  lookupHopsSig:vector  ETV
vector 180028  Network.dyn_peer[7]  lookupStabilitySig:vector  ETV
vector 180029  Network.dyn_peer[7]  lookupTimeSig:vector  ETV
vector 180030  Network.dyn_peer[8]  lookupHopsSig:vector  ETV
vector 180031  Network.dyn_peer[8]  lookupStabilitySig:vector  ETV
vector 180032  Network.dyn_peer[8]  lookupTimeSig:vector  ETV
vector 180066  Network.dyn_peer[20]  lookupHopsSig:vector  ETV
vector 180067  Network.dyn_peer[20]  lookupStabilitySig:vector  ETV
vector 180068  Network.dyn_peer[20]  lookupTimeSig:vector  ETV
vector 180009  Network.dyn_peer[1]  lookupHopsSig:vector  ETV
vector 180010  Network.dyn_peer[1]  lookupStabilitySig:vector  ETV
vector 180011  Network.dyn_peer[1]  lookupTimeSig:vector  ETV
vector 180072  Network.dyn_peer[22]  lookupHopsSig:vector  ETV
vector 180073  Network.dyn_peer[22]  lookupStabilitySig:vector  ETV
vector 180074  Network.dyn_peer[22]  lookupTimeSig:vector  ETV
vector 180021  Network.dyn_peer[5]  lookupHopsSig:vector  ETV
vector 180022  Network.dyn_peer[5]  lookupStabilitySig:vector  ETV
vector 180023  Network.dyn_peer[5]  lookupTimeSig:vector  ETV
vector 180051  Network.dyn_peer[15]  lookupHopsSig:vector  ETV
vector 180052  Network.dyn_peer[15]  lookupStabilitySig:vector  ETV
vector 180053  Network.dyn_peer[15]  lookupTimeSig:vector  ETV
vector 180063  Network.dyn_peer[19]  lookupHopsSig:vector  ETV
vector 180064  Network.dyn_peer[19]  lookupStabilitySig:vector  ETV
vector 180065  Network.dyn_peer[19]  lookupTimeSig:vector  ETV
vector 180042  Network.dyn_peer[12]  lookupHopsSig:vector  ETV
vector 180043  Network.dyn_peer[12]  lookupStabilitySig:vector  ETV
vector 180044  Network.dyn_peer[12]  lookupTimeSig:vector  ETV
vector 180015  Network.dyn_peer[3]  lookupHopsSig:vector  ETV
vector 180016  Network.dyn_peer[3]  lookupStabilitySig:vector  ETV
vector 180017  Network.dyn_peer[3]  lookupTimeSig:vector  ETV
vector 180045  Network.dyn_peer[13]  lookupHopsSig:vector  ETV
vector 180046  Network.dyn_peer[13]  lookupStabilitySig:vector  ETV
vector 180047  Network.dyn_peer[13]  lookupTimeSig:vector  ETV
vector 180018  Network.dyn_peer[4]  lookupHopsSig:vector  ETV
vector 180019  Network.dyn_peer[4]  lookupStabilitySig:vector  ETV
vector 180020  Network.dyn_peer[4]  lookupTimeSig:vector  ETV
vector 180054  Network.dyn_peer[16]  lookupHopsSig:vector  ETV
vector 180055  Network.dyn_peer[16]  lookupStabilitySig:vector  ETV
vector 180056  Network.dyn_peer[16]  lookupTimeSig:vector  ETV
vector 180057  Network.dyn_peer[17]  lookupHopsSig:vector  ETV
vector 180058  Network.dyn_peer[17]  lookupStabilitySig:vector  ETV
vector 180059  Network.dyn_peer[17]  lookupTimeSig:vector  ETV
vector 180060  Network.dyn_peer[18]  lookupHopsSig:vector  ETV
vector 180061  Network.dyn_peer[18]  lookupStabilitySig:vector  ETV
vector 180062  Network.dyn_peer[18]  lookupTimeSig:vector  ETV
vector 180039  Network.dyn_peer[11]  lookupHopsSig:vector  ETV
vector 180040  Network.dyn_peer[11]  lookupStabilitySig:vector  ETV
vector 180041  Network.dyn_peer[11]  lookupTimeSig:vector  ETV
vector 180102  Network.dyn_peer[32]  lookupHopsSig:vector  ETV
vector 180103  Network.dyn_peer[32]  lookupStabilitySig:vector  ETV
vector 180104  Network.dyn_peer[32]  lookupTimeSig:vector  ETV
vector 180075  Network.dyn_peer[23]  lookupHopsSig:vector  ETV
vector 180076  Network.dyn_peer[23]  lookupStabilitySig:vector  ETV
vector 180077  Network.dyn_peer[23]  lookupTimeSig:vector  ETV
vector 180078  Network.dyn_peer[24]  lookupHopsSig:vector  ETV
vector 180079  Network.dyn_peer[24]  lookupStabilitySig:vector  ETV
vector 180080  Network.dyn_peer[24]  lookupTimeSig:vector  ETV
vector 180081  Network.dyn_peer[25]  lookupHopsSig:vector  ETV
vector 180082  Network.dyn_peer[25]  lookupStabilitySig:vector  ETV
vector 180083  Network.dyn_peer[25]  lookupTimeSig:vector  ETV
vector 180087  Network.dyn_peer[27]  lookupHopsSig:vector  ETV
vector 180088  Network.dyn_peer[27]  lookupStabilitySig:vector  ETV
vector 180089  Network.dyn_peer[27]  lookupTimeSig:vector  ETV
vector 180033  Network.dyn_peer[9]  lookupHopsSig:vector  ETV
vector 180034  Network.dyn_peer[9]  lookupStabilitySig:vector  ETV
vector 180035  Network.dyn_peer[9]  lookupTimeSig:vector  ETV
vector 180099  Network.dyn_peer[31]  lookupHopsSig:vector  ETV
vector 180100  Network.dyn_peer[31]  lookupStabilitySig:vector  ETV
vector 180101  Network.dyn_peer[31]  lookupTimeSig:vector  ETV
vector 180126  Network.dyn_peer[40]  lookupHopsSig:vector  ETV
vector 180127  Network.dyn_peer[40]  lookupStabilitySig:vector  ETV
vector 180128  Network.dyn_peer[40]  lookupTimeSig:vector  ETV
vector 180069  Network.dyn_peer[21]  lookupHopsSig:vector  ETV
vector 180070  Network.dyn_peer[21]  lookupStabilitySig:vector  ETV
vector 180071  Network.dyn_peer[21]  lookupTimeSig:vector  ETV
vector 180162  Network.dyn_peer[52]  lookupHopsSig:vector  ETV
vector 180163  Network.dyn_peer[52]  lookupStabilitySig:vector  ETV
vector 180164  Network.dyn_peer[52]  lookupTimeSig:vector  ETV
vector 180195  Network.dyn_peer[63]  lookupHopsSig:vector  ETV
vector 180196  Network.dyn_peer[63]  lookupStabilitySig:vector  ETV
vector 180197  Network.dyn_peer[63]  lookupTimeSig:vector  ETV
vector 180093  Network.dyn_peer[29]  lookupHopsSig:vector  ETV
vector 180094  Network.dyn_peer[29]  lookupStabilitySig:vector  ETV
vector 180095  Network.dyn_peer[29]  lookupTimeSig:vector  ETV
vector 180192  Network.dyn_peer[62]  lookupHopsSig:vector  ETV
vector 180193  Network.dyn_peer[62]  lookupStabilitySig:vector  ETV
vector 180194  Network.dyn_peer[62]  lookupTimeSig:vector  ETV
vector 180141  Network.dyn_peer[45]  lookupHopsSig:vector  ETV
vector 180142  Network.dyn_peer[45]  lookupStabilitySig:vector  ETV
vector 180143  Network.dyn_peer[45]  lookupTimeSig:vector  ETV
vector 180117  Network.dyn_peer[37]  lookupHopsSig:vector  ETV
vector 180118  Network.dyn_peer[37]  lookupStabilitySig:vector  ETV
vector 180119  Network.dyn_peer[37]  lookupTimeSig:vector  ETV
vector 180090  Network.dyn_peer[28]  lookupHopsSig:vector  ETV
vector 180091  Network.dyn_peer[28]  lookupStabilitySig:vector  ETV
vector 180092  Network.dyn_peer[28]  lookupTimeSig:vector  ETV
vector 180213  Network.dyn_peer[69]  lookupHopsSig:vector  ETV
vector 180214  Network.dyn_peer[69]  lookupStabilitySig:vector  ETV
vector 180215  Network.dyn_peer[69]  lookupTimeSig:vector  ETV
vector 180096  Network.dyn_peer[30]  lookupHopsSig:vector  ETV
vector 180097  Network.dyn_peer[30]  lookupStabilitySig:vector  ETV
vector 180098  Network.dyn_peer[30]  lookupTimeSig:vector  ETV
vector 180168  Network.dyn_peer[54]  lookupHopsSig:vector  ETV
vector 180169  Network.dyn_peer[54]  lookupStabilitySig:vector  ETV
vector 180170  Network.dyn_peer[54]  lookupTimeSig:vector  ETV
vector 180234  Network.dyn_peer[76]  lookupHopsSig:vector  ETV
vector 180235  Network.dyn_peer[76]  lookupStabilitySig:vector  ETV
vector 180236  Network.dyn_peer[76]  lookupTimeSig:vector  ETV
vector 180006  Network.dyn_peer[0]  lookupHopsSig:vector  ETV
vector 180007  Network.dyn_peer[0]  lookupStabilitySig:vector  ETV
vector 180008  Network.dyn_peer[0]  lookupTimeSig:vector  ETV
vector 180186  Network.dyn_peer[60]  lookupHopsSig:vector  ETV
vector 180187  Network.dyn_peer[60]  lookupStabilitySig:vector  ETV
vector 180188  Network.dyn_peer[60]  lookupTimeSig:vector  ETV
vector 180252  Network.dyn_peer[82]  lookupHopsSig:vector  ETV
vector 180253  Network.dyn_peer[82]  lookupStabilitySig:vector  ETV
vector 180254  Network.dyn_peer[82]  lookupTimeSig:vector  ETV
vector 180108  Network.dyn_peer[34]  lookupHopsSig:vector  ETV
vector 180109  Network.dyn_peer[34]  lookupStabilitySig:vector  ETV
vector 180110  Network.dyn_peer[34]  lookupTimeSig:vector  ETV
vector 180177  Network.dyn_peer[57]  lookupHopsSig:vector  ETV
vector 180178  Network.dyn_peer[57]  lookupStabilitySig:vector  ETV
vector 180179  Network.dyn_peer[57]  lookupTimeSig:vector  ETV
vector 180123  Network.dyn_peer[39]  lookupHopsSig:vector  ETV
vector 180124  Network.dyn_peer[39]  lookupStabilitySig:vector  ETV
vector 180125  Network.dyn_peer[39]  lookupTimeSig:vector  ETV
vector 180282  Network.dyn_peer[92]  lookupHopsSig:vector  ETV
vector 180283  Network.dyn_peer[92]  lookupStabilitySig:vector  ETV
vector 180284  Network.dyn_peer[92]  lookupTimeSig:vector  ETV
vector 180204  Network.dyn_peer[66]  lookupHopsSig:vector  ETV
vector 180205  Network.dyn_peer[66]  lookupStabilitySig:vector  ETV
vector 180206  Network.dyn_peer[66]  lookupTimeSig:vector  ETV
vector 180147  Network.dyn_peer[47]  lookupHopsSig:vector  ETV
vector 180148  Network.dyn_peer[47]  lookupStabilitySig:vector  ETV
vector 180149  Network.dyn_peer[47]  lookupTimeSig:vector  ETV
vector 180120  Network.dyn_peer[38]  lookupHopsSig:vector  ETV
vector 180121  Network.dyn_peer[38]  lookupStabilitySig:vector  ETV
vector 180122  Network.dyn_peer[38]  lookupTimeSig:vector  ETV
vector 180303  Network.dyn_peer[99]  lookupHopsSig:vector  ETV
vector 180304  Network.dyn_peer[99]  lookupStabilitySig:vector  ETV
vector 180305  Network.dyn_peer[99]  lookupTimeSig:vector  ETV
vector 180246  Network.dyn_peer[80]  lookupHopsSig:vector  ETV
vector 180247  Network.dyn_peer[80]  lookupStabilitySig:vector  ETV
vector 180248  Network.dyn_peer[80]  lookupTimeSig:vector  ETV
vector 180135  Network.dyn_peer[43]  lookupHopsSig:vector  ETV
vector 180136  Network.dyn_peer[43]  lookupStabilitySig:vector  ETV
vector 180137  Network.dyn_peer[43]  lookupTimeSig:vector  ETV
vector 180255  Network.dyn_peer[83]  lookupHopsSig:vector  ETV
vector 180256  Network.dyn_peer[83]  lookupStabilitySig:vector  ETV
vector 180257  Network.dyn_peer[83]  lookupTimeSig:vector  ETV
vector 180285  Network.dyn_peer[93]  lookupHopsSig:vector  ETV
vector 180286  Network.dyn_peer[93]  lookupStabilitySig:vector  ETV
vector 180287  Network.dyn_peer[93]  lookupTimeSig:vector  ETV
vector 180153  Network.dyn_peer[49]  lookupHopsSig:vector  ETV
vector 180154  Network.dyn_peer[49]  lookupStabilitySig:vector  ETV
vector 180155  Network.dyn_peer[49]  lookupTimeSig:vector  ETV
vector 180183  Network.dyn_peer[59]  lookupHopsSig:vector  ETV
vector 180184  Network.dyn_peer[59]  lookupStabilitySig:vector  ETV
vector 180185  Network.dyn_peer[59]  lookupTimeSig:vector  ETV
vector 180189  Network.dyn_peer[61]  lookupHopsSig:vector  ETV
vector 180190  Network.dyn_peer[61]  lookupStabilitySig:vector  ETV
vector 180191  Network.dyn_peer[61]  lookupTimeSig:vector  ETV
vector 180105  Network.dyn_peer[33]  lookupHopsSig:vector  ETV
vector 180106  Network.dyn_peer[33]  lookupStabilitySig:vector  ETV
vector 180107  Network.dyn_peer[33]  lookupTimeSig:vector  ETV
vector 180138  Network.dyn_peer[44]  lookupHopsSig:vector  ETV
vector 180139  Network.dyn_peer[44]  lookupStabilitySig:vector  ETV
vector 180140  Network.dyn_peer[44]  lookupTimeSig:vector  ETV
vector 180198  Network.dyn_peer[64]  lookupHopsSig:vector  ETV
vector 180199  Network.dyn_peer[64]  lookupStabilitySig:vector  ETV
vector 180200  Network.dyn_peer[64]  lookupTimeSig:vector  ETV
vector 180171  Network.dyn_peer[55]  lookupHopsSig:vector  ETV
vector 180172  Network.dyn_peer[55]  lookupStabilitySig:vector  ETV
vector 180173  Network.dyn_peer[55]  lookupTimeSig:vector  ETV
vector 180201  Network.dyn_peer[65]  lookupHopsSig:vector  ETV
vector 180202  Network.dyn_peer[65]  lookupStabilitySig:vector  ETV
vector 180203  Network.dyn_peer[65]  lookupTimeSig:vector  ETV
vector 180114  Network.dyn_peer[36]  lookupHopsSig:vector  ETV
vector 180115  Network.dyn_peer[36]  lookupStabilitySig:vector  ETV
vector 180116  Network.dyn_peer[36]  lookupTimeSig:vector  ETV
vector 180264  Network.dyn_peer[86]  lookupHopsSig:vector  ETV
vector 180265  Network.dyn_peer[86]  lookupStabilitySig:vector  ETV
vector 180266  Network.dyn_peer[86]  lookupTimeSig:vector  ETV
vector 180180  Network.dyn_peer[58]  lookupHopsSig:vector  ETV
vector 180181  Network.dyn_peer[58]  lookupStabilitySig:vector  ETV
vector 180182  Network.dyn_peer[58]  lookupTimeSig:vector  ETV
vector 180225  Network.dyn_peer[73]  lookupHopsSig:vector  ETV
vector 180226  Network.dyn_peer[73]  lookupStabilitySig:vector  ETV
vector 180227  Network.dyn_peer[73]  lookupTimeSig:vector  ETV
vector 180294  Network.dyn_peer[96]  lookupHopsSig:vector  ETV
vector 180295  Network.dyn_peer[96]  lookupStabilitySig:vector  ETV
vector 180296  Network.dyn_peer[96]  lookupTimeSig:vector  ETV
vector 180237  Network.dyn_peer[77]  lookupHopsSig:vector  ETV
vector 180238  Network.dyn_peer[77]  lookupStabilitySig:vector  ETV
vector 180239  Network.dyn_peer[77]  lookupTimeSig:vector  ETV
vector 180210  Network.dyn_peer[68]  lookupHopsSig:vector  ETV
vector 180211  Network.dyn_peer[68]  lookupStabilitySig:vector  ETV
vector 180212  Network.dyn_peer[68]  lookupTimeSig:vector  ETV
vector 180288  Network.dyn_peer[94]  lookupHopsSig:vector  ETV
vector 180289  Network.dyn_peer[94]  lookupStabilitySig:vector  ETV
vector 180290  Network.dyn_peer[94]  lookupTimeSig:vector  ETV
vector 180084  Network.dyn_peer[26]  lookupHopsSig:vector  ETV
vector 180085  Network.dyn_peer[26]  lookupStabilitySig:vector  ETV
vector 180086  Network.dyn_peer[26]  lookupTimeSig:vector  ETV
vector 180267  Network.dyn_peer[87]  lookupHopsSig:vector  ETV
vector 180268  Network.dyn_peer[87]  lookupStabilitySig:vector  ETV
vector 180269  Network.dyn_peer[87]  lookupTimeSig:vector  ETV
vector 180240  Network.dyn_peer[78]  lookupHopsSig:vector  ETV
vector 180241  Network.dyn_peer[78]  lookupStabilitySig:vector  ETV
vector 180242  Network.dyn_peer[78]  lookupTimeSig:vector  ETV
vector 180300  Network.dyn_peer[98]  lookupHopsSig:vector  ETV
vector 180301  Network.dyn_peer[98]  lookupStabilitySig:vector  ETV
vector 180302  Network.dyn_peer[98]  lookupTimeSig:vector  ETV
vector 180243  Network.dyn_peer[79]  lookupHopsSig:vector  ETV
vector 180244  Network.dyn_peer[79]  lookupStabilitySig:vector  ETV
vector 180245  Network.dyn_peer[79]  lookupTimeSig:vector  ETV
vector 180219  Network.dyn_peer[71]  lookupHopsSig:vector  ETV
vector 180220  Network.dyn_peer[71]  lookupStabilitySig:vector  ETV
vector 180221  Network.dyn_peer[71]  lookupTimeSig:vector  ETV
vector 180132  Network.dyn_peer[42]  lookupHopsSig:vector  ETV
vector 180133  Network.dyn_peer[42]  lookupStabilitySig:vector  ETV
vector 180134  Network.dyn_peer[42]  lookupTimeSig:vector  ETV
vector 180165  Network.dyn_peer[53]  lookupHopsSig:vector  ETV
vector 180166  Network.dyn_peer[53]  lookupStabilitySig:vector  ETV
vector 180167  Network.dyn_peer[53]  lookupTimeSig:vector  ETV
vector 180111  Network.dyn_peer[35]  lookupHopsSig:vector  ETV
vector 180112  Network.dyn_peer[35]  lookupStabilitySig:vector  ETV
vector 180113  Network.dyn_peer[35]  lookupTimeSig:vector  ETV
vector 180231  Network.dyn_peer[75]  lookupHopsSig:vector  ETV
vector 180232  Network.dyn_peer[75]  lookupStabilitySig:vector  ETV
vector 180233  Network.dyn_peer[75]  lookupTimeSig:vector  ETV
vector 180216  Network.dyn_peer[70]  lookupHopsSig:vector  ETV
vector 180217  Network.dyn_peer[70]  lookupStabilitySig:vector  ETV
vector 180218  Network.dyn_peer[70]  lookupTimeSig:vector  ETV
vector 180129  Network.dyn_peer[41]  lookupHopsSig:vector  ETV
vector 180130  Network.dyn_peer[41]  lookupStabilitySig:vector  ETV
vector 180131  Network.dyn_peer[41]  lookupTimeSig:vector  ETV
vector 180144  Network.dyn_peer[46]  lookupHopsSig:vector  ETV
vector 180145  Network.dyn_peer[46]  lookupStabilitySig:vector  ETV
vector 180146  Network.dyn_peer[46]  lookupTimeSig:vector  ETV
vector 180207  Network.dyn_peer[67]  lookupHopsSig:vector  ETV
vector 180208  Network.dyn_peer[67]  lookupStabilitySig:vector  ETV
vector 180209  Network.dyn_peer[67]  lookupTimeSig:vector  ETV
vector 180156  Network.dyn_peer[50]  lookupHopsSig:vector  ETV
vector 180157  Network.dyn_peer[50]  lookupStabilitySig:vector  ETV
vector 180158  Network.dyn_peer[50]  lookupTimeSig:vector  ETV
vector 180249  Network.dyn_peer[81]  lookupHopsSig:vector  ETV
vector 180250  Network.dyn_peer[81]  lookupStabilitySig:vector  ETV
vector 180251  Network.dyn_peer[81]  lookupTimeSig:vector  ETV
vector 180279  Network.dyn_peer[91]  lookupHopsSig:vector  ETV
vector 180280  Network.dyn_peer[91]  lookupStabilitySig:vector  ETV
vector 180281  Network.dyn_peer[91]  lookupTimeSig:vector  ETV
vector 180228  Network.dyn_peer[74]  lookupHopsSig:vector  ETV
vector 180229  Network.dyn_peer[74]  lookupStabilitySig:vector  ETV
vector 180230  Network.dyn_peer[74]  lookupTimeSig:vector  ETV
vector 180258  Network.dyn_peer[84]  lookupHopsSig:vector  ETV
vector 180259  Network.dyn_peer[84]  lookupStabilitySig:vector  ETV
vector 180260  Network.dyn_peer[84]  lookupTimeSig:vector  ETV
vector 180291  Network.dyn_peer[95]  lookupHopsSig:vector  ETV
vector 180292  Network.dyn_peer[95]  lookupStabilitySig:vector  ETV
vector 180293  Network.dyn_peer[95]  lookupTimeSig:vector  ETV
vector 180174  Network.dyn_peer[56]  lookupHopsSig:vector  ETV
vector 180175  Network.dyn_peer[56]  lookupStabilitySig:vector  ETV
vector 180176  Network.dyn_peer[56]  lookupTimeSig:vector  ETV
vector 180273  Network.dyn_peer[89]  lookupHopsSig:vector  ETV
vector 180274  Network.dyn_peer[89]  lookupStabilitySig:vector  ETV
vector 180275  Network.dyn_peer[89]  lookupTimeSig:vector  ETV
vector 180276  Network.dyn_peer[90]  lookupHopsSig:vector  ETV
vector 180277  Network.dyn_peer[90]  lookupStabilitySig:vector  ETV
vector 180278  Network.dyn_peer[90]  lookupTimeSig:vector  ETV
vector 180222  Network.dyn_peer[72]  lookupHopsSig:vector  ETV
vector 180223  Network.dyn_peer[72]  lookupStabilitySig:vector  ETV
vector 180224  Network.dyn_peer[72]  lookupTimeSig:vector  ETV
vector 180159  Network.dyn_peer[51]  lookupHopsSig:vector  ETV
vector 180160  Network.dyn_peer[51]  lookupStabilitySig:vector  ETV
vector 180161  Network.dyn_peer[51]  lookupTimeSig:vector  ETV
vector 180150  Network.dyn_peer[48]  lookupHopsSig:vector  ETV
vector 180151  Network.dyn_peer[48]  lookupStabilitySig:vector  ETV
vector 180152  Network.dyn_peer[48]  lookupTimeSig:vector  ETV
vector 180270  Network.dyn_peer[88]  lookupHopsSig:vector  ETV
vector 180271  Network.dyn_peer[88]  lookupStabilitySig:vector  ETV
vector 180272  Network.dyn_peer[88]  lookupTimeSig:vector  ETV
vector 180261  Network.dyn_peer[85]  lookupHopsSig:vector  ETV
vector 180262  Network.dyn_peer[85]  lookupStabilitySig:vector  ETV
vector 180263  Network.dyn_peer[85]  lookupTimeSig:vector  ETV
vector 180297  Network.dyn_peer[97]  lookupHopsSig:vector  ETV
vector 180298  Network.dyn_peer[97]  lookupStabilitySig:vector  ETV
vector 180299  Network.dyn_peer[97]  lookupTimeSig:vector  ETV
180006	886	20.91	9
180006	1181	21.11	1
180006	1720	21.516271679797	3
180006	1991	21.717665137434	1
180007	886	20.91	-0.5
180007	1181	21.11	0.85714285075665
180007	1720	21.516271679797	0.78571428358555
180007	1991	21.717665137434	0.9411764703691
180008	886	20.91	0.9
180008	1181	21.11	0.2
180008	1720	21.516271679797	0.4
180008	1991	21.717665137434	0.2
180009	126	20.22	2
180009	764	20.82	5
180009	1877	21.622232200119	7
180010	126	20.22	0.59999999403954
180010	764	20.82	0
180010	1877	21.622232200119	0.5625
180011	126	20.22	0.2
180011	764	20.82	0.6
180011	1877	21.622232200119	0.8
180012	59	20.13	1
180012	635	20.73	5
180012	1064	21.030660093005	2
180012	2616	22.238715877404	11
180012	2938	22.540709783005	2
180013	59	20.13	0.79999999701977
180013	635	20.73	0
180013	1064	21.030660093005	0.66666665673256
180013	2616	22.238715877404	0.5769230723381
180013	2938	22.540709783005	0.94594594463706
180014	59	20.13	0.1
180014	635	20.73	0.6
180014	1064	21.030660093005	0.3
180014	2616	22.238715877404	1.2
180014	2938	22.540709783005	0.3
180015	219	20.34	3
180015	1470	21.34	9
180015	1753	21.540881718925	1
180016	219	20.34	0.39999997615814
180016	1470	21.34	0.10000002384186
180016	1753	21.540881718925	0.92857142537832
180017	219	20.34	0.3
180017	1470	21.34	1
180017	1753	21.540881718925	0.2
180018	234	20.35	3
180018	2845	22.45	20
180019	234	20.35	0.39999997615814
180019	2845	22.45	0.39393937587738
180020	234	20.35	0.3
180020	2845	22.45	2.1
180021	153	20.26	2
180021	1259	21.16	8
180021	1648	21.46249346002	2
180021	1935	21.664493155563	1
180021	3416	23.067971306768	13
180022	153	20.26	0.59999999403954
180022	1259	21.16	0.11111110448837
180022	1648	21.46249346002	0.85714285075665
180022	1935	21.664493155563	0.9411764703691
180022	3416	23.067971306768	0.71739131212234
180023	153	20.26	0.2
180023	1259	21.16	0.9
180023	1648	21.46249346002	0.3
180023	1935	21.664493155563	0.2
180023	3416	23.067971306768	1.4
180024	85	20.17	1
180024	564	20.67	4
180024	1666	21.47870586697	7
180024	2765	22.384276391861	8
180024	3439	23.090377475188	6
180025	85	20.17	0.79999999701977
180025	564	20.67	0.19999998807907
180025	1666	21.47870586697	0.5
180025	2765	22.384276391861	0.73333331942558
180025	3439	23.090377475188	0.87234042584896
180026	85	20.17	0.1
180026	564	20.67	0.5
180026	1666	21.47870586697	0.8
180026	2765	22.384276391861	0.9
180026	3439	23.090377475188	0.7
180027	94	20.18	1
180027	265	20.384675031071	1
180027	591	20.693482496013	2
180027	860	20.899660462016	1
180027	2339	22.017271763577	8
180027	2594	22.221289189089	1
180027	2830	22.431147080325	1
180028	94	20.18	0.79999999701977
180028	265	20.384675031071	0.79999999701977
180028	591	20.693482496013	0.59999999403954
180028	860	20.899660462016	0.79999999701977
180028	2339	22.017271763577	0.63636362552643
180028	2594	22.221289189089	0.96153846010566
180028	2830	22.431147080325	0.96969696879387
180029	94	20.18	0.1
180029	265	20.384675031071	0.2
180029	591	20.693482496013	0.3
180029	860	20.899660462016	0.2
180029	2339	22.017271763577	0.9
180029	2594	22.221289189089	0.2
180029	2830	22.431147080325	0.2
180030	104	20.19	1
180030	717	20.79	5
180030	3356	22.9996716954	21
180031	104	20.19	0.79999999701977
180031	717	20.79	0
180031	3356	22.9996716954	0.52272728085518
180032	104	20.19	0.1
180032	717	20.79	0.6
180032	3356	22.9996716954	2.2
180033	386	20.5	4
180033	1301	21.2	6
180034	386	20.5	0.19999998807907
180034	1301	21.2	0.33333331346512
180035	386	20.5	0.4
180035	1301	21.2	0.7
180036	49	20.11	0
180036	489	20.61	4
180036	1862	21.618533659428	9
180036	3676	23.421372699483	17
180037	49	20.11	1
180037	489	20.61	0.19999998807907
180037	1862	21.618533659428	0.4375
180037	3676	23.421372699483	0.69090908765793
180038	49	20.11	0
180038	489	20.61	0.5
180038	1862	21.618533659428	1
180038	3676	23.421372699483	1.8
180039	301	20.42	3
180039	1194	21.12	6
180039	2042	21.752826196443	5
180039	3133	22.757689808163	9
180040	301	20.42	0.39999997615814
180040	1194	21.12	0.14285713434219
180040	2042	21.752826196443	0.72222220897675
180040	3133	22.757689808163	0.77500000596046
180041	301	20.42	0.3
180041	1194	21.12	0.7
180041	2042	21.752826196443	0.6
180041	3133	22.757689808163	1
180042	208	20.33	2
180042	2239	21.93	15
180042	3995	23.933064537378	19
180042	4384	24.739163605092	7
180042	4620	25.448209951101	6
180043	208	20.33	0.59999999403954
180043	2239	21.93	0.21052628755569
180043	3995	23.933064537378	0.72463768720627
180043	4384	24.739163605092	0.90909090638161
180043	4620	25.448209951101	0.93103448301554
180044	208	20.33	0.2
180044	2239	21.93	1.6
180044	3995	23.933064537378	2
180044	4384	24.739163605092	0.8
180044	4620	25.448209951101	0.7
180045	223	20.34	2
180045	1238	21.148789395154	7
180045	1479	21.349503715887	1
180046	223	20.34	0.59999999403954
180046	1238	21.148789395154	0.125
180046	1479	21.349503715887	0.89999999850988
180047	223	20.34	0.2
180047	1238	21.148789395154	0.8
180047	1479	21.349503715887	0.2
180048	73	20.15	0
180048	461	20.581097499839	3
180048	1131	21.086649924394	4
180048	1819	21.587210301988	4
180048	3364	23.015927799271	8
180048	3867	23.716519173278	6
180048	3991	23.923702970574	1
180048	4524	25.12697724686	11
180049	73	20.15	1
180049	461	20.581097499839	0.39999997615814
180049	1131	21.086649924394	0.33333331346512
180049	1819	21.587210301988	0.73333331942558
180049	3364	23.015927799271	0.82222221791744
180049	3867	23.716519173278	0.90476190298796
180049	3991	23.923702970574	0.98550724610686
180049	4524	25.12697724686	0.86746987700462
180050	73	20.15	0
180050	461	20.581097499839	0.4
180050	1131	21.086649924394	0.5
180050	1819	21.587210301988	0.5
180050	3364	23.015927799271	0.9
180050	3867	23.716519173278	0.7
180050	3991	23.923702970574	0.2
180050	4524	25.12697724686	1.2
180051	157	20.26	1
180051	1517	21.36983902262	10
180051	2428	22.079542854576	6
180051	2667	22.289254778892	1
180052	157	20.26	0.79999999701977
180052	1517	21.36983902262	0.090909063816071
180052	2428	22.079542854576	0.73913043737411
180052	2667	22.289254778892	0.96296296268702
180053	157	20.26	0.1
180053	1517	21.36983902262	1.1
180053	2428	22.079542854576	0.7
180053	2667	22.289254778892	0.2
180054	251	20.37	2
180054	565	20.67	2
180054	980	20.979849446292	2
180054	2074	21.784168677161	7
180055	251	20.37	0.59999999403954
180055	565	20.67	0.59999999403954
180055	980	20.979849446292	0.66666665673256
180055	2074	21.784168677161	0.61111110448837
180056	251	20.37	0.2
180056	565	20.67	0.3
180056	980	20.979849446292	0.3
180056	2074	21.784168677161	0.8
180057	260	20.38	2
180057	699	20.78	3
180057	3342	22.983954547534	21
180057	3731	23.486575363341	4
180058	260	20.38	0.59999999403954
180058	699	20.78	0.39999997615814
180058	3342	22.983954547534	0.52272728085518
180058	3731	23.486575363341	0.92857142537832
180059	260	20.38	0.2
180059	699	20.78	0.4
180059	3342	22.983954547534	2.2
180059	3731	23.486575363341	0.5
180060	274	20.39	2
180060	2314	21.991590741414	15
180061	274	20.39	0.59999999403954
180061	2314	21.991590741414	0.25
180062	274	20.39	0.2
180062	2314	21.991590741414	1.6
180063	186	20.3	1
180063	600	20.7	3
180063	2096	21.800632898306	10
180063	2577	22.209215120264	3
180064	186	20.3	0.79999999701977
180064	600	20.7	0.39999997615814
180064	2096	21.800632898306	0.4736841917038
180064	2577	22.209215120264	0.875
180065	186	20.3	0.1
180065	600	20.7	0.4
180065	2096	21.800632898306	1.1
180065	2577	22.209215120264	0.4
180066	119	20.21	0
180066	1716	21.51	12
180066	2814	22.422694828674	8
180066	3468	23.124320980974	6
180067	119	20.21	1
180067	1716	21.51	0.14285713434219
180067	2814	22.422694828674	0.75757575035095
180067	3468	23.124320980974	0.87755101919174
180068	119	20.21	0
180068	1716	21.51	1.3
180068	2814	22.422694828674	0.9
180068	3468	23.124320980974	0.7
180069	507	20.62	4
180069	1338	21.227281853775	5
180069	2820	22.428163275725	11
180069	3292	22.929799048452	4
180069	3825	23.635716657935	6
180070	507	20.62	0.19999998807907
180070	1338	21.227281853775	0.5
180070	2820	22.428163275725	0.66666665673256
180070	3292	22.929799048452	0.90697674453259
180070	3825	23.635716657935	0.90163934230804
180071	507	20.62	0.4
180071	1338	21.227281853775	0.6
180071	2820	22.428163275725	1.2
180071	3292	22.929799048452	0.5
180071	3825	23.635716657935	0.7
180072	137	20.23	0
180072	415	20.53	2
180072	1606	21.431704633974	8
180072	1955	21.683725884845	1
180072	2446	22.090890323705	3
180072	2990	22.595248536452	4
180073	137	20.23	1
180073	415	20.53	0.59999999403954
180073	1606	21.431704633974	0.33333331346512
180073	1955	21.683725884845	0.9411764703691
180073	2446	22.090890323705	0.86956521868706
180073	2990	22.595248536452	0.89473684132099
180074	137	20.23	0
180074	415	20.53	0.3
180074	1606	21.431704633974	0.9
180074	1955	21.683725884845	0.2
180074	2446	22.090890323705	0.4
180074	2990	22.595248536452	0.5
180075	323	20.44	2
180075	1219	21.14	6
180075	1627	21.448527904697	2
180075	2391	22.050256325459	5
180075	2851	22.459489538367	3
180075	3226	22.861512555196	3
180075	3638	23.374575933513	4
180075	3780	23.577137886834	1
180076	323	20.44	0.59999999403954
180076	1219	21.14	0.25
180076	1627	21.448527904697	0.85714285075665
180076	2391	22.050256325459	0.78260870277882
180076	2851	22.459489538367	0.91176470369101
180076	3226	22.861512555196	0.92857142537832
180076	3638	23.374575933513	0.92727272957563
180076	3780	23.577137886834	0.98305084742606
180077	323	20.44	0.2
180077	1219	21.14	0.7
180077	1627	21.448527904697	0.3
180077	2391	22.050256325459	0.6
180077	2851	22.459489538367	0.4
180077	3226	22.861512555196	0.4
180077	3638	23.374575933513	0.5
180077	3780	23.577137886834	0.2
180078	335	20.45	2
180078	1249	21.15	6
180079	335	20.45	0.59999999403954
180079	1249	21.15	0.25
180080	335	20.45	0.2
180080	1249	21.15	0.7
180081	345	20.46	2
180081	672	20.76	2
180081	1387	21.26314270894	4
180081	2750	22.374084218173	10
180082	345	20.46	0.59999999403954
180082	672	20.76	0.59999999403954
180082	1387	21.26314270894	0.59999999403954
180082	2750	22.374084218173	0.65517240762711
180083	345	20.46	0.2
180083	672	20.76	0.3
180083	1387	21.26314270894	0.5
180083	2750	22.374084218173	1.1
180084	1792	21.57	13
180084	2059	21.77	1
180084	2422	22.071384874349	2
180084	3326	22.973283018893	8
180084	3647	23.381361979965	3
180084	4025	23.984320954311	5