file 61606 1369933130                                           
version 2
run Stability2-8-20130528-01:22:21-24168
attr configname Stability2
attr datetime 20130528-01:22:21
attr experiment Stability2
attr inifile omnetpp.ini
attr iterationvars $0=10
attr iterationvars2 "$0=10, $repetition=8"
attr measurement $0=10
attr network Network
attr processid 24168
attr repetition 8
attr replication #8
attr resultdir results
attr runnumber 8
attr seedset 8
vector 270008  Network.churner  inGoingSizeSig:vector  ETV
270008	59628 1978 11 1034 20 21 101 0 98 4935 325605
vector 240020  Network.dyn_peer[4]  lookupHopsSig:vector  ETV
240020	21914 127 30 3441 20.05 23.165090728724 5 0 19 27 399
vector 240021  Network.dyn_peer[4]  lookupStabilitySig:vector  ETV
240021	22041 186 30 3441 20.05 23.165090728724 5 0.14285713434219 1 3.4095237851143 2.7448525824947
vector 240022  Network.dyn_peer[4]  lookupTimeSig:vector  ETV
240022	22227 132 30 3441 20.05 23.165090728724 5 0 2 3.1 4.57
vector 240029  Network.dyn_peer[7]  lookupHopsSig:vector  ETV
240029	23003 137 43 2329 20.08 22.010489953818 5 0 6 15 69
vector 240030  Network.dyn_peer[7]  lookupStabilitySig:vector  ETV
240030	23140 187 43 2329 20.08 22.010489953818 5 0.14285713434219 1 3.3394480347633 2.6795106797456
vector 240031  Network.dyn_peer[7]  lookupTimeSig:vector  ETV
240031	23327 145 43 2329 20.08 22.010489953818 5 0 0.7 1.9 1.03
vector 240032  Network.dyn_peer[8]  lookupHopsSig:vector  ETV
240032	23472 97 51 2447 20.09 22.113745699146 4 0 12 17 161
vector 240033  Network.dyn_peer[8]  lookupStabilitySig:vector  ETV
240033	23569 128 51 2447 20.09 22.113745699146 4 0.19999998807907 1 2.4999999850988 1.9299999904633
vector 240034  Network.dyn_peer[8]  lookupTimeSig:vector  ETV
240034	23697 102 51 2447 20.09 22.113745699146 4 0 1.3 2 1.98
vector 240014  Network.dyn_peer[2]  lookupHopsSig:vector  ETV
240014	20654 280 71 4563 20.13 28.010853543252 10 1 11 67 559
vector 240015  Network.dyn_peer[2]  lookupStabilitySig:vector  ETV
240015	20934 419 71 4563 20.13 28.010853543252 10 -0.11111116409302 0.97115384601057 7.7952812258154 7.012588855308
vector 240016  Network.dyn_peer[2]  lookupTimeSig:vector  ETV
240016	21353 295 71 4563 20.13 28.010853543252 10 0.1 1.2 7.6 7
vector 240017  Network.dyn_peer[3]  lookupHopsSig:vector  ETV
240017	21648 77 79 1238 20.14 21.157381149785 3 1 5 9 35
vector 240018  Network.dyn_peer[3]  lookupStabilitySig:vector  ETV
240018	21725 106 79 1238 20.14 21.157381149785 3 0 0.79999999701977 1.3714285641909 0.96653060261085
vector 240019  Network.dyn_peer[3]  lookupTimeSig:vector  ETV
240019	21831 83 79 1238 20.14 21.157381149785 3 0.1 0.6 1.1 0.53
vector 240038  Network.dyn_peer[10]  lookupHopsSig:vector  ETV
240038	24143 98 114 1840 20.21 21.621246499926 4 1 5 12 46
vector 240039  Network.dyn_peer[10]  lookupStabilitySig:vector  ETV
240039	24241 158 114 1840 20.21 21.621246499926 4 0.33333331346512 0.79999999701977 2.3487179130316 1.4898093023322
vector 240040  Network.dyn_peer[10]  lookupTimeSig:vector  ETV
240040	24399 106 114 1840 20.21 21.621246499926 4 0.1 0.6 1.5 0.71
vector 240011  Network.dyn_peer[1]  lookupHopsSig:vector  ETV
240011	20185 128 123 3009 20.22 22.639370289257 5 2 7 22 122
vector 240012  Network.dyn_peer[1]  lookupStabilitySig:vector  ETV
240012	20313 203 123 3009 20.22 22.639370289257 5 0.22222220897675 0.89999999850988 3.0422221943736 2.0977826914586
vector 240013  Network.dyn_peer[1]  lookupTimeSig:vector  ETV
240013	20516 138 123 3009 20.22 22.639370289257 5 0.2 0.8 2.6 1.66
vector 240044  Network.dyn_peer[12]  lookupHopsSig:vector  ETV
240044	25613 69 132 2363 20.23 22.039529032662 3 1 9 17 131
vector 240045  Network.dyn_peer[12]  lookupStabilitySig:vector  ETV
240045	25682 99 132 2363 20.23 22.039529032662 3 0 0.79999999701977 1.4956521838903 1.1239319603294
vector 240046  Network.dyn_peer[12]  lookupTimeSig:vector  ETV
240046	25781 73 132 2363 20.23 22.039529032662 3 0.1 1 1.9 1.65
vector 240080  Network.dyn_peer[24]  lookupHopsSig:vector  ETV
240080	31395 128 149 3956 20.25 24.109608362141 5 0 20 28 426
vector 240081  Network.dyn_peer[24]  lookupStabilitySig:vector  ETV
240081	31523 187 149 3956 20.25 24.109608362141 5 0.39999997615814 1 3.873441696167 3.2264234591353
vector 240082  Network.dyn_peer[24]  lookupTimeSig:vector  ETV
240082	31710 135 149 3956 20.25 24.109608362141 5 0 2.1 3.2 4.86
vector 240023  Network.dyn_peer[5]  lookupHopsSig:vector  ETV
240023	22359 107 157 1141 20.26 21.076844271099 4 1 3 7 15
vector 240024  Network.dyn_peer[5]  lookupStabilitySig:vector  ETV
240024	22466 167 157 1141 20.26 21.076844271099 4 0.39999997615814 0.83333332836628 2.6666666269302 1.908888846106
vector 240025  Network.dyn_peer[5]  lookupTimeSig:vector  ETV
240025	22633 115 157 1141 20.26 21.076844271099 4 0.2 0.4 1 0.28
vector 240008  Network.dyn_peer[0]  lookupHopsSig:vector  ETV
240008	19818 100 191 3087 20.31 22.719747972206 4 3 10 24 170
vector 240009  Network.dyn_peer[0]  lookupStabilitySig:vector  ETV
240009	19918 160 191 3087 20.31 22.719747972206 4 0.090909063816071 0.86363635957241 2.1371541023254 1.5266085820511
vector 240010  Network.dyn_peer[0]  lookupTimeSig:vector  ETV
240010	20078 107 191 3087 20.31 22.719747972206 4 0.3 1.1 2.7 2.15
vector 240047  Network.dyn_peer[13]  lookupHopsSig:vector  ETV
240047	25854 98 212 2717 20.34 22.354654878749 4 2 9 19 117
vector 240048  Network.dyn_peer[13]  lookupStabilitySig:vector  ETV
240048	25952 158 212 2717 20.34 22.354654878749 4 0.19999998807907 0.86206896603107 2.1326571553945 1.3646161510709
vector 240049  Network.dyn_peer[13]  lookupTimeSig:vector  ETV
240049	26110 104 212 2717 20.34 22.354654878749 4 0.2 1 2.2 1.54
vector 240107  Network.dyn_peer[33]  lookupHopsSig:vector  ETV
240107	34839 220 218 4487 20.34 26.611474083797 8 0 15 52 468
vector 240108  Network.dyn_peer[33]  lookupStabilitySig:vector  ETV
240108	35059 324 218 4487 20.34 26.611474083797 8 0.28571426868439 1 6.8072140067816 6.1711505691021
vector 240109  Network.dyn_peer[33]  lookupTimeSig:vector  ETV
240109	35383 233 218 4487 20.34 26.611474083797 8 0 1.6 5.9 5.79
vector 240053  Network.dyn_peer[15]  lookupHopsSig:vector  ETV
240053	26682 99 232 2954 20.36 22.580807167157 4 2 8 21 133
vector 240054  Network.dyn_peer[15]  lookupStabilitySig:vector  ETV
240054	26781 159 232 2954 20.36 22.580807167157 4 0.11111110448837 0.89189188927412 2.3113363310695 1.6695529377255
vector 240055  Network.dyn_peer[15]  lookupTimeSig:vector  ETV
240055	26940 107 232 2954 20.36 22.580807167157 4 0.2 0.9 2.4 1.74
vector 240041  Network.dyn_peer[11]  lookupHopsSig:vector  ETV
240041	24505 307 279 4341 20.42 25.318688075276 11 1 8 41 215
vector 240042  Network.dyn_peer[11]  lookupStabilitySig:vector  ETV
240042	24812 472 279 4341 20.42 25.318688075276 11 0.39999997615814 0.98969072196633 8.768618083559 7.4929881839321
vector 240043  Network.dyn_peer[11]  lookupTimeSig:vector  ETV
240043	25284 329 279 4341 20.42 25.318688075276 11 0.2 0.9 5.1 3.01
vector 240071  Network.dyn_peer[21]  lookupHopsSig:vector  ETV
240071	29691 157 283 3031 20.42 22.660470724129 6 1 7 19 89
vector 240072  Network.dyn_peer[21]  lookupStabilitySig:vector  ETV
240072	29848 233 283 3031 20.42 22.660470724129 6 0.39999997615814 0.97619047574699 4.2658517602831 3.3286874975352
vector 240073  Network.dyn_peer[21]  lookupTimeSig:vector  ETV
240073	30081 169 283 3031 20.42 22.660470724129 6 0.2 0.8 2.4 1.28
vector 240074  Network.dyn_peer[22]  lookupHopsSig:vector  ETV
240074	30250 101 294 3500 20.43 23.231624754314 4 2 13 27 277
vector 240075  Network.dyn_peer[22]  lookupStabilitySig:vector  ETV
240075	30351 147 294 3500 20.43 23.231624754314 4 0.090909063816071 0.9666666649282 2.4075757227838 1.8652088918148
vector 240076  Network.dyn_peer[22]  lookupTimeSig:vector  ETV
240076	30498 107 294 3500 20.43 23.231624754314 4 0.2 1.4 3 3.3
vector 240050  Network.dyn_peer[14]  lookupHopsSig:vector  ETV
240050	26214 128 312 3227 20.45 22.888274036596 5 1 8 23 139
vector 240051  Network.dyn_peer[14]  lookupStabilitySig:vector  ETV
240051	26342 202 312 3227 20.45 22.888274036596 5 0.11111110448837 0.98039215616882 3.0971182119101 2.4254176272392
vector 240052  Network.dyn_peer[14]  lookupTimeSig:vector  ETV
240052	26544 138 312 3227 20.45 22.888274036596 5 0.2 0.9 2.7 1.83
vector 240083  Network.dyn_peer[25]  lookupHopsSig:vector  ETV
240083	31845 250 324 4278 20.46 25.060851138076 9 1 10 37 235
vector 240084  Network.dyn_peer[25]  lookupStabilitySig:vector  ETV
240084	32095 373 324 4278 20.46 25.060851138076 9 0.16666668653488 0.98913043458015 7.3075902191922 6.5112078097063
vector 240085  Network.dyn_peer[25]  lookupTimeSig:vector  ETV
240085	32468 267 324 4278 20.46 25.060851138076 9 0.2 1.1 4.5 3.13
vector 240026  Network.dyn_peer[6]  lookupHopsSig:vector  ETV
240026	22748 69 338 1908 20.47 21.679422535132 3 1 9 14 98
vector 240027  Network.dyn_peer[6]  lookupStabilitySig:vector  ETV
240027	22817 113 338 1908 20.47 21.679422535132 3 0.18181818723679 0.9333333298564 1.3151515051723 0.94416895306254
vector 240028  Network.dyn_peer[6]  lookupTimeSig:vector  ETV
240028	22930 73 338 1908 20.47 21.679422535132 3 0.2 1 1.6 1.2
vector 240059  Network.dyn_peer[17]  lookupHopsSig:vector  ETV
240059	27513 99 348 2856 20.48 22.488806091858 4 2 8 20 126
vector 240060  Network.dyn_peer[17]  lookupStabilitySig:vector  ETV
240060	27612 159 348 2856 20.48 22.488806091858 4 0.19999998807907 0.86666665971279 2.2607842683792 1.5817339084097
vector 240061  Network.dyn_peer[17]  lookupTimeSig:vector  ETV
240061	27771 107 348 2856 20.48 22.488806091858 4 0.3 0.9 2.3 1.63
vector 240119  Network.dyn_peer[37]  lookupHopsSig:vector  ETV
240119	36942 110 352 3325 20.48 22.998039942715 4 1 10 23 175
vector 240120  Network.dyn_peer[37]  lookupStabilitySig:vector  ETV
240120	37052 169 352 3325 20.48 22.998039942715 4 0.23076921701431 0.87037037312984 2.7159544080496 2.1147222055101
vector 240121  Network.dyn_peer[37]  lookupTimeSig:vector  ETV
240121	37221 117 352 3325 20.48 22.998039942715 4 0.1 1.1 2.6 2.22
vector 240122  Network.dyn_peer[38]  lookupHopsSig:vector  ETV
240122	37338 69 363 1533 20.49 21.397608864731 3 1 4 8 26
vector 240123  Network.dyn_peer[38]  lookupStabilitySig:vector  ETV
240123	37407 114 363 1533 20.49 21.397608864731 3 0.33333331346512 0.79999999701977 1.833333298564 1.241111076408
vector 240124  Network.dyn_peer[38]  lookupTimeSig:vector  ETV
240124	37521 75 363 1533 20.49 21.397608864731 3 0.1 0.5 1 0.42
vector 240068  Network.dyn_peer[20]  lookupHopsSig:vector  ETV
240068	29218 130 385 3098 20.51 22.727712124615 5 1 11 21 151
vector 240069  Network.dyn_peer[20]  lookupStabilitySig:vector  ETV
240069	29348 204 385 3098 20.51 22.727712124615 5 0.33333331346512 0.97777777723968 3.2465608064085 2.4673060377189
vector 240070  Network.dyn_peer[20]  lookupTimeSig:vector  ETV
240070	29552 139 385 3098 20.51 22.727712124615 5 0.2 1.2 2.5 1.91
vector 240128  Network.dyn_peer[40]  lookupHopsSig:vector  ETV
240128	37949 70 389 2988 20.51 22.611019557821 3 1 14 20 222
vector 240129  Network.dyn_peer[40]  lookupStabilitySig:vector  ETV
240129	38019 114 389 2988 20.51 22.611019557821 3 0.28571426868439 0.79999999701977 1.7172932177782 1.1205246112644
vector 240130  Network.dyn_peer[40]  lookupTimeSig:vector  ETV
240130	38133 75 389 2988 20.51 22.611019557821 3 0.1 1.5 2.2 2.62
vector 240104  Network.dyn_peer[32]  lookupHopsSig:vector  ETV
240104	34485 100 412 3005 20.53 22.635216806472 4 2 12 20 168
vector 240105  Network.dyn_peer[32]  lookupStabilitySig:vector  ETV
240105	34585 147 412 3005 20.53 22.635216806472 4 0.25 0.94871794804931 2.6607869081199 2.0657286399922
vector 240106  Network.dyn_peer[32]  lookupTimeSig:vector  ETV
240106	34732 107 412 3005 20.53 22.635216806472 4 0.2 1.3 2.3 2.07
vector 240110  Network.dyn_peer[34]  lookupHopsSig:vector  ETV
240110	35616 69 432 2262 20.55 21.957868067536 3 2 8 14 84
vector 240111  Network.dyn_peer[34]  lookupStabilitySig:vector  ETV
240111	35685 114 432 2262 20.55 21.957868067536 3 0.27272725105286 0.80952380597591 1.6822510510683 1.089708938756
vector 240112  Network.dyn_peer[34]  lookupTimeSig:vector  ETV
240112	35799 75 432 2262 20.55 21.957868067536 3 0.2 0.9 1.6 1.1
vector 240113  Network.dyn_peer[35]  lookupHopsSig:vector  ETV
240113	35874 139 443 3048 20.56 22.678035850048 5 1 5 15 59
vector 240114  Network.dyn_peer[35]  lookupStabilitySig:vector  ETV
240114	36013 201 443 3048 20.56 22.678035850048 5 0.375 0.9772727265954 3.7011414952576 2.9938669817216
vector 240115  Network.dyn_peer[35]  lookupTimeSig:vector  ETV
240115	36214 149 443 3048 20.56 22.678035850048 5 0.2 0.6 1.9 0.89
vector 240056  Network.dyn_peer[16]  lookupHopsSig:vector  ETV
240056	27047 131 460 3870 20.57 23.887091177217 5 3 12 33 285
vector 240057  Network.dyn_peer[16]  lookupStabilitySig:vector  ETV
240057	27178 196 460 3870 20.57 23.887091177217 5 0.19999998807907 0.953125 3.247146140784 2.6190975877085
vector 240058  Network.dyn_peer[16]  lookupTimeSig:vector  ETV
240058	27374 139 460 3870 20.57 23.887091177217 5 0.4 1.3 3.7 3.47
vector 240086  Network.dyn_peer[26]  lookupHopsSig:vector  ETV
240086	32735 68 464 1506 20.57 21.375427305127 3 3 3 9 27
vector 240087  Network.dyn_peer[26]  lookupStabilitySig:vector  ETV
240087	32803 100 464 1506 20.57 21.375427305127 3 0.39999997615814 0.66666665673256 1.5666666328907 0.85444441212548
vector 240088  Network.dyn_peer[26]  lookupTimeSig:vector  ETV
240088	32903 74 464 1506 20.57 21.375427305127 3 0.3 0.4 1.1 0.41
vector 240062  Network.dyn_peer[18]  lookupHopsSig:vector  ETV
240062	27878 69 482 3605 20.59 23.39786240654 3 4 17 30 386
vector 240063  Network.dyn_peer[18]  lookupStabilitySig:vector  ETV
240063	27947 113 482 3605 20.59 23.39786240654 3 0.19999998807907 0.73846152424812 1.2461538016796 0.67999996295342
vector 240064  Network.dyn_peer[18]  lookupTimeSig:vector  ETV
240064	28060 72 482 3605 20.59 23.39786240654 3 0.4 1.8 3.2 4.4
vector 240035  Network.dyn_peer[9]  lookupHopsSig:vector  ETV
240035	23799 97 495 3259 20.6 22.917178809369 4 5 8 25 163
vector 240036  Network.dyn_peer[9]  lookupStabilitySig:vector  ETV
240036	23896 142 495 3259 20.6 22.917178809369 4 0 0.90196078270674 1.9897350892425 1.4701404110325
vector 240037  Network.dyn_peer[9]  lookupTimeSig:vector  ETV
240037	24038 105 495 3259 20.6 22.917178809369 4 0.5 0.9 2.8 2.06
vector 240095  Network.dyn_peer[29]  lookupHopsSig:vector  ETV
240095	33485 98 499 3800 20.6 23.719271648784 4 3 16 31 355
vector 240096  Network.dyn_peer[29]  lookupStabilitySig:vector  ETV
240096	33583 157 499 3800 20.6 23.719271648784 4 0.30769228935242 0.96052631735802 2.4142503142357 1.7338486763974
vector 240097  Network.dyn_peer[29]  lookupTimeSig:vector  ETV
240097	33740 103 499 3800 20.6 23.719271648784 4 0.3 1.7 3.4 4.14
vector 240131  Network.dyn_peer[41]  lookupHopsSig:vector  ETV
240131	38208 71 522 3686 20.62 23.523446394468 3 2 17 29 393
vector 240132  Network.dyn_peer[41]  lookupStabilitySig:vector  ETV
240132	38279 103 522 3686 20.62 23.523446394468 3 0.375 0.75714285671711 1.7321428507567 1.0738902983252
vector 240133  Network.dyn_peer[41]  lookupTimeSig:vector  ETV
240133	38382 75 522 3686 20.62 23.523446394468 3 0.2 1.8 3.1 4.49
vector 240089  Network.dyn_peer[27]  lookupHopsSig:vector  ETV
240089	32977 70 586 2645 20.68 22.285384957999 3 3 11 18 146
vector 240090  Network.dyn_peer[27]  lookupStabilitySig:vector  ETV
240090	33047 113 586 2645 20.68 22.285384957999 3 0.19999998807907 0.59259259700775 1.3640211522579 0.71769658863923
vector 240091  Network.dyn_peer[27]  lookupTimeSig:vector  ETV
240091	33160 75 586 2645 20.68 22.285384957999 3 0.4 1.2 2 1.76
vector 240149  Network.dyn_peer[47]  lookupHopsSig:vector  ETV
240149	39970 39 590 1775 20.68 21.58 2 2 8 10 68
vector 240150  Network.dyn_peer[47]  lookupStabilitySig:vector  ETV
240150	40009 69 590 1775 20.68 21.58 2 0.33333331346512 0.59999999403954 0.93333330750466 0.47111109071308
vector 240151  Network.dyn_peer[47]  lookupTimeSig:vector  ETV
240151	40078 43 590 1775 20.68 21.58 2 0.2 0.9 1.1 0.85
vector 240179  Network.dyn_peer[57]  lookupHopsSig:vector  ETV
240179	42706 98 594 3463 20.68 23.18562520954 4 1 9 23 171
vector 240180  Network.dyn_peer[57]  lookupStabilitySig:vector  ETV
240180	42804 158 594 3463 20.68 23.18562520954 4 0.44444441795349 0.84745763242245 2.7956057488918 2.0509141741321
vector 240181  Network.dyn_peer[57]  lookupTimeSig:vector  ETV
240181	42962 104 594 3463 20.68 23.18562520954 4 0.1 1 2.6 2.18
vector 240152  Network.dyn_peer[48]  lookupHopsSig:vector  ETV
240152	40121 40 607 3600 20.69 23.39 2 2 26 28 680
vector 240153  Network.dyn_peer[48]  lookupStabilitySig:vector  ETV
240153	40161 60 607 3600 20.69 23.39 2 0.59375 0.59999999403954 1.1937499940395 0.71253905534745
vector 240154  Network.dyn_peer[48]  lookupTimeSig:vector  ETV
240154	40221 43 607 3600 20.69 23.39 2 0.2 2.7 2.9 7.33
vector 240161  Network.dyn_peer[51]  lookupHopsSig:vector  ETV
240161	40977 70 642 3625 20.72 23.422265070602 3 2 16 27 341
vector 240162  Network.dyn_peer[51]  lookupStabilitySig:vector  ETV
240162	41047 101 642 3625 20.72 23.422265070602 3 0.5 0.86567163467407 1.9656716287136 1.3593873719267
vector 240163  Network.dyn_peer[51]  lookupTimeSig:vector  ETV
240163	41148 73 642 3625 20.72 23.422265070602 3 0.2 1.7 2.9 3.93
vector 240137  Network.dyn_peer[43]  lookupHopsSig:vector  ETV
240137	38611 131 668 4276 20.74 25.058923723627 5 3 15 42 434
vector 240138  Network.dyn_peer[43]  lookupStabilitySig:vector  ETV
240138	38742 204 668 4276 20.74 25.058923723627 5 0.39999997615814 0.91304347664118 3.377780534327 2.5072627581773
vector 240139  Network.dyn_peer[43]  lookupTimeSig:vector  ETV
240139	38946 139 668 4276 20.74 25.058923723627 5 0.3 1.6 4.6 5.16
vector 240140  Network.dyn_peer[44]  lookupHopsSig:vector  ETV
240140	39085 99 682 2927 20.75 22.55993244212 4 2 11 18 138
vector 240141  Network.dyn_peer[44]  lookupStabilitySig:vector  ETV
240141	39184 158 682 2927 20.75 22.55993244212 4 0.39999997615814 0.77777777612209 2.5388888567686 1.6916357721738
vector 240142  Network.dyn_peer[44]  lookupTimeSig:vector  ETV
240142	39342 106 682 2927 20.75 22.55993244212 4 0.3 1.2 2.1 1.71
vector 240170  Network.dyn_peer[54]  lookupHopsSig:vector  ETV
240170	41719 40 686 3022 20.75 22.65 2 2 18 20 328
vector 240171  Network.dyn_peer[54]  lookupStabilitySig:vector  ETV
240171	41759 69 686 3022 20.75 22.65 2 0.56097561120987 0.59999999403954 1.1609756052494 0.67469362921974
vector 240172  Network.dyn_peer[54]  lookupTimeSig:vector  ETV
240172	41828 43 686 3022 20.75 22.65 2 0.2 1.9 2.1 3.65
vector 240116  Network.dyn_peer[36]  lookupHopsSig:vector  ETV
240116	36363 159 716 3785 20.77 23.699003947612 6 2 8 28 168
vector 240117  Network.dyn_peer[36]  lookupStabilitySig:vector  ETV
240117	36522 249 716 3785 20.77 23.699003947612 6 0.19999998807907 0.94594594463706 4.3142960630357 3.5874876716268
vector 240118  Network.dyn_peer[36]  lookupTimeSig:vector  ETV
240118	36771 171 716 3785 20.77 23.699003947612 6 0.3 0.9 3.3 2.21
vector 240077  Network.dyn_peer[23]  lookupHopsSig:vector  ETV
240077	30605 220 805 4508 20.84 26.976546827238 8 4 11 60 492
vector 240078  Network.dyn_peer[23]  lookupStabilitySig:vector  ETV
240078	30825 338 805 4508 20.84 26.976546827238 8 -0.20000004768372 0.9545454531908 5.6436254531145 5.035488198716
vector 240079  Network.dyn_peer[23]  lookupTimeSig:vector  ETV
240079	31163 232 805 4508 20.84 26.976546827238 8 0.5 1.2 6.7 6.07
vector 240263  Network.dyn_peer[85]  lookupHopsSig:vector  ETV
240263	54437 190 834 4310 20.86 25.182219890307 7 0 11 37 269
vector 240264  Network.dyn_peer[85]  lookupStabilitySig:vector  ETV
240264	54627 278 834 4310 20.86 25.182219890307 7 0.54166665673256 1 6.1702488623559 5.5862973354158
vector 240265  Network.dyn_peer[85]  lookupTimeSig:vector  ETV
240265	54905 201 834 4310 20.86 25.182219890307 7 0 1.2 4.3 3.49
vector 240146  Network.dyn_peer[46]  lookupHopsSig:vector  ETV
240146	39604 101 851 4226 20.87 24.877009852199 4 2 24 41 717
vector 240147  Network.dyn_peer[46]  lookupStabilitySig:vector  ETV
240147	39705 158 851 4226 20.87 24.877009852199 4 0.33333331346512 0.9772727265954 2.5764106288552 1.8839515916799
vector 240148  Network.dyn_peer[46]  lookupTimeSig:vector  ETV
240148	39863 107 851 4226 20.87 24.877009852199 4 0.3 2.5 4.4 7.94
vector 240206  Network.dyn_peer[66]  lookupHopsSig:vector  ETV
240206	46884 70 855 3133 20.87 22.772370558734 3 2 12 19 173
vector 240207  Network.dyn_peer[66]  lookupStabilitySig:vector  ETV
240207	46954 114 855 3133 20.87 22.772370558734 3 0.53846153616905 0.89583333581686 2.1009615287185 1.5369026226933
vector 240208  Network.dyn_peer[66]  lookupTimeSig:vector  ETV
240208	47068 75 855 3133 20.87 22.772370558734 3 0.2 1.3 2.1 2.09
vector 240101  Network.dyn_peer[31]  lookupHopsSig:vector  ETV
240101	34135 99 917 3417 20.92 23.127409776595 4 5 8 25 161
vector 240102  Network.dyn_peer[31]  lookupStabilitySig:vector  ETV
240102	34234 144 917 3417 20.92 23.127409776595 4 0 0.91071428358555 2.2206043899059 1.714443371106
vector 240103  Network.dyn_peer[31]  lookupTimeSig:vector  ETV
240103	34378 107 917 3417 20.92 23.127409776595 4 0.6 0.9 2.8 2.02
vector 240167  Network.dyn_peer[53]  lookupHopsSig:vector  ETV
240167	41568 39 948 1723 20.94 21.54 2 4 5 9 41
vector 240168  Network.dyn_peer[53]  lookupStabilitySig:vector  ETV
240168	41607 69 948 1723 20.94 21.54 2 0.33333331346512 0.54545453190804 0.87878784537316 0.40863174424466
vector 240169  Network.dyn_peer[53]  lookupTimeSig:vector  ETV
240169	41676 43 948 1723 20.94 21.54 2 0.4 0.6 1 0.52
vector 240230  Network.dyn_peer[74]  lookupHopsSig:vector  ETV
240230	50336 99 963 3122 20.95 22.764068836212 4 1 9 17 111
vector 240231  Network.dyn_peer[74]  lookupStabilitySig:vector  ETV
240231	50435 149 963 3122 20.95 22.764068836212 4 0.58333334326744 0.9375 2.9918478280306 2.3106038990241
vector 240232  Network.dyn_peer[74]  lookupTimeSig:vector  ETV
240232	50584 105 963 3122 20.95 22.764068836212 4 0.2 1 2 1.44
vector 240293  Network.dyn_peer[95]  lookupHopsSig:vector  ETV
240293	57948 69 980 2731 20.96 22.368838091483 3 0 6 12 72
vector 240294  Network.dyn_peer[95]  lookupStabilitySig:vector  ETV
240294	58017 99 980 2731 20.96 22.368838091483 3 0.59999999403954 1 2.3999999910593 1.9999999880791
vector 240295  Network.dyn_peer[95]  lookupTimeSig:vector  ETV
240295	58116 73 980 2731 20.96 22.368838091483 3 0 0.7 1.4 0.98
vector 240065  Network.dyn_peer[19]  lookupHopsSig:vector  ETV
240065	28132 306 1038 4598 21 30.314562255287 11 1 12 80 690
vector 240066  Network.dyn_peer[19]  lookupStabilitySig:vector  ETV
240066	28438 458 1038 4598 21 30.314562255287 11 -0.33333337306976 0.95238095149398 8.5720936134458 8.1291997336871
vector 240067  Network.dyn_peer[19]  lookupTimeSig:vector  ETV
240067	28896 322 1038 4598 21 30.314562255287 11 0.2 1.3 9 8.44
vector 240098  Network.dyn_peer[30]  lookupHopsSig:vector  ETV
240098	33843 80 1054 2222 21.01 21.915568392322 3 3 7 14 74
vector 240099  Network.dyn_peer[30]  lookupStabilitySig:vector  ETV
240099	33923 126 1054 2222 21.01 21.915568392322 3 -0.16666662693024 0.84210526943207 1.3118022680283 1.1418777132307
vector 240100  Network.dyn_peer[30]  lookupTimeSig:vector  ETV
240100	34049 86 1054 2222 21.01 21.915568392322 3 0.4 0.7 1.6 0.9
vector 240158  Network.dyn_peer[50]  lookupHopsSig:vector  ETV
240158	40617 98 1059 3353 21.01 23.024427018307 4 3 9 22 140
vector 240159  Network.dyn_peer[50]  lookupStabilitySig:vector  ETV
240159	40715 158 1059 3353 21.01 23.024427018307 4 0.16666668653488 0.86956521868706 2.4879801571369 1.8621238143527
vector 240160  Network.dyn_peer[50]  lookupTimeSig:vector  ETV
240160	40873 104 1059 3353 21.01 23.024427018307 4 0.4 1 2.5 1.77
vector 240188  Network.dyn_peer[60]  lookupHopsSig:vector  ETV
240188	44317 159 1063 4009 21.01 24.234894271317 6 3 8 31 185
vector 240189  Network.dyn_peer[60]  lookupStabilitySig:vector  ETV
240189	44476 236 1063 4009 21.01 24.234894271317 6 0.33333331346512 0.95121951401234 4.5070203505457 3.6699905209039
vector 240190  Network.dyn_peer[60]  lookupTimeSig:vector  ETV
240190	44712 171 1063 4009 21.01 24.234894271317 6 0.4 0.9 3.6 2.44
vector 240176  Network.dyn_peer[56]  lookupHopsSig:vector  ETV
240176	42237 128 1138 3452 21.07 23.1796861226 5 2 8 22 118
vector 240177  Network.dyn_peer[56]  lookupStabilitySig:vector  ETV
240177	42365 203 1138 3452 21.07 23.1796861226 5 0.16666668653488 0.93181817978621 3.5918089002371 3.0251855963175
vector 240178  Network.dyn_peer[56]  lookupTimeSig:vector  ETV
240178	42568 138 1138 3452 21.07 23.1796861226 5 0.3 0.9 2.6 1.56
vector 240281  Network.dyn_peer[91]  lookupHopsSig:vector  ETV
240281	56492 40 1199 2231 21.12 21.92 2 2 7 9 53
vector 240282  Network.dyn_peer[91]  lookupStabilitySig:vector  ETV
240282	56532 70 1199 2231 21.12 21.92 2 0.65000000596046 0.71428570151329 1.3642857074737 0.93270407113493
vector 240283  Network.dyn_peer[91]  lookupTimeSig:vector  ETV
240283	56602 44 1199 2231 21.12 21.92 2 0.2 0.8 1 0.68
vector 240194  Network.dyn_peer[62]  lookupHopsSig:vector  ETV
240194	45337 70 1218 2116 21.13 21.830891072985 3 2 5 10 38
vector 240195  Network.dyn_peer[62]  lookupStabilitySig:vector  ETV
240195	45407 105 1218 2116 21.13 21.830891072985 3 0.28571426868439 0.81818181276321 1.9163960814476 1.4112103720663
vector 240196  Network.dyn_peer[62]  lookupTimeSig:vector  ETV
240196	45512 76 1218 2116 21.13 21.830891072985 3 0.3 0.5 1.2 0.5
vector 240125  Network.dyn_peer[39]  lookupHopsSig:vector  ETV
240125	37596 99 1297 3733 21.2 23.604104509888 4 5 11 29 235
vector 240126  Network.dyn_peer[39]  lookupStabilitySig:vector  ETV
240126	37695 148 1297 3733 21.2 23.604104509888 4 0.11111110448837 0.93055555224419 2.5254629552364 1.9850233583641
vector 240127  Network.dyn_peer[39]  lookupTimeSig:vector  ETV
240127	37843 106 1297 3733 21.2 23.604104509888 4 0.6 1.2 3.2 2.8
vector 240287  Network.dyn_peer[93]  lookupHopsSig:vector  ETV
240287	57004 160 1347 4253 21.24 24.963683495863 6 3 9 35 245
vector 240288  Network.dyn_peer[93]  lookupStabilitySig:vector  ETV
240288	57164 249 1347 4253 21.24 24.963683495863 6 0.66666665673256 0.95604395493865 5.0141251422465 4.2790242039317
vector 240289  Network.dyn_peer[93]  lookupTimeSig:vector  ETV
240289	57413 168 1347 4253 21.24 24.963683495863 6 0.3 1 4 3.14
vector 240173  Network.dyn_peer[55]  lookupHopsSig:vector  ETV
240173	41871 100 1369 3037 21.26 22.666833715296 4 1 9 18 132
vector 240174  Network.dyn_peer[55]  lookupStabilitySig:vector  ETV
240174	41971 160 1369 3037 21.26 22.666833715296 4 0.22222220897675 0.97674418613315 2.8433514051139 2.3705156101951
vector 240175  Network.dyn_peer[55]  lookupTimeSig:vector  ETV
240175	42131 106 1369 3037 21.26 22.666833715296 4 0.2 1 2.1 1.57
vector 240092  Network.dyn_peer[28]  lookupHopsSig:vector  ETV
240092	33235 71 1407 2658 21.29 22.296427631103 3 3 10 18 134
vector 240093  Network.dyn_peer[28]  lookupStabilitySig:vector  ETV
240093	33306 105 1407 2658 21.29 22.296427631103 3 -0.11111116409302 0.8214285671711 1.5228174030781 1.3472468317509
vector 240094  Network.dyn_peer[28]  lookupTimeSig:vector  ETV
240094	33411 74 1407 2658 21.29 22.296427631103 3 0.4 1 2 1.52
vector 240251  Network.dyn_peer[81]  lookupHopsSig:vector  ETV
240251	53283 41 1441 3682 21.32 23.52 2 5 21 26 466
vector 240252  Network.dyn_peer[81]  lookupStabilitySig:vector  ETV
240252	53324 70 1441 3682 21.32 23.52 2 0.44444441795349 0.69117647409439 1.1356208920479 0.67525575899157
vector 240253  Network.dyn_peer[81]  lookupTimeSig:vector  ETV
240253	53394 44 1441 3682 21.32 23.52 2 0.5 2.2 2.7 5.09
vector 240200  Network.dyn_peer[64]  lookupHopsSig:vector  ETV
240200	45943 128 1480 4132 21.35 24.56774596511 5 3 11 35 277
vector 240201  Network.dyn_peer[64]  lookupStabilitySig:vector  ETV
240201	46071 202 1480 4132 21.35 24.56774596511 5 0.22222220897675 0.96551724150777 3.6522868461907 3.0186254330605
vector 240202  Network.dyn_peer[64]  lookupTimeSig:vector  ETV
240202	46273 137 1480 4132 21.35 24.56774596511 5 0.4 1.2 3.9 3.37
vector 240242  Network.dyn_peer[78]  lookupHopsSig:vector  ETV
240242	52101 70 1529 3320 21.39 22.992956353062 3 6 7 20 134
vector 240243  Network.dyn_peer[78]  lookupStabilitySig:vector  ETV
240243	52171 115 1529 3320 21.39 22.992956353062 3 0.39999997615814 0.86792452633381 2.0086652487516 1.4619898175076
vector 240244  Network.dyn_peer[78]  lookupTimeSig:vector  ETV
240244	52286 76 1529 3320 21.39 22.992956353062 3 0.6 0.8 2.2 1.64
vector 240134  Network.dyn_peer[42]  lookupHopsSig:vector  ETV
240134	38457 41 1583 2470 21.43 22.13 2 6 10 16 136
vector 240135  Network.dyn_peer[42]  lookupStabilitySig:vector  ETV
240135	38498 71 1583 2470 21.43 22.13 2 0.090909063816071 0.76000000536442 0.85090906918049 0.58586446603783
vector 240136  Network.dyn_peer[42]  lookupTimeSig:vector  ETV
240136	38569 42 1583 2470 21.43 22.13 2 0.7 1 1.7 1.49
vector 240224  Network.dyn_peer[72]  lookupHopsSig:vector  ETV
240224	49921 41 1587 2906 21.43 22.53 2 7 10 17 149
vector 240225  Network.dyn_peer[72]  lookupStabilitySig:vector  ETV
240225	49962 70 1587 2906 21.43 22.53 2 0.36363637447357 0.71428570151329 1.0779220759869 0.64243547622662
vector 240226  Network.dyn_peer[72]  lookupTimeSig:vector  ETV
240226	50032 44 1587 2906 21.43 22.53 2 0.7 1.1 1.8 1.7
vector 240185  Network.dyn_peer[59]  lookupHopsSig:vector  ETV
240185	43752 159 1668 4241 21.5 24.920549817277 6 2 10 38 302
vector 240186  Network.dyn_peer[59]  lookupStabilitySig:vector  ETV
240186	43911 236 1668 4241 21.5 24.920549817277 6 0.18181818723679 0.97435897402465 4.6182084660977 3.982240900033
vector 240187  Network.dyn_peer[59]  lookupTimeSig:vector  ETV
240187	44147 170 1668 4241 21.5 24.920549817277 6 0.3 1.1 4.3 3.65
vector 240215  Network.dyn_peer[69]  lookupHopsSig:vector  ETV
240215	48188 39 1672 3159 21.5 22.8 2 8 12 20 208
vector 240216  Network.dyn_peer[69]  lookupStabilitySig:vector  ETV