file 4647624 1369933131                                         
version 2
run Stability2-87-20130528-01:44:28-24168
attr configname Stability2
attr datetime 20130528-01:44:28
attr experiment Stability2
attr inifile omnetpp.ini
attr iterationvars $0=400
attr iterationvars2 "$0=400, $repetition=7"
attr measurement $0=400
attr network Network
attr processid 24168
attr repetition 7
attr replication #7
attr resultdir results
attr runnumber 87
attr seedset 87
vector 2640087  Network.churner  inGoingSizeSig:vector  ETV
2640087	4547800 99824 10 613076 20 60 4001 0 1778 4253372 5484531160
vector 2610114  Network.dyn_peer[9]  lookupHopsSig:vector  ETV
2610114	824976 529 44 619053 20.1 60.228871963735 17 0 57 347 12321
vector 2610115  Network.dyn_peer[9]  lookupStabilitySig:vector  ETV
2610115	825505 748 44 619053 20.1 60.228871963735 17 0.39999997615814 1 15.017234552419 13.724738644093
vector 2610116  Network.dyn_peer[9]  lookupTimeSig:vector  ETV
2610116	826253 550 44 619053 20.1 60.228871963735 17 0 5.8 36.3 130.31
vector 2610087  Network.dyn_peer[0]  lookupHopsSig:vector  ETV
2610087	809125 508 50 715315 20.11 64.087713876604 16 1 52 264 7272
vector 2610088  Network.dyn_peer[0]  lookupStabilitySig:vector  ETV
2610088	809633 708 50 715315 20.11 64.087713876604 16 0 0.99602648988366 13.33622788405 12.145121912639
vector 2610089  Network.dyn_peer[0]  lookupTimeSig:vector  ETV
2610089	810341 529 50 715315 20.11 64.087713876604 16 0.1 5.3 27.9 78.13
vector 2610090  Network.dyn_peer[1]  lookupHopsSig:vector  ETV
2610090	810870 545 59 785450 20.12 67.293823051325 17 1 59 381 12377
vector 2610091  Network.dyn_peer[1]  lookupStabilitySig:vector  ETV
2610091	811415 775 59 785450 20.12 67.293823051325 17 0.59999999403954 0.99161776993424 14.95623461809 13.452072129189
vector 2610092  Network.dyn_peer[1]  lookupTimeSig:vector  ETV
2610092	812190 564 59 785450 20.12 67.293823051325 17 0.1 6 39.7 131.53
vector 2610102  Network.dyn_peer[5]  lookupHopsSig:vector  ETV
2610102	817085 524 80 743386 20.16 65.321710479637 17 1 78 352 17876
vector 2610103  Network.dyn_peer[5]  lookupStabilitySig:vector  ETV
2610103	817609 759 80 743386 20.16 65.321710479637 17 0.59999999403954 0.97076023370028 14.690626043826 12.947898578288
vector 2610104  Network.dyn_peer[5]  lookupTimeSig:vector  ETV
2610104	818368 551 80 743386 20.16 65.321710479637 17 0.1 7.9 36.8 185.94
vector 2610105  Network.dyn_peer[6]  lookupHopsSig:vector  ETV
2610105	818919 534 88 892102 20.17 73.548513059519 17 1 80 383 20157
vector 2610106  Network.dyn_peer[6]  lookupStabilitySig:vector  ETV
2610106	819453 764 88 892102 20.17 73.548513059519 17 0 0.99885364924558 14.627685026033 13.552650137085
vector 2610107  Network.dyn_peer[6]  lookupTimeSig:vector  ETV
2610107	820217 557 88 892102 20.17 73.548513059519 17 0.1 8.1 39.9 209.37
vector 2610111  Network.dyn_peer[8]  lookupHopsSig:vector  ETV
2610111	822764 634 100 834299 20.19 69.866336647913 20 1 45 346 9120
vector 2610112  Network.dyn_peer[8]  lookupStabilitySig:vector  ETV
2610112	823398 919 100 834299 20.19 69.866336647913 20 0.28571426868439 0.99208534043282 17.770714883693 16.341579382725
vector 2610113  Network.dyn_peer[8]  lookupTimeSig:vector  ETV
2610113	824317 659 100 834299 20.19 69.866336647913 20 0.1 4.6 36.5 98.29
vector 2610117  Network.dyn_peer[10]  lookupHopsSig:vector  ETV
2610117	826803 474 112 744554 20.21 65.375560644026 15 1 59 276 11466
vector 2610118  Network.dyn_peer[10]  lookupStabilitySig:vector  ETV
2610118	827277 680 112 744554 20.21 65.375560644026 15 0.19999998807907 0.99320882838219 12.894025617279 11.698527692054
vector 2610119  Network.dyn_peer[10]  lookupTimeSig:vector  ETV
2610119	827957 493 112 744554 20.21 65.375560644026 15 0.1 6 29 120.3
vector 2610093  Network.dyn_peer[2]  lookupHopsSig:vector  ETV
2610093	812754 404 129 608346 20.23 59.826591937846 13 2 58 276 9936
vector 2610094  Network.dyn_peer[2]  lookupStabilitySig:vector  ETV
2610094	813158 575 129 608346 20.23 59.826591937846 13 0 0.99232158996165 10.354021433741 9.2852064902697
vector 2610095  Network.dyn_peer[2]  lookupTimeSig:vector  ETV
2610095	813733 421 129 608346 20.23 59.826591937846 13 0.2 5.9 28.8 104.96
vector 2610156  Network.dyn_peer[23]  lookupHopsSig:vector  ETV
2610156	846617 363 140 334454 20.24 48.172933899179 12 0 100 234 14980
vector 2610157  Network.dyn_peer[23]  lookupStabilitySig:vector  ETV
2610157	846980 509 140 334454 20.24 48.172933899179 12 0.19999998807907 1 9.9961170945316 8.958013770452
vector 2610158  Network.dyn_peer[23]  lookupTimeSig:vector  ETV
2610158	847489 381 140 334454 20.24 48.172933899179 12 0 10.1 24.5 154.59
vector 2610099  Network.dyn_peer[4]  lookupHopsSig:vector  ETV
2610099	815112 568 147 900520 20.25 74.172395639644 18 2 59 370 13276
vector 2610100  Network.dyn_peer[4]  lookupStabilitySig:vector  ETV
2610100	815680 815 147 900520 20.25 74.172395639644 18 0.16666668653488 0.99588086176664 15.851312669925 14.662949210211
vector 2610101  Network.dyn_peer[4]  lookupTimeSig:vector  ETV
2610101	816495 590 147 900520 20.25 74.172395639644 18 0.2 6 38.7 140.29
vector 2610108  Network.dyn_peer[7]  lookupHopsSig:vector  ETV
2610108	820774 572 167 694144 20.28 63.194756770705 18 2 43 325 8775
vector 2610109  Network.dyn_peer[7]  lookupStabilitySig:vector  ETV
2610109	821346 827 167 694144 20.28 63.194756770705 18 0.16666668653488 0.9959399108775 15.874069457408 14.746303244601
vector 2610110  Network.dyn_peer[7]  lookupTimeSig:vector  ETV
2610110	822173 591 167 694144 20.28 63.194756770705 18 0.2 4.4 34.2 94.38
vector 2610138  Network.dyn_peer[17]  lookupHopsSig:vector  ETV
2610138	838874 314 171 427660 20.28 52.475785137694 10 1 56 194 7100
vector 2610139  Network.dyn_peer[17]  lookupStabilitySig:vector  ETV
2610139	839188 446 171 427660 20.28 52.475785137694 10 0.25 0.98840579669923 8.3751489324495 7.4340303175753
vector 2610140  Network.dyn_peer[17]  lookupTimeSig:vector  ETV
2610140	839634 326 171 427660 20.28 52.475785137694 10 0.1 5.7 20.3 74.95
vector 2610141  Network.dyn_peer[18]  lookupHopsSig:vector  ETV
2610141	839960 433 181 580126 20.29 58.756767887499 14 1 58 283 10033
vector 2610142  Network.dyn_peer[18]  lookupStabilitySig:vector  ETV
2610142	840393 620 181 580126 20.29 58.756767887499 14 0.5 0.99448656104505 12.339297598228 11.134654889254
vector 2610143  Network.dyn_peer[18]  lookupTimeSig:vector  ETV
2610143	841013 447 181 580126 20.29 58.756767887499 14 0.1 5.9 29.6 106.1
vector 2610144  Network.dyn_peer[19]  lookupHopsSig:vector  ETV
2610144	841460 535 191 426052 20.3 52.405499543653 17 1 37 219 4329
vector 2610145  Network.dyn_peer[19]  lookupStabilitySig:vector  ETV
2610145	841995 780 191 426052 20.3 52.405499543653 17 0.16666668653488 0.99388379184529 15.204859505407 14.242326855072
vector 2610146  Network.dyn_peer[19]  lookupTimeSig:vector  ETV
2610146	842775 557 191 426052 20.3 52.405499543653 17 0.1 3.8 23.5 47.81
vector 2610120  Network.dyn_peer[11]  lookupHopsSig:vector  ETV
2610120	828450 443 205 762431 20.32 66.193273689421 14 2 90 373 16649
vector 2610121  Network.dyn_peer[11]  lookupStabilitySig:vector  ETV
2610121	828893 629 205 762431 20.32 66.193273689421 14 0.125 0.99115479085594 11.818525823764 10.737334940942
vector 2610122  Network.dyn_peer[11]  lookupTimeSig:vector  ETV
2610122	829522 457 205 762431 20.32 66.193273689421 14 0.2 9.1 38.6 174.04
vector 2610096  Network.dyn_peer[3]  lookupHopsSig:vector  ETV
2610096	814154 274 223 644313 20.34 61.192234715365 9 3 99 291 17055
vector 2610097  Network.dyn_peer[3]  lookupStabilitySig:vector  ETV
2610097	814428 400 223 644313 20.34 61.192234715365 9 0.29411762952805 0.97685428708792 7.0625585708767 6.0919157079443
vector 2610098  Network.dyn_peer[3]  lookupTimeSig:vector  ETV
2610098	814828 284 223 644313 20.34 61.192234715365 9 0.3 10 29.9 176.39
vector 2610162  Network.dyn_peer[25]  lookupHopsSig:vector  ETV
2610162	850328 338 241 811670 20.36 68.626869264225 11 1 88 368 23056
vector 2610163  Network.dyn_peer[25]  lookupStabilitySig:vector  ETV
2610163	850666 495 241 811670 20.36 68.626869264225 11 0.33333331346512 0.97814207710326 9.2081518936902 8.1133799702731
vector 2610164  Network.dyn_peer[25]  lookupTimeSig:vector  ETV
2610164	851161 350 241 811670 20.36 68.626869264225 11 0.1 8.9 37.8 238
vector 2610135  Network.dyn_peer[16]  lookupHopsSig:vector  ETV
2610135	836662 637 252 959796 20.37 79.815263983123 20 2 51 393 9795
vector 2610136  Network.dyn_peer[16]  lookupStabilitySig:vector  ETV
2610136	837299 918 252 959796 20.37 79.815263983123 20 0.21739131212234 0.99182903859764 18.101521739736 17.03976602796
vector 2610137  Network.dyn_peer[16]  lookupTimeSig:vector  ETV
2610137	838217 657 252 959796 20.37 79.815263983123 20 0.2 5.2 41.2 105.96
vector 2610195  Network.dyn_peer[36]  lookupHopsSig:vector  ETV
2610195	866409 406 258 907450 20.37 74.702784345905 13 0 97 402 21220
vector 2610196  Network.dyn_peer[36]  lookupStabilitySig:vector  ETV
2610196	866815 570 258 907450 20.37 74.702784345905 13 0.33333331346512 1 11.398897670209 10.482182176098
vector 2610197  Network.dyn_peer[36]  lookupTimeSig:vector  ETV
2610197	867385 420 258 907450 20.37 74.702784345905 13 0 9.8 41.4 220.36
vector 2610171  Network.dyn_peer[28]  lookupHopsSig:vector  ETV
2610171	855207 504 273 718021 20.39 64.202390553524 16 1 48 270 7310
vector 2610172  Network.dyn_peer[28]  lookupStabilitySig:vector  ETV
2610172	855711 734 273 718021 20.39 64.202390553524 16 0.21052628755569 0.99740932649001 14.339885446709 13.416793813968
vector 2610173  Network.dyn_peer[28]  lookupTimeSig:vector  ETV
2610173	856445 524 273 718021 20.39 64.202390553524 16 0.1 4.9 28.5 78.63
vector 2610174  Network.dyn_peer[29]  lookupHopsSig:vector  ETV
2610174	856969 305 286 726666 20.4 64.577789615556 10 1 53 209 6719
vector 2610175  Network.dyn_peer[29]  lookupStabilitySig:vector  ETV
2610175	857274 447 286 726666 20.4 64.577789615556 10 0.39999997615814 0.99051570799202 8.3068891139701 7.3535381966676
vector 2610176  Network.dyn_peer[29]  lookupTimeSig:vector  ETV
2610176	857721 317 286 726666 20.4 64.577789615556 10 0.1 5.4 21.8 71.44
vector 2610150  Network.dyn_peer[21]  lookupHopsSig:vector  ETV
2610150	844494 205 305 96842 20.42 33.990870784329 7 2 39 107 2615
vector 2610151  Network.dyn_peer[21]  lookupStabilitySig:vector  ETV
2610151	844699 294 305 96842 20.42 33.990870784329 7 0.3125 0.9663608558476 5.402601826936 4.5029730818376
vector 2610152  Network.dyn_peer[21]  lookupTimeSig:vector  ETV
2610152	844993 212 305 96842 20.42 33.990870784329 7 0.2 4 11.3 28.31
vector 2610153  Network.dyn_peer[22]  lookupHopsSig:vector  ETV
2610153	845205 406 320 575674 20.43 58.582920869483 13 2 50 344 12646
vector 2610154  Network.dyn_peer[22]  lookupStabilitySig:vector  ETV
2610154	845611 584 320 575674 20.43 58.582920869483 13 0.39999997615814 0.98341625183821 10.916938405484 9.606316108202
vector 2610155  Network.dyn_peer[22]  lookupTimeSig:vector  ETV
2610155	846195 422 320 575674 20.43 58.582920869483 13 0.2 5.1 35.6 133.42
vector 2610126  Network.dyn_peer[13]  lookupHopsSig:vector  ETV
2610126	831627 504 333 976842 20.44 82.275951919793 16 2 81 425 19109
vector 2610127  Network.dyn_peer[13]  lookupStabilitySig:vector  ETV
2610127	832131 731 333 976842 20.44 82.275951919793 16 0.2631579041481 0.99607072677463 14.019887016155 13.01185807906
vector 2610128  Network.dyn_peer[13]  lookupTimeSig:vector  ETV
2610128	832862 523 333 976842 20.44 82.275951919793 16 0.3 8.2 44 199.68
vector 2610186  Network.dyn_peer[33]  lookupHopsSig:vector  ETV
2610186	862282 273 337 274851 20.44 45.171583818813 9 1 57 189 6927
vector 2610187  Network.dyn_peer[33]  lookupStabilitySig:vector  ETV
2610187	862555 401 337 274851 20.44 45.171583818813 9 0.22727274894714 0.97844827547669 7.5214645154774 6.7358804290967
vector 2610188  Network.dyn_peer[33]  lookupTimeSig:vector  ETV
2610188	862956 285 337 274851 20.44 45.171583818813 9 0.1 5.8 19.7 73.11
vector 2610129  Network.dyn_peer[14]  lookupHopsSig:vector  ETV
2610129	833385 498 348 759668 20.45 66.067098631175 16 2 88 294 13858
vector 2610130  Network.dyn_peer[14]  lookupStabilitySig:vector  ETV
2610130	833883 718 348 759668 20.45 66.067098631175 16 0.39999997615814 0.99437751015648 13.708992933389 12.32064545116
vector 2610131  Network.dyn_peer[14]  lookupTimeSig:vector  ETV
2610131	834601 522 348 759668 20.45 66.067098631175 16 0.3 8.9 30.9 144.55
vector 2610132  Network.dyn_peer[15]  lookupHopsSig:vector  ETV
2610132	835123 441 360 811599 20.46 68.62263664732 14 3 65 343 13907
vector 2610133  Network.dyn_peer[15]  lookupStabilitySig:vector  ETV
2610133	835564 640 360 811599 20.46 68.62263664732 14 0.39999997615814 0.99379395926371 11.832184114028 10.584973025921
vector 2610134  Network.dyn_peer[15]  lookupTimeSig:vector  ETV
2610134	836204 458 360 811599 20.46 68.62263664732 14 0.3 6.6 35.6 146
vector 2610192  Network.dyn_peer[35]  lookupHopsSig:vector  ETV
2610192	864780 470 448 707757 20.56 63.765425969145 15 2 49 322 9772
vector 2610193  Network.dyn_peer[35]  lookupStabilitySig:vector  ETV
2610193	865250 673 448 707757 20.56 63.765425969145 15 0.31578946113586 0.99561403505504 13.193486429751 12.112369116656
vector 2610194  Network.dyn_peer[35]  lookupTimeSig:vector  ETV
2610194	865923 486 448 707757 20.56 63.765425969145 15 0.2 5 33.6 104.26
vector 2610165  Network.dyn_peer[26]  lookupHopsSig:vector  ETV
2610165	851511 534 461 779022 20.57 66.983827696904 17 2 70 369 17611
vector 2610166  Network.dyn_peer[26]  lookupStabilitySig:vector  ETV
2610166	852045 756 461 779022 20.57 66.983827696904 17 0.39999997615814 0.99819819815457 15.071309843101 13.841892877425
vector 2610167  Network.dyn_peer[26]  lookupTimeSig:vector  ETV
2610167	852801 559 461 779022 20.57 66.983827696904 17 0.3 7.1 38.5 183.59
vector 2610168  Network.dyn_peer[27]  lookupHopsSig:vector  ETV
2610168	853360 534 473 881630 20.58 72.808572474446 17 3 62 325 10503
vector 2610169  Network.dyn_peer[27]  lookupStabilitySig:vector  ETV
2610169	853894 756 473 881630 20.58 72.808572474446 17 0.39999997615814 0.99629355082288 14.955879384186 13.666196413253
vector 2610170  Network.dyn_peer[27]  lookupTimeSig:vector  ETV
2610170	854650 557 473 881630 20.58 72.808572474446 17 0.3 6.3 34.1 111.63
vector 2610261  Network.dyn_peer[58]  lookupHopsSig:vector  ETV
2610261	904988 338 485 501886 20.59 55.640028023672 11 0 74 266 10698
vector 2610262  Network.dyn_peer[58]  lookupStabilitySig:vector  ETV
2610262	905326 479 485 501886 20.59 55.640028023672 11 0.46666663885117 1 9.781345108524 8.9389762754076
vector 2610263  Network.dyn_peer[58]  lookupTimeSig:vector  ETV
2610263	905805 349 485 501886 20.59 55.640028023672 11 0 7.5 27.6 112.4
vector 2610123  Network.dyn_peer[12]  lookupHopsSig:vector  ETV
2610123	829979 478 525 934102 20.63 76.99875888318 15 5 72 454 18740
vector 2610124  Network.dyn_peer[12]  lookupStabilitySig:vector  ETV
2610124	830457 675 525 934102 20.63 76.99875888318 15 0 0.99509001616389 12.755648026243 11.950002054019
vector 2610125  Network.dyn_peer[12]  lookupTimeSig:vector  ETV
2610125	831132 495 525 934102 20.63 76.99875888318 15 0.5 7.3 46.8 196.52
vector 2610246  Network.dyn_peer[53]  lookupHopsSig:vector  ETV
2610246	894550 507 542 919094 20.64 75.648718969557 16 1 84 402 17536
vector 2610247  Network.dyn_peer[53]  lookupStabilitySig:vector  ETV
2610247	895057 734 542 919094 20.64 75.648718969557 16 0.52173912525177 0.99107417650521 14.543479284272 13.532074866921
vector 2610248  Network.dyn_peer[53]  lookupTimeSig:vector  ETV
2610248	895791 520 542 919094 20.64 75.648718969557 16 0.1 8.5 41.7 183.53
vector 2610189  Network.dyn_peer[34]  lookupHopsSig:vector  ETV
2610189	863241 441 556 832114 20.65 69.7427372061 14 1 63 305 12007
vector 2610190  Network.dyn_peer[34]  lookupStabilitySig:vector  ETV
2610190	863682 641 556 832114 20.65 69.7427372061 14 0.39999997615814 0.99655053461902 12.559621734312 11.780823261135
vector 2610191  Network.dyn_peer[34]  lookupTimeSig:vector  ETV
2610191	864323 457 556 832114 20.65 69.7427372061 14 0.2 6.4 31.8 126.24
vector 2610201  Network.dyn_peer[38]  lookupHopsSig:vector  ETV
2610201	868879 540 602 960469 20.69 79.901489667733 17 2 106 396 21704
vector 2610202  Network.dyn_peer[38]  lookupStabilitySig:vector  ETV
2610202	869419 784 602 960469 20.69 79.901489667733 17 0.39999997615814 0.99647887330502 15.13414300466 13.991356196098
vector 2610203  Network.dyn_peer[38]  lookupTimeSig:vector  ETV
2610203	870203 562 602 960469 20.69 79.901489667733 17 0.3 10.7 41.2 225.06
vector 2610147  Network.dyn_peer[20]  lookupHopsSig:vector  ETV
2610147	843332 339 626 769174 20.71 66.510217331891 11 2 86 309 16311
vector 2610148  Network.dyn_peer[20]  lookupStabilitySig:vector  ETV
2610148	843671 469 626 769174 20.71 66.510217331891 11 0 0.99925512104528 8.7407866756548 7.8742187671761
vector 2610149  Network.dyn_peer[20]  lookupTimeSig:vector  ETV
2610149	844140 354 626 769174 20.71 66.510217331891 11 0.3 8.7 31.9 169.29
vector 2610177  Network.dyn_peer[30]  lookupHopsSig:vector  ETV
2610177	858038 342 630 686215 20.71 62.869915998749 11 4 83 308 14446
vector 2610178  Network.dyn_peer[30]  lookupStabilitySig:vector  ETV
2610178	858380 499 630 686215 20.71 62.869915998749 11 0.19999998807907 0.99795081978664 8.9688529088162 8.084530687669
vector 2610179  Network.dyn_peer[30]  lookupTimeSig:vector  ETV
2610179	858879 352 630 686215 20.71 62.869915998749 11 0.4 8.4 31.8 150.64
vector 2610207  Network.dyn_peer[40]  lookupHopsSig:vector  ETV
2610207	872180 405 634 751588 20.71 65.693410652528 13 2 70 328 14672
vector 2610208  Network.dyn_peer[40]  lookupStabilitySig:vector  ETV
2610208	872585 578 634 751588 20.71 65.693410652528 13 0.39999997615814 0.98812736105174 11.329845362343 10.246797649452
vector 2610209  Network.dyn_peer[40]  lookupTimeSig:vector  ETV
2610209	873163 414 634 751588 20.71 65.693410652528 13 0.3 7.1 34 153.34
vector 2610267  Network.dyn_peer[60]  lookupHopsSig:vector  ETV
2610267	906848 634 638 887692 20.71 73.23149280672 20 1 63 383 13553
vector 2610268  Network.dyn_peer[60]  lookupStabilitySig:vector  ETV
2610268	907482 906 638 887692 20.71 73.23149280672 20 0.5 0.9967668929603 18.461075830506 17.300294507428
vector 2610269  Network.dyn_peer[60]  lookupTimeSig:vector  ETV
2610269	908388 658 638 887692 20.71 73.23149280672 20 0.1 6.4 40.2 143.36
vector 2610258  Network.dyn_peer[57]  lookupHopsSig:vector  ETV
2610258	903115 541 725 977691 20.78 82.416003566195 17 2 48 366 10678
vector 2610259  Network.dyn_peer[57]  lookupStabilitySig:vector  ETV
2610259	903656 779 725 977691 20.78 82.416003566195 17 0.42105263471603 0.9975076157134 15.357544602128 14.292553327347
vector 2610260  Network.dyn_peer[57]  lookupTimeSig:vector  ETV
2610260	904435 553 725 977691 20.78 82.416003566195 17 0.2 4.9 38.2 114.22
vector 2610327  Network.dyn_peer[80]  lookupHopsSig:vector  ETV
2610327	938484 409 765 756577 20.81 65.923449222628 13 0 63 344 12948
vector 2610328  Network.dyn_peer[80]  lookupStabilitySig:vector  ETV
2610328	938893 571 765 756577 20.81 65.923449222628 13 0.4736841917038 1 11.708284348249 10.799281050235
vector 2610329  Network.dyn_peer[80]  lookupTimeSig:vector  ETV
2610329	939464 421 765 756577 20.81 65.923449222628 13 0 6.4 35.6 136.48
vector 2610159  Network.dyn_peer[24]  lookupHopsSig:vector  ETV
2610159	847870 713 821 1015762 20.85 94.71258960713 22 1 58 550 19920
vector 2610160  Network.dyn_peer[24]  lookupStabilitySig:vector  ETV
2610160	848583 1008 821 1015762 20.85 94.71258960713 22 0 0.99801914812997 19.858885314316 19.085285271896
vector 2610161  Network.dyn_peer[24]  lookupTimeSig:vector  ETV
2610161	849591 737 821 1015762 20.85 94.71258960713 22 0.2 5.9 57.1 210.29
vector 2610309  Network.dyn_peer[74]  lookupHopsSig:vector  ETV
2610309	929322 637 825 679526 20.85 62.59575273231 20 1 48 374 9990
vector 2610310  Network.dyn_peer[74]  lookupStabilitySig:vector  ETV
2610310	929959 909 825 679526 20.85 62.59575273231 20 0.63157895207405 0.99199507385492 18.42724547442 17.153983887544
vector 2610311  Network.dyn_peer[74]  lookupTimeSig:vector  ETV
2610311	930868 659 825 679526 20.85 62.59575273231 20 0.1 4.9 39.3 107.55
vector 2610282  Network.dyn_peer[65]  lookupHopsSig:vector  ETV
2610282	914154 566 841 629252 20.86 60.615586561474 18 2 39 242 4782
vector 2610283  Network.dyn_peer[65]  lookupStabilitySig:vector  ETV
2610283	914720 800 841 629252 20.86 60.615586561474 18 0.5 0.99372713034973 16.419114772696 15.278227452432
vector 2610284  Network.dyn_peer[65]  lookupTimeSig:vector  ETV
2610284	915520 586 841 629252 20.86 60.615586561474 18 0.2 4 25.9 52.79
vector 2610288  Network.dyn_peer[67]  lookupHopsSig:vector  ETV
2610288	918005 405 871 871236 20.88 72.120767218626 13 2 56 338 13414
vector 2610289  Network.dyn_peer[67]  lookupStabilitySig:vector  ETV
2610289	918410 590 871 871236 20.88 72.120767218626 13 0.66666665673256 0.99245283007622 11.494687098078 10.365238352899
vector 2610290  Network.dyn_peer[67]  lookupTimeSig:vector  ETV
2610290	919000 420 871 871236 20.88 72.120767218626 13 0.2 5.7 35 140.98
vector 2610318  Network.dyn_peer[77]  lookupHopsSig:vector  ETV
2610318	933890 280 875 565678 20.88 58.195480477197 9 1 34 125 2795
vector 2610319  Network.dyn_peer[77]  lookupStabilitySig:vector  ETV
2610319	934170 408 875 565678 20.88 58.195480477197 9 0.59999999403954 0.9867235654965 7.7397003779188 6.7734888249363
vector 2610320  Network.dyn_peer[77]  lookupTimeSig:vector  ETV
2610320	934578 291 875 565678 20.88 58.195480477197 9 0.1 3.5 13.3 30.51
vector 2610237  Network.dyn_peer[50]  lookupHopsSig:vector  ETV
2610237	888560 479 916 780027 20.91 67.031655792362 15 4 52 412 14598
vector 2610238  Network.dyn_peer[50]  lookupStabilitySig:vector  ETV
2610238	889039 687 916 780027 20.91 67.031655792362 15 0.42857140302658 0.98895637784153 13.398336838931 12.459111223095
vector 2610239  Network.dyn_peer[50]  lookupTimeSig:vector  ETV
2610239	889726 491 916 780027 20.91 67.031655792362 15 0.4 5.3 42.6 154.28
vector 2610378  Network.dyn_peer[97]  lookupHopsSig:vector  ETV
2610378	965686 369 1014 335325 20.98 48.216469774693 12 0 46 157 3891
vector 2610379  Network.dyn_peer[97]  lookupStabilitySig:vector  ETV
2610379	966055 529 1014 335325 20.98 48.216469774693 12 0.73333331942558 1 11.075025238562 10.334705898751
vector 2610380  Network.dyn_peer[97]  lookupTimeSig:vector  ETV
2610380	966584 384 1014 335325 20.98 48.216469774693 12 0 4.7 16.8 42.16
vector 2610291  Network.dyn_peer[68]  lookupHopsSig:vector  ETV
2610291	919420 574 1028 966461 20.99 80.69732831263 18 3 78 479 22903
vector 2610292  Network.dyn_peer[68]  lookupStabilitySig:vector  ETV
2610292	919994 816 1028 966461 20.99 80.69732831263 18 0.4736841917038 0.99846311472356 16.452538372949 15.409035262817
vector 2610293  Network.dyn_peer[68]  lookupTimeSig:vector  ETV
2610293	920810 593 1028 966461 20.99 80.69732831263 18 0.3 7.9 49.6 238.72
vector 2610384  Network.dyn_peer[99]  lookupHopsSig:vector  ETV
2610384	968146 402 1047 500518 21 55.584547968997 13 0 36 254 6582
vector 2610385  Network.dyn_peer[99]  lookupStabilitySig:vector  ETV
2610385	968548 562 1047 500518 21 55.584547968997 13 0.6875 1 11.87203831505 10.968999248618
vector 2610386  Network.dyn_peer[99]  lookupTimeSig:vector  ETV
2610386	969110 414 1047 500518 21 55.584547968997 13 0 3.7 26.6 71.02
vector 2610333  Network.dyn_peer[82]  lookupHopsSig:vector  ETV
2610333	940845 403 1087 491375 21.03 55.206858778684 13 2 32 189 3723
vector 2610334  Network.dyn_peer[82]  lookupStabilitySig:vector  ETV
2610334	941248 576 1087 491375 21.03 55.206858778684 13 0.70588234066963 0.99355254694819 11.76852989383 10.787610787698
vector 2610335  Network.dyn_peer[82]  lookupTimeSig:vector  ETV
2610335	941824 416 1087 491375 21.03 55.206858778684 13 0.2 3.3 20.1 41.09
vector 2610366  Network.dyn_peer[93]  lookupHopsSig:vector  ETV
2610366	959075 637 1107 1006464 21.04 89.44344231473 20 1 72 491 21215
vector 2610367  Network.dyn_peer[93]  lookupStabilitySig:vector  ETV
2610367	959712 909 1107 1006464 21.04 89.44344231473 20 0.70967742800713 0.99611901678145 18.758080644999 17.73808968056
vector 2610368  Network.dyn_peer[93]  lookupTimeSig:vector  ETV
2610368	960621 657 1107 1006464 21.04 89.44344231473 20 0.1 7.3 51 222.14
vector 2610249  Network.dyn_peer[54]  lookupHopsSig:vector  ETV
2610249	896311 686 1129 1020678 21.05 103.409903897692 21 1 88 637 27617
vector 2610250  Network.dyn_peer[54]  lookupStabilitySig:vector  ETV
2610250	896997 971 1129 1020678 21.05 103.409903897692 21 0.375 0.9975961537566 19.292654756224 18.292596584804
vector 2610251  Network.dyn_peer[54]  lookupTimeSig:vector  ETV
2610251	897968 706 1129 1020678 21.05 103.409903897692 21 0.2 8.9 65.7 289.01
vector 2610252  Network.dyn_peer[55]  lookupHopsSig:vector  ETV
2610252	898674 672 1150 913784 21.06 75.208755175282 21 4 64 488 17512
vector 2610253  Network.dyn_peer[55]  lookupStabilitySig:vector  ETV
2610253	899346 956 1150 913784 21.06 75.208755175282 21 0.375 0.9941739491187 19.132214465644 17.881530372639
vector 2610254  Network.dyn_peer[55]  lookupTimeSig:vector  ETV
2610254	900302 690 1150 913784 21.06 75.208755175282 21 0.5 6.5 50.8 184.98
vector 2610351  Network.dyn_peer[88]  lookupHopsSig:vector  ETV
2610351	951988 443 1200 848746 21.09 70.713837635832 14 2 64 353 13371
vector 2610352  Network.dyn_peer[88]  lookupStabilitySig:vector  ETV
2610352	952431 620 1200 848746 21.09 70.713837635832 14 0.64705881476402 0.99070631992072 12.693922037259 11.677460203693
vector 2610353  Network.dyn_peer[88]  lookupTimeSig:vector  ETV
2610353	953051 458 1200 848746 21.09 70.713837635832 14 0.2 6.5 36.6 140.86
vector 2610264  Network.dyn_peer[59]  lookupHopsSig:vector  ETV
2610264	906154 203 1216 306615 21.1 46.80681267003 7 4 84 214 12612
vector 2610265  Network.dyn_peer[59]  lookupStabilitySig:vector  ETV
2610265	906357 280 1216 306615 21.1 46.80681267003 7 0.375 0.96956521831453 5.4601008724421 4.5032665902517
vector 2610266  Network.dyn_peer[59]  lookupTimeSig:vector  ETV
2610266	906637 211 1216 306615 21.1 46.80681267003 7 0.5 8.5 22 130.36
vector 2610180  Network.dyn_peer[31]  lookupHopsSig:vector  ETV
2610180	859231 502 1250 494556 21.12 55.336551508204 16 2 41 229 5061
vector 2610181  Network.dyn_peer[31]  lookupStabilitySig:vector  ETV
2610181	859733 715 1250 494556 21.12 55.336551508204 16 0 0.9893992934376 14.028703052551 13.258384224629
vector 2610182  Network.dyn_peer[31]  lookupTimeSig:vector  ETV
2610182	860448 523 1250 494556 21.12 55.336551508204 16 0.3 4.2 24.4 55.18
vector 2610216  Network.dyn_peer[43]  lookupHopsSig:vector  ETV
2610216	876458 672 1443 933546 21.24 76.949082801368 21 4 69 484 18724
vector 2610217  Network.dyn_peer[43]  lookupStabilitySig:vector  ETV
2610217	877130 972 1443 933546 21.24 76.949082801368 21 0.33333331346512 0.99538106238469 19.247168221045 18.12261005947
vector 2610218  Network.dyn_peer[43]  lookupTimeSig:vector  ETV
2610218	878102 696 1443 933546 21.24 76.949082801368 21 0.5 7 50.4 196.96
vector 2610225  Network.dyn_peer[46]  lookupHopsSig:vector  ETV
2610225	882785 478 1499 872175 21.27 72.181887666609 15 1 79 326 11998
vector 2610226  Network.dyn_peer[46]  lookupStabilitySig:vector  ETV
2610226	883263 691 1499 872175 21.27 72.181887666609 15 0.33333331346512 0.99826809833758 13.807832912309 13.090981617325
vector 2610227  Network.dyn_peer[46]  lookupTimeSig:vector  ETV
2610227	883954 493 1499 872175 21.27 72.181887666609 15 0.2 8 34 126.48
vector 2610315  Network.dyn_peer[76]  lookupHopsSig:vector  ETV
2610315	932008 539 1503 534753 21.27 56.975062095867 17 1 87 295 11751
vector 2610316  Network.dyn_peer[76]  lookupStabilitySig:vector  ETV
2610316	932547 781 1503 534753 21.27 56.975062095867 17 0.58333334326744 0.99891186074819 15.661134734401 14.624870394773
vector 2610317  Network.dyn_peer[76]  lookupTimeSig:vector  ETV
2610317	933328 562 1503 534753 21.27 56.975062095867 17 0.2 8.8 31.1 123.47
vector 2610234  Network.dyn_peer[49]  lookupHopsSig:vector  ETV
2610234	886460 603 1557 803219 21.3 68.186616110671 19 4 64 382 12606
vector 2610235  Network.dyn_peer[49]  lookupStabilitySig:vector  ETV
2610235	887063 872 1557 803219 21.3 68.186616110671 19 0.33333331346512 0.99258681247011 17.392201479059 16.391530949965
vector 2610236  Network.dyn_peer[49]  lookupTimeSig:vector  ETV
2610236	887935 625 1557 803219 21.3 68.186616110671 19 0.5 6.5 40 133.72
vector 2610270  Network.dyn_peer[61]  lookupHopsSig:vector  ETV
2610270	909046 341 1590 629527 21.32 60.625587111073 11 3 122 278 19826
vector 2610271  Network.dyn_peer[61]  lookupStabilitySig:vector  ETV
2610271	909387 498 1590 629527 21.32 60.625587111073 11 0.41666668653488 0.99763593380339 9.5515982869547 8.6114384833616
vector 2610272  Network.dyn_peer[61]  lookupTimeSig:vector  ETV
2610272	909885 354 1590 629527 21.32 60.625587111073 11 0.4 12.3 28.8 203.78
vector 2610273  Network.dyn_peer[62]  lookupHopsSig:vector  ETV
2610273	910239 472 1609 478696 21.33 54.671220066123 15 2 52 268 7288
vector 2610274  Network.dyn_peer[62]  lookupStabilitySig:vector  ETV
2610274	910711 685 1609 478696 21.33 54.671220066123 15 0.41666668653488 0.98960498999804 13.465672916733 12.388668325682
vector 2610275  Network.dyn_peer[62]  lookupTimeSig:vector  ETV
2610275	911396 488 1609 478696 21.33 54.671220066123 15 0.3 5.3 28.2 78.24
vector 2610198  Network.dyn_peer[37]  lookupHopsSig:vector  ETV
2610198	867805 306 1704 754926 21.38 65.848540844179 10 2 70 184 7158
vector 2610199  Network.dyn_peer[37]  lookupStabilitySig:vector  ETV
2610199	868111 449 1704 754926 21.38 65.848540844179 10 0.16666668653488 0.98630136996508 8.5330107472837 7.8530142975812
vector 2610200  Network.dyn_peer[37]  lookupTimeSig:vector  ETV
2610200	868560 319 1704 754926 21.38 65.848540844179 10 0.3 7.1 19.3 75.15
vector 2610231  Network.dyn_peer[48]  lookupHopsSig:vector  ETV
2610231	885507 280 1726 506877 21.39 55.844864239104 9 9 52 234 7792
vector 2610232  Network.dyn_peer[48]  lookupStabilitySig:vector  ETV