file 5948898 1369698482                                         
version 2
run Stability2-90-20130528-01:46:59-24168
attr configname Stability2
attr datetime 20130528-01:46:59
attr experiment Stability2
attr inifile omnetpp.ini
attr iterationvars $0=500
attr iterationvars2 "$0=500, $repetition=0"
attr measurement $0=500
attr network Network
attr processid 24168
attr repetition 0
attr replication #0
attr resultdir results
attr runnumber 90
attr seedset 90

vector 2730090  Network.churner  inGoingSizeSig:vector  ETV
vector 2700099  Network.dyn_peer[3]  lookupHopsSig:vector  ETV
vector 2700100  Network.dyn_peer[3]  lookupStabilitySig:vector  ETV
vector 2700101  Network.dyn_peer[3]  lookupTimeSig:vector  ETV
vector 2700108  Network.dyn_peer[6]  lookupHopsSig:vector  ETV
vector 2700109  Network.dyn_peer[6]  lookupStabilitySig:vector  ETV
vector 2700110  Network.dyn_peer[6]  lookupTimeSig:vector  ETV
vector 2700111  Network.dyn_peer[7]  lookupHopsSig:vector  ETV
vector 2700112  Network.dyn_peer[7]  lookupStabilitySig:vector  ETV
vector 2700113  Network.dyn_peer[7]  lookupTimeSig:vector  ETV
vector 2700090  Network.dyn_peer[0]  lookupHopsSig:vector  ETV
vector 2700091  Network.dyn_peer[0]  lookupStabilitySig:vector  ETV
vector 2700092  Network.dyn_peer[0]  lookupTimeSig:vector  ETV
vector 2700093  Network.dyn_peer[1]  lookupHopsSig:vector  ETV
vector 2700094  Network.dyn_peer[1]  lookupStabilitySig:vector  ETV
vector 2700095  Network.dyn_peer[1]  lookupTimeSig:vector  ETV
vector 2700105  Network.dyn_peer[5]  lookupHopsSig:vector  ETV
vector 2700106  Network.dyn_peer[5]  lookupStabilitySig:vector  ETV
vector 2700107  Network.dyn_peer[5]  lookupTimeSig:vector  ETV
vector 2700117  Network.dyn_peer[9]  lookupHopsSig:vector  ETV
vector 2700118  Network.dyn_peer[9]  lookupStabilitySig:vector  ETV
vector 2700119  Network.dyn_peer[9]  lookupTimeSig:vector  ETV
vector 2700096  Network.dyn_peer[2]  lookupHopsSig:vector  ETV
vector 2700097  Network.dyn_peer[2]  lookupStabilitySig:vector  ETV
vector 2700098  Network.dyn_peer[2]  lookupTimeSig:vector  ETV
vector 2700126  Network.dyn_peer[12]  lookupHopsSig:vector  ETV
vector 2700127  Network.dyn_peer[12]  lookupStabilitySig:vector  ETV
vector 2700128  Network.dyn_peer[12]  lookupTimeSig:vector  ETV
vector 2700129  Network.dyn_peer[13]  lookupHopsSig:vector  ETV
vector 2700130  Network.dyn_peer[13]  lookupStabilitySig:vector  ETV
vector 2700131  Network.dyn_peer[13]  lookupTimeSig:vector  ETV
vector 2700144  Network.dyn_peer[18]  lookupHopsSig:vector  ETV
vector 2700145  Network.dyn_peer[18]  lookupStabilitySig:vector  ETV
vector 2700146  Network.dyn_peer[18]  lookupTimeSig:vector  ETV
vector 2700120  Network.dyn_peer[10]  lookupHopsSig:vector  ETV
vector 2700121  Network.dyn_peer[10]  lookupStabilitySig:vector  ETV
vector 2700122  Network.dyn_peer[10]  lookupTimeSig:vector  ETV
vector 2700123  Network.dyn_peer[11]  lookupHopsSig:vector  ETV
vector 2700124  Network.dyn_peer[11]  lookupStabilitySig:vector  ETV
vector 2700125  Network.dyn_peer[11]  lookupTimeSig:vector  ETV
vector 2700183  Network.dyn_peer[31]  lookupHopsSig:vector  ETV
vector 2700184  Network.dyn_peer[31]  lookupStabilitySig:vector  ETV
vector 2700185  Network.dyn_peer[31]  lookupTimeSig:vector  ETV
vector 2700102  Network.dyn_peer[4]  lookupHopsSig:vector  ETV
vector 2700103  Network.dyn_peer[4]  lookupStabilitySig:vector  ETV
vector 2700104  Network.dyn_peer[4]  lookupTimeSig:vector  ETV
vector 2700138  Network.dyn_peer[16]  lookupHopsSig:vector  ETV
vector 2700139  Network.dyn_peer[16]  lookupStabilitySig:vector  ETV
vector 2700140  Network.dyn_peer[16]  lookupTimeSig:vector  ETV
vector 2700147  Network.dyn_peer[19]  lookupHopsSig:vector  ETV
vector 2700148  Network.dyn_peer[19]  lookupStabilitySig:vector  ETV
vector 2700149  Network.dyn_peer[19]  lookupTimeSig:vector  ETV
vector 2700153  Network.dyn_peer[21]  lookupHopsSig:vector  ETV
vector 2700154  Network.dyn_peer[21]  lookupStabilitySig:vector  ETV
vector 2700155  Network.dyn_peer[21]  lookupTimeSig:vector  ETV
vector 2700132  Network.dyn_peer[14]  lookupHopsSig:vector  ETV
vector 2700133  Network.dyn_peer[14]  lookupStabilitySig:vector  ETV
vector 2700134  Network.dyn_peer[14]  lookupTimeSig:vector  ETV
vector 2700165  Network.dyn_peer[25]  lookupHopsSig:vector  ETV
vector 2700166  Network.dyn_peer[25]  lookupStabilitySig:vector  ETV
vector 2700167  Network.dyn_peer[25]  lookupTimeSig:vector  ETV
vector 2700141  Network.dyn_peer[17]  lookupHopsSig:vector  ETV
vector 2700142  Network.dyn_peer[17]  lookupStabilitySig:vector  ETV
vector 2700143  Network.dyn_peer[17]  lookupTimeSig:vector  ETV
vector 2700171  Network.dyn_peer[27]  lookupHopsSig:vector  ETV
vector 2700172  Network.dyn_peer[27]  lookupStabilitySig:vector  ETV
vector 2700173  Network.dyn_peer[27]  lookupTimeSig:vector  ETV
vector 2700186  Network.dyn_peer[32]  lookupHopsSig:vector  ETV
vector 2700187  Network.dyn_peer[32]  lookupStabilitySig:vector  ETV
vector 2700188  Network.dyn_peer[32]  lookupTimeSig:vector  ETV
vector 2700225  Network.dyn_peer[45]  lookupHopsSig:vector  ETV
vector 2700226  Network.dyn_peer[45]  lookupStabilitySig:vector  ETV
vector 2700227  Network.dyn_peer[45]  lookupTimeSig:vector  ETV
vector 2700168  Network.dyn_peer[26]  lookupHopsSig:vector  ETV
vector 2700169  Network.dyn_peer[26]  lookupStabilitySig:vector  ETV
vector 2700170  Network.dyn_peer[26]  lookupTimeSig:vector  ETV
vector 2700114  Network.dyn_peer[8]  lookupHopsSig:vector  ETV
vector 2700115  Network.dyn_peer[8]  lookupStabilitySig:vector  ETV
vector 2700116  Network.dyn_peer[8]  lookupTimeSig:vector  ETV
vector 2700210  Network.dyn_peer[40]  lookupHopsSig:vector  ETV
vector 2700211  Network.dyn_peer[40]  lookupStabilitySig:vector  ETV
vector 2700212  Network.dyn_peer[40]  lookupTimeSig:vector  ETV
vector 2700156  Network.dyn_peer[22]  lookupHopsSig:vector  ETV
vector 2700157  Network.dyn_peer[22]  lookupStabilitySig:vector  ETV
vector 2700158  Network.dyn_peer[22]  lookupTimeSig:vector  ETV
vector 2700135  Network.dyn_peer[15]  lookupHopsSig:vector  ETV
vector 2700136  Network.dyn_peer[15]  lookupStabilitySig:vector  ETV
vector 2700137  Network.dyn_peer[15]  lookupTimeSig:vector  ETV
vector 2700195  Network.dyn_peer[35]  lookupHopsSig:vector  ETV
vector 2700196  Network.dyn_peer[35]  lookupStabilitySig:vector  ETV
vector 2700197  Network.dyn_peer[35]  lookupTimeSig:vector  ETV
vector 2700261  Network.dyn_peer[57]  lookupHopsSig:vector  ETV
vector 2700262  Network.dyn_peer[57]  lookupStabilitySig:vector  ETV
vector 2700263  Network.dyn_peer[57]  lookupTimeSig:vector  ETV
vector 2700174  Network.dyn_peer[28]  lookupHopsSig:vector  ETV
vector 2700175  Network.dyn_peer[28]  lookupStabilitySig:vector  ETV
vector 2700176  Network.dyn_peer[28]  lookupTimeSig:vector  ETV
vector 2700294  Network.dyn_peer[68]  lookupHopsSig:vector  ETV
vector 2700295  Network.dyn_peer[68]  lookupStabilitySig:vector  ETV
vector 2700296  Network.dyn_peer[68]  lookupTimeSig:vector  ETV
vector 2700177  Network.dyn_peer[29]  lookupHopsSig:vector  ETV
vector 2700178  Network.dyn_peer[29]  lookupStabilitySig:vector  ETV
vector 2700179  Network.dyn_peer[29]  lookupTimeSig:vector  ETV
vector 2700150  Network.dyn_peer[20]  lookupHopsSig:vector  ETV
vector 2700151  Network.dyn_peer[20]  lookupStabilitySig:vector  ETV
vector 2700152  Network.dyn_peer[20]  lookupTimeSig:vector  ETV
vector 2700216  Network.dyn_peer[42]  lookupHopsSig:vector  ETV
vector 2700217  Network.dyn_peer[42]  lookupStabilitySig:vector  ETV
vector 2700218  Network.dyn_peer[42]  lookupTimeSig:vector  ETV
vector 2700204  Network.dyn_peer[38]  lookupHopsSig:vector  ETV
vector 2700205  Network.dyn_peer[38]  lookupStabilitySig:vector  ETV
vector 2700206  Network.dyn_peer[38]  lookupTimeSig:vector  ETV
vector 2700297  Network.dyn_peer[69]  lookupHopsSig:vector  ETV
vector 2700298  Network.dyn_peer[69]  lookupStabilitySig:vector  ETV
vector 2700299  Network.dyn_peer[69]  lookupTimeSig:vector  ETV
vector 2700246  Network.dyn_peer[52]  lookupHopsSig:vector  ETV
vector 2700247  Network.dyn_peer[52]  lookupStabilitySig:vector  ETV
vector 2700248  Network.dyn_peer[52]  lookupTimeSig:vector  ETV
vector 2700159  Network.dyn_peer[23]  lookupHopsSig:vector  ETV
vector 2700160  Network.dyn_peer[23]  lookupStabilitySig:vector  ETV
vector 2700161  Network.dyn_peer[23]  lookupTimeSig:vector  ETV
vector 2700219  Network.dyn_peer[43]  lookupHopsSig:vector  ETV
vector 2700220  Network.dyn_peer[43]  lookupStabilitySig:vector  ETV
vector 2700221  Network.dyn_peer[43]  lookupTimeSig:vector  ETV
vector 2700162  Network.dyn_peer[24]  lookupHopsSig:vector  ETV
vector 2700163  Network.dyn_peer[24]  lookupStabilitySig:vector  ETV
vector 2700164  Network.dyn_peer[24]  lookupTimeSig:vector  ETV
vector 2700282  Network.dyn_peer[64]  lookupHopsSig:vector  ETV
vector 2700283  Network.dyn_peer[64]  lookupStabilitySig:vector  ETV
vector 2700284  Network.dyn_peer[64]  lookupTimeSig:vector  ETV
vector 2700327  Network.dyn_peer[79]  lookupHopsSig:vector  ETV
vector 2700328  Network.dyn_peer[79]  lookupStabilitySig:vector  ETV
vector 2700329  Network.dyn_peer[79]  lookupTimeSig:vector  ETV
vector 2700192  Network.dyn_peer[34]  lookupHopsSig:vector  ETV
vector 2700193  Network.dyn_peer[34]  lookupStabilitySig:vector  ETV
vector 2700194  Network.dyn_peer[34]  lookupTimeSig:vector  ETV
vector 2700222  Network.dyn_peer[44]  lookupHopsSig:vector  ETV
vector 2700223  Network.dyn_peer[44]  lookupStabilitySig:vector  ETV
vector 2700224  Network.dyn_peer[44]  lookupTimeSig:vector  ETV
vector 2700198  Network.dyn_peer[36]  lookupHopsSig:vector  ETV
vector 2700199  Network.dyn_peer[36]  lookupStabilitySig:vector  ETV
vector 2700200  Network.dyn_peer[36]  lookupTimeSig:vector  ETV
vector 2700201  Network.dyn_peer[37]  lookupHopsSig:vector  ETV
vector 2700202  Network.dyn_peer[37]  lookupStabilitySig:vector  ETV
vector 2700203  Network.dyn_peer[37]  lookupTimeSig:vector  ETV
vector 2700234  Network.dyn_peer[48]  lookupHopsSig:vector  ETV
vector 2700235  Network.dyn_peer[48]  lookupStabilitySig:vector  ETV
vector 2700236  Network.dyn_peer[48]  lookupTimeSig:vector  ETV
vector 2700312  Network.dyn_peer[74]  lookupHopsSig:vector  ETV
vector 2700313  Network.dyn_peer[74]  lookupStabilitySig:vector  ETV
vector 2700314  Network.dyn_peer[74]  lookupTimeSig:vector  ETV
vector 2700315  Network.dyn_peer[75]  lookupHopsSig:vector  ETV
vector 2700316  Network.dyn_peer[75]  lookupStabilitySig:vector  ETV
vector 2700317  Network.dyn_peer[75]  lookupTimeSig:vector  ETV
vector 2700351  Network.dyn_peer[87]  lookupHopsSig:vector  ETV
vector 2700352  Network.dyn_peer[87]  lookupStabilitySig:vector  ETV
vector 2700353  Network.dyn_peer[87]  lookupTimeSig:vector  ETV
vector 2700354  Network.dyn_peer[88]  lookupHopsSig:vector  ETV
vector 2700355  Network.dyn_peer[88]  lookupStabilitySig:vector  ETV
vector 2700356  Network.dyn_peer[88]  lookupTimeSig:vector  ETV
vector 2700270  Network.dyn_peer[60]  lookupHopsSig:vector  ETV
vector 2700271  Network.dyn_peer[60]  lookupStabilitySig:vector  ETV
vector 2700272  Network.dyn_peer[60]  lookupTimeSig:vector  ETV
vector 2700303  Network.dyn_peer[71]  lookupHopsSig:vector  ETV
vector 2700304  Network.dyn_peer[71]  lookupStabilitySig:vector  ETV
vector 2700305  Network.dyn_peer[71]  lookupTimeSig:vector  ETV
vector 2700336  Network.dyn_peer[82]  lookupHopsSig:vector  ETV
vector 2700337  Network.dyn_peer[82]  lookupStabilitySig:vector  ETV
vector 2700338  Network.dyn_peer[82]  lookupTimeSig:vector  ETV
vector 2700249  Network.dyn_peer[53]  lookupHopsSig:vector  ETV
vector 2700250  Network.dyn_peer[53]  lookupStabilitySig:vector  ETV
vector 2700251  Network.dyn_peer[53]  lookupTimeSig:vector  ETV
vector 2700258  Network.dyn_peer[56]  lookupHopsSig:vector  ETV
vector 2700259  Network.dyn_peer[56]  lookupStabilitySig:vector  ETV
vector 2700260  Network.dyn_peer[56]  lookupTimeSig:vector  ETV
vector 2700387  Network.dyn_peer[99]  lookupHopsSig:vector  ETV
vector 2700388  Network.dyn_peer[99]  lookupStabilitySig:vector  ETV
vector 2700389  Network.dyn_peer[99]  lookupTimeSig:vector  ETV
vector 2700240  Network.dyn_peer[50]  lookupHopsSig:vector  ETV
vector 2700241  Network.dyn_peer[50]  lookupStabilitySig:vector  ETV
vector 2700242  Network.dyn_peer[50]  lookupTimeSig:vector  ETV
vector 2700333  Network.dyn_peer[81]  lookupHopsSig:vector  ETV
vector 2700334  Network.dyn_peer[81]  lookupStabilitySig:vector  ETV
vector 2700335  Network.dyn_peer[81]  lookupTimeSig:vector  ETV
vector 2700306  Network.dyn_peer[72]  lookupHopsSig:vector  ETV
vector 2700307  Network.dyn_peer[72]  lookupStabilitySig:vector  ETV
vector 2700308  Network.dyn_peer[72]  lookupTimeSig:vector  ETV
vector 2700321  Network.dyn_peer[77]  lookupHopsSig:vector  ETV
vector 2700322  Network.dyn_peer[77]  lookupStabilitySig:vector  ETV
vector 2700323  Network.dyn_peer[77]  lookupTimeSig:vector  ETV
vector 2700441  Network.dyn_peer[117]  lookupHopsSig:vector  ETV
vector 2700442  Network.dyn_peer[117]  lookupStabilitySig:vector  ETV
vector 2700443  Network.dyn_peer[117]  lookupTimeSig:vector  ETV
vector 2700243  Network.dyn_peer[51]  lookupHopsSig:vector  ETV
vector 2700244  Network.dyn_peer[51]  lookupStabilitySig:vector  ETV
vector 2700245  Network.dyn_peer[51]  lookupTimeSig:vector  ETV
vector 2700426  Network.dyn_peer[112]  lookupHopsSig:vector  ETV
vector 2700427  Network.dyn_peer[112]  lookupStabilitySig:vector  ETV
vector 2700428  Network.dyn_peer[112]  lookupTimeSig:vector  ETV
vector 2700189  Network.dyn_peer[33]  lookupHopsSig:vector  ETV
vector 2700190  Network.dyn_peer[33]  lookupStabilitySig:vector  ETV
vector 2700191  Network.dyn_peer[33]  lookupTimeSig:vector  ETV
vector 2700279  Network.dyn_peer[63]  lookupHopsSig:vector  ETV
vector 2700280  Network.dyn_peer[63]  lookupStabilitySig:vector  ETV
vector 2700281  Network.dyn_peer[63]  lookupTimeSig:vector  ETV
vector 2700252  Network.dyn_peer[54]  lookupHopsSig:vector  ETV
vector 2700253  Network.dyn_peer[54]  lookupStabilitySig:vector  ETV
vector 2700254  Network.dyn_peer[54]  lookupTimeSig:vector  ETV
vector 2700285  Network.dyn_peer[65]  lookupHopsSig:vector  ETV
vector 2700286  Network.dyn_peer[65]  lookupStabilitySig:vector  ETV
vector 2700287  Network.dyn_peer[65]  lookupTimeSig:vector  ETV
vector 2700375  Network.dyn_peer[95]  lookupHopsSig:vector  ETV
vector 2700376  Network.dyn_peer[95]  lookupStabilitySig:vector  ETV
vector 2700377  Network.dyn_peer[95]  lookupTimeSig:vector  ETV
vector 2700318  Network.dyn_peer[76]  lookupHopsSig:vector  ETV
vector 2700319  Network.dyn_peer[76]  lookupStabilitySig:vector  ETV
vector 2700320  Network.dyn_peer[76]  lookupTimeSig:vector  ETV
vector 2700348  Network.dyn_peer[86]  lookupHopsSig:vector  ETV
vector 2700349  Network.dyn_peer[86]  lookupStabilitySig:vector  ETV
vector 2700350  Network.dyn_peer[86]  lookupTimeSig:vector  ETV
vector 2700291  Network.dyn_peer[67]  lookupHopsSig:vector  ETV
vector 2700292  Network.dyn_peer[67]  lookupStabilitySig:vector  ETV
vector 2700293  Network.dyn_peer[67]  lookupTimeSig:vector  ETV
vector 2700474  Network.dyn_peer[128]  lookupHopsSig:vector  ETV
vector 2700475  Network.dyn_peer[128]  lookupStabilitySig:vector  ETV
vector 2700476  Network.dyn_peer[128]  lookupTimeSig:vector  ETV
vector 2700207  Network.dyn_peer[39]  lookupHopsSig:vector  ETV
vector 2700208  Network.dyn_peer[39]  lookupStabilitySig:vector  ETV
vector 2700209  Network.dyn_peer[39]  lookupTimeSig:vector  ETV
vector 2700273  Network.dyn_peer[61]  lookupHopsSig:vector  ETV
vector 2700274  Network.dyn_peer[61]  lookupStabilitySig:vector  ETV
vector 2700275  Network.dyn_peer[61]  lookupTimeSig:vector  ETV
vector 2700363  Network.dyn_peer[91]  lookupHopsSig:vector  ETV
vector 2700364  Network.dyn_peer[91]  lookupStabilitySig:vector  ETV
vector 2700365  Network.dyn_peer[91]  lookupTimeSig:vector  ETV
vector 2700393  Network.dyn_peer[101]  lookupHopsSig:vector  ETV
vector 2700394  Network.dyn_peer[101]  lookupStabilitySig:vector  ETV
vector 2700395  Network.dyn_peer[101]  lookupTimeSig:vector  ETV
vector 2700396  Network.dyn_peer[102]  lookupHopsSig:vector  ETV
vector 2700397  Network.dyn_peer[102]  lookupStabilitySig:vector  ETV
vector 2700398  Network.dyn_peer[102]  lookupTimeSig:vector  ETV
vector 2700309  Network.dyn_peer[73]  lookupHopsSig:vector  ETV
vector 2700310  Network.dyn_peer[73]  lookupStabilitySig:vector  ETV
vector 2700311  Network.dyn_peer[73]  lookupTimeSig:vector  ETV
vector 2700372  Network.dyn_peer[94]  lookupHopsSig:vector  ETV
vector 2700373  Network.dyn_peer[94]  lookupStabilitySig:vector  ETV
vector 2700374  Network.dyn_peer[94]  lookupTimeSig:vector  ETV
vector 2700228  Network.dyn_peer[46]  lookupHopsSig:vector  ETV
vector 2700229  Network.dyn_peer[46]  lookupStabilitySig:vector  ETV
vector 2700230  Network.dyn_peer[46]  lookupTimeSig:vector  ETV
vector 2700468  Network.dyn_peer[126]  lookupHopsSig:vector  ETV
vector 2700469  Network.dyn_peer[126]  lookupStabilitySig:vector  ETV
vector 2700470  Network.dyn_peer[126]  lookupTimeSig:vector  ETV
vector 2700264  Network.dyn_peer[58]  lookupHopsSig:vector  ETV
vector 2700265  Network.dyn_peer[58]  lookupStabilitySig:vector  ETV
vector 2700266  Network.dyn_peer[58]  lookupTimeSig:vector  ETV
vector 2700324  Network.dyn_peer[78]  lookupHopsSig:vector  ETV
vector 2700325  Network.dyn_peer[78]  lookupStabilitySig:vector  ETV
vector 2700326  Network.dyn_peer[78]  lookupTimeSig:vector  ETV
vector 2700444  Network.dyn_peer[118]  lookupHopsSig:vector  ETV
vector 2700445  Network.dyn_peer[118]  lookupStabilitySig:vector  ETV
vector 2700446  Network.dyn_peer[118]  lookupTimeSig:vector  ETV
vector 2700267  Network.dyn_peer[59]  lookupHopsSig:vector  ETV
vector 2700268  Network.dyn_peer[59]  lookupStabilitySig:vector  ETV
vector 2700269  Network.dyn_peer[59]  lookupTimeSig:vector  ETV
vector 2700429  Network.dyn_peer[113]  lookupHopsSig:vector  ETV
vector 2700430  Network.dyn_peer[113]  lookupStabilitySig:vector  ETV
vector 2700431  Network.dyn_peer[113]  lookupTimeSig:vector  ETV
vector 2700342  Network.dyn_peer[84]  lookupHopsSig:vector  ETV
vector 2700343  Network.dyn_peer[84]  lookupStabilitySig:vector  ETV
vector 2700344  Network.dyn_peer[84]  lookupTimeSig:vector  ETV
vector 2700402  Network.dyn_peer[104]  lookupHopsSig:vector  ETV
vector 2700403  Network.dyn_peer[104]  lookupStabilitySig:vector  ETV
vector 2700404  Network.dyn_peer[104]  lookupTimeSig:vector  ETV
vector 2700345  Network.dyn_peer[85]  lookupHopsSig:vector  ETV
vector 2700346  Network.dyn_peer[85]  lookupStabilitySig:vector  ETV
vector 2700347  Network.dyn_peer[85]  lookupTimeSig:vector  ETV
vector 2700405  Network.dyn_peer[105]  lookupHopsSig:vector  ETV
vector 2700406  Network.dyn_peer[105]  lookupStabilitySig:vector  ETV
vector 2700407  Network.dyn_peer[105]  lookupTimeSig:vector  ETV
vector 2700495  Network.dyn_peer[135]  lookupHopsSig:vector  ETV
vector 2700496  Network.dyn_peer[135]  lookupStabilitySig:vector  ETV
vector 2700497  Network.dyn_peer[135]  lookupTimeSig:vector  ETV
vector 2700525  Network.dyn_peer[145]  lookupHopsSig:vector  ETV
vector 2700526  Network.dyn_peer[145]  lookupStabilitySig:vector  ETV
vector 2700527  Network.dyn_peer[145]  lookupTimeSig:vector  ETV
vector 2700237  Network.dyn_peer[49]  lookupHopsSig:vector  ETV
vector 2700238  Network.dyn_peer[49]  lookupStabilitySig:vector  ETV
vector 2700239  Network.dyn_peer[49]  lookupTimeSig:vector  ETV
vector 2700360  Network.dyn_peer[90]  lookupHopsSig:vector  ETV
vector 2700361  Network.dyn_peer[90]  lookupStabilitySig:vector  ETV
vector 2700362  Network.dyn_peer[90]  lookupTimeSig:vector  ETV
vector 2700456  Network.dyn_peer[122]  lookupHopsSig:vector  ETV
vector 2700457  Network.dyn_peer[122]  lookupStabilitySig:vector  ETV
vector 2700458  Network.dyn_peer[122]  lookupTimeSig:vector  ETV
vector 2700369  Network.dyn_peer[93]  lookupHopsSig:vector  ETV
vector 2700370  Network.dyn_peer[93]  lookupStabilitySig:vector  ETV
vector 2700371  Network.dyn_peer[93]  lookupTimeSig:vector  ETV
vector 2700489  Network.dyn_peer[133]  lookupHopsSig:vector  ETV
vector 2700490  Network.dyn_peer[133]  lookupStabilitySig:vector  ETV
vector 2700491  Network.dyn_peer[133]  lookupTimeSig:vector  ETV
vector 2700255  Network.dyn_peer[55]  lookupHopsSig:vector  ETV
vector 2700256  Network.dyn_peer[55]  lookupStabilitySig:vector  ETV
vector 2700257  Network.dyn_peer[55]  lookupTimeSig:vector  ETV
vector 2700378  Network.dyn_peer[96]  lookupHopsSig:vector  ETV
vector 2700379  Network.dyn_peer[96]  lookupStabilitySig:vector  ETV
vector 2700380  Network.dyn_peer[96]  lookupTimeSig:vector  ETV
vector 2700408  Network.dyn_peer[106]  lookupHopsSig:vector  ETV
vector 2700409  Network.dyn_peer[106]  lookupStabilitySig:vector  ETV
vector 2700410  Network.dyn_peer[106]  lookupTimeSig:vector  ETV
vector 2700438  Network.dyn_peer[116]  lookupHopsSig:vector  ETV
vector 2700439  Network.dyn_peer[116]  lookupStabilitySig:vector  ETV
vector 2700440  Network.dyn_peer[116]  lookupTimeSig:vector  ETV
vector 2700477  Network.dyn_peer[129]  lookupHopsSig:vector  ETV
vector 2700478  Network.dyn_peer[129]  lookupStabilitySig:vector  ETV
vector 2700479  Network.dyn_peer[129]  lookupTimeSig:vector  ETV
vector 2700180  Network.dyn_peer[30]  lookupHopsSig:vector  ETV
vector 2700181  Network.dyn_peer[30]  lookupStabilitySig:vector  ETV
vector 2700182  Network.dyn_peer[30]  lookupTimeSig:vector  ETV
vector 2700390  Network.dyn_peer[100]  lookupHopsSig:vector  ETV
vector 2700391  Network.dyn_peer[100]  lookupStabilitySig:vector  ETV
vector 2700392  Network.dyn_peer[100]  lookupTimeSig:vector  ETV
vector 2700213  Network.dyn_peer[41]  lookupHopsSig:vector  ETV
vector 2700214  Network.dyn_peer[41]  lookupStabilitySig:vector  ETV
vector 2700215  Network.dyn_peer[41]  lookupTimeSig:vector  ETV
vector 2700453  Network.dyn_peer[121]  lookupHopsSig:vector  ETV
vector 2700454  Network.dyn_peer[121]  lookupStabilitySig:vector  ETV
vector 2700455  Network.dyn_peer[121]  lookupTimeSig:vector  ETV
vector 2700288  Network.dyn_peer[66]  lookupHopsSig:vector  ETV
vector 2700289  Network.dyn_peer[66]  lookupStabilitySig:vector  ETV
vector 2700290  Network.dyn_peer[66]  lookupTimeSig:vector  ETV
vector 2700558  Network.dyn_peer[156]  lookupHopsSig:vector  ETV
vector 2700559  Network.dyn_peer[156]  lookupStabilitySig:vector  ETV
vector 2700560  Network.dyn_peer[156]  lookupTimeSig:vector  ETV
vector 2700231  Network.dyn_peer[47]  lookupHopsSig:vector  ETV
vector 2700232  Network.dyn_peer[47]  lookupStabilitySig:vector  ETV
vector 2700233  Network.dyn_peer[47]  lookupTimeSig:vector  ETV
vector 2700501  Network.dyn_peer[137]  lookupHopsSig:vector  ETV
vector 2700502  Network.dyn_peer[137]  lookupStabilitySig:vector  ETV
vector 2700503  Network.dyn_peer[137]  lookupTimeSig:vector  ETV
vector 2700504  Network.dyn_peer[138]  lookupHopsSig:vector  ETV
vector 2700505  Network.dyn_peer[138]  lookupStabilitySig:vector  ETV
vector 2700506  Network.dyn_peer[138]  lookupTimeSig:vector  ETV
vector 2700483  Network.dyn_peer[131]  lookupHopsSig:vector  ETV
vector 2700484  Network.dyn_peer[131]  lookupStabilitySig:vector  ETV
vector 2700485  Network.dyn_peer[131]  lookupTimeSig:vector  ETV
vector 2700513  Network.dyn_peer[141]  lookupHopsSig:vector  ETV
vector 2700514  Network.dyn_peer[141]  lookupStabilitySig:vector  ETV
vector 2700515  Network.dyn_peer[141]  lookupTimeSig:vector  ETV
vector 2700516  Network.dyn_peer[142]  lookupHopsSig:vector  ETV
vector 2700517  Network.dyn_peer[142]  lookupStabilitySig:vector  ETV
vector 2700518  Network.dyn_peer[142]  lookupTimeSig:vector  ETV
vector 2700384  Network.dyn_peer[98]  lookupHopsSig:vector  ETV
vector 2700385  Network.dyn_peer[98]  lookupStabilitySig:vector  ETV
vector 2700386  Network.dyn_peer[98]  lookupTimeSig:vector  ETV
vector 2700546  Network.dyn_peer[152]  lookupHopsSig:vector  ETV
vector 2700547  Network.dyn_peer[152]  lookupStabilitySig:vector  ETV
vector 2700548  Network.dyn_peer[152]  lookupTimeSig:vector  ETV
vector 2700399  Network.dyn_peer[103]  lookupHopsSig:vector  ETV
vector 2700400  Network.dyn_peer[103]  lookupStabilitySig:vector  ETV
vector 2700401  Network.dyn_peer[103]  lookupTimeSig:vector  ETV
vector 2700459  Network.dyn_peer[123]  lookupHopsSig:vector  ETV
vector 2700460  Network.dyn_peer[123]  lookupStabilitySig:vector  ETV
vector 2700461  Network.dyn_peer[123]  lookupTimeSig:vector  ETV
vector 2700549  Network.dyn_peer[153]  lookupHopsSig:vector  ETV
vector 2700550  Network.dyn_peer[153]  lookupStabilitySig:vector  ETV
vector 2700551  Network.dyn_peer[153]  lookupTimeSig:vector  ETV
vector 2700522  Network.dyn_peer[144]  lookupHopsSig:vector  ETV
vector 2700523  Network.dyn_peer[144]  lookupStabilitySig:vector  ETV
vector 2700524  Network.dyn_peer[144]  lookupTimeSig:vector  ETV
vector 2700555  Network.dyn_peer[155]  lookupHopsSig:vector  ETV
vector 2700556  Network.dyn_peer[155]  lookupStabilitySig:vector  ETV
vector 2700557  Network.dyn_peer[155]  lookupTimeSig:vector  ETV
vector 2700531  Network.dyn_peer[147]  lookupHopsSig:vector  ETV
vector 2700532  Network.dyn_peer[147]  lookupStabilitySig:vector  ETV
vector 2700533  Network.dyn_peer[147]  lookupTimeSig:vector  ETV
vector 2700507  Network.dyn_peer[139]  lookupHopsSig:vector  ETV
vector 2700508  Network.dyn_peer[139]  lookupStabilitySig:vector  ETV
vector 2700509  Network.dyn_peer[139]  lookupTimeSig:vector  ETV
vector 2700300  Network.dyn_peer[70]  lookupHopsSig:vector  ETV
vector 2700301  Network.dyn_peer[70]  lookupStabilitySig:vector  ETV
vector 2700302  Network.dyn_peer[70]  lookupTimeSig:vector  ETV
vector 2700450  Network.dyn_peer[120]  lookupHopsSig:vector  ETV
vector 2700451  Network.dyn_peer[120]  lookupStabilitySig:vector  ETV
vector 2700452  Network.dyn_peer[120]  lookupTimeSig:vector  ETV
vector 2700609  Network.dyn_peer[173]  lookupHopsSig:vector  ETV
vector 2700610  Network.dyn_peer[173]  lookupStabilitySig:vector  ETV
vector 2700611  Network.dyn_peer[173]  lookupTimeSig:vector  ETV
vector 2700432  Network.dyn_peer[114]  lookupHopsSig:vector  ETV
vector 2700433  Network.dyn_peer[114]  lookupStabilitySig:vector  ETV
vector 2700434  Network.dyn_peer[114]  lookupTimeSig:vector  ETV
vector 2700381  Network.dyn_peer[97]  lookupHopsSig:vector  ETV
vector 2700382  Network.dyn_peer[97]  lookupStabilitySig:vector  ETV
vector 2700383  Network.dyn_peer[97]  lookupTimeSig:vector  ETV
vector 2700414  Network.dyn_peer[108]  lookupHopsSig:vector  ETV
vector 2700415  Network.dyn_peer[108]  lookupStabilitySig:vector  ETV
vector 2700416  Network.dyn_peer[108]  lookupTimeSig:vector  ETV
vector 2700627  Network.dyn_peer[179]  lookupHopsSig:vector  ETV
vector 2700628  Network.dyn_peer[179]  lookupStabilitySig:vector  ETV
vector 2700629  Network.dyn_peer[179]  lookupTimeSig:vector  ETV
vector 2700570  Network.dyn_peer[160]  lookupHopsSig:vector  ETV
vector 2700571  Network.dyn_peer[160]  lookupStabilitySig:vector  ETV
vector 2700572  Network.dyn_peer[160]  lookupTimeSig:vector  ETV
vector 2700660  Network.dyn_peer[190]  lookupHopsSig:vector  ETV
vector 2700661  Network.dyn_peer[190]  lookupStabilitySig:vector  ETV
vector 2700662  Network.dyn_peer[190]  lookupTimeSig:vector  ETV
vector 2700741  Network.dyn_peer[217]  lookupHopsSig:vector  ETV
vector 2700742  Network.dyn_peer[217]  lookupStabilitySig:vector  ETV
vector 2700743  Network.dyn_peer[217]  lookupTimeSig:vector  ETV
vector 2700537  Network.dyn_peer[149]  lookupHopsSig:vector  ETV
vector 2700538  Network.dyn_peer[149]  lookupStabilitySig:vector  ETV
vector 2700539  Network.dyn_peer[149]  lookupTimeSig:vector  ETV
vector 2700567  Network.dyn_peer[159]  lookupHopsSig:vector  ETV
vector 2700568  Network.dyn_peer[159]  lookupStabilitySig:vector  ETV
vector 2700569  Network.dyn_peer[159]  lookupTimeSig:vector  ETV
vector 2700657  Network.dyn_peer[189]  lookupHopsSig:vector  ETV
vector 2700658  Network.dyn_peer[189]  lookupStabilitySig:vector  ETV
vector 2700659  Network.dyn_peer[189]  lookupTimeSig:vector  ETV
vector 2700510  Network.dyn_peer[140]  lookupHopsSig:vector  ETV
vector 2700511  Network.dyn_peer[140]  lookupStabilitySig:vector  ETV
vector 2700512  Network.dyn_peer[140]  lookupTimeSig:vector  ETV
vector 2700540  Network.dyn_peer[150]  lookupHopsSig:vector  ETV
vector 2700541  Network.dyn_peer[150]  lookupStabilitySig:vector  ETV
vector 2700542  Network.dyn_peer[150]  lookupTimeSig:vector  ETV
vector 2700606  Network.dyn_peer[172]  lookupHopsSig:vector  ETV
vector 2700607  Network.dyn_peer[172]  lookupStabilitySig:vector  ETV
vector 2700608  Network.dyn_peer[172]  lookupTimeSig:vector  ETV
vector 2700552  Network.dyn_peer[154]  lookupHopsSig:vector  ETV
vector 2700553  Network.dyn_peer[154]  lookupStabilitySig:vector  ETV
vector 2700554  Network.dyn_peer[154]  lookupTimeSig:vector  ETV
vector 2700465  Network.dyn_peer[125]  lookupHopsSig:vector  ETV
vector 2700466  Network.dyn_peer[125]  lookupStabilitySig:vector  ETV
vector 2700467  Network.dyn_peer[125]  lookupTimeSig:vector  ETV
vector 2700621  Network.dyn_peer[177]  lookupHopsSig:vector  ETV
vector 2700622  Network.dyn_peer[177]  lookupStabilitySig:vector  ETV
vector 2700623  Network.dyn_peer[177]  lookupTimeSig:vector  ETV
vector 2700330  Network.dyn_peer[80]  lookupHopsSig:vector  ETV
vector 2700331  Network.dyn_peer[80]  lookupStabilitySig:vector  ETV
vector 2700332  Network.dyn_peer[80]  lookupTimeSig:vector  ETV
vector 2700420  Network.dyn_peer[110]  lookupHopsSig:vector  ETV
vector 2700421  Network.dyn_peer[110]  lookupStabilitySig:vector  ETV
vector 2700422  Network.dyn_peer[110]  lookupTimeSig:vector  ETV
vector 2700603  Network.dyn_peer[171]  lookupHopsSig:vector  ETV
vector 2700604  Network.dyn_peer[171]  lookupStabilitySig:vector  ETV
vector 2700605  Network.dyn_peer[171]  lookupTimeSig:vector  ETV
vector 2700723  Network.dyn_peer[211]  lookupHopsSig:vector  ETV
vector 2700724  Network.dyn_peer[211]  lookupStabilitySig:vector  ETV