version 2
run Stability2-34-20130528-01:25:02-24168
attr configname Stability2
attr datetime 20130528-01:25:02
attr experiment Stability2
attr inifile omnetpp.ini
attr iterationvars $0=40
attr iterationvars2 "$0=40, $repetition=4"
attr measurement $0=40
attr network Network
attr processid 24168
attr repetition 4
attr replication #4
attr resultdir results
attr runnumber 34
attr seedset 34

vector 1050034  Network.churner  inGoingSizeSig:vector  ETV
vector 1020058  Network.dyn_peer[8]  lookupHopsSig:vector  ETV
vector 1020059  Network.dyn_peer[8]  lookupStabilitySig:vector  ETV
vector 1020060  Network.dyn_peer[8]  lookupTimeSig:vector  ETV
vector 1020037  Network.dyn_peer[1]  lookupHopsSig:vector  ETV
vector 1020038  Network.dyn_peer[1]  lookupStabilitySig:vector  ETV
vector 1020039  Network.dyn_peer[1]  lookupTimeSig:vector  ETV
vector 1020049  Network.dyn_peer[5]  lookupHopsSig:vector  ETV
vector 1020050  Network.dyn_peer[5]  lookupStabilitySig:vector  ETV
vector 1020051  Network.dyn_peer[5]  lookupTimeSig:vector  ETV
vector 1020082  Network.dyn_peer[16]  lookupHopsSig:vector  ETV
vector 1020083  Network.dyn_peer[16]  lookupStabilitySig:vector  ETV
vector 1020084  Network.dyn_peer[16]  lookupTimeSig:vector  ETV
vector 1020055  Network.dyn_peer[7]  lookupHopsSig:vector  ETV
vector 1020056  Network.dyn_peer[7]  lookupStabilitySig:vector  ETV
vector 1020057  Network.dyn_peer[7]  lookupTimeSig:vector  ETV
vector 1020061  Network.dyn_peer[9]  lookupHopsSig:vector  ETV
vector 1020062  Network.dyn_peer[9]  lookupStabilitySig:vector  ETV
vector 1020063  Network.dyn_peer[9]  lookupTimeSig:vector  ETV
vector 1020040  Network.dyn_peer[2]  lookupHopsSig:vector  ETV
vector 1020041  Network.dyn_peer[2]  lookupStabilitySig:vector  ETV
vector 1020042  Network.dyn_peer[2]  lookupTimeSig:vector  ETV
vector 1020043  Network.dyn_peer[3]  lookupHopsSig:vector  ETV
vector 1020044  Network.dyn_peer[3]  lookupStabilitySig:vector  ETV
vector 1020045  Network.dyn_peer[3]  lookupTimeSig:vector  ETV
vector 1020046  Network.dyn_peer[4]  lookupHopsSig:vector  ETV
vector 1020047  Network.dyn_peer[4]  lookupStabilitySig:vector  ETV
vector 1020048  Network.dyn_peer[4]  lookupTimeSig:vector  ETV
vector 1020052  Network.dyn_peer[6]  lookupHopsSig:vector  ETV
vector 1020053  Network.dyn_peer[6]  lookupStabilitySig:vector  ETV
vector 1020054  Network.dyn_peer[6]  lookupTimeSig:vector  ETV
vector 1020085  Network.dyn_peer[17]  lookupHopsSig:vector  ETV
vector 1020086  Network.dyn_peer[17]  lookupStabilitySig:vector  ETV
vector 1020087  Network.dyn_peer[17]  lookupTimeSig:vector  ETV
vector 1020034  Network.dyn_peer[0]  lookupHopsSig:vector  ETV
vector 1020035  Network.dyn_peer[0]  lookupStabilitySig:vector  ETV
vector 1020036  Network.dyn_peer[0]  lookupTimeSig:vector  ETV
vector 1020064  Network.dyn_peer[10]  lookupHopsSig:vector  ETV
vector 1020065  Network.dyn_peer[10]  lookupStabilitySig:vector  ETV
vector 1020066  Network.dyn_peer[10]  lookupTimeSig:vector  ETV
vector 1020070  Network.dyn_peer[12]  lookupHopsSig:vector  ETV
vector 1020071  Network.dyn_peer[12]  lookupStabilitySig:vector  ETV
vector 1020072  Network.dyn_peer[12]  lookupTimeSig:vector  ETV
vector 1020073  Network.dyn_peer[13]  lookupHopsSig:vector  ETV
vector 1020074  Network.dyn_peer[13]  lookupStabilitySig:vector  ETV
vector 1020075  Network.dyn_peer[13]  lookupTimeSig:vector  ETV
vector 1020109  Network.dyn_peer[25]  lookupHopsSig:vector  ETV
vector 1020110  Network.dyn_peer[25]  lookupStabilitySig:vector  ETV
vector 1020111  Network.dyn_peer[25]  lookupTimeSig:vector  ETV
vector 1020118  Network.dyn_peer[28]  lookupHopsSig:vector  ETV
vector 1020119  Network.dyn_peer[28]  lookupStabilitySig:vector  ETV
vector 1020120  Network.dyn_peer[28]  lookupTimeSig:vector  ETV
vector 1020091  Network.dyn_peer[19]  lookupHopsSig:vector  ETV
vector 1020092  Network.dyn_peer[19]  lookupStabilitySig:vector  ETV
vector 1020093  Network.dyn_peer[19]  lookupTimeSig:vector  ETV
vector 1020067  Network.dyn_peer[11]  lookupHopsSig:vector  ETV
vector 1020068  Network.dyn_peer[11]  lookupStabilitySig:vector  ETV
vector 1020069  Network.dyn_peer[11]  lookupTimeSig:vector  ETV
vector 1020097  Network.dyn_peer[21]  lookupHopsSig:vector  ETV
vector 1020098  Network.dyn_peer[21]  lookupStabilitySig:vector  ETV
vector 1020099  Network.dyn_peer[21]  lookupTimeSig:vector  ETV
vector 1020100  Network.dyn_peer[22]  lookupHopsSig:vector  ETV
vector 1020101  Network.dyn_peer[22]  lookupStabilitySig:vector  ETV
vector 1020102  Network.dyn_peer[22]  lookupTimeSig:vector  ETV
vector 1020103  Network.dyn_peer[23]  lookupHopsSig:vector  ETV
vector 1020104  Network.dyn_peer[23]  lookupStabilitySig:vector  ETV
vector 1020105  Network.dyn_peer[23]  lookupTimeSig:vector  ETV
vector 1020163  Network.dyn_peer[43]  lookupHopsSig:vector  ETV
vector 1020164  Network.dyn_peer[43]  lookupStabilitySig:vector  ETV
vector 1020165  Network.dyn_peer[43]  lookupTimeSig:vector  ETV
vector 1020076  Network.dyn_peer[14]  lookupHopsSig:vector  ETV
vector 1020077  Network.dyn_peer[14]  lookupStabilitySig:vector  ETV
vector 1020078  Network.dyn_peer[14]  lookupTimeSig:vector  ETV
vector 1020142  Network.dyn_peer[36]  lookupHopsSig:vector  ETV
vector 1020143  Network.dyn_peer[36]  lookupStabilitySig:vector  ETV
vector 1020144  Network.dyn_peer[36]  lookupTimeSig:vector  ETV
vector 1020115  Network.dyn_peer[27]  lookupHopsSig:vector  ETV
vector 1020116  Network.dyn_peer[27]  lookupStabilitySig:vector  ETV
vector 1020117  Network.dyn_peer[27]  lookupTimeSig:vector  ETV
vector 1020106  Network.dyn_peer[24]  lookupHopsSig:vector  ETV
vector 1020107  Network.dyn_peer[24]  lookupStabilitySig:vector  ETV
vector 1020108  Network.dyn_peer[24]  lookupTimeSig:vector  ETV
vector 1020199  Network.dyn_peer[55]  lookupHopsSig:vector  ETV
vector 1020200  Network.dyn_peer[55]  lookupStabilitySig:vector  ETV
vector 1020201  Network.dyn_peer[55]  lookupTimeSig:vector  ETV
vector 1020187  Network.dyn_peer[51]  lookupHopsSig:vector  ETV
vector 1020188  Network.dyn_peer[51]  lookupStabilitySig:vector  ETV
vector 1020189  Network.dyn_peer[51]  lookupTimeSig:vector  ETV
vector 1020148  Network.dyn_peer[38]  lookupHopsSig:vector  ETV
vector 1020149  Network.dyn_peer[38]  lookupStabilitySig:vector  ETV
vector 1020150  Network.dyn_peer[38]  lookupTimeSig:vector  ETV
vector 1020151  Network.dyn_peer[39]  lookupHopsSig:vector  ETV
vector 1020152  Network.dyn_peer[39]  lookupStabilitySig:vector  ETV
vector 1020153  Network.dyn_peer[39]  lookupTimeSig:vector  ETV
vector 1020094  Network.dyn_peer[20]  lookupHopsSig:vector  ETV
vector 1020095  Network.dyn_peer[20]  lookupStabilitySig:vector  ETV
vector 1020096  Network.dyn_peer[20]  lookupTimeSig:vector  ETV
vector 1020196  Network.dyn_peer[54]  lookupHopsSig:vector  ETV
vector 1020197  Network.dyn_peer[54]  lookupStabilitySig:vector  ETV
vector 1020198  Network.dyn_peer[54]  lookupTimeSig:vector  ETV
vector 1020139  Network.dyn_peer[35]  lookupHopsSig:vector  ETV
vector 1020140  Network.dyn_peer[35]  lookupStabilitySig:vector  ETV
vector 1020141  Network.dyn_peer[35]  lookupTimeSig:vector  ETV
vector 1020232  Network.dyn_peer[66]  lookupHopsSig:vector  ETV
vector 1020233  Network.dyn_peer[66]  lookupStabilitySig:vector  ETV
vector 1020234  Network.dyn_peer[66]  lookupTimeSig:vector  ETV
vector 1020145  Network.dyn_peer[37]  lookupHopsSig:vector  ETV
vector 1020146  Network.dyn_peer[37]  lookupStabilitySig:vector  ETV
vector 1020147  Network.dyn_peer[37]  lookupTimeSig:vector  ETV
vector 1020121  Network.dyn_peer[29]  lookupHopsSig:vector  ETV
vector 1020122  Network.dyn_peer[29]  lookupStabilitySig:vector  ETV
vector 1020123  Network.dyn_peer[29]  lookupTimeSig:vector  ETV
vector 1020124  Network.dyn_peer[30]  lookupHopsSig:vector  ETV
vector 1020125  Network.dyn_peer[30]  lookupStabilitySig:vector  ETV
vector 1020126  Network.dyn_peer[30]  lookupTimeSig:vector  ETV
vector 1020127  Network.dyn_peer[31]  lookupHopsSig:vector  ETV
vector 1020128  Network.dyn_peer[31]  lookupStabilitySig:vector  ETV
vector 1020129  Network.dyn_peer[31]  lookupTimeSig:vector  ETV
vector 1020133  Network.dyn_peer[33]  lookupHopsSig:vector  ETV
vector 1020134  Network.dyn_peer[33]  lookupStabilitySig:vector  ETV
vector 1020135  Network.dyn_peer[33]  lookupTimeSig:vector  ETV
vector 1020268  Network.dyn_peer[78]  lookupHopsSig:vector  ETV
vector 1020269  Network.dyn_peer[78]  lookupStabilitySig:vector  ETV
vector 1020270  Network.dyn_peer[78]  lookupTimeSig:vector  ETV
vector 1020217  Network.dyn_peer[61]  lookupHopsSig:vector  ETV
vector 1020218  Network.dyn_peer[61]  lookupStabilitySig:vector  ETV
vector 1020219  Network.dyn_peer[61]  lookupTimeSig:vector  ETV
vector 1020130  Network.dyn_peer[32]  lookupHopsSig:vector  ETV
vector 1020131  Network.dyn_peer[32]  lookupStabilitySig:vector  ETV
vector 1020132  Network.dyn_peer[32]  lookupTimeSig:vector  ETV
vector 1020079  Network.dyn_peer[15]  lookupHopsSig:vector  ETV
vector 1020080  Network.dyn_peer[15]  lookupStabilitySig:vector  ETV
vector 1020081  Network.dyn_peer[15]  lookupTimeSig:vector  ETV
vector 1020280  Network.dyn_peer[82]  lookupHopsSig:vector  ETV
vector 1020281  Network.dyn_peer[82]  lookupStabilitySig:vector  ETV
vector 1020282  Network.dyn_peer[82]  lookupTimeSig:vector  ETV
vector 1020136  Network.dyn_peer[34]  lookupHopsSig:vector  ETV
vector 1020137  Network.dyn_peer[34]  lookupStabilitySig:vector  ETV
vector 1020138  Network.dyn_peer[34]  lookupTimeSig:vector  ETV
vector 1020229  Network.dyn_peer[65]  lookupHopsSig:vector  ETV
vector 1020230  Network.dyn_peer[65]  lookupStabilitySig:vector  ETV
vector 1020231  Network.dyn_peer[65]  lookupTimeSig:vector  ETV
vector 1020112  Network.dyn_peer[26]  lookupHopsSig:vector  ETV
vector 1020113  Network.dyn_peer[26]  lookupStabilitySig:vector  ETV
vector 1020114  Network.dyn_peer[26]  lookupTimeSig:vector  ETV
vector 1020208  Network.dyn_peer[58]  lookupHopsSig:vector  ETV
vector 1020209  Network.dyn_peer[58]  lookupStabilitySig:vector  ETV
vector 1020210  Network.dyn_peer[58]  lookupTimeSig:vector  ETV
vector 1020364  Network.dyn_peer[110]  lookupHopsSig:vector  ETV
vector 1020365  Network.dyn_peer[110]  lookupStabilitySig:vector  ETV
vector 1020366  Network.dyn_peer[110]  lookupTimeSig:vector  ETV
vector 1020307  Network.dyn_peer[91]  lookupHopsSig:vector  ETV
vector 1020308  Network.dyn_peer[91]  lookupStabilitySig:vector  ETV
vector 1020309  Network.dyn_peer[91]  lookupTimeSig:vector  ETV
vector 1020160  Network.dyn_peer[42]  lookupHopsSig:vector  ETV
vector 1020161  Network.dyn_peer[42]  lookupStabilitySig:vector  ETV
vector 1020162  Network.dyn_peer[42]  lookupTimeSig:vector  ETV
vector 1020256  Network.dyn_peer[74]  lookupHopsSig:vector  ETV
vector 1020257  Network.dyn_peer[74]  lookupStabilitySig:vector  ETV
vector 1020258  Network.dyn_peer[74]  lookupTimeSig:vector  ETV
vector 1020322  Network.dyn_peer[96]  lookupHopsSig:vector  ETV
vector 1020323  Network.dyn_peer[96]  lookupStabilitySig:vector  ETV
vector 1020324  Network.dyn_peer[96]  lookupTimeSig:vector  ETV
vector 1020235  Network.dyn_peer[67]  lookupHopsSig:vector  ETV
vector 1020236  Network.dyn_peer[67]  lookupStabilitySig:vector  ETV
vector 1020237  Network.dyn_peer[67]  lookupTimeSig:vector  ETV
vector 1020265  Network.dyn_peer[77]  lookupHopsSig:vector  ETV
vector 1020266  Network.dyn_peer[77]  lookupStabilitySig:vector  ETV
vector 1020267  Network.dyn_peer[77]  lookupTimeSig:vector  ETV
vector 1020244  Network.dyn_peer[70]  lookupHopsSig:vector  ETV
vector 1020245  Network.dyn_peer[70]  lookupStabilitySig:vector  ETV
vector 1020246  Network.dyn_peer[70]  lookupTimeSig:vector  ETV
vector 1020193  Network.dyn_peer[53]  lookupHopsSig:vector  ETV
vector 1020194  Network.dyn_peer[53]  lookupStabilitySig:vector  ETV
vector 1020195  Network.dyn_peer[53]  lookupTimeSig:vector  ETV
vector 1020253  Network.dyn_peer[73]  lookupHopsSig:vector  ETV
vector 1020254  Network.dyn_peer[73]  lookupStabilitySig:vector  ETV
vector 1020255  Network.dyn_peer[73]  lookupTimeSig:vector  ETV
vector 1020169  Network.dyn_peer[45]  lookupHopsSig:vector  ETV
vector 1020170  Network.dyn_peer[45]  lookupStabilitySig:vector  ETV
vector 1020171  Network.dyn_peer[45]  lookupTimeSig:vector  ETV
vector 1020172  Network.dyn_peer[46]  lookupHopsSig:vector  ETV
vector 1020173  Network.dyn_peer[46]  lookupStabilitySig:vector  ETV
vector 1020174  Network.dyn_peer[46]  lookupTimeSig:vector  ETV
vector 1020205  Network.dyn_peer[57]  lookupHopsSig:vector  ETV
vector 1020206  Network.dyn_peer[57]  lookupStabilitySig:vector  ETV
vector 1020207  Network.dyn_peer[57]  lookupTimeSig:vector  ETV
vector 1020355  Network.dyn_peer[107]  lookupHopsSig:vector  ETV
vector 1020356  Network.dyn_peer[107]  lookupStabilitySig:vector  ETV
vector 1020357  Network.dyn_peer[107]  lookupTimeSig:vector  ETV
vector 1020088  Network.dyn_peer[18]  lookupHopsSig:vector  ETV
vector 1020089  Network.dyn_peer[18]  lookupStabilitySig:vector  ETV
vector 1020090  Network.dyn_peer[18]  lookupTimeSig:vector  ETV
vector 1020178  Network.dyn_peer[48]  lookupHopsSig:vector  ETV
vector 1020179  Network.dyn_peer[48]  lookupStabilitySig:vector  ETV
vector 1020180  Network.dyn_peer[48]  lookupTimeSig:vector  ETV
vector 1020331  Network.dyn_peer[99]  lookupHopsSig:vector  ETV
vector 1020332  Network.dyn_peer[99]  lookupStabilitySig:vector  ETV
vector 1020333  Network.dyn_peer[99]  lookupTimeSig:vector  ETV
vector 1020154  Network.dyn_peer[40]  lookupHopsSig:vector  ETV
vector 1020155  Network.dyn_peer[40]  lookupStabilitySig:vector  ETV
vector 1020156  Network.dyn_peer[40]  lookupTimeSig:vector  ETV
vector 1020277  Network.dyn_peer[81]  lookupHopsSig:vector  ETV
vector 1020278  Network.dyn_peer[81]  lookupStabilitySig:vector  ETV
vector 1020279  Network.dyn_peer[81]  lookupTimeSig:vector  ETV
vector 1020343  Network.dyn_peer[103]  lookupHopsSig:vector  ETV
vector 1020344  Network.dyn_peer[103]  lookupStabilitySig:vector  ETV
vector 1020345  Network.dyn_peer[103]  lookupTimeSig:vector  ETV
vector 1020385  Network.dyn_peer[117]  lookupHopsSig:vector  ETV
vector 1020386  Network.dyn_peer[117]  lookupStabilitySig:vector  ETV
vector 1020387  Network.dyn_peer[117]  lookupTimeSig:vector  ETV
vector 1020190  Network.dyn_peer[52]  lookupHopsSig:vector  ETV
vector 1020191  Network.dyn_peer[52]  lookupStabilitySig:vector  ETV
vector 1020192  Network.dyn_peer[52]  lookupTimeSig:vector  ETV
vector 1020289  Network.dyn_peer[85]  lookupHopsSig:vector  ETV
vector 1020290  Network.dyn_peer[85]  lookupStabilitySig:vector  ETV
vector 1020291  Network.dyn_peer[85]  lookupTimeSig:vector  ETV
vector 1020349  Network.dyn_peer[105]  lookupHopsSig:vector  ETV
vector 1020350  Network.dyn_peer[105]  lookupStabilitySig:vector  ETV
vector 1020351  Network.dyn_peer[105]  lookupTimeSig:vector  ETV
vector 1020238  Network.dyn_peer[68]  lookupHopsSig:vector  ETV
vector 1020239  Network.dyn_peer[68]  lookupStabilitySig:vector  ETV
vector 1020240  Network.dyn_peer[68]  lookupTimeSig:vector  ETV
vector 1020418  Network.dyn_peer[128]  lookupHopsSig:vector  ETV
vector 1020419  Network.dyn_peer[128]  lookupStabilitySig:vector  ETV
vector 1020420  Network.dyn_peer[128]  lookupTimeSig:vector  ETV
vector 1020211  Network.dyn_peer[59]  lookupHopsSig:vector  ETV
vector 1020212  Network.dyn_peer[59]  lookupStabilitySig:vector  ETV
vector 1020213  Network.dyn_peer[59]  lookupTimeSig:vector  ETV
vector 1020184  Network.dyn_peer[50]  lookupHopsSig:vector  ETV
vector 1020185  Network.dyn_peer[50]  lookupStabilitySig:vector  ETV
vector 1020186  Network.dyn_peer[50]  lookupTimeSig:vector  ETV
vector 1020247  Network.dyn_peer[71]  lookupHopsSig:vector  ETV
vector 1020248  Network.dyn_peer[71]  lookupStabilitySig:vector  ETV
vector 1020249  Network.dyn_peer[71]  lookupTimeSig:vector  ETV
vector 1020250  Network.dyn_peer[72]  lookupHopsSig:vector  ETV
vector 1020251  Network.dyn_peer[72]  lookupStabilitySig:vector  ETV
vector 1020252  Network.dyn_peer[72]  lookupTimeSig:vector  ETV
vector 1020400  Network.dyn_peer[122]  lookupHopsSig:vector  ETV
vector 1020401  Network.dyn_peer[122]  lookupStabilitySig:vector  ETV
vector 1020402  Network.dyn_peer[122]  lookupTimeSig:vector  ETV
vector 1020283  Network.dyn_peer[83]  lookupHopsSig:vector  ETV
vector 1020284  Network.dyn_peer[83]  lookupStabilitySig:vector  ETV
vector 1020285  Network.dyn_peer[83]  lookupTimeSig:vector  ETV
vector 1020313  Network.dyn_peer[93]  lookupHopsSig:vector  ETV
vector 1020314  Network.dyn_peer[93]  lookupStabilitySig:vector  ETV
vector 1020315  Network.dyn_peer[93]  lookupTimeSig:vector  ETV
vector 1020286  Network.dyn_peer[84]  lookupHopsSig:vector  ETV
vector 1020287  Network.dyn_peer[84]  lookupStabilitySig:vector  ETV
vector 1020288  Network.dyn_peer[84]  lookupTimeSig:vector  ETV
vector 1020409  Network.dyn_peer[125]  lookupHopsSig:vector  ETV
vector 1020410  Network.dyn_peer[125]  lookupStabilitySig:vector  ETV
vector 1020411  Network.dyn_peer[125]  lookupTimeSig:vector  ETV
vector 1020202  Network.dyn_peer[56]  lookupHopsSig:vector  ETV
vector 1020203  Network.dyn_peer[56]  lookupStabilitySig:vector  ETV
vector 1020204  Network.dyn_peer[56]  lookupTimeSig:vector  ETV
vector 1020175  Network.dyn_peer[47]  lookupHopsSig:vector  ETV
vector 1020176  Network.dyn_peer[47]  lookupStabilitySig:vector  ETV
vector 1020177  Network.dyn_peer[47]  lookupTimeSig:vector  ETV
vector 1020298  Network.dyn_peer[88]  lookupHopsSig:vector  ETV
vector 1020299  Network.dyn_peer[88]  lookupStabilitySig:vector  ETV
vector 1020300  Network.dyn_peer[88]  lookupTimeSig:vector  ETV
vector 1020271  Network.dyn_peer[79]  lookupHopsSig:vector  ETV
vector 1020272  Network.dyn_peer[79]  lookupStabilitySig:vector  ETV
vector 1020273  Network.dyn_peer[79]  lookupTimeSig:vector  ETV
vector 1020214  Network.dyn_peer[60]  lookupHopsSig:vector  ETV
vector 1020215  Network.dyn_peer[60]  lookupStabilitySig:vector  ETV
vector 1020216  Network.dyn_peer[60]  lookupTimeSig:vector  ETV
vector 1020316  Network.dyn_peer[94]  lookupHopsSig:vector  ETV
vector 1020317  Network.dyn_peer[94]  lookupStabilitySig:vector  ETV
vector 1020318  Network.dyn_peer[94]  lookupTimeSig:vector  ETV
vector 1020406  Network.dyn_peer[124]  lookupHopsSig:vector  ETV
vector 1020407  Network.dyn_peer[124]  lookupStabilitySig:vector  ETV
vector 1020408  Network.dyn_peer[124]  lookupTimeSig:vector  ETV
vector 1020325  Network.dyn_peer[97]  lookupHopsSig:vector  ETV
vector 1020326  Network.dyn_peer[97]  lookupStabilitySig:vector  ETV
vector 1020327  Network.dyn_peer[97]  lookupTimeSig:vector  ETV
vector 1020328  Network.dyn_peer[98]  lookupHopsSig:vector  ETV
vector 1020329  Network.dyn_peer[98]  lookupStabilitySig:vector  ETV
vector 1020330  Network.dyn_peer[98]  lookupTimeSig:vector  ETV
vector 1020391  Network.dyn_peer[119]  lookupHopsSig:vector  ETV
vector 1020392  Network.dyn_peer[119]  lookupStabilitySig:vector  ETV
vector 1020393  Network.dyn_peer[119]  lookupTimeSig:vector  ETV
vector 1020547  Network.dyn_peer[171]  lookupHopsSig:vector  ETV
vector 1020548  Network.dyn_peer[171]  lookupStabilitySig:vector  ETV
vector 1020549  Network.dyn_peer[171]  lookupTimeSig:vector  ETV
vector 1020340  Network.dyn_peer[102]  lookupHopsSig:vector  ETV
vector 1020341  Network.dyn_peer[102]  lookupStabilitySig:vector  ETV
vector 1020342  Network.dyn_peer[102]  lookupTimeSig:vector  ETV
vector 1020223  Network.dyn_peer[63]  lookupHopsSig:vector  ETV
vector 1020224  Network.dyn_peer[63]  lookupStabilitySig:vector  ETV
vector 1020225  Network.dyn_peer[63]  lookupTimeSig:vector  ETV
vector 1020226  Network.dyn_peer[64]  lookupHopsSig:vector  ETV
vector 1020227  Network.dyn_peer[64]  lookupStabilitySig:vector  ETV
vector 1020228  Network.dyn_peer[64]  lookupTimeSig:vector  ETV
vector 1020292  Network.dyn_peer[86]  lookupHopsSig:vector  ETV
vector 1020293  Network.dyn_peer[86]  lookupStabilitySig:vector  ETV
vector 1020294  Network.dyn_peer[86]  lookupTimeSig:vector  ETV
vector 1020352  Network.dyn_peer[106]  lookupHopsSig:vector  ETV
vector 1020353  Network.dyn_peer[106]  lookupStabilitySig:vector  ETV
vector 1020354  Network.dyn_peer[106]  lookupTimeSig:vector  ETV
vector 1020448  Network.dyn_peer[138]  lookupHopsSig:vector  ETV
vector 1020449  Network.dyn_peer[138]  lookupStabilitySig:vector  ETV
vector 1020450  Network.dyn_peer[138]  lookupTimeSig:vector  ETV
vector 1020451  Network.dyn_peer[139]  lookupHopsSig:vector  ETV
vector 1020452  Network.dyn_peer[139]  lookupStabilitySig:vector  ETV
vector 1020453  Network.dyn_peer[139]  lookupTimeSig:vector  ETV
vector 1020274  Network.dyn_peer[80]  lookupHopsSig:vector  ETV
vector 1020275  Network.dyn_peer[80]  lookupStabilitySig:vector  ETV
vector 1020276  Network.dyn_peer[80]  lookupTimeSig:vector  ETV
vector 1020157  Network.dyn_peer[41]  lookupHopsSig:vector  ETV
vector 1020158  Network.dyn_peer[41]  lookupStabilitySig:vector  ETV
vector 1020159  Network.dyn_peer[41]  lookupTimeSig:vector  ETV
vector 1020337  Network.dyn_peer[101]  lookupHopsSig:vector  ETV
vector 1020338  Network.dyn_peer[101]  lookupStabilitySig:vector  ETV
vector 1020339  Network.dyn_peer[101]  lookupTimeSig:vector  ETV
vector 1020373  Network.dyn_peer[113]  lookupHopsSig:vector  ETV
vector 1020374  Network.dyn_peer[113]  lookupStabilitySig:vector  ETV
vector 1020375  Network.dyn_peer[113]  lookupTimeSig:vector  ETV
vector 1020433  Network.dyn_peer[133]  lookupHopsSig:vector  ETV
vector 1020434  Network.dyn_peer[133]  lookupStabilitySig:vector  ETV
vector 1020435  Network.dyn_peer[133]  lookupTimeSig:vector  ETV
vector 1020523  Network.dyn_peer[163]  lookupHopsSig:vector  ETV
vector 1020524  Network.dyn_peer[163]  lookupStabilitySig:vector  ETV
vector 1020525  Network.dyn_peer[163]  lookupTimeSig:vector  ETV
vector 1020556  Network.dyn_peer[174]  lookupHopsSig:vector  ETV
vector 1020557  Network.dyn_peer[174]  lookupStabilitySig:vector  ETV
vector 1020558  Network.dyn_peer[174]  lookupTimeSig:vector  ETV
vector 1020379  Network.dyn_peer[115]  lookupHopsSig:vector  ETV
vector 1020380  Network.dyn_peer[115]  lookupStabilitySig:vector  ETV
vector 1020381  Network.dyn_peer[115]  lookupTimeSig:vector  ETV
vector 1020472  Network.dyn_peer[146]  lookupHopsSig:vector  ETV
vector 1020473  Network.dyn_peer[146]  lookupStabilitySig:vector  ETV
vector 1020474  Network.dyn_peer[146]  lookupTimeSig:vector  ETV
vector 1020295  Network.dyn_peer[87]  lookupHopsSig:vector  ETV
vector 1020296  Network.dyn_peer[87]  lookupStabilitySig:vector  ETV
vector 1020297  Network.dyn_peer[87]  lookupTimeSig:vector  ETV
vector 1020535  Network.dyn_peer[167]  lookupHopsSig:vector  ETV
vector 1020536  Network.dyn_peer[167]  lookupStabilitySig:vector  ETV
vector 1020537  Network.dyn_peer[167]  lookupTimeSig:vector  ETV
vector 1020478  Network.dyn_peer[148]  lookupHopsSig:vector  ETV
vector 1020479  Network.dyn_peer[148]  lookupStabilitySig:vector  ETV
vector 1020480  Network.dyn_peer[148]  lookupTimeSig:vector  ETV
vector 1020181  Network.dyn_peer[49]  lookupHopsSig:vector  ETV
vector 1020182  Network.dyn_peer[49]  lookupStabilitySig:vector  ETV
vector 1020183  Network.dyn_peer[49]  lookupTimeSig:vector  ETV
vector 1020241  Network.dyn_peer[69]  lookupHopsSig:vector  ETV
vector 1020242  Network.dyn_peer[69]  lookupStabilitySig:vector  ETV
vector 1020243  Network.dyn_peer[69]  lookupTimeSig:vector  ETV
vector 1020301  Network.dyn_peer[89]  lookupHopsSig:vector  ETV
vector 1020302  Network.dyn_peer[89]  lookupStabilitySig:vector  ETV
vector 1020303  Network.dyn_peer[89]  lookupTimeSig:vector  ETV
vector 1020334  Network.dyn_peer[100]  lookupHopsSig:vector  ETV
vector 1020335  Network.dyn_peer[100]  lookupStabilitySig:vector  ETV
vector 1020336  Network.dyn_peer[100]  lookupTimeSig:vector  ETV
vector 1020484  Network.dyn_peer[150]  lookupHopsSig:vector  ETV
vector 1020485  Network.dyn_peer[150]  lookupStabilitySig:vector  ETV
vector 1020486  Network.dyn_peer[150]  lookupTimeSig:vector  ETV
vector 1020370  Network.dyn_peer[112]  lookupHopsSig:vector  ETV
vector 1020371  Network.dyn_peer[112]  lookupStabilitySig:vector  ETV
vector 1020372  Network.dyn_peer[112]  lookupTimeSig:vector  ETV
vector 1020460  Network.dyn_peer[142]  lookupHopsSig:vector  ETV
vector 1020461  Network.dyn_peer[142]  lookupStabilitySig:vector  ETV
vector 1020462  Network.dyn_peer[142]  lookupTimeSig:vector  ETV
vector 1020553  Network.dyn_peer[173]  lookupHopsSig:vector  ETV
vector 1020554  Network.dyn_peer[173]  lookupStabilitySig:vector  ETV
vector 1020555  Network.dyn_peer[173]  lookupTimeSig:vector  ETV
vector 1020358  Network.dyn_peer[108]  lookupHopsSig:vector  ETV
vector 1020359  Network.dyn_peer[108]  lookupStabilitySig:vector  ETV
vector 1020360  Network.dyn_peer[108]  lookupTimeSig:vector  ETV
vector 1020508  Network.dyn_peer[158]  lookupHopsSig:vector  ETV
vector 1020509  Network.dyn_peer[158]  lookupStabilitySig:vector  ETV
vector 1020510  Network.dyn_peer[158]  lookupTimeSig:vector  ETV
vector 1020361  Network.dyn_peer[109]  lookupHopsSig:vector  ETV
vector 1020362  Network.dyn_peer[109]  lookupStabilitySig:vector  ETV
vector 1020363  Network.dyn_peer[109]  lookupTimeSig:vector  ETV
vector 1020514  Network.dyn_peer[160]  lookupHopsSig:vector  ETV
vector 1020515  Network.dyn_peer[160]  lookupStabilitySig:vector  ETV
vector 1020516  Network.dyn_peer[160]  lookupTimeSig:vector  ETV
vector 1020397  Network.dyn_peer[121]  lookupHopsSig:vector  ETV
vector 1020398  Network.dyn_peer[121]  lookupStabilitySig:vector  ETV
vector 1020399  Network.dyn_peer[121]  lookupTimeSig:vector  ETV
vector 1020427  Network.dyn_peer[131]  lookupHopsSig:vector  ETV
vector 1020428  Network.dyn_peer[131]  lookupStabilitySig:vector  ETV
vector 1020429  Network.dyn_peer[131]  lookupTimeSig:vector  ETV
vector 1020487  Network.dyn_peer[151]  lookupHopsSig:vector  ETV
vector 1020488  Network.dyn_peer[151]  lookupStabilitySig:vector  ETV
vector 1020489  Network.dyn_peer[151]  lookupTimeSig:vector  ETV
vector 1020166  Network.dyn_peer[44]  lookupHopsSig:vector  ETV
vector 1020167  Network.dyn_peer[44]  lookupStabilitySig:vector  ETV
vector 1020168  Network.dyn_peer[44]  lookupTimeSig:vector  ETV
vector 1020319  Network.dyn_peer[95]  lookupHopsSig:vector  ETV
vector 1020320  Network.dyn_peer[95]  lookupStabilitySig:vector  ETV
vector 1020321  Network.dyn_peer[95]  lookupTimeSig:vector  ETV
vector 1020262  Network.dyn_peer[76]  lookupHopsSig:vector  ETV
vector 1020263  Network.dyn_peer[76]  lookupStabilitySig:vector  ETV
vector 1020264  Network.dyn_peer[76]  lookupTimeSig:vector  ETV
vector 1020382  Network.dyn_peer[116]  lookupHopsSig:vector  ETV
vector 1020383  Network.dyn_peer[116]  lookupStabilitySig:vector  ETV
vector 1020384  Network.dyn_peer[116]  lookupTimeSig:vector  ETV
vector 1020532  Network.dyn_peer[166]  lookupHopsSig:vector  ETV
vector 1020533  Network.dyn_peer[166]  lookupStabilitySig:vector  ETV
vector 1020534  Network.dyn_peer[166]  lookupTimeSig:vector  ETV
vector 1020652  Network.dyn_peer[206]  lookupHopsSig:vector  ETV
vector 1020653  Network.dyn_peer[206]  lookupStabilitySig:vector  ETV
vector 1020654  Network.dyn_peer[206]  lookupTimeSig:vector  ETV
vector 1020445  Network.dyn_peer[137]  lookupHopsSig:vector  ETV
vector 1020446  Network.dyn_peer[137]  lookupStabilitySig:vector  ETV
vector 1020447  Network.dyn_peer[137]  lookupTimeSig:vector  ETV
vector 1020625  Network.dyn_peer[197]  lookupHopsSig:vector  ETV
vector 1020626  Network.dyn_peer[197]  lookupStabilitySig:vector  ETV
vector 1020627  Network.dyn_peer[197]  lookupTimeSig:vector  ETV
vector 1020388  Network.dyn_peer[118]  lookupHopsSig:vector  ETV
vector 1020389  Network.dyn_peer[118]  lookupStabilitySig:vector  ETV
vector 1020390  Network.dyn_peer[118]  lookupTimeSig:vector  ETV
vector 1020394  Network.dyn_peer[120]  lookupHopsSig:vector  ETV
vector 1020395  Network.dyn_peer[120]  lookupStabilitySig:vector  ETV
vector 1020396  Network.dyn_peer[120]  lookupTimeSig:vector  ETV
vector 1020367  Network.dyn_peer[111]  lookupHopsSig:vector  ETV
vector 1020368  Network.dyn_peer[111]  lookupStabilitySig:vector  ETV
vector 1020369  Network.dyn_peer[111]  lookupTimeSig:vector  ETV
vector 1020619  Network.dyn_peer[195]  lookupHopsSig:vector  ETV
vector 1020620  Network.dyn_peer[195]  lookupStabilitySig:vector  ETV
vector 1020621  Network.dyn_peer[195]  lookupTimeSig:vector  ETV
vector 1020565  Network.dyn_peer[177]  lookupHopsSig:vector  ETV
vector 1020566  Network.dyn_peer[177]  lookupStabilitySig:vector  ETV
vector 1020567  Network.dyn_peer[177]  lookupTimeSig:vector  ETV
vector 1020577  Network.dyn_peer[181]  lookupHopsSig:vector  ETV
vector 1020578  Network.dyn_peer[181]  lookupStabilitySig:vector  ETV
vector 1020579  Network.dyn_peer[181]  lookupTimeSig:vector  ETV
vector 1020637  Network.dyn_peer[201]  lookupHopsSig:vector  ETV
vector 1020638  Network.dyn_peer[201]  lookupStabilitySig:vector  ETV
vector 1020639  Network.dyn_peer[201]  lookupTimeSig:vector  ETV
vector 1020220  Network.dyn_peer[62]  lookupHopsSig:vector  ETV
vector 1020221  Network.dyn_peer[62]  lookupStabilitySig:vector  ETV
vector 1020222  Network.dyn_peer[62]  lookupTimeSig:vector  ETV
vector 1020403  Network.dyn_peer[123]  lookupHopsSig:vector  ETV
vector 1020404  Network.dyn_peer[123]  lookupStabilitySig:vector  ETV
vector 1020405  Network.dyn_peer[123]  lookupTimeSig:vector  ETV
vector 1020463  Network.dyn_peer[143]  lookupHopsSig:vector  ETV
vector 1020464  Network.dyn_peer[143]  lookupStabilitySig:vector  ETV
vector 1020465  Network.dyn_peer[143]  lookupTimeSig:vector  ETV
vector 1020493  Network.dyn_peer[153]  lookupHopsSig:vector  ETV
vector 1020494  Network.dyn_peer[153]  lookupStabilitySig:vector  ETV
vector 1020495  Network.dyn_peer[153]  lookupTimeSig:vector  ETV
vector 1020436  Network.dyn_peer[134]  lookupHopsSig:vector  ETV
vector 1020437  Network.dyn_peer[134]  lookupStabilitySig:vector  ETV
vector 1020438  Network.dyn_peer[134]  lookupTimeSig:vector  ETV
vector 1020259  Network.dyn_peer[75]  lookupHopsSig:vector  ETV