file 321727 1369933126                                          
version 2
run Stability2-31-20130528-01:24:40-24168
attr configname Stability2
attr datetime 20130528-01:24:40
attr experiment Stability2
attr inifile omnetpp.ini
attr iterationvars $0=40
attr iterationvars2 "$0=40, $repetition=1"
attr measurement $0=40
attr network Network
attr processid 24168
attr repetition 1
attr replication #1
attr resultdir results
attr runnumber 31
attr seedset 31
vector 960031  Network.churner  inGoingSizeSig:vector  ETV
960031	313170 8557 10 10645 20 24 401 0 324 70662 15995288
vector 930031  Network.dyn_peer[0]  lookupHopsSig:vector  ETV
930031	78921 190 17 22954 20.01 27.45138599082 7 0 26 66 1190
vector 930032  Network.dyn_peer[0]  lookupStabilitySig:vector  ETV
930032	79111 277 17 22954 20.01 27.45138599082 7 -0.20000004768372 1 4.7430807258934 4.2977540919858
vector 930033  Network.dyn_peer[0]  lookupTimeSig:vector  ETV
930033	79388 197 17 22954 20.01 27.45138599082 7 0 2.7 7.2 13.28
vector 930040  Network.dyn_peer[3]  lookupHopsSig:vector  ETV
930040	80640 199 62 12159 20.14 24.359265284849 7 1 14 36 332
vector 930041  Network.dyn_peer[3]  lookupStabilitySig:vector  ETV
930041	80839 292 62 12159 20.14 24.359265284849 7 0.33333331346512 0.90909090638161 4.8740313947201 3.7226009819427
vector 930042  Network.dyn_peer[3]  lookupTimeSig:vector  ETV
930042	81131 211 62 12159 20.14 24.359265284849 7 0.1 1.5 4.2 4.08
vector 930043  Network.dyn_peer[4]  lookupHopsSig:vector  ETV
930043	81342 129 71 13340 20.15 24.643325955558 5 1 26 40 738
vector 930044  Network.dyn_peer[4]  lookupStabilitySig:vector  ETV
930044	81471 191 71 13340 20.15 24.643325955558 5 0.19999998807907 0.79999999701977 2.9534378945828 1.9702187421913
vector 930045  Network.dyn_peer[4]  lookupTimeSig:vector  ETV
930045	81662 138 71 13340 20.15 24.643325955558 5 0.1 2.7 4.4 8.2
vector 930046  Network.dyn_peer[5]  lookupHopsSig:vector  ETV
930046	81800 192 79 19438 20.16 26.300341132824 7 1 19 56 704
vector 930047  Network.dyn_peer[5]  lookupStabilitySig:vector  ETV
930047	81992 284 79 19438 20.16 26.300341132824 7 0.39999997615814 0.92982456088066 4.9062299281359 3.7150774878358
vector 930048  Network.dyn_peer[5]  lookupTimeSig:vector  ETV
930048	82276 201 79 19438 20.16 26.300341132824 7 0.1 2 6.2 8.2
vector 930049  Network.dyn_peer[6]  lookupHopsSig:vector  ETV
930049	82477 201 87 23315 20.17 27.594502219353 7 1 31 62 1306
vector 930050  Network.dyn_peer[6]  lookupStabilitySig:vector  ETV
930050	82678 288 87 23315 20.17 27.594502219353 7 0 0.9772727265954 5.0442727208138 4.2777909723018
vector 930051  Network.dyn_peer[6]  lookupTimeSig:vector  ETV
930051	82966 213 87 23315 20.17 27.594502219353 7 0.1 3.2 6.8 14.34
vector 930061  Network.dyn_peer[10]  lookupHopsSig:vector  ETV
930061	85810 263 110 25078 20.21 28.293761792325 9 1 19 61 743
vector 930062  Network.dyn_peer[10]  lookupStabilitySig:vector  ETV
930062	86073 397 110 25078 20.21 28.293761792325 9 -0.20000004768372 0.97826086916029 6.8535823598504 6.3171001495906
vector 930063  Network.dyn_peer[10]  lookupTimeSig:vector  ETV
930063	86470 275 110 25078 20.21 28.293761792325 9 0.1 2 6.9 8.71
vector 930070  Network.dyn_peer[13]  lookupHopsSig:vector  ETV
930070	88006 375 131 31283 20.24 32.568875180641 13 1 11 63 479
vector 930071  Network.dyn_peer[13]  lookupStabilitySig:vector  ETV
930071	88381 566 131 31283 20.24 32.568875180641 13 0.39999997615814 0.99652777775191 11.169722337974 10.008322892134
vector 930072  Network.dyn_peer[13]  lookupTimeSig:vector  ETV
930072	88947 398 131 31283 20.24 32.568875180641 13 0.1 1.2 7.5 6.15
vector 930055  Network.dyn_peer[8]  lookupHopsSig:vector  ETV
930055	83762 359 162 32143 20.29 33.887755194162 12 2 36 119 2197
vector 930056  Network.dyn_peer[8]  lookupStabilitySig:vector  ETV
930056	84121 518 162 32143 20.29 33.887755194162 12 0 0.99186991900206 9.483897193335 8.433141771005
vector 930057  Network.dyn_peer[8]  lookupTimeSig:vector  ETV
930057	84639 377 162 32143 20.29 33.887755194162 12 0.2 3.7 13 24.42
vector 930088  Network.dyn_peer[19]  lookupHopsSig:vector  ETV
930088	91561 159 172 19031 20.3 26.186656914513 6 1 19 54 824
vector 930089  Network.dyn_peer[19]  lookupStabilitySig:vector  ETV
930089	91720 233 172 19031 20.3 26.186656914513 6 0.39999997615814 0.90419161319733 4.2598616927862 3.2397337808717
vector 930090  Network.dyn_peer[19]  lookupTimeSig:vector  ETV
930090	91953 166 172 19031 20.3 26.186656914513 6 0.1 2 5.9 9.35
vector 930091  Network.dyn_peer[20]  lookupHopsSig:vector  ETV
930091	92119 164 180 19637 20.31 26.360109785357 6 1 16 44 474
vector 930092  Network.dyn_peer[20]  lookupStabilitySig:vector  ETV
930092	92283 252 180 19637 20.31 26.360109785357 6 0.22222220897675 0.98843930661678 4.3964018672705 3.636364166929
vector 930093  Network.dyn_peer[20]  lookupTimeSig:vector  ETV
930093	92535 174 180 19637 20.31 26.360109785357 6 0.1 1.7 4.9 5.65
vector 930034  Network.dyn_peer[1]  lookupHopsSig:vector  ETV
930034	79585 192 192 19244 20.32 26.245576832784 7 2 17 53 565
vector 930035  Network.dyn_peer[1]  lookupStabilitySig:vector  ETV
930035	79777 295 192 19244 20.32 26.245576832784 7 0.30769228935242 0.93491124361753 4.7736228853464 3.6331291419799
vector 930036  Network.dyn_peer[1]  lookupTimeSig:vector  ETV
930036	80072 202 192 19244 20.32 26.245576832784 7 0.3 1.8 5.9 6.71
vector 930064  Network.dyn_peer[11]  lookupHopsSig:vector  ETV
930064	86745 165 196 22021 20.32 27.126317542172 6 2 20 61 893
vector 930065  Network.dyn_peer[11]  lookupStabilitySig:vector  ETV
930065	86910 244 196 22021 20.32 27.126317542172 6 0.25925928354263 0.95705521479249 4.5245817005634 3.7923557451595
vector 930066  Network.dyn_peer[11]  lookupTimeSig:vector  ETV
930066	87154 174 196 22021 20.32 27.126317542172 6 0.2 2.1 6.6 10.16
vector 930079  Network.dyn_peer[16]  lookupHopsSig:vector  ETV
930079	90264 130 231 10817 20.37 24.047817051736 5 2 9 28 184
vector 930080  Network.dyn_peer[16]  lookupStabilitySig:vector  ETV
930080	90394 189 231 10817 20.37 24.047817051736 5 0 0.9146341457963 2.9179674759507 2.2092333911413
vector 930081  Network.dyn_peer[16]  lookupTimeSig:vector  ETV
930081	90583 138 231 10817 20.37 24.047817051736 5 0.2 1 3.2 2.4
vector 930052  Network.dyn_peer[7]  lookupHopsSig:vector  ETV
930052	83179 161 244 15224 20.38 25.123311518185 6 1 13 34 288
vector 930053  Network.dyn_peer[7]  lookupStabilitySig:vector  ETV
930053	83340 250 244 15224 20.38 25.123311518185 6 0.39999997615814 0.93495935201645 4.2222252190113 3.2577942502295
vector 930054  Network.dyn_peer[7]  lookupTimeSig:vector  ETV
930054	83590 172 244 15224 20.38 25.123311518185 6 0.2 1.4 3.9 3.55
vector 930112  Network.dyn_peer[27]  lookupHopsSig:vector  ETV
930112	97046 258 248 28887 20.38 30.339771999536 9 1 20 84 1288
vector 930113  Network.dyn_peer[27]  lookupStabilitySig:vector  ETV
930113	97304 375 248 28887 20.38 30.339771999536 9 0.25 0.99601593613625 7.4407461583615 6.5715173618543
vector 930114  Network.dyn_peer[27]  lookupTimeSig:vector  ETV
930114	97679 272 248 28887 20.38 30.339771999536 9 0.1 2.1 9.2 14.62
vector 930085  Network.dyn_peer[18]  lookupHopsSig:vector  ETV
930085	91094 128 258 8482 20.39 23.50414633951 5 2 11 29 227
vector 930086  Network.dyn_peer[18]  lookupStabilitySig:vector  ETV
930086	91222 202 258 8482 20.39 23.50414633951 5 0.30000001192093 0.96721311658621 3.3198057189584 2.4762671978996
vector 930087  Network.dyn_peer[18]  lookupTimeSig:vector  ETV
930087	91424 137 258 8482 20.39 23.50414633951 5 0.2 1.2 3.3 2.85
vector 930058  Network.dyn_peer[9]  lookupHopsSig:vector  ETV
930058	85016 222 269 26702 20.4 29.043754923935 8 2 15 65 693
vector 930059  Network.dyn_peer[9]  lookupStabilitySig:vector  ETV
930059	85238 339 269 26702 20.4 29.043754923935 8 0.21052628755569 0.98127340897918 6.1956903710961 5.4175770670873
vector 930060  Network.dyn_peer[9]  lookupTimeSig:vector  ETV
930060	85577 233 269 26702 20.4 29.043754923935 8 0.3 1.6 7.2 8.24
vector 930148  Network.dyn_peer[39]  lookupHopsSig:vector  ETV
930148	105514 158 275 13654 20.4 24.721539390101 6 0 11 38 328
vector 930149  Network.dyn_peer[39]  lookupStabilitySig:vector  ETV
930149	105672 215 275 13654 20.4 24.721539390101 6 0 1 4.1080969274044 3.4586755497247
vector 930150  Network.dyn_peer[39]  lookupTimeSig:vector  ETV
930150	105887 166 275 13654 20.4 24.721539390101 6 0 1.2 4.3 4.09
vector 930121  Network.dyn_peer[30]  lookupHopsSig:vector  ETV
930121	99425 318 282 31917 20.41 33.505324998441 11 1 40 121 2479
vector 930122  Network.dyn_peer[30]  lookupStabilitySig:vector  ETV
930122	99743 469 282 31917 20.41 33.505324998441 11 0.4375 0.98554913327098 9.3258458357304 8.2483866491696
vector 930123  Network.dyn_peer[30]  lookupTimeSig:vector  ETV
930123	100212 332 282 31917 20.41 33.505324998441 11 0.1 4.1 13.1 27.29
vector 930094  Network.dyn_peer[21]  lookupHopsSig:vector  ETV
930094	92709 231 296 26255 20.42 28.825471441725 8 2 17 58 584
vector 930095  Network.dyn_peer[21]  lookupStabilitySig:vector  ETV
930095	92940 350 296 26255 20.42 28.825471441725 8 0.19999998807907 0.98461538460106 5.9385723853484 4.960791078316
vector 930096  Network.dyn_peer[21]  lookupTimeSig:vector  ETV
930096	93290 240 296 26255 20.42 28.825471441725 8 0.2 1.8 6.5 7.03
vector 930037  Network.dyn_peer[2]  lookupHopsSig:vector  ETV
930037	80274 100 312 6270 20.43 22.936244171557 4 4 10 26 190
vector 930038  Network.dyn_peer[2]  lookupStabilitySig:vector  ETV
930038	80374 159 312 6270 20.43 22.936244171557 4 0.16666668653488 0.83333332836628 1.9826087057591 1.3746985974633
vector 930039  Network.dyn_peer[2]  lookupTimeSig:vector  ETV
930039	80533 107 312 6270 20.43 22.936244171557 4 0.4 1.1 2.9 2.37
vector 930097  Network.dyn_peer[22]  lookupHopsSig:vector  ETV
930097	93530 129 316 9979 20.43 23.850626764294 5 2 13 32 288
vector 930098  Network.dyn_peer[22]  lookupStabilitySig:vector  ETV
930098	93659 203 316 9979 20.43 23.850626764294 5 0.39999997615814 0.88311688601971 3.2315379232168 2.2844505429385
vector 930099  Network.dyn_peer[22]  lookupTimeSig:vector  ETV
930099	93862 136 316 9979 20.43 23.850626764294 5 0.2 1.4 3.6 3.52
vector 930100  Network.dyn_peer[23]  lookupHopsSig:vector  ETV
930100	93998 159 326 13882 20.44 24.787849419095 6 1 17 36 398
vector 930101  Network.dyn_peer[23]  lookupStabilitySig:vector  ETV
930101	94157 247 326 13882 20.44 24.787849419095 6 0.5714285671711 0.85087719559669 4.2362592369318 3.0730428726536
vector 930102  Network.dyn_peer[23]  lookupTimeSig:vector  ETV
930102	94404 170 326 13882 20.44 24.787849419095 6 0.2 1.8 4.1 4.71
vector 930073  Network.dyn_peer[14]  lookupHopsSig:vector  ETV
930073	89345 159 339 11814 20.45 24.273395672052 6 2 10 36 268
vector 930074  Network.dyn_peer[14]  lookupStabilitySig:vector  ETV
930074	89504 237 339 11814 20.45 24.273395672052 6 0.39999997615814 0.94382022321224 4.0235676914453 2.9648980540409
vector 930075  Network.dyn_peer[14]  lookupTimeSig:vector  ETV
930075	89741 168 339 11814 20.45 24.273395672052 6 0.3 1.1 4.1 3.39
vector 930067  Network.dyn_peer[12]  lookupHopsSig:vector  ETV
930067	87328 193 405 18256 20.53 25.956783193818 7 2 14 52 508
vector 930068  Network.dyn_peer[12]  lookupStabilitySig:vector  ETV
930068	87521 284 405 18256 20.53 25.956783193818 7 0.19999998807907 0.94375000149012 4.8636030629277 4.0066140622781
vector 930069  Network.dyn_peer[12]  lookupTimeSig:vector  ETV
930069	87805 201 405 18256 20.53 25.956783193818 7 0.3 1.5 5.8 6.1
vector 930103  Network.dyn_peer[24]  lookupHopsSig:vector  ETV
930103	94574 222 427 21602 20.55 26.984215067713 8 3 23 60 744
vector 930104  Network.dyn_peer[24]  lookupStabilitySig:vector  ETV
930104	94796 329 427 21602 20.55 26.984215067713 8 0.39999997615814 0.95145631209016 5.7798598669469 4.5500579397119
vector 930105  Network.dyn_peer[24]  lookupTimeSig:vector  ETV
930105	95125 237 427 21602 20.55 26.984215067713 8 0.3 2.4 6.7 8.65
vector 930136  Network.dyn_peer[35]  lookupHopsSig:vector  ETV
930136	103001 255 442 24323 20.56 27.982950197421 9 1 16 60 656
vector 930137  Network.dyn_peer[35]  lookupStabilitySig:vector  ETV
930137	103256 364 442 24323 20.56 27.982950197421 9 0.5 0.99572649551556 7.3800049345009 6.3031315689152
vector 930138  Network.dyn_peer[35]  lookupTimeSig:vector  ETV
930138	103620 271 442 24323 20.56 27.982950197421 9 0.2 1.7 6.8 7.8
vector 930118  Network.dyn_peer[29]  lookupHopsSig:vector  ETV
930118	98517 255 481 22756 20.6 27.382595599838 9 1 18 60 744
vector 930119  Network.dyn_peer[29]  lookupStabilitySig:vector  ETV
930119	98772 383 481 22756 20.6 27.382595599838 9 0.39999997615814 0.98969072196633 7.2460508635268 6.2340581376452
vector 930120  Network.dyn_peer[29]  lookupTimeSig:vector  ETV
930120	99155 270 481 22756 20.6 27.382595599838 9 0.2 1.9 6.8 8.66
vector 930184  Network.dyn_peer[51]  lookupHopsSig:vector  ETV
930184	112717 195 503 25915 20.62 28.657370272687 7 1 22 73 1119
vector 930185  Network.dyn_peer[51]  lookupStabilitySig:vector  ETV
930185	112912 296 503 25915 20.62 28.657370272687 7 0.38461536169052 0.98387096822262 5.7679197378457 5.0048712457774
vector 930186  Network.dyn_peer[51]  lookupTimeSig:vector  ETV
930186	113208 203 503 25915 20.62 28.657370272687 7 0.1 2.3 7.9 12.69
vector 930190  Network.dyn_peer[53]  lookupHopsSig:vector  ETV
930190	114202 193 529 15164 20.64 25.109067041752 7 1 11 36 264
vector 930191  Network.dyn_peer[53]  lookupStabilitySig:vector  ETV
930191	114395 284 529 15164 20.64 25.109067041752 7 0.55555555224419 0.97826086916029 5.5931095462292 4.5966591109865
vector 930192  Network.dyn_peer[53]  lookupTimeSig:vector  ETV
930192	114679 206 529 15164 20.64 25.109067041752 7 0.1 1.2 4.2 3.4
vector 930076  Network.dyn_peer[15]  lookupHopsSig:vector  ETV
930076	89909 103 558 13864 20.66 24.780332810896 4 5 19 43 579
vector 930077  Network.dyn_peer[15]  lookupStabilitySig:vector  ETV
930077	90012 145 558 13864 20.66 24.780332810896 4 0 0.9380530975759 2.2103968076408 1.7792010286945
vector 930078  Network.dyn_peer[15]  lookupTimeSig:vector  ETV
930078	90157 107 558 13864 20.66 24.780332810896 4 0.5 2 4.6 6.58
vector 930106  Network.dyn_peer[25]  lookupHopsSig:vector  ETV
930106	95362 380 562 30306 20.66 31.487074978207 13 3 16 92 804
vector 930107  Network.dyn_peer[25]  lookupStabilitySig:vector  ETV
930107	95742 551 562 30306 20.66 31.487074978207 13 0.19999998807907 0.9866071427241 10.908536615782 9.9212344063199
vector 930108  Network.dyn_peer[25]  lookupTimeSig:vector  ETV
930108	96293 401 562 30306 20.66 31.487074978207 13 0.4 1.7 10.4 9.92
vector 930115  Network.dyn_peer[28]  lookupHopsSig:vector  ETV
930115	97951 159 594 8990 20.69 23.620862415109 6 1 8 28 162
vector 930116  Network.dyn_peer[28]  lookupStabilitySig:vector  ETV
930116	98110 236 594 8990 20.69 23.620862415109 6 0.19999998807907 0.92307692021132 4.1706879362464 3.3079775441206
vector 930117  Network.dyn_peer[28]  lookupTimeSig:vector  ETV
930117	98346 171 594 8990 20.69 23.620862415109 6 0.2 0.9 3.3 2.15
vector 930145  Network.dyn_peer[38]  lookupHopsSig:vector  ETV
930145	104712 223 598 19378 20.69 26.284200379162 8 2 14 48 380
vector 930146  Network.dyn_peer[38]  lookupStabilitySig:vector  ETV
930146	104935 341 598 19378 20.69 26.284200379162 8 0.39999997615814 0.97560975700617 6.2298185154796 5.1714376389506
vector 930147  Network.dyn_peer[38]  lookupTimeSig:vector  ETV
930147	105276 238 598 19378 20.69 26.284200379162 8 0.3 1.5 5.5 4.77
vector 930238  Network.dyn_peer[69]  lookupHopsSig:vector  ETV
930238	124372 158 615 10687 20.7 24.013697490292 6 0 10 28 208
vector 930239  Network.dyn_peer[69]  lookupStabilitySig:vector  ETV
930239	124530 220 615 10687 20.7 24.013697490292 6 0.66666665673256 1 4.9189991950989 4.1008493988429
vector 930240  Network.dyn_peer[69]  lookupTimeSig:vector  ETV
930240	124750 165 615 10687 20.7 24.013697490292 6 0 1.1 3.3 2.69
vector 930127  Network.dyn_peer[32]  lookupHopsSig:vector  ETV
930127	101347 100 653 7425 20.73 23.244222562156 4 4 10 26 190
vector 930128  Network.dyn_peer[32]  lookupStabilitySig:vector  ETV
930128	101447 159 653 7425 20.73 23.244222562156 4 0.19999998807907 0.89999999850988 2.2136363610625 1.5093778661227
vector 930129  Network.dyn_peer[32]  lookupTimeSig:vector  ETV
930129	101606 107 653 7425 20.73 23.244222562156 4 0.4 1.1 2.9 2.37
vector 930157  Network.dyn_peer[42]  lookupHopsSig:vector  ETV
930157	107326 361 657 32410 20.73 34.481205892701 12 3 34 124 2126
vector 930158  Network.dyn_peer[42]  lookupStabilitySig:vector  ETV
930158	107687 525 657 32410 20.73 34.481205892701 12 0.39999997615814 0.98958333302289 10.136623344384 9.0561944683876
vector 930159  Network.dyn_peer[42]  lookupTimeSig:vector  ETV
930159	108212 375 657 32410 20.73 34.481205892701 12 0.3 3.5 13.5 23.79
vector 930109  Network.dyn_peer[26]  lookupHopsSig:vector  ETV
930109	96694 101 707 17770 20.77 25.8199942944 4 2 16 33 385
vector 930110  Network.dyn_peer[26]  lookupStabilitySig:vector  ETV
930110	96795 144 707 17770 20.77 25.8199942944 4 0 0.93377483636141 2.502605997026 2.1123874501642
vector 930111  Network.dyn_peer[26]  lookupTimeSig:vector  ETV
930111	96939 107 707 17770 20.77 25.8199942944 4 0.3 1.7 3.6 4.44
vector 930082  Network.dyn_peer[17]  lookupHopsSig:vector  ETV
930082	90721 104 722 20932 20.78 26.765899005372 4 6 27 59 1105
vector 930083  Network.dyn_peer[17]  lookupStabilitySig:vector  ETV
930083	90825 160 722 20932 20.78 26.765899005372 4 -0.20000004768372 0.925133690238 2.2244396805763 2.0702309294097
vector 930084  Network.dyn_peer[17]  lookupTimeSig:vector  ETV
930084	90985 109 722 20932 20.78 26.765899005372 4 0.6 2.8 6.2 12.14
vector 930172  Network.dyn_peer[47]  lookupHopsSig:vector  ETV
930172	111495 133 727 15678 20.78 25.236144159689 5 3 15 41 443
vector 930173  Network.dyn_peer[47]  lookupStabilitySig:vector  ETV
930173	111628 203 727 15678 20.78 25.236144159689 5 0.39999997615814 0.9236641228199 3.5008777007461 2.6901327957249
vector 930174  Network.dyn_peer[47]  lookupTimeSig:vector  ETV
930174	111831 140 727 15678 20.78 25.236144159689 5 0.3 1.6 4.5 5.23
vector 930262  Network.dyn_peer[77]  lookupHopsSig:vector  ETV
930262	129569 354 733 33165 20.78 37.335408034965 12 0 28 154 2652
vector 930263  Network.dyn_peer[77]  lookupStabilitySig:vector  ETV
930263	129923 511 733 33165 20.78 37.335408034965 12 0.41666668653488 1 10.528046172112 9.5159571577212
vector 930264  Network.dyn_peer[77]  lookupTimeSig:vector  ETV
930264	130434 368 733 33165 20.78 37.335408034965 12 0 2.9 16.5 29.71
vector 930187  Network.dyn_peer[52]  lookupHopsSig:vector  ETV
930187	113411 226 796 26318 20.83 28.850861578444 8 2 22 76 1054
vector 930188  Network.dyn_peer[52]  lookupStabilitySig:vector  ETV
930188	113637 329 796 26318 20.83 28.850861578444 8 0.39999997615814 0.98347107507288 6.3163552861661 5.3155600063888
vector 930189  Network.dyn_peer[52]  lookupTimeSig:vector  ETV
930189	113966 236 796 26318 20.83 28.850861578444 8 0.3 2.3 8.3 12.07
vector 930226  Network.dyn_peer[65]  lookupHopsSig:vector  ETV
930226	121567 196 836 23752 20.86 27.758424287433 7 2 18 58 662
vector 930227  Network.dyn_peer[65]  lookupStabilitySig:vector  ETV
930227	121763 298 836 23752 20.86 27.758424287433 7 0.59999999403954 0.95089285820723 5.7528159432113 4.8585783252506
vector 930228  Network.dyn_peer[65]  lookupTimeSig:vector  ETV
930228	122061 205 836 23752 20.86 27.758424287433 7 0.2 1.9 6.4 7.8
vector 930199  Network.dyn_peer[56]  lookupHopsSig:vector  ETV
930199	115732 101 851 10984 20.87 24.08516085118 4 3 15 32 364
vector 930200  Network.dyn_peer[56]  lookupStabilitySig:vector  ETV
930200	115833 159 851 10984 20.87 24.08516085118 4 0.39999997615814 0.96341463550925 2.6790516935289 2.0285281032195
vector 930201  Network.dyn_peer[56]  lookupTimeSig:vector  ETV
930201	115992 107 851 10984 20.87 24.08516085118 4 0.3 1.6 3.5 4.25
vector 930151  Network.dyn_peer[40]  lookupHopsSig:vector  ETV
930151	106053 226 900 26143 20.91 28.765633714284 8 1 21 68 952
vector 930152  Network.dyn_peer[40]  lookupStabilitySig:vector  ETV
930152	106279 326 900 26143 20.91 28.765633714284 8 0 0.95238095149398 6.0691433176398 5.3652971777577
vector 930153  Network.dyn_peer[40]  lookupTimeSig:vector  ETV
930153	106605 238 900 26143 20.91 28.765633714284 8 0.2 2.2 7.5 10.85
vector 930214  Network.dyn_peer[61]  lookupHopsSig:vector  ETV
930214	118857 166 923 22353 20.92 27.243293496261 6 3 23 61 865
vector 930215  Network.dyn_peer[61]  lookupStabilitySig:vector  ETV
930215	119023 251 923 22353 20.92 27.243293496261 6 0.39999997615814 0.97641509398818 4.4882107451558 3.6783564016539
vector 930216  Network.dyn_peer[61]  lookupTimeSig:vector  ETV
930216	119274 173 923 22353 20.92 27.243293496261 6 0.3 2.4 6.6 9.86
vector 930244  Network.dyn_peer[71]  lookupHopsSig:vector  ETV
930244	125607 292 927 32063 20.92 33.749016672921 10 2 43 121 2841
vector 930245  Network.dyn_peer[71]  lookupStabilitySig:vector  ETV
930245	125899 437 927 32063 20.92 33.749016672921 10 0.51612904667854 0.99256505584344 8.6975480518304 7.8453802553455
vector 930246  Network.dyn_peer[71]  lookupTimeSig:vector  ETV
930246	126336 307 927 32063 20.92 33.749016672921 10 0.2 4.4 13 30.88
vector 930166  Network.dyn_peer[45]  lookupHopsSig:vector  ETV
930166	110443 254 995 25054 20.96 28.281977983199 9 1 19 60 666
vector 930167  Network.dyn_peer[45]  lookupStabilitySig:vector  ETV
930167	110697 372 995 25054 20.96 28.281977983199 9 0 0.98235294036567 6.9838315118104 6.2278724457325
vector 930168  Network.dyn_peer[45]  lookupTimeSig:vector  ETV
930168	111069 268 995 25054 20.96 28.281977983199 9 0.2 2 6.8 7.84
vector 930139  Network.dyn_peer[36]  lookupHopsSig:vector  ETV
930139	103891 102 1012 16197 20.97 25.371965660308 4 3 35 47 1279
vector 930140  Network.dyn_peer[36]  lookupStabilitySig:vector  ETV
930140	103993 150 1012 16197 20.97 25.371965660308 4 -0.20000004768372 0.82352940738201 2.1161764115095 1.8322253474604
vector 930141  Network.dyn_peer[36]  lookupTimeSig:vector  ETV
930141	104143 109 1012 16197 20.97 25.371965660308 4 0.4 3.6 5 13.64
vector 930232  Network.dyn_peer[67]  lookupHopsSig:vector  ETV
930232	122660 317 1030 29687 20.98 30.95663085351 11 1 21 88 1110
vector 930233  Network.dyn_peer[67]  lookupStabilitySig:vector  ETV
930233	122977 469 1030 29687 20.98 30.95663085351 11 0.39999997615814 0.97448979504406 9.3008850943297 8.171281416471
vector 930234  Network.dyn_peer[67]  lookupTimeSig:vector  ETV
930234	123446 334 1030 29687 20.98 30.95663085351 11 0.2 2.2 9.8 12.9
vector 930265  Network.dyn_peer[78]  lookupHopsSig:vector  ETV
930265	130802 70 1049 3489 20.99 22.095494676274 3 2 5 11 45
vector 930266  Network.dyn_peer[78]  lookupStabilitySig:vector  ETV
930266	130872 115 1049 3489 20.99 22.095494676274 3 0.59999999403954 0.77272726595402 2.0393939167261 1.4015518515952
vector 930267  Network.dyn_peer[78]  lookupTimeSig:vector  ETV
930267	130987 76 1049 3489 20.99 22.095494676274 3 0.2 0.6 1.3 0.65
vector 930325  Network.dyn_peer[98]  lookupHopsSig:vector  ETV
930325	141898 264 1055 31858 20.99 33.421983480235 9 0 32 116 2192
vector 930326  Network.dyn_peer[98]  lookupStabilitySig:vector  ETV
930326	142162 378 1055 31858 20.99 33.421983480235 9 0.65217390656471 1 8.3127695191652 7.7660156277676
vector 930327  Network.dyn_peer[98]  lookupTimeSig:vector  ETV
930327	142540 274 1055 31858 20.99 33.421983480235 9 0 3.3 12.4 24.32
vector 930178  Network.dyn_peer[49]  lookupHopsSig:vector  ETV
930178	112327 67 1069 9839 21 23.824218844008 3 1 25 31 651
vector 930179  Network.dyn_peer[49]  lookupStabilitySig:vector  ETV
930179	112394 96 1069 9839 21 23.824218844008 3 0 0.89999999850988 1.5666666552424 1.2544444285168
vector 930180  Network.dyn_peer[49]  lookupTimeSig:vector  ETV
930180	112490 72 1069 9839 21 23.824218844008 3 0.2 2.6 3.3 7.05
vector 930160  Network.dyn_peer[43]  lookupHopsSig:vector  ETV
930160	108587 364 1130 33080 21.04 36.744730158518 12 1 30 125 2065
vector 930161  Network.dyn_peer[43]  lookupStabilitySig:vector  ETV
930161	108951 522 1130 33080 21.04 36.744730158518 12 0 0.99545454559848 10.275608708616 9.6909457231076
vector 930162  Network.dyn_peer[43]  lookupTimeSig:vector  ETV
930162	109473 383 1130 33080 21.04 36.744730158518 12 0.2 3.1 13.6 23.14
vector 930220  Network.dyn_peer[63]  lookupHopsSig:vector  ETV
930220	119949 259 1134 31517 21.04 32.87885744613 9 3 22 100 1476
vector 930221  Network.dyn_peer[63]  lookupStabilitySig:vector  ETV
930221	120208 387 1134 31517 21.04 32.87885744613 9 0.33333331346512 0.94444444403052 7.3685671687126 6.4132893087007
vector 930222  Network.dyn_peer[63]  lookupTimeSig:vector  ETV
930222	120595 270 1134 31517 21.04 32.87885744613 9 0.4 2.3 10.8 16.76
vector 930175  Network.dyn_peer[48]  lookupHopsSig:vector  ETV
930175	111971 100 1218 7239 21.09 23.195638145892 4 3 10 24 170
vector 930176  Network.dyn_peer[48]  lookupStabilitySig:vector  ETV
930176	112071 149 1218 7239 21.09 23.195638145892 4 0.33333331346512 0.85714285075665 2.6738945245743 1.9519472508151
vector 930177  Network.dyn_peer[48]  lookupTimeSig:vector  ETV
930177	112220 107 1218 7239 21.09 23.195638145892 4 0.4 1.1 2.7 2.09
vector 930241  Network.dyn_peer[70]  lookupHopsSig:vector  ETV
930241	124915 193 1249 18761 21.11 26.111080208501 7 1 12 43 403
vector 930242  Network.dyn_peer[70]  lookupStabilitySig:vector  ETV
930242	125108 296 1249 18761 21.11 26.111080208501 7 0.55555555224419 0.99305555550382 5.8379974807613 5.0649981134332
vector 930243  Network.dyn_peer[70]  lookupTimeSig:vector  ETV
930243	125404 203 1249 18761 21.11 26.111080208501 7 0.2 1.3 4.9 4.87
vector 930124  Network.dyn_peer[31]  lookupHopsSig:vector  ETV
930124	100544 226 1271 27259 21.12 29.338201346829 8 4 21 82 1008
vector 930125  Network.dyn_peer[31]  lookupStabilitySig:vector  ETV
930125	100770 341 1271 27259 21.12 29.338201346829 8 0.11111110448837 0.97484276816249 6.1874368451536 5.383234470449
vector 930126  Network.dyn_peer[31]  lookupTimeSig:vector  ETV
930126	101111 236 1271 27259 21.12 29.338201346829 8 0.5 2.2 8.9 11.63
vector 930217  Network.dyn_peer[62]  lookupHopsSig:vector  ETV
930217	119447 143 1292 12971 21.13 24.554467491923 5 4 15 35 327
vector 930218  Network.dyn_peer[62]  lookupStabilitySig:vector  ETV
930218	119590 207 1292 12971 21.13 24.554467491923 5 0.44444441795349 0.96039604023099 3.687191400677 2.8650944729733
vector 930219  Network.dyn_peer[62]  lookupTimeSig:vector  ETV
930219	119797 152 1292 12971 21.13 24.554467491923 5 0.5 1.6 3.9 3.91
vector 930307  Network.dyn_peer[92]  lookupHopsSig:vector  ETV
930307	138046 231 1296 31182 21.13 32.439077263048 8 2 26 107 1907
vector 930308  Network.dyn_peer[92]  lookupStabilitySig:vector  ETV
930308	138277 344 1296 31182 21.13 32.439077263048 8 0.60869565606117 0.98442367557436 6.8946036407724 6.0583923244409
vector 930309  Network.dyn_peer[92]  lookupTimeSig:vector  ETV
930309	138621 240 1296 31182 21.13 32.439077263048 8 0.2 2.7 11.4 21.24
vector 930130  Network.dyn_peer[33]  lookupHopsSig:vector  ETV
930130	101713 193 1313 23655 21.14 27.724338306321 7 6 18 64 682
vector 930131  Network.dyn_peer[33]  lookupStabilitySig:vector  ETV
930131	101906 296 1313 23655 21.14 27.724338306321 7 0.11111110448837 0.96396396309137 5.2618458233774 4.5181983084711
vector 930132  Network.dyn_peer[33]  lookupTimeSig:vector  ETV
930132	102202 204 1313 23655 21.14 27.724338306321 7 0.7 1.9 7 8
vector 930133  Network.dyn_peer[34]  lookupHopsSig:vector  ETV
930133	102406 167 1333 24994 21.15 28.256834122695 6 3 13 55 575
vector 930134  Network.dyn_peer[34]  lookupStabilitySig:vector  ETV
930134	102573 252 1333 24994 21.15 28.256834122695 6 0.11111110448837 0.987603305839 4.5080302497372 3.9933237792773
vector 930135  Network.dyn_peer[34]  lookupTimeSig:vector  ETV
930135	102825 176 1333 24994 21.15 28.256834122695 6 0.4 1.4 6 6.74
vector 930223  Network.dyn_peer[64]  lookupHopsSig:vector  ETV
930223	120865 197 1337 28187 21.15 29.867131785671 7 5 30 80 1374
vector 930224  Network.dyn_peer[64]  lookupStabilitySig:vector  ETV
930224	121062 298 1337 28187 21.15 29.867131785671 7 0.44444441795349 0.94680850952864 5.660968542099 4.7896116104284
vector 930225  Network.dyn_peer[64]  lookupTimeSig:vector  ETV
930225	121360 207 1337 28187 21.15 29.867131785671 7 0.5 3.1 8.6 15.3
vector 930256  Network.dyn_peer[75]  lookupHopsSig:vector  ETV
930256	128387 195 1360 21902 21.16 27.088544877612 7 4 20 57 667
vector 930257  Network.dyn_peer[75]  lookupStabilitySig:vector  ETV
930257	128582 298 1360 21902 21.16 27.088544877612 7 0.59999999403954 0.96794871613383 5.7291786298156 4.7841378264765
vector 930258  Network.dyn_peer[75]  lookupTimeSig:vector  ETV
930258	128880 207 1360 21902 21.16 27.088544877612 7 0.4 2.1 6.3 7.79
vector 930346  Network.dyn_peer[105]  lookupHopsSig:vector  ETV
930346	145119 132 1364 12266 21.16 24.382755400479 5 1 9 29 231
vector 930347  Network.dyn_peer[105]  lookupStabilitySig:vector  ETV
930347	145251 207 1364 12266 21.16 24.382755400479 5 0.60869565606117 0.97916666604578 4.2041931767017 3.614231619781
vector 930348  Network.dyn_peer[105]  lookupTimeSig:vector  ETV
930348	145458 138 1364 12266 21.16 24.382755400479 5 0.1 1 3.3 2.91
vector 930295  Network.dyn_peer[88]  lookupHopsSig:vector  ETV
930295	135262 323 1412 32217 21.19 34.040883691645 11 2 26 119 2015
vector 930296  Network.dyn_peer[88]  lookupStabilitySig:vector  ETV
930296	135585 473 1412 32217 21.19 34.040883691645 11 0.69999998807907 0.98514851462096 9.6740606082603 8.5714175385403
vector 930297  Network.dyn_peer[88]  lookupTimeSig:vector  ETV
930297	136058 337 1412 32217 21.19 34.040883691645 11 0.3 2.7 12.9 22.57
vector 930298  Network.dyn_peer[89]  lookupHopsSig:vector  ETV
930298	136395 163 1428 24949 21.2 28.237731216506 6 3 15 53 591
vector 930299  Network.dyn_peer[89]  lookupStabilitySig:vector  ETV
930299	136558 240 1428 24949 21.2 28.237731216506 6 0.63636362552643 0.96280991658568 5.0065317563713 4.2666790656192
vector 930300  Network.dyn_peer[89]  lookupTimeSig:vector  ETV