file 898216 1369674138                                          
version 2
run Stability-157-20130521-22:37:28-23591
attr configname Stability
attr datetime 20130521-22:37:28
attr experiment Stability
attr inifile omnetpp.ini
attr iterationvars $0=0.25
attr iterationvars2 "$0=0.25, $repetition=7"
attr measurement $0=0.25
attr network Network
attr processid 23591
attr repetition 7
attr replication #7
attr resultdir results
attr runnumber 157
attr seedset 157
vector 314001  Network.dyn_peer[0]  lookupHopsSig:vector  ETV
314001	129176 957 102 142416 20.45 234.208224167345 31 1 30 267 3695
vector 314000  Network.dyn_peer[0]  lookupTimeSig:vector  ETV
314000	128178 998 102 142416 20.45 234.208224167345 31 0.2 3.1 29.7 42.55
vector 314003  Network.dyn_peer[1]  lookupHopsSig:vector  ETV
314003	130934 766 121 147731 20.9 239.285459137837 25 1 37 272 5230
vector 314002  Network.dyn_peer[1]  lookupTimeSig:vector  ETV
314002	130133 801 121 147731 20.9 239.285459137837 25 0.2 3.8 29.6 57.9
vector 314005  Network.dyn_peer[2]  lookupHopsSig:vector  ETV
314005	132865 1106 128 109417 20.95 198.578628404692 36 1 36 269 3501
vector 314004  Network.dyn_peer[2]  lookupTimeSig:vector  ETV
314004	131700 1165 128 109417 20.95 198.578628404692 36 0.2 3.7 30.4 40.7
vector 314007  Network.dyn_peer[3]  lookupHopsSig:vector  ETV
314007	135151 1123 156 44449 21.3 116.458058768357 37 2 18 264 2580
vector 314006  Network.dyn_peer[3]  lookupTimeSig:vector  ETV
314006	133971 1180 156 44449 21.3 116.458058768357 37 0.3 1.9 30 31.38
vector 314011  Network.dyn_peer[5]  lookupHopsSig:vector  ETV
314011	139174 1161 185 100631 21.6 188.323718822481 37 1 22 341 4077
vector 314010  Network.dyn_peer[5]  lookupTimeSig:vector  ETV
314010	137961 1213 185 100631 21.6 188.323718822481 37 0.1 2.3 37.7 47.93
vector 314009  Network.dyn_peer[4]  lookupHopsSig:vector  ETV
314009	137140 821 192 93103 21.65 179.729316891982 27 2 23 209 2233
vector 314008  Network.dyn_peer[4]  lookupTimeSig:vector  ETV
314008	136274 866 192 93103 21.65 179.729316891982 27 0.3 2.4 23.5 26.69
vector 314013  Network.dyn_peer[6]  lookupHopsSig:vector  ETV
314013	142042 1631 249 162178 22.15 252.128494719076 52 1 33 491 7267
vector 314012  Network.dyn_peer[6]  lookupTimeSig:vector  ETV
314012	140335 1707 249 162178 22.15 252.128494719076 52 0.2 3.4 54.2 82.92
vector 314015  Network.dyn_peer[7]  lookupHopsSig:vector  ETV
314015	144527 810 270 34704 22.3 102.482874268695 27 1 20 201 2297
vector 314014  Network.dyn_peer[7]  lookupTimeSig:vector  ETV
314014	143673 854 270 34704 22.3 102.482874268695 27 0.2 2.1 22.7 27.19
vector 314019  Network.dyn_peer[9]  lookupHopsSig:vector  ETV
314019	146928 1137 323 181634 22.7 268.267668597554 37 1 20 259 2671
vector 314018  Network.dyn_peer[9]  lookupTimeSig:vector  ETV
314018	145729 1199 323 181634 22.7 268.267668597554 37 0.2 2.1 29.5 32.21
vector 314017  Network.dyn_peer[8]  lookupHopsSig:vector  ETV
314017	145539 190 348 8064 22.85 50.720392950487 7 1 13 41 349
vector 314016  Network.dyn_peer[8]  lookupTimeSig:vector  ETV
314016	145337 202 348 8064 22.85 50.720392950487 7 0.2 1.4 4.7 4.25
vector 314021  Network.dyn_peer[10]  lookupHopsSig:vector  ETV
314021	148828 725 352 96376 22.85 183.670405472608 24 1 19 163 1623
vector 314020  Network.dyn_peer[10]  lookupTimeSig:vector  ETV
314020	148065 763 352 96376 22.85 183.670405472608 24 0.1 2 18.6 19.7
vector 314023  Network.dyn_peer[11]  lookupHopsSig:vector  ETV
314023	150218 634 439 108578 23.4 197.636392252687 21 1 26 200 2816
vector 314022  Network.dyn_peer[11]  lookupTimeSig:vector  ETV
314022	149553 665 439 108578 23.4 197.636392252687 21 0.2 2.7 22 32.28
vector 314025  Network.dyn_peer[12]  lookupHopsSig:vector  ETV
314025	151247 371 458 21561 23.55 79.763750668905 13 1 16 73 685
vector 314024  Network.dyn_peer[12]  lookupTimeSig:vector  ETV
314024	150852 395 458 21561 23.55 79.763750668905 13 0.2 1.7 8.5 8.37
vector 314027  Network.dyn_peer[13]  lookupHopsSig:vector  ETV
314027	153268 1573 522 144654 24 236.457645447385 51 1 28 441 6283
vector 314026  Network.dyn_peer[13]  lookupTimeSig:vector  ETV
314026	151618 1650 522 144654 24 236.457645447385 51 0.2 2.9 49.1 72.05
vector 314029  Network.dyn_peer[14]  lookupHopsSig:vector  ETV
314029	155511 645 554 154835 24.25 245.270125161392 21 1 39 262 5014
vector 314028  Network.dyn_peer[14]  lookupTimeSig:vector  ETV
314028	154841 670 554 154835 24.25 245.270125161392 21 0.2 4 28.2 55.48
vector 314031  Network.dyn_peer[15]  lookupHopsSig:vector  ETV
314031	156632 457 582 188312 24.5 274.272858945126 15 1 28 174 3220
vector 314030  Network.dyn_peer[15]  lookupTimeSig:vector  ETV
314030	156156 476 582 188312 24.5 274.272858945126 15 0.2 2.9 18.8 35.72
vector 314033  Network.dyn_peer[16]  lookupHopsSig:vector  ETV
314033	157955 823 591 140872 24.55 232.619065645882 27 1 36 255 3877
vector 314032  Network.dyn_peer[16]  lookupTimeSig:vector  ETV
314032	157089 866 591 140872 24.55 232.619065645882 27 0.2 3.7 28.1 44.07
vector 314035  Network.dyn_peer[17]  lookupHopsSig:vector  ETV
314035	159207 405 627 85734 24.8 170.282411643729 14 2 34 107 1855
vector 314034  Network.dyn_peer[17]  lookupTimeSig:vector  ETV
314034	158778 429 627 85734 24.8 170.282411643729 14 0.3 3.5 12 20.76
vector 314037  Network.dyn_peer[18]  lookupHopsSig:vector  ETV
314037	160640 982 647 178699 24.95 266.024269540321 32 1 39 252 3602
vector 314036  Network.dyn_peer[18]  lookupTimeSig:vector  ETV
314036	159612 1028 647 178699 24.95 266.024269540321 32 0.2 4 28.3 41.33
vector 314039  Network.dyn_peer[19]  lookupHopsSig:vector  ETV
314039	162594 924 713 86449 25.4 171.146941942349 30 2 27 289 3963
vector 314038  Network.dyn_peer[19]  lookupTimeSig:vector  ETV
314038	161622 972 713 86449 25.4 171.146941942349 30 0.3 2.8 31.8 45.62
vector 314041  Network.dyn_peer[20]  lookupHopsSig:vector  ETV
314041	164076 524 734 21801 25.55 80.262092072208 18 1 10 90 574
vector 314040  Network.dyn_peer[20]  lookupTimeSig:vector  ETV
314040	163518 558 734 21801 25.55 80.262092072208 18 0.2 1.1 10.7 7.65
vector 314043  Network.dyn_peer[21]  lookupHopsSig:vector  ETV
314043	166104 1443 761 189179 25.7 275.388461731831 46 1 33 469 7109
vector 314042  Network.dyn_peer[21]  lookupTimeSig:vector  ETV
314042	164600 1504 761 189179 25.7 275.388461731831 46 0.2 3.4 51.4 80.88
vector 314045  Network.dyn_peer[22]  lookupHopsSig:vector  ETV
314045	169252 1632 786 145623 25.85 237.370521742984 51 1 34 552 8646
vector 314044  Network.dyn_peer[22]  lookupTimeSig:vector  ETV
314044	167547 1705 786 145623 25.85 237.370521742984 51 0.1 3.5 60.2 97.98
vector 314047  Network.dyn_peer[23]  lookupHopsSig:vector  ETV
314047	171982 1049 845 143978 26.3 235.811796530246 34 2 22 287 3345
vector 314046  Network.dyn_peer[23]  lookupTimeSig:vector  ETV
314046	170884 1098 845 143978 26.3 235.811796530246 34 0.3 2.3 32 39.46
vector 314049  Network.dyn_peer[24]  lookupHopsSig:vector  ETV
314049	173787 728 857 171335 26.35 260.216998480744 23 1 28 275 4785
vector 314048  Network.dyn_peer[24]  lookupTimeSig:vector  ETV
314048	173031 756 857 171335 26.35 260.216998480744 23 0.1 2.9 29.7 53.55
vector 314051  Network.dyn_peer[25]  lookupHopsSig:vector  ETV
314051	175179 626 950 60266 27 139.111745318832 21 1 14 111 817
vector 314050  Network.dyn_peer[25]  lookupTimeSig:vector  ETV
314050	174515 664 950 60266 27 139.111745318832 21 0.2 1.5 13.1 10.49
vector 314053  Network.dyn_peer[26]  lookupHopsSig:vector  ETV
314053	176671 826 993 169449 27.25 258.62722860686 27 2 19 198 1912
vector 314052  Network.dyn_peer[26]  lookupTimeSig:vector  ETV
314052	175805 866 993 169449 27.25 258.62722860686 27 0.3 2 22.4 23.24
vector 314055  Network.dyn_peer[27]  lookupHopsSig:vector  ETV
314055	178160 633 1000 87739 27.3 172.713359260384 21 1 20 180 2160
vector 314054  Network.dyn_peer[27]  lookupTimeSig:vector  ETV
314054	177497 663 1000 87739 27.3 172.713359260384 21 0.2 2.1 20 25.34
vector 314057  Network.dyn_peer[28]  lookupHopsSig:vector  ETV
314057	179799 961 1015 107144 27.35 195.985825738007 31 1 40 292 5192
vector 314056  Network.dyn_peer[28]  lookupTimeSig:vector  ETV
314056	178793 1006 1015 107144 27.35 195.985825738007 31 0.1 4.1 32.2 58.04
vector 314059  Network.dyn_peer[29]  lookupHopsSig:vector  ETV
314059	181989 1172 1094 190295 27.9 277.120043459795 38 2 29 347 5001
vector 314058  Network.dyn_peer[29]  lookupTimeSig:vector  ETV
314058	180760 1229 1094 190295 27.9 277.120043459795 38 0.3 3 38.4 57.24
vector 314061  Network.dyn_peer[30]  lookupHopsSig:vector  ETV
314061	184584 1356 1122 186918 28.05 272.741669896921 43 2 32 410 6254
vector 314060  Network.dyn_peer[30]  lookupTimeSig:vector  ETV
314060	183161 1423 1122 186918 28.05 272.741669896921 43 0.3 3.3 45.2 71.1
vector 314063  Network.dyn_peer[31]  lookupHopsSig:vector  ETV
314063	186575 604 1130 162108 28.1 252.067120793874 20 1 31 177 3131
vector 314062  Network.dyn_peer[31]  lookupTimeSig:vector  ETV
314062	185940 635 1130 162108 28.1 252.067120793874 20 0.1 3.2 19.6 35.02
vector 314065  Network.dyn_peer[32]  lookupHopsSig:vector  ETV
314065	188078 851 1212 66037 28.55 147.098391094691 28 2 15 182 1560
vector 314064  Network.dyn_peer[32]  lookupTimeSig:vector  ETV
314064	187179 899 1212 66037 28.55 147.098391094691 28 0.3 1.6 20.9 19.45
vector 314067  Network.dyn_peer[33]  lookupHopsSig:vector  ETV
314067	190082 1100 1238 176628 28.7 264.459303759852 35 2 33 344 5576
vector 314066  Network.dyn_peer[33]  lookupTimeSig:vector  ETV
314066	188929 1153 1238 176628 28.7 264.459303759852 35 0.2 3.4 37.8 62.94
vector 314069  Network.dyn_peer[34]  lookupHopsSig:vector  ETV
314069	192093 868 1327 122957 29.15 213.299947192618 28 2 26 237 2853
vector 314068  Network.dyn_peer[34]  lookupTimeSig:vector  ETV
314068	191182 911 1327 122957 29.15 213.299947192618 28 0.3 2.7 26.4 33.46
vector 314071  Network.dyn_peer[35]  lookupHopsSig:vector  ETV
314071	193706 708 1336 109472 29.2 198.631491483593 23 2 27 174 2126
vector 314070  Network.dyn_peer[35]  lookupTimeSig:vector  ETV
314070	192961 745 1336 109472 29.2 198.631491483593 23 0.2 2.8 19.6 24.92
vector 314073  Network.dyn_peer[36]  lookupHopsSig:vector  ETV
314073	195132 684 1416 110442 29.55 199.676206228607 22 1 36 207 3261
vector 314072  Network.dyn_peer[36]  lookupTimeSig:vector  ETV
314072	194414 718 1416 110442 29.55 199.676206228607 22 0.2 3.7 22.8 36.9
vector 314077  Network.dyn_peer[38]  lookupHopsSig:vector  ETV
314077	199025 828 1501 107911 29.95 196.874064682649 27 1 24 230 2954
vector 314076  Network.dyn_peer[38]  lookupTimeSig:vector  ETV
314076	198154 871 1501 107911 29.95 196.874064682649 27 0.2 2.5 25.6 34.36
vector 314075  Network.dyn_peer[37]  lookupHopsSig:vector  ETV
314075	197008 1146 1513 187054 30 272.867598149729 36 1 38 449 8203
vector 314074  Network.dyn_peer[37]  lookupTimeSig:vector  ETV
314074	195816 1192 1513 187054 30 272.867598149729 36 0.2 3.9 48.4 91.26
vector 314079  Network.dyn_peer[39]  lookupHopsSig:vector  ETV
314079	200568 678 1603 152132 30.4 242.92735581426 22 1 33 161 2637
vector 314078  Network.dyn_peer[39]  lookupTimeSig:vector  ETV
314078	199853 715 1603 152132 30.4 242.92735581426 22 0.2 3.4 18.2 29.72
vector 314081  Network.dyn_peer[40]  lookupHopsSig:vector  ETV
314081	202120 827 1656 153093 30.65 243.719105212759 27 1 23 190 2040
vector 314080  Network.dyn_peer[40]  lookupTimeSig:vector  ETV
314080	201246 874 1656 153093 30.65 243.719105212759 27 0.2 2.4 21.6 24.38
vector 314083  Network.dyn_peer[41]  lookupHopsSig:vector  ETV
314083	203829 842 1697 135886 30.8 227.164262715164 27 1 25 251 3781
vector 314082  Network.dyn_peer[41]  lookupTimeSig:vector  ETV
314082	202947 882 1697 135886 30.8 227.164262715164 27 0.2 2.6 27.7 43.03
vector 314085  Network.dyn_peer[42]  lookupHopsSig:vector  ETV
314085	205777 1051 1748 152871 31.05 243.531477907686 34 1 28 302 4164
vector 314084  Network.dyn_peer[42]  lookupTimeSig:vector  ETV
314084	204671 1106 1748 152871 31.05 243.531477907686 34 0.2 2.9 33.5 47.95
vector 314089  Network.dyn_peer[44]  lookupHopsSig:vector  ETV
314089	210791 1837 1832 187041 31.45 272.858437798578 58 1 49 608 11100
vector 314088  Network.dyn_peer[44]  lookupTimeSig:vector  ETV
314088	208874 1917 1832 187041 31.45 272.858437798578 58 0.2 5 66.5 123.69
vector 314087  Network.dyn_peer[43]  lookupHopsSig:vector  ETV
314087	207878 996 1847 42570 31.5 113.788693939648 33 1 20 227 2207
vector 314086  Network.dyn_peer[43]  lookupTimeSig:vector  ETV
314086	206828 1050 1847 42570 31.5 113.788693939648 33 0.2 2.1 25.9 26.83
vector 314091  Network.dyn_peer[45]  lookupHopsSig:vector  ETV
314091	213849 1166 1925 177655 31.8 265.237551033107 37 1 22 365 5189
vector 314090  Network.dyn_peer[45]  lookupTimeSig:vector  ETV
314090	212628 1221 1925 177655 31.8 265.237551033107 37 0.2 2.3 40.1 59.49
vector 314093  Network.dyn_peer[46]  lookupHopsSig:vector  ETV
314093	216533 1448 2004 133471 32.15 224.288729027407 47 2 32 355 4287
vector 314092  Network.dyn_peer[46]  lookupTimeSig:vector  ETV
314092	215015 1518 2004 133471 32.15 224.288729027407 47 0.3 3.3 40.1 50.35
vector 314099  Network.dyn_peer[49]  lookupHopsSig:vector  ETV
314099	222888 1065 2124 139073 32.6 230.725306468487 34 1 29 341 5427
vector 314098  Network.dyn_peer[49]  lookupTimeSig:vector  ETV
314098	221777 1111 2124 139073 32.6 230.725306468487 34 0.1 3 37.4 61.4
vector 314095  Network.dyn_peer[47]  lookupHopsSig:vector  ETV
314095	218798 783 2153 144732 32.7 236.532272512534 25 1 28 283 4639
vector 314094  Network.dyn_peer[47]  lookupTimeSig:vector  ETV
314094	217981 817 2153 144732 32.7 236.532272512534 25 0.2 2.9 30.7 52.15
vector 314097  Network.dyn_peer[48]  lookupHopsSig:vector  ETV
314097	220704 1073 2167 130283 32.75 220.658158809175 34 2 30 388 6442
vector 314096  Network.dyn_peer[48]  lookupTimeSig:vector  ETV
314096	219581 1123 2167 130283 32.75 220.658158809175 34 0.3 3.1 42.1 72.41
vector 314101  Network.dyn_peer[50]  lookupHopsSig:vector  ETV
314101	224659 678 2204 170387 32.85 259.421118245035 22 1 28 221 3047
vector 314100  Network.dyn_peer[50]  lookupTimeSig:vector  ETV
314100	223953 706 2204 170387 32.85 259.421118245035 22 0.1 2.9 24.2 35.08
vector 314103  Network.dyn_peer[51]  lookupHopsSig:vector  ETV
314103	225985 622 2295 157041 33.2 247.377453817954 20 1 37 248 5086
vector 314102  Network.dyn_peer[51]  lookupTimeSig:vector  ETV
314102	225337 648 2295 157041 33.2 247.377453817954 20 0.2 3.8 26.7 55.97
vector 314105  Network.dyn_peer[52]  lookupHopsSig:vector  ETV
314105	227479 832 2386 186742 33.55 272.568259343224 27 1 36 220 3424
vector 314104  Network.dyn_peer[52]  lookupTimeSig:vector  ETV
314104	226607 872 2386 186742 33.55 272.568259343224 27 0.2 3.7 24.6 38.84
vector 314107  Network.dyn_peer[53]  lookupHopsSig:vector  ETV
314107	229508 1143 2456 163467 33.8 253.362389781502 36 1 35 334 5006
vector 314106  Network.dyn_peer[53]  lookupTimeSig:vector  ETV
314106	228311 1197 2456 163467 33.8 253.362389781502 36 0.2 3.6 36.9 57.03
vector 314109  Network.dyn_peer[54]  lookupHopsSig:vector  ETV
314109	230759 100 2581 3142 34.25 36.267810350581 4 4 7 22 126
vector 314108  Network.dyn_peer[54]  lookupTimeSig:vector  ETV
314108	230651 108 2581 3142 34.25 36.267810350581 4 0.5 0.8 2.5 1.63
vector 314113  Network.dyn_peer[56]  lookupHopsSig:vector  ETV
314113	234350 505 2657 38241 34.55 107.508442059263 17 1 14 101 831
vector 314112  Network.dyn_peer[56]  lookupTimeSig:vector  ETV
314112	233814 536 2657 38241 34.55 107.508442059263 17 0.2 1.5 11.7 10.43
vector 314115  Network.dyn_peer[57]  lookupHopsSig:vector  ETV
314115	235454 568 2728 43998 34.8 115.78071263543 19 2 16 135 1189
vector 314114  Network.dyn_peer[57]  lookupTimeSig:vector  ETV
314114	234855 599 2728 43998 34.8 115.78071263543 19 0.3 1.7 15.3 14.71
vector 314111  Network.dyn_peer[55]  lookupHopsSig:vector  ETV
314111	232371 1443 2758 175553 34.9 263.657955051303 46 2 29 370 4440
vector 314110  Network.dyn_peer[55]  lookupTimeSig:vector  ETV
314110	230859 1512 2758 175553 34.9 263.657955051303 46 0.3 3 41.5 52.07
vector 314117  Network.dyn_peer[58]  lookupHopsSig:vector  ETV
314117	236254 222 2822 25407 35.15 86.914787780791 8 4 9 54 394
vector 314116  Network.dyn_peer[58]  lookupTimeSig:vector  ETV
314116	236022 232 2822 25407 35.15 86.914787780791 8 0.4 1 6.1 5.01
vector 314119  Network.dyn_peer[59]  lookupHopsSig:vector  ETV
314119	237542 1022 2951 126748 35.6 217.15740442697 33 2 22 311 3803
vector 314118  Network.dyn_peer[59]  lookupTimeSig:vector  ETV
314118	236476 1066 2951 126748 35.6 217.15740442697 33 0.3 2.3 34.3 44.45
vector 314123  Network.dyn_peer[61]  lookupHopsSig:vector  ETV
314123	241012 697 2955 90100 35.6 175.835618715995 23 1 28 167 2269
vector 314122  Network.dyn_peer[61]  lookupTimeSig:vector  ETV
314122	240275 737 2955 90100 35.6 175.835618715995 23 0.1 2.9 18.9 26.23
vector 314121  Network.dyn_peer[60]  lookupHopsSig:vector  ETV
314121	239442 833 3027 126308 35.85 216.721032310128 27 1 23 204 2240
vector 314120  Network.dyn_peer[60]  lookupTimeSig:vector  ETV
314120	238564 878 3027 126308 35.85 216.721032310128 27 0.2 2.4 23 26.62
vector 314125  Network.dyn_peer[62]  lookupHopsSig:vector  ETV
314125	242076 352 3134 64637 36.25 145.216635180797 12 2 27 113 1725
vector 314124  Network.dyn_peer[62]  lookupTimeSig:vector  ETV
314124	241709 367 3134 64637 36.25 145.216635180797 12 0.3 2.8 12.4 19.52
vector 314127  Network.dyn_peer[63]  lookupHopsSig:vector  ETV
314127	243577 1104 3174 140966 36.4 232.722256338032 35 2 36 394 6196
vector 314126  Network.dyn_peer[63]  lookupTimeSig:vector  ETV
314126	242428 1149 3174 140966 36.4 232.722256338032 35 0.3 3.7 42.8 70.1
vector 314131  Network.dyn_peer[65]  lookupHopsSig:vector  ETV
314131	246521 973 3255 115420 36.7 205.055727119968 31 2 17 274 3052
vector 314130  Network.dyn_peer[65]  lookupTimeSig:vector  ETV
314130	245505 1016 3255 115420 36.7 205.055727119968 31 0.2 1.8 30.4 36.26
vector 314129  Network.dyn_peer[64]  lookupHopsSig:vector  ETV
314129	245104 401 3406 8452 37.25 51.750614889426 14 1 10 68 462
vector 314128  Network.dyn_peer[64]  lookupTimeSig:vector  ETV
314128	244681 423 3406 8452 37.25 51.750614889426 14 0.2 1.1 8.1 5.91
vector 314135  Network.dyn_peer[67]  lookupHopsSig:vector  ETV
314135	250121 1315 3456 166991 37.4 256.542257819206 42 2 31 395 5081
vector 314134  Network.dyn_peer[67]  lookupTimeSig:vector  ETV
314134	248745 1376 3456 166991 37.4 256.542257819206 42 0.3 3.2 43.6 59.04
vector 314133  Network.dyn_peer[66]  lookupHopsSig:vector  ETV
314133	248133 612 3508 90045 37.55 175.767855747138 20 3 18 195 2345
vector 314132  Network.dyn_peer[66]  lookupTimeSig:vector  ETV
314132	247494 639 3508 90045 37.55 175.767855747138 20 0.4 1.9 21.4 27.38
vector 314139  Network.dyn_peer[69]  lookupHopsSig:vector  ETV
314139	254241 748 3672 180206 38 267.187995749451 24 2 23 200 2352
vector 314138  Network.dyn_peer[69]  lookupTimeSig:vector  ETV
314138	253452 789 3672 180206 38 267.187995749451 24 0.3 2.4 22.3 27.65
vector 314137  Network.dyn_peer[68]  lookupHopsSig:vector  ETV
314137	252468 984 3694 98528 38.05 186.022909349595 32 1 31 304 4300
vector 314136  Network.dyn_peer[68]  lookupTimeSig:vector  ETV
314136	251436 1032 3694 98528 38.05 186.022909349595 32 0.2 3.2 33.5 49.23
vector 314141  Network.dyn_peer[70]  lookupHopsSig:vector  ETV
314141	255593 579 3699 137780 38.05 229.346121170389 18 2 32 181 2751
vector 314140  Network.dyn_peer[70]  lookupTimeSig:vector  ETV
314140	254989 604 3699 137780 38.05 229.346121170389 18 0.3 3.3 19.8 31.24
vector 314143  Network.dyn_peer[71]  lookupHopsSig:vector  ETV
314143	257457 1235 3864 188267 38.5 274.215678020301 39 1 28 458 7166
vector 314142  Network.dyn_peer[71]  lookupTimeSig:vector  ETV
314142	256172 1285 3864 188267 38.5 274.215678020301 39 0.2 2.9 49.6 81.1
vector 314145  Network.dyn_peer[72]  lookupHopsSig:vector  ETV
314145	259362 635 3987 71760 38.85 154.834452301072 21 2 17 150 1562
vector 314144  Network.dyn_peer[72]  lookupTimeSig:vector  ETV
314144	258692 670 3987 71760 38.85 154.834452301072 21 0.3 1.8 17 18.7
vector 314147  Network.dyn_peer[73]  lookupHopsSig:vector  ETV
314147	260629 605 4042 120896 39 211.232038288945 20 1 36 195 3169
vector 314146  Network.dyn_peer[73]  lookupTimeSig:vector  ETV
314146	259997 632 4042 120896 39 211.232038288945 20 0.2 3.7 21.4 35.68
vector 314149  Network.dyn_peer[74]  lookupHopsSig:vector  ETV
314149	261691 435 4094 122743 39.15 213.075665379712 14 1 33 146 2774
vector 314148  Network.dyn_peer[74]  lookupTimeSig:vector  ETV
314148	261234 457 4094 122743 39.15 213.075665379712 14 0.2 3.4 15.9 30.71
vector 314153  Network.dyn_peer[76]  lookupHopsSig:vector  ETV
314153	265155 897 4321 140976 39.85 232.73010766723 29 2 31 270 3700
vector 314152  Network.dyn_peer[76]  lookupTimeSig:vector  ETV
314152	264216 939 4321 140976 39.85 232.73010766723 29 0.3 3.2 29.8 42.56
vector 314151  Network.dyn_peer[75]  lookupHopsSig:vector  ETV
314151	263191 1025 4374 117044 40 206.974897085118 33 1 25 325 3913
vector 314150  Network.dyn_peer[75]  lookupTimeSig:vector  ETV
314150	262126 1065 4374 117044 40 206.974897085118 33 0.2 2.6 35.7 45.75
vector 314157  Network.dyn_peer[78]  lookupHopsSig:vector  ETV
314157	268232 973 4410 105175 40.15 193.786843713618 31 1 29 323 4665
vector 314156  Network.dyn_peer[78]  lookupTimeSig:vector  ETV
314156	267222 1010 4410 105175 40.15 193.786843713618 31 0.2 3 35.3 53.33
vector 314155  Network.dyn_peer[77]  lookupHopsSig:vector  ETV
314155	266650 572 4427 44782 40.2 116.98102704158 19 2 19 169 1911
vector 314154  Network.dyn_peer[77]  lookupTimeSig:vector  ETV
314154	266052 598 4427 44782 40.2 116.98102704158 19 0.3 2 18.7 22.53
vector 314159  Network.dyn_peer[79]  lookupHopsSig:vector  ETV
314159	269634 406 4487 20259 40.4 77.614076894294 14 2 18 96 898
vector 314158  Network.dyn_peer[79]  lookupTimeSig:vector  ETV
314158	269205 429 4487 20259 40.4 77.614076894294 14 0.3 1.9 10.9 10.95
vector 314163  Network.dyn_peer[81]  lookupHopsSig:vector  ETV
314163	272546 676 4522 130367 40.5 220.735759197962 22 0 29 164 2174
vector 314162  Network.dyn_peer[81]  lookupTimeSig:vector  ETV
314162	271841 705 4522 130367 40.5 220.735759197962 22 0 3 18.5 25.23
vector 314165  Network.dyn_peer[82]  lookupHopsSig:vector  ETV
314165	274005 750 4686 82431 41.05 166.732395513905 24 1 31 251 3825
vector 314164  Network.dyn_peer[82]  lookupTimeSig:vector  ETV
314164	273222 783 4686 82431 41.05 166.732395513905 24 0.2 3.2 27.4 43.44
vector 314169  Network.dyn_peer[84]  lookupHopsSig:vector  ETV
314169	276290 693 4832 191654 41.55 280.128197143832 22 1 28 242 3750
vector 314168  Network.dyn_peer[84]  lookupTimeSig:vector  ETV
314168	275567 723 4832 191654 41.55 280.128197143832 22 0.2 2.9 26.3 42.49
vector 314161  Network.dyn_peer[80]  lookupHopsSig:vector  ETV
314161	270956 885 4867 116494 41.65 206.34468221335 28 2 26 304 4214
vector 314160  Network.dyn_peer[80]  lookupTimeSig:vector  ETV
314160	270040 916 4867 116494 41.65 206.34468221335 28 0.3 2.7 33.1 48.21
vector 314173  Network.dyn_peer[86]  lookupHopsSig:vector  ETV
314173	278808 130 4980 5615 42.05 44.177070807294 5 1 7 20 100
vector 314172  Network.dyn_peer[86]  lookupTimeSig:vector  ETV
314172	278668 140 4980 5615 42.05 44.177070807294 5 0.2 0.8 2.4 1.38
vector 314167  Network.dyn_peer[83]  lookupHopsSig:vector  ETV
314167	275169 398 5049 154960 42.3 245.378232605042 13 4 33 162 2756
vector 314166  Network.dyn_peer[83]  lookupTimeSig:vector  ETV
314166	274755 414 5049 154960 42.3 245.378232605042 13 0.5 3.4 17.4 30.66
vector 314175  Network.dyn_peer[87]  lookupHopsSig:vector  ETV
314175	279516 549 5053 93180 42.3 179.832306381528 18 2 25 159 1977
vector 314174  Network.dyn_peer[87]  lookupTimeSig:vector  ETV
314174	278938 578 5053 93180 42.3 179.832306381528 18 0.3 2.6 17.6 23.06
vector 314171  Network.dyn_peer[85]  lookupHopsSig:vector  ETV
314171	277841 827 5130 127530 42.6 217.934848850725 26 2 39 331 6051
vector 314170  Network.dyn_peer[85]  lookupTimeSig:vector  ETV
314170	276983 858 5130 127530 42.6 217.934848850725 26 0.3 4 35.6 67.16
vector 314177  Network.dyn_peer[88]  lookupHopsSig:vector  ETV
314177	280607 513 5164 83540 42.75 167.835138894341 17 1 20 140 1682
vector 314176  Network.dyn_peer[88]  lookupTimeSig:vector  ETV
314176	280065 542 5164 83540 42.75 167.835138894341 17 0.2 2.1 15.6 19.68
vector 314179  Network.dyn_peer[89]  lookupHopsSig:vector  ETV
314179	282230 1063 5183 115935 42.8 205.681714139645 34 1 26 315 4101
vector 314178  Network.dyn_peer[89]  lookupTimeSig:vector  ETV
314178	281120 1110 5183 115935 42.8 205.681714139645 34 0.2 2.7 34.8 47.58
vector 314183  Network.dyn_peer[91]  lookupHopsSig:vector  ETV
314183	284499 743 5300 49335 43.2 124.018799771053 25 2 11 163 1183
vector 314182  Network.dyn_peer[91]  lookupTimeSig:vector  ETV
314182	283719 780 5300 49335 43.2 124.018799771053 25 0.2 1.2 18.7 15.29
vector 314181  Network.dyn_peer[90]  lookupHopsSig:vector  ETV
314181	283511 208 5411 126088 43.55 216.510760648037 7 2 15 54 526
vector 314180  Network.dyn_peer[90]  lookupTimeSig:vector  ETV
314180	283293 218 5411 126088 43.55 216.510760648037 7 0.3 1.6 6 6.24
vector 314187  Network.dyn_peer[93]  lookupHopsSig:vector  ETV
314187	287258 484 5475 170276 43.7 259.327983570737 16 1 31 185 3619
vector 314186  Network.dyn_peer[93]  lookupTimeSig:vector  ETV
314186	286753 505 5475 170276 43.7 259.327983570737 16 0.2 3.2 20 40
vector 314189  Network.dyn_peer[94]  lookupHopsSig:vector  ETV
314189	288199 436 5520 164042 43.85 253.879841798893 14 1 32 185 3919
vector 314188  Network.dyn_peer[94]  lookupTimeSig:vector  ETV
314188	287742 457 5520 164042 43.85 253.879841798893 14 0.1 3.3 19.8 43
vector 314185  Network.dyn_peer[92]  lookupHopsSig:vector  ETV
314185	286013 740 5637 89007 44.25 174.386095397543 24 2 33 228 3152
vector 314184  Network.dyn_peer[92]  lookupTimeSig:vector  ETV
314184	285242 771 5637 89007 44.25 174.386095397543 24 0.3 3.4 25.1 36.11
vector 314191  Network.dyn_peer[95]  lookupHopsSig:vector  ETV
314191	289261 603 5802 142388 44.8 234.172541803203 19 5 35 248 4312
vector 314190  Network.dyn_peer[95]  lookupTimeSig:vector  ETV
314190	288635 626 5802 142388 44.8 234.172541803203 19 0.6 3.6 26.6 48.1
vector 314195  Network.dyn_peer[97]  lookupHopsSig:vector  ETV
314195	291869 984 5827 192074 44.9 281.582070420216 31 2 35 328 4838
vector 314194  Network.dyn_peer[97]  lookupTimeSig:vector  ETV
314194	290844 1025 5827 192074 44.9 281.582070420216 31 0.3 3.6 35.8 55.16
vector 314193  Network.dyn_peer[96]  lookupHopsSig:vector  ETV
314193	290366 478 5874 90183 45.05 175.933791075963 16 1 29 132 2228
vector 314192  Network.dyn_peer[96]  lookupTimeSig:vector  ETV
314192	289864 502 5874 90183 45.05 175.933791075963 16 0.2 3 14.7 24.91
vector 314197  Network.dyn_peer[98]  lookupHopsSig:vector  ETV
314197	293378 500 5905 128386 45.15 218.772167286134 16 1 45 154 3128
vector 314196  Network.dyn_peer[98]  lookupTimeSig:vector  ETV
314196	292853 525 5905 128386 45.15 218.772167286134 16 0.2 4.6 16.9 34.43
vector 314199  Network.dyn_peer[99]  lookupHopsSig:vector  ETV
314199	294693 783 5986 183516 45.4 269.78137042907 25 1 22 238 3018
vector 314198  Network.dyn_peer[99]  lookupTimeSig:vector  ETV
314198	293878 815 5986 183516 45.4 269.78137042907 25 0.2 2.3 26.2 35.1
vector 314203  Network.dyn_peer[101]  lookupHopsSig:vector  ETV
314203	296739 156 6052 7032 45.6 48.325867448705 6 1 9 23 137
vector 314202  Network.dyn_peer[101]  lookupTimeSig:vector  ETV
314202	296573 166 6052 7032 45.6 48.325867448705 6 0.1 1 2.8 1.86
vector 314201  Network.dyn_peer[100]  lookupHopsSig:vector  ETV
314201	296039 534 6135 114558 45.85 204.03212260758 18 1 20 130 1448
vector 314200  Network.dyn_peer[100]  lookupTimeSig:vector  ETV
314200	295476 563 6135 114558 45.85 204.03212260758 18 0.2 2.1 14.7 17.13
vector 314205  Network.dyn_peer[102]  lookupHopsSig:vector  ETV
314205	297363 443 6212 50425 46.05 125.735492599129 15 3 10 93 657
vector 314204  Network.dyn_peer[102]  lookupTimeSig:vector  ETV
314204	296895 468 6212 50425 46.05 125.735492599129 15 0.3 1.1 10.7 8.51
vector 314211  Network.dyn_peer[105]  lookupHopsSig:vector  ETV
314211	301764 124 6510 7505 47 49.413629640085 5 3 7 25 135
vector 314210  Network.dyn_peer[105]  lookupTimeSig:vector  ETV
314210	301630 134 6510 7505 47 49.413629640085 5 0.4 0.8 2.9 1.79
vector 314209  Network.dyn_peer[104]  lookupHopsSig:vector  ETV
314209	300315 1315 6566 149097 47.15 240.445266883676 41 1 26 496 7924
vector 314208  Network.dyn_peer[104]  lookupTimeSig:vector  ETV
314208	298947 1368 6566 149097 47.15 240.445266883676 41 0.2 2.7 53.6 89.38
vector 314207  Network.dyn_peer[103]  lookupHopsSig:vector  ETV
314207	298389 558 6588 156503 47.2 246.865060214459 18 2 25 202 3062
vector 314206  Network.dyn_peer[103]  lookupTimeSig:vector  ETV
314206	297806 583 6588 156503 47.2 246.865060214459 18 0.3 2.6 21.9 34.59
vector 314215  Network.dyn_peer[107]  lookupHopsSig:vector  ETV
314215	304673 921 6628 167670 47.3 257.1033685297 29 1 30 344 5656
vector 314214  Network.dyn_peer[107]  lookupTimeSig:vector  ETV
314214	303716 957 6628 167670 47.3 257.1033685297 29 0.2 3.1 37.2 63.66
vector 314213  Network.dyn_peer[106]  lookupHopsSig:vector  ETV
314213	302823 893 6728 162316 47.55 252.269970408711 28 1 32 326 5396
vector 314212  Network.dyn_peer[106]  lookupTimeSig:vector  ETV
314212	301888 935 6728 162316 47.55 252.269970408711 28 0.2 3.3 35.3 60.59
vector 314217  Network.dyn_peer[108]  lookupHopsSig:vector  ETV
314217	306459 834 6767 173779 47.65 262.212621643955 26 1 25 285 4083
vector 314216  Network.dyn_peer[108]  lookupTimeSig:vector  ETV
314216	305594 865 6767 173779 47.65 262.212621643955 26 0.2 2.6 31 46.7
vector 314219  Network.dyn_peer[109]  lookupHopsSig:vector  ETV
314219	308093 770 6885 125102 48 215.478931517819 25 2 25 233 2895
vector 314218  Network.dyn_peer[109]  lookupTimeSig:vector  ETV
314218	307293 800 6885 125102 48 215.478931517819 25 0.3 2.6 25.7 33.75
vector 314223  Network.dyn_peer[111]  lookupHopsSig:vector  ETV