file 1051289 1369674148                                         
version 2
run Stability-80-20130521-22:28:23-23591
attr configname Stability
attr datetime 20130521-22:28:23
attr experiment Stability
attr inifile omnetpp.ini
attr iterationvars $0=2
attr iterationvars2 "$0=2, $repetition=20"
attr measurement $0=2
attr network Network
attr processid 23591
attr repetition 20
attr replication #20
attr resultdir results
attr runnumber 80
attr seedset 80
vector 160001  Network.dyn_peer[0]  lookupHopsSig:vector  ETV
160001	129651 1410 105 134988 22.2 1501.514748018308 45 1 28 309 3087
vector 160000  Network.dyn_peer[0]  lookupTimeSig:vector  ETV
160000	128169 1482 105 134988 22.2 1501.514748018308 45 0.2 2.9 35.3 37.45
vector 160003  Network.dyn_peer[1]  lookupHopsSig:vector  ETV
160003	133467 2280 144 171535 24.2 1777.938770138139 73 1 39 494 6908
vector 160002  Network.dyn_peer[1]  lookupTimeSig:vector  ETV
160002	131061 2406 144 171535 24.2 1777.938770138139 73 0.2 4 56.6 79.64
vector 160005  Network.dyn_peer[2]  lookupHopsSig:vector  ETV
160005	137087 1272 190 168679 26.5 1757.418127564574 40 1 27 327 3983
vector 160004  Network.dyn_peer[2]  lookupTimeSig:vector  ETV
160004	135747 1340 190 168679 26.5 1757.418127564574 40 0.2 2.8 36.6 46.66
vector 160007  Network.dyn_peer[3]  lookupHopsSig:vector  ETV
160007	139382 984 250 128753 28.3 1453.258542346521 31 1 30 280 3672
vector 160006  Network.dyn_peer[3]  lookupTimeSig:vector  ETV
160006	138359 1023 250 128753 28.3 1453.258542346521 31 0.2 3.1 31 42.56
vector 160009  Network.dyn_peer[4]  lookupHopsSig:vector  ETV
160009	141581 1160 286 185451 30.2 1884.220589998756 36 2 28 361 5193
vector 160008  Network.dyn_peer[4]  lookupTimeSig:vector  ETV
160008	140366 1215 286 185451 30.2 1884.220589998756 36 0.2 2.9 39.6 59.46
vector 160011  Network.dyn_peer[5]  lookupHopsSig:vector  ETV
160011	144387 1578 325 189556 32.5 1913.02142595279 49 2 34 475 6557
vector 160010  Network.dyn_peer[5]  lookupTimeSig:vector  ETV
160010	142741 1646 325 189556 32.5 1913.02142595279 49 0.3 3.5 52.3 75.45
vector 160013  Network.dyn_peer[6]  lookupHopsSig:vector  ETV
160013	147920 1864 360 191394 34.4 1925.252107538018 58 1 32 490 6736
vector 160012  Network.dyn_peer[6]  lookupTimeSig:vector  ETV
160012	145965 1955 360 191394 34.4 1925.252107538018 58 0.2 3.3 54.7 77.65
vector 160015  Network.dyn_peer[7]  lookupHopsSig:vector  ETV
160015	151529 1659 419 165291 36.3 1733.852898485566 52 1 22 380 4206
vector 160014  Network.dyn_peer[7]  lookupTimeSig:vector  ETV
160014	149784 1745 419 165291 36.3 1733.852898485566 52 0.2 2.3 43.1 50.11
vector 160017  Network.dyn_peer[8]  lookupHopsSig:vector  ETV
160017	154499 1257 446 185745 38.2 1886.247572483417 39 2 29 369 4649
vector 160016  Network.dyn_peer[8]  lookupTimeSig:vector  ETV
160016	153188 1311 446 185745 38.2 1886.247572483417 39 0.2 3 40.7 54.21
vector 160019  Network.dyn_peer[9]  lookupHopsSig:vector  ETV
160019	157667 1832 482 159959 40.3 1693.223337249508 57 2 35 589 8547
vector 160018  Network.dyn_peer[9]  lookupTimeSig:vector  ETV
160018	155756 1911 482 159959 40.3 1693.223337249508 57 0.3 3.6 64.5 97.75
vector 160021  Network.dyn_peer[10]  lookupHopsSig:vector  ETV
160021	160892 1325 527 151268 42.3 1625.234624054835 42 2 18 310 3226
vector 160020  Network.dyn_peer[10]  lookupTimeSig:vector  ETV
160020	159499 1393 527 151268 42.3 1625.234624054835 42 0.3 1.9 35.1 38.81
vector 160023  Network.dyn_peer[11]  lookupHopsSig:vector  ETV
160023	163844 1554 596 145696 44.5 1577.335138392699 48 1 22 434 5500
vector 160022  Network.dyn_peer[11]  lookupTimeSig:vector  ETV
160022	162217 1627 596 145696 44.5 1577.335138392699 48 0.2 2.3 48.1 64.05
vector 160025  Network.dyn_peer[12]  lookupHopsSig:vector  ETV
160025	166873 1403 655 62615 46.3 869.13774795387 45 1 18 333 3119
vector 160024  Network.dyn_peer[12]  lookupTimeSig:vector  ETV
160024	165398 1475 655 62615 46.3 869.13774795387 45 0.2 1.9 37.7 38.23
vector 160027  Network.dyn_peer[13]  lookupHopsSig:vector  ETV
160027	169730 1373 680 176005 48 1807.723603430682 45 0 27 259 2645
vector 160026  Network.dyn_peer[13]  lookupTimeSig:vector  ETV
160026	168276 1454 680 176005 48 1807.723603430682 45 0 2.8 30.3 32.07
vector 160029  Network.dyn_peer[14]  lookupHopsSig:vector  ETV
160029	172354 1194 712 108830 50 1279.850740698077 38 0 21 287 3005
vector 160028  Network.dyn_peer[14]  lookupTimeSig:vector  ETV
160028	171103 1251 712 108830 50 1279.850740698077 38 0 2.2 32.4 36.16
vector 160031  Network.dyn_peer[15]  lookupHopsSig:vector  ETV
160031	176216 2558 779 188808 52.1 1907.62618342598 78 1 24 704 8686
vector 160030  Network.dyn_peer[15]  lookupTimeSig:vector  ETV
160030	173548 2668 779 188808 52.1 1907.62618342598 78 0.1 2.5 78.1 101.69
vector 160033  Network.dyn_peer[16]  lookupHopsSig:vector  ETV
160033	180494 1636 866 187381 54.2 1896.415918886564 52 1 26 371 4111
vector 160032  Network.dyn_peer[16]  lookupTimeSig:vector  ETV
160032	178774 1720 866 187381 54.2 1896.415918886564 52 0.2 2.7 42.2 49
vector 160035  Network.dyn_peer[17]  lookupHopsSig:vector  ETV
160035	183001 831 927 45840 56.4 697.235989072875 27 2 21 222 2548
vector 160034  Network.dyn_peer[17]  lookupTimeSig:vector  ETV
160034	182130 871 927 45840 56.4 697.235989072875 27 0.3 2.2 24.8 30.1
vector 160037  Network.dyn_peer[18]  lookupHopsSig:vector  ETV
160037	185076 1192 998 146915 58.5 1585.320323574029 38 1 23 294 3312
vector 160036  Network.dyn_peer[18]  lookupTimeSig:vector  ETV
160036	183832 1244 998 146915 58.5 1585.320323574029 38 0.2 2.4 33.1 39.27
vector 160039  Network.dyn_peer[19]  lookupHopsSig:vector  ETV
160039	188181 1819 1039 188317 60.4 1903.933105052844 58 1 49 448 6178
vector 160038  Network.dyn_peer[19]  lookupTimeSig:vector  ETV
160038	186268 1913 1039 188317 60.4 1903.933105052844 58 0.2 5 50.5 71.23
vector 160041  Network.dyn_peer[20]  lookupHopsSig:vector  ETV
160041	191765 1676 1078 167212 62.3 1746.932564436274 53 1 36 356 4644
vector 160040  Network.dyn_peer[20]  lookupTimeSig:vector  ETV
160040	190000 1765 1078 167212 62.3 1746.932564436274 53 0.2 3.7 40.8 54.02
vector 160043  Network.dyn_peer[21]  lookupHopsSig:vector  ETV
160043	195056 1536 1148 94608 64.3 1164.121341680615 49 1 24 386 4690
vector 160042  Network.dyn_peer[21]  lookupTimeSig:vector  ETV
160042	193441 1615 1148 94608 64.3 1164.121341680615 49 0.2 2.5 43.4 55.04
vector 160045  Network.dyn_peer[22]  lookupHopsSig:vector  ETV
160045	198199 1529 1220 170679 66.4 1771.848310422177 49 1 28 346 3994
vector 160044  Network.dyn_peer[22]  lookupTimeSig:vector  ETV
160044	196592 1607 1220 170679 66.4 1771.848310422177 49 0.2 2.9 39.4 47.26
vector 160047  Network.dyn_peer[23]  lookupHopsSig:vector  ETV
160047	200749 979 1309 142285 68.5 1549.810662822374 31 2 23 278 3508
vector 160046  Network.dyn_peer[23]  lookupTimeSig:vector  ETV
160046	199728 1021 1309 142285 68.5 1549.810662822374 31 0.3 2.4 30.8 40.84
vector 160049  Network.dyn_peer[24]  lookupHopsSig:vector  ETV
160049	203300 1500 1367 186298 70.1 1889.718865312518 47 1 26 353 4135
vector 160048  Network.dyn_peer[24]  lookupTimeSig:vector  ETV
160048	201728 1572 1367 186298 70.1 1889.718865312518 47 0.1 2.7 39.9 48.85
vector 160051  Network.dyn_peer[25]  lookupHopsSig:vector  ETV
160051	206385 1517 1441 97276 72.2 1189.336515620378 48 1 21 366 3652
vector 160050  Network.dyn_peer[25]  lookupTimeSig:vector  ETV
160050	204800 1585 1441 97276 72.2 1189.336515620378 48 0.2 2.2 41.3 44.27
vector 160053  Network.dyn_peer[26]  lookupHopsSig:vector  ETV
160053	209324 1350 1503 101866 74.2 1225.822511838011 43 1 31 272 2866
vector 160052  Network.dyn_peer[26]  lookupTimeSig:vector  ETV
160052	207902 1422 1503 101866 74.2 1225.822511838011 43 0.2 3.2 31.4 34.48
vector 160055  Network.dyn_peer[27]  lookupHopsSig:vector  ETV
160055	212315 1568 1565 178505 76.2 1827.820638998768 49 1 27 426 6232
vector 160054  Network.dyn_peer[27]  lookupTimeSig:vector  ETV
160054	210674 1641 1565 178505 76.2 1827.820638998768 49 0.2 2.8 47.4 71.28
vector 160057  Network.dyn_peer[28]  lookupHopsSig:vector  ETV
160057	215736 1777 1613 193006 78.5 1936.922750003183 56 1 21 460 4914
vector 160056  Network.dyn_peer[28]  lookupTimeSig:vector  ETV
160056	213883 1853 1613 193006 78.5 1936.922750003183 56 0.2 2.2 51.5 58.79
vector 160059  Network.dyn_peer[29]  lookupHopsSig:vector  ETV
160059	219714 2109 1654 143977 80 1563.639091137516 65 0 39 559 7491
vector 160058  Network.dyn_peer[29]  lookupTimeSig:vector  ETV
160058	217513 2201 1654 143977 80 1563.639091137516 65 0 4 62.3 86.73
vector 160061  Network.dyn_peer[30]  lookupHopsSig:vector  ETV
160061	223008 1123 1728 151904 82.3 1630.820280069618 36 1 16 234 2104
vector 160060  Network.dyn_peer[30]  lookupTimeSig:vector  ETV
160060	221823 1185 1728 151904 82.3 1630.820280069618 36 0.2 1.7 26.9 26.01
vector 160063  Network.dyn_peer[31]  lookupHopsSig:vector  ETV
160063	225875 1670 1812 152744 84.8 1637.428447756649 52 1 30 458 6156
vector 160062  Network.dyn_peer[31]  lookupTimeSig:vector  ETV
160062	224131 1744 1812 152744 84.8 1637.428447756649 52 0.2 3.1 50.9 71.07
vector 160065  Network.dyn_peer[32]  lookupHopsSig:vector  ETV
160065	228358 774 1863 93127 86.3 1151.438512224067 25 1 26 178 2482
vector 160064  Network.dyn_peer[32]  lookupTimeSig:vector  ETV
160064	227545 813 1863 93127 86.3 1151.438512224067 25 0.2 2.7 20.2 28.56
vector 160067  Network.dyn_peer[33]  lookupHopsSig:vector  ETV
160067	230856 1644 1963 195998 88.5 1956.511002057503 51 1 35 447 6567
vector 160066  Network.dyn_peer[33]  lookupTimeSig:vector  ETV
160066	229132 1724 1963 195998 88.5 1956.511002057503 51 0.2 3.6 49.7 75.01
vector 160069  Network.dyn_peer[34]  lookupHopsSig:vector  ETV
160069	233498 951 2014 163328 90.3 1719.633684630613 30 1 26 242 2960
vector 160068  Network.dyn_peer[34]  lookupTimeSig:vector  ETV
160068	232500 998 2014 163328 90.3 1719.633684630613 30 0.2 2.7 27.1 34.67
vector 160071  Network.dyn_peer[35]  lookupHopsSig:vector  ETV
160071	235941 1423 2061 120163 92 1375.531822051792 45 0 20 357 4071
vector 160070  Network.dyn_peer[35]  lookupTimeSig:vector  ETV
160070	234449 1492 2061 120163 92 1375.531822051792 45 0 2.1 40.1 48.29
vector 160073  Network.dyn_peer[36]  lookupHopsSig:vector  ETV
160073	238791 1359 2120 146511 94.3 1582.916179059807 43 1 28 339 3985
vector 160072  Network.dyn_peer[36]  lookupTimeSig:vector  ETV
160072	237364 1427 2120 146511 94.3 1582.916179059807 43 0.2 2.9 38.1 46.99
vector 160075  Network.dyn_peer[37]  lookupHopsSig:vector  ETV
160075	241449 1234 2190 65325 96.5 894.243426332382 40 1 26 310 3980
vector 160074  Network.dyn_peer[37]  lookupTimeSig:vector  ETV
160074	240150 1299 2190 65325 96.5 894.243426332382 40 0.2 2.7 34.9 46.29
vector 160077  Network.dyn_peer[38]  lookupHopsSig:vector  ETV
160077	243641 912 2278 139529 98.6 1531.825424025315 29 2 29 233 3051
vector 160076  Network.dyn_peer[38]  lookupTimeSig:vector  ETV
160076	242683 958 2278 139529 98.6 1531.825424025315 29 0.3 3 26.1 35.33
vector 160079  Network.dyn_peer[39]  lookupHopsSig:vector  ETV
160079	245279 689 2355 151984 100.3 1631.527615498444 22 1 17 139 1259
vector 160078  Network.dyn_peer[39]  lookupTimeSig:vector  ETV
160078	244553 726 2355 151984 100.3 1631.527615498444 22 0.2 1.8 16 15.52
vector 160081  Network.dyn_peer[40]  lookupHopsSig:vector  ETV
160081	247230 1206 2456 99520 102.7 1209.145135945751 38 1 20 337 3809
vector 160080  Network.dyn_peer[40]  lookupTimeSig:vector  ETV
160080	245968 1262 2456 99520 102.7 1209.145135945751 38 0.2 2.1 37.4 45.06
vector 160083  Network.dyn_peer[41]  lookupHopsSig:vector  ETV
160083	249115 641 2558 32618 104.2 558.84252971777 21 2 15 132 1116
vector 160082  Network.dyn_peer[41]  lookupTimeSig:vector  ETV
160082	248436 679 2558 32618 104.2 558.84252971777 21 0.2 1.6 15.2 13.96
vector 160085  Network.dyn_peer[42]  lookupHopsSig:vector  ETV
160085	250856 1043 2696 141979 106.6 1547.850755591867 33 1 21 201 1903
vector 160084  Network.dyn_peer[42]  lookupTimeSig:vector  ETV
160084	249756 1100 2696 141979 106.6 1547.850755591867 33 0.2 2.2 23.3 23.25
vector 160087  Network.dyn_peer[43]  lookupHopsSig:vector  ETV
160087	252872 929 2757 110535 108.1 1294.951623451595 29 1 22 253 2917
vector 160086  Network.dyn_peer[43]  lookupTimeSig:vector  ETV
160086	251899 973 2757 110535 108.1 1294.951623451595 29 0.1 2.3 28.1 34.49
vector 160089  Network.dyn_peer[44]  lookupHopsSig:vector  ETV
160089	254799 948 2833 113494 110.2 1320.944852683816 30 1 23 211 2169
vector 160088  Network.dyn_peer[44]  lookupTimeSig:vector  ETV
160088	253801 998 2833 113494 110.2 1320.944852683816 30 0.2 2.4 24 26.16
vector 160091  Network.dyn_peer[45]  lookupHopsSig:vector  ETV
160091	257110 1303 2890 157154 112.6 1672.426373851732 41 1 24 337 3851
vector 160090  Network.dyn_peer[45]  lookupTimeSig:vector  ETV
160090	255747 1363 2890 157154 112.6 1672.426373851732 41 0.2 2.5 37.7 45.53
vector 160093  Network.dyn_peer[46]  lookupHopsSig:vector  ETV
160093	259454 997 2942 170413 114.2 1769.715998774077 31 1 23 313 4543
vector 160092  Network.dyn_peer[46]  lookupTimeSig:vector  ETV
160092	258413 1041 2942 170413 114.2 1769.715998774077 31 0.2 2.4 34.3 51.95
vector 160095  Network.dyn_peer[47]  lookupHopsSig:vector  ETV
160095	262217 1682 3085 121726 116.6 1390.725854431131 53 1 32 390 4378
vector 160094  Network.dyn_peer[47]  lookupTimeSig:vector  ETV
160094	260451 1766 3085 121726 116.6 1390.725854431131 53 0.2 3.3 44.2 51.98
vector 160097  Network.dyn_peer[48]  lookupHopsSig:vector  ETV
160097	265532 1558 3177 89012 118.4 1121.364331620532 49 1 28 409 5129
vector 160096  Network.dyn_peer[48]  lookupTimeSig:vector  ETV
160096	263899 1633 3177 89012 118.4 1121.364331620532 49 0.2 2.9 45.7 59.87
vector 160099  Network.dyn_peer[49]  lookupHopsSig:vector  ETV
160099	268007 873 3248 73118 120.3 973.324807405641 28 2 15 212 1908
vector 160098  Network.dyn_peer[49]  lookupTimeSig:vector  ETV
160098	267090 917 3248 73118 120.3 973.324807405641 28 0.3 1.6 23.9 23.53
vector 160101  Network.dyn_peer[50]  lookupHopsSig:vector  ETV
160101	269444 537 3383 172089 122.2 1781.839977400539 17 2 20 147 1657
vector 160100  Network.dyn_peer[50]  lookupTimeSig:vector  ETV
160100	268880 564 3383 172089 122.2 1781.839977400539 17 0.2 2.1 16.3 19.63
vector 160103  Network.dyn_peer[51]  lookupHopsSig:vector  ETV
160103	271063 1029 3534 68333 124.8 927.720886010478 33 1 25 234 2410
vector 160102  Network.dyn_peer[51]  lookupTimeSig:vector  ETV
160102	269981 1082 3534 68333 124.8 927.720886010478 33 0.2 2.6 26.6 28.94
vector 160105  Network.dyn_peer[52]  lookupHopsSig:vector  ETV
160105	272544 434 3602 110451 127 1294.341075098407 14 3 32 129 1905
vector 160104  Network.dyn_peer[52]  lookupTimeSig:vector  ETV
160104	272092 452 3602 110451 127 1294.341075098407 14 0.4 3.3 14.2 21.56
vector 160107  Network.dyn_peer[53]  lookupHopsSig:vector  ETV
160107	274791 1736 3674 90599 128.5 1132.726361879206 54 2 16 451 4483
vector 160106  Network.dyn_peer[53]  lookupTimeSig:vector  ETV
160106	272978 1813 3674 90599 128.5 1132.726361879206 54 0.3 1.7 50.4 54.28
vector 160109  Network.dyn_peer[54]  lookupHopsSig:vector  ETV
160109	277519 956 3780 137107 130.5 1515.647680166406 30 2 39 302 4900
vector 160108  Network.dyn_peer[54]  lookupTimeSig:vector  ETV
160108	276527 992 3780 137107 130.5 1515.647680166406 30 0.3 4 33.1 55.23
vector 160111  Network.dyn_peer[55]  lookupHopsSig:vector  ETV
160111	279073 573 3878 105570 132.5 1254.33957934629 18 2 18 179 2175
vector 160110  Network.dyn_peer[55]  lookupTimeSig:vector  ETV
160110	278475 598 3878 105570 132.5 1254.33957934629 18 0.3 1.9 19.6 25.4
vector 160113  Network.dyn_peer[56]  lookupHopsSig:vector  ETV
160113	282174 2412 3988 125260 134.4 1421.919957618064 75 2 22 625 6919
vector 160112  Network.dyn_peer[56]  lookupTimeSig:vector  ETV
160112	279646 2528 3988 125260 134.4 1421.919957618064 75 0.3 2.3 69.9 82.35
vector 160115  Network.dyn_peer[57]  lookupHopsSig:vector  ETV
160115	286151 1488 4038 191605 136.3 1926.817735596219 47 1 24 366 4180
vector 160114  Network.dyn_peer[57]  lookupTimeSig:vector  ETV
160114	284586 1565 4038 191605 136.3 1926.817735596219 47 0.2 2.5 41.2 49.52
vector 160117  Network.dyn_peer[58]  lookupHopsSig:vector  ETV
160117	288993 1307 4092 167373 138.6 1748.13615089806 40 2 30 462 6908
vector 160116  Network.dyn_peer[58]  lookupTimeSig:vector  ETV
160116	287639 1354 4092 167373 138.6 1748.13615089806 40 0.3 3.1 50.1 78.59
vector 160119  Network.dyn_peer[59]  lookupHopsSig:vector  ETV
160119	291162 826 4215 165626 140.7 1735.828384685155 26 2 19 204 2154
vector 160118  Network.dyn_peer[59]  lookupTimeSig:vector  ETV
160118	290300 862 4215 165626 140.7 1735.828384685155 26 0.3 2 22.9 25.73
vector 160121  Network.dyn_peer[60]  lookupHopsSig:vector  ETV
160121	293200 1158 4365 139558 142.6 1532.036448920316 36 2 18 260 2334
vector 160120  Network.dyn_peer[60]  lookupTimeSig:vector  ETV
160120	291988 1212 4365 139558 142.6 1532.036448920316 36 0.3 1.9 29.5 28.77
vector 160123  Network.dyn_peer[61]  lookupHopsSig:vector  ETV
160123	295448 1038 4449 174264 144.6 1794.718349505303 33 1 18 247 2379
vector 160122  Network.dyn_peer[61]  lookupTimeSig:vector  ETV
160122	294358 1090 4449 174264 144.6 1794.718349505303 33 0.2 1.9 27.9 28.93
vector 160125  Network.dyn_peer[62]  lookupHopsSig:vector  ETV
160125	297575 1037 4519 155645 146.3 1661.606842695109 33 1 21 244 2424
vector 160124  Network.dyn_peer[62]  lookupTimeSig:vector  ETV
160124	296486 1089 4519 155645 146.3 1661.606842695109 33 0.2 2.2 27.6 29.38
vector 160127  Network.dyn_peer[63]  lookupHopsSig:vector  ETV
160127	300810 2110 4591 193796 148.2 1942.432524376905 65 2 30 663 9099
vector 160126  Network.dyn_peer[63]  lookupTimeSig:vector  ETV
160126	298612 2198 4591 193796 148.2 1942.432524376905 65 0.2 3.1 72.7 104.85
vector 160129  Network.dyn_peer[64]  lookupHopsSig:vector  ETV
160129	303919 957 4714 97108 150.4 1187.717402155105 30 2 20 285 3421
vector 160128  Network.dyn_peer[64]  lookupTimeSig:vector  ETV
160128	302920 999 4714 97108 150.4 1187.717402155105 30 0.3 2.1 31.4 40.12
vector 160131  Network.dyn_peer[65]  lookupHopsSig:vector  ETV
160131	306198 1267 4801 151754 152.3 1629.542105189403 39 1 21 379 4729
vector 160130  Network.dyn_peer[65]  lookupTimeSig:vector  ETV
160130	304876 1322 4801 151754 152.3 1629.542105189403 39 0.2 2.2 41.7 55.19
vector 160133  Network.dyn_peer[66]  lookupHopsSig:vector  ETV
160133	308496 980 4940 93028 154.8 1150.725679311982 31 3 19 241 2473
vector 160132  Network.dyn_peer[66]  lookupTimeSig:vector  ETV
160132	307465 1031 4940 93028 154.8 1150.725679311982 31 0.4 2 27.1 29.69
vector 160135  Network.dyn_peer[67]  lookupHopsSig:vector  ETV
160135	310333 817 5023 193932 156.5 1943.420937502333 25 2 24 223 2829
vector 160134  Network.dyn_peer[67]  lookupTimeSig:vector  ETV
160134	309476 857 5023 193932 156.5 1943.420937502333 25 0.3 2.5 24.7 32.89
vector 160137  Network.dyn_peer[68]  lookupHopsSig:vector  ETV
160137	311688 514 5137 202650 158.4 2009.334568742228 16 3 30 181 3017
vector 160136  Network.dyn_peer[68]  lookupTimeSig:vector  ETV
160136	311150 538 5137 202650 158.4 2009.334568742228 16 0.4 3.1 19.6 33.86
vector 160139  Network.dyn_peer[69]  lookupHopsSig:vector  ETV
160139	313944 1668 5226 172529 160.2 1784.929932665026 52 2 23 486 6238
vector 160138  Network.dyn_peer[69]  lookupTimeSig:vector  ETV
160138	312202 1742 5226 172529 160.2 1784.929932665026 52 0.2 2.4 53.7 72.57
vector 160141  Network.dyn_peer[70]  lookupHopsSig:vector  ETV
160141	316679 1014 5283 191391 162.7 1925.245063011171 32 1 18 231 2499
vector 160140  Network.dyn_peer[70]  lookupTimeSig:vector  ETV
160140	315612 1067 5283 191391 162.7 1925.245063011171 32 0.2 1.9 26.2 29.78
vector 160143  Network.dyn_peer[71]  lookupHopsSig:vector  ETV
160143	318438 709 5354 70011 164.7 946.329407718519 23 1 19 156 1464
vector 160142  Network.dyn_peer[71]  lookupTimeSig:vector  ETV
160142	317693 745 5354 70011 164.7 946.329407718519 23 0.2 2 17.8 17.84
vector 160145  Network.dyn_peer[72]  lookupHopsSig:vector  ETV
160145	319622 451 5485 29202 166.8 522.328021481853 15 2 15 108 1014
vector 160144  Network.dyn_peer[72]  lookupTimeSig:vector  ETV
160144	319147 475 5485 29202 166.8 522.328021481853 15 0.3 1.6 12.2 12.28
vector 160147  Network.dyn_peer[73]  lookupHopsSig:vector  ETV
160147	321992 1844 5570 184688 168.1 1878.52981814993 57 1 32 589 8743
vector 160146  Network.dyn_peer[73]  lookupTimeSig:vector  ETV
160146	320073 1919 5570 184688 168.1 1878.52981814993 57 0.1 3.3 64.5 99.75
vector 160149  Network.dyn_peer[74]  lookupHopsSig:vector  ETV
160149	325032 1145 5678 117614 170.9 1351.83508698959 36 1 21 294 3244
vector 160148  Network.dyn_peer[74]  lookupTimeSig:vector  ETV
160148	323836 1196 5678 117614 170.9 1351.83508698959 36 0.2 2.2 32.9 38.49
vector 160151  Network.dyn_peer[75]  lookupHopsSig:vector  ETV
160151	326654 449 5744 64408 172.6 888.629570863264 15 1 14 99 809
vector 160150  Network.dyn_peer[75]  lookupTimeSig:vector  ETV
160150	326177 477 5744 64408 172.6 888.629570863264 15 0.2 1.5 11.3 10.09
vector 160153  Network.dyn_peer[76]  lookupHopsSig:vector  ETV
160153	328570 1403 5835 84059 174.3 1074.930219729127 44 1 26 417 5447
vector 160152  Network.dyn_peer[76]  lookupTimeSig:vector  ETV
160152	327103 1467 5835 84059 174.3 1074.930219729127 44 0.2 2.7 46 63.18
vector 160155  Network.dyn_peer[77]  lookupHopsSig:vector  ETV
160155	330914 899 5938 155121 176.2 1656.219391697571 29 2 20 210 2182
vector 160154  Network.dyn_peer[77]  lookupTimeSig:vector  ETV
160154	329973 941 5938 155121 176.2 1656.219391697571 29 0.2 2.1 23.8 26.26
vector 160157  Network.dyn_peer[78]  lookupHopsSig:vector  ETV
160157	333230 1365 6067 112995 178.4 1316.316737340691 42 2 25 422 5390
vector 160156  Network.dyn_peer[78]  lookupTimeSig:vector  ETV
160156	331813 1417 6067 112995 178.4 1316.316737340691 42 0.3 2.6 46.3 62.67
vector 160159  Network.dyn_peer[79]  lookupHopsSig:vector  ETV
160159	335445 814 6218 168874 180.9 1758.728078851152 25 1 31 273 4465
vector 160158  Network.dyn_peer[79]  lookupTimeSig:vector  ETV
160158	334595 850 6218 168874 180.9 1758.728078851152 25 0.2 3.2 29.7 50.17
vector 160161  Network.dyn_peer[80]  lookupHopsSig:vector  ETV
160161	337741 1419 6300 175980 183.2 1807.536564362839 44 1 34 406 5794
vector 160160  Network.dyn_peer[80]  lookupTimeSig:vector  ETV
160160	336259 1482 6300 175980 183.2 1807.536564362839 44 0.2 3.5 44.9 66.25
vector 160163  Network.dyn_peer[81]  lookupHopsSig:vector  ETV
160163	340161 961 6336 134049 184.3 1495.343625227957 30 1 24 271 3315
vector 160162  Network.dyn_peer[81]  lookupTimeSig:vector  ETV
160162	339160 1001 6336 134049 184.3 1495.343625227957 30 0.2 2.5 30 38.8
vector 160165  Network.dyn_peer[82]  lookupHopsSig:vector  ETV
160165	341508 366 6419 90895 186.4 1134.751923862317 12 2 17 82 722
vector 160164  Network.dyn_peer[82]  lookupTimeSig:vector  ETV
160164	341122 386 6419 90895 186.4 1134.751923862317 12 0.3 1.8 9.3 8.89
vector 160167  Network.dyn_peer[83]  lookupHopsSig:vector  ETV
160167	342769 853 6539 126068 188.6 1427.722250739798 27 1 39 251 4195
vector 160166  Network.dyn_peer[83]  lookupTimeSig:vector  ETV
160166	341874 895 6539 126068 188.6 1427.722250739798 27 0.2 4 27.7 47.11
vector 160169  Network.dyn_peer[84]  lookupHopsSig:vector  ETV
160169	344630 971 6603 166380 190.5 1740.430832264658 30 1 29 320 4610
vector 160168  Network.dyn_peer[84]  lookupTimeSig:vector  ETV
160168	343622 1008 6603 166380 190.5 1740.430832264658 30 0.2 3 34.9 52.69
vector 160171  Network.dyn_peer[85]  lookupHopsSig:vector  ETV
160171	346310 678 6668 203446 193 2015.026649765943 21 3 23 199 2515
vector 160170  Network.dyn_peer[85]  lookupTimeSig:vector  ETV
160170	345601 709 6668 203446 193 2015.026649765943 21 0.4 2.4 21.9 29.13
vector 160173  Network.dyn_peer[86]  lookupHopsSig:vector  ETV
160173	348131 1106 6733 138515 194.4 1525.552808189926 34 1 23 357 4633
vector 160172  Network.dyn_peer[86]  lookupTimeSig:vector  ETV
160172	346988 1143 6733 138515 194.4 1525.552808189926 34 0.2 2.4 39 53.72
vector 160175  Network.dyn_peer[87]  lookupHopsSig:vector  ETV
160175	349776 514 6807 153910 196.6 1646.464922346933 16 1 47 155 3419
vector 160174  Network.dyn_peer[87]  lookupTimeSig:vector  ETV
160174	349237 539 6807 153910 196.6 1646.464922346933 16 0.2 4.8 17 37.32
vector 160177  Network.dyn_peer[88]  lookupHopsSig:vector  ETV
160177	350808 499 6995 90834 199.5 1134.314271587552 16 1 19 133 1547
vector 160176  Network.dyn_peer[88]  lookupTimeSig:vector  ETV
160176	350290 518 6995 90834 199.5 1134.314271587552 16 0.2 2 14.8 17.98
vector 160179  Network.dyn_peer[89]  lookupHopsSig:vector  ETV
160179	351516 196 7038 7279 200.4 204.721084564265 7 2 11 41 299
vector 160178  Network.dyn_peer[89]  lookupTimeSig:vector  ETV
160178	351307 209 7038 7279 200.4 204.721084564265 7 0.3 1.2 4.7 3.79
vector 160181  Network.dyn_peer[90]  lookupHopsSig:vector  ETV
160181	352472 729 7158 111534 202.5 1304.515789614482 23 3 28 253 3739
vector 160180  Network.dyn_peer[90]  lookupTimeSig:vector  ETV
160180	351712 760 7158 111534 202.5 1304.515789614482 23 0.4 2.9 27.5 42.57
vector 160183  Network.dyn_peer[91]  lookupHopsSig:vector  ETV
160183	353984 743 7262 53832 204.4 783.144817807747 24 1 14 149 1213
vector 160182  Network.dyn_peer[91]  lookupTimeSig:vector  ETV
160182	353201 783 7262 53832 204.4 783.144817807747 24 0.2 1.5 17.2 15.26
vector 160185  Network.dyn_peer[92]  lookupHopsSig:vector  ETV
160185	355737 961 7376 169035 206.8 1759.937317513782 30 1 26 277 3791
vector 160184  Network.dyn_peer[92]  lookupTimeSig:vector  ETV
160184	354727 1010 7376 169035 206.8 1759.937317513782 30 0.2 2.7 30.6 43.58
vector 160187  Network.dyn_peer[93]  lookupHopsSig:vector  ETV
160187	358175 1419 7480 180301 208.4 1841.164936388046 43 2 32 450 6156
vector 160186  Network.dyn_peer[93]  lookupTimeSig:vector  ETV
160186	356698 1477 7480 180301 208.4 1841.164936388046 43 0.3 3.3 49.2 70.9
vector 160189  Network.dyn_peer[94]  lookupHopsSig:vector  ETV
160189	360691 1049 7577 169849 210.5 1765.530395416346 33 1 22 280 3416
vector 160188  Network.dyn_peer[94]  lookupTimeSig:vector  ETV
160188	359594 1097 7577 169849 210.5 1765.530395416346 33 0.2 2.3 31.2 39.98
vector 160191  Network.dyn_peer[95]  lookupHopsSig:vector  ETV
160191	363429 1617 7707 184387 212.7 1875.928966430888 49 1 31 411 4939
vector 160190  Network.dyn_peer[95]  lookupTimeSig:vector  ETV
160190	361740 1689 7707 184387 212.7 1875.928966430888 49 0.2 3.2 45.9 57.95
vector 160193  Network.dyn_peer[96]  lookupHopsSig:vector  ETV
160193	365865 784 7834 165919 214.7 1737.615182559793 25 1 25 238 3346
vector 160192  Network.dyn_peer[96]  lookupTimeSig:vector  ETV
160192	365046 819 7834 165919 214.7 1737.615182559793 25 0.2 2.6 26.2 38.32
vector 160195  Network.dyn_peer[97]  lookupHopsSig:vector  ETV
160195	367414 740 7991 166630 217 1742.131541770855 23 2 18 232 2910
vector 160194  Network.dyn_peer[97]  lookupTimeSig:vector  ETV
160194	366649 765 7991 166630 217 1742.131541770855 23 0.3 1.9 25.4 33.76
vector 160197  Network.dyn_peer[98]  lookupHopsSig:vector  ETV
160197	368993 797 8102 145679 218.6 1577.219287630357 25 1 17 169 1589
vector 160196  Network.dyn_peer[98]  lookupTimeSig:vector  ETV
160196	368154 839 8102 145679 218.6 1577.219287630357 25 0.2 1.8 19.3 19.39
vector 160199  Network.dyn_peer[99]  lookupHopsSig:vector  ETV
160199	370610 775 8216 125458 220.4 1423.116117028033 25 1 18 148 1344
vector 160198  Network.dyn_peer[99]  lookupTimeSig:vector  ETV
160198	369790 820 8216 125458 220.4 1423.116117028033 25 0.2 1.9 17.2 16.56
vector 160201  Network.dyn_peer[100]  lookupHopsSig:vector  ETV
160201	373087 1640 8359 196761 222.6 1965.016778372261 50 1 22 448 5616
vector 160200  Network.dyn_peer[100]  lookupTimeSig:vector  ETV
160200	371385 1702 8359 196761 222.6 1965.016778372261 50 0.2 2.3 49.7 65.49
vector 160203  Network.dyn_peer[101]  lookupHopsSig:vector  ETV
160203	375572 814 8459 189193 224.2 1910.532523674678 25 2 42 334 6992
vector 160202  Network.dyn_peer[101]  lookupTimeSig:vector  ETV
160202	374727 845 8459 189193 224.2 1910.532523674678 25 0.2 4.3 35.8 76.8
vector 160205  Network.dyn_peer[102]  lookupHopsSig:vector  ETV
160205	377665 1222 8601 201187 226.2 1999.632102408741 38 2 22 287 3017
vector 160204  Network.dyn_peer[102]  lookupTimeSig:vector  ETV
160204	376386 1279 8601 201187 226.2 1999.632102408741 38 0.2 2.3 32.4 36.24
vector 160207  Network.dyn_peer[103]  lookupHopsSig:vector  ETV
160207	379657 739 8777 130358 228.2 1466.049683824787 23 1 23 215 2739
vector 160206  Network.dyn_peer[103]  lookupTimeSig:vector  ETV
160206	378887 770 8777 130358 228.2 1466.049683824787 23 0.2 2.4 23.7 31.87
vector 160209  Network.dyn_peer[104]  lookupHopsSig:vector  ETV
160209	381291 857 8928 86959 230.3 1102.153910599384 27 2 24 293 3991
vector 160208  Network.dyn_peer[104]  lookupTimeSig:vector  ETV
160208	380396 895 8928 86959 230.3 1102.153910599384 27 0.3 2.5 31.9 45.97
vector 160211  Network.dyn_peer[105]  lookupHopsSig:vector  ETV
160211	383318 1117 9063 132588 232.5 1485.02508304117 34 1 17 266 2618
vector 160210  Network.dyn_peer[105]  lookupTimeSig:vector  ETV
160210	382148 1170 9063 132588 232.5 1485.02508304117 34 0.2 1.8 29.9 31.73
vector 160213  Network.dyn_peer[106]  lookupHopsSig:vector  ETV
160213	385081 617 9145 203420 234.7 2014.842434717028 19 4 24 198 2580
vector 160212  Network.dyn_peer[106]  lookupTimeSig:vector  ETV
160212	384435 646 9145 203420 234.7 2014.842434717028 19 0.5 2.5 21.6 29.8
vector 160215  Network.dyn_peer[107]  lookupHopsSig:vector  ETV
160215	386352 621 9269 84726 236.9 1081.51848272854 20 2 23 181 2135
vector 160214  Network.dyn_peer[107]  lookupTimeSig:vector  ETV
160214	385698 654 9269 84726 236.9 1081.51848272854 20 0.3 2.4 20 24.98
vector 160217  Network.dyn_peer[108]  lookupHopsSig:vector  ETV
160217	387806 797 9397 136455 238.6 1511.841042329632 25 1 26 228 3100
vector 160216  Network.dyn_peer[108]  lookupTimeSig:vector  ETV