version 2
run Stability-185-20130521-22:39:38-23591
attr configname Stability
attr datetime 20130521-22:39:38
attr experiment Stability
attr inifile omnetpp.ini
attr iterationvars $0=0.125
attr iterationvars2 "$0=0.125, $repetition=5"
attr measurement $0=0.125
attr network Network
attr processid 23591
attr repetition 5
attr replication #5
attr resultdir results
attr runnumber 185
attr seedset 185

vector 370001  Network.dyn_peer[0]  lookupHopsSig:vector  ETV
vector 370000  Network.dyn_peer[0]  lookupTimeSig:vector  ETV
vector 370005  Network.dyn_peer[2]  lookupHopsSig:vector  ETV
vector 370004  Network.dyn_peer[2]  lookupTimeSig:vector  ETV
vector 370007  Network.dyn_peer[3]  lookupHopsSig:vector  ETV
vector 370006  Network.dyn_peer[3]  lookupTimeSig:vector  ETV
vector 370003  Network.dyn_peer[1]  lookupHopsSig:vector  ETV
vector 370002  Network.dyn_peer[1]  lookupTimeSig:vector  ETV
vector 370009  Network.dyn_peer[4]  lookupHopsSig:vector  ETV
vector 370008  Network.dyn_peer[4]  lookupTimeSig:vector  ETV
vector 370011  Network.dyn_peer[5]  lookupHopsSig:vector  ETV
vector 370010  Network.dyn_peer[5]  lookupTimeSig:vector  ETV
vector 370013  Network.dyn_peer[6]  lookupHopsSig:vector  ETV
vector 370012  Network.dyn_peer[6]  lookupTimeSig:vector  ETV
vector 370015  Network.dyn_peer[7]  lookupHopsSig:vector  ETV
vector 370014  Network.dyn_peer[7]  lookupTimeSig:vector  ETV
vector 370017  Network.dyn_peer[8]  lookupHopsSig:vector  ETV
vector 370016  Network.dyn_peer[8]  lookupTimeSig:vector  ETV
vector 370021  Network.dyn_peer[10]  lookupHopsSig:vector  ETV
vector 370020  Network.dyn_peer[10]  lookupTimeSig:vector  ETV
vector 370019  Network.dyn_peer[9]  lookupHopsSig:vector  ETV
vector 370018  Network.dyn_peer[9]  lookupTimeSig:vector  ETV
vector 370027  Network.dyn_peer[13]  lookupHopsSig:vector  ETV
vector 370026  Network.dyn_peer[13]  lookupTimeSig:vector  ETV
vector 370025  Network.dyn_peer[12]  lookupHopsSig:vector  ETV
vector 370024  Network.dyn_peer[12]  lookupTimeSig:vector  ETV
vector 370029  Network.dyn_peer[14]  lookupHopsSig:vector  ETV
vector 370028  Network.dyn_peer[14]  lookupTimeSig:vector  ETV
vector 370023  Network.dyn_peer[11]  lookupHopsSig:vector  ETV
vector 370022  Network.dyn_peer[11]  lookupTimeSig:vector  ETV
vector 370035  Network.dyn_peer[17]  lookupHopsSig:vector  ETV
vector 370034  Network.dyn_peer[17]  lookupTimeSig:vector  ETV
vector 370037  Network.dyn_peer[18]  lookupHopsSig:vector  ETV
vector 370036  Network.dyn_peer[18]  lookupTimeSig:vector  ETV
vector 370031  Network.dyn_peer[15]  lookupHopsSig:vector  ETV
vector 370030  Network.dyn_peer[15]  lookupTimeSig:vector  ETV
vector 370033  Network.dyn_peer[16]  lookupHopsSig:vector  ETV
vector 370032  Network.dyn_peer[16]  lookupTimeSig:vector  ETV
vector 370039  Network.dyn_peer[19]  lookupHopsSig:vector  ETV
vector 370038  Network.dyn_peer[19]  lookupTimeSig:vector  ETV
vector 370041  Network.dyn_peer[20]  lookupHopsSig:vector  ETV
vector 370040  Network.dyn_peer[20]  lookupTimeSig:vector  ETV
vector 370043  Network.dyn_peer[21]  lookupHopsSig:vector  ETV
vector 370042  Network.dyn_peer[21]  lookupTimeSig:vector  ETV
vector 370047  Network.dyn_peer[23]  lookupHopsSig:vector  ETV
vector 370046  Network.dyn_peer[23]  lookupTimeSig:vector  ETV
vector 370049  Network.dyn_peer[24]  lookupHopsSig:vector  ETV
vector 370048  Network.dyn_peer[24]  lookupTimeSig:vector  ETV
vector 370045  Network.dyn_peer[22]  lookupHopsSig:vector  ETV
vector 370044  Network.dyn_peer[22]  lookupTimeSig:vector  ETV
vector 370055  Network.dyn_peer[27]  lookupHopsSig:vector  ETV
vector 370054  Network.dyn_peer[27]  lookupTimeSig:vector  ETV
vector 370053  Network.dyn_peer[26]  lookupHopsSig:vector  ETV
vector 370052  Network.dyn_peer[26]  lookupTimeSig:vector  ETV
vector 370051  Network.dyn_peer[25]  lookupHopsSig:vector  ETV
vector 370050  Network.dyn_peer[25]  lookupTimeSig:vector  ETV
vector 370059  Network.dyn_peer[29]  lookupHopsSig:vector  ETV
vector 370058  Network.dyn_peer[29]  lookupTimeSig:vector  ETV
vector 370057  Network.dyn_peer[28]  lookupHopsSig:vector  ETV
vector 370056  Network.dyn_peer[28]  lookupTimeSig:vector  ETV
vector 370063  Network.dyn_peer[31]  lookupHopsSig:vector  ETV
vector 370062  Network.dyn_peer[31]  lookupTimeSig:vector  ETV
vector 370061  Network.dyn_peer[30]  lookupHopsSig:vector  ETV
vector 370060  Network.dyn_peer[30]  lookupTimeSig:vector  ETV
vector 370065  Network.dyn_peer[32]  lookupHopsSig:vector  ETV
vector 370064  Network.dyn_peer[32]  lookupTimeSig:vector  ETV
vector 370067  Network.dyn_peer[33]  lookupHopsSig:vector  ETV
vector 370066  Network.dyn_peer[33]  lookupTimeSig:vector  ETV
vector 370069  Network.dyn_peer[34]  lookupHopsSig:vector  ETV
vector 370068  Network.dyn_peer[34]  lookupTimeSig:vector  ETV
vector 370071  Network.dyn_peer[35]  lookupHopsSig:vector  ETV
vector 370070  Network.dyn_peer[35]  lookupTimeSig:vector  ETV
vector 370075  Network.dyn_peer[37]  lookupHopsSig:vector  ETV
vector 370074  Network.dyn_peer[37]  lookupTimeSig:vector  ETV
vector 370079  Network.dyn_peer[39]  lookupHopsSig:vector  ETV
vector 370078  Network.dyn_peer[39]  lookupTimeSig:vector  ETV
vector 370073  Network.dyn_peer[36]  lookupHopsSig:vector  ETV
vector 370072  Network.dyn_peer[36]  lookupTimeSig:vector  ETV
vector 370077  Network.dyn_peer[38]  lookupHopsSig:vector  ETV
vector 370076  Network.dyn_peer[38]  lookupTimeSig:vector  ETV
vector 370087  Network.dyn_peer[43]  lookupHopsSig:vector  ETV
vector 370086  Network.dyn_peer[43]  lookupTimeSig:vector  ETV
vector 370081  Network.dyn_peer[40]  lookupHopsSig:vector  ETV
vector 370080  Network.dyn_peer[40]  lookupTimeSig:vector  ETV
vector 370089  Network.dyn_peer[44]  lookupHopsSig:vector  ETV
vector 370088  Network.dyn_peer[44]  lookupTimeSig:vector  ETV
vector 370083  Network.dyn_peer[41]  lookupHopsSig:vector  ETV
vector 370082  Network.dyn_peer[41]  lookupTimeSig:vector  ETV
vector 370085  Network.dyn_peer[42]  lookupHopsSig:vector  ETV
vector 370084  Network.dyn_peer[42]  lookupTimeSig:vector  ETV
vector 370091  Network.dyn_peer[45]  lookupHopsSig:vector  ETV
vector 370090  Network.dyn_peer[45]  lookupTimeSig:vector  ETV
vector 370093  Network.dyn_peer[46]  lookupHopsSig:vector  ETV
vector 370092  Network.dyn_peer[46]  lookupTimeSig:vector  ETV
vector 370101  Network.dyn_peer[50]  lookupHopsSig:vector  ETV
vector 370100  Network.dyn_peer[50]  lookupTimeSig:vector  ETV
vector 370095  Network.dyn_peer[47]  lookupHopsSig:vector  ETV
vector 370094  Network.dyn_peer[47]  lookupTimeSig:vector  ETV
vector 370099  Network.dyn_peer[49]  lookupHopsSig:vector  ETV
vector 370098  Network.dyn_peer[49]  lookupTimeSig:vector  ETV
vector 370097  Network.dyn_peer[48]  lookupHopsSig:vector  ETV
vector 370096  Network.dyn_peer[48]  lookupTimeSig:vector  ETV
vector 370109  Network.dyn_peer[54]  lookupHopsSig:vector  ETV
vector 370108  Network.dyn_peer[54]  lookupTimeSig:vector  ETV
vector 370111  Network.dyn_peer[55]  lookupHopsSig:vector  ETV
vector 370110  Network.dyn_peer[55]  lookupTimeSig:vector  ETV
vector 370107  Network.dyn_peer[53]  lookupHopsSig:vector  ETV
vector 370106  Network.dyn_peer[53]  lookupTimeSig:vector  ETV
vector 370105  Network.dyn_peer[52]  lookupHopsSig:vector  ETV
vector 370104  Network.dyn_peer[52]  lookupTimeSig:vector  ETV
vector 370113  Network.dyn_peer[56]  lookupHopsSig:vector  ETV
vector 370112  Network.dyn_peer[56]  lookupTimeSig:vector  ETV
vector 370115  Network.dyn_peer[57]  lookupHopsSig:vector  ETV
vector 370114  Network.dyn_peer[57]  lookupTimeSig:vector  ETV
vector 370103  Network.dyn_peer[51]  lookupHopsSig:vector  ETV
vector 370102  Network.dyn_peer[51]  lookupTimeSig:vector  ETV
vector 370117  Network.dyn_peer[58]  lookupHopsSig:vector  ETV
vector 370116  Network.dyn_peer[58]  lookupTimeSig:vector  ETV
vector 370121  Network.dyn_peer[60]  lookupHopsSig:vector  ETV
vector 370120  Network.dyn_peer[60]  lookupTimeSig:vector  ETV
vector 370123  Network.dyn_peer[61]  lookupHopsSig:vector  ETV
vector 370122  Network.dyn_peer[61]  lookupTimeSig:vector  ETV
vector 370125  Network.dyn_peer[62]  lookupHopsSig:vector  ETV
vector 370124  Network.dyn_peer[62]  lookupTimeSig:vector  ETV
vector 370127  Network.dyn_peer[63]  lookupHopsSig:vector  ETV
vector 370126  Network.dyn_peer[63]  lookupTimeSig:vector  ETV
vector 370129  Network.dyn_peer[64]  lookupHopsSig:vector  ETV
vector 370128  Network.dyn_peer[64]  lookupTimeSig:vector  ETV
vector 370139  Network.dyn_peer[69]  lookupHopsSig:vector  ETV
vector 370138  Network.dyn_peer[69]  lookupTimeSig:vector  ETV
vector 370135  Network.dyn_peer[67]  lookupHopsSig:vector  ETV
vector 370134  Network.dyn_peer[67]  lookupTimeSig:vector  ETV
vector 370119  Network.dyn_peer[59]  lookupHopsSig:vector  ETV
vector 370118  Network.dyn_peer[59]  lookupTimeSig:vector  ETV
vector 370133  Network.dyn_peer[66]  lookupHopsSig:vector  ETV
vector 370132  Network.dyn_peer[66]  lookupTimeSig:vector  ETV
vector 370137  Network.dyn_peer[68]  lookupHopsSig:vector  ETV
vector 370136  Network.dyn_peer[68]  lookupTimeSig:vector  ETV
vector 370131  Network.dyn_peer[65]  lookupHopsSig:vector  ETV
vector 370130  Network.dyn_peer[65]  lookupTimeSig:vector  ETV
vector 370141  Network.dyn_peer[70]  lookupHopsSig:vector  ETV
vector 370140  Network.dyn_peer[70]  lookupTimeSig:vector  ETV
vector 370145  Network.dyn_peer[72]  lookupHopsSig:vector  ETV
vector 370144  Network.dyn_peer[72]  lookupTimeSig:vector  ETV
vector 370143  Network.dyn_peer[71]  lookupHopsSig:vector  ETV
vector 370142  Network.dyn_peer[71]  lookupTimeSig:vector  ETV
vector 370147  Network.dyn_peer[73]  lookupHopsSig:vector  ETV
vector 370146  Network.dyn_peer[73]  lookupTimeSig:vector  ETV
vector 370149  Network.dyn_peer[74]  lookupHopsSig:vector  ETV
vector 370148  Network.dyn_peer[74]  lookupTimeSig:vector  ETV
vector 370157  Network.dyn_peer[78]  lookupHopsSig:vector  ETV
vector 370156  Network.dyn_peer[78]  lookupTimeSig:vector  ETV
vector 370151  Network.dyn_peer[75]  lookupHopsSig:vector  ETV
vector 370150  Network.dyn_peer[75]  lookupTimeSig:vector  ETV
vector 370155  Network.dyn_peer[77]  lookupHopsSig:vector  ETV
vector 370154  Network.dyn_peer[77]  lookupTimeSig:vector  ETV
vector 370167  Network.dyn_peer[83]  lookupHopsSig:vector  ETV
vector 370166  Network.dyn_peer[83]  lookupTimeSig:vector  ETV
vector 370161  Network.dyn_peer[80]  lookupHopsSig:vector  ETV
vector 370160  Network.dyn_peer[80]  lookupTimeSig:vector  ETV
vector 370163  Network.dyn_peer[81]  lookupHopsSig:vector  ETV
vector 370162  Network.dyn_peer[81]  lookupTimeSig:vector  ETV
vector 370153  Network.dyn_peer[76]  lookupHopsSig:vector  ETV
vector 370152  Network.dyn_peer[76]  lookupTimeSig:vector  ETV
vector 370165  Network.dyn_peer[82]  lookupHopsSig:vector  ETV
vector 370164  Network.dyn_peer[82]  lookupTimeSig:vector  ETV
vector 370171  Network.dyn_peer[85]  lookupHopsSig:vector  ETV
vector 370170  Network.dyn_peer[85]  lookupTimeSig:vector  ETV
vector 370159  Network.dyn_peer[79]  lookupHopsSig:vector  ETV
vector 370158  Network.dyn_peer[79]  lookupTimeSig:vector  ETV
vector 370175  Network.dyn_peer[87]  lookupHopsSig:vector  ETV
vector 370174  Network.dyn_peer[87]  lookupTimeSig:vector  ETV
vector 370177  Network.dyn_peer[88]  lookupHopsSig:vector  ETV
vector 370176  Network.dyn_peer[88]  lookupTimeSig:vector  ETV
vector 370169  Network.dyn_peer[84]  lookupHopsSig:vector  ETV
vector 370168  Network.dyn_peer[84]  lookupTimeSig:vector  ETV
vector 370179  Network.dyn_peer[89]  lookupHopsSig:vector  ETV
vector 370178  Network.dyn_peer[89]  lookupTimeSig:vector  ETV
vector 370173  Network.dyn_peer[86]  lookupHopsSig:vector  ETV
vector 370172  Network.dyn_peer[86]  lookupTimeSig:vector  ETV
vector 370183  Network.dyn_peer[91]  lookupHopsSig:vector  ETV
vector 370182  Network.dyn_peer[91]  lookupTimeSig:vector  ETV
vector 370181  Network.dyn_peer[90]  lookupHopsSig:vector  ETV
vector 370180  Network.dyn_peer[90]  lookupTimeSig:vector  ETV
vector 370185  Network.dyn_peer[92]  lookupHopsSig:vector  ETV
vector 370184  Network.dyn_peer[92]  lookupTimeSig:vector  ETV
vector 370189  Network.dyn_peer[94]  lookupHopsSig:vector  ETV
vector 370188  Network.dyn_peer[94]  lookupTimeSig:vector  ETV
vector 370193  Network.dyn_peer[96]  lookupHopsSig:vector  ETV
vector 370192  Network.dyn_peer[96]  lookupTimeSig:vector  ETV
vector 370187  Network.dyn_peer[93]  lookupHopsSig:vector  ETV
vector 370186  Network.dyn_peer[93]  lookupTimeSig:vector  ETV
vector 370195  Network.dyn_peer[97]  lookupHopsSig:vector  ETV
vector 370194  Network.dyn_peer[97]  lookupTimeSig:vector  ETV
vector 370191  Network.dyn_peer[95]  lookupHopsSig:vector  ETV
vector 370190  Network.dyn_peer[95]  lookupTimeSig:vector  ETV
vector 370197  Network.dyn_peer[98]  lookupHopsSig:vector  ETV
vector 370196  Network.dyn_peer[98]  lookupTimeSig:vector  ETV
vector 370199  Network.dyn_peer[99]  lookupHopsSig:vector  ETV
vector 370198  Network.dyn_peer[99]  lookupTimeSig:vector  ETV
vector 370201  Network.dyn_peer[100]  lookupHopsSig:vector  ETV
vector 370200  Network.dyn_peer[100]  lookupTimeSig:vector  ETV
vector 370209  Network.dyn_peer[104]  lookupHopsSig:vector  ETV
vector 370208  Network.dyn_peer[104]  lookupTimeSig:vector  ETV
vector 370207  Network.dyn_peer[103]  lookupHopsSig:vector  ETV
vector 370206  Network.dyn_peer[103]  lookupTimeSig:vector  ETV
vector 370203  Network.dyn_peer[101]  lookupHopsSig:vector  ETV
vector 370202  Network.dyn_peer[101]  lookupTimeSig:vector  ETV
vector 370215  Network.dyn_peer[107]  lookupHopsSig:vector  ETV
vector 370214  Network.dyn_peer[107]  lookupTimeSig:vector  ETV
vector 370217  Network.dyn_peer[108]  lookupHopsSig:vector  ETV
vector 370216  Network.dyn_peer[108]  lookupTimeSig:vector  ETV
vector 370213  Network.dyn_peer[106]  lookupHopsSig:vector  ETV
vector 370212  Network.dyn_peer[106]  lookupTimeSig:vector  ETV
vector 370219  Network.dyn_peer[109]  lookupHopsSig:vector  ETV
vector 370218  Network.dyn_peer[109]  lookupTimeSig:vector  ETV
vector 370225  Network.dyn_peer[112]  lookupHopsSig:vector  ETV
vector 370224  Network.dyn_peer[112]  lookupTimeSig:vector  ETV
vector 370205  Network.dyn_peer[102]  lookupHopsSig:vector  ETV
vector 370204  Network.dyn_peer[102]  lookupTimeSig:vector  ETV
vector 370223  Network.dyn_peer[111]  lookupHopsSig:vector  ETV
vector 370222  Network.dyn_peer[111]  lookupTimeSig:vector  ETV
vector 370231  Network.dyn_peer[115]  lookupHopsSig:vector  ETV
vector 370230  Network.dyn_peer[115]  lookupTimeSig:vector  ETV
vector 370211  Network.dyn_peer[105]  lookupHopsSig:vector  ETV
vector 370210  Network.dyn_peer[105]  lookupTimeSig:vector  ETV
vector 370233  Network.dyn_peer[116]  lookupHopsSig:vector  ETV
vector 370232  Network.dyn_peer[116]  lookupTimeSig:vector  ETV
vector 370221  Network.dyn_peer[110]  lookupHopsSig:vector  ETV
vector 370220  Network.dyn_peer[110]  lookupTimeSig:vector  ETV
vector 370229  Network.dyn_peer[114]  lookupHopsSig:vector  ETV
vector 370228  Network.dyn_peer[114]  lookupTimeSig:vector  ETV
vector 370235  Network.dyn_peer[117]  lookupHopsSig:vector  ETV
vector 370234  Network.dyn_peer[117]  lookupTimeSig:vector  ETV
vector 370237  Network.dyn_peer[118]  lookupHopsSig:vector  ETV
vector 370236  Network.dyn_peer[118]  lookupTimeSig:vector  ETV
vector 370245  Network.dyn_peer[122]  lookupHopsSig:vector  ETV
vector 370244  Network.dyn_peer[122]  lookupTimeSig:vector  ETV
vector 370227  Network.dyn_peer[113]  lookupHopsSig:vector  ETV
vector 370226  Network.dyn_peer[113]  lookupTimeSig:vector  ETV
vector 370249  Network.dyn_peer[124]  lookupHopsSig:vector  ETV
vector 370248  Network.dyn_peer[124]  lookupTimeSig:vector  ETV
vector 370251  Network.dyn_peer[125]  lookupHopsSig:vector  ETV
vector 370250  Network.dyn_peer[125]  lookupTimeSig:vector  ETV
vector 370243  Network.dyn_peer[121]  lookupHopsSig:vector  ETV
vector 370242  Network.dyn_peer[121]  lookupTimeSig:vector  ETV
vector 370247  Network.dyn_peer[123]  lookupHopsSig:vector  ETV
vector 370246  Network.dyn_peer[123]  lookupTimeSig:vector  ETV
vector 370241  Network.dyn_peer[120]  lookupHopsSig:vector  ETV
vector 370240  Network.dyn_peer[120]  lookupTimeSig:vector  ETV
vector 370239  Network.dyn_peer[119]  lookupHopsSig:vector  ETV
vector 370238  Network.dyn_peer[119]  lookupTimeSig:vector  ETV
vector 370257  Network.dyn_peer[128]  lookupHopsSig:vector  ETV
vector 370256  Network.dyn_peer[128]  lookupTimeSig:vector  ETV
vector 370255  Network.dyn_peer[127]  lookupHopsSig:vector  ETV
vector 370254  Network.dyn_peer[127]  lookupTimeSig:vector  ETV
vector 370253  Network.dyn_peer[126]  lookupHopsSig:vector  ETV
vector 370252  Network.dyn_peer[126]  lookupTimeSig:vector  ETV
vector 370265  Network.dyn_peer[132]  lookupHopsSig:vector  ETV
vector 370264  Network.dyn_peer[132]  lookupTimeSig:vector  ETV
vector 370263  Network.dyn_peer[131]  lookupHopsSig:vector  ETV
vector 370262  Network.dyn_peer[131]  lookupTimeSig:vector  ETV
vector 370259  Network.dyn_peer[129]  lookupHopsSig:vector  ETV
vector 370258  Network.dyn_peer[129]  lookupTimeSig:vector  ETV
vector 370271  Network.dyn_peer[135]  lookupHopsSig:vector  ETV
vector 370270  Network.dyn_peer[135]  lookupTimeSig:vector  ETV
vector 370273  Network.dyn_peer[136]  lookupHopsSig:vector  ETV
vector 370272  Network.dyn_peer[136]  lookupTimeSig:vector  ETV
vector 370261  Network.dyn_peer[130]  lookupHopsSig:vector  ETV
vector 370260  Network.dyn_peer[130]  lookupTimeSig:vector  ETV
vector 370269  Network.dyn_peer[134]  lookupHopsSig:vector  ETV
vector 370268  Network.dyn_peer[134]  lookupTimeSig:vector  ETV
vector 370279  Network.dyn_peer[139]  lookupHopsSig:vector  ETV
vector 370278  Network.dyn_peer[139]  lookupTimeSig:vector  ETV
vector 370285  Network.dyn_peer[142]  lookupHopsSig:vector  ETV
vector 370284  Network.dyn_peer[142]  lookupTimeSig:vector  ETV
vector 370267  Network.dyn_peer[133]  lookupHopsSig:vector  ETV
vector 370266  Network.dyn_peer[133]  lookupTimeSig:vector  ETV
vector 370275  Network.dyn_peer[137]  lookupHopsSig:vector  ETV
vector 370274  Network.dyn_peer[137]  lookupTimeSig:vector  ETV
vector 370281  Network.dyn_peer[140]  lookupHopsSig:vector  ETV
vector 370280  Network.dyn_peer[140]  lookupTimeSig:vector  ETV
vector 370277  Network.dyn_peer[138]  lookupHopsSig:vector  ETV
vector 370276  Network.dyn_peer[138]  lookupTimeSig:vector  ETV
vector 370283  Network.dyn_peer[141]  lookupHopsSig:vector  ETV
vector 370282  Network.dyn_peer[141]  lookupTimeSig:vector  ETV
vector 370287  Network.dyn_peer[143]  lookupHopsSig:vector  ETV
vector 370286  Network.dyn_peer[143]  lookupTimeSig:vector  ETV
vector 370297  Network.dyn_peer[148]  lookupHopsSig:vector  ETV
vector 370296  Network.dyn_peer[148]  lookupTimeSig:vector  ETV
vector 370293  Network.dyn_peer[146]  lookupHopsSig:vector  ETV
vector 370292  Network.dyn_peer[146]  lookupTimeSig:vector  ETV
vector 370289  Network.dyn_peer[144]  lookupHopsSig:vector  ETV
vector 370288  Network.dyn_peer[144]  lookupTimeSig:vector  ETV
vector 370299  Network.dyn_peer[149]  lookupHopsSig:vector  ETV
vector 370298  Network.dyn_peer[149]  lookupTimeSig:vector  ETV
vector 370307  Network.dyn_peer[153]  lookupHopsSig:vector  ETV
vector 370306  Network.dyn_peer[153]  lookupTimeSig:vector  ETV
vector 370301  Network.dyn_peer[150]  lookupHopsSig:vector  ETV
vector 370300  Network.dyn_peer[150]  lookupTimeSig:vector  ETV
vector 370311  Network.dyn_peer[155]  lookupHopsSig:vector  ETV
vector 370310  Network.dyn_peer[155]  lookupTimeSig:vector  ETV
vector 370291  Network.dyn_peer[145]  lookupHopsSig:vector  ETV
vector 370290  Network.dyn_peer[145]  lookupTimeSig:vector  ETV
vector 370309  Network.dyn_peer[154]  lookupHopsSig:vector  ETV
vector 370308  Network.dyn_peer[154]  lookupTimeSig:vector  ETV
vector 370305  Network.dyn_peer[152]  lookupHopsSig:vector  ETV
vector 370304  Network.dyn_peer[152]  lookupTimeSig:vector  ETV
vector 370313  Network.dyn_peer[156]  lookupHopsSig:vector  ETV
vector 370312  Network.dyn_peer[156]  lookupTimeSig:vector  ETV
vector 370315  Network.dyn_peer[157]  lookupHopsSig:vector  ETV
vector 370314  Network.dyn_peer[157]  lookupTimeSig:vector  ETV
vector 370303  Network.dyn_peer[151]  lookupHopsSig:vector  ETV
vector 370302  Network.dyn_peer[151]  lookupTimeSig:vector  ETV
vector 370295  Network.dyn_peer[147]  lookupHopsSig:vector  ETV
vector 370294  Network.dyn_peer[147]  lookupTimeSig:vector  ETV
vector 370321  Network.dyn_peer[160]  lookupHopsSig:vector  ETV
vector 370320  Network.dyn_peer[160]  lookupTimeSig:vector  ETV
vector 370317  Network.dyn_peer[158]  lookupHopsSig:vector  ETV
vector 370316  Network.dyn_peer[158]  lookupTimeSig:vector  ETV
vector 370323  Network.dyn_peer[161]  lookupHopsSig:vector  ETV
vector 370322  Network.dyn_peer[161]  lookupTimeSig:vector  ETV
vector 370327  Network.dyn_peer[163]  lookupHopsSig:vector  ETV
vector 370326  Network.dyn_peer[163]  lookupTimeSig:vector  ETV
vector 370329  Network.dyn_peer[164]  lookupHopsSig:vector  ETV
vector 370328  Network.dyn_peer[164]  lookupTimeSig:vector  ETV
vector 370331  Network.dyn_peer[165]  lookupHopsSig:vector  ETV
vector 370330  Network.dyn_peer[165]  lookupTimeSig:vector  ETV
vector 370319  Network.dyn_peer[159]  lookupHopsSig:vector  ETV
vector 370318  Network.dyn_peer[159]  lookupTimeSig:vector  ETV
vector 370337  Network.dyn_peer[168]  lookupHopsSig:vector  ETV
vector 370336  Network.dyn_peer[168]  lookupTimeSig:vector  ETV
vector 370325  Network.dyn_peer[162]  lookupHopsSig:vector  ETV
vector 370324  Network.dyn_peer[162]  lookupTimeSig:vector  ETV
vector 370333  Network.dyn_peer[166]  lookupHopsSig:vector  ETV
vector 370332  Network.dyn_peer[166]  lookupTimeSig:vector  ETV
vector 370339  Network.dyn_peer[169]  lookupHopsSig:vector  ETV
vector 370338  Network.dyn_peer[169]  lookupTimeSig:vector  ETV
vector 370335  Network.dyn_peer[167]  lookupHopsSig:vector  ETV
vector 370334  Network.dyn_peer[167]  lookupTimeSig:vector  ETV
vector 370345  Network.dyn_peer[172]  lookupHopsSig:vector  ETV
vector 370344  Network.dyn_peer[172]  lookupTimeSig:vector  ETV
vector 370353  Network.dyn_peer[176]  lookupHopsSig:vector  ETV
vector 370352  Network.dyn_peer[176]  lookupTimeSig:vector  ETV
vector 370351  Network.dyn_peer[175]  lookupHopsSig:vector  ETV
vector 370350  Network.dyn_peer[175]  lookupTimeSig:vector  ETV
vector 370349  Network.dyn_peer[174]  lookupHopsSig:vector  ETV
vector 370348  Network.dyn_peer[174]  lookupTimeSig:vector  ETV
vector 370347  Network.dyn_peer[173]  lookupHopsSig:vector  ETV
vector 370346  Network.dyn_peer[173]  lookupTimeSig:vector  ETV
vector 370341  Network.dyn_peer[170]  lookupHopsSig:vector  ETV
vector 370340  Network.dyn_peer[170]  lookupTimeSig:vector  ETV
vector 370357  Network.dyn_peer[178]  lookupHopsSig:vector  ETV
vector 370356  Network.dyn_peer[178]  lookupTimeSig:vector  ETV
vector 370367  Network.dyn_peer[183]  lookupHopsSig:vector  ETV
vector 370366  Network.dyn_peer[183]  lookupTimeSig:vector  ETV
vector 370343  Network.dyn_peer[171]  lookupHopsSig:vector  ETV
vector 370342  Network.dyn_peer[171]  lookupTimeSig:vector  ETV
vector 370371  Network.dyn_peer[185]  lookupHopsSig:vector  ETV
vector 370370  Network.dyn_peer[185]  lookupTimeSig:vector  ETV
vector 370365  Network.dyn_peer[182]  lookupHopsSig:vector  ETV
vector 370364  Network.dyn_peer[182]  lookupTimeSig:vector  ETV
vector 370359  Network.dyn_peer[179]  lookupHopsSig:vector  ETV
vector 370358  Network.dyn_peer[179]  lookupTimeSig:vector  ETV
vector 370355  Network.dyn_peer[177]  lookupHopsSig:vector  ETV
vector 370354  Network.dyn_peer[177]  lookupTimeSig:vector  ETV
vector 370373  Network.dyn_peer[186]  lookupHopsSig:vector  ETV
vector 370372  Network.dyn_peer[186]  lookupTimeSig:vector  ETV
vector 370375  Network.dyn_peer[187]  lookupHopsSig:vector  ETV
vector 370374  Network.dyn_peer[187]  lookupTimeSig:vector  ETV
vector 370361  Network.dyn_peer[180]  lookupHopsSig:vector  ETV
vector 370360  Network.dyn_peer[180]  lookupTimeSig:vector  ETV
vector 370369  Network.dyn_peer[184]  lookupHopsSig:vector  ETV
vector 370368  Network.dyn_peer[184]  lookupTimeSig:vector  ETV
vector 370363  Network.dyn_peer[181]  lookupHopsSig:vector  ETV
vector 370362  Network.dyn_peer[181]  lookupTimeSig:vector  ETV
vector 370377  Network.dyn_peer[188]  lookupHopsSig:vector  ETV
vector 370376  Network.dyn_peer[188]  lookupTimeSig:vector  ETV
vector 370379  Network.dyn_peer[189]  lookupHopsSig:vector  ETV
vector 370378  Network.dyn_peer[189]  lookupTimeSig:vector  ETV
vector 370385  Network.dyn_peer[192]  lookupHopsSig:vector  ETV
vector 370384  Network.dyn_peer[192]  lookupTimeSig:vector  ETV
vector 370389  Network.dyn_peer[194]  lookupHopsSig:vector  ETV
vector 370388  Network.dyn_peer[194]  lookupTimeSig:vector  ETV
vector 370395  Network.dyn_peer[197]  lookupHopsSig:vector  ETV
vector 370394  Network.dyn_peer[197]  lookupTimeSig:vector  ETV
vector 370391  Network.dyn_peer[195]  lookupHopsSig:vector  ETV
vector 370390  Network.dyn_peer[195]  lookupTimeSig:vector  ETV
vector 370383  Network.dyn_peer[191]  lookupHopsSig:vector  ETV
vector 370382  Network.dyn_peer[191]  lookupTimeSig:vector  ETV
vector 370381  Network.dyn_peer[190]  lookupHopsSig:vector  ETV
vector 370380  Network.dyn_peer[190]  lookupTimeSig:vector  ETV
vector 370399  Network.dyn_peer[199]  lookupHopsSig:vector  ETV
vector 370398  Network.dyn_peer[199]  lookupTimeSig:vector  ETV
vector 370397  Network.dyn_peer[198]  lookupHopsSig:vector  ETV
vector 370396  Network.dyn_peer[198]  lookupTimeSig:vector  ETV
vector 370403  Network.dyn_peer[201]  lookupHopsSig:vector  ETV
vector 370402  Network.dyn_peer[201]  lookupTimeSig:vector  ETV
vector 370393  Network.dyn_peer[196]  lookupHopsSig:vector  ETV
vector 370392  Network.dyn_peer[196]  lookupTimeSig:vector  ETV
vector 370401  Network.dyn_peer[200]  lookupHopsSig:vector  ETV
vector 370400  Network.dyn_peer[200]  lookupTimeSig:vector  ETV
vector 370387  Network.dyn_peer[193]  lookupHopsSig:vector  ETV
vector 370386  Network.dyn_peer[193]  lookupTimeSig:vector  ETV
vector 370413  Network.dyn_peer[206]  lookupHopsSig:vector  ETV
vector 370412  Network.dyn_peer[206]  lookupTimeSig:vector  ETV
vector 370415  Network.dyn_peer[207]  lookupHopsSig:vector  ETV
vector 370414  Network.dyn_peer[207]  lookupTimeSig:vector  ETV
vector 370411  Network.dyn_peer[205]  lookupHopsSig:vector  ETV
vector 370410  Network.dyn_peer[205]  lookupTimeSig:vector  ETV
vector 370419  Network.dyn_peer[209]  lookupHopsSig:vector  ETV
vector 370418  Network.dyn_peer[209]  lookupTimeSig:vector  ETV
vector 370417  Network.dyn_peer[208]  lookupHopsSig:vector  ETV
vector 370416  Network.dyn_peer[208]  lookupTimeSig:vector  ETV
vector 370405  Network.dyn_peer[202]  lookupHopsSig:vector  ETV
vector 370404  Network.dyn_peer[202]  lookupTimeSig:vector  ETV
vector 370409  Network.dyn_peer[204]  lookupHopsSig:vector  ETV
vector 370408  Network.dyn_peer[204]  lookupTimeSig:vector  ETV
vector 370407  Network.dyn_peer[203]  lookupHopsSig:vector  ETV
vector 370406  Network.dyn_peer[203]  lookupTimeSig:vector  ETV
vector 370429  Network.dyn_peer[214]  lookupHopsSig:vector  ETV
vector 370428  Network.dyn_peer[214]  lookupTimeSig:vector  ETV
vector 370421  Network.dyn_peer[210]  lookupHopsSig:vector  ETV
vector 370420  Network.dyn_peer[210]  lookupTimeSig:vector  ETV
vector 370431  Network.dyn_peer[215]  lookupHopsSig:vector  ETV
vector 370430  Network.dyn_peer[215]  lookupTimeSig:vector  ETV
vector 370435  Network.dyn_peer[217]  lookupHopsSig:vector  ETV
vector 370434  Network.dyn_peer[217]  lookupTimeSig:vector  ETV
vector 370427  Network.dyn_peer[213]  lookupHopsSig:vector  ETV
vector 370426  Network.dyn_peer[213]  lookupTimeSig:vector  ETV
vector 370425  Network.dyn_peer[212]  lookupHopsSig:vector  ETV
vector 370424  Network.dyn_peer[212]  lookupTimeSig:vector  ETV
vector 370423  Network.dyn_peer[211]  lookupHopsSig:vector  ETV
vector 370422  Network.dyn_peer[211]  lookupTimeSig:vector  ETV
vector 370439  Network.dyn_peer[219]  lookupHopsSig:vector  ETV
vector 370438  Network.dyn_peer[219]  lookupTimeSig:vector  ETV
vector 370443  Network.dyn_peer[221]  lookupHopsSig:vector  ETV
vector 370442  Network.dyn_peer[221]  lookupTimeSig:vector  ETV
vector 370433  Network.dyn_peer[216]  lookupHopsSig:vector  ETV
vector 370432  Network.dyn_peer[216]  lookupTimeSig:vector  ETV
vector 370437  Network.dyn_peer[218]  lookupHopsSig:vector  ETV
vector 370436  Network.dyn_peer[218]  lookupTimeSig:vector  ETV
vector 370441  Network.dyn_peer[220]  lookupHopsSig:vector  ETV
vector 370440  Network.dyn_peer[220]  lookupTimeSig:vector  ETV
vector 370445  Network.dyn_peer[222]  lookupHopsSig:vector  ETV
vector 370444  Network.dyn_peer[222]  lookupTimeSig:vector  ETV
vector 370453  Network.dyn_peer[226]  lookupHopsSig:vector  ETV
vector 370452  Network.dyn_peer[226]  lookupTimeSig:vector  ETV
vector 370451  Network.dyn_peer[225]  lookupHopsSig:vector  ETV
vector 370450  Network.dyn_peer[225]  lookupTimeSig:vector  ETV
vector 370447  Network.dyn_peer[223]  lookupHopsSig:vector  ETV
vector 370446  Network.dyn_peer[223]  lookupTimeSig:vector  ETV
vector 370449  Network.dyn_peer[224]  lookupHopsSig:vector  ETV
vector 370448  Network.dyn_peer[224]  lookupTimeSig:vector  ETV
vector 370465  Network.dyn_peer[232]  lookupHopsSig:vector  ETV
vector 370464  Network.dyn_peer[232]  lookupTimeSig:vector  ETV
vector 370455  Network.dyn_peer[227]  lookupHopsSig:vector  ETV
vector 370454  Network.dyn_peer[227]  lookupTimeSig:vector  ETV
vector 370463  Network.dyn_peer[231]  lookupHopsSig:vector  ETV
vector 370462  Network.dyn_peer[231]  lookupTimeSig:vector  ETV
vector 370467  Network.dyn_peer[233]  lookupHopsSig:vector  ETV
vector 370466  Network.dyn_peer[233]  lookupTimeSig:vector  ETV
vector 370461  Network.dyn_peer[230]  lookupHopsSig:vector  ETV
vector 370460  Network.dyn_peer[230]  lookupTimeSig:vector  ETV
vector 370457  Network.dyn_peer[228]  lookupHopsSig:vector  ETV