file 810560 1369674139                                          
version 2
run Stability-185-20130521-22:39:38-23591
attr configname Stability
attr datetime 20130521-22:39:38
attr experiment Stability
attr inifile omnetpp.ini
attr iterationvars $0=0.125
attr iterationvars2 "$0=0.125, $repetition=5"
attr measurement $0=0.125
attr network Network
attr processid 23591
attr repetition 5
attr replication #5
attr resultdir results
attr runnumber 185
attr seedset 185
vector 370001  Network.dyn_peer[0]  lookupHopsSig:vector  ETV
370001	128987 767 103 128032 20.225 129.238040705456 25 1 27 200 2568
vector 370000  Network.dyn_peer[0]  lookupTimeSig:vector  ETV
370000	128181 806 103 128032 20.225 129.238040705456 25 0.1 2.8 22.4 29.9
vector 370005  Network.dyn_peer[2]  lookupHopsSig:vector  ETV
370005	132951 923 120 141774 20.475 137.093865630974 30 1 26 296 4200
vector 370004  Network.dyn_peer[2]  lookupTimeSig:vector  ETV
370004	131989 962 120 141774 20.475 137.093865630974 30 0.1 2.7 32.5 48.19
vector 370007  Network.dyn_peer[3]  lookupHopsSig:vector  ETV
370007	135414 1463 138 158825 20.7 146.57518521249 48 1 33 360 4290
vector 370006  Network.dyn_peer[3]  lookupTimeSig:vector  ETV
370006	133874 1540 138 158825 20.7 146.57518521249 48 0.2 3.4 40.7 50.53
vector 370003  Network.dyn_peer[1]  lookupHopsSig:vector  ETV
370003	130901 1088 147 107247 20.75 117.241075440166 36 1 27 320 4804
vector 370002  Network.dyn_peer[1]  lookupTimeSig:vector  ETV
370002	129754 1147 147 107247 20.75 117.241075440166 36 0.2 2.8 35.5 54.69
vector 370009  Network.dyn_peer[4]  lookupHopsSig:vector  ETV
370009	137846 926 157 138083 20.825 135.00124710327 30 1 31 293 4521
vector 370008  Network.dyn_peer[4]  lookupTimeSig:vector  ETV
370008	136877 969 157 138083 20.825 135.00124710327 30 0.2 3.2 32.2 51.32
vector 370011  Network.dyn_peer[5]  lookupHopsSig:vector  ETV
370011	139763 944 177 151914 20.95 142.823819596022 31 1 25 265 3337
vector 370010  Network.dyn_peer[5]  lookupTimeSig:vector  ETV
370010	138772 991 177 151914 20.95 142.823819596022 31 0.2 2.6 29.5 38.93
vector 370013  Network.dyn_peer[6]  lookupHopsSig:vector  ETV
370013	141968 1204 182 170218 20.975 158.162622592716 39 1 32 344 5142
vector 370012  Network.dyn_peer[6]  lookupTimeSig:vector  ETV
370012	140707 1261 182 170218 20.975 158.162622592716 39 0.1 3.3 38.2 58.66
vector 370015  Network.dyn_peer[7]  lookupHopsSig:vector  ETV
370015	144107 894 213 121304 21.2 125.450507809243 29 1 20 262 3286
vector 370014  Network.dyn_peer[7]  lookupTimeSig:vector  ETV
370014	143172 935 213 121304 21.2 125.450507809243 29 0.2 2.1 29 38.34
vector 370017  Network.dyn_peer[8]  lookupHopsSig:vector  ETV
370017	145779 745 238 161742 21.325 148.316029692831 24 1 26 243 3897
vector 370016  Network.dyn_peer[8]  lookupTimeSig:vector  ETV
370016	145001 778 238 161742 21.325 148.316029692831 24 0.2 2.7 26.6 44.02
vector 370021  Network.dyn_peer[10]  lookupHopsSig:vector  ETV
370021	148944 1062 256 160515 21.375 147.548158702085 34 0 27 312 4178
vector 370020  Network.dyn_peer[10]  lookupTimeSig:vector  ETV
370020	147830 1114 256 160515 21.375 147.548158702085 34 0 2.8 34.5 48.35
vector 370019  Network.dyn_peer[9]  lookupHopsSig:vector  ETV
370019	147192 638 270 124632 21.45 127.376318457947 21 1 26 201 2827
vector 370018  Network.dyn_peer[9]  lookupTimeSig:vector  ETV
370018	146524 668 270 124632 21.45 127.376318457947 21 0.2 2.7 22.1 32.45
vector 370027  Network.dyn_peer[13]  lookupHopsSig:vector  ETV
370027	152803 756 350 86544 21.85 104.317250835514 25 1 22 243 3541
vector 370026  Network.dyn_peer[13]  lookupTimeSig:vector  ETV
370026	152008 795 350 86544 21.85 104.317250835514 25 0.1 2.3 26.7 40.49
vector 370025  Network.dyn_peer[12]  lookupHopsSig:vector  ETV
370025	151679 329 375 102397 21.925 114.177739671323 11 2 20 83 925
vector 370024  Network.dyn_peer[12]  lookupTimeSig:vector  ETV
370024	151333 346 375 102397 21.925 114.177739671323 11 0.3 2.1 9.3 10.95
vector 370029  Network.dyn_peer[14]  lookupHopsSig:vector  ETV
370029	154347 747 439 131443 22.175 131.134512284213 25 1 20 171 1839
vector 370028  Network.dyn_peer[14]  lookupTimeSig:vector  ETV
370028	153559 788 439 131443 22.175 131.134512284213 25 0.2 2.1 19.5 21.99
vector 370023  Network.dyn_peer[11]  lookupHopsSig:vector  ETV
370023	150685 648 449 151091 22.2 142.396294667258 21 1 21 196 2862
vector 370022  Network.dyn_peer[11]  lookupTimeSig:vector  ETV
370022	150006 679 449 151091 22.2 142.396294667258 21 0.2 2.2 21.6 32.6
vector 370035  Network.dyn_peer[17]  lookupHopsSig:vector  ETV
370035	161893 422 507 145547 22.45 139.210036050018 14 2 20 101 1281
vector 370034  Network.dyn_peer[17]  lookupTimeSig:vector  ETV
370034	161449 444 507 145547 22.45 139.210036050018 14 0.2 2.1 11.4 14.92
vector 370037  Network.dyn_peer[18]  lookupHopsSig:vector  ETV
370037	162644 310 516 98388 22.475 111.67683063752 11 1 30 73 1165
vector 370036  Network.dyn_peer[18]  lookupTimeSig:vector  ETV
370036	162315 329 516 98388 22.475 111.67683063752 11 0.1 3.1 8.3 13.19
vector 370031  Network.dyn_peer[15]  lookupHopsSig:vector  ETV
370031	157032 1848 528 170311 22.5 158.541847050083 59 1 29 524 7324
vector 370030  Network.dyn_peer[15]  lookupTimeSig:vector  ETV
370030	155094 1938 528 170311 22.5 158.541847050083 59 0.2 3 58.2 84.2
vector 370033  Network.dyn_peer[16]  lookupHopsSig:vector  ETV
370033	160202 1247 568 119951 22.625 124.634055259526 41 1 25 244 2356
vector 370032  Network.dyn_peer[16]  lookupTimeSig:vector  ETV
370032	158880 1322 568 119951 22.625 124.634055259526 41 0.2 2.6 28.4 28.74
vector 370039  Network.dyn_peer[19]  lookupHopsSig:vector  ETV
370039	163919 920 614 136885 22.8 134.308423168143 30 1 35 321 5695
vector 370038  Network.dyn_peer[19]  lookupTimeSig:vector  ETV
370038	162954 965 614 136885 22.8 134.308423168143 30 0.2 3.6 35 63.6
vector 370041  Network.dyn_peer[20]  lookupHopsSig:vector  ETV
370041	165303 438 626 56428 22.825 83.377153965032 15 2 16 89 743
vector 370040  Network.dyn_peer[20]  lookupTimeSig:vector  ETV
370040	164839 464 626 56428 22.825 83.377153965032 15 0.2 1.7 10.3 9.31
vector 370043  Network.dyn_peer[21]  lookupHopsSig:vector  ETV
370043	166319 555 635 122283 22.85 126.034479978326 18 1 49 221 5341
vector 370042  Network.dyn_peer[21]  lookupTimeSig:vector  ETV
370042	165741 578 635 122283 22.85 126.034479978326 18 0.1 5 23.8 57.98
vector 370047  Network.dyn_peer[23]  lookupHopsSig:vector  ETV
370047	169306 481 766 145119 23.3 138.963477956248 16 1 24 148 2398
vector 370046  Network.dyn_peer[23]  lookupTimeSig:vector  ETV
370046	168802 504 766 145119 23.3 138.963477956248 16 0.2 2.5 16.3 27.03
vector 370049  Network.dyn_peer[24]  lookupHopsSig:vector  ETV
370049	170421 601 781 134539 23.325 132.924988437973 20 1 26 147 1899
vector 370048  Network.dyn_peer[24]  lookupTimeSig:vector  ETV
370048	169787 634 781 134539 23.325 132.924988437973 20 0.2 2.7 16.6 22.08
vector 370045  Network.dyn_peer[22]  lookupHopsSig:vector  ETV
370045	167863 939 856 121723 23.575 125.704944915975 31 1 31 268 4038
vector 370044  Network.dyn_peer[22]  lookupTimeSig:vector  ETV
370044	166874 989 856 121723 23.575 125.704944915975 31 0.2 3.2 29.8 45.9
vector 370055  Network.dyn_peer[27]  lookupHopsSig:vector  ETV
370055	174949 722 864 90868 23.6 107.023064901573 24 1 33 178 2916
vector 370054  Network.dyn_peer[27]  lookupTimeSig:vector  ETV
370054	174190 759 864 90868 23.6 107.023064901573 24 0.1 3.4 20.1 32.93
vector 370053  Network.dyn_peer[26]  lookupHopsSig:vector  ETV
370053	172971 1219 922 94534 23.775 109.367468069418 40 1 37 349 5033
vector 370052  Network.dyn_peer[26]  lookupTimeSig:vector  ETV
370052	171690 1281 922 94534 23.775 109.367468069418 40 0.2 3.8 38.8 57.62
vector 370051  Network.dyn_peer[25]  lookupHopsSig:vector  ETV
370051	171365 325 943 89064 23.85 105.896479174935 11 4 16 93 915
vector 370050  Network.dyn_peer[25]  lookupTimeSig:vector  ETV
370050	171022 343 943 89064 23.85 105.896479174935 11 0.5 1.7 10.3 10.99
vector 370059  Network.dyn_peer[29]  lookupHopsSig:vector  ETV
370059	178219 726 976 164945 23.95 150.62489583434 23 2 27 281 4573
vector 370058  Network.dyn_peer[29]  lookupTimeSig:vector  ETV
370058	177463 756 976 164945 23.95 150.62489583434 23 0.2 2.8 30.3 51.53
vector 370057  Network.dyn_peer[28]  lookupHopsSig:vector  ETV
370057	176591 872 1032 58369 24.125 84.790954073569 29 1 28 224 2762
vector 370056  Network.dyn_peer[28]  lookupTimeSig:vector  ETV
370056	175671 920 1032 58369 24.125 84.790954073569 29 0.2 2.9 25.2 32.28
vector 370063  Network.dyn_peer[31]  lookupHopsSig:vector  ETV
370063	180603 468 1060 162189 24.2 148.607384881253 15 1 29 117 1581
vector 370062  Network.dyn_peer[31]  lookupTimeSig:vector  ETV
370062	180116 487 1060 162189 24.2 148.607384881253 15 0.2 3 13.1 18.25
vector 370061  Network.dyn_peer[30]  lookupHopsSig:vector  ETV
370061	179544 572 1126 96227 24.375 110.384290741733 19 2 23 153 1777
vector 370060  Network.dyn_peer[30]  lookupTimeSig:vector  ETV
370060	178945 599 1126 96227 24.375 110.384290741733 19 0.3 2.4 17.1 20.91
vector 370065  Network.dyn_peer[32]  lookupHopsSig:vector  ETV
370065	181873 769 1186 145466 24.525 139.162572281237 25 2 26 255 3453
vector 370064  Network.dyn_peer[32]  lookupTimeSig:vector  ETV
370064	181071 802 1186 145466 24.525 139.162572281237 25 0.3 2.7 27.9 39.79
vector 370067  Network.dyn_peer[33]  lookupHopsSig:vector  ETV
370067	183346 672 1201 139185 24.55 135.634625118718 22 1 36 217 3847
vector 370066  Network.dyn_peer[33]  lookupTimeSig:vector  ETV
370066	182642 704 1201 139185 24.55 135.634625118718 22 0.2 3.7 23.8 42.96
vector 370069  Network.dyn_peer[34]  lookupHopsSig:vector  ETV
370069	185194 1132 1212 151815 24.575 142.766333969774 36 2 29 400 5920
vector 370068  Network.dyn_peer[34]  lookupTimeSig:vector  ETV
370068	184018 1176 1212 151815 24.575 142.766333969774 36 0.2 3 43.5 67.51
vector 370071  Network.dyn_peer[35]  lookupHopsSig:vector  ETV
370071	187119 752 1300 144266 24.8 138.491216502137 25 1 18 166 1580
vector 370070  Network.dyn_peer[35]  lookupTimeSig:vector  ETV
370070	186326 793 1300 144266 24.8 138.491216502137 25 0.2 1.9 19 19.3
vector 370075  Network.dyn_peer[37]  lookupHopsSig:vector  ETV
370075	189470 530 1438 157670 25.15 145.95608416217 17 1 25 163 2315
vector 370074  Network.dyn_peer[37]  lookupTimeSig:vector  ETV
370074	188914 556 1438 157670 25.15 145.95608416217 17 0.2 2.6 17.9 26.49
vector 370079  Network.dyn_peer[39]  lookupHopsSig:vector  ETV
370079	192323 699 1452 103780 25.2 115.05656742059 23 2 21 162 1634
vector 370078  Network.dyn_peer[39]  lookupTimeSig:vector  ETV
370078	191588 735 1452 103780 25.2 115.05656742059 23 0.2 2.2 18.4 19.76
vector 370073  Network.dyn_peer[36]  lookupHopsSig:vector  ETV
370073	188407 507 1538 83265 25.425 102.316610793415 17 2 25 120 1390
vector 370072  Network.dyn_peer[36]  lookupTimeSig:vector  ETV
370072	187871 536 1538 83265 25.425 102.316610793415 17 0.3 2.6 13.6 16.3
vector 370077  Network.dyn_peer[38]  lookupHopsSig:vector  ETV
370077	190813 775 1562 114574 25.475 121.602379260175 25 1 35 241 4203
vector 370076  Network.dyn_peer[38]  lookupTimeSig:vector  ETV
370076	190000 813 1562 114574 25.475 121.602379260175 25 0.2 3.6 26.5 46.97
vector 370087  Network.dyn_peer[43]  lookupHopsSig:vector  ETV
370087	198425 455 1628 153999 25.7 143.964255798616 15 2 36 189 3899
vector 370086  Network.dyn_peer[43]  lookupTimeSig:vector  ETV
370086	197949 476 1628 153999 25.7 143.964255798616 15 0.2 3.7 20.3 42.87
vector 370081  Network.dyn_peer[40]  lookupHopsSig:vector  ETV
370081	193579 529 1638 69074 25.725 92.07319245186 18 1 14 111 937
vector 370080  Network.dyn_peer[40]  lookupTimeSig:vector  ETV
370080	193022 557 1638 69074 25.725 92.07319245186 18 0.2 1.5 12.8 11.64
vector 370089  Network.dyn_peer[44]  lookupHopsSig:vector  ETV
370089	199878 952 1678 97650 25.825 111.22704104952 31 1 25 281 3569
vector 370088  Network.dyn_peer[44]  lookupTimeSig:vector  ETV
370088	198880 998 1678 97650 25.825 111.22704104952 31 0.2 2.6 31.1 41.57
vector 370083  Network.dyn_peer[41]  lookupHopsSig:vector  ETV
370083	195125 969 1727 73343 25.95 95.179106358464 32 1 20 264 2980
vector 370082  Network.dyn_peer[41]  lookupTimeSig:vector  ETV
370082	194108 1017 1727 73343 25.95 95.179106358464 32 0.2 2.1 29.5 35.25
vector 370085  Network.dyn_peer[42]  lookupHopsSig:vector  ETV
370085	197045 904 1737 60770 25.975 86.580162604851 30 1 30 205 2389
vector 370084  Network.dyn_peer[42]  lookupTimeSig:vector  ETV
370084	196094 951 1737 60770 25.975 86.580162604851 30 0.2 3.1 23.4 28.16
vector 370091  Network.dyn_peer[45]  lookupHopsSig:vector  ETV
370091	201425 566 1838 70523 26.25 93.047088570725 19 1 20 158 1794
vector 370090  Network.dyn_peer[45]  lookupTimeSig:vector  ETV
370090	200830 595 1838 70523 26.25 93.047088570725 19 0.2 2.1 17.6 21.18
vector 370093  Network.dyn_peer[46]  lookupHopsSig:vector  ETV
370093	202433 421 1954 118392 26.575 123.721446045861 14 3 19 130 1570
vector 370092  Network.dyn_peer[46]  lookupTimeSig:vector  ETV
370092	201991 442 1954 118392 26.575 123.721446045861 14 0.4 2 14.3 18.29
vector 370101  Network.dyn_peer[50]  lookupHopsSig:vector  ETV
370101	207454 643 1958 141413 26.575 136.893934370343 21 2 27 202 2788
vector 370100  Network.dyn_peer[50]  lookupTimeSig:vector  ETV
370100	206780 674 1958 141413 26.575 136.893934370343 21 0.2 2.8 22.2 32.08
vector 370095  Network.dyn_peer[47]  lookupHopsSig:vector  ETV
370095	204092 1180 1975 168812 26.6 154.902193525115 38 1 31 367 5507
vector 370094  Network.dyn_peer[47]  lookupTimeSig:vector  ETV
370094	202854 1238 1975 168812 26.6 154.902193525115 38 0.2 3.2 40.4 62.66
vector 370099  Network.dyn_peer[49]  lookupHopsSig:vector  ETV
370099	206360 420 2034 130593 26.75 130.661369168541 14 1 21 120 1474
vector 370098  Network.dyn_peer[49]  lookupTimeSig:vector  ETV
370098	205922 438 2034 130593 26.75 130.661369168541 14 0.2 2.2 13.3 17.17
vector 370097  Network.dyn_peer[48]  lookupHopsSig:vector  ETV
370097	205606 316 2104 51376 26.925 79.77828918537 11 2 18 81 805
vector 370096  Network.dyn_peer[48]  lookupTimeSig:vector  ETV
370096	205272 334 2104 51376 26.925 79.77828918537 11 0.3 1.9 9.1 9.61
vector 370109  Network.dyn_peer[54]  lookupHopsSig:vector  ETV
370109	214877 619 2169 115545 27.075 122.145264628604 20 2 24 216 3086
vector 370108  Network.dyn_peer[54]  lookupTimeSig:vector  ETV
370108	214231 646 2169 115545 27.075 122.145264628604 20 0.2 2.5 23.5 35.33
vector 370111  Network.dyn_peer[55]  lookupHopsSig:vector  ETV
370111	216337 803 2214 167854 27.2 153.537487240879 26 2 31 285 4771
vector 370110  Network.dyn_peer[55]  lookupTimeSig:vector  ETV
370110	215496 841 2214 167854 27.2 153.537487240879 26 0.2 3.2 31 53.62
vector 370107  Network.dyn_peer[53]  lookupHopsSig:vector  ETV
370107	213109 1122 2241 122178 27.25 125.979803438178 36 2 23 331 4489
vector 370106  Network.dyn_peer[53]  lookupTimeSig:vector  ETV
370106	211938 1171 2241 122178 27.25 125.979803438178 36 0.3 2.4 36.6 51.76
vector 370105  Network.dyn_peer[52]  lookupHopsSig:vector  ETV
370105	211282 656 2272 44527 27.325 74.545194500874 22 1 10 120 816
vector 370104  Network.dyn_peer[52]  lookupTimeSig:vector  ETV
370104	210587 695 2272 44527 27.325 74.545194500874 22 0.2 1.1 14.1 10.63
vector 370113  Network.dyn_peer[56]  lookupHopsSig:vector  ETV
370113	218071 887 2276 147524 27.325 140.355682446802 29 1 36 299 5397
vector 370112  Network.dyn_peer[56]  lookupTimeSig:vector  ETV
370112	217140 931 2276 147524 27.325 140.355682446802 29 0.2 3.7 32.7 60.19
vector 370115  Network.dyn_peer[57]  lookupHopsSig:vector  ETV
370115	219305 329 2295 126346 27.35 128.330727193333 11 1 27 120 2232
vector 370114  Network.dyn_peer[57]  lookupTimeSig:vector  ETV
370114	218958 347 2295 126346 27.35 128.330727193333 11 0.1 2.8 13 24.8
vector 370103  Network.dyn_peer[51]  lookupHopsSig:vector  ETV
370103	209373 1214 2319 138110 27.4 135.021159852105 39 2 35 410 6696
vector 370102  Network.dyn_peer[51]  lookupTimeSig:vector  ETV
370102	208097 1276 2319 138110 27.4 135.021159852105 39 0.3 3.6 44.8 75.36
vector 370117  Network.dyn_peer[58]  lookupHopsSig:vector  ETV
370117	220101 446 2500 45090 27.775 75.000061305698 15 2 23 127 1475
vector 370116  Network.dyn_peer[58]  lookupTimeSig:vector  ETV
370116	219634 467 2500 45090 27.775 75.000061305698 15 0.3 2.4 14.1 17.35
vector 370121  Network.dyn_peer[60]  lookupHopsSig:vector  ETV
370121	223252 788 2611 169641 28.025 156.522606524064 25 2 51 303 6011
vector 370120  Network.dyn_peer[60]  lookupTimeSig:vector  ETV
370120	222433 819 2611 169641 28.025 156.522606524064 25 0.3 5.2 32.7 66.33
vector 370123  Network.dyn_peer[61]  lookupHopsSig:vector  ETV
370123	224800 725 2682 88309 28.15 105.407564078706 24 1 34 246 4496
vector 370122  Network.dyn_peer[61]  lookupTimeSig:vector  ETV
370122	224040 760 2682 88309 28.15 105.407564078706 24 0.2 3.5 26.9 50.03
vector 370125  Network.dyn_peer[62]  lookupHopsSig:vector  ETV
370125	226074 525 2695 116140 28.175 122.477348204128 17 2 20 165 2039
vector 370124  Network.dyn_peer[62]  lookupTimeSig:vector  ETV
370124	225525 549 2695 116140 28.175 122.477348204128 17 0.3 2.1 18.1 23.79
vector 370127  Network.dyn_peer[63]  lookupHopsSig:vector  ETV
370127	227411 773 2758 170539 28.3 159.84508679258 25 1 28 262 4302
vector 370126  Network.dyn_peer[63]  lookupTimeSig:vector  ETV
370126	226599 812 2758 170539 28.3 159.84508679258 25 0.2 2.9 28.6 48.44
vector 370129  Network.dyn_peer[64]  lookupHopsSig:vector  ETV
370129	229010 788 2772 65961 28.325 90.050564766591 26 1 17 196 2086
vector 370128  Network.dyn_peer[64]  lookupTimeSig:vector  ETV
370128	228184 826 2772 65961 28.325 90.050564766591 26 0.2 1.8 22.1 24.99
vector 370139  Network.dyn_peer[69]  lookupHopsSig:vector  ETV
370139	233525 765 3015 101934 28.85 113.89903340678 25 1 32 243 3705
vector 370138  Network.dyn_peer[69]  lookupTimeSig:vector  ETV
370138	232722 803 3015 101934 28.85 113.89903340678 25 0.1 3.3 26.7 42.13
vector 370135  Network.dyn_peer[67]  lookupHopsSig:vector  ETV
370135	231751 306 3043 110391 28.9 119.160589159478 10 2 24 83 1029
vector 370134  Network.dyn_peer[67]  lookupTimeSig:vector  ETV
370134	231431 320 3043 110391 28.9 119.160589159478 10 0.3 2.5 9.2 11.96
vector 370119  Network.dyn_peer[59]  lookupHopsSig:vector  ETV
370119	221512 921 3090 136830 29 134.281609860154 30 1 45 318 5842
vector 370118  Network.dyn_peer[59]  lookupTimeSig:vector  ETV
370118	220547 965 3090 136830 29 134.281609860154 30 0.2 4.6 34.7 64.77
vector 370133  Network.dyn_peer[66]  lookupHopsSig:vector  ETV
370133	231133 298 3127 109655 29.075 118.722301196633 10 2 28 106 1946
vector 370132  Network.dyn_peer[66]  lookupTimeSig:vector  ETV
370132	230819 314 3127 109655 29.075 118.722301196633 10 0.3 2.9 11.5 21.53
vector 370137  Network.dyn_peer[68]  lookupHopsSig:vector  ETV
370137	232398 324 3154 104335 29.125 115.416930516894 11 2 18 90 1048
vector 370136  Network.dyn_peer[68]  lookupTimeSig:vector  ETV
370136	232057 341 3154 104335 29.125 115.416930516894 11 0.3 1.9 10 12.28
vector 370131  Network.dyn_peer[65]  lookupHopsSig:vector  ETV
370131	230317 502 3172 131231 29.15 131.023538685141 16 6 29 229 4179
vector 370130  Network.dyn_peer[65]  lookupTimeSig:vector  ETV
370130	229798 519 3172 131231 29.15 131.023538685141 16 0.7 3 24.4 46.34
vector 370141  Network.dyn_peer[70]  lookupHopsSig:vector  ETV
370141	235027 707 3226 84978 29.275 103.364620102254 23 3 21 252 3428
vector 370140  Network.dyn_peer[70]  lookupTimeSig:vector  ETV
370140	234290 737 3226 84978 29.275 103.364620102254 23 0.4 2.2 27.4 39.46
vector 370145  Network.dyn_peer[72]  lookupHopsSig:vector  ETV
370145	237991 832 3299 146053 29.425 139.500239545741 27 2 36 278 4712
vector 370144  Network.dyn_peer[72]  lookupTimeSig:vector  ETV
370144	237117 874 3299 146053 29.425 139.500239545741 27 0.3 3.7 30.4 52.88
vector 370143  Network.dyn_peer[71]  lookupHopsSig:vector  ETV
370143	236442 675 3331 140691 29.5 136.486137023479 22 1 33 215 3457
vector 370142  Network.dyn_peer[71]  lookupTimeSig:vector  ETV
370142	235734 708 3331 140691 29.5 136.486137023479 22 0.2 3.4 23.6 38.98
vector 370147  Network.dyn_peer[73]  lookupHopsSig:vector  ETV
370147	239494 644 3368 102520 29.55 114.25389713075 21 2 36 230 4048
vector 370146  Network.dyn_peer[73]  lookupTimeSig:vector  ETV
370146	238823 671 3368 102520 29.55 114.25389713075 21 0.3 3.7 25 45.22
vector 370149  Network.dyn_peer[74]  lookupHopsSig:vector  ETV
370149	240350 199 3475 99467 29.775 112.349211459491 7 1 16 37 357
vector 370148  Network.dyn_peer[74]  lookupTimeSig:vector  ETV
370148	240138 212 3475 99467 29.775 112.349211459491 7 0.2 1.7 4.3 4.29
vector 370157  Network.dyn_peer[78]  lookupHopsSig:vector  ETV
370157	245123 579 3618 97219 30.075 110.968462805992 19 1 24 183 2397
vector 370156  Network.dyn_peer[78]  lookupTimeSig:vector  ETV
370156	244520 603 3618 97219 30.075 110.968462805992 19 0.2 2.5 20.1 27.77
vector 370151  Network.dyn_peer[75]  lookupHopsSig:vector  ETV
370151	241063 493 3677 143589 30.2 138.109941816518 16 2 38 216 4606
vector 370150  Network.dyn_peer[75]  lookupTimeSig:vector  ETV
370150	240549 514 3677 143589 30.2 138.109941816518 16 0.3 3.9 23.1 50.39
vector 370155  Network.dyn_peer[77]  lookupHopsSig:vector  ETV
370155	244088 432 3752 164899 30.35 150.590743327069 14 2 24 159 2459
vector 370154  Network.dyn_peer[77]  lookupTimeSig:vector  ETV
370154	243641 447 3752 164899 30.35 150.590743327069 14 0.3 2.5 17.2 27.78
vector 370167  Network.dyn_peer[83]  lookupHopsSig:vector  ETV
370167	251302 593 3866 75504 30.6 96.812408134253 20 1 23 181 2293
vector 370166  Network.dyn_peer[83]  lookupTimeSig:vector  ETV
370166	250680 622 3866 75504 30.6 96.812408134253 20 0.1 2.4 20 26.72
vector 370161  Network.dyn_peer[80]  lookupHopsSig:vector  ETV
370161	247809 1111 3881 170358 30.625 158.7278196201 35 2 38 447 8955
vector 370160  Network.dyn_peer[80]  lookupTimeSig:vector  ETV
370160	246651 1158 3881 170358 30.625 158.7278196201 35 0.3 3.9 48.1 98.73
vector 370163  Network.dyn_peer[81]  lookupHopsSig:vector  ETV
370163	249676 729 3934 163015 30.75 149.188606450584 23 4 45 356 8280
vector 370162  Network.dyn_peer[81]  lookupTimeSig:vector  ETV
370162	248920 756 3934 163015 30.75 149.188606450584 23 0.5 4.6 37.8 90.04
vector 370153  Network.dyn_peer[76]  lookupHopsSig:vector  ETV
370153	242621 1020 3972 149507 30.825 141.517302272523 33 2 23 300 3478
vector 370152  Network.dyn_peer[76]  lookupTimeSig:vector  ETV
370152	241556 1065 3972 149507 30.825 141.517302272523 33 0.3 2.4 33.2 40.86
vector 370165  Network.dyn_peer[82]  lookupHopsSig:vector  ETV
370165	250547 133 3997 8054 30.875 38.370136735969 5 4 12 34 274
vector 370164  Network.dyn_peer[82]  lookupTimeSig:vector  ETV
370164	250405 142 3997 8054 30.875 38.370136735969 5 0.5 1.3 3.8 3.36
vector 370171  Network.dyn_peer[85]  lookupHopsSig:vector  ETV
370171	253067 860 4033 158702 30.95 146.507669195224 28 1 30 278 3954
vector 370170  Network.dyn_peer[85]  lookupTimeSig:vector  ETV
370170	252170 897 4033 158702 30.95 146.507669195224 28 0.2 3.1 30.5 45.33
vector 370159  Network.dyn_peer[79]  lookupHopsSig:vector  ETV
370159	246184 467 4058 128435 31 129.459285256056 15 4 24 211 3619
vector 370158  Network.dyn_peer[79]  lookupTimeSig:vector  ETV
370158	245702 482 4058 128435 31 129.459285256056 15 0.5 2.5 22.5 40.35
vector 370175  Network.dyn_peer[87]  lookupHopsSig:vector  ETV
370175	255235 187 4109 5656 31.1 34.322501718013 7 1 6 27 121
vector 370174  Network.dyn_peer[87]  lookupTimeSig:vector  ETV
370174	255034 201 4109 5656 31.1 34.322501718013 7 0.1 0.7 3.3 1.79
vector 370177  Network.dyn_peer[88]  lookupHopsSig:vector  ETV
370177	256088 640 4174 40064 31.225 70.871354988427 21 1 19 193 2307
vector 370176  Network.dyn_peer[88]  lookupTimeSig:vector  ETV
370176	255422 666 4174 40064 31.225 70.871354988427 21 0.1 2 21.3 27.11
vector 370169  Network.dyn_peer[84]  lookupHopsSig:vector  ETV
370169	252037 133 4309 5965 31.525 34.848384974715 5 4 14 38 354
vector 370168  Network.dyn_peer[84]  lookupTimeSig:vector  ETV
370168	251895 142 4309 5965 31.525 34.848384974715 5 0.5 1.5 4.2 4.16
vector 370179  Network.dyn_peer[89]  lookupHopsSig:vector  ETV
370179	257529 761 4325 88921 31.55 105.803541984028 25 1 28 234 3348
vector 370178  Network.dyn_peer[89]  lookupTimeSig:vector  ETV
370178	256728 801 4325 88921 31.55 105.803541984028 25 0.2 2.9 25.8 38.34
vector 370173  Network.dyn_peer[86]  lookupHopsSig:vector  ETV
370173	254494 540 4526 92484 32.075 108.072711152427 18 1 23 150 1850
vector 370172  Network.dyn_peer[86]  lookupTimeSig:vector  ETV
370172	253927 567 4526 92484 32.075 108.072711152427 18 0.2 2.4 16.7 21.43
vector 370183  Network.dyn_peer[91]  lookupHopsSig:vector  ETV
370183	259197 546 4534 116830 32.1 122.840640169715 18 2 24 176 2314
vector 370182  Network.dyn_peer[91]  lookupTimeSig:vector  ETV
370182	258625 572 4534 116830 32.1 122.840640169715 18 0.3 2.5 19.3 26.71
vector 370181  Network.dyn_peer[90]  lookupHopsSig:vector  ETV
370181	258462 163 4571 6847 32.175 36.299884127004 6 1 15 44 436
vector 370180  Network.dyn_peer[90]  lookupTimeSig:vector  ETV
370180	258290 172 4571 6847 32.175 36.299884127004 6 0.2 1.6 4.9 5.13
vector 370185  Network.dyn_peer[92]  lookupHopsSig:vector  ETV
370185	260567 788 4590 163989 32.225 149.874616532133 25 1 24 253 3707
vector 370184  Network.dyn_peer[92]  lookupTimeSig:vector  ETV
370184	259743 824 4590 163989 32.225 149.874616532133 25 0.2 2.5 27.7 42.25
vector 370189  Network.dyn_peer[94]  lookupHopsSig:vector  ETV
370189	262496 717 4615 167787 32.275 153.452839001702 23 1 44 265 6195
vector 370188  Network.dyn_peer[94]  lookupTimeSig:vector  ETV
370188	261747 749 4615 167787 32.275 153.452839001702 23 0.2 4.5 28.7 67.39
vector 370193  Network.dyn_peer[96]  lookupHopsSig:vector  ETV
370193	264806 721 4667 139456 32.425 135.788453752775 23 1 22 202 2708
vector 370192  Network.dyn_peer[96]  lookupTimeSig:vector  ETV
370192	264053 753 4667 139456 32.425 135.788453752775 23 0.2 2.3 22.4 31.28
vector 370187  Network.dyn_peer[93]  lookupHopsSig:vector  ETV
370187	261558 189 4681 6230 32.45 35.284342872153 7 1 7 29 141
vector 370186  Network.dyn_peer[93]  lookupTimeSig:vector  ETV
370186	261355 203 4681 6230 32.45 35.284342872153 7 0.2 0.7 3.5 1.91
vector 370195  Network.dyn_peer[97]  lookupHopsSig:vector  ETV
370195	266316 756 4685 167476 32.45 153.081861943354 24 2 21 223 2761
vector 370194  Network.dyn_peer[97]  lookupTimeSig:vector  ETV
370194	265527 789 4685 167476 32.45 153.081861943354 24 0.2 2.2 24.6 32.26
vector 370191  Network.dyn_peer[95]  lookupHopsSig:vector  ETV
370191	263643 410 4714 22469 32.5 55.020261218722 14 3 12 105 885
vector 370190  Network.dyn_peer[95]  lookupTimeSig:vector  ETV
370190	263213 430 4714 22469 32.5 55.020261218722 14 0.4 1.3 11.8 10.98
vector 370197  Network.dyn_peer[98]  lookupHopsSig:vector  ETV
370197	267182 105 4925 6903 32.975 36.386594461807 4 6 11 37 357
vector 370196  Network.dyn_peer[98]  lookupTimeSig:vector  ETV
370196	267072 110 4925 6903 32.975 36.386594461807 4 0.6 1.2 4 4.22
vector 370199  Network.dyn_peer[99]  lookupHopsSig:vector  ETV
370199	267587 283 5043 50577 33.2 79.19260858162 10 4 27 93 1277
vector 370198  Network.dyn_peer[99]  lookupTimeSig:vector  ETV
370198	267287 300 5043 50577 33.2 79.19260858162 10 0.5 2.8 10.2 14.58
vector 370201  Network.dyn_peer[100]  lookupHopsSig:vector  ETV
370201	268475 577 5104 105040 33.325 115.838290322629 19 1 23 162 1904
vector 370200  Network.dyn_peer[100]  lookupTimeSig:vector  ETV
370200	267870 605 5104 105040 33.325 115.838290322629 19 0.2 2.4 18 22.32
vector 370209  Network.dyn_peer[104]  lookupHopsSig:vector  ETV
370209	272073 510 5163 100139 33.425 112.769827041939 17 1 25 152 2328
vector 370208  Network.dyn_peer[104]  lookupTimeSig:vector  ETV
370208	271537 536 5163 100139 33.425 112.769827041939 17 0.2 2.6 16.8 26.42
vector 370207  Network.dyn_peer[103]  lookupHopsSig:vector  ETV
370207	271344 193 5252 118424 33.6 123.735918107327 7 1 19 46 524
vector 370206  Network.dyn_peer[103]  lookupTimeSig:vector  ETV
370206	271140 204 5252 118424 33.6 123.735918107327 7 0.2 2 5.2 6.1
vector 370203  Network.dyn_peer[101]  lookupHopsSig:vector  ETV
370203	269780 700 5288 165172 33.65 150.815137488207 22 3 31 311 5735
vector 370202  Network.dyn_peer[101]  lookupTimeSig:vector  ETV
370202	269052 728 5288 165172 33.65 150.815137488207 22 0.4 3.2 33.2 63.6
vector 370215  Network.dyn_peer[107]  lookupHopsSig:vector  ETV
370215	274752 193 5416 95229 33.9 109.783626714103 7 1 21 55 683
vector 370214  Network.dyn_peer[107]  lookupTimeSig:vector  ETV
370214	274547 205 5416 95229 33.9 109.783626714103 7 0.2 2.2 6.1 7.91
vector 370217  Network.dyn_peer[108]  lookupHopsSig:vector  ETV
370217	275425 461 5493 121205 34.025 125.396560999232 15 1 21 154 2078
vector 370216  Network.dyn_peer[108]  lookupTimeSig:vector  ETV
370216	274945 480 5493 121205 34.025 125.396560999232 15 0.2 2.2 16.8 23.92
vector 370213  Network.dyn_peer[106]  lookupHopsSig:vector  ETV
370213	274158 389 5569 97040 34.175 110.859182342079 13 1 27 139 2423
vector 370212  Network.dyn_peer[106]  lookupTimeSig:vector  ETV
370212	273748 410 5569 97040 34.175 110.859182342079 13 0.2 2.8 15.1 26.97
vector 370219  Network.dyn_peer[109]  lookupHopsSig:vector  ETV
370219	276648 721 5621 102455 34.25 114.220437586651 24 2 13 147 1085
vector 370218  Network.dyn_peer[109]  lookupTimeSig:vector  ETV
370218	275886 762 5621 102455 34.25 114.220437586651 24 0.3 1.4 17 13.92
vector 370225  Network.dyn_peer[112]  lookupHopsSig:vector  ETV
370225	280329 731 5661 57015 34.325 83.798808815318 24 2 21 246 3336
vector 370224  Network.dyn_peer[112]  lookupTimeSig:vector  ETV
370224	279567 762 5661 57015 34.325 83.798808815318 24 0.2 2.2 26.9 38.47
vector 370205  Network.dyn_peer[102]  lookupHopsSig:vector  ETV
370205	270817 323 5693 78976 34.375 99.290995975266 11 2 16 112 1326
vector 370204  Network.dyn_peer[102]  lookupTimeSig:vector  ETV