file 1042556 1369674147                                         
version 2
run Stability-57-20130521-22:26:16-23591
attr configname Stability
attr datetime 20130521-22:26:16
attr experiment Stability
attr inifile omnetpp.ini
attr iterationvars $0=4
attr iterationvars2 "$0=4, $repetition=27"
attr measurement $0=4
attr network Network
attr processid 23591
attr repetition 27
attr replication #27
attr resultdir results
attr runnumber 57
attr seedset 57
vector 114001  Network.dyn_peer[0]  lookupHopsSig:vector  ETV
114001	128993 786 103 149973 24.3 3286.108653302189 25 1 20 183 1931
vector 114000  Network.dyn_peer[0]  lookupTimeSig:vector  ETV
114000	128169 824 103 149973 24.3 3286.108653302189 25 0.2 2.1 20.7 23.15
vector 114003  Network.dyn_peer[1]  lookupHopsSig:vector  ETV
114003	130934 1100 130 194380 28.5 3940.634794788701 35 1 30 273 4075
vector 114002  Network.dyn_peer[1]  lookupTimeSig:vector  ETV
114002	129779 1155 130 194380 28.5 3940.634794788701 35 0.2 3.1 30.7 46.45
vector 114005  Network.dyn_peer[2]  lookupHopsSig:vector  ETV
114005	133613 1504 177 114637 32.5 2699.421018155874 47 1 25 406 5146
vector 114004  Network.dyn_peer[2]  lookupTimeSig:vector  ETV
114004	132034 1579 177 114637 32.5 2699.421018155874 47 0.2 2.6 45.2 59.94
vector 114007  Network.dyn_peer[3]  lookupHopsSig:vector  ETV
114007	136556 1358 235 92218 36.2 2318.917692875906 44 1 21 247 2017
vector 114006  Network.dyn_peer[3]  lookupTimeSig:vector  ETV
114006	135117 1439 235 92218 36.2 2318.917692875906 44 0.2 2.2 29 25.5
vector 114009  Network.dyn_peer[4]  lookupHopsSig:vector  ETV
114009	139448 1464 268 188327 40.4 3853.219673574615 45 1 26 378 4668
vector 114008  Network.dyn_peer[4]  lookupTimeSig:vector  ETV
114008	137914 1534 268 188327 40.4 3853.219673574615 45 0.2 2.7 42.2 54.6
vector 114011  Network.dyn_peer[5]  lookupHopsSig:vector  ETV
114011	141776 828 301 175814 44.2 3678.618082396142 26 1 24 245 3431
vector 114010  Network.dyn_peer[5]  lookupTimeSig:vector  ETV
114010	140912 864 301 175814 44.2 3678.618082396142 26 0.2 2.5 27 39.42
vector 114013  Network.dyn_peer[6]  lookupHopsSig:vector  ETV
114013	143955 1282 331 110701 48.2 2636.420999957942 41 1 17 247 2339
vector 114012  Network.dyn_peer[6]  lookupTimeSig:vector  ETV
114012	142604 1351 331 110701 48.2 2636.420999957942 41 0.2 1.8 28.7 28.69
vector 114015  Network.dyn_peer[7]  lookupHopsSig:vector  ETV
114015	146592 1283 396 137058 52.5 3086.634741582336 41 1 18 254 2164
vector 114014  Network.dyn_peer[7]  lookupTimeSig:vector  ETV
114014	145237 1355 396 137058 52.5 3086.634741582336 41 0.2 1.9 29.4 27.02
vector 114017  Network.dyn_peer[8]  lookupHopsSig:vector  ETV
114017	148952 1034 433 197404 56.4 3982.816337780344 32 1 30 318 5184
vector 114016  Network.dyn_peer[8]  lookupTimeSig:vector  ETV
114016	147875 1077 433 197404 56.4 3982.816337780344 32 0.2 3.1 34.9 58.43
vector 114019  Network.dyn_peer[9]  lookupHopsSig:vector  ETV
114019	150991 954 465 64419 60.3 1773.148214902841 31 1 20 202 2046
vector 114018  Network.dyn_peer[9]  lookupTimeSig:vector  ETV
114018	149986 1005 465 64419 60.3 1773.148214902841 31 0.2 2.1 23.2 24.74
vector 114021  Network.dyn_peer[10]  lookupHopsSig:vector  ETV
114021	153078 1081 517 92849 64.2 2329.132880794606 34 1 27 314 4120
vector 114020  Network.dyn_peer[10]  lookupTimeSig:vector  ETV
114020	151945 1133 517 92849 64.2 2329.132880794606 34 0.2 2.8 34.7 47.77
vector 114023  Network.dyn_peer[11]  lookupHopsSig:vector  ETV
114023	155523 1298 558 199896 68.3 4013.729902946742 41 2 23 324 3680
vector 114022  Network.dyn_peer[11]  lookupTimeSig:vector  ETV
114022	154159 1364 558 199896 68.3 4013.729902946742 41 0.3 2.4 36.4 43.62
vector 114025  Network.dyn_peer[12]  lookupHopsSig:vector  ETV
114025	158881 1954 619 51701 72.1 1519.817938539526 62 1 23 351 3129
vector 114024  Network.dyn_peer[12]  lookupTimeSig:vector  ETV
114024	156821 2060 619 51701 72.1 1519.817938539526 62 0.1 2.4 41.2 38.9
vector 114027  Network.dyn_peer[13]  lookupHopsSig:vector  ETV
114027	161487 620 662 157971 76.4 3410.261188751128 20 1 35 185 3173
vector 114026  Network.dyn_peer[13]  lookupTimeSig:vector  ETV
114026	160835 652 662 157971 76.4 3410.261188751128 20 0.2 3.6 20.4 35.54
vector 114029  Network.dyn_peer[14]  lookupHopsSig:vector  ETV
114029	162671 533 725 79810 80.4 2086.540730447724 18 1 23 111 1219
vector 114028  Network.dyn_peer[14]  lookupTimeSig:vector  ETV
114028	162107 564 725 79810 80.4 2086.540730447724 18 0.2 2.4 12.8 14.5
vector 114031  Network.dyn_peer[15]  lookupHopsSig:vector  ETV
114031	165610 2301 872 195039 84.3 3950.717364756244 71 1 35 762 12886
vector 114030  Network.dyn_peer[15]  lookupTimeSig:vector  ETV
114030	163204 2406 872 195039 84.3 3950.717364756244 71 0.2 3.6 83.2 144.74
vector 114033  Network.dyn_peer[16]  lookupHopsSig:vector  ETV
114033	169267 1301 937 110574 88.3 2634.5396365141 41 1 23 370 4956
vector 114032  Network.dyn_peer[16]  lookupTimeSig:vector  ETV
114032	167911 1356 937 110574 88.3 2634.5396365141 41 0.2 2.4 41 57.3
vector 114035  Network.dyn_peer[17]  lookupHopsSig:vector  ETV
114035	172807 2139 986 174170 92.1 3651.640806340626 66 1 30 594 8650
vector 114034  Network.dyn_peer[17]  lookupTimeSig:vector  ETV
114034	170568 2239 986 174170 92.1 3651.640806340626 66 0.1 3.1 65.9 99.01
vector 114037  Network.dyn_peer[18]  lookupHopsSig:vector  ETV
114037	175935 941 1041 85900 96.3 2205.923468506122 30 1 19 181 1791
vector 114036  Network.dyn_peer[18]  lookupTimeSig:vector  ETV
114036	174946 989 1041 85900 96.3 2205.923468506122 30 0.2 2 21 21.76
vector 114039  Network.dyn_peer[19]  lookupHopsSig:vector  ETV
114039	178523 1571 1081 152090 100.7 3329.305237907931 49 2 26 420 5154
vector 114038  Network.dyn_peer[19]  lookupTimeSig:vector  ETV
114038	176876 1647 1081 152090 100.7 3329.305237907931 49 0.3 2.7 46.8 60.28
vector 114041  Network.dyn_peer[20]  lookupHopsSig:vector  ETV
114041	181812 1626 1111 95165 104.2 2375.330544445009 52 1 14 274 1936
vector 114040  Network.dyn_peer[20]  lookupTimeSig:vector  ETV
114040	180094 1718 1111 95165 104.2 2375.330544445009 52 0.2 1.5 32.5 25.31
vector 114043  Network.dyn_peer[21]  lookupHopsSig:vector  ETV
114043	184595 1099 1145 133074 108.3 3024.228776834282 34 1 23 251 2981
vector 114042  Network.dyn_peer[21]  lookupTimeSig:vector  ETV
114042	183438 1157 1145 133074 108.3 3024.228776834282 34 0.2 2.4 28.4 35.1
vector 114045  Network.dyn_peer[22]  lookupHopsSig:vector  ETV
114045	187015 1262 1202 99672 112.4 2445.924250576927 39 1 25 353 4581
vector 114044  Network.dyn_peer[22]  lookupTimeSig:vector  ETV
114044	185694 1321 1202 99672 112.4 2445.924250576927 39 0.2 2.6 39.1 53.17
vector 114047  Network.dyn_peer[23]  lookupHopsSig:vector  ETV
114047	189833 1485 1248 42639 116.3 1341.232062333092 46 1 15 342 3274
vector 114046  Network.dyn_peer[23]  lookupTimeSig:vector  ETV
114046	188277 1556 1248 42639 116.3 1341.232062333092 46 0.2 1.6 38.7 39.97
vector 114049  Network.dyn_peer[24]  lookupHopsSig:vector  ETV
114049	193872 2450 1295 137630 120.1 3095.625667498763 75 1 26 647 7863
vector 114048  Network.dyn_peer[24]  lookupTimeSig:vector  ETV
114048	191318 2554 1295 137630 120.1 3095.625667498763 75 0.1 2.7 72.1 92.29
vector 114051  Network.dyn_peer[25]  lookupHopsSig:vector  ETV
114051	198044 1642 1374 178431 124.7 3704.958783422692 51 1 29 430 5694
vector 114050  Network.dyn_peer[25]  lookupTimeSig:vector  ETV
114050	196322 1722 1374 178431 124.7 3704.958783422692 51 0.2 3 48 65.9
vector 114053  Network.dyn_peer[26]  lookupHopsSig:vector  ETV
114053	201280 1513 1489 170306 128.4 3601.036777220126 47 1 24 346 4230
vector 114052  Network.dyn_peer[26]  lookupTimeSig:vector  ETV
114052	199686 1594 1489 170306 128.4 3601.036777220126 47 0.2 2.5 39.2 49.6
vector 114055  Network.dyn_peer[27]  lookupHopsSig:vector  ETV
114055	204209 1353 1627 200517 132.5 4024.327311850095 42 1 19 327 3571
vector 114054  Network.dyn_peer[27]  lookupTimeSig:vector  ETV
114054	202793 1416 1627 200517 132.5 4024.327311850095 42 0.2 2 36.8 42.56
vector 114057  Network.dyn_peer[28]  lookupHopsSig:vector  ETV
114057	206967 1345 1668 170849 136.4 3608.447861264981 41 1 38 436 7448
vector 114056  Network.dyn_peer[28]  lookupTimeSig:vector  ETV
114056	205562 1405 1668 170849 136.4 3608.447861264981 41 0.2 3.9 47.6 83.52
vector 114059  Network.dyn_peer[29]  lookupHopsSig:vector  ETV
114059	209565 1196 1755 118296 140.5 2755.830808103243 37 1 28 310 3888
vector 114058  Network.dyn_peer[29]  lookupTimeSig:vector  ETV
114058	208312 1253 1755 118296 140.5 2755.830808103243 37 0.2 2.9 34.6 45.34
vector 114061  Network.dyn_peer[30]  lookupHopsSig:vector  ETV
114061	211676 870 1811 113555 144.4 2684.432806224363 27 1 33 228 3398
vector 114060  Network.dyn_peer[30]  lookupTimeSig:vector  ETV
114060	210761 915 1811 113555 144.4 2684.432806224363 27 0.2 3.4 25.4 38.72
vector 114063  Network.dyn_peer[31]  lookupHopsSig:vector  ETV
114063	213565 976 1851 173762 148.5 3646.925657030249 30 1 27 274 4094
vector 114062  Network.dyn_peer[31]  lookupTimeSig:vector  ETV
114062	212546 1019 1851 173762 148.5 3646.925657030249 30 0.2 2.8 30.3 46.61
vector 114065  Network.dyn_peer[32]  lookupHopsSig:vector  ETV
114065	215828 1234 1902 184783 153.1 3803.831365189019 38 1 35 404 6376
vector 114064  Network.dyn_peer[32]  lookupTimeSig:vector  ETV
114064	214541 1287 1902 184783 153.1 3803.831365189019 38 0.2 3.6 44.1 71.99
vector 114067  Network.dyn_peer[33]  lookupHopsSig:vector  ETV
114067	218554 1423 1951 163687 156.6 3491.120984770495 45 2 26 331 3887
vector 114066  Network.dyn_peer[33]  lookupTimeSig:vector  ETV
114066	217062 1492 1951 163687 156.6 3491.120984770495 45 0.3 2.7 37.5 45.81
vector 114069  Network.dyn_peer[34]  lookupHopsSig:vector  ETV
114069	222095 2021 2010 141684 160.2 3150.941451412108 62 1 20 467 4867
vector 114068  Network.dyn_peer[34]  lookupTimeSig:vector  ETV
114068	219977 2118 2010 141684 160.2 3150.941451412108 62 0.2 2.1 52.8 58.58
vector 114071  Network.dyn_peer[35]  lookupHopsSig:vector  ETV
114071	224576 436 2073 135447 164.3 3061.343130687675 14 2 26 114 1606
vector 114070  Network.dyn_peer[35]  lookupTimeSig:vector  ETV
114070	224116 460 2073 135447 164.3 3061.343130687675 14 0.3 2.7 12.7 18.41
vector 114073  Network.dyn_peer[36]  lookupHopsSig:vector  ETV
114073	226507 1424 2216 192472 168.2 3916.118710406812 45 1 24 344 3934
vector 114072  Network.dyn_peer[36]  lookupTimeSig:vector  ETV
114072	225012 1495 2216 192472 168.2 3916.118710406812 45 0.2 2.5 38.8 46.62
vector 114075  Network.dyn_peer[37]  lookupHopsSig:vector  ETV
114075	229251 1269 2282 139916 172.2 3125.928946151061 39 1 20 378 4994
vector 114074  Network.dyn_peer[37]  lookupTimeSig:vector  ETV
114074	227931 1320 2282 139916 172.2 3125.928946151061 39 0.2 2.1 41.6 57.84
vector 114077  Network.dyn_peer[38]  lookupHopsSig:vector  ETV
114077	231740 1162 2357 152547 176.5 3336.543368600752 36 1 24 293 3611
vector 114076  Network.dyn_peer[38]  lookupTimeSig:vector  ETV
114076	230520 1220 2357 152547 176.5 3336.543368600752 36 0.2 2.5 32.8 42.22
vector 114079  Network.dyn_peer[39]  lookupHopsSig:vector  ETV
114079	234977 1980 2418 123836 180.2 2861.577427557571 61 1 33 501 6471
vector 114078  Network.dyn_peer[39]  lookupTimeSig:vector  ETV
114078	232902 2075 2418 123836 180.2 2861.577427557571 61 0.2 3.4 56.1 75.29
vector 114081  Network.dyn_peer[40]  lookupHopsSig:vector  ETV
114081	237721 737 2500 110301 184.3 2630.721413273092 23 1 28 234 3558
vector 114080  Network.dyn_peer[40]  lookupTimeSig:vector  ETV
114080	236957 764 2500 110301 184.3 2630.721413273092 23 0.2 2.9 25.6 40.42
vector 114083  Network.dyn_peer[41]  lookupHopsSig:vector  ETV
114083	239459 959 2560 125380 188.5 2885.422692845683 30 1 23 264 3290
vector 114082  Network.dyn_peer[41]  lookupTimeSig:vector  ETV
114082	238458 1001 2560 125380 188.5 2885.422692845683 30 0.2 2.4 29.3 38.37
vector 114085  Network.dyn_peer[42]  lookupHopsSig:vector  ETV
114085	242149 1647 2723 172638 192.6 3632.527675896837 51 1 27 390 4838
vector 114084  Network.dyn_peer[42]  lookupTimeSig:vector  ETV
114084	240418 1731 2723 172638 192.6 3632.527675896837 51 0.2 2.8 44 56.56
vector 114087  Network.dyn_peer[43]  lookupHopsSig:vector  ETV
114087	244846 1010 2814 122376 196.2 2835.931587172682 31 1 24 285 3703
vector 114086  Network.dyn_peer[43]  lookupTimeSig:vector  ETV
114086	243796 1050 2814 122376 196.2 2835.931587172682 31 0.2 2.5 31.5 42.99
vector 114089  Network.dyn_peer[44]  lookupHopsSig:vector  ETV
114089	247671 1742 2880 105224 200.4 2561.125627576165 53 1 20 487 5833
vector 114088  Network.dyn_peer[44]  lookupTimeSig:vector  ETV
114088	245856 1815 2880 105224 200.4 2561.125627576165 53 0.2 2.1 53.9 68.51
vector 114091  Network.dyn_peer[45]  lookupHopsSig:vector  ETV
114091	251369 1877 2937 199170 204.4 4003.919979323753 57 1 28 515 6733
vector 114090  Network.dyn_peer[45]  lookupTimeSig:vector  ETV
114090	249413 1956 2937 199170 204.4 4003.919979323753 57 0.2 2.9 57.1 78.11
vector 114093  Network.dyn_peer[46]  lookupHopsSig:vector  ETV
114093	254272 984 2998 190849 208.4 3890.657089434864 30 1 33 308 5140
vector 114092  Network.dyn_peer[46]  lookupTimeSig:vector  ETV
114092	253246 1026 2998 190849 208.4 3890.657089434864 30 0.2 3.4 33.7 57.77
vector 114095  Network.dyn_peer[47]  lookupHopsSig:vector  ETV
114095	257862 2491 3036 189622 212.1 3876.526447183084 76 1 36 697 9509
vector 114094  Network.dyn_peer[47]  lookupTimeSig:vector  ETV
114094	255256 2606 3036 189622 212.1 3876.526447183084 76 0.1 3.7 77.2 109.76
vector 114097  Network.dyn_peer[48]  lookupHopsSig:vector  ETV
114097	260909 529 3099 96080 216.4 2387.125828379469 17 2 22 128 1492
vector 114096  Network.dyn_peer[48]  lookupTimeSig:vector  ETV
114096	260353 556 3099 96080 216.4 2387.125828379469 17 0.3 2.3 14.4 17.56
vector 114099  Network.dyn_peer[49]  lookupHopsSig:vector  ETV
114099	261925 463 3153 170532 220.9 3603.614020392036 15 1 11 88 730
vector 114098  Network.dyn_peer[49]  lookupTimeSig:vector  ETV
114098	261438 487 3153 170532 220.9 3603.614020392036 15 0.2 1.2 10.2 9.02
vector 114101  Network.dyn_peer[50]  lookupHopsSig:vector  ETV
114101	263080 655 3192 106880 224.3 2586.131148971549 21 2 21 163 1899
vector 114100  Network.dyn_peer[50]  lookupTimeSig:vector  ETV
114100	262388 692 3192 106880 224.3 2586.131148971549 21 0.3 2.2 18.3 22.39
vector 114103  Network.dyn_peer[51]  lookupHopsSig:vector  ETV
114103	265309 1509 3257 199924 228.4 4014.115125978505 47 1 29 430 6510
vector 114102  Network.dyn_peer[51]  lookupTimeSig:vector  ETV
114102	263735 1574 3257 199924 228.4 4014.115125978505 47 0.2 3 47.6 74.08
vector 114105  Network.dyn_peer[52]  lookupHopsSig:vector  ETV
114105	267821 963 3313 162618 232.5 3470.029665697478 30 1 39 308 5282
vector 114104  Network.dyn_peer[52]  lookupTimeSig:vector  ETV
114104	266818 1003 3313 162618 232.5 3470.029665697478 30 0.2 4 33.7 59.17
vector 114107  Network.dyn_peer[53]  lookupHopsSig:vector  ETV
114107	270760 1897 3381 136909 236.5 3084.729862236905 58 1 24 453 4971
vector 114106  Network.dyn_peer[53]  lookupTimeSig:vector  ETV
114106	268784 1976 3381 136909 236.5 3084.729862236905 58 0.2 2.5 51 59.24
vector 114109  Network.dyn_peer[54]  lookupHopsSig:vector  ETV
114109	273480 786 3446 98427 240.3 2423.139446117616 25 1 27 206 2742
vector 114108  Network.dyn_peer[54]  lookupTimeSig:vector  ETV
114108	272657 823 3446 98427 240.3 2423.139446117616 25 0.2 2.8 23 31.72
vector 114111  Network.dyn_peer[55]  lookupHopsSig:vector  ETV
114111	275568 1252 3523 164159 244.6 3500.927079472974 38 3 38 433 6813
vector 114110  Network.dyn_peer[55]  lookupTimeSig:vector  ETV
114110	274266 1302 3523 164159 244.6 3500.927079472974 38 0.4 3.9 47 77.04
vector 114113  Network.dyn_peer[56]  lookupHopsSig:vector  ETV
114113	278393 1490 3581 120501 248.5 2795.132643251072 47 1 20 329 3121
vector 114112  Network.dyn_peer[56]  lookupTimeSig:vector  ETV
114112	276820 1573 3581 120501 248.5 2795.132643251072 47 0.2 2.1 37.5 38.15
vector 114115  Network.dyn_peer[57]  lookupHopsSig:vector  ETV
114115	281341 1396 3653 137864 252.9 3099.050015680539 42 1 25 393 5325
vector 114114  Network.dyn_peer[57]  lookupTimeSig:vector  ETV
114114	279883 1458 3653 137864 252.9 3099.050015680539 42 0.2 2.6 43.4 61.34
vector 114117  Network.dyn_peer[58]  lookupHopsSig:vector  ETV
114117	283182 420 3741 33760 256.1 1137.831985345566 14 1 19 73 651
vector 114116  Network.dyn_peer[58]  lookupTimeSig:vector  ETV
114116	282737 445 3741 33760 256.1 1137.831985345566 14 0.1 2 8.6 8.08
vector 114119  Network.dyn_peer[59]  lookupHopsSig:vector  ETV
114119	285748 2054 3807 152476 260.2 3334.724505906154 62 1 38 545 7479
vector 114118  Network.dyn_peer[59]  lookupTimeSig:vector  ETV
114118	283602 2146 3807 152476 260.2 3334.724505906154 62 0.2 3.9 60.6 86.26
vector 114121  Network.dyn_peer[60]  lookupHopsSig:vector  ETV
114121	288011 195 3879 4026 264.4 268.127392141712 7 3 8 35 207
vector 114120  Network.dyn_peer[60]  lookupTimeSig:vector  ETV
114120	287802 209 3879 4026 264.4 268.127392141712 7 0.4 0.9 4.1 2.75
vector 114123  Network.dyn_peer[61]  lookupHopsSig:vector  ETV
114123	289086 843 4022 118341 268.1 2756.220149572833 26 1 26 253 3647
vector 114122  Network.dyn_peer[61]  lookupTimeSig:vector  ETV
114122	288206 880 4022 118341 268.1 2756.220149572833 26 0.1 2.7 27.8 41.76
vector 114125  Network.dyn_peer[62]  lookupHopsSig:vector  ETV
114125	290902 925 4125 106638 272.2 2582.335358629383 29 1 22 185 1997
vector 114124  Network.dyn_peer[62]  lookupTimeSig:vector  ETV
114124	289929 973 4125 106638 272.2 2582.335358629383 29 0.2 2.3 21.3 23.91
vector 114127  Network.dyn_peer[63]  lookupHopsSig:vector  ETV
114127	292981 1107 4183 197258 276 3981.223742476846 34 0 25 343 5265
vector 114126  Network.dyn_peer[63]  lookupTimeSig:vector  ETV
114126	291827 1154 4183 197258 276 3981.223742476846 34 0 2.6 37.6 59.84
vector 114129  Network.dyn_peer[64]  lookupHopsSig:vector  ETV
114129	295229 1086 4238 75475 280.5 2003.561329688284 34 1 16 245 2325
vector 114128  Network.dyn_peer[64]  lookupTimeSig:vector  ETV
114128	294088 1141 4238 75475 280.5 2003.561329688284 34 0.2 1.7 27.8 28.38
vector 114131  Network.dyn_peer[65]  lookupHopsSig:vector  ETV
114131	297581 1217 4418 198283 285 3993.422232807341 37 2 27 398 6014
vector 114130  Network.dyn_peer[65]  lookupTimeSig:vector  ETV
114130	296315 1266 4418 198283 285 3993.422232807341 37 0.3 2.8 43.4 68.26
vector 114133  Network.dyn_peer[66]  lookupHopsSig:vector  ETV
114133	300239 1376 4485 149654 288.3 3281.437997089945 43 1 26 337 4011
vector 114132  Network.dyn_peer[66]  lookupTimeSig:vector  ETV
114132	298798 1441 4485 149654 288.3 3281.437997089945 43 0.2 2.7 37.9 47.21
vector 114135  Network.dyn_peer[67]  lookupHopsSig:vector  ETV
114135	302003 366 4563 110094 292.4 2627.927016161232 12 1 11 52 342
vector 114134  Network.dyn_peer[67]  lookupTimeSig:vector  ETV
114134	301615 388 4563 110094 292.4 2627.927016161232 12 0.2 1.2 6.3 4.49
vector 114137  Network.dyn_peer[68]  lookupHopsSig:vector  ETV
114137	303769 1335 4609 134579 296.2 3050.022933871994 41 1 24 355 4347
vector 114136  Network.dyn_peer[68]  lookupTimeSig:vector  ETV
114136	302369 1400 4609 134579 296.2 3050.022933871994 41 0.2 2.5 39.5 50.93
vector 114139  Network.dyn_peer[69]  lookupHopsSig:vector  ETV
114139	305894 752 4683 68923 300.8 1876.121792345896 24 2 22 193 2129
vector 114138  Network.dyn_peer[69]  lookupTimeSig:vector  ETV
114138	305104 790 4683 68923 300.8 1876.121792345896 24 0.3 2.3 21.6 25.22
vector 114141  Network.dyn_peer[70]  lookupHopsSig:vector  ETV
114141	307615 922 4739 148113 304.3 3254.017392487225 29 1 25 225 2649
vector 114140  Network.dyn_peer[70]  lookupTimeSig:vector  ETV
114140	306646 969 4739 148113 304.3 3254.017392487225 29 0.2 2.6 25.3 31.21
vector 114143  Network.dyn_peer[71]  lookupHopsSig:vector  ETV
114143	309228 661 4838 155578 308 3382.728348556406 21 0 44 198 3788
vector 114142  Network.dyn_peer[71]  lookupTimeSig:vector  ETV
114142	308537 691 4838 155578 308 3382.728348556406 21 0 4.5 21.8 42.04
vector 114145  Network.dyn_peer[72]  lookupHopsSig:vector  ETV
114145	310098 195 4976 5047 312.8 315.333821536127 7 1 8 27 153
vector 114144  Network.dyn_peer[72]  lookupTimeSig:vector  ETV
114144	309889 209 4976 5047 312.8 315.333821536127 7 0.2 0.8 3.3 1.97
vector 114147  Network.dyn_peer[73]  lookupHopsSig:vector  ETV
114147	311033 710 5067 143794 316.5 3179.622633443688 22 1 28 236 3700
vector 114146  Network.dyn_peer[73]  lookupTimeSig:vector  ETV
114146	310293 740 5067 143794 316.5 3179.622633443688 22 0.2 2.9 25.7 41.83
vector 114149  Network.dyn_peer[74]  lookupHopsSig:vector  ETV
114149	313063 1262 5124 197876 320.5 3988.625200435936 39 2 20 336 3554
vector 114148  Network.dyn_peer[74]  lookupTimeSig:vector  ETV
114148	311743 1320 5124 197876 320.5 3988.625200435936 39 0.3 2.1 37.4 42.54
vector 114151  Network.dyn_peer[75]  lookupHopsSig:vector  ETV
114151	315665 1265 5232 40619 324.5 1297.921698858538 41 1 16 230 1692
vector 114150  Network.dyn_peer[75]  lookupTimeSig:vector  ETV
114150	314325 1340 5232 40619 324.5 1297.921698858538 41 0.2 1.7 27 21.82
vector 114153  Network.dyn_peer[76]  lookupHopsSig:vector  ETV
114153	317571 613 5366 157576 328.4 3405.361923420146 19 3 20 195 2487
vector 114152  Network.dyn_peer[76]  lookupTimeSig:vector  ETV
114152	316930 641 5366 157576 328.4 3405.361923420146 19 0.4 2.1 21.3 28.87
vector 114155  Network.dyn_peer[77]  lookupHopsSig:vector  ETV
114155	318955 737 5544 130002 332.5 2965.531284639778 23 1 25 219 2945
vector 114154  Network.dyn_peer[77]  lookupTimeSig:vector  ETV
114154	318184 771 5544 130002 332.5 2965.531284639778 23 0.2 2.6 24.1 33.95
vector 114157  Network.dyn_peer[78]  lookupHopsSig:vector  ETV
114157	320900 1147 5691 59265 336.6 1668.031654786816 36 1 25 210 2010
vector 114156  Network.dyn_peer[78]  lookupTimeSig:vector  ETV
114156	319692 1208 5691 59265 336.6 1668.031654786816 36 0.2 2.6 24.5 24.53
vector 114159  Network.dyn_peer[79]  lookupHopsSig:vector  ETV
114159	323257 1158 5761 97769 341.5 2412.529049597574 36 1 17 275 2763
vector 114158  Network.dyn_peer[79]  lookupTimeSig:vector  ETV
114158	322047 1210 5761 97769 341.5 2412.529049597574 36 0.2 1.8 31 33.18
vector 114161  Network.dyn_peer[80]  lookupHopsSig:vector  ETV
114161	326063 1564 5801 105857 344.1 2570.7566751417 49 1 16 330 3116
vector 114160  Network.dyn_peer[80]  lookupTimeSig:vector  ETV
114160	324415 1648 5801 105857 344.1 2570.7566751417 49 0.1 1.7 37.8 38.22
vector 114163  Network.dyn_peer[81]  lookupHopsSig:vector  ETV
114163	328283 619 5874 164658 348.8 3511.232651571642 20 2 25 141 1737
vector 114162  Network.dyn_peer[81]  lookupTimeSig:vector  ETV
114162	327627 656 5874 164658 348.8 3511.232651571642 20 0.3 2.6 16 20.22
vector 114165  Network.dyn_peer[82]  lookupHopsSig:vector  ETV
114165	329291 371 6026 200709 352.4 4028.442844896706 12 1 16 96 1026
vector 114164  Network.dyn_peer[82]  lookupTimeSig:vector  ETV
114164	328902 389 6026 200709 352.4 4028.442844896706 12 0.2 1.7 10.7 12.21
vector 114167  Network.dyn_peer[83]  lookupHopsSig:vector  ETV
114167	330646 941 6251 186045 356.3 3823.557121513228 29 1 33 292 4576
vector 114166  Network.dyn_peer[83]  lookupTimeSig:vector  ETV
114166	329662 984 6251 186045 356.3 3823.557121513228 29 0.2 3.4 32 51.82
vector 114169  Network.dyn_peer[84]  lookupHopsSig:vector  ETV
114169	332911 1265 6397 158022 360.6 3411.142416803426 39 2 24 355 4369
vector 114168  Network.dyn_peer[84]  lookupTimeSig:vector  ETV
114168	331587 1324 6397 158022 360.6 3411.142416803426 39 0.3 2.5 39.3 51.05
vector 114171  Network.dyn_peer[85]  lookupHopsSig:vector  ETV
114171	334531 336 6449 147811 364.1 3247.725688632656 11 1 17 59 637
vector 114170  Network.dyn_peer[85]  lookupTimeSig:vector  ETV
114170	334176 355 6449 147811 364.1 3247.725688632656 11 0.1 1.8 6.9 7.63
vector 114173  Network.dyn_peer[86]  lookupHopsSig:vector  ETV
114173	335610 715 6570 114864 368.6 2702.746960902992 22 2 25 250 3742
vector 114172  Network.dyn_peer[86]  lookupTimeSig:vector  ETV
114172	334867 743 6570 114864 368.6 2702.746960902992 22 0.3 2.6 27.1 42.51
vector 114175  Network.dyn_peer[87]  lookupHopsSig:vector  ETV
114175	337282 908 6623 85841 372.2 2204.833759729705 29 1 20 193 2021
vector 114174  Network.dyn_peer[87]  lookupTimeSig:vector  ETV
114174	336325 957 6623 85841 372.2 2204.833759729705 29 0.2 2.1 22.1 24.31
vector 114177  Network.dyn_peer[88]  lookupHopsSig:vector  ETV
114177	338802 586 6691 179218 376.3 3712.518286720074 18 3 30 176 2616
vector 114176  Network.dyn_peer[88]  lookupTimeSig:vector  ETV
114176	338190 612 6691 179218 376.3 3712.518286720074 18 0.3 3.1 19.3 29.79
vector 114179  Network.dyn_peer[89]  lookupHopsSig:vector  ETV
114179	339935 518 6817 35613 380.3 1170.629707936132 17 2 14 112 932
vector 114178  Network.dyn_peer[89]  lookupTimeSig:vector  ETV
114178	339388 547 6817 35613 380.3 1170.629707936132 17 0.3 1.5 12.8 11.66
vector 114181  Network.dyn_peer[90]  lookupHopsSig:vector  ETV
114181	341289 798 6931 169595 384.8 3592.135134992228 25 1 22 213 2613
vector 114180  Network.dyn_peer[90]  lookupTimeSig:vector  ETV
114180	340453 836 6931 169595 384.8 3592.135134992228 25 0.2 2.3 23.7 30.47
vector 114183  Network.dyn_peer[91]  lookupHopsSig:vector  ETV
114183	342597 480 7023 25225 388.4 909.448963445838 16 1 9 84 522
vector 114182  Network.dyn_peer[91]  lookupTimeSig:vector  ETV
114182	342087 510 7023 25225 388.4 909.448963445838 16 0.2 1 9.9 6.97
vector 114185  Network.dyn_peer[92]  lookupHopsSig:vector  ETV
114185	343792 676 7205 149555 392.3 3280.11382356762 22 2 26 150 1916
vector 114184  Network.dyn_peer[92]  lookupTimeSig:vector  ETV
114184	343077 715 7205 149555 392.3 3280.11382356762 22 0.3 2.7 17.1 22.31
vector 114187  Network.dyn_peer[93]  lookupHopsSig:vector  ETV
114187	346213 1665 7334 195972 396.4 3966.53713444446 51 1 31 476 6672
vector 114186  Network.dyn_peer[93]  lookupTimeSig:vector  ETV
114186	344468 1745 7334 195972 396.4 3966.53713444446 51 0.2 3.2 52.6 76.66
vector 114189  Network.dyn_peer[94]  lookupHopsSig:vector  ETV
114189	349275 1327 7450 149274 400.1 3275.626853631653 41 1 23 306 3530
vector 114188  Network.dyn_peer[94]  lookupTimeSig:vector  ETV
114188	347878 1397 7450 149274 400.1 3275.626853631653 41 0.1 2.4 34.6 41.8
vector 114191  Network.dyn_peer[95]  lookupHopsSig:vector  ETV
114191	351472 828 7566 126693 404.7 2907.922800743736 26 1 21 190 1844
vector 114190  Network.dyn_peer[95]  lookupTimeSig:vector  ETV
114190	350602 870 7566 126693 404.7 2907.922800743736 26 0.2 2.2 21.5 22.35
vector 114193  Network.dyn_peer[96]  lookupHopsSig:vector  ETV
114193	352476 164 7683 7794 408.6 411.519011293486 6 1 8 30 184
vector 114192  Network.dyn_peer[96]  lookupTimeSig:vector  ETV
114192	352300 176 7683 7794 408.6 411.519011293486 6 0.2 0.9 3.5 2.37
vector 114195  Network.dyn_peer[97]  lookupHopsSig:vector  ETV
114195	353547 871 7818 181107 412.2 3742.029400674284 27 2 23 258 3420
vector 114194  Network.dyn_peer[97]  lookupTimeSig:vector  ETV
114194	352640 907 7818 181107 412.2 3742.029400674284 27 0.2 2.4 28.4 39.58
vector 114197  Network.dyn_peer[98]  lookupHopsSig:vector  ETV
114197	355155 706 7895 176678 417 3688.253459703543 22 1 15 174 1798
vector 114196  Network.dyn_peer[98]  lookupTimeSig:vector  ETV
114196	354418 737 7895 176678 417 3688.253459703543 22 0.2 1.6 19.5 21.47
vector 114199  Network.dyn_peer[99]  lookupHopsSig:vector  ETV
114199	357561 1638 7993 180834 420.8 3738.734655298512 49 1 27 595 8989
vector 114198  Network.dyn_peer[99]  lookupTimeSig:vector  ETV
114198	355861 1700 7993 180834 420.8 3738.734655298512 49 0.2 2.8 64.3 102.11
vector 114201  Network.dyn_peer[100]  lookupHopsSig:vector  ETV
114201	359585 368 8055 155189 424.7 3376.334520707064 12 2 19 93 981
vector 114200  Network.dyn_peer[100]  lookupTimeSig:vector  ETV
114200	359199 386 8055 155189 424.7 3376.334520707064 12 0.3 2 10.4 11.64
vector 114203  Network.dyn_peer[101]  lookupHopsSig:vector  ETV
114203	360821 823 8202 164113 428.2 3499.46344874472 26 2 27 209 2843
vector 114202  Network.dyn_peer[101]  lookupTimeSig:vector  ETV
114202	359953 868 8202 164113 428.2 3499.46344874472 26 0.2 2.8 23.4 32.82
vector 114205  Network.dyn_peer[102]  lookupHopsSig:vector  ETV
114205	362825 1131 8383 158580 432.5 3421.526966319554 35 1 26 292 3876
vector 114204  Network.dyn_peer[102]  lookupTimeSig:vector  ETV
114204	361644 1181 8383 158580 432.5 3421.526966319554 35 0.2 2.7 32.6 44.84
vector 114207  Network.dyn_peer[103]  lookupHopsSig:vector  ETV
114207	364483 502 8516 141334 436.4 3145.342534466876 16 2 35 141 2413
vector 114206  Network.dyn_peer[103]  lookupTimeSig:vector  ETV
114206	363956 527 8516 141334 436.4 3145.342534466876 16 0.3 3.6 15.6 27.02
vector 114209  Network.dyn_peer[104]  lookupHopsSig:vector  ETV
114209	365679 664 8597 60636 440.5 1704.226404576925 21 2 17 188 2158
vector 114208  Network.dyn_peer[104]  lookupTimeSig:vector  ETV
114208	364985 694 8597 60636 440.5 1704.226404576925 21 0.3 1.8 20.8 25.44
vector 114211  Network.dyn_peer[105]  lookupHopsSig:vector  ETV
114211	366991 612 8654 80752 444.2 2105.456176084659 20 2 18 128 1116
vector 114210  Network.dyn_peer[105]  lookupTimeSig:vector  ETV
114210	366343 648 8654 80752 444.2 2105.456176084659 20 0.2 1.9 14.7 13.87
vector 114213  Network.dyn_peer[106]  lookupHopsSig:vector  ETV
114213	368092 467 8774 92940 448.4 2330.712434379443 15 1 38 160 2994
vector 114212  Network.dyn_peer[106]  lookupTimeSig:vector  ETV
114212	367603 489 8774 92940 448.4 2330.712434379443 15 0.2 3.9 17.4 33.2
vector 114215  Network.dyn_peer[107]  lookupHopsSig:vector  ETV
114215	369688 1083 8870 132233 452.5 3005.045040600411 33 1 22 300 3772
vector 114214  Network.dyn_peer[107]  lookupTimeSig:vector  ETV
114214	368559 1129 8870 132233 452.5 3005.045040600411 33 0.2 2.3 33.2 43.94
vector 114217  Network.dyn_peer[108]  lookupHopsSig:vector  ETV
114217	372447 1608 9027 194142 456.5 3937.833694159054 49 1 24 433 5307
vector 114216  Network.dyn_peer[108]  lookupTimeSig:vector  ETV