file 1091131 1369674147                                         
version 2
run Stability-58-20130521-22:26:20-23591
attr configname Stability
attr datetime 20130521-22:26:20
attr experiment Stability
attr inifile omnetpp.ini
attr iterationvars $0=4
attr iterationvars2 "$0=4, $repetition=28"
attr measurement $0=4
attr network Network
attr processid 23591
attr repetition 28
attr replication #28
attr resultdir results
attr runnumber 58
attr seedset 58
vector 116001  Network.dyn_peer[0]  lookupHopsSig:vector  ETV
116001	129509 1284 100 212417 24.1 3967.525174364406 39 1 23 439 6633
vector 116000  Network.dyn_peer[0]  lookupTimeSig:vector  ETV
116000	128169 1340 100 212417 24.1 3967.525174364406 39 0.1 2.4 47.7 75.47
vector 116003  Network.dyn_peer[1]  lookupHopsSig:vector  ETV
116003	132252 1382 136 81995 28.3 2036.61025521913 45 1 24 262 2602
vector 116002  Network.dyn_peer[1]  lookupTimeSig:vector  ETV
116002	130793 1459 136 81995 28.3 2036.61025521913 45 0.2 2.5 30.6 31.64
vector 116005  Network.dyn_peer[2]  lookupHopsSig:vector  ETV
116005	135333 1602 174 176118 32.1 3448.128863204996 51 1 27 261 2373
vector 116004  Network.dyn_peer[2]  lookupTimeSig:vector  ETV
116004	133634 1699 174 176118 32.1 3448.128863204996 51 0.1 2.8 31.1 29.43
vector 116007  Network.dyn_peer[3]  lookupHopsSig:vector  ETV
116007	138587 1575 210 95623 36.2 2288.536340262547 50 1 20 374 3854
vector 116006  Network.dyn_peer[3]  lookupTimeSig:vector  ETV
116006	136935 1652 210 95623 36.2 2288.536340262547 50 0.2 2.1 42.3 46.47
vector 116009  Network.dyn_peer[4]  lookupHopsSig:vector  ETV
116009	141423 1209 247 184579 40.5 3551.814119777229 37 1 25 370 5474
vector 116008  Network.dyn_peer[4]  lookupTimeSig:vector  ETV
116008	140162 1261 247 184579 40.5 3551.814119777229 37 0.2 2.6 40.6 62.4
vector 116011  Network.dyn_peer[5]  lookupHopsSig:vector  ETV
116011	144011 1312 280 206146 44.2 3878.020715860426 41 1 35 304 3850
vector 116010  Network.dyn_peer[5]  lookupTimeSig:vector  ETV
116010	142632 1379 280 206146 44.2 3878.020715860426 41 0.2 3.6 34.4 44.94
vector 116013  Network.dyn_peer[6]  lookupHopsSig:vector  ETV
116013	146583 1203 339 185579 48.5 3564.270941552304 38 1 40 333 4857
vector 116012  Network.dyn_peer[6]  lookupTimeSig:vector  ETV
116012	145323 1260 339 185579 48.5 3564.270941552304 38 0.2 4.1 37 55.5
vector 116015  Network.dyn_peer[7]  lookupHopsSig:vector  ETV
116015	148792 960 378 84386 52.4 2081.730609300675 31 1 21 235 2571
vector 116014  Network.dyn_peer[7]  lookupTimeSig:vector  ETV
116014	147786 1006 378 84386 52.4 2081.730609300675 31 0.2 2.2 26.5 30.63
vector 116017  Network.dyn_peer[8]  lookupHopsSig:vector  ETV
116017	151470 1625 432 50620 56.2 1418.132746383254 52 1 21 294 2694
vector 116016  Network.dyn_peer[8]  lookupTimeSig:vector  ETV
116016	149752 1718 432 50620 56.2 1418.132746383254 52 0.2 2.2 34.5 33.29
vector 116019  Network.dyn_peer[9]  lookupHopsSig:vector  ETV
116019	153606 488 487 132159 60.4 2822.026305636208 16 2 27 156 2534
vector 116018  Network.dyn_peer[9]  lookupTimeSig:vector  ETV
116018	153095 511 487 132159 60.4 2822.026305636208 16 0.3 2.8 17.1 28.53
vector 116021  Network.dyn_peer[10]  lookupHopsSig:vector  ETV
116021	154808 676 532 88186 64.3 2154.414580997925 22 1 22 169 2115
vector 116020  Network.dyn_peer[10]  lookupTimeSig:vector  ETV
116020	154094 714 532 88186 64.3 2154.414580997925 22 0.2 2.3 19 24.68
vector 116023  Network.dyn_peer[11]  lookupHopsSig:vector  ETV
116023	157036 1475 563 164872 68.3 3303.427527630605 47 1 20 326 3342
vector 116022  Network.dyn_peer[11]  lookupTimeSig:vector  ETV
116022	155484 1552 563 164872 68.3 3303.427527630605 47 0.2 2.1 37.2 40.34
vector 116025  Network.dyn_peer[12]  lookupHopsSig:vector  ETV
116025	160771 2153 609 178343 72.4 3474.83214937267 67 1 28 536 6494
vector 116024  Network.dyn_peer[12]  lookupTimeSig:vector  ETV
116024	158511 2260 609 178343 72.4 3474.83214937267 67 0.2 2.9 60.2 76.24
vector 116027  Network.dyn_peer[13]  lookupHopsSig:vector  ETV
116027	165446 2396 648 174091 76.2 3422.719301752183 76 1 26 510 5434
vector 116026  Network.dyn_peer[13]  lookupTimeSig:vector  ETV
116026	162924 2522 648 174091 76.2 3422.719301752183 76 0.2 2.7 58.5 65.25
vector 116029  Network.dyn_peer[14]  lookupHopsSig:vector  ETV
116029	169008 1117 723 150911 80.3 3110.727965213955 35 1 26 322 4342
vector 116028  Network.dyn_peer[14]  lookupTimeSig:vector  ETV
116028	167842 1166 723 150911 80.3 3110.727965213955 35 0.2 2.7 35.6 50.14
vector 116031  Network.dyn_peer[15]  lookupHopsSig:vector  ETV
116031	171460 1276 761 195156 84.5 3699.720057443882 40 1 30 345 4977
vector 116030  Network.dyn_peer[15]  lookupTimeSig:vector  ETV
116030	170125 1335 761 195156 84.5 3699.720057443882 40 0.2 3.1 38.4 56.96
vector 116033  Network.dyn_peer[16]  lookupHopsSig:vector  ETV
116033	173887 1101 831 129347 88.4 2785.016831792943 35 1 30 296 4046
vector 116032  Network.dyn_peer[16]  lookupTimeSig:vector  ETV
116032	172736 1151 831 129347 88.4 2785.016831792943 35 0.2 3.1 33 46.64
vector 116035  Network.dyn_peer[17]  lookupHopsSig:vector  ETV
116035	176937 1852 895 161148 92.2 3251.925450112447 58 1 23 393 4023
vector 116034  Network.dyn_peer[17]  lookupTimeSig:vector  ETV
116034	174988 1949 895 161148 92.2 3251.925450112447 58 0.2 2.4 45 48.62
vector 116037  Network.dyn_peer[18]  lookupHopsSig:vector  ETV
116037	180397 1530 972 197028 96.5 3728.812520882283 48 1 23 368 3716
vector 116036  Network.dyn_peer[18]  lookupTimeSig:vector  ETV
116036	178789 1608 972 197028 96.5 3728.812520882283 48 0.2 2.4 41.5 44.89
vector 116039  Network.dyn_peer[19]  lookupHopsSig:vector  ETV
116039	183187 1210 1027 204903 100.2 3858.1185424549 37 1 24 385 5537
vector 116038  Network.dyn_peer[19]  lookupTimeSig:vector  ETV
116038	181927 1260 1027 204903 100.2 3858.1185424549 37 0.2 2.5 42.1 63.39
vector 116041  Network.dyn_peer[20]  lookupHopsSig:vector  ETV
116041	186411 1926 1083 183389 104.4 3536.939215329088 59 1 38 539 7819
vector 116040  Network.dyn_peer[20]  lookupTimeSig:vector  ETV
116040	184397 2014 1083 183389 104.4 3536.939215329088 59 0.2 3.9 59.7 89.47
vector 116043  Network.dyn_peer[21]  lookupHopsSig:vector  ETV
116043	189936 1523 1155 118932 108.5 2639.745903284826 48 1 26 393 4469
vector 116042  Network.dyn_peer[21]  lookupTimeSig:vector  ETV
116042	188337 1599 1155 118932 108.5 2639.745903284826 48 0.2 2.7 44 52.92
vector 116045  Network.dyn_peer[22]  lookupHopsSig:vector  ETV
116045	192012 527 1264 51509 112.5 1439.014342199957 17 1 25 135 1609
vector 116044  Network.dyn_peer[22]  lookupTimeSig:vector  ETV
116044	191459 553 1264 51509 112.5 1439.014342199957 17 0.2 2.6 15.1 18.85
vector 116047  Network.dyn_peer[23]  lookupHopsSig:vector  ETV
116047	193631 1045 1303 126335 116.2 2741.959738882839 32 1 24 294 3656
vector 116046  Network.dyn_peer[23]  lookupTimeSig:vector  ETV
116046	192539 1092 1303 126335 116.2 2741.959738882839 32 0.2 2.5 32.5 42.71
vector 116049  Network.dyn_peer[24]  lookupHopsSig:vector  ETV
116049	196605 1845 1346 145604 120.3 3039.521312857094 56 1 28 533 7563
vector 116048  Network.dyn_peer[24]  lookupTimeSig:vector  ETV
116048	194676 1929 1346 145604 120.3 3039.521312857094 56 0.2 2.9 58.8 86.78
vector 116051  Network.dyn_peer[25]  lookupHopsSig:vector  ETV
116051	199988 1474 1389 156120 124.4 3180.821590536439 45 1 31 419 5557
vector 116050  Network.dyn_peer[25]  lookupTimeSig:vector  ETV
116050	198450 1538 1389 156120 124.4 3180.821590536439 45 0.2 3.2 46.3 64.31
vector 116053  Network.dyn_peer[26]  lookupHopsSig:vector  ETV
116053	202831 1305 1500 135208 128.5 2879.023909142097 41 1 19 315 3649
vector 116052  Network.dyn_peer[26]  lookupTimeSig:vector  ETV
116052	201462 1369 1500 135208 128.5 2879.023909142097 41 0.2 2 35.5 43.09
vector 116055  Network.dyn_peer[27]  lookupHopsSig:vector  ETV
116055	205074 889 1625 186161 132.1 3571.518787331166 28 1 17 181 1853
vector 116054  Network.dyn_peer[27]  lookupTimeSig:vector  ETV
116054	204136 938 1625 186161 132.1 3571.518787331166 28 0.1 1.8 20.8 22.4
vector 116057  Network.dyn_peer[28]  lookupHopsSig:vector  ETV
116057	207926 1881 1679 188312 136.7 3606.216842416827 58 1 24 537 7133
vector 116056  Network.dyn_peer[28]  lookupTimeSig:vector  ETV
116056	205963 1963 1679 188312 136.7 3606.216842416827 58 0.2 2.5 59.4 82.5
vector 116059  Network.dyn_peer[29]  lookupHopsSig:vector  ETV
116059	210663 818 1736 186177 140.2 3571.72861972447 26 1 22 231 3083
vector 116058  Network.dyn_peer[29]  lookupTimeSig:vector  ETV
116058	209807 856 1736 186177 140.2 3571.72861972447 26 0.2 2.3 25.6 35.66
vector 116061  Network.dyn_peer[30]  lookupHopsSig:vector  ETV
116061	212687 1149 1905 133942 144.5 2857.422633727967 36 1 18 249 2547
vector 116060  Network.dyn_peer[30]  lookupTimeSig:vector  ETV
116060	211481 1206 1905 133942 144.5 2857.422633727967 36 0.2 1.9 28.4 30.7
vector 116063  Network.dyn_peer[31]  lookupHopsSig:vector  ETV
116063	216069 2151 2025 194724 148.1 3694.460781915955 64 1 30 670 9834
vector 116062  Network.dyn_peer[31]  lookupTimeSig:vector  ETV
116062	213836 2233 2025 194724 148.1 3694.460781915955 64 0.1 3.1 73.3 112.35
vector 116065  Network.dyn_peer[32]  lookupHopsSig:vector  ETV
116065	218701 455 2096 44109 152.6 1271.024470449032 15 1 23 90 992
vector 116064  Network.dyn_peer[32]  lookupTimeSig:vector  ETV
116064	218220 481 2096 44109 152.6 1271.024470449032 15 0.2 2.4 10.4 11.74
vector 116067  Network.dyn_peer[33]  lookupHopsSig:vector  ETV
116067	219617 436 2195 123983 156.5 2716.852978055127 14 2 21 102 1092
vector 116066  Network.dyn_peer[33]  lookupTimeSig:vector  ETV
116066	219156 461 2195 123983 156.5 2716.852978055127 14 0.3 2.2 11.5 12.99
vector 116069  Network.dyn_peer[34]  lookupHopsSig:vector  ETV
116069	221883 1743 2337 207422 160.5 3892.233860468377 54 1 36 458 6514
vector 116068  Network.dyn_peer[34]  lookupTimeSig:vector  ETV
116068	220053 1830 2337 207422 160.5 3892.233860468377 54 0.2 3.7 51.1 74.73
vector 116071  Network.dyn_peer[35]  lookupHopsSig:vector  ETV
116071	225532 1812 2398 204552 164.1 3852.725923661427 56 1 25 408 4960
vector 116070  Network.dyn_peer[35]  lookupTimeSig:vector  ETV
116070	223626 1906 2398 204552 164.1 3852.725923661427 56 0.1 2.6 46.3 58.29
vector 116073  Network.dyn_peer[36]  lookupHopsSig:vector  ETV
116073	228136 751 2467 166046 168.9 3322.712968808139 24 1 14 162 1400
vector 116072  Network.dyn_peer[36]  lookupTimeSig:vector  ETV
116072	227344 792 2467 166046 168.9 3322.712968808139 24 0.2 1.5 18.5 17.29
vector 116075  Network.dyn_peer[37]  lookupHopsSig:vector  ETV
116075	229728 797 2577 55640 172.2 1521.547237391995 25 1 17 151 1279
vector 116074  Network.dyn_peer[37]  lookupTimeSig:vector  ETV
116074	228887 841 2577 55640 172.2 1521.547237391995 25 0.2 1.8 17.5 16.01
vector 116077  Network.dyn_peer[38]  lookupHopsSig:vector  ETV
116077	232327 1725 2703 203800 176.2 3839.145725619565 54 1 55 491 7989
vector 116076  Network.dyn_peer[38]  lookupTimeSig:vector  ETV
116076	230525 1802 2703 203800 176.2 3839.145725619565 54 0.2 5.6 54.4 90.2
vector 116079  Network.dyn_peer[39]  lookupHopsSig:vector  ETV
116079	235478 1351 2751 106362 180.7 2447.926736940479 43 1 44 294 4288
vector 116078  Network.dyn_peer[39]  lookupTimeSig:vector  ETV
116078	234052 1426 2751 106362 180.7 2447.926736940479 43 0.2 4.5 33.6 49.04
vector 116081  Network.dyn_peer[40]  lookupHopsSig:vector  ETV
116081	238283 1395 2810 199418 184.2 3761.942687247565 43 2 18 365 3815
vector 116080  Network.dyn_peer[40]  lookupTimeSig:vector  ETV
116080	236829 1454 2810 199418 184.2 3761.942687247565 43 0.2 1.9 40.7 45.83
vector 116083  Network.dyn_peer[41]  lookupHopsSig:vector  ETV
116083	240464 752 2865 135422 188.4 2882.815699986449 23 1 30 241 4415
vector 116082  Network.dyn_peer[41]  lookupTimeSig:vector  ETV
116082	239678 786 2865 135422 188.4 2882.815699986449 23 0.2 3.1 26.3 49.11
vector 116085  Network.dyn_peer[42]  lookupHopsSig:vector  ETV
116085	242232 971 3048 107599 192.3 2463.147593989038 30 1 18 221 2209
vector 116084  Network.dyn_peer[42]  lookupTimeSig:vector  ETV
116084	241216 1016 3048 107599 192.3 2463.147593989038 30 0.2 1.9 25 26.74
vector 116087  Network.dyn_peer[43]  lookupHopsSig:vector  ETV
116087	245597 2275 3181 142572 196.1 2989.233927761451 71 1 19 462 4092
vector 116086  Network.dyn_peer[43]  lookupTimeSig:vector  ETV
116086	243203 2394 3181 142572 196.1 2989.233927761451 71 0.1 2 53.2 50.84
vector 116089  Network.dyn_peer[44]  lookupHopsSig:vector  ETV
116089	249676 1720 3247 175479 200.5 3437.105880381508 54 1 47 436 5928
vector 116088  Network.dyn_peer[44]  lookupTimeSig:vector  ETV
116088	247872 1804 3247 175479 200.5 3437.105880381508 54 0.2 4.8 48.9 68.43
vector 116091  Network.dyn_peer[45]  lookupHopsSig:vector  ETV
116091	252906 1436 3316 59522 204.6 1583.752809309285 45 1 18 303 2711
vector 116090  Network.dyn_peer[45]  lookupTimeSig:vector  ETV
116090	251396 1510 3316 59522 204.6 1583.752809309285 45 0.2 1.9 34.7 33.49
vector 116093  Network.dyn_peer[46]  lookupHopsSig:vector  ETV
116093	255965 1553 3369 114859 208.3 2581.324489104883 48 1 21 405 4693
vector 116092  Network.dyn_peer[46]  lookupTimeSig:vector  ETV
116092	254342 1623 3369 114859 208.3 2581.324489104883 48 0.2 2.2 45.2 55.44
vector 116095  Network.dyn_peer[47]  lookupHopsSig:vector  ETV
116095	259145 1562 3431 201555 212.2 3803.221523480592 47 1 33 481 6901
vector 116094  Network.dyn_peer[47]  lookupTimeSig:vector  ETV
116094	257518 1627 3431 201555 212.2 3803.221523480592 47 0.2 3.4 52.7 79.05
vector 116097  Network.dyn_peer[48]  lookupHopsSig:vector  ETV
116097	263013 2196 3515 189220 216.3 3618.643769716283 68 1 26 544 7066
vector 116096  Network.dyn_peer[48]  lookupTimeSig:vector  ETV
116096	260707 2306 3515 189220 216.3 3618.643769716283 68 0.2 2.7 61.1 82.15
vector 116099  Network.dyn_peer[49]  lookupHopsSig:vector  ETV
116099	266619 1336 3575 124760 220.1 2726.527205566497 42 1 27 269 2759
vector 116098  Network.dyn_peer[49]  lookupTimeSig:vector  ETV
116098	265209 1410 3575 124760 220.1 2726.527205566497 42 0.1 2.8 31 33.36
vector 116101  Network.dyn_peer[50]  lookupHopsSig:vector  ETV
116101	269429 1398 3726 102515 224.5 2392.618181189289 44 1 22 306 2884
vector 116100  Network.dyn_peer[50]  lookupTimeSig:vector  ETV
116100	267955 1474 3726 102515 224.5 2392.618181189289 44 0.2 2.3 34.9 35.29
vector 116103  Network.dyn_peer[51]  lookupHopsSig:vector  ETV
116103	271543 677 3818 63720 228.6 1660.222094654955 22 2 23 151 1547
vector 116102  Network.dyn_peer[51]  lookupTimeSig:vector  ETV
116102	270827 716 3818 63720 228.6 1660.222094654955 22 0.3 2.4 17.2 18.58
vector 116105  Network.dyn_peer[52]  lookupHopsSig:vector  ETV
116105	273635 1346 3871 125835 232.3 2737.421956317508 42 1 30 302 3780
vector 116104  Network.dyn_peer[52]  lookupTimeSig:vector  ETV
116104	272220 1415 3871 125835 232.3 2737.421956317508 42 0.2 3.1 34.3 44.19
vector 116107  Network.dyn_peer[53]  lookupHopsSig:vector  ETV
116107	275867 841 3934 116393 236.4 2599.921200204635 27 1 28 178 2192
vector 116106  Network.dyn_peer[53]  lookupTimeSig:vector  ETV
116106	274981 886 3934 116393 236.4 2599.921200204635 27 0.2 2.9 20.4 25.66
vector 116109  Network.dyn_peer[54]  lookupHopsSig:vector  ETV
116109	277935 1180 4028 167548 240.5 3341.819132030475 36 1 19 357 4789
vector 116108  Network.dyn_peer[54]  lookupTimeSig:vector  ETV
116108	276708 1227 4028 167548 240.5 3341.819132030475 36 0.2 2 39.2 55.28
vector 116111  Network.dyn_peer[55]  lookupHopsSig:vector  ETV
116111	280758 1576 4094 208957 244.7 3916.347656960372 48 3 36 480 6476
vector 116110  Network.dyn_peer[55]  lookupTimeSig:vector  ETV
116110	279115 1643 4094 208957 244.7 3916.347656960372 48 0.4 3.7 52.7 74.69
vector 116113  Network.dyn_peer[56]  lookupHopsSig:vector  ETV
116113	283992 1582 4279 211786 248.7 3956.92658270226 49 2 30 435 5667
vector 116112  Network.dyn_peer[56]  lookupTimeSig:vector  ETV
116112	282334 1658 4279 211786 248.7 3956.92658270226 49 0.3 3.1 48.3 65.71
vector 116115  Network.dyn_peer[57]  lookupHopsSig:vector  ETV
116115	286511 893 4374 203551 252.4 3835.556038868735 28 1 32 274 4550
vector 116114  Network.dyn_peer[57]  lookupTimeSig:vector  ETV
116114	285574 937 4374 203551 252.4 3835.556038868735 28 0.2 3.3 30.1 51.17
vector 116117  Network.dyn_peer[58]  lookupHopsSig:vector  ETV
116117	288157 710 4489 90574 256.1 2194.01541392746 23 1 20 124 1140
vector 116116  Network.dyn_peer[58]  lookupTimeSig:vector  ETV
116116	287404 753 4489 90574 256.1 2194.01541392746 23 0.1 2.1 14.6 14.08
vector 116119  Network.dyn_peer[59]  lookupHopsSig:vector  ETV
116119	290390 1457 4594 94879 260.2 2270.235788884622 45 1 17 351 3469
vector 116118  Network.dyn_peer[59]  lookupTimeSig:vector  ETV
116118	288867 1523 4594 94879 260.2 2270.235788884622 45 0.2 1.8 39.5 42.11
vector 116121  Network.dyn_peer[60]  lookupHopsSig:vector  ETV
116121	292880 977 4642 182859 264.2 3529.524873916579 31 1 25 171 1797
vector 116120  Network.dyn_peer[60]  lookupTimeSig:vector  ETV
116120	291847 1033 4642 182859 264.2 3529.524873916579 31 0.2 2.6 20.1 21.65
vector 116123  Network.dyn_peer[61]  lookupHopsSig:vector  ETV
116123	294959 1054 4677 149419 268 3090.516033075061 33 0 19 276 2966
vector 116122  Network.dyn_peer[61]  lookupTimeSig:vector  ETV
116122	293857 1102 4677 149419 268 3090.516033075061 33 0 2 30.8 35.5
vector 116125  Network.dyn_peer[62]  lookupHopsSig:vector  ETV
116125	297189 1118 4747 113629 272.5 2562.326985208342 35 2 21 274 3028
vector 116124  Network.dyn_peer[62]  lookupTimeSig:vector  ETV
116124	296013 1176 4747 113629 272.5 2562.326985208342 35 0.3 2.2 30.8 36
vector 116127  Network.dyn_peer[63]  lookupHopsSig:vector  ETV
116127	300536 2138 4822 192805 276.6 3669.743999730306 64 1 35 698 10406
vector 116126  Network.dyn_peer[63]  lookupTimeSig:vector  ETV
116126	298307 2229 4822 192805 276.6 3669.743999730306 64 0.2 3.6 76.1 118.53
vector 116129  Network.dyn_peer[64]  lookupHopsSig:vector  ETV
116129	303335 630 4871 101589 280.4 2377.939757843976 20 2 29 167 2201
vector 116128  Network.dyn_peer[64]  lookupTimeSig:vector  ETV
116128	302674 661 4871 101589 280.4 2377.939757843976 20 0.3 3 18.6 25.46
vector 116131  Network.dyn_peer[65]  lookupHopsSig:vector  ETV
116131	305225 1202 4954 213775 284.3 3986.928529018031 37 1 38 319 4741
vector 116130  Network.dyn_peer[65]  lookupTimeSig:vector  ETV
116130	303965 1260 4954 213775 284.3 3986.928529018031 37 0.2 3.9 35.5 54.09
vector 116133  Network.dyn_peer[66]  lookupHopsSig:vector  ETV
116133	307584 1110 5006 187218 288.2 3584.920599301228 34 1 22 308 3780
vector 116132  Network.dyn_peer[66]  lookupTimeSig:vector  ETV
116132	306427 1157 5006 187218 288.2 3584.920599301228 34 0.2 2.3 34.1 44.25
vector 116135  Network.dyn_peer[67]  lookupHopsSig:vector  ETV
116135	309425 697 5039 116875 292.3 2606.644705701199 22 2 23 185 2231
vector 116134  Network.dyn_peer[67]  lookupTimeSig:vector  ETV
116134	308694 731 5039 116875 292.3 2606.644705701199 22 0.3 2.4 20.6 26.16
vector 116137  Network.dyn_peer[68]  lookupHopsSig:vector  ETV
116137	311060 896 5182 159695 296.3 3231.114109566091 28 1 30 268 3876
vector 116136  Network.dyn_peer[68]  lookupTimeSig:vector  ETV
116136	310122 938 5182 159695 296.3 3231.114109566091 28 0.2 3.1 29.5 44.33
vector 116139  Network.dyn_peer[69]  lookupHopsSig:vector  ETV
116139	312820 819 5237 105115 300.4 2430.420986470144 26 2 15 161 1255
vector 116138  Network.dyn_peer[69]  lookupTimeSig:vector  ETV
116138	311956 864 5237 105115 300.4 2430.420986470144 26 0.3 1.6 18.6 15.94
vector 116141  Network.dyn_peer[70]  lookupHopsSig:vector  ETV
116141	314558 873 5303 67497 304.5 1738.223040902909 28 1 17 192 1816
vector 116140  Network.dyn_peer[70]  lookupTimeSig:vector  ETV
116140	313639 919 5303 67497 304.5 1738.223040902909 28 0.2 1.8 21.9 22.17
vector 116143  Network.dyn_peer[71]  lookupHopsSig:vector  ETV
116143	316481 1009 5366 203360 308.1 3833.255839408264 31 1 27 334 5336
vector 116142  Network.dyn_peer[71]  lookupTimeSig:vector  ETV
116142	315431 1050 5366 203360 308.1 3833.255839408264 31 0.1 2.8 36.4 60.32
vector 116145  Network.dyn_peer[72]  lookupHopsSig:vector  ETV
116145	318944 1383 5486 119951 312.4 2661.137334873334 43 1 30 329 3769
vector 116144  Network.dyn_peer[72]  lookupTimeSig:vector  ETV
116144	317490 1454 5486 119951 312.4 2661.137334873334 43 0.2 3.1 37.1 44.61
vector 116147  Network.dyn_peer[73]  lookupHopsSig:vector  ETV
116147	320944 589 5573 39704 316.3 1179.54994098617 19 2 17 138 1232
vector 116146  Network.dyn_peer[73]  lookupTimeSig:vector  ETV
116146	320327 617 5573 39704 316.3 1179.54994098617 19 0.3 1.8 15.6 15.2
vector 116149  Network.dyn_peer[74]  lookupHopsSig:vector  ETV
116149	322874 1278 5770 75024 320.1 1897.624806163899 40 1 19 322 3264
vector 116148  Network.dyn_peer[74]  lookupTimeSig:vector  ETV
116148	321533 1341 5770 75024 320.1 1897.624806163899 40 0.1 2 36.1 39.45
vector 116151  Network.dyn_peer[75]  lookupHopsSig:vector  ETV
116151	324806 619 5933 202613 324.3 3824.718652650056 20 2 20 135 1307
vector 116150  Network.dyn_peer[75]  lookupTimeSig:vector  ETV
116150	324152 654 5933 202613 324.3 3824.718652650056 20 0.3 2.1 15.4 15.9
vector 116153  Network.dyn_peer[76]  lookupHopsSig:vector  ETV
116153	326503 1025 6070 142387 328.5 2986.83121703524 32 1 43 226 3592
vector 116152  Network.dyn_peer[76]  lookupTimeSig:vector  ETV
116152	325425 1078 6070 142387 328.5 2986.83121703524 32 0.2 4.4 25.7 40.65
vector 116155  Network.dyn_peer[77]  lookupHopsSig:vector  ETV
116155	328340 778 6214 114651 332.4 2578.253255842613 24 3 33 234 3382
vector 116154  Network.dyn_peer[77]  lookupTimeSig:vector  ETV
116154	327528 812 6214 114651 332.4 2578.253255842613 24 0.4 3.4 25.7 38.65
vector 116157  Network.dyn_peer[78]  lookupHopsSig:vector  ETV
116157	329856 701 6323 148505 336.2 3076.639347512587 22 2 18 175 1843
vector 116156  Network.dyn_peer[78]  lookupTimeSig:vector  ETV
116156	329118 738 6323 148505 336.2 3076.639347512587 22 0.2 1.9 19.6 22.1
vector 116159  Network.dyn_peer[79]  lookupHopsSig:vector  ETV
116159	330898 321 6388 6701 340.7 347.339463600398 11 3 10 63 417
vector 116158  Network.dyn_peer[79]  lookupTimeSig:vector  ETV
116158	330557 341 6388 6701 340.7 347.339463600398 11 0.4 1.1 7.3 5.39
vector 116161  Network.dyn_peer[80]  lookupHopsSig:vector  ETV
116161	332149 898 6552 170289 345 3382.855662740226 28 1 29 299 4745
vector 116160  Network.dyn_peer[80]  lookupTimeSig:vector  ETV
116160	331219 930 6552 170289 345 3382.855662740226 28 0.2 3 32.6 53.5
vector 116163  Network.dyn_peer[81]  lookupHopsSig:vector  ETV
116163	333895 809 6739 62899 348.1 1645.015799254158 26 1 15 180 1634
vector 116162  Network.dyn_peer[81]  lookupTimeSig:vector  ETV
116162	333047 848 6739 62899 348.1 1645.015799254158 26 0.1 1.6 20.5 20.17
vector 116165  Network.dyn_peer[82]  lookupHopsSig:vector  ETV
116165	334913 195 6855 7040 352.8 356.932178722761 7 4 8 43 285
vector 116164  Network.dyn_peer[82]  lookupTimeSig:vector  ETV
116164	334704 209 6855 7040 352.8 356.932178722761 7 0.5 0.9 4.9 3.61
vector 116167  Network.dyn_peer[83]  lookupHopsSig:vector  ETV
116167	336403 1243 7018 116166 356.5 2597.141160503847 38 1 22 348 4080
vector 116166  Network.dyn_peer[83]  lookupTimeSig:vector  ETV
116166	335108 1295 7018 116166 356.5 2597.141160503847 38 0.2 2.3 38.5 48.03
vector 116169  Network.dyn_peer[84]  lookupHopsSig:vector  ETV
116169	337822 164 7102 7174 360.3 363.123495493885 6 2 8 26 138
vector 116168  Network.dyn_peer[84]  lookupTimeSig:vector  ETV
116168	337646 176 7102 7174 360.3 363.123495493885 6 0.3 0.9 3.1 1.89
vector 116171  Network.dyn_peer[85]  lookupHopsSig:vector  ETV
116171	339239 1186 7200 151711 364.3 3122.63029361682 37 1 16 193 1617
vector 116170  Network.dyn_peer[85]  lookupTimeSig:vector  ETV
116170	337986 1253 7200 151711 364.3 3122.63029361682 37 0.2 1.7 22.9 20.33
vector 116173  Network.dyn_peer[86]  lookupHopsSig:vector  ETV
116173	341018 562 7380 194946 368.5 3696.821935666325 18 2 28 147 2305
vector 116172  Network.dyn_peer[86]  lookupTimeSig:vector  ETV
116172	340425 593 7380 194946 368.5 3696.821935666325 18 0.3 2.9 16.4 26.06
vector 116175  Network.dyn_peer[87]  lookupHopsSig:vector  ETV
116175	343149 1503 7477 139433 372.4 2951.931645344484 46 3 33 430 5530
vector 116174  Network.dyn_peer[87]  lookupTimeSig:vector  ETV
116174	341580 1569 7477 139433 372.4 2951.931645344484 46 0.4 3.4 47.5 64.27
vector 116177  Network.dyn_peer[88]  lookupHopsSig:vector  ETV
116177	345214 536 7539 197367 376.2 3735.436600251658 17 1 25 168 2678
vector 116176  Network.dyn_peer[88]  lookupTimeSig:vector  ETV
116176	344652 562 7539 197367 376.2 3735.436600251658 17 0.2 2.6 18.4 30.26
vector 116179  Network.dyn_peer[89]  lookupHopsSig:vector  ETV
116179	346477 699 7652 125618 380.6 2735.544433528676 22 1 32 215 3743
vector 116178  Network.dyn_peer[89]  lookupTimeSig:vector  ETV
116178	345750 727 7652 125618 380.6 2735.544433528676 22 0.2 3.3 23.6 41.82
vector 116181  Network.dyn_peer[90]  lookupHopsSig:vector  ETV
116181	348694 1438 7769 151888 384.5 3125.138251001479 45 1 19 265 2757
vector 116180  Network.dyn_peer[90]  lookupTimeSig:vector  ETV
116180	347176 1518 7769 151888 384.5 3125.138251001479 45 0.2 2 30.9 33.21
vector 116183  Network.dyn_peer[91]  lookupHopsSig:vector  ETV
116183	350966 793 7891 113210 388.5 2555.851428548661 25 1 31 177 2229
vector 116182  Network.dyn_peer[91]  lookupTimeSig:vector  ETV
116182	350132 834 7891 113210 388.5 2555.851428548661 25 0.2 3.2 20.1 25.97
vector 116185  Network.dyn_peer[92]  lookupHopsSig:vector  ETV
116185	351968 195 7991 8139 392.7 396.118134794591 7 3 7 35 183
vector 116184  Network.dyn_peer[92]  lookupTimeSig:vector  ETV
116184	351759 209 7991 8139 392.7 396.118134794591 7 0.4 0.7 4.1 2.45
vector 116187  Network.dyn_peer[93]  lookupHopsSig:vector  ETV
116187	352796 604 8159 199120 396.6 3758.605388291111 19 1 16 142 1418
vector 116186  Network.dyn_peer[93]  lookupTimeSig:vector  ETV
116186	352163 633 8159 199120 396.6 3758.605388291111 19 0.2 1.7 16 17.08
vector 116189  Network.dyn_peer[94]  lookupHopsSig:vector  ETV
116189	354541 1094 8190 96632 400.2 2304.556163687746 34 1 27 309 4129
vector 116188  Network.dyn_peer[94]  lookupTimeSig:vector  ETV
116188	353400 1141 8190 96632 400.2 2304.556163687746 34 0.2 2.8 34.2 47.76
vector 116191  Network.dyn_peer[95]  lookupHopsSig:vector  ETV
116191	356637 960 8232 118626 404.2 2634.424864389625 30 1 24 236 2602
vector 116190  Network.dyn_peer[95]  lookupTimeSig:vector  ETV
116190	355635 1002 8232 118626 404.2 2634.424864389625 30 0.2 2.5 26.5 30.99
vector 116193  Network.dyn_peer[96]  lookupHopsSig:vector  ETV
116193	358328 701 8337 130035 408.3 2795.118351635646 22 1 19 179 2055
vector 116192  Network.dyn_peer[96]  lookupTimeSig:vector  ETV
116192	357597 731 8337 130035 408.3 2795.118351635646 22 0.2 2 20 24.28
vector 116195  Network.dyn_peer[97]  lookupHopsSig:vector  ETV
116195	360183 1105 8507 117387 412.6 2616.343781436193 34 1 25 303 3987
vector 116194  Network.dyn_peer[97]  lookupTimeSig:vector  ETV
116194	359029 1154 8507 117387 412.6 2616.343781436193 34 0.2 2.6 33.6 46.14
vector 116197  Network.dyn_peer[98]  lookupHopsSig:vector  ETV
116197	362351 1017 8669 200661 416.4 3786.332861784643 31 2 22 324 4360
vector 116196  Network.dyn_peer[98]  lookupTimeSig:vector  ETV
116196	361288 1063 8669 200661 416.4 3786.332861784643 31 0.3 2.3 35.4 50.3
vector 116199  Network.dyn_peer[99]  lookupHopsSig:vector  ETV
116199	363509 133 8760 8858 420.1 423.120445077851 5 1 9 27 183
vector 116198  Network.dyn_peer[99]  lookupTimeSig:vector  ETV
116198	363368 141 8760 8858 420.1 423.120445077851 5 0.1 1 3.1 2.39
vector 116201  Network.dyn_peer[100]  lookupHopsSig:vector  ETV
116201	364975 1276 8894 184001 424.7 3545.218888531427 39 1 35 405 6431
vector 116200  Network.dyn_peer[100]  lookupTimeSig:vector  ETV
116200	363642 1333 8894 184001 424.7 3545.218888531427 39 0.2 3.6 44.3 72.65
vector 116203  Network.dyn_peer[101]  lookupHopsSig:vector  ETV
116203	366937 650 9036 131215 428.2 2813.824536012685 21 1 16 131 1141
vector 116202  Network.dyn_peer[101]  lookupTimeSig:vector  ETV
116202	366251 686 9036 131215 428.2 2813.824536012685 21 0.2 1.7 15.1 14.19
vector 116205  Network.dyn_peer[102]  lookupHopsSig:vector  ETV
116205	368376 747 9179 175498 432.2 3437.23004068261 24 2 22 173 1647
vector 116204  Network.dyn_peer[102]  lookupTimeSig:vector  ETV
116204	367587 789 9179 175498 432.2 3437.23004068261 24 0.2 2.3 19.6 20.12
vector 116207  Network.dyn_peer[103]  lookupHopsSig:vector  ETV
116207	370724 1525 9383 47271 436.9 1349.527424322522 48 2 16 343 3217
vector 116206  Network.dyn_peer[103]  lookupTimeSig:vector  ETV
116206	369123 1601 9383 47271 436.9 1349.527424322522 48 0.3 1.7 39 39.32
vector 116209  Network.dyn_peer[104]  lookupHopsSig:vector  ETV
116209	373594 1290 9493 131834 440 2818.742045872975 40 0 32 401 5767
vector 116208  Network.dyn_peer[104]  lookupTimeSig:vector  ETV
116208	372249 1345 9493 131834 440 2818.742045872975 40 0 3.3 44 66.08
vector 116211  Network.dyn_peer[105]  lookupHopsSig:vector  ETV
116211	376156 1222 9677 174829 444.4 3430.231412237905 37 1 48 456 9452
vector 116210  Network.dyn_peer[105]  lookupTimeSig:vector  ETV
116210	374884 1272 9677 174829 444.4 3430.231412237905 37 0.2 4.9 49.2 103.92
vector 116213  Network.dyn_peer[106]  lookupHopsSig:vector  ETV
116213	378525 1093 9721 212898 448.3 3975.349676081088 33 1 33 326 5222
vector 116212  Network.dyn_peer[106]  lookupTimeSig:vector  ETV
116212	377378 1147 9721 212898 448.3 3975.349676081088 33 0.2 3.4 35.8 59
vector 116215  Network.dyn_peer[107]  lookupHopsSig:vector  ETV
116215	380428 778 9799 139721 452.9 2956.244242609742 24 1 21 263 3817
vector 116214  Network.dyn_peer[107]  lookupTimeSig:vector  ETV
116214	379618 810 9799 139721 452.9 2956.244242609742 24 0.2 2.2 28.6 43.48
vector 116217  Network.dyn_peer[108]  lookupHopsSig:vector  ETV
116217	381833 601 9935 181439 457 3508.23597992258 19 1 21 145 1779
vector 116216  Network.dyn_peer[108]  lookupTimeSig:vector  ETV