file 1011037 1369168238                                         
version 2
run Stability-103-20130521-22:30:33-23591
attr configname Stability
attr datetime 20130521-22:30:33
attr experiment Stability
attr inifile omnetpp.ini
attr iterationvars $0=1
attr iterationvars2 "$0=1, $repetition=13"
attr measurement $0=1
attr network Network
attr processid 23591
attr repetition 13
attr replication #13
attr resultdir results
attr runnumber 103
attr seedset 103

vector 206001  Network.dyn_peer[0]  lookupHopsSig:vector  ETV
vector 206000  Network.dyn_peer[0]  lookupTimeSig:vector  ETV
vector 206003  Network.dyn_peer[1]  lookupHopsSig:vector  ETV
vector 206002  Network.dyn_peer[1]  lookupTimeSig:vector  ETV
vector 206005  Network.dyn_peer[2]  lookupHopsSig:vector  ETV
vector 206004  Network.dyn_peer[2]  lookupTimeSig:vector  ETV
vector 206007  Network.dyn_peer[3]  lookupHopsSig:vector  ETV
vector 206006  Network.dyn_peer[3]  lookupTimeSig:vector  ETV
vector 206009  Network.dyn_peer[4]  lookupHopsSig:vector  ETV
vector 206008  Network.dyn_peer[4]  lookupTimeSig:vector  ETV
vector 206011  Network.dyn_peer[5]  lookupHopsSig:vector  ETV
vector 206010  Network.dyn_peer[5]  lookupTimeSig:vector  ETV
vector 206013  Network.dyn_peer[6]  lookupHopsSig:vector  ETV
vector 206012  Network.dyn_peer[6]  lookupTimeSig:vector  ETV
vector 206015  Network.dyn_peer[7]  lookupHopsSig:vector  ETV
vector 206014  Network.dyn_peer[7]  lookupTimeSig:vector  ETV
vector 206017  Network.dyn_peer[8]  lookupHopsSig:vector  ETV
vector 206016  Network.dyn_peer[8]  lookupTimeSig:vector  ETV
vector 206019  Network.dyn_peer[9]  lookupHopsSig:vector  ETV
vector 206018  Network.dyn_peer[9]  lookupTimeSig:vector  ETV
vector 206021  Network.dyn_peer[10]  lookupHopsSig:vector  ETV
vector 206020  Network.dyn_peer[10]  lookupTimeSig:vector  ETV
vector 206023  Network.dyn_peer[11]  lookupHopsSig:vector  ETV
vector 206022  Network.dyn_peer[11]  lookupTimeSig:vector  ETV
vector 206025  Network.dyn_peer[12]  lookupHopsSig:vector  ETV
vector 206024  Network.dyn_peer[12]  lookupTimeSig:vector  ETV
vector 206027  Network.dyn_peer[13]  lookupHopsSig:vector  ETV
vector 206026  Network.dyn_peer[13]  lookupTimeSig:vector  ETV
vector 206029  Network.dyn_peer[14]  lookupHopsSig:vector  ETV
vector 206028  Network.dyn_peer[14]  lookupTimeSig:vector  ETV
vector 206031  Network.dyn_peer[15]  lookupHopsSig:vector  ETV
vector 206030  Network.dyn_peer[15]  lookupTimeSig:vector  ETV
vector 206033  Network.dyn_peer[16]  lookupHopsSig:vector  ETV
vector 206032  Network.dyn_peer[16]  lookupTimeSig:vector  ETV
vector 206035  Network.dyn_peer[17]  lookupHopsSig:vector  ETV
vector 206034  Network.dyn_peer[17]  lookupTimeSig:vector  ETV
vector 206037  Network.dyn_peer[18]  lookupHopsSig:vector  ETV
vector 206036  Network.dyn_peer[18]  lookupTimeSig:vector  ETV
vector 206039  Network.dyn_peer[19]  lookupHopsSig:vector  ETV
vector 206038  Network.dyn_peer[19]  lookupTimeSig:vector  ETV
vector 206041  Network.dyn_peer[20]  lookupHopsSig:vector  ETV
vector 206040  Network.dyn_peer[20]  lookupTimeSig:vector  ETV
vector 206043  Network.dyn_peer[21]  lookupHopsSig:vector  ETV
vector 206042  Network.dyn_peer[21]  lookupTimeSig:vector  ETV
vector 206045  Network.dyn_peer[22]  lookupHopsSig:vector  ETV
vector 206044  Network.dyn_peer[22]  lookupTimeSig:vector  ETV
vector 206047  Network.dyn_peer[23]  lookupHopsSig:vector  ETV
vector 206046  Network.dyn_peer[23]  lookupTimeSig:vector  ETV
vector 206049  Network.dyn_peer[24]  lookupHopsSig:vector  ETV
vector 206048  Network.dyn_peer[24]  lookupTimeSig:vector  ETV
vector 206051  Network.dyn_peer[25]  lookupHopsSig:vector  ETV
vector 206050  Network.dyn_peer[25]  lookupTimeSig:vector  ETV
vector 206053  Network.dyn_peer[26]  lookupHopsSig:vector  ETV
vector 206052  Network.dyn_peer[26]  lookupTimeSig:vector  ETV
vector 206055  Network.dyn_peer[27]  lookupHopsSig:vector  ETV
vector 206054  Network.dyn_peer[27]  lookupTimeSig:vector  ETV
vector 206057  Network.dyn_peer[28]  lookupHopsSig:vector  ETV
vector 206056  Network.dyn_peer[28]  lookupTimeSig:vector  ETV
vector 206059  Network.dyn_peer[29]  lookupHopsSig:vector  ETV
vector 206058  Network.dyn_peer[29]  lookupTimeSig:vector  ETV
vector 206061  Network.dyn_peer[30]  lookupHopsSig:vector  ETV
vector 206060  Network.dyn_peer[30]  lookupTimeSig:vector  ETV
vector 206063  Network.dyn_peer[31]  lookupHopsSig:vector  ETV
vector 206062  Network.dyn_peer[31]  lookupTimeSig:vector  ETV
vector 206065  Network.dyn_peer[32]  lookupHopsSig:vector  ETV
vector 206064  Network.dyn_peer[32]  lookupTimeSig:vector  ETV
vector 206067  Network.dyn_peer[33]  lookupHopsSig:vector  ETV
vector 206066  Network.dyn_peer[33]  lookupTimeSig:vector  ETV
vector 206069  Network.dyn_peer[34]  lookupHopsSig:vector  ETV
vector 206068  Network.dyn_peer[34]  lookupTimeSig:vector  ETV
vector 206071  Network.dyn_peer[35]  lookupHopsSig:vector  ETV
vector 206070  Network.dyn_peer[35]  lookupTimeSig:vector  ETV
vector 206073  Network.dyn_peer[36]  lookupHopsSig:vector  ETV
vector 206072  Network.dyn_peer[36]  lookupTimeSig:vector  ETV
vector 206075  Network.dyn_peer[37]  lookupHopsSig:vector  ETV
vector 206074  Network.dyn_peer[37]  lookupTimeSig:vector  ETV
vector 206077  Network.dyn_peer[38]  lookupHopsSig:vector  ETV
vector 206076  Network.dyn_peer[38]  lookupTimeSig:vector  ETV
vector 206079  Network.dyn_peer[39]  lookupHopsSig:vector  ETV
vector 206078  Network.dyn_peer[39]  lookupTimeSig:vector  ETV
vector 206081  Network.dyn_peer[40]  lookupHopsSig:vector  ETV
vector 206080  Network.dyn_peer[40]  lookupTimeSig:vector  ETV
vector 206083  Network.dyn_peer[41]  lookupHopsSig:vector  ETV
vector 206082  Network.dyn_peer[41]  lookupTimeSig:vector  ETV
vector 206085  Network.dyn_peer[42]  lookupHopsSig:vector  ETV
vector 206084  Network.dyn_peer[42]  lookupTimeSig:vector  ETV
vector 206087  Network.dyn_peer[43]  lookupHopsSig:vector  ETV
vector 206086  Network.dyn_peer[43]  lookupTimeSig:vector  ETV
vector 206089  Network.dyn_peer[44]  lookupHopsSig:vector  ETV
vector 206088  Network.dyn_peer[44]  lookupTimeSig:vector  ETV
vector 206091  Network.dyn_peer[45]  lookupHopsSig:vector  ETV
vector 206090  Network.dyn_peer[45]  lookupTimeSig:vector  ETV
vector 206093  Network.dyn_peer[46]  lookupHopsSig:vector  ETV
vector 206092  Network.dyn_peer[46]  lookupTimeSig:vector  ETV
vector 206095  Network.dyn_peer[47]  lookupHopsSig:vector  ETV
vector 206094  Network.dyn_peer[47]  lookupTimeSig:vector  ETV
vector 206097  Network.dyn_peer[48]  lookupHopsSig:vector  ETV
vector 206096  Network.dyn_peer[48]  lookupTimeSig:vector  ETV
vector 206099  Network.dyn_peer[49]  lookupHopsSig:vector  ETV
vector 206098  Network.dyn_peer[49]  lookupTimeSig:vector  ETV
vector 206101  Network.dyn_peer[50]  lookupHopsSig:vector  ETV
vector 206100  Network.dyn_peer[50]  lookupTimeSig:vector  ETV
vector 206103  Network.dyn_peer[51]  lookupHopsSig:vector  ETV
vector 206102  Network.dyn_peer[51]  lookupTimeSig:vector  ETV
vector 206105  Network.dyn_peer[52]  lookupHopsSig:vector  ETV
vector 206104  Network.dyn_peer[52]  lookupTimeSig:vector  ETV
vector 206107  Network.dyn_peer[53]  lookupHopsSig:vector  ETV
vector 206106  Network.dyn_peer[53]  lookupTimeSig:vector  ETV
vector 206109  Network.dyn_peer[54]  lookupHopsSig:vector  ETV
vector 206108  Network.dyn_peer[54]  lookupTimeSig:vector  ETV
vector 206111  Network.dyn_peer[55]  lookupHopsSig:vector  ETV
vector 206110  Network.dyn_peer[55]  lookupTimeSig:vector  ETV
vector 206113  Network.dyn_peer[56]  lookupHopsSig:vector  ETV
vector 206112  Network.dyn_peer[56]  lookupTimeSig:vector  ETV
vector 206115  Network.dyn_peer[57]  lookupHopsSig:vector  ETV
vector 206114  Network.dyn_peer[57]  lookupTimeSig:vector  ETV
vector 206117  Network.dyn_peer[58]  lookupHopsSig:vector  ETV
vector 206116  Network.dyn_peer[58]  lookupTimeSig:vector  ETV
vector 206119  Network.dyn_peer[59]  lookupHopsSig:vector  ETV
vector 206118  Network.dyn_peer[59]  lookupTimeSig:vector  ETV
vector 206121  Network.dyn_peer[60]  lookupHopsSig:vector  ETV
vector 206120  Network.dyn_peer[60]  lookupTimeSig:vector  ETV
vector 206123  Network.dyn_peer[61]  lookupHopsSig:vector  ETV
vector 206122  Network.dyn_peer[61]  lookupTimeSig:vector  ETV
vector 206125  Network.dyn_peer[62]  lookupHopsSig:vector  ETV
vector 206124  Network.dyn_peer[62]  lookupTimeSig:vector  ETV
vector 206127  Network.dyn_peer[63]  lookupHopsSig:vector  ETV
vector 206126  Network.dyn_peer[63]  lookupTimeSig:vector  ETV
vector 206129  Network.dyn_peer[64]  lookupHopsSig:vector  ETV
vector 206128  Network.dyn_peer[64]  lookupTimeSig:vector  ETV
vector 206131  Network.dyn_peer[65]  lookupHopsSig:vector  ETV
vector 206130  Network.dyn_peer[65]  lookupTimeSig:vector  ETV
vector 206133  Network.dyn_peer[66]  lookupHopsSig:vector  ETV
vector 206132  Network.dyn_peer[66]  lookupTimeSig:vector  ETV
vector 206135  Network.dyn_peer[67]  lookupHopsSig:vector  ETV
vector 206134  Network.dyn_peer[67]  lookupTimeSig:vector  ETV
vector 206137  Network.dyn_peer[68]  lookupHopsSig:vector  ETV
vector 206136  Network.dyn_peer[68]  lookupTimeSig:vector  ETV
vector 206139  Network.dyn_peer[69]  lookupHopsSig:vector  ETV
vector 206138  Network.dyn_peer[69]  lookupTimeSig:vector  ETV
vector 206141  Network.dyn_peer[70]  lookupHopsSig:vector  ETV
vector 206140  Network.dyn_peer[70]  lookupTimeSig:vector  ETV
vector 206143  Network.dyn_peer[71]  lookupHopsSig:vector  ETV
vector 206142  Network.dyn_peer[71]  lookupTimeSig:vector  ETV
vector 206145  Network.dyn_peer[72]  lookupHopsSig:vector  ETV
vector 206144  Network.dyn_peer[72]  lookupTimeSig:vector  ETV
vector 206147  Network.dyn_peer[73]  lookupHopsSig:vector  ETV
vector 206146  Network.dyn_peer[73]  lookupTimeSig:vector  ETV
vector 206149  Network.dyn_peer[74]  lookupHopsSig:vector  ETV
vector 206148  Network.dyn_peer[74]  lookupTimeSig:vector  ETV
vector 206151  Network.dyn_peer[75]  lookupHopsSig:vector  ETV
vector 206150  Network.dyn_peer[75]  lookupTimeSig:vector  ETV
vector 206153  Network.dyn_peer[76]  lookupHopsSig:vector  ETV
vector 206152  Network.dyn_peer[76]  lookupTimeSig:vector  ETV
vector 206155  Network.dyn_peer[77]  lookupHopsSig:vector  ETV
vector 206154  Network.dyn_peer[77]  lookupTimeSig:vector  ETV
vector 206157  Network.dyn_peer[78]  lookupHopsSig:vector  ETV
vector 206156  Network.dyn_peer[78]  lookupTimeSig:vector  ETV
vector 206159  Network.dyn_peer[79]  lookupHopsSig:vector  ETV
vector 206158  Network.dyn_peer[79]  lookupTimeSig:vector  ETV
vector 206161  Network.dyn_peer[80]  lookupHopsSig:vector  ETV
vector 206160  Network.dyn_peer[80]  lookupTimeSig:vector  ETV
vector 206163  Network.dyn_peer[81]  lookupHopsSig:vector  ETV
vector 206162  Network.dyn_peer[81]  lookupTimeSig:vector  ETV
vector 206165  Network.dyn_peer[82]  lookupHopsSig:vector  ETV
vector 206164  Network.dyn_peer[82]  lookupTimeSig:vector  ETV
vector 206167  Network.dyn_peer[83]  lookupHopsSig:vector  ETV
vector 206166  Network.dyn_peer[83]  lookupTimeSig:vector  ETV
vector 206169  Network.dyn_peer[84]  lookupHopsSig:vector  ETV
vector 206168  Network.dyn_peer[84]  lookupTimeSig:vector  ETV
vector 206171  Network.dyn_peer[85]  lookupHopsSig:vector  ETV
vector 206170  Network.dyn_peer[85]  lookupTimeSig:vector  ETV
vector 206173  Network.dyn_peer[86]  lookupHopsSig:vector  ETV
vector 206172  Network.dyn_peer[86]  lookupTimeSig:vector  ETV
vector 206175  Network.dyn_peer[87]  lookupHopsSig:vector  ETV
vector 206174  Network.dyn_peer[87]  lookupTimeSig:vector  ETV
vector 206177  Network.dyn_peer[88]  lookupHopsSig:vector  ETV
vector 206176  Network.dyn_peer[88]  lookupTimeSig:vector  ETV
vector 206179  Network.dyn_peer[89]  lookupHopsSig:vector  ETV
vector 206178  Network.dyn_peer[89]  lookupTimeSig:vector  ETV
vector 206181  Network.dyn_peer[90]  lookupHopsSig:vector  ETV
vector 206180  Network.dyn_peer[90]  lookupTimeSig:vector  ETV
vector 206183  Network.dyn_peer[91]  lookupHopsSig:vector  ETV
vector 206182  Network.dyn_peer[91]  lookupTimeSig:vector  ETV
vector 206185  Network.dyn_peer[92]  lookupHopsSig:vector  ETV
vector 206184  Network.dyn_peer[92]  lookupTimeSig:vector  ETV
vector 206187  Network.dyn_peer[93]  lookupHopsSig:vector  ETV
vector 206186  Network.dyn_peer[93]  lookupTimeSig:vector  ETV
vector 206189  Network.dyn_peer[94]  lookupHopsSig:vector  ETV
vector 206188  Network.dyn_peer[94]  lookupTimeSig:vector  ETV
vector 206191  Network.dyn_peer[95]  lookupHopsSig:vector  ETV
vector 206190  Network.dyn_peer[95]  lookupTimeSig:vector  ETV
vector 206193  Network.dyn_peer[96]  lookupHopsSig:vector  ETV
vector 206192  Network.dyn_peer[96]  lookupTimeSig:vector  ETV
vector 206195  Network.dyn_peer[97]  lookupHopsSig:vector  ETV
vector 206194  Network.dyn_peer[97]  lookupTimeSig:vector  ETV
vector 206197  Network.dyn_peer[98]  lookupHopsSig:vector  ETV
vector 206196  Network.dyn_peer[98]  lookupTimeSig:vector  ETV
vector 206199  Network.dyn_peer[99]  lookupHopsSig:vector  ETV
vector 206198  Network.dyn_peer[99]  lookupTimeSig:vector  ETV
vector 206201  Network.dyn_peer[100]  lookupHopsSig:vector  ETV
vector 206200  Network.dyn_peer[100]  lookupTimeSig:vector  ETV
vector 206203  Network.dyn_peer[101]  lookupHopsSig:vector  ETV
vector 206202  Network.dyn_peer[101]  lookupTimeSig:vector  ETV
vector 206205  Network.dyn_peer[102]  lookupHopsSig:vector  ETV
vector 206204  Network.dyn_peer[102]  lookupTimeSig:vector  ETV
vector 206207  Network.dyn_peer[103]  lookupHopsSig:vector  ETV
vector 206206  Network.dyn_peer[103]  lookupTimeSig:vector  ETV
vector 206209  Network.dyn_peer[104]  lookupHopsSig:vector  ETV
vector 206208  Network.dyn_peer[104]  lookupTimeSig:vector  ETV
vector 206211  Network.dyn_peer[105]  lookupHopsSig:vector  ETV
vector 206210  Network.dyn_peer[105]  lookupTimeSig:vector  ETV
vector 206213  Network.dyn_peer[106]  lookupHopsSig:vector  ETV
vector 206212  Network.dyn_peer[106]  lookupTimeSig:vector  ETV
vector 206215  Network.dyn_peer[107]  lookupHopsSig:vector  ETV
vector 206214  Network.dyn_peer[107]  lookupTimeSig:vector  ETV
vector 206217  Network.dyn_peer[108]  lookupHopsSig:vector  ETV
vector 206216  Network.dyn_peer[108]  lookupTimeSig:vector  ETV
vector 206219  Network.dyn_peer[109]  lookupHopsSig:vector  ETV
vector 206218  Network.dyn_peer[109]  lookupTimeSig:vector  ETV
vector 206221  Network.dyn_peer[110]  lookupHopsSig:vector  ETV
vector 206220  Network.dyn_peer[110]  lookupTimeSig:vector  ETV
vector 206223  Network.dyn_peer[111]  lookupHopsSig:vector  ETV
vector 206222  Network.dyn_peer[111]  lookupTimeSig:vector  ETV
vector 206225  Network.dyn_peer[112]  lookupHopsSig:vector  ETV
vector 206224  Network.dyn_peer[112]  lookupTimeSig:vector  ETV
vector 206227  Network.dyn_peer[113]  lookupHopsSig:vector  ETV
vector 206226  Network.dyn_peer[113]  lookupTimeSig:vector  ETV
vector 206229  Network.dyn_peer[114]  lookupHopsSig:vector  ETV
vector 206228  Network.dyn_peer[114]  lookupTimeSig:vector  ETV
vector 206231  Network.dyn_peer[115]  lookupHopsSig:vector  ETV
vector 206230  Network.dyn_peer[115]  lookupTimeSig:vector  ETV
vector 206233  Network.dyn_peer[116]  lookupHopsSig:vector  ETV
vector 206232  Network.dyn_peer[116]  lookupTimeSig:vector  ETV
vector 206235  Network.dyn_peer[117]  lookupHopsSig:vector  ETV
vector 206234  Network.dyn_peer[117]  lookupTimeSig:vector  ETV
vector 206237  Network.dyn_peer[118]  lookupHopsSig:vector  ETV
vector 206236  Network.dyn_peer[118]  lookupTimeSig:vector  ETV
vector 206239  Network.dyn_peer[119]  lookupHopsSig:vector  ETV
vector 206238  Network.dyn_peer[119]  lookupTimeSig:vector  ETV
vector 206241  Network.dyn_peer[120]  lookupHopsSig:vector  ETV
vector 206240  Network.dyn_peer[120]  lookupTimeSig:vector  ETV
vector 206243  Network.dyn_peer[121]  lookupHopsSig:vector  ETV
vector 206242  Network.dyn_peer[121]  lookupTimeSig:vector  ETV
vector 206245  Network.dyn_peer[122]  lookupHopsSig:vector  ETV
vector 206244  Network.dyn_peer[122]  lookupTimeSig:vector  ETV
vector 206247  Network.dyn_peer[123]  lookupHopsSig:vector  ETV
vector 206246  Network.dyn_peer[123]  lookupTimeSig:vector  ETV
vector 206249  Network.dyn_peer[124]  lookupHopsSig:vector  ETV
vector 206248  Network.dyn_peer[124]  lookupTimeSig:vector  ETV
vector 206251  Network.dyn_peer[125]  lookupHopsSig:vector  ETV
vector 206250  Network.dyn_peer[125]  lookupTimeSig:vector  ETV
vector 206253  Network.dyn_peer[126]  lookupHopsSig:vector  ETV
vector 206252  Network.dyn_peer[126]  lookupTimeSig:vector  ETV
vector 206255  Network.dyn_peer[127]  lookupHopsSig:vector  ETV
vector 206254  Network.dyn_peer[127]  lookupTimeSig:vector  ETV
vector 206257  Network.dyn_peer[128]  lookupHopsSig:vector  ETV
vector 206256  Network.dyn_peer[128]  lookupTimeSig:vector  ETV
vector 206259  Network.dyn_peer[129]  lookupHopsSig:vector  ETV
vector 206258  Network.dyn_peer[129]  lookupTimeSig:vector  ETV
vector 206261  Network.dyn_peer[130]  lookupHopsSig:vector  ETV
vector 206260  Network.dyn_peer[130]  lookupTimeSig:vector  ETV
vector 206263  Network.dyn_peer[131]  lookupHopsSig:vector  ETV
vector 206262  Network.dyn_peer[131]  lookupTimeSig:vector  ETV
vector 206265  Network.dyn_peer[132]  lookupHopsSig:vector  ETV
vector 206264  Network.dyn_peer[132]  lookupTimeSig:vector  ETV
vector 206267  Network.dyn_peer[133]  lookupHopsSig:vector  ETV
vector 206266  Network.dyn_peer[133]  lookupTimeSig:vector  ETV
vector 206269  Network.dyn_peer[134]  lookupHopsSig:vector  ETV
vector 206268  Network.dyn_peer[134]  lookupTimeSig:vector  ETV
vector 206271  Network.dyn_peer[135]  lookupHopsSig:vector  ETV
vector 206270  Network.dyn_peer[135]  lookupTimeSig:vector  ETV
vector 206273  Network.dyn_peer[136]  lookupHopsSig:vector  ETV
vector 206272  Network.dyn_peer[136]  lookupTimeSig:vector  ETV
vector 206275  Network.dyn_peer[137]  lookupHopsSig:vector  ETV
vector 206274  Network.dyn_peer[137]  lookupTimeSig:vector  ETV
vector 206277  Network.dyn_peer[138]  lookupHopsSig:vector  ETV
vector 206276  Network.dyn_peer[138]  lookupTimeSig:vector  ETV
vector 206279  Network.dyn_peer[139]  lookupHopsSig:vector  ETV
vector 206278  Network.dyn_peer[139]  lookupTimeSig:vector  ETV
vector 206281  Network.dyn_peer[140]  lookupHopsSig:vector  ETV
vector 206280  Network.dyn_peer[140]  lookupTimeSig:vector  ETV
vector 206283  Network.dyn_peer[141]  lookupHopsSig:vector  ETV
vector 206282  Network.dyn_peer[141]  lookupTimeSig:vector  ETV
vector 206285  Network.dyn_peer[142]  lookupHopsSig:vector  ETV
vector 206284  Network.dyn_peer[142]  lookupTimeSig:vector  ETV
vector 206287  Network.dyn_peer[143]  lookupHopsSig:vector  ETV
vector 206286  Network.dyn_peer[143]  lookupTimeSig:vector  ETV
vector 206289  Network.dyn_peer[144]  lookupHopsSig:vector  ETV
vector 206288  Network.dyn_peer[144]  lookupTimeSig:vector  ETV
vector 206291  Network.dyn_peer[145]  lookupHopsSig:vector  ETV
vector 206290  Network.dyn_peer[145]  lookupTimeSig:vector  ETV
vector 206293  Network.dyn_peer[146]  lookupHopsSig:vector  ETV
vector 206292  Network.dyn_peer[146]  lookupTimeSig:vector  ETV
vector 206295  Network.dyn_peer[147]  lookupHopsSig:vector  ETV
vector 206294  Network.dyn_peer[147]  lookupTimeSig:vector  ETV
vector 206297  Network.dyn_peer[148]  lookupHopsSig:vector  ETV
vector 206296  Network.dyn_peer[148]  lookupTimeSig:vector  ETV
vector 206299  Network.dyn_peer[149]  lookupHopsSig:vector  ETV
vector 206298  Network.dyn_peer[149]  lookupTimeSig:vector  ETV
vector 206301  Network.dyn_peer[150]  lookupHopsSig:vector  ETV
vector 206300  Network.dyn_peer[150]  lookupTimeSig:vector  ETV
vector 206303  Network.dyn_peer[151]  lookupHopsSig:vector  ETV
vector 206302  Network.dyn_peer[151]  lookupTimeSig:vector  ETV
vector 206305  Network.dyn_peer[152]  lookupHopsSig:vector  ETV
vector 206304  Network.dyn_peer[152]  lookupTimeSig:vector  ETV
vector 206307  Network.dyn_peer[153]  lookupHopsSig:vector  ETV
vector 206306  Network.dyn_peer[153]  lookupTimeSig:vector  ETV
vector 206309  Network.dyn_peer[154]  lookupHopsSig:vector  ETV
vector 206308  Network.dyn_peer[154]  lookupTimeSig:vector  ETV
vector 206311  Network.dyn_peer[155]  lookupHopsSig:vector  ETV
vector 206310  Network.dyn_peer[155]  lookupTimeSig:vector  ETV
vector 206313  Network.dyn_peer[156]  lookupHopsSig:vector  ETV
vector 206312  Network.dyn_peer[156]  lookupTimeSig:vector  ETV
vector 206315  Network.dyn_peer[157]  lookupHopsSig:vector  ETV
vector 206314  Network.dyn_peer[157]  lookupTimeSig:vector  ETV
vector 206317  Network.dyn_peer[158]  lookupHopsSig:vector  ETV
vector 206316  Network.dyn_peer[158]  lookupTimeSig:vector  ETV
vector 206319  Network.dyn_peer[159]  lookupHopsSig:vector  ETV
vector 206318  Network.dyn_peer[159]  lookupTimeSig:vector  ETV
vector 206321  Network.dyn_peer[160]  lookupHopsSig:vector  ETV
vector 206320  Network.dyn_peer[160]  lookupTimeSig:vector  ETV
vector 206323  Network.dyn_peer[161]  lookupHopsSig:vector  ETV
vector 206322  Network.dyn_peer[161]  lookupTimeSig:vector  ETV
vector 206327  Network.dyn_peer[163]  lookupHopsSig:vector  ETV
vector 206326  Network.dyn_peer[163]  lookupTimeSig:vector  ETV
vector 206325  Network.dyn_peer[162]  lookupHopsSig:vector  ETV
vector 206324  Network.dyn_peer[162]  lookupTimeSig:vector  ETV
vector 206329  Network.dyn_peer[164]  lookupHopsSig:vector  ETV
vector 206328  Network.dyn_peer[164]  lookupTimeSig:vector  ETV
vector 206331  Network.dyn_peer[165]  lookupHopsSig:vector  ETV
vector 206330  Network.dyn_peer[165]  lookupTimeSig:vector  ETV
vector 206333  Network.dyn_peer[166]  lookupHopsSig:vector  ETV
vector 206332  Network.dyn_peer[166]  lookupTimeSig:vector  ETV
vector 206335  Network.dyn_peer[167]  lookupHopsSig:vector  ETV
vector 206334  Network.dyn_peer[167]  lookupTimeSig:vector  ETV
vector 206337  Network.dyn_peer[168]  lookupHopsSig:vector  ETV
vector 206336  Network.dyn_peer[168]  lookupTimeSig:vector  ETV
vector 206339  Network.dyn_peer[169]  lookupHopsSig:vector  ETV
vector 206338  Network.dyn_peer[169]  lookupTimeSig:vector  ETV
vector 206341  Network.dyn_peer[170]  lookupHopsSig:vector  ETV
vector 206340  Network.dyn_peer[170]  lookupTimeSig:vector  ETV
vector 206343  Network.dyn_peer[171]  lookupHopsSig:vector  ETV
vector 206342  Network.dyn_peer[171]  lookupTimeSig:vector  ETV
vector 206345  Network.dyn_peer[172]  lookupHopsSig:vector  ETV
vector 206344  Network.dyn_peer[172]  lookupTimeSig:vector  ETV
vector 206347  Network.dyn_peer[173]  lookupHopsSig:vector  ETV
vector 206346  Network.dyn_peer[173]  lookupTimeSig:vector  ETV
vector 206349  Network.dyn_peer[174]  lookupHopsSig:vector  ETV
vector 206348  Network.dyn_peer[174]  lookupTimeSig:vector  ETV
vector 206351  Network.dyn_peer[175]  lookupHopsSig:vector  ETV
vector 206350  Network.dyn_peer[175]  lookupTimeSig:vector  ETV
vector 206353  Network.dyn_peer[176]  lookupHopsSig:vector  ETV
vector 206352  Network.dyn_peer[176]  lookupTimeSig:vector  ETV
vector 206355  Network.dyn_peer[177]  lookupHopsSig:vector  ETV
vector 206354  Network.dyn_peer[177]  lookupTimeSig:vector  ETV
vector 206357  Network.dyn_peer[178]  lookupHopsSig:vector  ETV
vector 206356  Network.dyn_peer[178]  lookupTimeSig:vector  ETV
vector 206359  Network.dyn_peer[179]  lookupHopsSig:vector  ETV
vector 206358  Network.dyn_peer[179]  lookupTimeSig:vector  ETV
vector 206361  Network.dyn_peer[180]  lookupHopsSig:vector  ETV
vector 206360  Network.dyn_peer[180]  lookupTimeSig:vector  ETV
vector 206363  Network.dyn_peer[181]  lookupHopsSig:vector  ETV
vector 206362  Network.dyn_peer[181]  lookupTimeSig:vector  ETV
vector 206365  Network.dyn_peer[182]  lookupHopsSig:vector  ETV
vector 206364  Network.dyn_peer[182]  lookupTimeSig:vector  ETV
vector 206367  Network.dyn_peer[183]  lookupHopsSig:vector  ETV
vector 206366  Network.dyn_peer[183]  lookupTimeSig:vector  ETV
vector 206369  Network.dyn_peer[184]  lookupHopsSig:vector  ETV
vector 206368  Network.dyn_peer[184]  lookupTimeSig:vector  ETV
vector 206371  Network.dyn_peer[185]  lookupHopsSig:vector  ETV
vector 206370  Network.dyn_peer[185]  lookupTimeSig:vector  ETV
vector 206373  Network.dyn_peer[186]  lookupHopsSig:vector  ETV
vector 206372  Network.dyn_peer[186]  lookupTimeSig:vector  ETV
vector 206375  Network.dyn_peer[187]  lookupHopsSig:vector  ETV
vector 206374  Network.dyn_peer[187]  lookupTimeSig:vector  ETV
vector 206377  Network.dyn_peer[188]  lookupHopsSig:vector  ETV
vector 206376  Network.dyn_peer[188]  lookupTimeSig:vector  ETV
vector 206379  Network.dyn_peer[189]  lookupHopsSig:vector  ETV
vector 206378  Network.dyn_peer[189]  lookupTimeSig:vector  ETV
vector 206381  Network.dyn_peer[190]  lookupHopsSig:vector  ETV
vector 206380  Network.dyn_peer[190]  lookupTimeSig:vector  ETV
vector 206383  Network.dyn_peer[191]  lookupHopsSig:vector  ETV
vector 206382  Network.dyn_peer[191]  lookupTimeSig:vector  ETV
vector 206385  Network.dyn_peer[192]  lookupHopsSig:vector  ETV
vector 206384  Network.dyn_peer[192]  lookupTimeSig:vector  ETV
vector 206387  Network.dyn_peer[193]  lookupHopsSig:vector  ETV
vector 206386  Network.dyn_peer[193]  lookupTimeSig:vector  ETV
vector 206389  Network.dyn_peer[194]  lookupHopsSig:vector  ETV
vector 206388  Network.dyn_peer[194]  lookupTimeSig:vector  ETV
vector 206391  Network.dyn_peer[195]  lookupHopsSig:vector  ETV
vector 206390  Network.dyn_peer[195]  lookupTimeSig:vector  ETV
vector 206395  Network.dyn_peer[197]  lookupHopsSig:vector  ETV
vector 206394  Network.dyn_peer[197]  lookupTimeSig:vector  ETV
vector 206393  Network.dyn_peer[196]  lookupHopsSig:vector  ETV
vector 206392  Network.dyn_peer[196]  lookupTimeSig:vector  ETV
vector 206397  Network.dyn_peer[198]  lookupHopsSig:vector  ETV
vector 206396  Network.dyn_peer[198]  lookupTimeSig:vector  ETV
vector 206399  Network.dyn_peer[199]  lookupHopsSig:vector  ETV
vector 206398  Network.dyn_peer[199]  lookupTimeSig:vector  ETV
vector 206401  Network.dyn_peer[200]  lookupHopsSig:vector  ETV
vector 206400  Network.dyn_peer[200]  lookupTimeSig:vector  ETV
vector 206403  Network.dyn_peer[201]  lookupHopsSig:vector  ETV
vector 206402  Network.dyn_peer[201]  lookupTimeSig:vector  ETV
vector 206405  Network.dyn_peer[202]  lookupHopsSig:vector  ETV
vector 206404  Network.dyn_peer[202]  lookupTimeSig:vector  ETV
vector 206407  Network.dyn_peer[203]  lookupHopsSig:vector  ETV
vector 206406  Network.dyn_peer[203]  lookupTimeSig:vector  ETV
vector 206409  Network.dyn_peer[204]  lookupHopsSig:vector  ETV
vector 206408  Network.dyn_peer[204]  lookupTimeSig:vector  ETV
vector 206411  Network.dyn_peer[205]  lookupHopsSig:vector  ETV
vector 206410  Network.dyn_peer[205]  lookupTimeSig:vector  ETV
vector 206415  Network.dyn_peer[207]  lookupHopsSig:vector  ETV
vector 206414  Network.dyn_peer[207]  lookupTimeSig:vector  ETV
vector 206413  Network.dyn_peer[206]  lookupHopsSig:vector  ETV
vector 206412  Network.dyn_peer[206]  lookupTimeSig:vector  ETV
vector 206417  Network.dyn_peer[208]  lookupHopsSig:vector  ETV
vector 206416  Network.dyn_peer[208]  lookupTimeSig:vector  ETV
vector 206419  Network.dyn_peer[209]  lookupHopsSig:vector  ETV
vector 206418  Network.dyn_peer[209]  lookupTimeSig:vector  ETV
vector 206421  Network.dyn_peer[210]  lookupHopsSig:vector  ETV
vector 206420  Network.dyn_peer[210]  lookupTimeSig:vector  ETV
vector 206423  Network.dyn_peer[211]  lookupHopsSig:vector  ETV
vector 206422  Network.dyn_peer[211]  lookupTimeSig:vector  ETV
vector 206425  Network.dyn_peer[212]  lookupHopsSig:vector  ETV
vector 206424  Network.dyn_peer[212]  lookupTimeSig:vector  ETV
vector 206427  Network.dyn_peer[213]  lookupHopsSig:vector  ETV
vector 206426  Network.dyn_peer[213]  lookupTimeSig:vector  ETV
vector 206429  Network.dyn_peer[214]  lookupHopsSig:vector  ETV
vector 206428  Network.dyn_peer[214]  lookupTimeSig:vector  ETV
vector 206431  Network.dyn_peer[215]  lookupHopsSig:vector  ETV
vector 206430  Network.dyn_peer[215]  lookupTimeSig:vector  ETV
vector 206433  Network.dyn_peer[216]  lookupHopsSig:vector  ETV
vector 206432  Network.dyn_peer[216]  lookupTimeSig:vector  ETV
vector 206435  Network.dyn_peer[217]  lookupHopsSig:vector  ETV
vector 206434  Network.dyn_peer[217]  lookupTimeSig:vector  ETV
vector 206439  Network.dyn_peer[219]  lookupHopsSig:vector  ETV
vector 206438  Network.dyn_peer[219]  lookupTimeSig:vector  ETV
vector 206437  Network.dyn_peer[218]  lookupHopsSig:vector  ETV
vector 206436  Network.dyn_peer[218]  lookupTimeSig:vector  ETV
vector 206441  Network.dyn_peer[220]  lookupHopsSig:vector  ETV
vector 206440  Network.dyn_peer[220]  lookupTimeSig:vector  ETV
vector 206443  Network.dyn_peer[221]  lookupHopsSig:vector  ETV
vector 206442  Network.dyn_peer[221]  lookupTimeSig:vector  ETV
vector 206445  Network.dyn_peer[222]  lookupHopsSig:vector  ETV
vector 206444  Network.dyn_peer[222]  lookupTimeSig:vector  ETV
vector 206447  Network.dyn_peer[223]  lookupHopsSig:vector  ETV
vector 206446  Network.dyn_peer[223]  lookupTimeSig:vector  ETV
vector 206449  Network.dyn_peer[224]  lookupHopsSig:vector  ETV
vector 206448  Network.dyn_peer[224]  lookupTimeSig:vector  ETV
vector 206451  Network.dyn_peer[225]  lookupHopsSig:vector  ETV
vector 206450  Network.dyn_peer[225]  lookupTimeSig:vector  ETV
vector 206453  Network.dyn_peer[226]  lookupHopsSig:vector  ETV
vector 206452  Network.dyn_peer[226]  lookupTimeSig:vector  ETV
vector 206455  Network.dyn_peer[227]  lookupHopsSig:vector  ETV
vector 206454  Network.dyn_peer[227]  lookupTimeSig:vector  ETV
vector 206457  Network.dyn_peer[228]  lookupHopsSig:vector  ETV
vector 206456  Network.dyn_peer[228]  lookupTimeSig:vector  ETV
vector 206459  Network.dyn_peer[229]  lookupHopsSig:vector  ETV
vector 206458  Network.dyn_peer[229]  lookupTimeSig:vector  ETV
vector 206461  Network.dyn_peer[230]  lookupHopsSig:vector  ETV
vector 206460  Network.dyn_peer[230]  lookupTimeSig:vector  ETV
vector 206463  Network.dyn_peer[231]  lookupHopsSig:vector  ETV
vector 206462  Network.dyn_peer[231]  lookupTimeSig:vector  ETV
vector 206467  Network.dyn_peer[233]  lookupHopsSig:vector  ETV