version 2
run Stability-48-20130521-22:25:35-23591
attr configname Stability
attr datetime 20130521-22:25:35
attr experiment Stability
attr inifile omnetpp.ini
attr iterationvars $0=4
attr iterationvars2 "$0=4, $repetition=18"
attr measurement $0=4
attr network Network
attr processid 23591
attr repetition 18
attr replication #18
attr resultdir results
attr runnumber 48
attr seedset 48

vector 96001  Network.dyn_peer[0]  lookupHopsSig:vector  ETV
vector 96000  Network.dyn_peer[0]  lookupTimeSig:vector  ETV
vector 96003  Network.dyn_peer[1]  lookupHopsSig:vector  ETV
vector 96002  Network.dyn_peer[1]  lookupTimeSig:vector  ETV
vector 96005  Network.dyn_peer[2]  lookupHopsSig:vector  ETV
vector 96004  Network.dyn_peer[2]  lookupTimeSig:vector  ETV
vector 96007  Network.dyn_peer[3]  lookupHopsSig:vector  ETV
vector 96006  Network.dyn_peer[3]  lookupTimeSig:vector  ETV
vector 96009  Network.dyn_peer[4]  lookupHopsSig:vector  ETV
vector 96008  Network.dyn_peer[4]  lookupTimeSig:vector  ETV
vector 96011  Network.dyn_peer[5]  lookupHopsSig:vector  ETV
vector 96010  Network.dyn_peer[5]  lookupTimeSig:vector  ETV
vector 96013  Network.dyn_peer[6]  lookupHopsSig:vector  ETV
vector 96012  Network.dyn_peer[6]  lookupTimeSig:vector  ETV
vector 96015  Network.dyn_peer[7]  lookupHopsSig:vector  ETV
vector 96014  Network.dyn_peer[7]  lookupTimeSig:vector  ETV
vector 96017  Network.dyn_peer[8]  lookupHopsSig:vector  ETV
vector 96016  Network.dyn_peer[8]  lookupTimeSig:vector  ETV
vector 96019  Network.dyn_peer[9]  lookupHopsSig:vector  ETV
vector 96018  Network.dyn_peer[9]  lookupTimeSig:vector  ETV
vector 96021  Network.dyn_peer[10]  lookupHopsSig:vector  ETV
vector 96020  Network.dyn_peer[10]  lookupTimeSig:vector  ETV
vector 96023  Network.dyn_peer[11]  lookupHopsSig:vector  ETV
vector 96022  Network.dyn_peer[11]  lookupTimeSig:vector  ETV
vector 96025  Network.dyn_peer[12]  lookupHopsSig:vector  ETV
vector 96024  Network.dyn_peer[12]  lookupTimeSig:vector  ETV
vector 96027  Network.dyn_peer[13]  lookupHopsSig:vector  ETV
vector 96026  Network.dyn_peer[13]  lookupTimeSig:vector  ETV
vector 96029  Network.dyn_peer[14]  lookupHopsSig:vector  ETV
vector 96028  Network.dyn_peer[14]  lookupTimeSig:vector  ETV
vector 96031  Network.dyn_peer[15]  lookupHopsSig:vector  ETV
vector 96030  Network.dyn_peer[15]  lookupTimeSig:vector  ETV
vector 96033  Network.dyn_peer[16]  lookupHopsSig:vector  ETV
vector 96032  Network.dyn_peer[16]  lookupTimeSig:vector  ETV
vector 96035  Network.dyn_peer[17]  lookupHopsSig:vector  ETV
vector 96034  Network.dyn_peer[17]  lookupTimeSig:vector  ETV
vector 96037  Network.dyn_peer[18]  lookupHopsSig:vector  ETV
vector 96036  Network.dyn_peer[18]  lookupTimeSig:vector  ETV
vector 96039  Network.dyn_peer[19]  lookupHopsSig:vector  ETV
vector 96038  Network.dyn_peer[19]  lookupTimeSig:vector  ETV
vector 96041  Network.dyn_peer[20]  lookupHopsSig:vector  ETV
vector 96040  Network.dyn_peer[20]  lookupTimeSig:vector  ETV
vector 96043  Network.dyn_peer[21]  lookupHopsSig:vector  ETV
vector 96042  Network.dyn_peer[21]  lookupTimeSig:vector  ETV
vector 96045  Network.dyn_peer[22]  lookupHopsSig:vector  ETV
vector 96044  Network.dyn_peer[22]  lookupTimeSig:vector  ETV
vector 96047  Network.dyn_peer[23]  lookupHopsSig:vector  ETV
vector 96046  Network.dyn_peer[23]  lookupTimeSig:vector  ETV
vector 96049  Network.dyn_peer[24]  lookupHopsSig:vector  ETV
vector 96048  Network.dyn_peer[24]  lookupTimeSig:vector  ETV
vector 96051  Network.dyn_peer[25]  lookupHopsSig:vector  ETV
vector 96050  Network.dyn_peer[25]  lookupTimeSig:vector  ETV
vector 96053  Network.dyn_peer[26]  lookupHopsSig:vector  ETV
vector 96052  Network.dyn_peer[26]  lookupTimeSig:vector  ETV
vector 96055  Network.dyn_peer[27]  lookupHopsSig:vector  ETV
vector 96054  Network.dyn_peer[27]  lookupTimeSig:vector  ETV
vector 96057  Network.dyn_peer[28]  lookupHopsSig:vector  ETV
vector 96056  Network.dyn_peer[28]  lookupTimeSig:vector  ETV
vector 96059  Network.dyn_peer[29]  lookupHopsSig:vector  ETV
vector 96058  Network.dyn_peer[29]  lookupTimeSig:vector  ETV
vector 96061  Network.dyn_peer[30]  lookupHopsSig:vector  ETV
vector 96060  Network.dyn_peer[30]  lookupTimeSig:vector  ETV
vector 96063  Network.dyn_peer[31]  lookupHopsSig:vector  ETV
vector 96062  Network.dyn_peer[31]  lookupTimeSig:vector  ETV
vector 96065  Network.dyn_peer[32]  lookupHopsSig:vector  ETV
vector 96064  Network.dyn_peer[32]  lookupTimeSig:vector  ETV
vector 96067  Network.dyn_peer[33]  lookupHopsSig:vector  ETV
vector 96066  Network.dyn_peer[33]  lookupTimeSig:vector  ETV
vector 96069  Network.dyn_peer[34]  lookupHopsSig:vector  ETV
vector 96068  Network.dyn_peer[34]  lookupTimeSig:vector  ETV
vector 96071  Network.dyn_peer[35]  lookupHopsSig:vector  ETV
vector 96070  Network.dyn_peer[35]  lookupTimeSig:vector  ETV
vector 96073  Network.dyn_peer[36]  lookupHopsSig:vector  ETV
vector 96072  Network.dyn_peer[36]  lookupTimeSig:vector  ETV
vector 96075  Network.dyn_peer[37]  lookupHopsSig:vector  ETV
vector 96074  Network.dyn_peer[37]  lookupTimeSig:vector  ETV
vector 96077  Network.dyn_peer[38]  lookupHopsSig:vector  ETV
vector 96076  Network.dyn_peer[38]  lookupTimeSig:vector  ETV
vector 96079  Network.dyn_peer[39]  lookupHopsSig:vector  ETV
vector 96078  Network.dyn_peer[39]  lookupTimeSig:vector  ETV
vector 96081  Network.dyn_peer[40]  lookupHopsSig:vector  ETV
vector 96080  Network.dyn_peer[40]  lookupTimeSig:vector  ETV
vector 96083  Network.dyn_peer[41]  lookupHopsSig:vector  ETV
vector 96082  Network.dyn_peer[41]  lookupTimeSig:vector  ETV
vector 96085  Network.dyn_peer[42]  lookupHopsSig:vector  ETV
vector 96084  Network.dyn_peer[42]  lookupTimeSig:vector  ETV
vector 96087  Network.dyn_peer[43]  lookupHopsSig:vector  ETV
vector 96086  Network.dyn_peer[43]  lookupTimeSig:vector  ETV
vector 96089  Network.dyn_peer[44]  lookupHopsSig:vector  ETV
vector 96088  Network.dyn_peer[44]  lookupTimeSig:vector  ETV
vector 96091  Network.dyn_peer[45]  lookupHopsSig:vector  ETV
vector 96090  Network.dyn_peer[45]  lookupTimeSig:vector  ETV
vector 96093  Network.dyn_peer[46]  lookupHopsSig:vector  ETV
vector 96092  Network.dyn_peer[46]  lookupTimeSig:vector  ETV
vector 96095  Network.dyn_peer[47]  lookupHopsSig:vector  ETV
vector 96094  Network.dyn_peer[47]  lookupTimeSig:vector  ETV
vector 96097  Network.dyn_peer[48]  lookupHopsSig:vector  ETV
vector 96096  Network.dyn_peer[48]  lookupTimeSig:vector  ETV
vector 96099  Network.dyn_peer[49]  lookupHopsSig:vector  ETV
vector 96098  Network.dyn_peer[49]  lookupTimeSig:vector  ETV
vector 96101  Network.dyn_peer[50]  lookupHopsSig:vector  ETV
vector 96100  Network.dyn_peer[50]  lookupTimeSig:vector  ETV
vector 96103  Network.dyn_peer[51]  lookupHopsSig:vector  ETV
vector 96102  Network.dyn_peer[51]  lookupTimeSig:vector  ETV
vector 96105  Network.dyn_peer[52]  lookupHopsSig:vector  ETV
vector 96104  Network.dyn_peer[52]  lookupTimeSig:vector  ETV
vector 96107  Network.dyn_peer[53]  lookupHopsSig:vector  ETV
vector 96106  Network.dyn_peer[53]  lookupTimeSig:vector  ETV
vector 96109  Network.dyn_peer[54]  lookupHopsSig:vector  ETV
vector 96108  Network.dyn_peer[54]  lookupTimeSig:vector  ETV
vector 96111  Network.dyn_peer[55]  lookupHopsSig:vector  ETV
vector 96110  Network.dyn_peer[55]  lookupTimeSig:vector  ETV
vector 96113  Network.dyn_peer[56]  lookupHopsSig:vector  ETV
vector 96112  Network.dyn_peer[56]  lookupTimeSig:vector  ETV
vector 96115  Network.dyn_peer[57]  lookupHopsSig:vector  ETV
vector 96114  Network.dyn_peer[57]  lookupTimeSig:vector  ETV
vector 96117  Network.dyn_peer[58]  lookupHopsSig:vector  ETV
vector 96116  Network.dyn_peer[58]  lookupTimeSig:vector  ETV
vector 96119  Network.dyn_peer[59]  lookupHopsSig:vector  ETV
vector 96118  Network.dyn_peer[59]  lookupTimeSig:vector  ETV
vector 96121  Network.dyn_peer[60]  lookupHopsSig:vector  ETV
vector 96120  Network.dyn_peer[60]  lookupTimeSig:vector  ETV
vector 96123  Network.dyn_peer[61]  lookupHopsSig:vector  ETV
vector 96122  Network.dyn_peer[61]  lookupTimeSig:vector  ETV
vector 96125  Network.dyn_peer[62]  lookupHopsSig:vector  ETV
vector 96124  Network.dyn_peer[62]  lookupTimeSig:vector  ETV
vector 96127  Network.dyn_peer[63]  lookupHopsSig:vector  ETV
vector 96126  Network.dyn_peer[63]  lookupTimeSig:vector  ETV
vector 96129  Network.dyn_peer[64]  lookupHopsSig:vector  ETV
vector 96128  Network.dyn_peer[64]  lookupTimeSig:vector  ETV
vector 96131  Network.dyn_peer[65]  lookupHopsSig:vector  ETV
vector 96130  Network.dyn_peer[65]  lookupTimeSig:vector  ETV
vector 96133  Network.dyn_peer[66]  lookupHopsSig:vector  ETV
vector 96132  Network.dyn_peer[66]  lookupTimeSig:vector  ETV
vector 96135  Network.dyn_peer[67]  lookupHopsSig:vector  ETV
vector 96134  Network.dyn_peer[67]  lookupTimeSig:vector  ETV
vector 96137  Network.dyn_peer[68]  lookupHopsSig:vector  ETV
vector 96136  Network.dyn_peer[68]  lookupTimeSig:vector  ETV
vector 96139  Network.dyn_peer[69]  lookupHopsSig:vector  ETV
vector 96138  Network.dyn_peer[69]  lookupTimeSig:vector  ETV
vector 96141  Network.dyn_peer[70]  lookupHopsSig:vector  ETV
vector 96140  Network.dyn_peer[70]  lookupTimeSig:vector  ETV
vector 96143  Network.dyn_peer[71]  lookupHopsSig:vector  ETV
vector 96142  Network.dyn_peer[71]  lookupTimeSig:vector  ETV
vector 96145  Network.dyn_peer[72]  lookupHopsSig:vector  ETV
vector 96144  Network.dyn_peer[72]  lookupTimeSig:vector  ETV
vector 96147  Network.dyn_peer[73]  lookupHopsSig:vector  ETV
vector 96146  Network.dyn_peer[73]  lookupTimeSig:vector  ETV
vector 96149  Network.dyn_peer[74]  lookupHopsSig:vector  ETV
vector 96148  Network.dyn_peer[74]  lookupTimeSig:vector  ETV
vector 96151  Network.dyn_peer[75]  lookupHopsSig:vector  ETV
vector 96150  Network.dyn_peer[75]  lookupTimeSig:vector  ETV
vector 96153  Network.dyn_peer[76]  lookupHopsSig:vector  ETV
vector 96152  Network.dyn_peer[76]  lookupTimeSig:vector  ETV
vector 96155  Network.dyn_peer[77]  lookupHopsSig:vector  ETV
vector 96154  Network.dyn_peer[77]  lookupTimeSig:vector  ETV
vector 96157  Network.dyn_peer[78]  lookupHopsSig:vector  ETV
vector 96156  Network.dyn_peer[78]  lookupTimeSig:vector  ETV
vector 96159  Network.dyn_peer[79]  lookupHopsSig:vector  ETV
vector 96158  Network.dyn_peer[79]  lookupTimeSig:vector  ETV
vector 96161  Network.dyn_peer[80]  lookupHopsSig:vector  ETV
vector 96160  Network.dyn_peer[80]  lookupTimeSig:vector  ETV
vector 96163  Network.dyn_peer[81]  lookupHopsSig:vector  ETV
vector 96162  Network.dyn_peer[81]  lookupTimeSig:vector  ETV
vector 96165  Network.dyn_peer[82]  lookupHopsSig:vector  ETV
vector 96164  Network.dyn_peer[82]  lookupTimeSig:vector  ETV
vector 96167  Network.dyn_peer[83]  lookupHopsSig:vector  ETV
vector 96166  Network.dyn_peer[83]  lookupTimeSig:vector  ETV
vector 96169  Network.dyn_peer[84]  lookupHopsSig:vector  ETV
vector 96168  Network.dyn_peer[84]  lookupTimeSig:vector  ETV
vector 96171  Network.dyn_peer[85]  lookupHopsSig:vector  ETV
vector 96170  Network.dyn_peer[85]  lookupTimeSig:vector  ETV
vector 96173  Network.dyn_peer[86]  lookupHopsSig:vector  ETV
vector 96172  Network.dyn_peer[86]  lookupTimeSig:vector  ETV
vector 96175  Network.dyn_peer[87]  lookupHopsSig:vector  ETV
vector 96174  Network.dyn_peer[87]  lookupTimeSig:vector  ETV
vector 96177  Network.dyn_peer[88]  lookupHopsSig:vector  ETV
vector 96176  Network.dyn_peer[88]  lookupTimeSig:vector  ETV
vector 96179  Network.dyn_peer[89]  lookupHopsSig:vector  ETV
vector 96178  Network.dyn_peer[89]  lookupTimeSig:vector  ETV
vector 96181  Network.dyn_peer[90]  lookupHopsSig:vector  ETV
vector 96180  Network.dyn_peer[90]  lookupTimeSig:vector  ETV
vector 96183  Network.dyn_peer[91]  lookupHopsSig:vector  ETV
vector 96182  Network.dyn_peer[91]  lookupTimeSig:vector  ETV
vector 96185  Network.dyn_peer[92]  lookupHopsSig:vector  ETV
vector 96184  Network.dyn_peer[92]  lookupTimeSig:vector  ETV
vector 96187  Network.dyn_peer[93]  lookupHopsSig:vector  ETV
vector 96186  Network.dyn_peer[93]  lookupTimeSig:vector  ETV
vector 96189  Network.dyn_peer[94]  lookupHopsSig:vector  ETV
vector 96188  Network.dyn_peer[94]  lookupTimeSig:vector  ETV
vector 96191  Network.dyn_peer[95]  lookupHopsSig:vector  ETV
vector 96190  Network.dyn_peer[95]  lookupTimeSig:vector  ETV
vector 96193  Network.dyn_peer[96]  lookupHopsSig:vector  ETV
vector 96192  Network.dyn_peer[96]  lookupTimeSig:vector  ETV
vector 96195  Network.dyn_peer[97]  lookupHopsSig:vector  ETV
vector 96194  Network.dyn_peer[97]  lookupTimeSig:vector  ETV
vector 96197  Network.dyn_peer[98]  lookupHopsSig:vector  ETV
vector 96196  Network.dyn_peer[98]  lookupTimeSig:vector  ETV
vector 96199  Network.dyn_peer[99]  lookupHopsSig:vector  ETV
vector 96198  Network.dyn_peer[99]  lookupTimeSig:vector  ETV
vector 96201  Network.dyn_peer[100]  lookupHopsSig:vector  ETV
vector 96200  Network.dyn_peer[100]  lookupTimeSig:vector  ETV
vector 96203  Network.dyn_peer[101]  lookupHopsSig:vector  ETV
vector 96202  Network.dyn_peer[101]  lookupTimeSig:vector  ETV
vector 96205  Network.dyn_peer[102]  lookupHopsSig:vector  ETV
vector 96204  Network.dyn_peer[102]  lookupTimeSig:vector  ETV
vector 96207  Network.dyn_peer[103]  lookupHopsSig:vector  ETV
vector 96206  Network.dyn_peer[103]  lookupTimeSig:vector  ETV
vector 96209  Network.dyn_peer[104]  lookupHopsSig:vector  ETV
vector 96208  Network.dyn_peer[104]  lookupTimeSig:vector  ETV
vector 96211  Network.dyn_peer[105]  lookupHopsSig:vector  ETV
vector 96210  Network.dyn_peer[105]  lookupTimeSig:vector  ETV
vector 96213  Network.dyn_peer[106]  lookupHopsSig:vector  ETV
vector 96212  Network.dyn_peer[106]  lookupTimeSig:vector  ETV
vector 96215  Network.dyn_peer[107]  lookupHopsSig:vector  ETV
vector 96214  Network.dyn_peer[107]  lookupTimeSig:vector  ETV
vector 96217  Network.dyn_peer[108]  lookupHopsSig:vector  ETV
vector 96216  Network.dyn_peer[108]  lookupTimeSig:vector  ETV
vector 96219  Network.dyn_peer[109]  lookupHopsSig:vector  ETV
vector 96218  Network.dyn_peer[109]  lookupTimeSig:vector  ETV
vector 96221  Network.dyn_peer[110]  lookupHopsSig:vector  ETV
vector 96220  Network.dyn_peer[110]  lookupTimeSig:vector  ETV
vector 96223  Network.dyn_peer[111]  lookupHopsSig:vector  ETV
vector 96222  Network.dyn_peer[111]  lookupTimeSig:vector  ETV
vector 96225  Network.dyn_peer[112]  lookupHopsSig:vector  ETV
vector 96224  Network.dyn_peer[112]  lookupTimeSig:vector  ETV
vector 96227  Network.dyn_peer[113]  lookupHopsSig:vector  ETV
vector 96226  Network.dyn_peer[113]  lookupTimeSig:vector  ETV
vector 96229  Network.dyn_peer[114]  lookupHopsSig:vector  ETV
vector 96228  Network.dyn_peer[114]  lookupTimeSig:vector  ETV
vector 96231  Network.dyn_peer[115]  lookupHopsSig:vector  ETV
vector 96230  Network.dyn_peer[115]  lookupTimeSig:vector  ETV
vector 96233  Network.dyn_peer[116]  lookupHopsSig:vector  ETV
vector 96232  Network.dyn_peer[116]  lookupTimeSig:vector  ETV
vector 96235  Network.dyn_peer[117]  lookupHopsSig:vector  ETV
vector 96234  Network.dyn_peer[117]  lookupTimeSig:vector  ETV
vector 96237  Network.dyn_peer[118]  lookupHopsSig:vector  ETV
vector 96236  Network.dyn_peer[118]  lookupTimeSig:vector  ETV
vector 96239  Network.dyn_peer[119]  lookupHopsSig:vector  ETV
vector 96238  Network.dyn_peer[119]  lookupTimeSig:vector  ETV
vector 96241  Network.dyn_peer[120]  lookupHopsSig:vector  ETV
vector 96240  Network.dyn_peer[120]  lookupTimeSig:vector  ETV
vector 96243  Network.dyn_peer[121]  lookupHopsSig:vector  ETV
vector 96242  Network.dyn_peer[121]  lookupTimeSig:vector  ETV
vector 96245  Network.dyn_peer[122]  lookupHopsSig:vector  ETV
vector 96244  Network.dyn_peer[122]  lookupTimeSig:vector  ETV
vector 96247  Network.dyn_peer[123]  lookupHopsSig:vector  ETV
vector 96246  Network.dyn_peer[123]  lookupTimeSig:vector  ETV
vector 96249  Network.dyn_peer[124]  lookupHopsSig:vector  ETV
vector 96248  Network.dyn_peer[124]  lookupTimeSig:vector  ETV
vector 96251  Network.dyn_peer[125]  lookupHopsSig:vector  ETV
vector 96250  Network.dyn_peer[125]  lookupTimeSig:vector  ETV
vector 96253  Network.dyn_peer[126]  lookupHopsSig:vector  ETV
vector 96252  Network.dyn_peer[126]  lookupTimeSig:vector  ETV
vector 96255  Network.dyn_peer[127]  lookupHopsSig:vector  ETV
vector 96254  Network.dyn_peer[127]  lookupTimeSig:vector  ETV
vector 96257  Network.dyn_peer[128]  lookupHopsSig:vector  ETV
vector 96256  Network.dyn_peer[128]  lookupTimeSig:vector  ETV
vector 96259  Network.dyn_peer[129]  lookupHopsSig:vector  ETV
vector 96258  Network.dyn_peer[129]  lookupTimeSig:vector  ETV
vector 96261  Network.dyn_peer[130]  lookupHopsSig:vector  ETV
vector 96260  Network.dyn_peer[130]  lookupTimeSig:vector  ETV
vector 96263  Network.dyn_peer[131]  lookupHopsSig:vector  ETV
vector 96262  Network.dyn_peer[131]  lookupTimeSig:vector  ETV
vector 96265  Network.dyn_peer[132]  lookupHopsSig:vector  ETV
vector 96264  Network.dyn_peer[132]  lookupTimeSig:vector  ETV
vector 96267  Network.dyn_peer[133]  lookupHopsSig:vector  ETV
vector 96266  Network.dyn_peer[133]  lookupTimeSig:vector  ETV
vector 96269  Network.dyn_peer[134]  lookupHopsSig:vector  ETV
vector 96268  Network.dyn_peer[134]  lookupTimeSig:vector  ETV
vector 96271  Network.dyn_peer[135]  lookupHopsSig:vector  ETV
vector 96270  Network.dyn_peer[135]  lookupTimeSig:vector  ETV
vector 96273  Network.dyn_peer[136]  lookupHopsSig:vector  ETV
vector 96272  Network.dyn_peer[136]  lookupTimeSig:vector  ETV
vector 96275  Network.dyn_peer[137]  lookupHopsSig:vector  ETV
vector 96274  Network.dyn_peer[137]  lookupTimeSig:vector  ETV
vector 96277  Network.dyn_peer[138]  lookupHopsSig:vector  ETV
vector 96276  Network.dyn_peer[138]  lookupTimeSig:vector  ETV
vector 96279  Network.dyn_peer[139]  lookupHopsSig:vector  ETV
vector 96278  Network.dyn_peer[139]  lookupTimeSig:vector  ETV
vector 96281  Network.dyn_peer[140]  lookupHopsSig:vector  ETV
vector 96280  Network.dyn_peer[140]  lookupTimeSig:vector  ETV
vector 96283  Network.dyn_peer[141]  lookupHopsSig:vector  ETV
vector 96282  Network.dyn_peer[141]  lookupTimeSig:vector  ETV
vector 96285  Network.dyn_peer[142]  lookupHopsSig:vector  ETV
vector 96284  Network.dyn_peer[142]  lookupTimeSig:vector  ETV
vector 96287  Network.dyn_peer[143]  lookupHopsSig:vector  ETV
vector 96286  Network.dyn_peer[143]  lookupTimeSig:vector  ETV
vector 96289  Network.dyn_peer[144]  lookupHopsSig:vector  ETV
vector 96288  Network.dyn_peer[144]  lookupTimeSig:vector  ETV
vector 96291  Network.dyn_peer[145]  lookupHopsSig:vector  ETV
vector 96290  Network.dyn_peer[145]  lookupTimeSig:vector  ETV
vector 96293  Network.dyn_peer[146]  lookupHopsSig:vector  ETV
vector 96292  Network.dyn_peer[146]  lookupTimeSig:vector  ETV
vector 96295  Network.dyn_peer[147]  lookupHopsSig:vector  ETV
vector 96294  Network.dyn_peer[147]  lookupTimeSig:vector  ETV
vector 96297  Network.dyn_peer[148]  lookupHopsSig:vector  ETV
vector 96296  Network.dyn_peer[148]  lookupTimeSig:vector  ETV
vector 96299  Network.dyn_peer[149]  lookupHopsSig:vector  ETV
vector 96298  Network.dyn_peer[149]  lookupTimeSig:vector  ETV
vector 96301  Network.dyn_peer[150]  lookupHopsSig:vector  ETV
vector 96300  Network.dyn_peer[150]  lookupTimeSig:vector  ETV
vector 96303  Network.dyn_peer[151]  lookupHopsSig:vector  ETV
vector 96302  Network.dyn_peer[151]  lookupTimeSig:vector  ETV
vector 96305  Network.dyn_peer[152]  lookupHopsSig:vector  ETV
vector 96304  Network.dyn_peer[152]  lookupTimeSig:vector  ETV
vector 96307  Network.dyn_peer[153]  lookupHopsSig:vector  ETV
vector 96306  Network.dyn_peer[153]  lookupTimeSig:vector  ETV
vector 96309  Network.dyn_peer[154]  lookupHopsSig:vector  ETV
vector 96308  Network.dyn_peer[154]  lookupTimeSig:vector  ETV
vector 96311  Network.dyn_peer[155]  lookupHopsSig:vector  ETV
vector 96310  Network.dyn_peer[155]  lookupTimeSig:vector  ETV
vector 96313  Network.dyn_peer[156]  lookupHopsSig:vector  ETV
vector 96312  Network.dyn_peer[156]  lookupTimeSig:vector  ETV
vector 96315  Network.dyn_peer[157]  lookupHopsSig:vector  ETV
vector 96314  Network.dyn_peer[157]  lookupTimeSig:vector  ETV
vector 96317  Network.dyn_peer[158]  lookupHopsSig:vector  ETV
vector 96316  Network.dyn_peer[158]  lookupTimeSig:vector  ETV
vector 96319  Network.dyn_peer[159]  lookupHopsSig:vector  ETV
vector 96318  Network.dyn_peer[159]  lookupTimeSig:vector  ETV
vector 96321  Network.dyn_peer[160]  lookupHopsSig:vector  ETV
vector 96320  Network.dyn_peer[160]  lookupTimeSig:vector  ETV
vector 96323  Network.dyn_peer[161]  lookupHopsSig:vector  ETV
vector 96322  Network.dyn_peer[161]  lookupTimeSig:vector  ETV
vector 96325  Network.dyn_peer[162]  lookupHopsSig:vector  ETV
vector 96324  Network.dyn_peer[162]  lookupTimeSig:vector  ETV
vector 96327  Network.dyn_peer[163]  lookupHopsSig:vector  ETV
vector 96326  Network.dyn_peer[163]  lookupTimeSig:vector  ETV
vector 96329  Network.dyn_peer[164]  lookupHopsSig:vector  ETV
vector 96328  Network.dyn_peer[164]  lookupTimeSig:vector  ETV
vector 96331  Network.dyn_peer[165]  lookupHopsSig:vector  ETV
vector 96330  Network.dyn_peer[165]  lookupTimeSig:vector  ETV
vector 96333  Network.dyn_peer[166]  lookupHopsSig:vector  ETV
vector 96332  Network.dyn_peer[166]  lookupTimeSig:vector  ETV
vector 96335  Network.dyn_peer[167]  lookupHopsSig:vector  ETV
vector 96334  Network.dyn_peer[167]  lookupTimeSig:vector  ETV
vector 96337  Network.dyn_peer[168]  lookupHopsSig:vector  ETV
vector 96336  Network.dyn_peer[168]  lookupTimeSig:vector  ETV
vector 96339  Network.dyn_peer[169]  lookupHopsSig:vector  ETV
vector 96338  Network.dyn_peer[169]  lookupTimeSig:vector  ETV
vector 96341  Network.dyn_peer[170]  lookupHopsSig:vector  ETV
vector 96340  Network.dyn_peer[170]  lookupTimeSig:vector  ETV
vector 96343  Network.dyn_peer[171]  lookupHopsSig:vector  ETV
vector 96342  Network.dyn_peer[171]  lookupTimeSig:vector  ETV
vector 96345  Network.dyn_peer[172]  lookupHopsSig:vector  ETV
vector 96344  Network.dyn_peer[172]  lookupTimeSig:vector  ETV
vector 96347  Network.dyn_peer[173]  lookupHopsSig:vector  ETV
vector 96346  Network.dyn_peer[173]  lookupTimeSig:vector  ETV
vector 96349  Network.dyn_peer[174]  lookupHopsSig:vector  ETV
vector 96348  Network.dyn_peer[174]  lookupTimeSig:vector  ETV
vector 96351  Network.dyn_peer[175]  lookupHopsSig:vector  ETV
vector 96350  Network.dyn_peer[175]  lookupTimeSig:vector  ETV
vector 96353  Network.dyn_peer[176]  lookupHopsSig:vector  ETV
vector 96352  Network.dyn_peer[176]  lookupTimeSig:vector  ETV
vector 96355  Network.dyn_peer[177]  lookupHopsSig:vector  ETV
vector 96354  Network.dyn_peer[177]  lookupTimeSig:vector  ETV
vector 96357  Network.dyn_peer[178]  lookupHopsSig:vector  ETV
vector 96356  Network.dyn_peer[178]  lookupTimeSig:vector  ETV
vector 96359  Network.dyn_peer[179]  lookupHopsSig:vector  ETV
vector 96358  Network.dyn_peer[179]  lookupTimeSig:vector  ETV
vector 96361  Network.dyn_peer[180]  lookupHopsSig:vector  ETV
vector 96360  Network.dyn_peer[180]  lookupTimeSig:vector  ETV
vector 96363  Network.dyn_peer[181]  lookupHopsSig:vector  ETV
vector 96362  Network.dyn_peer[181]  lookupTimeSig:vector  ETV
vector 96365  Network.dyn_peer[182]  lookupHopsSig:vector  ETV
vector 96364  Network.dyn_peer[182]  lookupTimeSig:vector  ETV
vector 96367  Network.dyn_peer[183]  lookupHopsSig:vector  ETV
vector 96366  Network.dyn_peer[183]  lookupTimeSig:vector  ETV
vector 96369  Network.dyn_peer[184]  lookupHopsSig:vector  ETV
vector 96368  Network.dyn_peer[184]  lookupTimeSig:vector  ETV
vector 96371  Network.dyn_peer[185]  lookupHopsSig:vector  ETV
vector 96370  Network.dyn_peer[185]  lookupTimeSig:vector  ETV
vector 96373  Network.dyn_peer[186]  lookupHopsSig:vector  ETV
vector 96372  Network.dyn_peer[186]  lookupTimeSig:vector  ETV
vector 96375  Network.dyn_peer[187]  lookupHopsSig:vector  ETV
vector 96374  Network.dyn_peer[187]  lookupTimeSig:vector  ETV
vector 96377  Network.dyn_peer[188]  lookupHopsSig:vector  ETV
vector 96376  Network.dyn_peer[188]  lookupTimeSig:vector  ETV
vector 96379  Network.dyn_peer[189]  lookupHopsSig:vector  ETV
vector 96378  Network.dyn_peer[189]  lookupTimeSig:vector  ETV
vector 96381  Network.dyn_peer[190]  lookupHopsSig:vector  ETV
vector 96380  Network.dyn_peer[190]  lookupTimeSig:vector  ETV
vector 96383  Network.dyn_peer[191]  lookupHopsSig:vector  ETV
vector 96382  Network.dyn_peer[191]  lookupTimeSig:vector  ETV
vector 96385  Network.dyn_peer[192]  lookupHopsSig:vector  ETV
vector 96384  Network.dyn_peer[192]  lookupTimeSig:vector  ETV
vector 96387  Network.dyn_peer[193]  lookupHopsSig:vector  ETV
vector 96386  Network.dyn_peer[193]  lookupTimeSig:vector  ETV
vector 96389  Network.dyn_peer[194]  lookupHopsSig:vector  ETV
vector 96388  Network.dyn_peer[194]  lookupTimeSig:vector  ETV
vector 96391  Network.dyn_peer[195]  lookupHopsSig:vector  ETV
vector 96390  Network.dyn_peer[195]  lookupTimeSig:vector  ETV
vector 96393  Network.dyn_peer[196]  lookupHopsSig:vector  ETV
vector 96392  Network.dyn_peer[196]  lookupTimeSig:vector  ETV
vector 96395  Network.dyn_peer[197]  lookupHopsSig:vector  ETV
vector 96394  Network.dyn_peer[197]  lookupTimeSig:vector  ETV
vector 96397  Network.dyn_peer[198]  lookupHopsSig:vector  ETV
vector 96396  Network.dyn_peer[198]  lookupTimeSig:vector  ETV
vector 96399  Network.dyn_peer[199]  lookupHopsSig:vector  ETV
vector 96398  Network.dyn_peer[199]  lookupTimeSig:vector  ETV
vector 96401  Network.dyn_peer[200]  lookupHopsSig:vector  ETV
vector 96400  Network.dyn_peer[200]  lookupTimeSig:vector  ETV
vector 96403  Network.dyn_peer[201]  lookupHopsSig:vector  ETV
vector 96402  Network.dyn_peer[201]  lookupTimeSig:vector  ETV
vector 96405  Network.dyn_peer[202]  lookupHopsSig:vector  ETV
vector 96404  Network.dyn_peer[202]  lookupTimeSig:vector  ETV
vector 96407  Network.dyn_peer[203]  lookupHopsSig:vector  ETV
vector 96406  Network.dyn_peer[203]  lookupTimeSig:vector  ETV
vector 96409  Network.dyn_peer[204]  lookupHopsSig:vector  ETV
vector 96408  Network.dyn_peer[204]  lookupTimeSig:vector  ETV
vector 96411  Network.dyn_peer[205]  lookupHopsSig:vector  ETV
vector 96410  Network.dyn_peer[205]  lookupTimeSig:vector  ETV
vector 96413  Network.dyn_peer[206]  lookupHopsSig:vector  ETV
vector 96412  Network.dyn_peer[206]  lookupTimeSig:vector  ETV
vector 96415  Network.dyn_peer[207]  lookupHopsSig:vector  ETV
vector 96414  Network.dyn_peer[207]  lookupTimeSig:vector  ETV
vector 96417  Network.dyn_peer[208]  lookupHopsSig:vector  ETV
vector 96416  Network.dyn_peer[208]  lookupTimeSig:vector  ETV
vector 96419  Network.dyn_peer[209]  lookupHopsSig:vector  ETV
vector 96418  Network.dyn_peer[209]  lookupTimeSig:vector  ETV
vector 96421  Network.dyn_peer[210]  lookupHopsSig:vector  ETV
vector 96420  Network.dyn_peer[210]  lookupTimeSig:vector  ETV
vector 96423  Network.dyn_peer[211]  lookupHopsSig:vector  ETV
vector 96422  Network.dyn_peer[211]  lookupTimeSig:vector  ETV
vector 96425  Network.dyn_peer[212]  lookupHopsSig:vector  ETV
vector 96424  Network.dyn_peer[212]  lookupTimeSig:vector  ETV
vector 96427  Network.dyn_peer[213]  lookupHopsSig:vector  ETV
vector 96426  Network.dyn_peer[213]  lookupTimeSig:vector  ETV
vector 96429  Network.dyn_peer[214]  lookupHopsSig:vector  ETV
vector 96428  Network.dyn_peer[214]  lookupTimeSig:vector  ETV
vector 96431  Network.dyn_peer[215]  lookupHopsSig:vector  ETV
vector 96430  Network.dyn_peer[215]  lookupTimeSig:vector  ETV
vector 96433  Network.dyn_peer[216]  lookupHopsSig:vector  ETV
vector 96432  Network.dyn_peer[216]  lookupTimeSig:vector  ETV
vector 96435  Network.dyn_peer[217]  lookupHopsSig:vector  ETV
vector 96434  Network.dyn_peer[217]  lookupTimeSig:vector  ETV
vector 96437  Network.dyn_peer[218]  lookupHopsSig:vector  ETV
vector 96436  Network.dyn_peer[218]  lookupTimeSig:vector  ETV
vector 96439  Network.dyn_peer[219]  lookupHopsSig:vector  ETV
vector 96438  Network.dyn_peer[219]  lookupTimeSig:vector  ETV
vector 96441  Network.dyn_peer[220]  lookupHopsSig:vector  ETV
vector 96440  Network.dyn_peer[220]  lookupTimeSig:vector  ETV
vector 96443  Network.dyn_peer[221]  lookupHopsSig:vector  ETV
vector 96442  Network.dyn_peer[221]  lookupTimeSig:vector  ETV
vector 96445  Network.dyn_peer[222]  lookupHopsSig:vector  ETV
vector 96444  Network.dyn_peer[222]  lookupTimeSig:vector  ETV
vector 96447  Network.dyn_peer[223]  lookupHopsSig:vector  ETV
vector 96446  Network.dyn_peer[223]  lookupTimeSig:vector  ETV
vector 96449  Network.dyn_peer[224]  lookupHopsSig:vector  ETV
vector 96448  Network.dyn_peer[224]  lookupTimeSig:vector  ETV
vector 96451  Network.dyn_peer[225]  lookupHopsSig:vector  ETV
vector 96450  Network.dyn_peer[225]  lookupTimeSig:vector  ETV
vector 96453  Network.dyn_peer[226]  lookupHopsSig:vector  ETV
vector 96452  Network.dyn_peer[226]  lookupTimeSig:vector  ETV
vector 96455  Network.dyn_peer[227]  lookupHopsSig:vector  ETV
vector 96454  Network.dyn_peer[227]  lookupTimeSig:vector  ETV
vector 96457  Network.dyn_peer[228]  lookupHopsSig:vector  ETV
vector 96456  Network.dyn_peer[228]  lookupTimeSig:vector  ETV
vector 96459  Network.dyn_peer[229]  lookupHopsSig:vector  ETV
vector 96458  Network.dyn_peer[229]  lookupTimeSig:vector  ETV
vector 96461  Network.dyn_peer[230]  lookupHopsSig:vector  ETV
vector 96460  Network.dyn_peer[230]  lookupTimeSig:vector  ETV
vector 96463  Network.dyn_peer[231]  lookupHopsSig:vector  ETV
vector 96462  Network.dyn_peer[231]  lookupTimeSig:vector  ETV
vector 96465  Network.dyn_peer[232]  lookupHopsSig:vector  ETV
vector 96464  Network.dyn_peer[232]  lookupTimeSig:vector  ETV
vector 96467  Network.dyn_peer[233]  lookupHopsSig:vector  ETV
vector 96466  Network.dyn_peer[233]  lookupTimeSig:vector  ETV
vector 96469  Network.dyn_peer[234]  lookupHopsSig:vector  ETV
vector 96468  Network.dyn_peer[234]  lookupTimeSig:vector  ETV
vector 96471  Network.dyn_peer[235]  lookupHopsSig:vector  ETV
vector 96470  Network.dyn_peer[235]  lookupTimeSig:vector  ETV
vector 96473  Network.dyn_peer[236]  lookupHopsSig:vector  ETV