version 2
run Stability-293-20130521-22:47:59-23591
attr configname Stability
attr datetime 20130521-22:47:59
attr experiment Stability
attr inifile omnetpp.ini
attr iterationvars $0=0.015625
attr iterationvars2 "$0=0.015625, $repetition=23"
attr measurement $0=0.015625
attr network Network
attr processid 23591
attr repetition 23
attr replication #23
attr resultdir results
attr runnumber 293
attr seedset 293

vector 586003  Network.dyn_peer[1]  lookupHopsSig:vector  ETV
vector 586002  Network.dyn_peer[1]  lookupTimeSig:vector  ETV
vector 586001  Network.dyn_peer[0]  lookupHopsSig:vector  ETV
vector 586000  Network.dyn_peer[0]  lookupTimeSig:vector  ETV
vector 586015  Network.dyn_peer[7]  lookupHopsSig:vector  ETV
vector 586014  Network.dyn_peer[7]  lookupTimeSig:vector  ETV
vector 586005  Network.dyn_peer[2]  lookupHopsSig:vector  ETV
vector 586004  Network.dyn_peer[2]  lookupTimeSig:vector  ETV
vector 586019  Network.dyn_peer[9]  lookupHopsSig:vector  ETV
vector 586018  Network.dyn_peer[9]  lookupTimeSig:vector  ETV
vector 586007  Network.dyn_peer[3]  lookupHopsSig:vector  ETV
vector 586006  Network.dyn_peer[3]  lookupTimeSig:vector  ETV
vector 586009  Network.dyn_peer[4]  lookupHopsSig:vector  ETV
vector 586008  Network.dyn_peer[4]  lookupTimeSig:vector  ETV
vector 586011  Network.dyn_peer[5]  lookupHopsSig:vector  ETV
vector 586010  Network.dyn_peer[5]  lookupTimeSig:vector  ETV
vector 586025  Network.dyn_peer[12]  lookupHopsSig:vector  ETV
vector 586024  Network.dyn_peer[12]  lookupTimeSig:vector  ETV
vector 586027  Network.dyn_peer[13]  lookupHopsSig:vector  ETV
vector 586026  Network.dyn_peer[13]  lookupTimeSig:vector  ETV
vector 586017  Network.dyn_peer[8]  lookupHopsSig:vector  ETV
vector 586016  Network.dyn_peer[8]  lookupTimeSig:vector  ETV
vector 586023  Network.dyn_peer[11]  lookupHopsSig:vector  ETV
vector 586022  Network.dyn_peer[11]  lookupTimeSig:vector  ETV
vector 586049  Network.dyn_peer[24]  lookupHopsSig:vector  ETV
vector 586048  Network.dyn_peer[24]  lookupTimeSig:vector  ETV
vector 586013  Network.dyn_peer[6]  lookupHopsSig:vector  ETV
vector 586012  Network.dyn_peer[6]  lookupTimeSig:vector  ETV
vector 586041  Network.dyn_peer[20]  lookupHopsSig:vector  ETV
vector 586040  Network.dyn_peer[20]  lookupTimeSig:vector  ETV
vector 586043  Network.dyn_peer[21]  lookupHopsSig:vector  ETV
vector 586042  Network.dyn_peer[21]  lookupTimeSig:vector  ETV
vector 586031  Network.dyn_peer[15]  lookupHopsSig:vector  ETV
vector 586030  Network.dyn_peer[15]  lookupTimeSig:vector  ETV
vector 586033  Network.dyn_peer[16]  lookupHopsSig:vector  ETV
vector 586032  Network.dyn_peer[16]  lookupTimeSig:vector  ETV
vector 586021  Network.dyn_peer[10]  lookupHopsSig:vector  ETV
vector 586020  Network.dyn_peer[10]  lookupTimeSig:vector  ETV
vector 586053  Network.dyn_peer[26]  lookupHopsSig:vector  ETV
vector 586052  Network.dyn_peer[26]  lookupTimeSig:vector  ETV
vector 586029  Network.dyn_peer[14]  lookupHopsSig:vector  ETV
vector 586028  Network.dyn_peer[14]  lookupTimeSig:vector  ETV
vector 586061  Network.dyn_peer[30]  lookupHopsSig:vector  ETV
vector 586060  Network.dyn_peer[30]  lookupTimeSig:vector  ETV
vector 586077  Network.dyn_peer[38]  lookupHopsSig:vector  ETV
vector 586076  Network.dyn_peer[38]  lookupTimeSig:vector  ETV
vector 586055  Network.dyn_peer[27]  lookupHopsSig:vector  ETV
vector 586054  Network.dyn_peer[27]  lookupTimeSig:vector  ETV
vector 586057  Network.dyn_peer[28]  lookupHopsSig:vector  ETV
vector 586056  Network.dyn_peer[28]  lookupTimeSig:vector  ETV
vector 586063  Network.dyn_peer[31]  lookupHopsSig:vector  ETV
vector 586062  Network.dyn_peer[31]  lookupTimeSig:vector  ETV
vector 586051  Network.dyn_peer[25]  lookupHopsSig:vector  ETV
vector 586050  Network.dyn_peer[25]  lookupTimeSig:vector  ETV
vector 586039  Network.dyn_peer[19]  lookupHopsSig:vector  ETV
vector 586038  Network.dyn_peer[19]  lookupTimeSig:vector  ETV
vector 586079  Network.dyn_peer[39]  lookupHopsSig:vector  ETV
vector 586078  Network.dyn_peer[39]  lookupTimeSig:vector  ETV
vector 586087  Network.dyn_peer[43]  lookupHopsSig:vector  ETV
vector 586086  Network.dyn_peer[43]  lookupTimeSig:vector  ETV
vector 586103  Network.dyn_peer[51]  lookupHopsSig:vector  ETV
vector 586102  Network.dyn_peer[51]  lookupTimeSig:vector  ETV
vector 586065  Network.dyn_peer[32]  lookupHopsSig:vector  ETV
vector 586064  Network.dyn_peer[32]  lookupTimeSig:vector  ETV
vector 586069  Network.dyn_peer[34]  lookupHopsSig:vector  ETV
vector 586068  Network.dyn_peer[34]  lookupTimeSig:vector  ETV
vector 586045  Network.dyn_peer[22]  lookupHopsSig:vector  ETV
vector 586044  Network.dyn_peer[22]  lookupTimeSig:vector  ETV
vector 586123  Network.dyn_peer[61]  lookupHopsSig:vector  ETV
vector 586122  Network.dyn_peer[61]  lookupTimeSig:vector  ETV
vector 586035  Network.dyn_peer[17]  lookupHopsSig:vector  ETV
vector 586034  Network.dyn_peer[17]  lookupTimeSig:vector  ETV
vector 586089  Network.dyn_peer[44]  lookupHopsSig:vector  ETV
vector 586088  Network.dyn_peer[44]  lookupTimeSig:vector  ETV
vector 586093  Network.dyn_peer[46]  lookupHopsSig:vector  ETV
vector 586092  Network.dyn_peer[46]  lookupTimeSig:vector  ETV
vector 586081  Network.dyn_peer[40]  lookupHopsSig:vector  ETV
vector 586080  Network.dyn_peer[40]  lookupTimeSig:vector  ETV
vector 586071  Network.dyn_peer[35]  lookupHopsSig:vector  ETV
vector 586070  Network.dyn_peer[35]  lookupTimeSig:vector  ETV
vector 586097  Network.dyn_peer[48]  lookupHopsSig:vector  ETV
vector 586096  Network.dyn_peer[48]  lookupTimeSig:vector  ETV
vector 586125  Network.dyn_peer[62]  lookupHopsSig:vector  ETV
vector 586124  Network.dyn_peer[62]  lookupTimeSig:vector  ETV
vector 586075  Network.dyn_peer[37]  lookupHopsSig:vector  ETV
vector 586074  Network.dyn_peer[37]  lookupTimeSig:vector  ETV
vector 586067  Network.dyn_peer[33]  lookupHopsSig:vector  ETV
vector 586066  Network.dyn_peer[33]  lookupTimeSig:vector  ETV
vector 586083  Network.dyn_peer[41]  lookupHopsSig:vector  ETV
vector 586082  Network.dyn_peer[41]  lookupTimeSig:vector  ETV
vector 586059  Network.dyn_peer[29]  lookupHopsSig:vector  ETV
vector 586058  Network.dyn_peer[29]  lookupTimeSig:vector  ETV
vector 586073  Network.dyn_peer[36]  lookupHopsSig:vector  ETV
vector 586072  Network.dyn_peer[36]  lookupTimeSig:vector  ETV
vector 586099  Network.dyn_peer[49]  lookupHopsSig:vector  ETV
vector 586098  Network.dyn_peer[49]  lookupTimeSig:vector  ETV
vector 586037  Network.dyn_peer[18]  lookupHopsSig:vector  ETV
vector 586036  Network.dyn_peer[18]  lookupTimeSig:vector  ETV
vector 586101  Network.dyn_peer[50]  lookupHopsSig:vector  ETV
vector 586100  Network.dyn_peer[50]  lookupTimeSig:vector  ETV
vector 586105  Network.dyn_peer[52]  lookupHopsSig:vector  ETV
vector 586104  Network.dyn_peer[52]  lookupTimeSig:vector  ETV
vector 586131  Network.dyn_peer[65]  lookupHopsSig:vector  ETV
vector 586130  Network.dyn_peer[65]  lookupTimeSig:vector  ETV
vector 586147  Network.dyn_peer[73]  lookupHopsSig:vector  ETV
vector 586146  Network.dyn_peer[73]  lookupTimeSig:vector  ETV
vector 586109  Network.dyn_peer[54]  lookupHopsSig:vector  ETV
vector 586108  Network.dyn_peer[54]  lookupTimeSig:vector  ETV
vector 586047  Network.dyn_peer[23]  lookupHopsSig:vector  ETV
vector 586046  Network.dyn_peer[23]  lookupTimeSig:vector  ETV
vector 586129  Network.dyn_peer[64]  lookupHopsSig:vector  ETV
vector 586128  Network.dyn_peer[64]  lookupTimeSig:vector  ETV
vector 586107  Network.dyn_peer[53]  lookupHopsSig:vector  ETV
vector 586106  Network.dyn_peer[53]  lookupTimeSig:vector  ETV
vector 586159  Network.dyn_peer[79]  lookupHopsSig:vector  ETV
vector 586158  Network.dyn_peer[79]  lookupTimeSig:vector  ETV
vector 586161  Network.dyn_peer[80]  lookupHopsSig:vector  ETV
vector 586160  Network.dyn_peer[80]  lookupTimeSig:vector  ETV
vector 586143  Network.dyn_peer[71]  lookupHopsSig:vector  ETV
vector 586142  Network.dyn_peer[71]  lookupTimeSig:vector  ETV
vector 586133  Network.dyn_peer[66]  lookupHopsSig:vector  ETV
vector 586132  Network.dyn_peer[66]  lookupTimeSig:vector  ETV
vector 586095  Network.dyn_peer[47]  lookupHopsSig:vector  ETV
vector 586094  Network.dyn_peer[47]  lookupTimeSig:vector  ETV
vector 586111  Network.dyn_peer[55]  lookupHopsSig:vector  ETV
vector 586110  Network.dyn_peer[55]  lookupTimeSig:vector  ETV
vector 586127  Network.dyn_peer[63]  lookupHopsSig:vector  ETV
vector 586126  Network.dyn_peer[63]  lookupTimeSig:vector  ETV
vector 586115  Network.dyn_peer[57]  lookupHopsSig:vector  ETV
vector 586114  Network.dyn_peer[57]  lookupTimeSig:vector  ETV
vector 586091  Network.dyn_peer[45]  lookupHopsSig:vector  ETV
vector 586090  Network.dyn_peer[45]  lookupTimeSig:vector  ETV
vector 586119  Network.dyn_peer[59]  lookupHopsSig:vector  ETV
vector 586118  Network.dyn_peer[59]  lookupTimeSig:vector  ETV
vector 586135  Network.dyn_peer[67]  lookupHopsSig:vector  ETV
vector 586134  Network.dyn_peer[67]  lookupTimeSig:vector  ETV
vector 586113  Network.dyn_peer[56]  lookupHopsSig:vector  ETV
vector 586112  Network.dyn_peer[56]  lookupTimeSig:vector  ETV
vector 586141  Network.dyn_peer[70]  lookupHopsSig:vector  ETV
vector 586140  Network.dyn_peer[70]  lookupTimeSig:vector  ETV
vector 586169  Network.dyn_peer[84]  lookupHopsSig:vector  ETV
vector 586168  Network.dyn_peer[84]  lookupTimeSig:vector  ETV
vector 586171  Network.dyn_peer[85]  lookupHopsSig:vector  ETV
vector 586170  Network.dyn_peer[85]  lookupTimeSig:vector  ETV
vector 586185  Network.dyn_peer[92]  lookupHopsSig:vector  ETV
vector 586184  Network.dyn_peer[92]  lookupTimeSig:vector  ETV
vector 586173  Network.dyn_peer[86]  lookupHopsSig:vector  ETV
vector 586172  Network.dyn_peer[86]  lookupTimeSig:vector  ETV
vector 586145  Network.dyn_peer[72]  lookupHopsSig:vector  ETV
vector 586144  Network.dyn_peer[72]  lookupTimeSig:vector  ETV
vector 586121  Network.dyn_peer[60]  lookupHopsSig:vector  ETV
vector 586120  Network.dyn_peer[60]  lookupTimeSig:vector  ETV
vector 586085  Network.dyn_peer[42]  lookupHopsSig:vector  ETV
vector 586084  Network.dyn_peer[42]  lookupTimeSig:vector  ETV
vector 586137  Network.dyn_peer[68]  lookupHopsSig:vector  ETV
vector 586136  Network.dyn_peer[68]  lookupTimeSig:vector  ETV
vector 586163  Network.dyn_peer[81]  lookupHopsSig:vector  ETV
vector 586162  Network.dyn_peer[81]  lookupTimeSig:vector  ETV
vector 586227  Network.dyn_peer[113]  lookupHopsSig:vector  ETV
vector 586226  Network.dyn_peer[113]  lookupTimeSig:vector  ETV
vector 586117  Network.dyn_peer[58]  lookupHopsSig:vector  ETV
vector 586116  Network.dyn_peer[58]  lookupTimeSig:vector  ETV
vector 586181  Network.dyn_peer[90]  lookupHopsSig:vector  ETV
vector 586180  Network.dyn_peer[90]  lookupTimeSig:vector  ETV
vector 586201  Network.dyn_peer[100]  lookupHopsSig:vector  ETV
vector 586200  Network.dyn_peer[100]  lookupTimeSig:vector  ETV
vector 586189  Network.dyn_peer[94]  lookupHopsSig:vector  ETV
vector 586188  Network.dyn_peer[94]  lookupTimeSig:vector  ETV
vector 586139  Network.dyn_peer[69]  lookupHopsSig:vector  ETV
vector 586138  Network.dyn_peer[69]  lookupTimeSig:vector  ETV
vector 586203  Network.dyn_peer[101]  lookupHopsSig:vector  ETV
vector 586202  Network.dyn_peer[101]  lookupTimeSig:vector  ETV
vector 586231  Network.dyn_peer[115]  lookupHopsSig:vector  ETV
vector 586230  Network.dyn_peer[115]  lookupTimeSig:vector  ETV
vector 586207  Network.dyn_peer[103]  lookupHopsSig:vector  ETV
vector 586206  Network.dyn_peer[103]  lookupTimeSig:vector  ETV
vector 586195  Network.dyn_peer[97]  lookupHopsSig:vector  ETV
vector 586194  Network.dyn_peer[97]  lookupTimeSig:vector  ETV
vector 586197  Network.dyn_peer[98]  lookupHopsSig:vector  ETV
vector 586196  Network.dyn_peer[98]  lookupTimeSig:vector  ETV
vector 586223  Network.dyn_peer[111]  lookupHopsSig:vector  ETV
vector 586222  Network.dyn_peer[111]  lookupTimeSig:vector  ETV
vector 586187  Network.dyn_peer[93]  lookupHopsSig:vector  ETV
vector 586186  Network.dyn_peer[93]  lookupTimeSig:vector  ETV
vector 586165  Network.dyn_peer[82]  lookupHopsSig:vector  ETV
vector 586164  Network.dyn_peer[82]  lookupTimeSig:vector  ETV
vector 586167  Network.dyn_peer[83]  lookupHopsSig:vector  ETV
vector 586166  Network.dyn_peer[83]  lookupTimeSig:vector  ETV
vector 586221  Network.dyn_peer[110]  lookupHopsSig:vector  ETV
vector 586220  Network.dyn_peer[110]  lookupTimeSig:vector  ETV
vector 586237  Network.dyn_peer[118]  lookupHopsSig:vector  ETV
vector 586236  Network.dyn_peer[118]  lookupTimeSig:vector  ETV
vector 586263  Network.dyn_peer[131]  lookupHopsSig:vector  ETV
vector 586262  Network.dyn_peer[131]  lookupTimeSig:vector  ETV
vector 586149  Network.dyn_peer[74]  lookupHopsSig:vector  ETV
vector 586148  Network.dyn_peer[74]  lookupTimeSig:vector  ETV
vector 586175  Network.dyn_peer[87]  lookupHopsSig:vector  ETV
vector 586174  Network.dyn_peer[87]  lookupTimeSig:vector  ETV
vector 586215  Network.dyn_peer[107]  lookupHopsSig:vector  ETV
vector 586214  Network.dyn_peer[107]  lookupTimeSig:vector  ETV
vector 586205  Network.dyn_peer[102]  lookupHopsSig:vector  ETV
vector 586204  Network.dyn_peer[102]  lookupTimeSig:vector  ETV
vector 586155  Network.dyn_peer[77]  lookupHopsSig:vector  ETV
vector 586154  Network.dyn_peer[77]  lookupTimeSig:vector  ETV
vector 586183  Network.dyn_peer[91]  lookupHopsSig:vector  ETV
vector 586182  Network.dyn_peer[91]  lookupTimeSig:vector  ETV
vector 586151  Network.dyn_peer[75]  lookupHopsSig:vector  ETV
vector 586150  Network.dyn_peer[75]  lookupTimeSig:vector  ETV
vector 586177  Network.dyn_peer[88]  lookupHopsSig:vector  ETV
vector 586176  Network.dyn_peer[88]  lookupTimeSig:vector  ETV
vector 586217  Network.dyn_peer[108]  lookupHopsSig:vector  ETV
vector 586216  Network.dyn_peer[108]  lookupTimeSig:vector  ETV
vector 586179  Network.dyn_peer[89]  lookupHopsSig:vector  ETV
vector 586178  Network.dyn_peer[89]  lookupTimeSig:vector  ETV
vector 586271  Network.dyn_peer[135]  lookupHopsSig:vector  ETV
vector 586270  Network.dyn_peer[135]  lookupTimeSig:vector  ETV
vector 586233  Network.dyn_peer[116]  lookupHopsSig:vector  ETV
vector 586232  Network.dyn_peer[116]  lookupTimeSig:vector  ETV
vector 586265  Network.dyn_peer[132]  lookupHopsSig:vector  ETV
vector 586264  Network.dyn_peer[132]  lookupTimeSig:vector  ETV
vector 586305  Network.dyn_peer[152]  lookupHopsSig:vector  ETV
vector 586304  Network.dyn_peer[152]  lookupTimeSig:vector  ETV
vector 586153  Network.dyn_peer[76]  lookupHopsSig:vector  ETV
vector 586152  Network.dyn_peer[76]  lookupTimeSig:vector  ETV
vector 586235  Network.dyn_peer[117]  lookupHopsSig:vector  ETV
vector 586234  Network.dyn_peer[117]  lookupTimeSig:vector  ETV
vector 586211  Network.dyn_peer[105]  lookupHopsSig:vector  ETV
vector 586210  Network.dyn_peer[105]  lookupTimeSig:vector  ETV
vector 586199  Network.dyn_peer[99]  lookupHopsSig:vector  ETV
vector 586198  Network.dyn_peer[99]  lookupTimeSig:vector  ETV
vector 586267  Network.dyn_peer[133]  lookupHopsSig:vector  ETV
vector 586266  Network.dyn_peer[133]  lookupTimeSig:vector  ETV
vector 586307  Network.dyn_peer[153]  lookupHopsSig:vector  ETV
vector 586306  Network.dyn_peer[153]  lookupTimeSig:vector  ETV
vector 586269  Network.dyn_peer[134]  lookupHopsSig:vector  ETV
vector 586268  Network.dyn_peer[134]  lookupTimeSig:vector  ETV
vector 586219  Network.dyn_peer[109]  lookupHopsSig:vector  ETV
vector 586218  Network.dyn_peer[109]  lookupTimeSig:vector  ETV
vector 586283  Network.dyn_peer[141]  lookupHopsSig:vector  ETV
vector 586282  Network.dyn_peer[141]  lookupTimeSig:vector  ETV
vector 586309  Network.dyn_peer[154]  lookupHopsSig:vector  ETV
vector 586308  Network.dyn_peer[154]  lookupTimeSig:vector  ETV
vector 586157  Network.dyn_peer[78]  lookupHopsSig:vector  ETV
vector 586156  Network.dyn_peer[78]  lookupTimeSig:vector  ETV
vector 586249  Network.dyn_peer[124]  lookupHopsSig:vector  ETV
vector 586248  Network.dyn_peer[124]  lookupTimeSig:vector  ETV
vector 586303  Network.dyn_peer[151]  lookupHopsSig:vector  ETV
vector 586302  Network.dyn_peer[151]  lookupTimeSig:vector  ETV
vector 586293  Network.dyn_peer[146]  lookupHopsSig:vector  ETV
vector 586292  Network.dyn_peer[146]  lookupTimeSig:vector  ETV
vector 586257  Network.dyn_peer[128]  lookupHopsSig:vector  ETV
vector 586256  Network.dyn_peer[128]  lookupTimeSig:vector  ETV
vector 586273  Network.dyn_peer[136]  lookupHopsSig:vector  ETV
vector 586272  Network.dyn_peer[136]  lookupTimeSig:vector  ETV
vector 586339  Network.dyn_peer[169]  lookupHopsSig:vector  ETV
vector 586338  Network.dyn_peer[169]  lookupTimeSig:vector  ETV
vector 586229  Network.dyn_peer[114]  lookupHopsSig:vector  ETV
vector 586228  Network.dyn_peer[114]  lookupTimeSig:vector  ETV
vector 586191  Network.dyn_peer[95]  lookupHopsSig:vector  ETV
vector 586190  Network.dyn_peer[95]  lookupTimeSig:vector  ETV
vector 586259  Network.dyn_peer[129]  lookupHopsSig:vector  ETV
vector 586258  Network.dyn_peer[129]  lookupTimeSig:vector  ETV
vector 586277  Network.dyn_peer[138]  lookupHopsSig:vector  ETV
vector 586276  Network.dyn_peer[138]  lookupTimeSig:vector  ETV
vector 586291  Network.dyn_peer[145]  lookupHopsSig:vector  ETV
vector 586290  Network.dyn_peer[145]  lookupTimeSig:vector  ETV
vector 586281  Network.dyn_peer[140]  lookupHopsSig:vector  ETV
vector 586280  Network.dyn_peer[140]  lookupTimeSig:vector  ETV
vector 586327  Network.dyn_peer[163]  lookupHopsSig:vector  ETV
vector 586326  Network.dyn_peer[163]  lookupTimeSig:vector  ETV
vector 586279  Network.dyn_peer[139]  lookupHopsSig:vector  ETV
vector 586278  Network.dyn_peer[139]  lookupTimeSig:vector  ETV
vector 586241  Network.dyn_peer[120]  lookupHopsSig:vector  ETV
vector 586240  Network.dyn_peer[120]  lookupTimeSig:vector  ETV
vector 586275  Network.dyn_peer[137]  lookupHopsSig:vector  ETV
vector 586274  Network.dyn_peer[137]  lookupTimeSig:vector  ETV
vector 586251  Network.dyn_peer[125]  lookupHopsSig:vector  ETV
vector 586250  Network.dyn_peer[125]  lookupTimeSig:vector  ETV
vector 586313  Network.dyn_peer[156]  lookupHopsSig:vector  ETV
vector 586312  Network.dyn_peer[156]  lookupTimeSig:vector  ETV
vector 586329  Network.dyn_peer[164]  lookupHopsSig:vector  ETV
vector 586328  Network.dyn_peer[164]  lookupTimeSig:vector  ETV
vector 586253  Network.dyn_peer[126]  lookupHopsSig:vector  ETV
vector 586252  Network.dyn_peer[126]  lookupTimeSig:vector  ETV
vector 586255  Network.dyn_peer[127]  lookupHopsSig:vector  ETV
vector 586254  Network.dyn_peer[127]  lookupTimeSig:vector  ETV
vector 586243  Network.dyn_peer[121]  lookupHopsSig:vector  ETV
vector 586242  Network.dyn_peer[121]  lookupTimeSig:vector  ETV
vector 586347  Network.dyn_peer[173]  lookupHopsSig:vector  ETV
vector 586346  Network.dyn_peer[173]  lookupTimeSig:vector  ETV
vector 586407  Network.dyn_peer[203]  lookupHopsSig:vector  ETV
vector 586406  Network.dyn_peer[203]  lookupTimeSig:vector  ETV
vector 586385  Network.dyn_peer[192]  lookupHopsSig:vector  ETV
vector 586384  Network.dyn_peer[192]  lookupTimeSig:vector  ETV
vector 586349  Network.dyn_peer[174]  lookupHopsSig:vector  ETV
vector 586348  Network.dyn_peer[174]  lookupTimeSig:vector  ETV
vector 586209  Network.dyn_peer[104]  lookupHopsSig:vector  ETV
vector 586208  Network.dyn_peer[104]  lookupTimeSig:vector  ETV
vector 586287  Network.dyn_peer[143]  lookupHopsSig:vector  ETV
vector 586286  Network.dyn_peer[143]  lookupTimeSig:vector  ETV
vector 586381  Network.dyn_peer[190]  lookupHopsSig:vector  ETV
vector 586380  Network.dyn_peer[190]  lookupTimeSig:vector  ETV
vector 586333  Network.dyn_peer[166]  lookupHopsSig:vector  ETV
vector 586332  Network.dyn_peer[166]  lookupTimeSig:vector  ETV
vector 586397  Network.dyn_peer[198]  lookupHopsSig:vector  ETV
vector 586396  Network.dyn_peer[198]  lookupTimeSig:vector  ETV
vector 586295  Network.dyn_peer[147]  lookupHopsSig:vector  ETV
vector 586294  Network.dyn_peer[147]  lookupTimeSig:vector  ETV
vector 586193  Network.dyn_peer[96]  lookupHopsSig:vector  ETV
vector 586192  Network.dyn_peer[96]  lookupTimeSig:vector  ETV
vector 586375  Network.dyn_peer[187]  lookupHopsSig:vector  ETV
vector 586374  Network.dyn_peer[187]  lookupTimeSig:vector  ETV
vector 586299  Network.dyn_peer[149]  lookupHopsSig:vector  ETV
vector 586298  Network.dyn_peer[149]  lookupTimeSig:vector  ETV
vector 586351  Network.dyn_peer[175]  lookupHopsSig:vector  ETV
vector 586350  Network.dyn_peer[175]  lookupTimeSig:vector  ETV
vector 586301  Network.dyn_peer[150]  lookupHopsSig:vector  ETV
vector 586300  Network.dyn_peer[150]  lookupTimeSig:vector  ETV
vector 586213  Network.dyn_peer[106]  lookupHopsSig:vector  ETV
vector 586212  Network.dyn_peer[106]  lookupTimeSig:vector  ETV
vector 586421  Network.dyn_peer[210]  lookupHopsSig:vector  ETV
vector 586420  Network.dyn_peer[210]  lookupTimeSig:vector  ETV
vector 586361  Network.dyn_peer[180]  lookupHopsSig:vector  ETV
vector 586360  Network.dyn_peer[180]  lookupTimeSig:vector  ETV
vector 586311  Network.dyn_peer[155]  lookupHopsSig:vector  ETV
vector 586310  Network.dyn_peer[155]  lookupTimeSig:vector  ETV
vector 586261  Network.dyn_peer[130]  lookupHopsSig:vector  ETV
vector 586260  Network.dyn_peer[130]  lookupTimeSig:vector  ETV
vector 586325  Network.dyn_peer[162]  lookupHopsSig:vector  ETV
vector 586324  Network.dyn_peer[162]  lookupTimeSig:vector  ETV
vector 586225  Network.dyn_peer[112]  lookupHopsSig:vector  ETV
vector 586224  Network.dyn_peer[112]  lookupTimeSig:vector  ETV
vector 586289  Network.dyn_peer[144]  lookupHopsSig:vector  ETV
vector 586288  Network.dyn_peer[144]  lookupTimeSig:vector  ETV
vector 586341  Network.dyn_peer[170]  lookupHopsSig:vector  ETV
vector 586340  Network.dyn_peer[170]  lookupTimeSig:vector  ETV
vector 586343  Network.dyn_peer[171]  lookupHopsSig:vector  ETV
vector 586342  Network.dyn_peer[171]  lookupTimeSig:vector  ETV
vector 586297  Network.dyn_peer[148]  lookupHopsSig:vector  ETV
vector 586296  Network.dyn_peer[148]  lookupTimeSig:vector  ETV
vector 586387  Network.dyn_peer[193]  lookupHopsSig:vector  ETV
vector 586386  Network.dyn_peer[193]  lookupTimeSig:vector  ETV
vector 586247  Network.dyn_peer[123]  lookupHopsSig:vector  ETV
vector 586246  Network.dyn_peer[123]  lookupTimeSig:vector  ETV
vector 586429  Network.dyn_peer[214]  lookupHopsSig:vector  ETV
vector 586428  Network.dyn_peer[214]  lookupTimeSig:vector  ETV
vector 586315  Network.dyn_peer[157]  lookupHopsSig:vector  ETV
vector 586314  Network.dyn_peer[157]  lookupTimeSig:vector  ETV
vector 586427  Network.dyn_peer[213]  lookupHopsSig:vector  ETV
vector 586426  Network.dyn_peer[213]  lookupTimeSig:vector  ETV
vector 586403  Network.dyn_peer[201]  lookupHopsSig:vector  ETV
vector 586402  Network.dyn_peer[201]  lookupTimeSig:vector  ETV
vector 586353  Network.dyn_peer[176]  lookupHopsSig:vector  ETV
vector 586352  Network.dyn_peer[176]  lookupTimeSig:vector  ETV
vector 586369  Network.dyn_peer[184]  lookupHopsSig:vector  ETV
vector 586368  Network.dyn_peer[184]  lookupTimeSig:vector  ETV
vector 586389  Network.dyn_peer[194]  lookupHopsSig:vector  ETV
vector 586388  Network.dyn_peer[194]  lookupTimeSig:vector  ETV
vector 586239  Network.dyn_peer[119]  lookupHopsSig:vector  ETV
vector 586238  Network.dyn_peer[119]  lookupTimeSig:vector  ETV
vector 586367  Network.dyn_peer[183]  lookupHopsSig:vector  ETV
vector 586366  Network.dyn_peer[183]  lookupTimeSig:vector  ETV
vector 586445  Network.dyn_peer[222]  lookupHopsSig:vector  ETV
vector 586444  Network.dyn_peer[222]  lookupTimeSig:vector  ETV
vector 586345  Network.dyn_peer[172]  lookupHopsSig:vector  ETV
vector 586344  Network.dyn_peer[172]  lookupTimeSig:vector  ETV
vector 586371  Network.dyn_peer[185]  lookupHopsSig:vector  ETV
vector 586370  Network.dyn_peer[185]  lookupTimeSig:vector  ETV
vector 586285  Network.dyn_peer[142]  lookupHopsSig:vector  ETV
vector 586284  Network.dyn_peer[142]  lookupTimeSig:vector  ETV
vector 586337  Network.dyn_peer[168]  lookupHopsSig:vector  ETV
vector 586336  Network.dyn_peer[168]  lookupTimeSig:vector  ETV
vector 586401  Network.dyn_peer[200]  lookupHopsSig:vector  ETV
vector 586400  Network.dyn_peer[200]  lookupTimeSig:vector  ETV
vector 586365  Network.dyn_peer[182]  lookupHopsSig:vector  ETV
vector 586364  Network.dyn_peer[182]  lookupTimeSig:vector  ETV
vector 586355  Network.dyn_peer[177]  lookupHopsSig:vector  ETV
vector 586354  Network.dyn_peer[177]  lookupTimeSig:vector  ETV
vector 586319  Network.dyn_peer[159]  lookupHopsSig:vector  ETV
vector 586318  Network.dyn_peer[159]  lookupTimeSig:vector  ETV
vector 586461  Network.dyn_peer[230]  lookupHopsSig:vector  ETV
vector 586460  Network.dyn_peer[230]  lookupTimeSig:vector  ETV
vector 586359  Network.dyn_peer[179]  lookupHopsSig:vector  ETV
vector 586358  Network.dyn_peer[179]  lookupTimeSig:vector  ETV
vector 586423  Network.dyn_peer[211]  lookupHopsSig:vector  ETV
vector 586422  Network.dyn_peer[211]  lookupTimeSig:vector  ETV
vector 586411  Network.dyn_peer[205]  lookupHopsSig:vector  ETV
vector 586410  Network.dyn_peer[205]  lookupTimeSig:vector  ETV
vector 586477  Network.dyn_peer[238]  lookupHopsSig:vector  ETV
vector 586476  Network.dyn_peer[238]  lookupTimeSig:vector  ETV
vector 586377  Network.dyn_peer[188]  lookupHopsSig:vector  ETV
vector 586376  Network.dyn_peer[188]  lookupTimeSig:vector  ETV
vector 586331  Network.dyn_peer[165]  lookupHopsSig:vector  ETV
vector 586330  Network.dyn_peer[165]  lookupTimeSig:vector  ETV
vector 586473  Network.dyn_peer[236]  lookupHopsSig:vector  ETV
vector 586472  Network.dyn_peer[236]  lookupTimeSig:vector  ETV
vector 586475  Network.dyn_peer[237]  lookupHopsSig:vector  ETV
vector 586474  Network.dyn_peer[237]  lookupTimeSig:vector  ETV
vector 586373  Network.dyn_peer[186]  lookupHopsSig:vector  ETV
vector 586372  Network.dyn_peer[186]  lookupTimeSig:vector  ETV
vector 586425  Network.dyn_peer[212]  lookupHopsSig:vector  ETV
vector 586424  Network.dyn_peer[212]  lookupTimeSig:vector  ETV
vector 586363  Network.dyn_peer[181]  lookupHopsSig:vector  ETV
vector 586362  Network.dyn_peer[181]  lookupTimeSig:vector  ETV
vector 586485  Network.dyn_peer[242]  lookupHopsSig:vector  ETV
vector 586484  Network.dyn_peer[242]  lookupTimeSig:vector  ETV
vector 586321  Network.dyn_peer[160]  lookupHopsSig:vector  ETV
vector 586320  Network.dyn_peer[160]  lookupTimeSig:vector  ETV
vector 586465  Network.dyn_peer[232]  lookupHopsSig:vector  ETV
vector 586464  Network.dyn_peer[232]  lookupTimeSig:vector  ETV
vector 586505  Network.dyn_peer[252]  lookupHopsSig:vector  ETV
vector 586504  Network.dyn_peer[252]  lookupTimeSig:vector  ETV
vector 586395  Network.dyn_peer[197]  lookupHopsSig:vector  ETV
vector 586394  Network.dyn_peer[197]  lookupTimeSig:vector  ETV
vector 586383  Network.dyn_peer[191]  lookupHopsSig:vector  ETV
vector 586382  Network.dyn_peer[191]  lookupTimeSig:vector  ETV
vector 586399  Network.dyn_peer[199]  lookupHopsSig:vector  ETV
vector 586398  Network.dyn_peer[199]  lookupTimeSig:vector  ETV
vector 586463  Network.dyn_peer[231]  lookupHopsSig:vector  ETV
vector 586462  Network.dyn_peer[231]  lookupTimeSig:vector  ETV
vector 586467  Network.dyn_peer[233]  lookupHopsSig:vector  ETV
vector 586466  Network.dyn_peer[233]  lookupTimeSig:vector  ETV
vector 586379  Network.dyn_peer[189]  lookupHopsSig:vector  ETV
vector 586378  Network.dyn_peer[189]  lookupTimeSig:vector  ETV
vector 586507  Network.dyn_peer[253]  lookupHopsSig:vector  ETV
vector 586506  Network.dyn_peer[253]  lookupTimeSig:vector  ETV
vector 586431  Network.dyn_peer[215]  lookupHopsSig:vector  ETV
vector 586430  Network.dyn_peer[215]  lookupTimeSig:vector  ETV
vector 586317  Network.dyn_peer[158]  lookupHopsSig:vector  ETV
vector 586316  Network.dyn_peer[158]  lookupTimeSig:vector  ETV
vector 586433  Network.dyn_peer[216]  lookupHopsSig:vector  ETV
vector 586432  Network.dyn_peer[216]  lookupTimeSig:vector  ETV
vector 586357  Network.dyn_peer[178]  lookupHopsSig:vector  ETV
vector 586356  Network.dyn_peer[178]  lookupTimeSig:vector  ETV
vector 586409  Network.dyn_peer[204]  lookupHopsSig:vector  ETV
vector 586408  Network.dyn_peer[204]  lookupTimeSig:vector  ETV
vector 586453  Network.dyn_peer[226]  lookupHopsSig:vector  ETV
vector 586452  Network.dyn_peer[226]  lookupTimeSig:vector  ETV
vector 586533  Network.dyn_peer[266]  lookupHopsSig:vector  ETV
vector 586532  Network.dyn_peer[266]  lookupTimeSig:vector  ETV
vector 586471  Network.dyn_peer[235]  lookupHopsSig:vector  ETV
vector 586470  Network.dyn_peer[235]  lookupTimeSig:vector  ETV
vector 586323  Network.dyn_peer[161]  lookupHopsSig:vector  ETV
vector 586322  Network.dyn_peer[161]  lookupTimeSig:vector  ETV
vector 586451  Network.dyn_peer[225]  lookupHopsSig:vector  ETV
vector 586450  Network.dyn_peer[225]  lookupTimeSig:vector  ETV
vector 586245  Network.dyn_peer[122]  lookupHopsSig:vector  ETV
vector 586244  Network.dyn_peer[122]  lookupTimeSig:vector  ETV
vector 586335  Network.dyn_peer[167]  lookupHopsSig:vector  ETV
vector 586334  Network.dyn_peer[167]  lookupTimeSig:vector  ETV
vector 586503  Network.dyn_peer[251]  lookupHopsSig:vector  ETV
vector 586502  Network.dyn_peer[251]  lookupTimeSig:vector  ETV
vector 586531  Network.dyn_peer[265]  lookupHopsSig:vector  ETV
vector 586530  Network.dyn_peer[265]  lookupTimeSig:vector  ETV
vector 586417  Network.dyn_peer[208]  lookupHopsSig:vector  ETV
vector 586416  Network.dyn_peer[208]  lookupTimeSig:vector  ETV
vector 586443  Network.dyn_peer[221]  lookupHopsSig:vector  ETV
vector 586442  Network.dyn_peer[221]  lookupTimeSig:vector  ETV
vector 586469  Network.dyn_peer[234]  lookupHopsSig:vector  ETV
vector 586468  Network.dyn_peer[234]  lookupTimeSig:vector  ETV
vector 586419  Network.dyn_peer[209]  lookupHopsSig:vector  ETV
vector 586418  Network.dyn_peer[209]  lookupTimeSig:vector  ETV
vector 586501  Network.dyn_peer[250]  lookupHopsSig:vector  ETV
vector 586500  Network.dyn_peer[250]  lookupTimeSig:vector  ETV
vector 586413  Network.dyn_peer[206]  lookupHopsSig:vector  ETV