file 573913 1369674144                                          
version 2
run Stability-286-20130521-22:47:22-23591
attr configname Stability
attr datetime 20130521-22:47:22
attr experiment Stability
attr inifile omnetpp.ini
attr iterationvars $0=0.015625
attr iterationvars2 "$0=0.015625, $repetition=16"
attr measurement $0=0.015625
attr network Network
attr processid 23591
attr repetition 16
attr replication #16
attr resultdir results
attr runnumber 286
attr seedset 286
vector 572001  Network.dyn_peer[0]  lookupHopsSig:vector  ETV
572001	128502 293 148 38888 20.215625 30.821074781753 10 2 36 93 1869
vector 572000  Network.dyn_peer[0]  lookupTimeSig:vector  ETV
572000	128193 309 148 38888 20.215625 30.821074781753 10 0.2 3.7 10.2 20.6
vector 572003  Network.dyn_peer[1]  lookupHopsSig:vector  ETV
572003	129100 290 157 106195 20.23125 40.54779579576 10 2 38 125 2651
vector 572002  Network.dyn_peer[1]  lookupTimeSig:vector  ETV
572002	128795 305 157 106195 20.23125 40.54779579576 10 0.2 3.9 13.4 29.06
vector 572005  Network.dyn_peer[2]  lookupHopsSig:vector  ETV
572005	129852 444 166 95878 20.246875 38.86537026697 15 2 30 159 2851
vector 572004  Network.dyn_peer[2]  lookupTimeSig:vector  ETV
572004	129390 462 166 95878 20.246875 38.86537026697 15 0.2 3.1 17.3 31.79
vector 572009  Network.dyn_peer[4]  lookupHopsSig:vector  ETV
572009	131641 329 180 100994 20.278125 39.672876336419 11 1 36 152 3508
vector 572008  Network.dyn_peer[4]  lookupTimeSig:vector  ETV
572008	131297 344 180 100994 20.278125 39.672876336419 11 0.2 3.7 16.2 38.18
vector 572019  Network.dyn_peer[9]  lookupHopsSig:vector  ETV
572019	135194 226 212 76485 20.35625 36.131518670128 8 2 18 55 561
vector 572018  Network.dyn_peer[9]  lookupTimeSig:vector  ETV
572018	134953 241 212 76485 20.35625 36.131518670128 8 0.2 1.9 6.2 6.74
vector 572007  Network.dyn_peer[3]  lookupHopsSig:vector  ETV
572007	130809 488 220 134155 20.3625 49.474136189353 16 2 58 191 4981
vector 572006  Network.dyn_peer[3]  lookupTimeSig:vector  ETV
572006	130296 513 220 134155 20.3625 49.474136189353 16 0.3 5.9 20.6 53.72
vector 572011  Network.dyn_peer[5]  lookupHopsSig:vector  ETV
572011	132213 231 237 104281 20.39375 40.221450105574 8 1 21 70 992
vector 572010  Network.dyn_peer[5]  lookupTimeSig:vector  ETV
572010	131970 243 237 104281 20.39375 40.221450105574 8 0.2 2.2 7.7 11.33
vector 572025  Network.dyn_peer[12]  lookupHopsSig:vector  ETV
572025	137091 386 243 69812 20.403125 35.280750179843 13 1 23 116 1584
vector 572024  Network.dyn_peer[12]  lookupTimeSig:vector  ETV
572024	136686 405 243 69812 20.403125 35.280750179843 13 0.2 2.4 12.8 18.24
vector 572013  Network.dyn_peer[6]  lookupHopsSig:vector  ETV
572013	132946 478 251 92102 20.409375 38.298737510075 16 2 19 126 1374
vector 572012  Network.dyn_peer[6]  lookupTimeSig:vector  ETV
572012	132444 502 251 92102 20.409375 38.298737510075 16 0.3 2 14.1 16.35
vector 572015  Network.dyn_peer[7]  lookupHopsSig:vector  ETV
572015	133728 290 262 103785 20.425 40.133224776948 10 3 38 117 2707
vector 572014  Network.dyn_peer[7]  lookupTimeSig:vector  ETV
572014	133424 304 262 103785 20.425 40.133224776948 10 0.3 3.9 12.6 29.44
vector 572029  Network.dyn_peer[14]  lookupHopsSig:vector  ETV
572029	138826 575 269 131078 20.434375 47.431647646733 19 2 46 218 5218
vector 572028  Network.dyn_peer[14]  lookupTimeSig:vector  ETV
572028	138220 606 269 131078 20.434375 47.431647646733 19 0.2 4.7 23.6 56.68
vector 572031  Network.dyn_peer[15]  lookupHopsSig:vector  ETV
572031	139802 386 280 112053 20.45 41.645772075579 13 1 48 165 3957
vector 572030  Network.dyn_peer[15]  lookupTimeSig:vector  ETV
572030	139401 401 280 112053 20.45 41.645772075579 13 0.2 4.9 17.7 42.95
vector 572021  Network.dyn_peer[10]  lookupHopsSig:vector  ETV
572021	135730 295 295 62523 20.471875 34.336306502107 10 3 28 97 1521
vector 572020  Network.dyn_peer[10]  lookupTimeSig:vector  ETV
572020	135420 310 295 62523 20.471875 34.336306502107 10 0.3 2.9 10.6 17.18
vector 572023  Network.dyn_peer[11]  lookupHopsSig:vector  ETV
572023	136364 322 308 91570 20.4875 38.224901704854 11 3 57 147 4385
vector 572022  Network.dyn_peer[11]  lookupTimeSig:vector  ETV
572022	136025 339 308 91570 20.4875 38.224901704854 11 0.3 5.8 15.7 46.83
vector 572037  Network.dyn_peer[18]  lookupHopsSig:vector  ETV
572037	141932 326 315 74864 20.496875 35.921939011378 11 2 18 101 1215
vector 572036  Network.dyn_peer[18]  lookupTimeSig:vector  ETV
572036	141592 340 315 74864 20.496875 35.921939011378 11 0.2 1.9 11.1 14.23
vector 572039  Network.dyn_peer[19]  lookupHopsSig:vector  ETV
572039	142696 418 326 101041 20.5125 39.679662420821 14 2 34 154 2732
vector 572038  Network.dyn_peer[19]  lookupTimeSig:vector  ETV
572038	142258 438 326 101041 20.5125 39.679662420821 14 0.2 3.5 16.7 30.49
vector 572041  Network.dyn_peer[20]  lookupHopsSig:vector  ETV
572041	143451 325 340 111855 20.528125 41.610051408809 11 2 57 185 6819
vector 572040  Network.dyn_peer[20]  lookupTimeSig:vector  ETV
572040	143114 337 340 111855 20.528125 41.610051408809 11 0.2 5.8 19.5 71.95
vector 572017  Network.dyn_peer[8]  lookupHopsSig:vector  ETV
572017	134493 460 351 129200 20.540625 46.517922706336 15 2 39 231 5437
vector 572016  Network.dyn_peer[8]  lookupTimeSig:vector  ETV
572016	134018 475 351 129200 20.540625 46.517922706336 15 0.3 4 24.5 59.05
vector 572033  Network.dyn_peer[16]  lookupHopsSig:vector  ETV
572033	140531 332 370 111936 20.565625 41.626983042606 11 3 49 176 4986
vector 572032  Network.dyn_peer[16]  lookupTimeSig:vector  ETV
572032	140188 343 370 111936 20.565625 41.626983042606 11 0.3 5 18.6 53.42
vector 572059  Network.dyn_peer[29]  lookupHopsSig:vector  ETV
572059	149536 388 375 105627 20.56875 40.451866965752 13 1 39 184 4572
vector 572058  Network.dyn_peer[29]  lookupTimeSig:vector  ETV
572058	149131 405 375 105627 20.56875 40.451866965752 13 0.1 4 19.6 49.5
vector 572047  Network.dyn_peer[23]  lookupHopsSig:vector  ETV
572047	145557 225 382 26931 20.575 28.66566593168 8 1 21 55 819
vector 572046  Network.dyn_peer[23]  lookupTimeSig:vector  ETV
572046	145318 239 382 26931 20.575 28.66566593168 8 0.2 2.2 6.2 9.32
vector 572049  Network.dyn_peer[24]  lookupHopsSig:vector  ETV
572049	146097 299 395 124347 20.590625 44.733678515587 10 2 43 137 3533
vector 572048  Network.dyn_peer[24]  lookupTimeSig:vector  ETV
572048	145782 315 395 124347 20.590625 44.733678515587 10 0.2 4.4 14.6 38.12
vector 572027  Network.dyn_peer[13]  lookupHopsSig:vector  ETV
572027	137857 363 414 123112 20.61875 44.349211241741 12 1 25 139 2409
vector 572026  Network.dyn_peer[13]  lookupTimeSig:vector  ETV
572026	137477 380 414 123112 20.61875 44.349211241741 12 0.2 2.6 15 26.9
vector 572043  Network.dyn_peer[21]  lookupHopsSig:vector  ETV
572043	144149 356 434 103260 20.64375 40.045024364675 12 1 31 121 2097
vector 572042  Network.dyn_peer[21]  lookupTimeSig:vector  ETV
572042	143776 373 434 103260 20.64375 40.045024364675 12 0.2 3.2 13.2 23.44
vector 572053  Network.dyn_peer[26]  lookupHopsSig:vector  ETV
572053	147283 329 491 74067 20.721875 35.818682360024 11 3 31 126 2280
vector 572052  Network.dyn_peer[26]  lookupTimeSig:vector  ETV
572052	146937 346 491 74067 20.721875 35.818682360024 11 0.3 3.2 13.6 25.36
vector 572055  Network.dyn_peer[27]  lookupHopsSig:vector  ETV
572055	147884 259 507 36809 20.7375 30.474197636715 9 2 20 81 1079
vector 572054  Network.dyn_peer[27]  lookupTimeSig:vector  ETV
572054	147612 272 507 36809 20.7375 30.474197636715 9 0.3 2.1 8.9 12.43
vector 572057  Network.dyn_peer[28]  lookupHopsSig:vector  ETV
572057	148646 485 520 117051 20.753125 42.733990502383 16 3 41 195 3947
vector 572056  Network.dyn_peer[28]  lookupTimeSig:vector  ETV
572056	148143 503 520 117051 20.753125 42.733990502383 16 0.3 4.2 21 43.46
vector 572045  Network.dyn_peer[22]  lookupHopsSig:vector  ETV
572045	144922 396 528 109726 20.759375 41.199364500243 13 1 22 129 1805
vector 572044  Network.dyn_peer[22]  lookupTimeSig:vector  ETV
572044	144505 417 528 109726 20.759375 41.199364500243 13 0.2 2.3 14.1 20.67
vector 572035  Network.dyn_peer[17]  lookupHopsSig:vector  ETV
572035	141236 356 547 54271 20.78125 33.206761423744 12 5 13 103 981
vector 572034  Network.dyn_peer[17]  lookupTimeSig:vector  ETV
572034	140863 373 547 54271 20.78125 33.206761423744 12 0.5 1.4 11.4 11.88
vector 572061  Network.dyn_peer[30]  lookupHopsSig:vector  ETV
572061	150304 361 554 94801 20.784375 38.705997133371 12 3 20 108 1230
vector 572060  Network.dyn_peer[30]  lookupTimeSig:vector  ETV
572060	149924 380 554 94801 20.784375 38.705997133371 12 0.3 2.1 11.9 14.51
vector 572051  Network.dyn_peer[25]  lookupHopsSig:vector  ETV
572051	146672 265 572 80387 20.80625 36.643051347361 9 3 44 136 3538
vector 572050  Network.dyn_peer[25]  lookupTimeSig:vector  ETV
572050	146396 276 572 80387 20.80625 36.643051347361 9 0.4 4.5 14.4 38.1
vector 572071  Network.dyn_peer[35]  lookupHopsSig:vector  ETV
572071	152904 449 624 111062 20.8625 41.451363054274 15 2 20 130 1734
vector 572070  Network.dyn_peer[35]  lookupTimeSig:vector  ETV
572070	152433 471 624 111062 20.8625 41.451363054274 15 0.3 2.1 14.4 20.02
vector 572087  Network.dyn_peer[43]  lookupHopsSig:vector  ETV
572087	159079 387 651 70684 20.8875 35.388358421658 13 2 23 109 1361
vector 572086  Network.dyn_peer[43]  lookupTimeSig:vector  ETV
572086	158671 408 651 70684 20.8875 35.388358421658 13 0.2 2.4 12.1 15.87
vector 572067  Network.dyn_peer[33]  lookupHopsSig:vector  ETV
572067	151751 329 700 83405 20.93125 37.053222787075 11 1 25 125 1825
vector 572066  Network.dyn_peer[33]  lookupTimeSig:vector  ETV
572066	151408 343 700 83405 20.93125 37.053222787075 11 0.2 2.6 13.5 20.77
vector 572093  Network.dyn_peer[46]  lookupHopsSig:vector  ETV
572093	161008 613 709 126489 20.934375 45.451978319373 20 2 29 222 3364
vector 572092  Network.dyn_peer[46]  lookupTimeSig:vector  ETV
572092	160370 638 709 126489 20.934375 45.451978319373 20 0.2 3 24.1 38.23
vector 572081  Network.dyn_peer[40]  lookupHopsSig:vector  ETV
572081	156728 330 720 125009 20.940625 44.943527216272 11 2 23 109 1601
vector 572080  Network.dyn_peer[40]  lookupTimeSig:vector  ETV
572080	156382 346 720 125009 20.940625 44.943527216272 11 0.3 2.4 11.9 18.23
vector 572101  Network.dyn_peer[50]  lookupHopsSig:vector  ETV
572101	164796 423 771 113267 20.996875 41.897486989834 14 1 32 152 2842
vector 572100  Network.dyn_peer[50]  lookupTimeSig:vector  ETV
572100	164354 442 771 113267 20.996875 41.897486989834 14 0.2 3.3 16.5 31.55
vector 572065  Network.dyn_peer[32]  lookupHopsSig:vector  ETV
572065	151179 229 793 24206 21.015625 28.125589206862 8 3 10 50 348
vector 572064  Network.dyn_peer[32]  lookupTimeSig:vector  ETV
572064	150935 244 793 24206 21.015625 28.125589206862 8 0.4 1.1 5.7 4.45
vector 572069  Network.dyn_peer[34]  lookupHopsSig:vector  ETV
572069	152261 172 825 53193 21.046875 33.05093658082 6 4 22 70 1130
vector 572068  Network.dyn_peer[34]  lookupTimeSig:vector  ETV
572068	152080 181 825 53193 21.046875 33.05093658082 6 0.5 2.3 7.5 12.65
vector 572097  Network.dyn_peer[48]  lookupHopsSig:vector  ETV
572097	162803 616 849 138096 21.065625 57.506609648003 20 2 44 296 8164
vector 572096  Network.dyn_peer[48]  lookupTimeSig:vector  ETV
572096	162159 644 849 138096 21.065625 57.506609648003 20 0.3 4.5 31.5 87.69
vector 572127  Network.dyn_peer[63]  lookupHopsSig:vector  ETV
572127	173741 506 887 131528 21.1 47.683179152437 17 1 37 196 4116
vector 572126  Network.dyn_peer[63]  lookupTimeSig:vector  ETV
572126	173209 532 887 131528 21.1 47.683179152437 17 0.1 3.8 21.2 45.22
vector 572089  Network.dyn_peer[44]  lookupHopsSig:vector  ETV
572089	159715 239 893 118297 21.103125 43.036282618741 8 2 38 146 3854
vector 572088  Network.dyn_peer[44]  lookupTimeSig:vector  ETV
572088	159466 249 893 118297 21.103125 43.036282618741 8 0.3 3.9 15.3 41.45
vector 572115  Network.dyn_peer[57]  lookupHopsSig:vector  ETV
572115	169811 361 901 112961 21.10625 41.836259494657 12 2 36 175 3797
vector 572114  Network.dyn_peer[57]  lookupTimeSig:vector  ETV
572114	169437 374 901 112961 21.10625 41.836259494657 12 0.2 3.7 18.6 41.54
vector 572117  Network.dyn_peer[58]  lookupHopsSig:vector  ETV
572117	170549 359 918 59819 21.121875 33.974076801142 12 2 21 119 1581
vector 572116  Network.dyn_peer[58]  lookupTimeSig:vector  ETV
572116	170172 377 918 59819 21.121875 33.974076801142 12 0.2 2.2 13 18.26
vector 572109  Network.dyn_peer[54]  lookupHopsSig:vector  ETV
572109	167989 365 962 130339 21.159375 47.051393339947 12 3 31 174 3408
vector 572108  Network.dyn_peer[54]  lookupTimeSig:vector  ETV
572108	167607 382 962 130339 21.159375 47.051393339947 12 0.3 3.2 18.5 37.61
vector 572125  Network.dyn_peer[62]  lookupHopsSig:vector  ETV
572125	172883 326 987 62643 21.184375 34.352307517555 11 1 14 88 940
vector 572124  Network.dyn_peer[62]  lookupTimeSig:vector  ETV
572124	172540 343 987 62643 21.184375 34.352307517555 11 0.2 1.5 9.8 11.22
vector 572075  Network.dyn_peer[37]  lookupHopsSig:vector  ETV
572075	154603 361 1001 87806 21.19375 37.680454154338 12 6 20 142 1946
vector 572074  Network.dyn_peer[37]  lookupTimeSig:vector  ETV
572074	154229 374 1001 87806 21.19375 37.680454154338 12 0.6 2.1 15.3 22.29
vector 572063  Network.dyn_peer[31]  lookupHopsSig:vector  ETV
572063	150804 131 1010 11896 21.2 25.324835894996 5 7 12 44 406
vector 572062  Network.dyn_peer[31]  lookupTimeSig:vector  ETV
572062	150665 139 1010 11896 21.2 25.324835894996 5 0.7 1.3 4.8 4.84
vector 572129  Network.dyn_peer[64]  lookupHopsSig:vector  ETV
572129	174528 271 1032 107816 21.215625 40.841756051651 9 2 63 161 5603
vector 572128  Network.dyn_peer[64]  lookupTimeSig:vector  ETV
572128	174247 281 1032 107816 21.215625 40.841756051651 9 0.2 6.4 16.9 59.29
vector 572091  Network.dyn_peer[45]  lookupHopsSig:vector  ETV
572091	160166 204 1039 103380 21.21875 40.066019134965 7 3 26 87 1509
vector 572090  Network.dyn_peer[45]  lookupTimeSig:vector  ETV
572090	159954 212 1039 103380 21.21875 40.066019134965 7 0.4 2.7 9.3 16.79
vector 572079  Network.dyn_peer[39]  lookupHopsSig:vector  ETV
572079	155866 516 1049 122909 21.225 44.289386874409 17 4 24 164 2062
vector 572078  Network.dyn_peer[39]  lookupTimeSig:vector  ETV
572078	155322 544 1049 122909 21.225 44.289386874409 17 0.5 2.5 18 23.94
vector 572131  Network.dyn_peer[65]  lookupHopsSig:vector  ETV
572131	175207 389 1058 99305 21.23125 39.402999035155 13 2 28 160 2866
vector 572130  Network.dyn_peer[65]  lookupTimeSig:vector  ETV
572130	174799 408 1058 99305 21.23125 39.402999035155 13 0.2 2.9 17.2 31.94
vector 572135  Network.dyn_peer[67]  lookupHopsSig:vector  ETV
572135	176607 196 1099 51217 21.2625 32.765836346197 7 2 11 40 278
vector 572134  Network.dyn_peer[67]  lookupTimeSig:vector  ETV
572134	176398 209 1099 51217 21.2625 32.765836346197 7 0.2 1.2 4.6 3.6
vector 572123  Network.dyn_peer[61]  lookupHopsSig:vector  ETV
572123	172245 295 1109 54428 21.26875 33.227451734002 10 2 31 100 1746
vector 572122  Network.dyn_peer[61]  lookupTimeSig:vector  ETV
572122	171936 309 1109 54428 21.26875 33.227451734002 10 0.3 3.2 10.9 19.49
vector 572073  Network.dyn_peer[36]  lookupHopsSig:vector  ETV
572073	153802 427 1123 120208 21.278125 43.524522185423 14 2 21 138 1878
vector 572072  Network.dyn_peer[36]  lookupTimeSig:vector  ETV
572072	153353 449 1123 120208 21.278125 43.524522185423 14 0.3 2.2 15.1 21.53
vector 572103  Network.dyn_peer[51]  lookupHopsSig:vector  ETV
572103	165787 544 1166 119641 21.3125 43.373733515948 18 2 19 157 1907
vector 572102  Network.dyn_peer[51]  lookupTimeSig:vector  ETV
572102	165219 568 1166 119641 21.3125 43.373733515948 18 0.3 2 17.4 22.28
vector 572105  Network.dyn_peer[52]  lookupHopsSig:vector  ETV
572105	166612 266 1188 70636 21.328125 35.382948090284 9 1 21 71 833
vector 572104  Network.dyn_peer[52]  lookupTimeSig:vector  ETV
572104	166331 281 1188 70636 21.328125 35.382948090284 9 0.2 2.2 7.9 9.73
vector 572111  Network.dyn_peer[55]  lookupHopsSig:vector  ETV
572111	168593 228 1253 58271 21.375 33.76524931377 8 3 32 93 1689
vector 572110  Network.dyn_peer[55]  lookupTimeSig:vector  ETV
572110	168354 239 1253 58271 21.375 33.76524931377 8 0.4 3.3 10 18.72
vector 572145  Network.dyn_peer[72]  lookupHopsSig:vector  ETV
572145	179451 331 1336 103435 21.440625 40.075352530245 11 1 26 132 2134
vector 572144  Network.dyn_peer[72]  lookupTimeSig:vector  ETV
572144	179105 346 1336 103435 21.440625 40.075352530245 11 0.2 2.7 14.2 24.02
vector 572149  Network.dyn_peer[74]  lookupHopsSig:vector  ETV
572149	180125 237 1377 108831 21.471875 41.03013251438 8 3 38 93 1945
vector 572148  Network.dyn_peer[74]  lookupTimeSig:vector  ETV
572148	179879 246 1377 108831 21.471875 41.03013251438 8 0.3 3.9 10 21.32
vector 572153  Network.dyn_peer[76]  lookupHopsSig:vector  ETV
572153	181608 621 1425 133040 21.503125 48.633065773952 20 1 28 231 3791
vector 572152  Network.dyn_peer[76]  lookupTimeSig:vector  ETV
572152	180965 643 1425 133040 21.503125 48.633065773952 20 0.2 2.9 25 42.66
vector 572157  Network.dyn_peer[78]  lookupHopsSig:vector  ETV
572157	183179 335 1468 125325 21.534375 45.044739224487 11 2 41 181 4601
vector 572156  Network.dyn_peer[78]  lookupTimeSig:vector  ETV
572156	182830 349 1468 125325 21.534375 45.044739224487 11 0.3 4.2 19.1 49.67
vector 572119  Network.dyn_peer[59]  lookupHopsSig:vector  ETV
572119	171122 206 1477 80500 21.5375 36.659545674282 7 6 50 150 4662
vector 572118  Network.dyn_peer[59]  lookupTimeSig:vector  ETV
572118	170908 214 1477 80500 21.5375 36.659545674282 7 0.6 5.1 15.6 49.56
vector 572107  Network.dyn_peer[53]  lookupHopsSig:vector  ETV
572107	167251 356 1486 53473 21.54375 33.09602035338 12 2 22 111 1451
vector 572106  Network.dyn_peer[53]  lookupTimeSig:vector  ETV
572106	166878 373 1486 53473 21.54375 33.09602035338 12 0.3 2.3 12.2 16.7
vector 572185  Network.dyn_peer[92]  lookupHopsSig:vector  ETV
572185	191141 268 1509 96101 21.553125 38.897865781778 9 1 30 131 2583
vector 572184  Network.dyn_peer[92]  lookupTimeSig:vector  ETV
572184	190865 276 1509 96101 21.553125 38.897865781778 9 0.1 3.1 13.9 28.51
vector 572161  Network.dyn_peer[80]  lookupHopsSig:vector  ETV
572161	184264 389 1532 120537 21.565625 43.615975203068 13 1 52 143 3717
vector 572160  Network.dyn_peer[80]  lookupTimeSig:vector  ETV
572160	183856 408 1532 120537 21.565625 43.615975203068 13 0.2 5.3 15.5 40.09
vector 572151  Network.dyn_peer[75]  lookupHopsSig:vector  ETV
572151	180671 294 1565 111387 21.5875 41.517533124662 10 2 33 122 2428
vector 572150  Network.dyn_peer[75]  lookupTimeSig:vector  ETV
572150	180362 309 1565 111387 21.5875 41.517533124662 10 0.3 3.4 13.1 26.73
vector 572165  Network.dyn_peer[82]  lookupHopsSig:vector  ETV
572165	185320 426 1585 125105 21.596875 44.975670566138 14 3 35 190 3592
vector 572164  Network.dyn_peer[82]  lookupTimeSig:vector  ETV
572164	184877 443 1585 125105 21.596875 44.975670566138 14 0.3 3.6 20.3 39.79
vector 572191  Network.dyn_peer[95]  lookupHopsSig:vector  ETV
572191	192097 160 1592 60072 21.6 34.009054169615 6 1 48 71 2515
vector 572190  Network.dyn_peer[95]  lookupTimeSig:vector  ETV
572190	191927 170 1592 60072 21.6 34.009054169615 6 0.1 4.9 7.6 26.6
vector 572141  Network.dyn_peer[70]  lookupHopsSig:vector  ETV
572141	178334 237 1606 107910 21.609375 40.861343280385 8 1 30 117 2413
vector 572140  Network.dyn_peer[70]  lookupTimeSig:vector  ETV
572140	178090 244 1606 107910 21.609375 40.861343280385 8 0.2 3.1 12.4 26.44
vector 572095  Network.dyn_peer[47]  lookupHopsSig:vector  ETV
572095	161895 264 1671 131272 21.65 47.539550332021 9 6 44 171 4829
vector 572094  Network.dyn_peer[47]  lookupTimeSig:vector  ETV
572094	161621 274 1671 131272 21.65 47.539550332021 9 0.7 4.5 17.9 51.61
vector 572083  Network.dyn_peer[41]  lookupHopsSig:vector  ETV
572083	157466 393 1681 125587 21.65625 45.13350380127 13 3 29 165 2941
vector 572082  Network.dyn_peer[41]  lookupTimeSig:vector  ETV
572082	157058 408 1681 125587 21.65625 45.13350380127 13 0.4 3 17.7 32.63
vector 572099  Network.dyn_peer[49]  lookupHopsSig:vector  ETV
572099	163895 459 1718 127538 21.68125 45.849863240278 15 3 25 165 2393
vector 572098  Network.dyn_peer[49]  lookupTimeSig:vector  ETV
572098	163419 476 1718 127538 21.68125 45.849863240278 15 0.4 2.6 17.9 27.19
vector 572217  Network.dyn_peer[108]  lookupHopsSig:vector  ETV
572217	198704 266 1754 67958 21.703125 35.038023491665 9 0 20 82 1136
vector 572216  Network.dyn_peer[108]  lookupTimeSig:vector  ETV
572216	198429 275 1754 67958 21.703125 35.038023491665 9 0 2.1 9 13.08
vector 572143  Network.dyn_peer[71]  lookupHopsSig:vector  ETV
572143	178846 259 1790 20605 21.725 27.375817259535 9 1 10 54 404
vector 572142  Network.dyn_peer[71]  lookupTimeSig:vector  ETV
572142	178571 275 1790 20605 21.725 27.375817259535 9 0.2 1.1 6.2 5.08
vector 572183  Network.dyn_peer[91]  lookupHopsSig:vector  ETV
572183	190664 201 1816 100939 21.7375 39.664368702495 7 3 53 125 4121
vector 572182  Network.dyn_peer[91]  lookupTimeSig:vector  ETV
572182	190457 207 1816 100939 21.7375 39.664368702495 7 0.3 5.4 13.1 43.71
vector 572171  Network.dyn_peer[85]  lookupHopsSig:vector  ETV
572171	187024 359 1828 100908 21.74375 39.659752601222 12 4 43 155 4127
vector 572170  Network.dyn_peer[85]  lookupTimeSig:vector  ETV
572170	186646 378 1828 100908 21.74375 39.659752601222 12 0.4 4.4 16.6 44.4
vector 572197  Network.dyn_peer[98]  lookupHopsSig:vector  ETV
572197	193644 390 1838 95746 21.746875 38.844986302239 13 1 26 119 1841
vector 572196  Network.dyn_peer[98]  lookupTimeSig:vector  ETV
572196	193233 411 1838 95746 21.746875 38.844986302239 13 0.2 2.7 13.1 20.87
vector 572121  Network.dyn_peer[60]  lookupHopsSig:vector  ETV
572121	171639 297 1855 76882 21.753125 36.18293757365 10 1 22 91 1335
vector 572120  Network.dyn_peer[60]  lookupTimeSig:vector  ETV
572120	171328 311 1855 76882 21.753125 36.18293757365 10 0.2 2.3 10 15.1
vector 572147  Network.dyn_peer[73]  lookupHopsSig:vector  ETV
572147	179832 47 1863 7427 21.75625 24.05625 2 6 22 28 520
vector 572146  Network.dyn_peer[73]  lookupTimeSig:vector  ETV
572146	179782 50 1863 7427 21.75625 24.05625 2 0.6 2.3 2.9 5.65
vector 572211  Network.dyn_peer[105]  lookupHopsSig:vector  ETV
572211	197453 265 1867 80142 21.75625 36.61282927281 9 1 26 94 1594
vector 572210  Network.dyn_peer[105]  lookupTimeSig:vector  ETV
572210	197174 279 1867 80142 21.75625 36.61282927281 9 0.1 2.7 10.2 17.88
vector 572139  Network.dyn_peer[69]  lookupHopsSig:vector  ETV
572139	177727 363 1928 86235 21.79375 37.453840449829 12 4 24 152 2338
vector 572138  Network.dyn_peer[69]  lookupTimeSig:vector  ETV
572138	177348 379 1928 86235 21.79375 37.453840449829 12 0.5 2.5 16.3 26.39
vector 572077  Network.dyn_peer[38]  lookupHopsSig:vector  ETV
572077	155145 177 1955 82372 21.809375 36.915272121673 6 10 43 136 3914
vector 572076  Network.dyn_peer[38]  lookupTimeSig:vector  ETV
572076	154964 181 1955 82372 21.809375 36.915272121673 6 1.1 4.4 14.1 41.67
vector 572189  Network.dyn_peer[94]  lookupHopsSig:vector  ETV
572189	191879 48 2076 3497 21.884375 22.584375 2 4 6 10 52
vector 572188  Network.dyn_peer[94]  lookupTimeSig:vector  ETV
572188	191827 52 2076 3497 21.884375 22.584375 2 0.4 0.7 1.1 0.65
vector 572167  Network.dyn_peer[83]  lookupHopsSig:vector  ETV
572167	185987 232 2119 85301 21.9125 37.323945444091 8 6 37 114 2344
vector 572166  Network.dyn_peer[83]  lookupTimeSig:vector  ETV
572166	185746 241 2119 85301 21.9125 37.323945444091 8 0.6 3.8 12.1 25.67
vector 572207  Network.dyn_peer[103]  lookupHopsSig:vector  ETV
572207	196691 198 2145 65470 21.925 34.723818112576 7 3 16 70 862
vector 572206  Network.dyn_peer[103]  lookupTimeSig:vector  ETV
572206	196483 208 2145 65470 21.925 34.723818112576 7 0.3 1.7 7.6 10.02
vector 572227  Network.dyn_peer[113]  lookupHopsSig:vector  ETV
572227	201909 201 2245 19331 21.98125 27.101399003535 7 2 25 47 715
vector 572226  Network.dyn_peer[113]  lookupTimeSig:vector  ETV
572226	201695 214 2245 19331 21.98125 27.101399003535 7 0.2 2.6 5.3 8.11
vector 572179  Network.dyn_peer[89]  lookupHopsSig:vector  ETV
572179	189314 331 2292 97334 22.00625 39.095261754288 11 1 20 124 1794
vector 572178  Network.dyn_peer[89]  lookupTimeSig:vector  ETV
572178	188969 345 2292 97334 22.00625 39.095261754288 11 0.2 2.1 13.4 20.4
vector 572169  Network.dyn_peer[84]  lookupHopsSig:vector  ETV
572169	186437 209 2330 110746 22.028125 41.393022066058 7 1 30 104 2184
vector 572168  Network.dyn_peer[84]  lookupTimeSig:vector  ETV
572168	186219 218 2330 110746 22.028125 41.393022066058 7 0.2 3.1 11 23.84
vector 572261  Network.dyn_peer[130]  lookupHopsSig:vector  ETV
572261	211695 112 2362 28786 22.046875 29.032353519727 4 0 40 63 1889
vector 572260  Network.dyn_peer[130]  lookupTimeSig:vector  ETV
572260	211579 116 2362 28786 22.046875 29.032353519727 4 0 4.1 6.6 20.18
vector 572085  Network.dyn_peer[42]  lookupHopsSig:vector  ETV
572085	158272 399 2410 125327 22.071875 45.044962027795 13 4 55 224 5852
vector 572084  Network.dyn_peer[42]  lookupTimeSig:vector  ETV
572084	157859 413 2410 125327 22.071875 45.044962027795 13 0.5 5.6 23.6 62.84
vector 572201  Network.dyn_peer[100]  lookupHopsSig:vector  ETV
572201	195183 459 2426 124683 22.078125 44.84069833059 15 1 31 155 2523
vector 572200  Network.dyn_peer[100]  lookupTimeSig:vector  ETV
572200	194704 479 2426 124683 22.078125 44.84069833059 15 0.2 3.2 16.9 28.37
vector 572163  Network.dyn_peer[81]  lookupHopsSig:vector  ETV
572163	184768 109 2438 82346 22.08125 36.912218528687 4 3 33 55 1283
vector 572162  Network.dyn_peer[81]  lookupTimeSig:vector  ETV
572162	184653 115 2438 82346 22.08125 36.912218528687 4 0.4 3.4 5.8 13.8
vector 572113  Network.dyn_peer[56]  lookupHopsSig:vector  ETV
572113	169134 303 2459 109403 22.090625 41.136194321571 10 3 31 153 3179
vector 572112  Network.dyn_peer[56]  lookupTimeSig:vector  ETV
572112	168821 313 2459 109403 22.090625 41.136194321571 10 0.4 3.2 16.2 34.7
vector 572205  Network.dyn_peer[102]  lookupHopsSig:vector  ETV
572205	196179 304 2495 125365 22.109375 45.055670259029 10 1 29 116 1930
vector 572204  Network.dyn_peer[102]  lookupTimeSig:vector  ETV
572204	195866 313 2495 125365 22.109375 45.055670259029 10 0.2 3 12.5 21.61
vector 572155  Network.dyn_peer[77]  lookupHopsSig:vector  ETV
572155	182537 293 2511 57943 22.11875 33.72061050969 10 4 20 101 1247
vector 572154  Network.dyn_peer[77]  lookupTimeSig:vector  ETV
572154	182229 308 2511 57943 22.11875 33.72061050969 10 0.5 2.1 11 14.4
vector 572233  Network.dyn_peer[116]  lookupHopsSig:vector  ETV
572233	203407 431 2535 135318 22.128125 50.599030093412 14 3 40 240 5592
vector 572232  Network.dyn_peer[116]  lookupTimeSig:vector  ETV
572232	202960 447 2535 135318 22.128125 50.599030093412 14 0.3 4.1 25.3 60.79
vector 572187  Network.dyn_peer[93]  lookupHopsSig:vector  ETV
572187	191623 204 2611 109147 22.16875 41.088298837433 7 2 45 119 3531
vector 572186  Network.dyn_peer[93]  lookupTimeSig:vector  ETV
572186	191409 214 2611 109147 22.16875 41.088298837433 7 0.3 4.6 12.5 37.61
vector 572175  Network.dyn_peer[87]  lookupHopsSig:vector  ETV
572175	188275 396 2626 134582 22.175 49.870530253155 13 3 38 182 3680
vector 572174  Network.dyn_peer[87]  lookupTimeSig:vector  ETV
572174	187863 412 2626 134582 22.175 49.870530253155 13 0.4 3.9 19.4 40.4
vector 572253  Network.dyn_peer[126]  lookupHopsSig:vector  ETV
572253	209545 269 2644 34790 22.184375 30.122612129908 9 2 15 73 735
vector 572252  Network.dyn_peer[126]  lookupTimeSig:vector  ETV
572252	209264 281 2644 34790 22.184375 30.122612129908 9 0.2 1.6 8.1 8.85
vector 572193  Network.dyn_peer[96]  lookupHopsSig:vector  ETV
572193	192342 81 2702 55464 22.215625 33.375081375027 3 7 32 55 1329
vector 572192  Network.dyn_peer[96]  lookupTimeSig:vector  ETV
572192	192257 85 2702 55464 22.215625 33.375081375027 3 0.7 3.3 5.7 14.27
vector 572245  Network.dyn_peer[122]  lookupHopsSig:vector  ETV
572245	207089 491 2716 126253 22.221875 45.370797760424 16 1 39 178 3332
vector 572244  Network.dyn_peer[122]  lookupTimeSig:vector  ETV
572244	206579 510 2716 126253 22.221875 45.370797760424 16 0.2 4 19.3 36.97
vector 572249  Network.dyn_peer[124]  lookupHopsSig:vector  ETV
572249	208395 391 2781 91725 22.253125 38.245599374899 13 3 26 122 1542
vector 572248  Network.dyn_peer[124]  lookupTimeSig:vector  ETV
572248	207991 404 2781 91725 22.253125 38.245599374899 13 0.3 2.7 13.4 17.92
vector 572251  Network.dyn_peer[125]  lookupHopsSig:vector  ETV
572251	209032 232 2821 51140 22.26875 32.755042246759 8 2 30 71 1491
vector 572250  Network.dyn_peer[125]  lookupTimeSig:vector  ETV
572250	208786 246 2821 51140 22.26875 32.755042246759 8 0.3 3.1 7.8 16.34
vector 572241  Network.dyn_peer[120]  lookupHopsSig:vector  ETV
572241	205563 142 2870 15444 22.290625 26.203457211313 5 4 14 37 353
vector 572240  Network.dyn_peer[120]  lookupTimeSig:vector  ETV
572240	205413 150 2870 15444 22.290625 26.203457211313 5 0.4 1.5 4.1 4.23
vector 572159  Network.dyn_peer[79]  lookupHopsSig:vector  ETV
572159	183689 167 2983 27479 22.35 28.774326277583 6 4 16 67 851
vector 572158  Network.dyn_peer[79]  lookupTimeSig:vector  ETV
572158	183514 175 2983 27479 22.35 28.774326277583 6 0.5 1.7 7.2 9.68
vector 572173  Network.dyn_peer[86]  lookupHopsSig:vector  ETV
572173	187626 237 3006 98837 22.359375 39.33199970132 8 2 29 116 2386
vector 572172  Network.dyn_peer[86]  lookupTimeSig:vector  ETV
572172	187383 243 3006 98837 22.359375 39.33199970132 8 0.3 3 12.3 26.05
vector 572203  Network.dyn_peer[101]  lookupHopsSig:vector  ETV
572203	195757 109 3074 17090 22.39375 26.596117636884 4 3 22 47 753
vector 572202  Network.dyn_peer[101]  lookupTimeSig:vector  ETV
572202	195642 115 3074 17090 22.39375 26.596117636884 4 0.4 2.3 5 8.34
vector 572267  Network.dyn_peer[133]  lookupHopsSig:vector  ETV
572267	212997 266 3078 105403 22.39375 40.413200010241 9 3 41 116 3056
vector 572266  Network.dyn_peer[133]  lookupTimeSig:vector  ETV
572266	212717 280 3078 105403 22.39375 40.413200010241 9 0.3 4.2 12.4 32.9