file 573371 1369674144                                          
version 2
run Stability-291-20130521-22:47:38-23591
attr configname Stability
attr datetime 20130521-22:47:38
attr experiment Stability
attr inifile omnetpp.ini
attr iterationvars $0=0.015625
attr iterationvars2 "$0=0.015625, $repetition=21"
attr measurement $0=0.015625
attr network Network
attr processid 23591
attr repetition 21
attr replication #21
attr resultdir results
attr runnumber 291
attr seedset 291
vector 582025  Network.dyn_peer[12]  lookupHopsSig:vector  ETV
582025	136920 328 142 73561 20.203125 35.653553713014 11 0 33 140 2678
vector 582024  Network.dyn_peer[12]  lookupTimeSig:vector  ETV
582024	136579 341 142 73561 20.203125 35.653553713014 11 0 3.4 15 29.68
vector 582013  Network.dyn_peer[6]  lookupHopsSig:vector  ETV
582013	133307 390 147 111857 20.209375 41.470070566633 13 1 41 155 3145
vector 582012  Network.dyn_peer[6]  lookupTimeSig:vector  ETV
582012	132900 407 147 111857 20.209375 41.470070566633 13 0.1 4.2 16.7 34.65
vector 582021  Network.dyn_peer[10]  lookupHopsSig:vector  ETV
582021	135608 234 171 82743 20.271875 36.820206105445 8 1 20 77 1009
vector 582020  Network.dyn_peer[10]  lookupTimeSig:vector  ETV
582020	135365 243 171 82743 20.271875 36.820206105445 8 0.1 2.1 8.4 11.68
vector 582009  Network.dyn_peer[4]  lookupHopsSig:vector  ETV
582009	131484 298 176 29241 20.278125 29.228161418378 10 1 17 74 770
vector 582008  Network.dyn_peer[4]  lookupTimeSig:vector  ETV
582008	131171 313 176 29241 20.278125 29.228161418378 10 0.2 1.8 8.3 9.23
vector 582011  Network.dyn_peer[5]  lookupHopsSig:vector  ETV
582011	132354 546 186 127812 20.29375 45.918662072923 18 1 34 170 2648
vector 582010  Network.dyn_peer[5]  lookupTimeSig:vector  ETV
582010	131782 572 186 127812 20.29375 45.918662072923 18 0.2 3.5 18.7 30.01
vector 582003  Network.dyn_peer[1]  lookupHopsSig:vector  ETV
582003	129075 325 205 112750 20.33125 41.653824119627 11 2 40 119 2451
vector 582002  Network.dyn_peer[1]  lookupTimeSig:vector  ETV
582002	128735 340 205 112750 20.33125 41.653824119627 11 0.3 4.1 12.9 26.93
vector 582017  Network.dyn_peer[8]  lookupHopsSig:vector  ETV
582017	134474 354 211 95535 20.340625 38.60771508243 12 1 42 130 3094
vector 582016  Network.dyn_peer[8]  lookupTimeSig:vector  ETV
582016	134101 373 211 95535 20.340625 38.60771508243 12 0.2 4.3 14.1 33.61
vector 582031  Network.dyn_peer[15]  lookupHopsSig:vector  ETV
582031	139066 328 220 81428 20.35 36.650233441818 11 1 23 102 1392
vector 582030  Network.dyn_peer[15]  lookupTimeSig:vector  ETV
582030	138720 346 220 81428 20.35 36.650233441818 11 0.1 2.4 11.2 16.04
vector 582007  Network.dyn_peer[3]  lookupHopsSig:vector  ETV
582007	130757 414 230 93277 20.3625 38.275914158667 14 1 36 151 2961
vector 582006  Network.dyn_peer[3]  lookupTimeSig:vector  ETV
582006	130320 437 230 93277 20.3625 38.275914158667 14 0.2 3.7 16.4 32.7
vector 582033  Network.dyn_peer[16]  lookupHopsSig:vector  ETV
582033	139842 428 236 128411 20.365625 46.161085843706 14 1 48 226 6652
vector 582032  Network.dyn_peer[16]  lookupTimeSig:vector  ETV
582032	139394 448 236 128411 20.365625 46.161085843706 14 0.1 4.9 23.9 71.15
vector 582001  Network.dyn_peer[0]  lookupHopsSig:vector  ETV
582001	128470 265 259 98695 20.415625 39.106893181638 9 3 24 93 1451
vector 582000  Network.dyn_peer[0]  lookupTimeSig:vector  ETV
582000	128193 277 259 98695 20.415625 39.106893181638 9 0.4 2.5 10.1 16.37
vector 582027  Network.dyn_peer[13]  lookupHopsSig:vector  ETV
582027	137590 329 264 120429 20.41875 43.478426738215 11 2 31 144 3032
vector 582026  Network.dyn_peer[13]  lookupTimeSig:vector  ETV
582026	137248 342 264 120429 20.41875 43.478426738215 11 0.2 3.2 15.4 33.26
vector 582019  Network.dyn_peer[9]  lookupHopsSig:vector  ETV
582019	135104 261 285 38273 20.45625 30.766708805585 9 2 20 65 763
vector 582018  Network.dyn_peer[9]  lookupTimeSig:vector  ETV
582018	134828 276 285 38273 20.45625 30.766708805585 9 0.3 2.1 7.3 8.95
vector 582039  Network.dyn_peer[19]  lookupHopsSig:vector  ETV
582039	142084 447 322 82736 20.5125 36.819249058676 15 2 15 136 1518
vector 582038  Network.dyn_peer[19]  lookupTimeSig:vector  ETV
582038	141614 470 322 82736 20.5125 36.819249058676 15 0.2 1.6 15 18
vector 582015  Network.dyn_peer[7]  lookupHopsSig:vector  ETV
582015	133905 196 333 70203 20.525 35.241308814638 7 4 42 88 2162
vector 582014  Network.dyn_peer[7]  lookupTimeSig:vector  ETV
582014	133697 208 333 70203 20.525 35.241308814638 7 0.4 4.3 9.4 23.36
vector 582049  Network.dyn_peer[24]  lookupHopsSig:vector  ETV
582049	145362 382 370 91410 20.590625 38.010831279617 13 1 10 69 437
vector 582048  Network.dyn_peer[24]  lookupTimeSig:vector  ETV
582048	144957 405 370 91410 20.590625 38.010831279617 13 0.2 1.1 8.1 5.83
vector 582041  Network.dyn_peer[20]  lookupHopsSig:vector  ETV
582041	142776 232 401 54875 20.628125 33.251602382324 8 3 26 74 1064
vector 582040  Network.dyn_peer[20]  lookupTimeSig:vector  ETV
582040	142531 245 401 54875 20.628125 33.251602382324 8 0.3 2.7 8.1 12.13
vector 582029  Network.dyn_peer[14]  lookupHopsSig:vector  ETV
582029	138329 391 409 127891 20.634375 45.952447159712 13 3 25 145 2291
vector 582028  Network.dyn_peer[14]  lookupTimeSig:vector  ETV
582028	137919 410 409 127891 20.634375 45.952447159712 13 0.4 2.6 15.7 25.85
vector 582055  Network.dyn_peer[27]  lookupHopsSig:vector  ETV
582055	148019 266 415 122011 20.6375 43.920561814679 9 2 39 143 3667
vector 582054  Network.dyn_peer[27]  lookupTimeSig:vector  ETV
582054	147743 276 415 122011 20.6375 43.920561814679 9 0.2 4 15.1 39.57
vector 582043  Network.dyn_peer[21]  lookupHopsSig:vector  ETV
582043	143223 203 424 85637 20.64375 37.208476364314 7 3 33 77 1751
vector 582042  Network.dyn_peer[21]  lookupTimeSig:vector  ETV
582042	143008 215 424 85637 20.64375 37.208476364314 7 0.3 3.4 8.3 19.05
vector 582005  Network.dyn_peer[2]  lookupHopsSig:vector  ETV
582005	129870 450 430 110612 20.646875 41.217303226509 15 1 39 153 2995
vector 582004  Network.dyn_peer[2]  lookupTimeSig:vector  ETV
582004	129400 470 430 110612 20.646875 41.217303226509 15 0.2 4 16.7 33.03
vector 582069  Network.dyn_peer[34]  lookupHopsSig:vector  ETV
582069	152961 109 434 20348 20.646875 27.481482923955 4 1 20 39 595
vector 582068  Network.dyn_peer[34]  lookupTimeSig:vector  ETV
582068	152846 115 434 20348 20.646875 27.481482923955 4 0.1 2.1 4.2 6.74
vector 582057  Network.dyn_peer[28]  lookupHopsSig:vector  ETV
582057	148663 363 440 102701 20.653125 39.764940062887 12 2 30 133 2209
vector 582056  Network.dyn_peer[28]  lookupTimeSig:vector  ETV
582056	148285 378 440 102701 20.653125 39.764940062887 12 0.2 3.1 14.4 24.82
vector 582073  Network.dyn_peer[36]  lookupHopsSig:vector  ETV
582073	154533 392 461 97954 20.678125 38.990267484841 13 1 20 123 1617
vector 582072  Network.dyn_peer[36]  lookupTimeSig:vector  ETV
582072	154122 411 461 97954 20.678125 38.990267484841 13 0.1 2.1 13.5 18.73
vector 582035  Network.dyn_peer[17]  lookupHopsSig:vector  ETV
582035	140511 232 466 33618 20.68125 30.000708110515 8 2 19 77 987
vector 582034  Network.dyn_peer[17]  lookupTimeSig:vector  ETV
582034	140270 241 466 33618 20.68125 30.000708110515 8 0.3 2 8.4 11.4
vector 582023  Network.dyn_peer[11]  lookupHopsSig:vector  ETV
582023	136218 361 473 130920 20.6875 47.347015629873 12 2 36 160 3468
vector 582022  Network.dyn_peer[11]  lookupTimeSig:vector  ETV
582022	135842 376 473 130920 20.6875 47.347015629873 12 0.3 3.7 17.1 37.89
vector 582079  Network.dyn_peer[39]  lookupHopsSig:vector  ETV
582079	156385 421 502 133441 20.725 49.017610211583 14 1 45 180 5100
vector 582078  Network.dyn_peer[39]  lookupTimeSig:vector  ETV
582078	155942 443 502 133441 20.725 49.017610211583 14 0.1 4.6 19.3 54.71
vector 582083  Network.dyn_peer[41]  lookupHopsSig:vector  ETV
582083	157991 298 526 72548 20.75625 35.529238529651 10 1 28 121 2077
vector 582082  Network.dyn_peer[41]  lookupTimeSig:vector  ETV
582082	157682 309 526 72548 20.75625 35.529238529651 10 0.1 2.9 13 23.26
vector 582059  Network.dyn_peer[29]  lookupHopsSig:vector  ETV
582059	149271 235 543 77487 20.76875 36.143960480737 8 3 40 141 3529
vector 582058  Network.dyn_peer[29]  lookupTimeSig:vector  ETV
582058	149026 245 543 77487 20.76875 36.143960480737 8 0.3 4.1 14.8 38.12
vector 582047  Network.dyn_peer[23]  lookupHopsSig:vector  ETV
582047	144567 390 552 128249 20.775 46.096865248915 13 1 45 203 5109
vector 582046  Network.dyn_peer[23]  lookupTimeSig:vector  ETV
582046	144163 404 552 128249 20.775 46.096865248915 13 0.2 4.6 21.5 55.19
vector 582061  Network.dyn_peer[30]  lookupHopsSig:vector  ETV
582061	149856 340 562 125550 20.784375 45.065570939394 11 3 29 183 3619
vector 582060  Network.dyn_peer[30]  lookupTimeSig:vector  ETV
582060	149506 350 562 125550 20.784375 45.065570939394 11 0.3 3 19.3 39.89
vector 582037  Network.dyn_peer[18]  lookupHopsSig:vector  ETV
582037	141187 427 572 133195 20.796875 48.820595407436 14 2 44 166 3456
vector 582036  Network.dyn_peer[18]  lookupTimeSig:vector  ETV
582036	140743 444 572 133195 20.796875 48.820595407436 14 0.3 4.5 17.9 37.91
vector 582089  Network.dyn_peer[44]  lookupHopsSig:vector  ETV
582089	160006 361 582 115068 20.803125 42.160489146681 12 1 41 168 4238
vector 582088  Network.dyn_peer[44]  lookupTimeSig:vector  ETV
582088	159630 376 582 115068 20.803125 42.160489146681 12 0.1 4.2 17.9 45.83
vector 582103  Network.dyn_peer[51]  lookupHopsSig:vector  ETV
582103	164813 387 594 105314 20.8125 40.219536172885 13 0 26 133 2163
vector 582102  Network.dyn_peer[51]  lookupTimeSig:vector  ETV
582102	164412 401 594 105314 20.8125 40.219536172885 13 0 2.7 14.5 24.41
vector 582067  Network.dyn_peer[33]  lookupHopsSig:vector  ETV
582067	152363 483 610 116848 20.83125 42.580271444831 16 1 31 177 3459
vector 582066  Network.dyn_peer[33]  lookupTimeSig:vector  ETV
582066	151859 504 610 116848 20.83125 42.580271444831 16 0.2 3.2 19.2 38.22
vector 582095  Network.dyn_peer[47]  lookupHopsSig:vector  ETV
582095	161671 195 628 87116 20.85 37.408784758551 7 1 47 118 3840
vector 582094  Network.dyn_peer[47]  lookupTimeSig:vector  ETV
582094	161465 206 628 87116 20.85 37.408784758551 7 0.1 4.8 12.4 40.8
vector 582065  Network.dyn_peer[32]  lookupHopsSig:vector  ETV
582065	151462 397 684 121490 20.915625 43.773667241909 13 4 35 206 4398
vector 582064  Network.dyn_peer[32]  lookupTimeSig:vector  ETV
582064	151048 414 684 121490 20.915625 43.773667241909 13 0.4 3.6 21.8 48.14
vector 582105  Network.dyn_peer[52]  lookupHopsSig:vector  ETV
582105	165483 270 699 106812 20.928125 40.493245140582 9 1 30 113 2229
vector 582104  Network.dyn_peer[52]  lookupTimeSig:vector  ETV
582104	165200 283 699 106812 20.928125 40.493245140582 9 0.1 3.1 12.1 24.61
vector 582081  Network.dyn_peer[40]  lookupHopsSig:vector  ETV
582081	157254 428 713 122969 20.940625 44.213342749336 14 3 30 173 2981
vector 582080  Network.dyn_peer[40]  lookupTimeSig:vector  ETV
582080	156806 448 713 122969 20.940625 44.213342749336 14 0.3 3.1 18.6 33.34
vector 582087  Network.dyn_peer[43]  lookupHopsSig:vector  ETV
582087	159338 292 758 94244 20.9875 38.419718016143 10 3 34 117 2119
vector 582086  Network.dyn_peer[43]  lookupTimeSig:vector  ETV
582086	159030 308 758 94244 20.9875 38.419718016143 10 0.3 3.5 12.6 23.56
vector 582051  Network.dyn_peer[25]  lookupHopsSig:vector  ETV
582051	146219 456 779 114620 21.00625 42.060307727822 15 1 24 167 2603
vector 582050  Network.dyn_peer[25]  lookupTimeSig:vector  ETV
582050	145744 475 779 114620 21.00625 42.060307727822 15 0.2 2.5 18.1 29.39
vector 582115  Network.dyn_peer[57]  lookupHopsSig:vector  ETV
582115	169014 356 783 74888 21.00625 35.816710230341 12 1 39 137 2893
vector 582114  Network.dyn_peer[57]  lookupTimeSig:vector  ETV
582114	168643 371 783 74888 21.00625 35.816710230341 12 0.1 4 14.8 31.76
vector 582111  Network.dyn_peer[55]  lookupHopsSig:vector  ETV
582111	167448 517 856 135764 21.075 51.842219133059 17 2 42 233 4921
vector 582110  Network.dyn_peer[55]  lookupTimeSig:vector  ETV
582110	166908 540 856 135764 21.075 51.842219133059 17 0.2 4.3 24.9 53.99
vector 582045  Network.dyn_peer[22]  lookupHopsSig:vector  ETV
582045	143803 360 946 99763 21.159375 39.281357776566 12 4 41 146 2854
vector 582044  Network.dyn_peer[22]  lookupTimeSig:vector  ETV
582044	143426 377 946 99763 21.159375 39.281357776566 12 0.5 4.2 15.7 31.41
vector 582123  Network.dyn_peer[61]  lookupHopsSig:vector  ETV
582123	170776 208 961 45736 21.16875 31.931557541381 7 2 15 64 794
vector 582122  Network.dyn_peer[61]  lookupTimeSig:vector  ETV
582122	170558 218 961 45736 21.16875 31.931557541381 7 0.2 1.6 7 9.24
vector 582125  Network.dyn_peer[62]  lookupHopsSig:vector  ETV
582125	171294 298 980 89509 21.184375 37.745838349341 10 2 32 153 3509
vector 582124  Network.dyn_peer[62]  lookupTimeSig:vector  ETV
582124	170984 310 980 89509 21.184375 37.745838349341 10 0.2 3.3 16.2 38.2
vector 582101  Network.dyn_peer[50]  lookupHopsSig:vector  ETV
582101	163986 426 996 118996 21.196875 43.107790356771 14 1 28 126 1850
vector 582100  Network.dyn_peer[50]  lookupTimeSig:vector  ETV
582100	163539 447 996 118996 21.196875 43.107790356771 14 0.2 2.9 13.9 21.07
vector 582077  Network.dyn_peer[38]  lookupHopsSig:vector  ETV
582077	155705 237 1014 99466 21.209375 39.233716512757 8 2 29 116 2140
vector 582076  Network.dyn_peer[38]  lookupTimeSig:vector  ETV
582076	155460 245 1014 99466 21.209375 39.233716512757 8 0.3 3 12.3 23.67
vector 582091  Network.dyn_peer[45]  lookupHopsSig:vector  ETV
582091	160646 267 1027 108805 21.21875 40.865331112647 9 4 31 97 1571
vector 582090  Network.dyn_peer[45]  lookupTimeSig:vector  ETV
582090	160367 279 1027 108805 21.21875 40.865331112647 9 0.5 3.2 10.5 17.63
vector 582107  Network.dyn_peer[53]  lookupHopsSig:vector  ETV
582107	165966 201 1055 45739 21.24375 31.931651893829 7 3 16 57 629
vector 582106  Network.dyn_peer[53]  lookupTimeSig:vector  ETV
582106	165753 213 1055 45739 21.24375 31.931651893829 7 0.4 1.7 6.3 7.41
vector 582133  Network.dyn_peer[66]  lookupHopsSig:vector  ETV
582133	174292 598 1063 137288 21.246875 56.474847720477 19 2 38 296 6324
vector 582132  Network.dyn_peer[66]  lookupTimeSig:vector  ETV
582132	173670 622 1063 137288 21.246875 56.474847720477 19 0.2 3.9 31.4 69.3
vector 582063  Network.dyn_peer[31]  lookupHopsSig:vector  ETV
582063	150630 418 1128 112104 21.3 41.517945278388 14 2 43 172 3488
vector 582062  Network.dyn_peer[31]  lookupTimeSig:vector  ETV
582062	150196 434 1128 112104 21.3 41.517945278388 14 0.3 4.4 18.5 38.29
vector 582053  Network.dyn_peer[26]  lookupHopsSig:vector  ETV
582053	147219 524 1154 122319 21.321875 44.014304215144 17 4 24 213 3155
vector 582052  Network.dyn_peer[26]  lookupTimeSig:vector  ETV
582052	146675 544 1154 122319 21.321875 44.014304215144 17 0.5 2.5 22.9 35.79
vector 582131  Network.dyn_peer[65]  lookupHopsSig:vector  ETV
582131	173278 392 1171 103749 21.33125 39.946208993264 13 1 29 130 2068
vector 582130  Network.dyn_peer[65]  lookupTimeSig:vector  ETV
582130	172872 406 1171 103749 21.33125 39.946208993264 13 0.2 3 14.2 23.34
vector 582093  Network.dyn_peer[46]  lookupHopsSig:vector  ETV
582093	161196 269 1178 35440 21.334375 30.307694914241 9 1 15 66 678
vector 582092  Network.dyn_peer[46]  lookupTimeSig:vector  ETV
582092	160913 283 1178 35440 21.334375 30.307694914241 9 0.2 1.6 7.4 8.06
vector 582097  Network.dyn_peer[48]  lookupHopsSig:vector  ETV
582097	162309 424 1216 93239 21.365625 38.270945609796 14 2 27 144 2090
vector 582096  Network.dyn_peer[48]  lookupTimeSig:vector  ETV
582096	161866 443 1216 93239 21.365625 38.270945609796 14 0.3 2.8 15.7 23.79
vector 582137  Network.dyn_peer[68]  lookupHopsSig:vector  ETV
582137	175514 141 1236 32176 21.378125 29.746042844035 5 1 15 34 348
vector 582136  Network.dyn_peer[68]  lookupTimeSig:vector  ETV
582136	175364 150 1236 32176 21.378125 29.746042844035 5 0.2 1.6 3.8 4.14
vector 582129  Network.dyn_peer[64]  lookupHopsSig:vector  ETV
582129	172538 334 1281 114127 21.415625 41.949810722208 11 4 35 125 2189
vector 582128  Network.dyn_peer[64]  lookupTimeSig:vector  ETV
582128	172189 349 1281 114127 21.415625 41.949810722208 11 0.4 3.6 13.5 24.41
vector 582157  Network.dyn_peer[78]  lookupHopsSig:vector  ETV
582157	180305 430 1305 136350 21.434375 53.04211218376 14 2 23 148 2176
vector 582156  Network.dyn_peer[78]  lookupTimeSig:vector  ETV
582156	179855 450 1305 136350 21.434375 53.04211218376 14 0.2 2.4 16.1 24.81
vector 582109  Network.dyn_peer[54]  lookupHopsSig:vector  ETV
582109	166547 361 1344 65722 21.459375 34.688973202033 12 3 23 111 1555
vector 582108  Network.dyn_peer[54]  lookupTimeSig:vector  ETV
582108	166167 380 1344 65722 21.459375 34.688973202033 12 0.4 2.4 12.2 17.76
vector 582135  Network.dyn_peer[67]  lookupHopsSig:vector  ETV
582135	175134 230 1350 89247 21.4625 37.705217270472 8 4 32 85 1525
vector 582134  Network.dyn_peer[67]  lookupTimeSig:vector  ETV
582134	174890 244 1350 89247 21.4625 37.705217270472 8 0.4 3.3 9.2 16.94
vector 582151  Network.dyn_peer[75]  lookupHopsSig:vector  ETV
582151	178541 230 1391 21819 21.4875 27.790755395369 8 2 14 57 619
vector 582150  Network.dyn_peer[75]  lookupTimeSig:vector  ETV
582150	178298 243 1391 21819 21.4875 27.790755395369 8 0.3 1.5 6.4 7.34
vector 582127  Network.dyn_peer[63]  lookupHopsSig:vector  ETV
582127	171897 292 1409 93122 21.5 38.255327468641 10 5 28 138 2370
vector 582126  Network.dyn_peer[63]  lookupTimeSig:vector  ETV
582126	171592 305 1409 93122 21.5 38.255327468641 10 0.5 2.9 14.7 26.45
vector 582143  Network.dyn_peer[71]  lookupHopsSig:vector  ETV
582143	176997 233 1445 84590 21.525 37.065336461957 8 4 19 84 1096
vector 582142  Network.dyn_peer[71]  lookupTimeSig:vector  ETV
582142	176755 242 1445 84590 21.525 37.065336461957 8 0.4 2 9.1 12.63
vector 582187  Network.dyn_peer[93]  lookupHopsSig:vector  ETV
582187	188641 201 1505 87607 21.56875 37.477479628666 7 1 28 69 1141
vector 582186  Network.dyn_peer[93]  lookupTimeSig:vector  ETV
582186	188432 209 1505 87607 21.56875 37.477479628666 7 0.1 2.9 7.5 12.83
vector 582163  Network.dyn_peer[81]  lookupHopsSig:vector  ETV
582163	182530 486 1529 108475 21.58125 40.801140708202 16 1 19 153 1933
vector 582162  Network.dyn_peer[81]  lookupTimeSig:vector  ETV
582162	182023 507 1529 108475 21.58125 40.801140708202 16 0.2 2 16.8 22.48
vector 582113  Network.dyn_peer[56]  lookupHopsSig:vector  ETV
582113	168313 330 1546 109657 21.590625 41.033880385741 11 1 41 133 3219
vector 582112  Network.dyn_peer[56]  lookupTimeSig:vector  ETV
582112	167965 348 1546 109657 21.590625 41.033880385741 11 0.2 4.2 14.3 34.81
vector 582075  Network.dyn_peer[37]  lookupHopsSig:vector  ETV
582075	155195 265 1553 62732 21.59375 34.307879319604 9 5 30 118 2002
vector 582074  Network.dyn_peer[37]  lookupTimeSig:vector  ETV
582074	154925 270 1553 62732 21.59375 34.307879319604 9 0.6 3.1 12.6 22.26
vector 582155  Network.dyn_peer[77]  lookupHopsSig:vector  ETV
582155	179526 329 1592 94891 21.61875 38.511718188485 11 3 22 128 2042
vector 582154  Network.dyn_peer[77]  lookupTimeSig:vector  ETV
582154	179187 339 1592 94891 21.61875 38.511718188485 11 0.4 2.3 13.8 23
vector 582145  Network.dyn_peer[72]  lookupHopsSig:vector  ETV
582145	177450 208 1622 68710 21.640625 35.058893267624 7 2 47 85 2627
vector 582144  Network.dyn_peer[72]  lookupTimeSig:vector  ETV
582144	177230 220 1622 68710 21.640625 35.058893267624 7 0.3 4.8 9.1 27.93
vector 582071  Network.dyn_peer[35]  lookupHopsSig:vector  ETV
582071	153607 515 1658 133552 21.6625 49.112385142921 17 3 41 246 6064
vector 582070  Network.dyn_peer[35]  lookupTimeSig:vector  ETV
582070	153070 537 1658 133552 21.6625 49.112385142921 17 0.4 4.2 26.2 65.5
vector 582199  Network.dyn_peer[99]  lookupHopsSig:vector  ETV
582199	192213 419 1662 114926 21.6625 42.123971550024 14 1 25 191 3735
vector 582198  Network.dyn_peer[99]  lookupTimeSig:vector  ETV
582198	191776 437 1662 114926 21.6625 42.123971550024 14 0.1 2.6 20.4 41.28
vector 582177  Network.dyn_peer[88]  lookupHopsSig:vector  ETV
582177	186086 173 1706 69375 21.690625 35.139146072051 6 3 28 78 1630
vector 582176  Network.dyn_peer[88]  lookupTimeSig:vector  ETV
582176	185904 182 1706 69375 21.690625 35.139146072051 6 0.3 2.9 8.3 17.85
vector 582205  Network.dyn_peer[102]  lookupHopsSig:vector  ETV
582205	194470 399 1733 131349 21.709375 47.574070306357 13 1 30 171 3151
vector 582204  Network.dyn_peer[102]  lookupTimeSig:vector  ETV
582204	194054 416 1733 131349 21.709375 47.574070306357 13 0.1 3.1 18.3 35.03
vector 582171  Network.dyn_peer[85]  lookupHopsSig:vector  ETV
582171	184688 390 1794 55946 21.74375 33.397584598672 13 1 13 108 1038
vector 582170  Network.dyn_peer[85]  lookupTimeSig:vector  ETV
582170	184280 408 1794 55946 21.74375 33.397584598672 13 0.2 1.4 12 12.58
vector 582085  Network.dyn_peer[42]  lookupHopsSig:vector  ETV
582085	158667 363 1842 116953 21.771875 42.603357776896 12 3 43 186 4280
vector 582084  Network.dyn_peer[42]  lookupTimeSig:vector  ETV
582084	158289 378 1842 116953 21.771875 42.603357776896 12 0.4 4.4 19.7 46.41
vector 582141  Network.dyn_peer[70]  lookupHopsSig:vector  ETV
582141	176426 329 1907 94918 21.809375 38.514142666928 11 3 18 121 1547
vector 582140  Network.dyn_peer[70]  lookupTimeSig:vector  ETV
582140	176083 343 1907 94918 21.809375 38.514142666928 11 0.4 1.9 13.1 17.85
vector 582117  Network.dyn_peer[58]  lookupHopsSig:vector  ETV
582117	169622 240 1931 111780 21.821875 41.454055762419 8 3 14 80 896
vector 582116  Network.dyn_peer[58]  lookupTimeSig:vector  ETV
582116	169370 252 1931 111780 21.821875 41.454055762419 8 0.4 1.5 8.7 10.45
vector 582197  Network.dyn_peer[98]  lookupHopsSig:vector  ETV
582197	191467 309 1966 131313 21.846875 47.555653422289 10 3 31 153 2939
vector 582196  Network.dyn_peer[98]  lookupTimeSig:vector  ETV
582196	191150 317 1966 131313 21.846875 47.555653422289 10 0.3 3.2 16.2 32.48
vector 582161  Network.dyn_peer[80]  lookupHopsSig:vector  ETV
582161	181753 270 1996 129607 21.865625 46.683457264163 9 3 26 116 2176
vector 582160  Network.dyn_peer[80]  lookupTimeSig:vector  ETV
582160	181469 284 1996 129607 21.865625 46.683457264163 9 0.4 2.7 12.4 24.04
vector 582179  Network.dyn_peer[89]  lookupHopsSig:vector  ETV
582179	186569 293 2067 92619 21.90625 38.18361214907 10 1 23 97 1463
vector 582178  Network.dyn_peer[89]  lookupTimeSig:vector  ETV
582178	186259 310 2067 92619 21.90625 38.18361214907 10 0.2 2.4 10.6 16.56
vector 582181  Network.dyn_peer[90]  lookupHopsSig:vector  ETV
582181	187077 206 2099 80054 21.921875 36.473294254114 7 5 28 95 1651
vector 582180  Network.dyn_peer[90]  lookupTimeSig:vector  ETV
582180	186862 215 2099 80054 21.921875 36.473294254114 7 0.5 2.9 10.1 18.37
vector 582121  Network.dyn_peer[60]  lookupHopsSig:vector  ETV
582121	170444 114 2148 112665 21.953125 41.635369395212 4 9 33 79 1999
vector 582120  Network.dyn_peer[60]  lookupTimeSig:vector  ETV
582120	170329 115 2148 112665 21.953125 41.635369395212 4 1 3.4 8.2 21.4
vector 582147  Network.dyn_peer[73]  lookupHopsSig:vector  ETV
582147	177901 233 2161 99236 21.95625 39.196423733751 8 4 28 85 1411
vector 582146  Network.dyn_peer[73]  lookupTimeSig:vector  ETV
582146	177658 243 2161 99236 21.95625 39.196423733751 8 0.5 2.9 9.2 15.72
vector 582201  Network.dyn_peer[100]  lookupHopsSig:vector  ETV
582201	193078 431 2202 132543 21.978125 48.337586366431 14 4 24 164 2392
vector 582200  Network.dyn_peer[100]  lookupTimeSig:vector  ETV
582200	192632 446 2202 132543 21.978125 48.337586366431 14 0.4 2.5 17.7 27.25
vector 582173  Network.dyn_peer[86]  lookupHopsSig:vector  ETV
582173	185260 172 2335 76866 22.059375 36.06665246164 6 1 15 45 471
vector 582172  Network.dyn_peer[86]  lookupTimeSig:vector  ETV
582172	185078 182 2335 76866 22.059375 36.06665246164 6 0.2 1.6 5 5.52
vector 582099  Network.dyn_peer[49]  lookupHopsSig:vector  ETV
582099	163144 395 2380 108196 22.08125 40.747167954173 13 3 20 154 2306
vector 582098  Network.dyn_peer[49]  lookupTimeSig:vector  ETV
582098	162733 411 2380 108196 22.08125 40.747167954173 13 0.4 2.1 16.6 26
vector 582227  Network.dyn_peer[113]  lookupHopsSig:vector  ETV
582227	200898 387 2384 97661 22.08125 38.944087721511 13 3 29 159 2823
vector 582226  Network.dyn_peer[113]  lookupTimeSig:vector  ETV
582226	200500 398 2384 97661 22.08125 38.944087721511 13 0.3 3 17.1 31.47
vector 582165  Network.dyn_peer[82]  lookupHopsSig:vector  ETV
582165	183101 80 2416 12468 22.096875 25.610233908202 3 7 26 41 789
vector 582164  Network.dyn_peer[82]  lookupTimeSig:vector  ETV
582164	183016 85 2416 12468 22.096875 25.610233908202 3 0.8 2.7 4.3 8.57
vector 582217  Network.dyn_peer[108]  lookupHopsSig:vector  ETV
582217	197907 333 2427 108185 22.103125 40.743705812707 11 3 33 180 4230
vector 582216  Network.dyn_peer[108]  lookupTimeSig:vector  ETV
582216	197559 348 2427 108185 22.103125 40.743705812707 11 0.4 3.4 19 45.92
vector 582167  Network.dyn_peer[83]  lookupHopsSig:vector  ETV
582167	183358 167 2447 55444 22.1125 33.330479948932 6 1 33 65 1347
vector 582166  Network.dyn_peer[83]  lookupTimeSig:vector  ETV
582166	183181 177 2447 55444 22.1125 33.330479948932 6 0.2 3.4 7 14.66
vector 582231  Network.dyn_peer[115]  lookupHopsSig:vector  ETV
582231	202432 262 2451 108217 22.1125 40.750990178412 9 1 40 118 2972
vector 582230  Network.dyn_peer[115]  lookupTimeSig:vector  ETV
582230	202157 275 2451 108217 22.1125 40.750990178412 9 0.2 4.1 12.6 32.1
vector 582233  Network.dyn_peer[116]  lookupHopsSig:vector  ETV
582233	203068 358 2488 93913 22.128125 38.370437238558 12 3 27 138 2420
vector 582232  Network.dyn_peer[116]  lookupTimeSig:vector  ETV
582232	202694 374 2488 93913 22.128125 38.370437238558 12 0.3 2.8 14.9 27.01
vector 582223  Network.dyn_peer[111]  lookupHopsSig:vector  ETV
582223	199628 390 2530 119328 22.15 43.195745043564 13 4 32 189 3561
vector 582222  Network.dyn_peer[111]  lookupTimeSig:vector  ETV
582222	199223 405 2530 119328 22.15 43.195745043564 13 0.4 3.3 20.1 39.43
vector 582149  Network.dyn_peer[74]  lookupHopsSig:vector  ETV
582149	178217 81 2569 54244 22.171875 33.158997845412 3 8 12 30 308
vector 582148  Network.dyn_peer[74]  lookupTimeSig:vector  ETV
582148	178134 83 2569 54244 22.171875 33.158997845412 3 0.9 1.3 3.2 3.5
vector 582195  Network.dyn_peer[97]  lookupHopsSig:vector  ETV
582195	190887 263 2685 59436 22.23125 33.875768502626 9 1 29 94 1512
vector 582194  Network.dyn_peer[97]  lookupTimeSig:vector  ETV
582194	190612 275 2685 59436 22.23125 33.875768502626 9 0.2 3 10.2 16.94
vector 582119  Network.dyn_peer[59]  lookupHopsSig:vector  ETV
582119	170099 230 2698 82634 22.2375 36.805007406754 8 4 54 116 3524
vector 582118  Network.dyn_peer[59]  lookupTimeSig:vector  ETV
582118	169862 237 2698 82634 22.2375 36.805007406754 8 0.5 5.5 12.3 37.37
vector 582183  Network.dyn_peer[91]  lookupHopsSig:vector  ETV
582183	187558 264 2702 98692 22.2375 39.10641091421 9 5 44 130 2994
vector 582182  Network.dyn_peer[91]  lookupTimeSig:vector  ETV
582182	187283 275 2702 98692 22.2375 39.10641091421 9 0.6 4.5 13.8 32.46
vector 582209  Network.dyn_peer[104]  lookupHopsSig:vector  ETV
582209	195732 242 2711 117520 22.240625 42.739041942962 8 5 24 108 1834
vector 582208  Network.dyn_peer[104]  lookupTimeSig:vector  ETV
582208	195480 252 2711 117520 22.240625 42.739041942962 8 0.6 2.5 11.5 20.45
vector 582159  Network.dyn_peer[79]  lookupHopsSig:vector  ETV
582159	181109 360 2731 131592 22.25 47.713718445582 12 3 28 162 3062
vector 582158  Network.dyn_peer[79]  lookupTimeSig:vector  ETV
582158	180735 374 2731 131592 22.25 47.713718445582 12 0.4 2.9 17.3 33.77
vector 582185  Network.dyn_peer[92]  lookupHopsSig:vector  ETV
582185	188134 298 2742 41230 22.253125 31.235711797966 10 1 20 88 1290
vector 582184  Network.dyn_peer[92]  lookupTimeSig:vector  ETV
582184	187822 312 2742 41230 22.253125 31.235711797966 10 0.2 2.1 9.7 14.59
vector 582225  Network.dyn_peer[112]  lookupHopsSig:vector  ETV
582225	200264 236 2766 43507 22.265625 31.586908107357 8 2 39 91 2019
vector 582224  Network.dyn_peer[112]  lookupTimeSig:vector  ETV
582224	200018 246 2766 43507 22.265625 31.586908107357 8 0.3 4 9.8 21.98
vector 582175  Network.dyn_peer[87]  lookupHopsSig:vector  ETV
582175	185675 229 2788 45914 22.275 31.957906073245 8 3 15 66 676
vector 582174  Network.dyn_peer[87]  lookupTimeSig:vector  ETV
582174	185432 243 2788 45914 22.275 31.957906073245 8 0.4 1.6 7.3 7.97
vector 582139  Network.dyn_peer[69]  lookupHopsSig:vector  ETV
582139	175873 210 2826 120384 22.29375 43.46987590588 7 4 38 117 2741
vector 582138  Network.dyn_peer[69]  lookupTimeSig:vector  ETV
582138	175655 218 2826 120384 22.29375 43.46987590588 7 0.5 3.9 12.3 29.57
vector 582235  Network.dyn_peer[117]  lookupHopsSig:vector  ETV
582235	203940 496 2918 136658 22.34375 53.836730732515 16 3 29 221 3993
vector 582234  Network.dyn_peer[117]  lookupTimeSig:vector  ETV
582234	203426 514 2918 136658 22.34375 53.836730732515 16 0.4 3 23.6 44.4
vector 582263  Network.dyn_peer[131]  lookupHopsSig:vector  ETV
582263	212228 462 2954 134874 22.3625 50.44422183775 15 3 30 213 3921
vector 582262  Network.dyn_peer[131]  lookupTimeSig:vector  ETV
582262	211751 477 2954 134874 22.3625 50.44422183775 15 0.3 3.1 22.7 43.55
vector 582251  Network.dyn_peer[125]  lookupHopsSig:vector  ETV
582251	208410 551 2968 129567 22.36875 46.662284917472 18 1 43 207 4083
vector 582250  Network.dyn_peer[125]  lookupTimeSig:vector  ETV
582250	207836 574 2968 129567 22.36875 46.662284917472 18 0.2 4.4 22.4 45.06
vector 582229  Network.dyn_peer[114]  lookupHopsSig:vector  ETV
582229	201731 426 3028 114570 22.396875 42.045502689781 14 1 30 161 2939
vector 582228  Network.dyn_peer[114]  lookupTimeSig:vector  ETV
582228	201285 446 3028 114570 22.396875 42.045502689781 14 0.2 3.1 17.4 32.62
vector 582153  Network.dyn_peer[76]  lookupHopsSig:vector  ETV
582153	178984 203 3044 27607 22.403125 28.92975634081 7 1 26 71 1131
vector 582152  Network.dyn_peer[76]  lookupTimeSig:vector  ETV
582152	178771 213 3044 27607 22.403125 28.92975634081 7 0.2 2.7 7.7 12.55