file 899064 1369168631                                          
version 2
run Stability-152-20130521-22:36:53-23591
attr configname Stability
attr datetime 20130521-22:36:53
attr experiment Stability
attr inifile omnetpp.ini
attr iterationvars $0=0.25
attr iterationvars2 "$0=0.25, $repetition=2"
attr measurement $0=0.25
attr network Network
attr processid 23591
attr repetition 2
attr replication #2
attr resultdir results
attr runnumber 152
attr seedset 152

vector 304001  Network.dyn_peer[0]  lookupHopsSig:vector  ETV
vector 304000  Network.dyn_peer[0]  lookupTimeSig:vector  ETV
vector 304003  Network.dyn_peer[1]  lookupHopsSig:vector  ETV
vector 304002  Network.dyn_peer[1]  lookupTimeSig:vector  ETV
vector 304005  Network.dyn_peer[2]  lookupHopsSig:vector  ETV
vector 304004  Network.dyn_peer[2]  lookupTimeSig:vector  ETV
vector 304007  Network.dyn_peer[3]  lookupHopsSig:vector  ETV
vector 304006  Network.dyn_peer[3]  lookupTimeSig:vector  ETV
vector 304009  Network.dyn_peer[4]  lookupHopsSig:vector  ETV
vector 304008  Network.dyn_peer[4]  lookupTimeSig:vector  ETV
vector 304013  Network.dyn_peer[6]  lookupHopsSig:vector  ETV
vector 304012  Network.dyn_peer[6]  lookupTimeSig:vector  ETV
vector 304011  Network.dyn_peer[5]  lookupHopsSig:vector  ETV
vector 304010  Network.dyn_peer[5]  lookupTimeSig:vector  ETV
vector 304015  Network.dyn_peer[7]  lookupHopsSig:vector  ETV
vector 304014  Network.dyn_peer[7]  lookupTimeSig:vector  ETV
vector 304017  Network.dyn_peer[8]  lookupHopsSig:vector  ETV
vector 304016  Network.dyn_peer[8]  lookupTimeSig:vector  ETV
vector 304019  Network.dyn_peer[9]  lookupHopsSig:vector  ETV
vector 304018  Network.dyn_peer[9]  lookupTimeSig:vector  ETV
vector 304021  Network.dyn_peer[10]  lookupHopsSig:vector  ETV
vector 304020  Network.dyn_peer[10]  lookupTimeSig:vector  ETV
vector 304023  Network.dyn_peer[11]  lookupHopsSig:vector  ETV
vector 304022  Network.dyn_peer[11]  lookupTimeSig:vector  ETV
vector 304025  Network.dyn_peer[12]  lookupHopsSig:vector  ETV
vector 304024  Network.dyn_peer[12]  lookupTimeSig:vector  ETV
vector 304027  Network.dyn_peer[13]  lookupHopsSig:vector  ETV
vector 304026  Network.dyn_peer[13]  lookupTimeSig:vector  ETV
vector 304029  Network.dyn_peer[14]  lookupHopsSig:vector  ETV
vector 304028  Network.dyn_peer[14]  lookupTimeSig:vector  ETV
vector 304033  Network.dyn_peer[16]  lookupHopsSig:vector  ETV
vector 304032  Network.dyn_peer[16]  lookupTimeSig:vector  ETV
vector 304031  Network.dyn_peer[15]  lookupHopsSig:vector  ETV
vector 304030  Network.dyn_peer[15]  lookupTimeSig:vector  ETV
vector 304035  Network.dyn_peer[17]  lookupHopsSig:vector  ETV
vector 304034  Network.dyn_peer[17]  lookupTimeSig:vector  ETV
vector 304037  Network.dyn_peer[18]  lookupHopsSig:vector  ETV
vector 304036  Network.dyn_peer[18]  lookupTimeSig:vector  ETV
vector 304039  Network.dyn_peer[19]  lookupHopsSig:vector  ETV
vector 304038  Network.dyn_peer[19]  lookupTimeSig:vector  ETV
vector 304041  Network.dyn_peer[20]  lookupHopsSig:vector  ETV
vector 304040  Network.dyn_peer[20]  lookupTimeSig:vector  ETV
vector 304043  Network.dyn_peer[21]  lookupHopsSig:vector  ETV
vector 304042  Network.dyn_peer[21]  lookupTimeSig:vector  ETV
vector 304045  Network.dyn_peer[22]  lookupHopsSig:vector  ETV
vector 304044  Network.dyn_peer[22]  lookupTimeSig:vector  ETV
vector 304047  Network.dyn_peer[23]  lookupHopsSig:vector  ETV
vector 304046  Network.dyn_peer[23]  lookupTimeSig:vector  ETV
vector 304051  Network.dyn_peer[25]  lookupHopsSig:vector  ETV
vector 304050  Network.dyn_peer[25]  lookupTimeSig:vector  ETV
vector 304049  Network.dyn_peer[24]  lookupHopsSig:vector  ETV
vector 304048  Network.dyn_peer[24]  lookupTimeSig:vector  ETV
vector 304053  Network.dyn_peer[26]  lookupHopsSig:vector  ETV
vector 304052  Network.dyn_peer[26]  lookupTimeSig:vector  ETV
vector 304057  Network.dyn_peer[28]  lookupHopsSig:vector  ETV
vector 304056  Network.dyn_peer[28]  lookupTimeSig:vector  ETV
vector 304055  Network.dyn_peer[27]  lookupHopsSig:vector  ETV
vector 304054  Network.dyn_peer[27]  lookupTimeSig:vector  ETV
vector 304061  Network.dyn_peer[30]  lookupHopsSig:vector  ETV
vector 304060  Network.dyn_peer[30]  lookupTimeSig:vector  ETV
vector 304059  Network.dyn_peer[29]  lookupHopsSig:vector  ETV
vector 304058  Network.dyn_peer[29]  lookupTimeSig:vector  ETV
vector 304063  Network.dyn_peer[31]  lookupHopsSig:vector  ETV
vector 304062  Network.dyn_peer[31]  lookupTimeSig:vector  ETV
vector 304065  Network.dyn_peer[32]  lookupHopsSig:vector  ETV
vector 304064  Network.dyn_peer[32]  lookupTimeSig:vector  ETV
vector 304067  Network.dyn_peer[33]  lookupHopsSig:vector  ETV
vector 304066  Network.dyn_peer[33]  lookupTimeSig:vector  ETV
vector 304071  Network.dyn_peer[35]  lookupHopsSig:vector  ETV
vector 304070  Network.dyn_peer[35]  lookupTimeSig:vector  ETV
vector 304069  Network.dyn_peer[34]  lookupHopsSig:vector  ETV
vector 304068  Network.dyn_peer[34]  lookupTimeSig:vector  ETV
vector 304073  Network.dyn_peer[36]  lookupHopsSig:vector  ETV
vector 304072  Network.dyn_peer[36]  lookupTimeSig:vector  ETV
vector 304075  Network.dyn_peer[37]  lookupHopsSig:vector  ETV
vector 304074  Network.dyn_peer[37]  lookupTimeSig:vector  ETV
vector 304077  Network.dyn_peer[38]  lookupHopsSig:vector  ETV
vector 304076  Network.dyn_peer[38]  lookupTimeSig:vector  ETV
vector 304081  Network.dyn_peer[40]  lookupHopsSig:vector  ETV
vector 304080  Network.dyn_peer[40]  lookupTimeSig:vector  ETV
vector 304079  Network.dyn_peer[39]  lookupHopsSig:vector  ETV
vector 304078  Network.dyn_peer[39]  lookupTimeSig:vector  ETV
vector 304083  Network.dyn_peer[41]  lookupHopsSig:vector  ETV
vector 304082  Network.dyn_peer[41]  lookupTimeSig:vector  ETV
vector 304085  Network.dyn_peer[42]  lookupHopsSig:vector  ETV
vector 304084  Network.dyn_peer[42]  lookupTimeSig:vector  ETV
vector 304089  Network.dyn_peer[44]  lookupHopsSig:vector  ETV
vector 304088  Network.dyn_peer[44]  lookupTimeSig:vector  ETV
vector 304087  Network.dyn_peer[43]  lookupHopsSig:vector  ETV
vector 304086  Network.dyn_peer[43]  lookupTimeSig:vector  ETV
vector 304093  Network.dyn_peer[46]  lookupHopsSig:vector  ETV
vector 304092  Network.dyn_peer[46]  lookupTimeSig:vector  ETV
vector 304091  Network.dyn_peer[45]  lookupHopsSig:vector  ETV
vector 304090  Network.dyn_peer[45]  lookupTimeSig:vector  ETV
vector 304095  Network.dyn_peer[47]  lookupHopsSig:vector  ETV
vector 304094  Network.dyn_peer[47]  lookupTimeSig:vector  ETV
vector 304097  Network.dyn_peer[48]  lookupHopsSig:vector  ETV
vector 304096  Network.dyn_peer[48]  lookupTimeSig:vector  ETV
vector 304099  Network.dyn_peer[49]  lookupHopsSig:vector  ETV
vector 304098  Network.dyn_peer[49]  lookupTimeSig:vector  ETV
vector 304101  Network.dyn_peer[50]  lookupHopsSig:vector  ETV
vector 304100  Network.dyn_peer[50]  lookupTimeSig:vector  ETV
vector 304103  Network.dyn_peer[51]  lookupHopsSig:vector  ETV
vector 304102  Network.dyn_peer[51]  lookupTimeSig:vector  ETV
vector 304105  Network.dyn_peer[52]  lookupHopsSig:vector  ETV
vector 304104  Network.dyn_peer[52]  lookupTimeSig:vector  ETV
vector 304107  Network.dyn_peer[53]  lookupHopsSig:vector  ETV
vector 304106  Network.dyn_peer[53]  lookupTimeSig:vector  ETV
vector 304113  Network.dyn_peer[56]  lookupHopsSig:vector  ETV
vector 304112  Network.dyn_peer[56]  lookupTimeSig:vector  ETV
vector 304111  Network.dyn_peer[55]  lookupHopsSig:vector  ETV
vector 304110  Network.dyn_peer[55]  lookupTimeSig:vector  ETV
vector 304115  Network.dyn_peer[57]  lookupHopsSig:vector  ETV
vector 304114  Network.dyn_peer[57]  lookupTimeSig:vector  ETV
vector 304109  Network.dyn_peer[54]  lookupHopsSig:vector  ETV
vector 304108  Network.dyn_peer[54]  lookupTimeSig:vector  ETV
vector 304117  Network.dyn_peer[58]  lookupHopsSig:vector  ETV
vector 304116  Network.dyn_peer[58]  lookupTimeSig:vector  ETV
vector 304119  Network.dyn_peer[59]  lookupHopsSig:vector  ETV
vector 304118  Network.dyn_peer[59]  lookupTimeSig:vector  ETV
vector 304121  Network.dyn_peer[60]  lookupHopsSig:vector  ETV
vector 304120  Network.dyn_peer[60]  lookupTimeSig:vector  ETV
vector 304125  Network.dyn_peer[62]  lookupHopsSig:vector  ETV
vector 304124  Network.dyn_peer[62]  lookupTimeSig:vector  ETV
vector 304123  Network.dyn_peer[61]  lookupHopsSig:vector  ETV
vector 304122  Network.dyn_peer[61]  lookupTimeSig:vector  ETV
vector 304129  Network.dyn_peer[64]  lookupHopsSig:vector  ETV
vector 304128  Network.dyn_peer[64]  lookupTimeSig:vector  ETV
vector 304127  Network.dyn_peer[63]  lookupHopsSig:vector  ETV
vector 304126  Network.dyn_peer[63]  lookupTimeSig:vector  ETV
vector 304131  Network.dyn_peer[65]  lookupHopsSig:vector  ETV
vector 304130  Network.dyn_peer[65]  lookupTimeSig:vector  ETV
vector 304137  Network.dyn_peer[68]  lookupHopsSig:vector  ETV
vector 304136  Network.dyn_peer[68]  lookupTimeSig:vector  ETV
vector 304133  Network.dyn_peer[66]  lookupHopsSig:vector  ETV
vector 304132  Network.dyn_peer[66]  lookupTimeSig:vector  ETV
vector 304135  Network.dyn_peer[67]  lookupHopsSig:vector  ETV
vector 304134  Network.dyn_peer[67]  lookupTimeSig:vector  ETV
vector 304139  Network.dyn_peer[69]  lookupHopsSig:vector  ETV
vector 304138  Network.dyn_peer[69]  lookupTimeSig:vector  ETV
vector 304143  Network.dyn_peer[71]  lookupHopsSig:vector  ETV
vector 304142  Network.dyn_peer[71]  lookupTimeSig:vector  ETV
vector 304141  Network.dyn_peer[70]  lookupHopsSig:vector  ETV
vector 304140  Network.dyn_peer[70]  lookupTimeSig:vector  ETV
vector 304151  Network.dyn_peer[75]  lookupHopsSig:vector  ETV
vector 304150  Network.dyn_peer[75]  lookupTimeSig:vector  ETV
vector 304145  Network.dyn_peer[72]  lookupHopsSig:vector  ETV
vector 304144  Network.dyn_peer[72]  lookupTimeSig:vector  ETV
vector 304147  Network.dyn_peer[73]  lookupHopsSig:vector  ETV
vector 304146  Network.dyn_peer[73]  lookupTimeSig:vector  ETV
vector 304149  Network.dyn_peer[74]  lookupHopsSig:vector  ETV
vector 304148  Network.dyn_peer[74]  lookupTimeSig:vector  ETV
vector 304153  Network.dyn_peer[76]  lookupHopsSig:vector  ETV
vector 304152  Network.dyn_peer[76]  lookupTimeSig:vector  ETV
vector 304155  Network.dyn_peer[77]  lookupHopsSig:vector  ETV
vector 304154  Network.dyn_peer[77]  lookupTimeSig:vector  ETV
vector 304157  Network.dyn_peer[78]  lookupHopsSig:vector  ETV
vector 304156  Network.dyn_peer[78]  lookupTimeSig:vector  ETV
vector 304159  Network.dyn_peer[79]  lookupHopsSig:vector  ETV
vector 304158  Network.dyn_peer[79]  lookupTimeSig:vector  ETV
vector 304163  Network.dyn_peer[81]  lookupHopsSig:vector  ETV
vector 304162  Network.dyn_peer[81]  lookupTimeSig:vector  ETV
vector 304165  Network.dyn_peer[82]  lookupHopsSig:vector  ETV
vector 304164  Network.dyn_peer[82]  lookupTimeSig:vector  ETV
vector 304161  Network.dyn_peer[80]  lookupHopsSig:vector  ETV
vector 304160  Network.dyn_peer[80]  lookupTimeSig:vector  ETV
vector 304171  Network.dyn_peer[85]  lookupHopsSig:vector  ETV
vector 304170  Network.dyn_peer[85]  lookupTimeSig:vector  ETV
vector 304167  Network.dyn_peer[83]  lookupHopsSig:vector  ETV
vector 304166  Network.dyn_peer[83]  lookupTimeSig:vector  ETV
vector 304169  Network.dyn_peer[84]  lookupHopsSig:vector  ETV
vector 304168  Network.dyn_peer[84]  lookupTimeSig:vector  ETV
vector 304175  Network.dyn_peer[87]  lookupHopsSig:vector  ETV
vector 304174  Network.dyn_peer[87]  lookupTimeSig:vector  ETV
vector 304173  Network.dyn_peer[86]  lookupHopsSig:vector  ETV
vector 304172  Network.dyn_peer[86]  lookupTimeSig:vector  ETV
vector 304177  Network.dyn_peer[88]  lookupHopsSig:vector  ETV
vector 304176  Network.dyn_peer[88]  lookupTimeSig:vector  ETV
vector 304181  Network.dyn_peer[90]  lookupHopsSig:vector  ETV
vector 304180  Network.dyn_peer[90]  lookupTimeSig:vector  ETV
vector 304179  Network.dyn_peer[89]  lookupHopsSig:vector  ETV
vector 304178  Network.dyn_peer[89]  lookupTimeSig:vector  ETV
vector 304183  Network.dyn_peer[91]  lookupHopsSig:vector  ETV
vector 304182  Network.dyn_peer[91]  lookupTimeSig:vector  ETV
vector 304185  Network.dyn_peer[92]  lookupHopsSig:vector  ETV
vector 304184  Network.dyn_peer[92]  lookupTimeSig:vector  ETV
vector 304187  Network.dyn_peer[93]  lookupHopsSig:vector  ETV
vector 304186  Network.dyn_peer[93]  lookupTimeSig:vector  ETV
vector 304189  Network.dyn_peer[94]  lookupHopsSig:vector  ETV
vector 304188  Network.dyn_peer[94]  lookupTimeSig:vector  ETV
vector 304191  Network.dyn_peer[95]  lookupHopsSig:vector  ETV
vector 304190  Network.dyn_peer[95]  lookupTimeSig:vector  ETV
vector 304193  Network.dyn_peer[96]  lookupHopsSig:vector  ETV
vector 304192  Network.dyn_peer[96]  lookupTimeSig:vector  ETV
vector 304195  Network.dyn_peer[97]  lookupHopsSig:vector  ETV
vector 304194  Network.dyn_peer[97]  lookupTimeSig:vector  ETV
vector 304201  Network.dyn_peer[100]  lookupHopsSig:vector  ETV
vector 304200  Network.dyn_peer[100]  lookupTimeSig:vector  ETV
vector 304197  Network.dyn_peer[98]  lookupHopsSig:vector  ETV
vector 304196  Network.dyn_peer[98]  lookupTimeSig:vector  ETV
vector 304203  Network.dyn_peer[101]  lookupHopsSig:vector  ETV
vector 304202  Network.dyn_peer[101]  lookupTimeSig:vector  ETV
vector 304199  Network.dyn_peer[99]  lookupHopsSig:vector  ETV
vector 304198  Network.dyn_peer[99]  lookupTimeSig:vector  ETV
vector 304205  Network.dyn_peer[102]  lookupHopsSig:vector  ETV
vector 304204  Network.dyn_peer[102]  lookupTimeSig:vector  ETV
vector 304209  Network.dyn_peer[104]  lookupHopsSig:vector  ETV
vector 304208  Network.dyn_peer[104]  lookupTimeSig:vector  ETV
vector 304207  Network.dyn_peer[103]  lookupHopsSig:vector  ETV
vector 304206  Network.dyn_peer[103]  lookupTimeSig:vector  ETV
vector 304211  Network.dyn_peer[105]  lookupHopsSig:vector  ETV
vector 304210  Network.dyn_peer[105]  lookupTimeSig:vector  ETV
vector 304213  Network.dyn_peer[106]  lookupHopsSig:vector  ETV
vector 304212  Network.dyn_peer[106]  lookupTimeSig:vector  ETV
vector 304217  Network.dyn_peer[108]  lookupHopsSig:vector  ETV
vector 304216  Network.dyn_peer[108]  lookupTimeSig:vector  ETV
vector 304215  Network.dyn_peer[107]  lookupHopsSig:vector  ETV
vector 304214  Network.dyn_peer[107]  lookupTimeSig:vector  ETV
vector 304219  Network.dyn_peer[109]  lookupHopsSig:vector  ETV
vector 304218  Network.dyn_peer[109]  lookupTimeSig:vector  ETV
vector 304221  Network.dyn_peer[110]  lookupHopsSig:vector  ETV
vector 304220  Network.dyn_peer[110]  lookupTimeSig:vector  ETV
vector 304223  Network.dyn_peer[111]  lookupHopsSig:vector  ETV
vector 304222  Network.dyn_peer[111]  lookupTimeSig:vector  ETV
vector 304225  Network.dyn_peer[112]  lookupHopsSig:vector  ETV
vector 304224  Network.dyn_peer[112]  lookupTimeSig:vector  ETV
vector 304229  Network.dyn_peer[114]  lookupHopsSig:vector  ETV
vector 304228  Network.dyn_peer[114]  lookupTimeSig:vector  ETV
vector 304231  Network.dyn_peer[115]  lookupHopsSig:vector  ETV
vector 304230  Network.dyn_peer[115]  lookupTimeSig:vector  ETV
vector 304233  Network.dyn_peer[116]  lookupHopsSig:vector  ETV
vector 304232  Network.dyn_peer[116]  lookupTimeSig:vector  ETV
vector 304227  Network.dyn_peer[113]  lookupHopsSig:vector  ETV
vector 304226  Network.dyn_peer[113]  lookupTimeSig:vector  ETV
vector 304237  Network.dyn_peer[118]  lookupHopsSig:vector  ETV
vector 304236  Network.dyn_peer[118]  lookupTimeSig:vector  ETV
vector 304239  Network.dyn_peer[119]  lookupHopsSig:vector  ETV
vector 304238  Network.dyn_peer[119]  lookupTimeSig:vector  ETV
vector 304241  Network.dyn_peer[120]  lookupHopsSig:vector  ETV
vector 304240  Network.dyn_peer[120]  lookupTimeSig:vector  ETV
vector 304235  Network.dyn_peer[117]  lookupHopsSig:vector  ETV
vector 304234  Network.dyn_peer[117]  lookupTimeSig:vector  ETV
vector 304243  Network.dyn_peer[121]  lookupHopsSig:vector  ETV
vector 304242  Network.dyn_peer[121]  lookupTimeSig:vector  ETV
vector 304245  Network.dyn_peer[122]  lookupHopsSig:vector  ETV
vector 304244  Network.dyn_peer[122]  lookupTimeSig:vector  ETV
vector 304251  Network.dyn_peer[125]  lookupHopsSig:vector  ETV
vector 304250  Network.dyn_peer[125]  lookupTimeSig:vector  ETV
vector 304249  Network.dyn_peer[124]  lookupHopsSig:vector  ETV
vector 304248  Network.dyn_peer[124]  lookupTimeSig:vector  ETV
vector 304253  Network.dyn_peer[126]  lookupHopsSig:vector  ETV
vector 304252  Network.dyn_peer[126]  lookupTimeSig:vector  ETV
vector 304247  Network.dyn_peer[123]  lookupHopsSig:vector  ETV
vector 304246  Network.dyn_peer[123]  lookupTimeSig:vector  ETV
vector 304255  Network.dyn_peer[127]  lookupHopsSig:vector  ETV
vector 304254  Network.dyn_peer[127]  lookupTimeSig:vector  ETV
vector 304257  Network.dyn_peer[128]  lookupHopsSig:vector  ETV
vector 304256  Network.dyn_peer[128]  lookupTimeSig:vector  ETV
vector 304261  Network.dyn_peer[130]  lookupHopsSig:vector  ETV
vector 304260  Network.dyn_peer[130]  lookupTimeSig:vector  ETV
vector 304259  Network.dyn_peer[129]  lookupHopsSig:vector  ETV
vector 304258  Network.dyn_peer[129]  lookupTimeSig:vector  ETV
vector 304265  Network.dyn_peer[132]  lookupHopsSig:vector  ETV
vector 304264  Network.dyn_peer[132]  lookupTimeSig:vector  ETV
vector 304263  Network.dyn_peer[131]  lookupHopsSig:vector  ETV
vector 304262  Network.dyn_peer[131]  lookupTimeSig:vector  ETV
vector 304271  Network.dyn_peer[135]  lookupHopsSig:vector  ETV
vector 304270  Network.dyn_peer[135]  lookupTimeSig:vector  ETV
vector 304269  Network.dyn_peer[134]  lookupHopsSig:vector  ETV
vector 304268  Network.dyn_peer[134]  lookupTimeSig:vector  ETV
vector 304273  Network.dyn_peer[136]  lookupHopsSig:vector  ETV
vector 304272  Network.dyn_peer[136]  lookupTimeSig:vector  ETV
vector 304277  Network.dyn_peer[138]  lookupHopsSig:vector  ETV
vector 304276  Network.dyn_peer[138]  lookupTimeSig:vector  ETV
vector 304267  Network.dyn_peer[133]  lookupHopsSig:vector  ETV
vector 304266  Network.dyn_peer[133]  lookupTimeSig:vector  ETV
vector 304279  Network.dyn_peer[139]  lookupHopsSig:vector  ETV
vector 304278  Network.dyn_peer[139]  lookupTimeSig:vector  ETV
vector 304275  Network.dyn_peer[137]  lookupHopsSig:vector  ETV
vector 304274  Network.dyn_peer[137]  lookupTimeSig:vector  ETV
vector 304281  Network.dyn_peer[140]  lookupHopsSig:vector  ETV
vector 304280  Network.dyn_peer[140]  lookupTimeSig:vector  ETV
vector 304283  Network.dyn_peer[141]  lookupHopsSig:vector  ETV
vector 304282  Network.dyn_peer[141]  lookupTimeSig:vector  ETV
vector 304289  Network.dyn_peer[144]  lookupHopsSig:vector  ETV
vector 304288  Network.dyn_peer[144]  lookupTimeSig:vector  ETV
vector 304285  Network.dyn_peer[142]  lookupHopsSig:vector  ETV
vector 304284  Network.dyn_peer[142]  lookupTimeSig:vector  ETV
vector 304287  Network.dyn_peer[143]  lookupHopsSig:vector  ETV
vector 304286  Network.dyn_peer[143]  lookupTimeSig:vector  ETV
vector 304291  Network.dyn_peer[145]  lookupHopsSig:vector  ETV
vector 304290  Network.dyn_peer[145]  lookupTimeSig:vector  ETV
vector 304293  Network.dyn_peer[146]  lookupHopsSig:vector  ETV
vector 304292  Network.dyn_peer[146]  lookupTimeSig:vector  ETV
vector 304295  Network.dyn_peer[147]  lookupHopsSig:vector  ETV
vector 304294  Network.dyn_peer[147]  lookupTimeSig:vector  ETV
vector 304297  Network.dyn_peer[148]  lookupHopsSig:vector  ETV
vector 304296  Network.dyn_peer[148]  lookupTimeSig:vector  ETV
vector 304301  Network.dyn_peer[150]  lookupHopsSig:vector  ETV
vector 304300  Network.dyn_peer[150]  lookupTimeSig:vector  ETV
vector 304299  Network.dyn_peer[149]  lookupHopsSig:vector  ETV
vector 304298  Network.dyn_peer[149]  lookupTimeSig:vector  ETV
vector 304303  Network.dyn_peer[151]  lookupHopsSig:vector  ETV
vector 304302  Network.dyn_peer[151]  lookupTimeSig:vector  ETV
vector 304307  Network.dyn_peer[153]  lookupHopsSig:vector  ETV
vector 304306  Network.dyn_peer[153]  lookupTimeSig:vector  ETV
vector 304309  Network.dyn_peer[154]  lookupHopsSig:vector  ETV
vector 304308  Network.dyn_peer[154]  lookupTimeSig:vector  ETV
vector 304311  Network.dyn_peer[155]  lookupHopsSig:vector  ETV
vector 304310  Network.dyn_peer[155]  lookupTimeSig:vector  ETV
vector 304305  Network.dyn_peer[152]  lookupHopsSig:vector  ETV
vector 304304  Network.dyn_peer[152]  lookupTimeSig:vector  ETV
vector 304313  Network.dyn_peer[156]  lookupHopsSig:vector  ETV
vector 304312  Network.dyn_peer[156]  lookupTimeSig:vector  ETV
vector 304317  Network.dyn_peer[158]  lookupHopsSig:vector  ETV
vector 304316  Network.dyn_peer[158]  lookupTimeSig:vector  ETV
vector 304315  Network.dyn_peer[157]  lookupHopsSig:vector  ETV
vector 304314  Network.dyn_peer[157]  lookupTimeSig:vector  ETV
vector 304321  Network.dyn_peer[160]  lookupHopsSig:vector  ETV
vector 304320  Network.dyn_peer[160]  lookupTimeSig:vector  ETV
vector 304323  Network.dyn_peer[161]  lookupHopsSig:vector  ETV
vector 304322  Network.dyn_peer[161]  lookupTimeSig:vector  ETV
vector 304319  Network.dyn_peer[159]  lookupHopsSig:vector  ETV
vector 304318  Network.dyn_peer[159]  lookupTimeSig:vector  ETV
vector 304327  Network.dyn_peer[163]  lookupHopsSig:vector  ETV
vector 304326  Network.dyn_peer[163]  lookupTimeSig:vector  ETV
vector 304329  Network.dyn_peer[164]  lookupHopsSig:vector  ETV
vector 304328  Network.dyn_peer[164]  lookupTimeSig:vector  ETV
vector 304325  Network.dyn_peer[162]  lookupHopsSig:vector  ETV
vector 304324  Network.dyn_peer[162]  lookupTimeSig:vector  ETV
vector 304331  Network.dyn_peer[165]  lookupHopsSig:vector  ETV
vector 304330  Network.dyn_peer[165]  lookupTimeSig:vector  ETV
vector 304335  Network.dyn_peer[167]  lookupHopsSig:vector  ETV
vector 304334  Network.dyn_peer[167]  lookupTimeSig:vector  ETV
vector 304339  Network.dyn_peer[169]  lookupHopsSig:vector  ETV
vector 304338  Network.dyn_peer[169]  lookupTimeSig:vector  ETV
vector 304337  Network.dyn_peer[168]  lookupHopsSig:vector  ETV
vector 304336  Network.dyn_peer[168]  lookupTimeSig:vector  ETV
vector 304341  Network.dyn_peer[170]  lookupHopsSig:vector  ETV
vector 304340  Network.dyn_peer[170]  lookupTimeSig:vector  ETV
vector 304333  Network.dyn_peer[166]  lookupHopsSig:vector  ETV
vector 304332  Network.dyn_peer[166]  lookupTimeSig:vector  ETV
vector 304345  Network.dyn_peer[172]  lookupHopsSig:vector  ETV
vector 304344  Network.dyn_peer[172]  lookupTimeSig:vector  ETV
vector 304343  Network.dyn_peer[171]  lookupHopsSig:vector  ETV
vector 304342  Network.dyn_peer[171]  lookupTimeSig:vector  ETV
vector 304347  Network.dyn_peer[173]  lookupHopsSig:vector  ETV
vector 304346  Network.dyn_peer[173]  lookupTimeSig:vector  ETV
vector 304355  Network.dyn_peer[177]  lookupHopsSig:vector  ETV
vector 304354  Network.dyn_peer[177]  lookupTimeSig:vector  ETV
vector 304357  Network.dyn_peer[178]  lookupHopsSig:vector  ETV
vector 304356  Network.dyn_peer[178]  lookupTimeSig:vector  ETV
vector 304351  Network.dyn_peer[175]  lookupHopsSig:vector  ETV
vector 304350  Network.dyn_peer[175]  lookupTimeSig:vector  ETV
vector 304349  Network.dyn_peer[174]  lookupHopsSig:vector  ETV
vector 304348  Network.dyn_peer[174]  lookupTimeSig:vector  ETV
vector 304353  Network.dyn_peer[176]  lookupHopsSig:vector  ETV
vector 304352  Network.dyn_peer[176]  lookupTimeSig:vector  ETV
vector 304359  Network.dyn_peer[179]  lookupHopsSig:vector  ETV
vector 304358  Network.dyn_peer[179]  lookupTimeSig:vector  ETV
vector 304361  Network.dyn_peer[180]  lookupHopsSig:vector  ETV
vector 304360  Network.dyn_peer[180]  lookupTimeSig:vector  ETV
vector 304363  Network.dyn_peer[181]  lookupHopsSig:vector  ETV
vector 304362  Network.dyn_peer[181]  lookupTimeSig:vector  ETV
vector 304365  Network.dyn_peer[182]  lookupHopsSig:vector  ETV
vector 304364  Network.dyn_peer[182]  lookupTimeSig:vector  ETV
vector 304369  Network.dyn_peer[184]  lookupHopsSig:vector  ETV
vector 304368  Network.dyn_peer[184]  lookupTimeSig:vector  ETV
vector 304371  Network.dyn_peer[185]  lookupHopsSig:vector  ETV
vector 304370  Network.dyn_peer[185]  lookupTimeSig:vector  ETV
vector 304373  Network.dyn_peer[186]  lookupHopsSig:vector  ETV
vector 304372  Network.dyn_peer[186]  lookupTimeSig:vector  ETV
vector 304367  Network.dyn_peer[183]  lookupHopsSig:vector  ETV
vector 304366  Network.dyn_peer[183]  lookupTimeSig:vector  ETV
vector 304381  Network.dyn_peer[190]  lookupHopsSig:vector  ETV
vector 304380  Network.dyn_peer[190]  lookupTimeSig:vector  ETV
vector 304377  Network.dyn_peer[188]  lookupHopsSig:vector  ETV
vector 304376  Network.dyn_peer[188]  lookupTimeSig:vector  ETV
vector 304379  Network.dyn_peer[189]  lookupHopsSig:vector  ETV
vector 304378  Network.dyn_peer[189]  lookupTimeSig:vector  ETV
vector 304375  Network.dyn_peer[187]  lookupHopsSig:vector  ETV
vector 304374  Network.dyn_peer[187]  lookupTimeSig:vector  ETV
vector 304383  Network.dyn_peer[191]  lookupHopsSig:vector  ETV
vector 304382  Network.dyn_peer[191]  lookupTimeSig:vector  ETV
vector 304387  Network.dyn_peer[193]  lookupHopsSig:vector  ETV
vector 304386  Network.dyn_peer[193]  lookupTimeSig:vector  ETV
vector 304385  Network.dyn_peer[192]  lookupHopsSig:vector  ETV
vector 304384  Network.dyn_peer[192]  lookupTimeSig:vector  ETV
vector 304389  Network.dyn_peer[194]  lookupHopsSig:vector  ETV
vector 304388  Network.dyn_peer[194]  lookupTimeSig:vector  ETV
vector 304391  Network.dyn_peer[195]  lookupHopsSig:vector  ETV
vector 304390  Network.dyn_peer[195]  lookupTimeSig:vector  ETV
vector 304393  Network.dyn_peer[196]  lookupHopsSig:vector  ETV
vector 304392  Network.dyn_peer[196]  lookupTimeSig:vector  ETV
vector 304395  Network.dyn_peer[197]  lookupHopsSig:vector  ETV
vector 304394  Network.dyn_peer[197]  lookupTimeSig:vector  ETV
vector 304397  Network.dyn_peer[198]  lookupHopsSig:vector  ETV
vector 304396  Network.dyn_peer[198]  lookupTimeSig:vector  ETV
vector 304401  Network.dyn_peer[200]  lookupHopsSig:vector  ETV
vector 304400  Network.dyn_peer[200]  lookupTimeSig:vector  ETV
vector 304405  Network.dyn_peer[202]  lookupHopsSig:vector  ETV
vector 304404  Network.dyn_peer[202]  lookupTimeSig:vector  ETV
vector 304399  Network.dyn_peer[199]  lookupHopsSig:vector  ETV
vector 304398  Network.dyn_peer[199]  lookupTimeSig:vector  ETV
vector 304409  Network.dyn_peer[204]  lookupHopsSig:vector  ETV
vector 304408  Network.dyn_peer[204]  lookupTimeSig:vector  ETV
vector 304403  Network.dyn_peer[201]  lookupHopsSig:vector  ETV
vector 304402  Network.dyn_peer[201]  lookupTimeSig:vector  ETV
vector 304407  Network.dyn_peer[203]  lookupHopsSig:vector  ETV
vector 304406  Network.dyn_peer[203]  lookupTimeSig:vector  ETV
vector 304411  Network.dyn_peer[205]  lookupHopsSig:vector  ETV
vector 304410  Network.dyn_peer[205]  lookupTimeSig:vector  ETV
vector 304415  Network.dyn_peer[207]  lookupHopsSig:vector  ETV
vector 304414  Network.dyn_peer[207]  lookupTimeSig:vector  ETV
vector 304419  Network.dyn_peer[209]  lookupHopsSig:vector  ETV
vector 304418  Network.dyn_peer[209]  lookupTimeSig:vector  ETV
vector 304421  Network.dyn_peer[210]  lookupHopsSig:vector  ETV
vector 304420  Network.dyn_peer[210]  lookupTimeSig:vector  ETV
vector 304417  Network.dyn_peer[208]  lookupHopsSig:vector  ETV
vector 304416  Network.dyn_peer[208]  lookupTimeSig:vector  ETV
vector 304413  Network.dyn_peer[206]  lookupHopsSig:vector  ETV
vector 304412  Network.dyn_peer[206]  lookupTimeSig:vector  ETV
vector 304423  Network.dyn_peer[211]  lookupHopsSig:vector  ETV
vector 304422  Network.dyn_peer[211]  lookupTimeSig:vector  ETV
vector 304425  Network.dyn_peer[212]  lookupHopsSig:vector  ETV
vector 304424  Network.dyn_peer[212]  lookupTimeSig:vector  ETV
vector 304429  Network.dyn_peer[214]  lookupHopsSig:vector  ETV
vector 304428  Network.dyn_peer[214]  lookupTimeSig:vector  ETV
vector 304431  Network.dyn_peer[215]  lookupHopsSig:vector  ETV
vector 304430  Network.dyn_peer[215]  lookupTimeSig:vector  ETV
vector 304433  Network.dyn_peer[216]  lookupHopsSig:vector  ETV
vector 304432  Network.dyn_peer[216]  lookupTimeSig:vector  ETV
vector 304435  Network.dyn_peer[217]  lookupHopsSig:vector  ETV
vector 304434  Network.dyn_peer[217]  lookupTimeSig:vector  ETV
vector 304427  Network.dyn_peer[213]  lookupHopsSig:vector  ETV
vector 304426  Network.dyn_peer[213]  lookupTimeSig:vector  ETV
vector 304439  Network.dyn_peer[219]  lookupHopsSig:vector  ETV
vector 304438  Network.dyn_peer[219]  lookupTimeSig:vector  ETV
vector 304443  Network.dyn_peer[221]  lookupHopsSig:vector  ETV
vector 304442  Network.dyn_peer[221]  lookupTimeSig:vector  ETV
vector 304445  Network.dyn_peer[222]  lookupHopsSig:vector  ETV
vector 304444  Network.dyn_peer[222]  lookupTimeSig:vector  ETV
vector 304449  Network.dyn_peer[224]  lookupHopsSig:vector  ETV
vector 304448  Network.dyn_peer[224]  lookupTimeSig:vector  ETV
vector 304453  Network.dyn_peer[226]  lookupHopsSig:vector  ETV
vector 304452  Network.dyn_peer[226]  lookupTimeSig:vector  ETV
vector 304437  Network.dyn_peer[218]  lookupHopsSig:vector  ETV
vector 304436  Network.dyn_peer[218]  lookupTimeSig:vector  ETV
vector 304441  Network.dyn_peer[220]  lookupHopsSig:vector  ETV
vector 304440  Network.dyn_peer[220]  lookupTimeSig:vector  ETV
vector 304447  Network.dyn_peer[223]  lookupHopsSig:vector  ETV
vector 304446  Network.dyn_peer[223]  lookupTimeSig:vector  ETV
vector 304451  Network.dyn_peer[225]  lookupHopsSig:vector  ETV
vector 304450  Network.dyn_peer[225]  lookupTimeSig:vector  ETV
vector 304455  Network.dyn_peer[227]  lookupHopsSig:vector  ETV
vector 304454  Network.dyn_peer[227]  lookupTimeSig:vector  ETV
vector 304463  Network.dyn_peer[231]  lookupHopsSig:vector  ETV
vector 304462  Network.dyn_peer[231]  lookupTimeSig:vector  ETV
vector 304461  Network.dyn_peer[230]  lookupHopsSig:vector  ETV
vector 304460  Network.dyn_peer[230]  lookupTimeSig:vector  ETV
vector 304459  Network.dyn_peer[229]  lookupHopsSig:vector  ETV
vector 304458  Network.dyn_peer[229]  lookupTimeSig:vector  ETV
vector 304457  Network.dyn_peer[228]  lookupHopsSig:vector  ETV
vector 304456  Network.dyn_peer[228]  lookupTimeSig:vector  ETV